Protein in INSANE! Membrane UpperLeaflet>POPC=1.0 LowerLeaflet>POPC=1.0
239342
    1AU     AUC    1  44.059  12.289   7.503
    1AU     AUC    2  44.303  12.282   7.339
    1AU     AUC    3  44.316  12.284   7.647
    1AU     AUC    4  43.802  12.295   7.357
    1AU     AUC    5  43.814  12.301   7.666
    1AU     AUC    6  43.912  12.543   7.504
    1AU     AUC    7  44.219  12.536   7.494
    1AU     AUC    8  43.895  12.041   7.513
    1AU     AUC    9  44.208  12.035   7.499
    1AU     AUC   10  44.065  12.138   7.756
    1AU     AUC   11  44.074  12.448   7.752
    1AU     AUC   12  44.046  12.133   7.252
    1AU     AUC   13  44.054  12.442   7.250
    1AU     AUC   14  44.539  12.276   7.179
    1AU     AUC   15  44.556  12.272   7.483
    1AU     AUC   16  44.565  12.276   7.786
    1AU     AUC   17  43.556  12.297   7.214
    1AU     AUC   18  43.560  12.311   7.515
    1AU     AUC   19  43.577  12.315   7.823
    1AU     AUC   20  43.771  12.791   7.505
    1AU     AUC   21  44.075  12.787   7.497
    1AU     AUC   22  44.375  12.775   7.487
    1AU     AUC   23  43.741  11.805   7.523
    1AU     AUC   24  44.041  11.793   7.520
    1AU     AUC   25  44.349  11.789   7.496
    1AU     AUC   26  44.069  11.990   7.998
    1AU     AUC   27  44.077  12.289   8.001
    1AU     AUC   28  44.089  12.597   7.993
    1AU     AUC   29  44.035  11.981   7.013
    1AU     AUC   30  44.042  12.281   7.004
    1AU     AUC   31  44.049  12.589   7.006
    1AU     AUC   32  44.318  12.127   7.897
    1AU     AUC   33  44.329  12.434   7.898
    1AU     AUC   34  44.287  12.128   7.092
    1AU     AUC   35  44.300  12.435   7.092
    1AU     AUC   36  43.814  12.151   7.913
    1AU     AUC   37  43.832  12.455   7.915
    1AU     AUC   38  43.796  12.134   7.109
    1AU     AUC   39  43.799  12.443   7.106
    1AU     AUC   40  44.464  12.526   7.335
    1AU     AUC   41  44.476  12.525   7.642
    1AU     AUC   42  43.656  12.547   7.355
    1AU     AUC   43  43.671  12.557   7.666
    1AU     AUC   44  44.443  12.023   7.330
    1AU     AUC   45  44.460  12.026   7.638
    1AU     AUC   46  43.648  12.046   7.363
    1AU     AUC   47  43.649  12.059   7.666
    1AU     AUC   48  43.931  12.701   7.754
    1AU     AUC   49  44.236  12.690   7.745
    1AU     AUC   50  43.896  11.898   7.762
    1AU     AUC   51  44.211  11.885   7.753
    1AU     AUC   52  43.910  12.694   7.249
    1AU     AUC   53  44.217  12.687   7.243
    1AU     AUC   54  43.887  11.884   7.271
    1AU     AUC   55  44.191  11.877   7.255
    1AU    AUSL   56  44.502  12.239   8.071
    1AU    AUSL   57  44.366  11.855   8.047
    1AU     AUL   58  44.761  12.028   8.197
    1AU       S   59  44.660  11.547   8.310
    1AU     LIG   60  44.667  11.169   8.561
    1AU     LIG   61  44.653  10.731   8.692
    1AU     LIG   62  44.899  10.449   8.952
    1AU     LIG   63   0.202  10.212   9.211
    1AU     LIG   64   0.249   9.968   9.608
    1AU     LIG   65   0.177   9.859  10.074
    1AU       S   66  44.549  12.143   8.661
    1AU     LIG   67  44.777  12.038   9.070
    1AU     LIG   68  44.942  11.794   9.461
    1AU     LIG   69   0.221  11.589   9.800
    1AU     LIG   70   0.641  11.593  10.039
    1AU     LIG   71   1.001  11.803  10.270
    1AU     LIG   72   1.158  12.188  10.509
    1AU    AUSL   73  44.219  12.109   8.210
    1AU    AUSL   74  43.944  12.444   8.196
    1AU     AUL   75  44.034  12.275   8.502
    1AU       S   76  44.404  11.948   8.591
    1AU     LIG   77  44.598  11.605   8.853
    1AU     LIG   78  44.661  11.398   9.287
    1AU     LIG   79  44.761  11.314   9.765
    1AU     LIG   80  44.752  11.149  10.236
    1AU     LIG   81  44.680  11.232  10.710
    1AU     LIG   82  44.824  11.508  11.080
    1AU       S   83  43.564  12.484   8.653
    1AU     LIG   84  43.419  12.457   9.110
    1AU     LIG   85  43.400  12.164   9.497
    1AU     LIG   86  43.318  12.000   9.931
    1AU     LIG   87  43.318  12.202  10.371
    1AU     LIG   88  43.246  12.564  10.689
    1AU     LIG   89  43.105  12.881  11.020
    1AU    AUSL   90  44.279  12.449   8.205
    1AU    AUSL   91  44.628  12.540   7.945
    1AU     AUL   92  44.706  12.368   8.244
    1AU       S   93  44.457  12.487   8.665
    1AU     LIG   94  44.497  12.890   8.924
    1AU     LIG   95  44.624  13.071   9.349
    1AU     LIG   96  44.572  13.096   9.833
    1AU     LIG   97  44.598  13.168  10.303
    1AU     LIG   98  44.727  13.163  10.751
    1AU     LIG   99   0.019  13.036  11.087
    1AU       S  100   0.013  12.745   8.169
    1AU     LIG  101   0.371  12.679   8.431
    1AU     LIG  102   0.544  12.853   8.821
    1AU     LIG  103   0.846  13.039   9.136
    1AU     LIG  104   1.212  13.028   9.454
    1AU     LIG  105   1.549  13.152   9.774
    1AU     LIG  106   1.780  13.483  10.038
    1AU    AUSL  107  44.480  12.328   6.892
    1AU    AUSL  108  44.337  12.682   6.939
    1AU     AUL  109  44.406  12.618   6.590
    1AU       S  110  44.582  12.174   6.369
    1AU     LIG  111  44.794  11.856   6.113
    1AU     LIG  112   0.037  11.731   5.724
    1AU     LIG  113   0.226  11.743   5.288
    1AU     LIG  114   0.613  11.634   5.011
    1AU     LIG  115   0.977  11.704   4.700
    1AU     LIG  116   1.236  11.746   4.307
    1AU       S  117  44.820  12.882   6.687
    1AU     LIG  118   0.109  12.996   6.346
    1AU     LIG  119   0.336  13.211   5.991
    1AU     LIG  120   0.470  13.386   5.571
    1AU     LIG  121   0.532  13.738   5.255
    1AU     LIG  122   0.805  13.985   4.948
    1AU     LIG  123   0.848  14.311   4.600
    1AU    AUSL  124  44.241  12.106   6.797
    1AU    AUSL  125  44.526  12.012   7.019
    1AU     AUL  126  44.737  12.152   6.839
    1AU       S  127  44.683  11.695   6.624
    1AU     LIG  128  44.920  11.415   6.343
    1AU     LIG  129   0.134  11.016   6.234
    1AU     LIG  130   0.311  10.649   6.005
    1AU     LIG  131   0.595  10.536   5.643
    1AU     LIG  132   1.000  10.631   5.403
    1AU     LIG  133   1.428  10.631   5.186
    1AU       S  134  44.311  11.963   6.415
    1AU     LIG  135  44.329  11.625   6.139
    1AU     LIG  136  44.549  11.566   5.740
    1AU     LIG  137  44.738  11.541   5.296
    1AU     LIG  138  44.747  11.278   4.879
    1AU     LIG  139  44.761  11.108   4.420
    1AU     LIG  140  44.655  11.114   3.958
    1AU    AUSL  141  44.173  12.428   6.807
    1AU    AUSL  142  43.897  12.118   6.786
    1AU     AUL  143  44.063  12.464   6.543
    1AU       S  144  43.836  11.886   6.410
    1AU     LIG  145  43.797  11.632   6.036
    1AU     LIG  146  43.521  11.514   5.672
    1AU     LIG  147  43.363  11.511   5.229
    1AU     LIG  148  43.147  11.466   4.815
    1AU     LIG  149  43.117  11.174   4.435
    1AU     LIG  150  43.161  11.182   3.954
    1AU       S  151  44.362  12.100   6.413
    1AU     LIG  152  44.381  12.075   5.906
    1AU     LIG  153  44.664  12.021   5.509
    1AU     LIG  154  44.834  12.028   5.049
    1AU     LIG  155  44.895  12.237   4.598
    1AU     LIG  156  44.900  12.511   4.186
    1AU     LIG  157  44.937  12.734   3.757
    1AU    AUSL  158  43.643  12.333   8.126
    1AU    AUSL  159  43.824  12.732   8.069
    1AU     AUL  160  43.955  12.641   8.388
    1AU       S  161  43.402  12.371   8.488
    1AU     LIG  162  43.084  12.209   8.816
    1AU     LIG  163  42.992  11.989   9.237
    1AU     LIG  164  42.907  11.785   9.673
    1AU     LIG  165  42.604  11.705  10.050
    1AU     LIG  166  42.275  11.902  10.365
    1AU     LIG  167  41.861  11.971  10.619
    1AU       S  168  43.535  12.913   8.420
    1AU     LIG  169  43.471  13.018   8.871
    1AU     LIG  170  43.334  13.300   9.230
    1AU     LIG  171  43.055  13.606   9.459
    1AU     LIG  172  42.929  13.807   9.883
    1AU     LIG  173  42.803  14.007  10.311
    1AU     LIG  174  42.680  14.338  10.640
    1AU    AUSL  175  43.886  12.110   8.211
    1AU    AUSL  176  43.518  12.064   7.962
    1AU     AUL  177  43.566  11.941   8.281
    1AU       S  178  43.221  11.575   8.119
    1AU     LIG  179  42.827  11.338   8.076
    1AU     LIG  180  42.461  11.101   8.260
    1AU     LIG  181  42.239  10.816   8.571
    1AU     LIG  182  41.971  10.541   8.839
    1AU     LIG  183  41.758  10.455   9.239
    1AU     LIG  184  41.463  10.615   9.577
    1AU       S  185  43.578  12.215   8.691
    1AU     LIG  186  43.470  11.926   9.038
    1AU     LIG  187  43.354  11.653   9.414
    1AU     LIG  188  43.289  11.465   9.837
    1AU     LIG  189  43.079  11.270  10.205
    1AU     LIG  190  42.834  11.253  10.589
    1AU     LIG  191  42.991  11.192  11.019
    1AU    AUSL  192  43.611  12.252   6.929
    1AU    AUSL  193  43.762  11.865   6.958
    1AU     AUL  194  43.475  12.013   6.762
    1AU       S  195  43.613  12.166   6.311
    1AU     LIG  196  43.369  11.934   5.958
    1AU     LIG  197  43.098  11.806   5.565
    1AU     LIG  198  42.840  11.586   5.217
    1AU     LIG  199  42.517  11.538   4.860
    1AU     LIG  200  42.150  11.644   4.549
    1AU     LIG  201  41.875  11.852   4.207
    1AU       S  202  43.390  11.503   6.794
    1AU     LIG  203  43.142  11.092   6.772
    1AU     LIG  204  42.804  10.854   6.522
    1AU     LIG  205  42.507  10.578   6.236
    1AU     LIG  206  42.401  10.321   5.817
    1AU     LIG  207  42.374  10.240   5.327
    1AU     LIG  208  42.310  10.122   4.854
    1AU    AUSL  209  43.841  12.451   6.810
    1AU    AUSL  210  43.522  12.553   7.055
    1AU     AUL  211  43.428  12.410   6.721
    1AU       S  212  43.317  12.891   6.677
    1AU     LIG  213  43.153  12.969   6.218
    1AU     LIG  214  42.909  13.194   5.856
    1AU     LIG  215  42.690  13.305   5.433
    1AU     LIG  216  42.330  13.388   5.117
    1AU     LIG  217  41.868  13.477   5.030
    1AU     LIG  218  41.422  13.595   4.904
    1AU       S  219  43.816  12.093   6.372
    1AU     LIG  220  43.852  12.107   5.871
    1AU     LIG  221  43.578  11.991   5.475
    1AU     LIG  222  43.303  12.004   5.069
    1AU     LIG  223  43.261  12.241   4.632
    1AU     LIG  224  43.269  12.467   4.188
    1AU     LIG  225  43.236  12.743   3.783
    1AU    AUSL  226  44.666  12.691   7.454
    1AU    AUSL  227  44.625  12.564   7.090
    1AU     AUL  228  44.743  12.999   7.324
    1AU       S  229  44.961  12.629   6.818
    1AU     LIG  230   0.372  12.633   6.609
    1AU     LIG  231   0.619  12.883   6.284
    1AU     LIG  232   0.816  13.034   5.862
    1AU     LIG  233   1.220  13.047   5.594
    1AU     LIG  234   1.587  13.254   5.364
    1AU     LIG  235   1.856  13.522   5.074
    1AU       S  236   0.209  12.766   7.385
    1AU     LIG  237   0.705  12.848   7.487
    1AU     LIG  238   1.198  12.952   7.517
    1AU     LIG  239   1.641  13.150   7.479
    1AU     LIG  240   1.897  13.563   7.351
    1AU     LIG  241   2.122  13.987   7.295
    1AU     LIG  242   2.402  14.222   7.575
    1AU    AUSL  243  44.779  12.391   7.326
    1AU    AUSL  244  44.766  12.121   7.611
    1AU     AUL  245   0.068  12.103   7.370
    1AU       S  246   0.183  12.579   7.262
    1AU     LIG  247   0.618  12.545   7.091
    1AU     LIG  248   1.093  12.536   7.235
    1AU     LIG  249   1.577  12.661   7.263
    1AU     LIG  250   2.025  12.846   7.300
    1AU     LIG  251   2.477  12.890   7.090
    1AU     LIG  252   2.787  13.217   6.866
    1AU       S  253   0.126  11.627   7.643
    1AU     LIG  254   0.495  11.401   7.825
    1AU     LIG  255   0.927  11.190   7.813
    1AU     LIG  256   1.361  11.003   7.744
    1AU     LIG  257   1.774  10.766   7.736
    1AU     LIG  258   2.212  10.624   7.892
    1AU     LIG  259   2.661  10.782   7.970
    1AU    AUSL  260  44.775  12.449   7.663
    1AU    AUSL  261  44.520  12.787   7.746
    1AU     AUL  262  44.819  12.850   7.707
    1AU       S  263  44.846  12.880   8.201
    1AU     LIG  264   0.159  13.153   8.452
    1AU     LIG  265   0.501  13.355   8.692
    1AU     LIG  266   0.704  13.751   8.840
    1AU     LIG  267   0.960  14.155   8.804
    1AU     LIG  268   1.320  14.467   8.903
    1AU     LIG  269   1.590  14.866   8.908
    1AU       S  270   0.222  12.545   7.627
    1AU     LIG  271   0.631  12.500   7.852
    1AU     LIG  272   1.104  12.514   7.767
    1AU     LIG  273   1.572  12.649   7.779
    1AU     LIG  274   2.023  12.654   7.965
    1AU     LIG  275   2.444  12.822   8.129
    1AU     LIG  276   2.920  12.866   8.149
    1AU    AUSL  277  43.474  12.758   7.529
    1AU    AUSL  278  43.534  12.590   7.938
    1AU     AUL  279  43.406  13.023   7.790
    1AU       S  280  43.263  12.742   8.227
    1AU     LIG  281  43.098  12.727   8.677
    1AU     LIG  282  42.956  13.021   9.012
    1AU     LIG  283  42.686  13.259   9.330
    1AU     LIG  284  42.294  13.286   9.632
    1AU     LIG  285  41.883  13.430   9.848
    1AU     LIG  286  41.505  13.725   9.919
    1AU       S  287  42.966  12.906   7.591
    1AU     LIG  288  42.594  13.198   7.519
    1AU     LIG  289  42.371  13.635   7.504
    1AU     LIG  290  42.036  13.995   7.500
    1AU     LIG  291  41.680  14.276   7.660
    1AU     LIG  292  41.343  14.606   7.667
    1AU     LIG  293  40.866  14.652   7.768
    1AU    AUSL  294  43.358  12.488   7.346
    1AU    AUSL  295  43.619  12.830   7.236
    1AU     AUL  296  43.279  12.797   7.197
    1AU       S  297  42.821  12.725   7.398
    1AU     LIG  298  42.367  12.777   7.213
    1AU     LIG  299  41.937  12.836   6.947
    1AU     LIG  300  41.612  13.114   6.729
    1AU     LIG  301  41.301  13.472   6.739
    1AU     LIG  302  40.823  13.572   6.768
    1AU     LIG  303  40.402  13.365   6.745
    1AU       S  304  43.363  13.118   6.808
    1AU     LIG  305  43.156  13.402   6.486
    1AU     LIG  306  43.058  13.650   6.090
    1AU     LIG  307  42.917  14.080   5.913
    1AU     LIG  308  42.683  14.506   5.880
    1AU     LIG  309  42.289  14.765   5.964
    1AU     LIG  310  41.850  14.874   6.054
    1AU    AUSL  311  43.358  12.478   7.689
    1AU    AUSL  312  43.324  12.158   7.351
    1AU     AUL  313  43.071  12.319   7.521
    1AU       S  314  42.922  11.813   7.344
    1AU     LIG  315  42.483  11.924   7.654
    1AU     LIG  316  41.998  12.016   7.685
    1AU     LIG  317  41.545  12.075   7.520
    1AU     LIG  318  41.217  11.864   7.197
    1AU     LIG  319  40.970  11.474   7.244
    1AU     LIG  320  40.546  11.279   7.247
    1AU       S  321  42.968  12.691   7.837
    1AU     LIG  322  42.523  12.832   7.886
    1AU     LIG  323  42.152  12.936   8.165
    1AU     LIG  324  41.693  13.015   8.243
    1AU     LIG  325  41.280  13.091   8.433
    1AU     LIG  326  40.886  13.342   8.351
    1AU     LIG  327  40.429  13.341   8.232
    1AU    AUSL  328  44.655  11.824   7.500
    1AU    AUSL  329  44.615  11.993   7.875
    1AU     AUL  330  44.955  12.047   7.829
    1AU       S  331  44.857  11.436   7.475
    1AU     LIG  332   0.097  11.104   7.699
    1AU     LIG  333   0.524  10.918   7.619
    1AU     LIG  334   0.964  10.754   7.515
    1AU     LIG  335   1.403  10.588   7.417
    1AU     LIG  336   1.831  10.384   7.374
    1AU     LIG  337   2.216  10.187   7.543
    1AU       S  338  44.830  11.566   8.072
    1AU     LIG  339   0.120  11.270   8.318
    1AU     LIG  340   0.140  10.852   8.570
    1AU     LIG  341   0.397  10.557   8.867
    1AU     LIG  342   0.694  10.489   9.259
    1AU     LIG  343   1.076  10.566   9.586
    1AU     LIG  344   1.492  10.580   9.862
    1AU    AUSL  345  44.714  12.070   7.286
    1AU    AUSL  346  44.477  11.739   7.217
    1AU     AUL  347  44.846  11.857   7.109
    1AU       S  348  44.969  11.601   7.508
    1AU     LIG  349   0.365  11.336   7.319
    1AU     LIG  350   0.833  11.212   7.304
    1AU     LIG  351   1.295  11.061   7.234
    1AU     LIG  352   1.758  10.899   7.153
    1AU     LIG  353   2.221  10.965   6.934
    1AU     LIG  354   2.688  10.999   6.755
    1AU       S  355  44.700  11.456   6.835
    1AU     LIG  356  44.858  11.021   6.682
    1AU     LIG  357   0.013  10.591   6.504
    1AU     LIG  358   0.190  10.218   6.271
    1AU     LIG  359   0.326   9.834   6.036
    1AU     LIG  360   0.729   9.556   5.964
    1AU     LIG  361   1.169   9.618   5.795
    1AU    AUSL  362  43.445  11.884   7.479
    1AU    AUSL  363  43.505  12.006   7.124
    1AU     AUL  364  43.210  12.136   7.077
    1AU       S  365  43.196  11.623   6.958
    1AU     LIG  366  42.772  11.465   6.804
    1AU     LIG  367  42.412  11.182   6.656
    1AU     LIG  368  42.000  10.964   6.543
    1AU     LIG  369  41.654  10.858   6.232
    1AU     LIG  370  41.445  10.662   5.857
    1AU     LIG  371  41.461  10.595   5.388
    1AU       S  372  43.099  11.708   7.435
    1AU     LIG  373  42.663  11.448   7.583
    1AU     LIG  374  42.169  11.496   7.567
    1AU     LIG  375  41.752  11.270   7.696
    1AU     LIG  376  41.325  11.197   7.499
    1AU     LIG  377  40.885  11.068   7.565
    1AU     LIG  378  40.580  10.793   7.787
    1AU    AUSL  379  43.374  12.149   7.676
    1AU    AUSL  380  43.572  11.779   7.772
    1AU     AUL  381  43.211  11.995   7.853
    1AU       S  382  43.304  11.453   7.792
    1AU     LIG  383  43.069  11.107   7.684
    1AU     LIG  384  42.728  10.861   7.873
    1AU     LIG  385  42.473  10.581   8.171
    1AU     LIG  386  42.248  10.278   8.476
    1AU     LIG  387  41.984  10.010   8.773
    1AU     LIG  388  41.659   9.654   8.828
    1AU       S  389  42.933  11.849   7.457
    1AU     LIG  390  42.478  11.845   7.161
    1AU     LIG  391  42.005  11.864   7.196
    1AU     LIG  392  41.645  11.622   7.363
    1AU     LIG  393  41.251  11.664   7.660
    1AU     LIG  394  40.778  11.569   7.713
    1AU     LIG  395  40.415  11.278   7.756
    1AU    AUSL  396  44.088  12.900   7.936
    1AU    AUSL  397  43.688  12.834   7.779
    1AU     AUL  398  43.771  13.108   7.976
    1AU       S  399  43.428  12.928   8.290
    1AU     LIG  400  43.130  13.219   8.533
    1AU     LIG  401  43.024  13.523   8.887
    1AU     LIG  402  42.886  13.933   9.077
    1AU     LIG  403  42.685  14.367   9.043
    1AU     LIG  404  42.366  14.723   9.060
    1AU     LIG  405  42.073  15.090   8.986
    1AU       S  406  44.149  13.423   8.071
    1AU     LIG  407  44.476  13.642   8.326
    1AU     LIG  408  44.617  14.017   8.573
    1AU     LIG  409  44.575  14.434   8.771
    1AU     LIG  410  44.550  14.671   9.177
    1AU     LIG  411  44.385  14.904   9.562
    1AU     LIG  412  44.414  15.245   9.896
    1AU    AUSL  413  43.935  13.010   7.649
    1AU    AUSL  414  44.226  13.019   7.333
    1AU     AUL  415  43.775  13.249   7.443
    1AU       S  416  44.057  13.507   7.786
    1AU     LIG  417  44.171  13.940   8.043
    1AU     LIG  418  44.280  14.335   8.329
    1AU     LIG  419  44.294  14.804   8.475
    1AU     LIG  420  44.094  15.271   8.482
    1AU     LIG  421  43.929  15.752   8.515
    1AU     LIG  422  43.919  16.246   8.619
    1AU       S  423  44.385  13.425   7.259
    1AU     LIG  424  44.676  13.781   7.248
    1AU     LIG  425  44.740  14.176   6.993
    1AU     LIG  426  44.845  14.581   6.749
    1AU     LIG  427   0.109  14.996   6.645
    1AU     LIG  428   0.255  15.486   6.587
    1AU     LIG  429   0.255  15.975   6.486
    1AU    AUSL  430  44.271  12.986   7.656
    1AU    AUSL  431  44.350  12.720   8.035
    1AU     AUL  432  44.453  13.055   7.941
    1AU       S  433  44.651  12.847   8.349
    1AU     LIG  434  44.945  12.776   8.713
    1AU     LIG  435   0.130  13.103   8.995
    1AU     LIG  436   0.458  13.381   9.207
    1AU     LIG  437   0.622  13.661   9.559
    1AU     LIG  438   0.629  14.035   9.870
    1AU     LIG  439   0.631  14.373  10.217
    1AU       S  440  44.283  13.469   7.733
    1AU     LIG  441  44.590  13.803   7.786
    1AU     LIG  442  44.694  14.150   8.085
    1AU     LIG  443  44.751  14.591   8.298
    1AU     LIG  444  44.984  15.031   8.394
    1AU     LIG  445   0.149  15.539   8.388
    1AU     LIG  446   0.272  16.039   8.472
    1AU    AUSL  447  44.070  11.709   7.977
    1AU    AUSL  448  44.468  11.716   7.752
    1AU     AUL  449  44.287  11.467   7.991
    1AU       S  450  43.895  11.161   8.087
    1AU     LIG  451  43.696  10.754   8.193
    1AU     LIG  452  43.654  10.291   8.181
    1AU     LIG  453  43.637   9.857   8.340
    1AU     LIG  454  43.793   9.581   8.695
    1AU     LIG  455  43.795   9.404   9.148
    1AU     LIG  456  43.889   9.303   9.614
    1AU       S  457  44.779  11.416   7.958
    1AU     LIG  458  44.783  10.954   8.104
    1AU     LIG  459  44.865  10.513   8.276
    1AU     LIG  460   0.105  10.212   8.549
    1AU     LIG  461   0.252   9.857   8.834
    1AU     LIG  462   0.633   9.586   8.998
    1AU     LIG  463   1.032   9.266   8.944
    1AU    AUSL  464  43.853  11.599   7.731
    1AU    AUSL  465  43.789  11.874   8.000
    1AU     AUL  466  43.786  11.645   8.159
    1AU       S  467  43.699  11.168   7.877
    1AU     LIG  468  43.478  10.795   7.733
    1AU     LIG  469  43.423  10.324   7.728
    1AU     LIG  470  43.223   9.919   7.936
    1AU     LIG  471  42.954   9.494   7.990
    1AU     LIG  472  42.802   9.109   8.252
    1AU     LIG  473  42.885   8.686   8.463
    1AU       S  474  43.364  11.503   7.955
    1AU     LIG  475  43.268  11.064   8.148
    1AU     LIG  476  42.903  10.843   8.363
    1AU     LIG  477  42.667  10.537   8.650
    1AU     LIG  478  42.408  10.312   8.973
    1AU     LIG  479  42.299  10.373   9.420
    1AU     LIG  480  42.357  10.318   9.893
    1AU    AUSL  481  44.171  11.611   7.671
    1AU    AUSL  482  43.881  11.554   7.399
    1AU     AUL  483  44.231  11.342   7.606
    1AU       S  484  43.579  11.209   7.409
    1AU     LIG  485  43.290  10.878   7.267
    1AU     LIG  486  43.302  10.420   7.238
    1AU     LIG  487  43.216   9.979   7.127
    1AU     LIG  488  43.157   9.582   6.903
    1AU     LIG  489  42.863   9.258   6.765
    1AU     LIG  490  42.686   8.861   6.628
    1AU       S  491  43.823  11.225   7.834
    1AU     LIG  492  43.991  10.764   7.760
    1AU     LIG  493  43.971  10.289   7.764
    1AU     LIG  494  44.078   9.941   8.080
    1AU     LIG  495  44.247   9.574   8.360
    1AU     LIG  496  44.403   9.105   8.391
    1AU     LIG  497  44.509   8.637   8.507
    1AU    AUSL  498  44.087  12.884   7.048
    1AU    AUSL  499  44.466  12.820   7.219
    1AU     AUL  500  44.391  13.019   6.938
    1AU       S  501  44.154  13.450   6.954
    1AU     LIG  502  44.364  13.775   6.653
    1AU     LIG  503  44.402  14.110   6.299
    1AU     LIG  504  44.343  14.372   5.884
    1AU     LIG  505  44.335  14.794   5.637
    1AU     LIG  506  44.327  15.206   5.391
    1AU     LIG  507  44.206  15.656   5.289
    1AU       S  508  44.885  12.792   6.909
    1AU     LIG  509   0.274  13.074   6.837
    1AU     LIG  510   0.475  13.355   6.489
    1AU     LIG  511   0.650  13.781   6.309
    1AU     LIG  512   1.024  14.044   6.158
    1AU     LIG  513   1.231  14.460   6.003
    1AU     LIG  514   1.491  14.882   6.067
    1AU    AUSL  515  43.907  12.960   7.324
    1AU    AUSL  516  43.800  12.739   6.964
    1AU     AUL  517  43.787  13.113   7.062
    1AU       S  518  44.184  13.424   7.240
    1AU     LIG  519  44.211  13.926   7.117
    1AU     LIG  520  44.267  14.295   6.786
    1AU     LIG  521  44.075  14.726   6.613
    1AU     LIG  522  43.758  15.121   6.556
    1AU     LIG  523  43.424  15.502   6.511
    1AU     LIG  524  43.292  15.949   6.559
    1AU       S  525  43.613  12.926   6.615
    1AU     LIG  526  43.593  13.228   6.278
    1AU     LIG  527  43.404  13.329   5.869
    1AU     LIG  528  43.186  13.466   5.468
    1AU     LIG  529  43.099  13.760   5.102
    1AU     LIG  530  42.959  14.184   4.929
    1AU     LIG  531  42.762  14.394   4.557
    1AU    AUSL  532  43.999  11.697   7.123
    1AU    AUSL  533  43.644  11.731   7.251
    1AU     AUL  534  43.868  11.523   6.946
    1AU       S  535  43.346  11.473   7.086
    1AU     LIG  536  42.963  11.262   7.220
    1AU     LIG  537  42.685  10.946   7.026
    1AU     LIG  538  42.385  10.659   6.755
    1AU     LIG  539  42.197  10.266   6.525
    1AU     LIG  540  41.887   9.997   6.272
    1AU     LIG  541  41.961   9.541   6.095
    1AU       S  542  43.743  11.221   7.311
    1AU     LIG  543  43.632  10.968   6.917
    1AU     LIG  544  43.612  10.503   6.840
    1AU     LIG  545  43.666  10.044   6.723
    1AU     LIG  546  43.725   9.772   6.317
    1AU     LIG  547  43.792   9.617   5.857
    1AU     LIG  548  43.950   9.377   5.479
    1AU    AUSL  549  44.215  11.582   7.348
    1AU    AUSL  550  44.260  11.811   6.957
    1AU     AUL  551  44.251  11.430   7.067
    1AU       S  552  43.894  11.126   7.325
    1AU     LIG  553  43.763  10.659   7.320
    1AU     LIG  554  43.835  10.188   7.232
    1AU     LIG  555  44.094   9.784   7.083
    1AU     LIG  556  44.316   9.331   7.003
    1AU     LIG  557  44.479   8.856   6.982
    1AU     LIG  558  44.659   8.420   6.809
    1AU       S  559  44.468  11.574   6.637
    1AU     LIG  560  44.464  11.193   6.394
    1AU     LIG  561  44.659  10.816   6.208
    1AU     LIG  562  44.835  10.441   5.978
    1AU     LIG  563   0.147  10.244   5.680
    1AU     LIG  564   0.265  10.188   5.208
    1AU     LIG  565   0.440   9.919   4.847
    2AU     AUC  566  23.181  36.363   7.506
    2AU     AUC  567  23.424  36.359   7.340
    2AU     AUC  568  23.438  36.361   7.649
    2AU     AUC  569  22.923  36.365   7.361
    2AU     AUC  570  22.937  36.373   7.671
    2AU     AUC  571  23.031  36.615   7.508
    2AU     AUC  572  23.338  36.612   7.496
    2AU     AUC  573  23.020  36.113   7.517
    2AU     AUC  574  23.333  36.111   7.502
    2AU     AUC  575  23.190  36.213   7.759
    2AU     AUC  576  23.195  36.523   7.754
    2AU     AUC  577  23.168  36.206   7.255
    2AU     AUC  578  23.172  36.515   7.253
    2AU     AUC  579  23.660  36.354   7.180
    2AU     AUC  580  23.678  36.351   7.484
    2AU     AUC  581  23.689  36.356   7.786
    2AU     AUC  582  22.675  36.364   7.221
    2AU     AUC  583  22.681  36.378   7.522
    2AU     AUC  584  22.701  36.384   7.829
    2AU     AUC  585  22.886  36.861   7.508
    2AU     AUC  586  23.191  36.861   7.496
    2AU     AUC  587  23.491  36.853   7.487
    2AU     AUC  588  22.868  35.876   7.529
    2AU     AUC  589  23.168  35.867   7.524
    2AU     AUC  590  23.476  35.866   7.499
    2AU     AUC  591  23.197  36.066   8.001
    2AU     AUC  592  23.202  36.365   8.004
    2AU     AUC  593  23.210  36.673   7.994
    2AU     AUC  594  23.158  36.054   7.017
    2AU     AUC  595  23.163  36.353   7.007
    2AU     AUC  596  23.165  36.661   7.008
    2AU     AUC  597  23.444  36.206   7.899
    2AU     AUC  598  23.452  36.513   7.898
    2AU     AUC  599  23.408  36.204   7.094
    2AU     AUC  600  23.419  36.511   7.094
    2AU     AUC  601  22.940  36.223   7.918
    2AU     AUC  602  22.954  36.528   7.919
    2AU     AUC  603  22.918  36.205   7.113
    2AU     AUC  604  22.916  36.512   7.109
    2AU     AUC  605  23.582  36.604   7.337
    2AU     AUC  606  23.597  36.604   7.642
    2AU     AUC  607  22.773  36.615   7.361
    2AU     AUC  608  22.792  36.627   7.672
    2AU     AUC  609  23.567  36.101   7.332
    2AU     AUC  610  23.585  36.105   7.639
    2AU     AUC  611  22.772  36.115   7.369
    2AU     AUC  612  22.774  36.129   7.672
    2AU     AUC  613  23.050  36.775   7.756
    2AU     AUC  614  23.354  36.768   7.744
    2AU     AUC  615  23.023  35.971   7.767
    2AU     AUC  616  23.338  35.961   7.757
    2AU     AUC  617  23.023  36.763   7.251
    2AU     AUC  618  23.332  36.762   7.243
    2AU     AUC  619  23.012  35.956   7.275
    2AU     AUC  620  23.316  35.952   7.258
    2AU    AUSL  621  23.628  36.321   8.072
    2AU    AUSL  622  23.495  35.935   8.050
    2AU     AUL  623  23.894  36.118   8.193
    2AU       S  624  23.784  35.641   8.316
    2AU     LIG  625  23.810  35.280   8.575
    2AU     LIG  626  23.792  34.867   8.743
    2AU     LIG  627  24.025  34.516   8.903
    2AU     LIG  628  24.320  34.338   9.222
    2AU     LIG  629  24.575  34.329   9.628
    2AU     LIG  630  24.661  34.060  10.016
    2AU       S  631  23.678  36.238   8.652
    2AU     LIG  632  23.966  36.153   8.997
    2AU     LIG  633  24.124  35.841   9.317
    2AU     LIG  634  24.367  35.697   9.706
    2AU     LIG  635  24.750  35.743  10.007
    2AU     LIG  636  25.031  35.957  10.332
    2AU     LIG  637  25.093  36.284  10.666
    2AU    AUSL  638  23.346  36.189   8.212
    2AU    AUSL  639  23.069  36.519   8.199
    2AU     AUL  640  23.156  36.344   8.510
    2AU       S  641  23.542  36.034   8.591
    2AU     LIG  642  23.745  35.708   8.866
    2AU     LIG  643  23.767  35.468   9.279
    2AU     LIG  644  23.841  35.403   9.754
    2AU     LIG  645  23.877  35.374  10.237
    2AU     LIG  646  23.841  35.496  10.705
    2AU     LIG  647  23.918  35.349  11.153
    2AU       S  648  22.680  36.563   8.653
    2AU     LIG  649  22.519  36.535   9.110
    2AU     LIG  650  22.495  36.249   9.505
    2AU     LIG  651  22.421  36.154   9.964
    2AU     LIG  652  22.447  36.367  10.401
    2AU     LIG  653  22.497  36.625  10.808
    2AU     LIG  654  22.364  36.873  11.201
    2AU    AUSL  655  23.404  36.529   8.205
    2AU    AUSL  656  23.747  36.625   7.942
    2AU     AUL  657  23.841  36.459   8.233
    2AU       S  658  23.582  36.567   8.657
    2AU     LIG  659  23.577  36.937   8.973
    2AU     LIG  660  23.669  37.171   9.390
    2AU     LIG  661  23.682  37.309   9.861
    2AU     LIG  662  23.732  37.290  10.338
    2AU     LIG  663  23.867  37.246  10.793
    2AU     LIG  664  23.870  37.215  11.276
    2AU       S  665  24.117  36.862   8.202
    2AU     LIG  666  24.474  36.803   8.500
    2AU     LIG  667  24.719  36.886   8.885
    2AU     LIG  668  25.023  37.154   9.114
    2AU     LIG  669  25.346  37.293   9.440
    2AU     LIG  670  25.625  37.438   9.810
    2AU     LIG  671  25.800  37.696  10.182
    2AU    AUSL  672  23.602  36.406   6.894
    2AU    AUSL  673  23.453  36.759   6.942
    2AU     AUL  674  23.523  36.695   6.592
    2AU       S  675  23.707  36.253   6.373
    2AU     LIG  676  23.927  35.928   6.122
    2AU     LIG  677  24.142  35.835   5.710
    2AU     LIG  678  24.321  35.927   5.281
    2AU     LIG  679  24.718  35.900   5.002
    2AU     LIG  680  25.065  35.899   4.664
    2AU     LIG  681  25.327  35.847   4.254
    2AU       S  682  23.934  36.965   6.692
    2AU     LIG  683  24.247  37.001   6.360
    2AU     LIG  684  24.461  37.180   5.993
    2AU     LIG  685  24.536  37.402   5.588
    2AU     LIG  686  24.433  37.699   5.223
    2AU     LIG  687  24.514  38.080   4.937
    2AU     LIG  688  24.639  38.349   4.566
    2AU    AUSL  689  23.363  36.181   6.801
    2AU    AUSL  690  23.648  36.089   7.020
    2AU     AUL  691  23.860  36.229   6.843
    2AU       S  692  23.805  35.771   6.624
    2AU     LIG  693  23.983  35.444   6.329
    2AU     LIG  694  24.161  34.997   6.241
    2AU     LIG  695  24.462  34.681   6.035
    2AU     LIG  696  24.802  34.554   5.709
    2AU     LIG  697  25.201  34.623   5.429
    2AU     LIG  698  25.590  34.707   5.157
    2AU       S  699  23.437  36.039   6.412
    2AU     LIG  700  23.473  35.702   6.132
    2AU     LIG  701  23.652  35.680   5.703
    2AU     LIG  702  23.855  35.684   5.257
    2AU     LIG  703  23.902  35.526   4.791
    2AU     LIG  704  24.041  35.352   4.353
    2AU     LIG  705  24.041  35.401   3.875
    2AU    AUSL  706  23.294  36.503   6.809
    2AU    AUSL  707  23.019  36.189   6.789
    2AU     AUL  708  23.181  36.535   6.542
    2AU       S  709  22.964  35.940   6.425
    2AU     LIG  710  22.961  35.729   6.024
    2AU     LIG  711  22.710  35.609   5.647
    2AU     LIG  712  22.512  35.553   5.223
    2AU     LIG  713  22.274  35.397   4.847
    2AU     LIG  714  22.161  35.480   4.397
    2AU     LIG  715  22.068  35.577   3.948
    2AU       S  716  23.489  36.175   6.418
    2AU     LIG  717  23.521  36.162   5.908
    2AU     LIG  718  23.788  36.149   5.494
    2AU     LIG  719  23.945  36.219   5.030
    2AU     LIG  720  24.004  36.468   4.587
    2AU     LIG  721  24.146  36.653   4.130
    2AU     LIG  722  24.316  36.875   3.724
    2AU    AUSL  723  22.768  36.405   8.131
    2AU    AUSL  724  22.947  36.806   8.074
    2AU     AUL  725  23.078  36.711   8.395
    2AU       S  726  22.517  36.445   8.483
    2AU     LIG  727  22.199  36.290   8.797
    2AU     LIG  728  22.118  36.072   9.206
    2AU     LIG  729  22.019  35.974   9.656
    2AU     LIG  730  21.640  35.950   9.963
    2AU     LIG  731  21.386  36.035  10.356
    2AU     LIG  732  21.120  36.309  10.631
    2AU       S  733  22.663  36.992   8.423
    2AU     LIG  734  22.616  37.115   8.875
    2AU     LIG  735  22.462  37.456   9.178
    2AU     LIG  736  22.280  37.561   9.611
    2AU     LIG  737  22.065  37.704  10.020
    2AU     LIG  738  21.778  37.998  10.280
    2AU     LIG  739  21.519  38.400  10.345
    2AU    AUSL  740  23.013  36.185   8.215
    2AU    AUSL  741  22.645  36.133   7.971
    2AU     AUL  742  22.703  36.012   8.293
    2AU       S  743  22.358  35.646   8.136
    2AU     LIG  744  21.974  35.399   8.080
    2AU     LIG  745  21.594  35.180   8.236
    2AU     LIG  746  21.386  34.907   8.557
    2AU     LIG  747  21.104  34.642   8.828
    2AU     LIG  748  20.803  34.546   9.176
    2AU     LIG  749  20.506  34.574   9.546
    2AU       S  750  22.694  36.306   8.689
    2AU     LIG  751  22.604  36.021   9.034
    2AU     LIG  752  22.481  35.744   9.392
    2AU     LIG  753  22.382  35.638   9.831
    2AU     LIG  754  22.330  35.429  10.249
    2AU     LIG  755  22.351  35.557  10.694
    2AU     LIG  756  22.267  35.620  11.156
    2AU    AUSL  757  22.733  36.321   6.934
    2AU    AUSL  758  22.885  35.936   6.963
    2AU     AUL  759  22.593  36.089   6.769
    2AU       S  760  22.742  36.199   6.312
    2AU     LIG  761  22.523  36.005   5.944
    2AU     LIG  762  22.278  35.894   5.546
    2AU     LIG  763  22.001  35.697   5.209
    2AU     LIG  764  21.561  35.659   5.008
    2AU     LIG  765  21.320  35.795   4.619
    2AU     LIG  766  21.104  36.007   4.256
    2AU       S  767  22.522  35.577   6.787
    2AU     LIG  768  22.236  35.179   6.759
    2AU     LIG  769  21.869  34.907   6.600
    2AU     LIG  770  21.539  34.635   6.367
    2AU     LIG  771  21.418  34.429   5.945
    2AU     LIG  772  21.458  34.236   5.514
    2AU     LIG  773  21.498  34.133   5.041
    2AU    AUSL  774  22.964  36.520   6.813
    2AU    AUSL  775  22.629  36.616   7.062
    2AU     AUL  776  22.577  36.485   6.702
    2AU       S  777  22.363  36.930   6.724
    2AU     LIG  778  22.191  37.061   6.314
    2AU     LIG  779  22.032  37.206   5.886
    2AU     LIG  780  21.723  37.267   5.524
    2AU     LIG  781  21.319  37.429   5.310
    2AU     LIG  782  20.968  37.568   5.023
    2AU     LIG  783  20.703  37.947   4.933
    2AU       S  784  22.945  36.152   6.381
    2AU     LIG  785  23.001  36.213   5.886
    2AU     LIG  786  22.757  36.097   5.480
    2AU     LIG  787  22.476  36.065   5.084
    2AU     LIG  788  22.384  36.266   4.644
    2AU     LIG  789  22.279  36.500   4.223
    2AU     LIG  790  22.103  36.649   3.792
    2AU    AUSL  791  23.784  36.770   7.454
    2AU    AUSL  792  23.742  36.645   7.093
    2AU     AUL  793  23.845  37.086   7.338
    2AU       S  794  24.068  36.717   6.821
    2AU     LIG  795  24.507  36.695   6.694
    2AU     LIG  796  24.757  36.879   6.328
    2AU     LIG  797  24.978  37.178   6.015
    2AU     LIG  798  25.295  37.231   5.645
    2AU     LIG  799  25.655  37.381   5.349
    2AU     LIG  800  25.964  37.702   5.157
    2AU       S  801  24.315  36.855   7.347
    2AU     LIG  802  24.804  36.964   7.451
    2AU     LIG  803  25.321  36.947   7.510
    2AU     LIG  804  25.813  37.064   7.505
    2AU     LIG  805  26.199  37.374   7.510
    2AU     LIG  806  26.450  37.808   7.472
    2AU     LIG  807  26.603  38.233   7.624
    2AU    AUSL  808  23.899  36.471   7.325
    2AU    AUSL  809  23.888  36.200   7.610
    2AU     AUL  810  24.188  36.182   7.371
    2AU       S  811  24.317  36.650   7.245
    2AU     LIG  812  24.785  36.559   7.144
    2AU     LIG  813  25.283  36.510   7.242
    2AU     LIG  814  25.777  36.624   7.221
    2AU     LIG  815  26.218  36.838   7.218
    2AU     LIG  816  26.676  36.905   7.041
    2AU     LIG  817  27.007  37.238   7.018
    2AU       S  818  24.254  35.707   7.652
    2AU     LIG  819  24.599  35.459   7.874
    2AU     LIG  820  25.046  35.253   7.849
    2AU     LIG  821  25.498  35.066   7.791
    2AU     LIG  822  25.945  34.858   7.768
    2AU     LIG  823  26.422  34.866   7.810
    2AU     LIG  824  26.829  34.689   7.988
    2AU    AUSL  825  23.898  36.528   7.663
    2AU    AUSL  826  23.640  36.876   7.747
    2AU     AUL  827  23.958  36.910   7.713
    2AU       S  828  23.947  36.990   8.201
    2AU     LIG  829  24.254  37.269   8.472
    2AU     LIG  830  24.669  37.362   8.696
    2AU     LIG  831  24.983  37.638   8.931
    2AU     LIG  832  25.257  37.999   9.067
    2AU     LIG  833  25.542  38.387   9.105
    2AU     LIG  834  25.766  38.800   9.054
    2AU       S  835  24.368  36.627   7.592
    2AU     LIG  836  24.840  36.497   7.657
    2AU     LIG  837  25.314  36.489   7.761
    2AU     LIG  838  25.772  36.601   7.741
    2AU     LIG  839  26.198  36.810   7.783
    2AU     LIG  840  26.610  36.984   7.945
    2AU     LIG  841  26.957  37.227   8.144
    2AU    AUSL  842  22.593  36.822   7.543
    2AU    AUSL  843  22.658  36.663   7.943
    2AU     AUL  844  22.526  37.095   7.790
    2AU       S  845  22.389  36.824   8.232
    2AU     LIG  846  22.234  36.827   8.686
    2AU     LIG  847  22.098  37.125   9.032
    2AU     LIG  848  21.864  37.299   9.433
    2AU     LIG  849  21.546  37.403   9.802
    2AU     LIG  850  21.123  37.570   9.981
    2AU     LIG  851  20.799  37.904  10.111
    2AU       S  852  22.080  36.960   7.616
    2AU     LIG  853  21.757  37.284   7.504
    2AU     LIG  854  21.523  37.710   7.516
    2AU     LIG  855  21.214  38.082   7.576
    2AU     LIG  856  20.898  38.332   7.831
    2AU     LIG  857  20.638  38.718   7.909
    2AU     LIG  858  20.194  38.787   7.844
    2AU    AUSL  859  22.475  36.552   7.359
    2AU    AUSL  860  22.729  36.892   7.243
    2AU     AUL  861  22.402  36.872   7.230
    2AU       S  862  21.944  36.778   7.409
    2AU     LIG  863  21.861  36.956   6.982
    2AU     LIG  864  21.488  37.056   6.724
    2AU     LIG  865  21.034  37.168   6.790
    2AU     LIG  866  20.589  37.264   6.735
    2AU     LIG  867  20.158  37.139   6.713
    2AU     LIG  868  19.730  37.313   6.667
    2AU       S  869  22.440  37.173   6.824
    2AU     LIG  870  22.349  37.518   6.514
    2AU     LIG  871  22.481  37.897   6.247
    2AU     LIG  872  22.427  38.373   6.137
    2AU     LIG  873  22.117  38.630   5.857
    2AU     LIG  874  21.750  38.927   5.737
    2AU     LIG  875  21.572  39.367   5.649
    2AU    AUSL  876  22.478  36.542   7.701
    2AU    AUSL  877  22.445  36.222   7.359
    2AU     AUL  878  22.194  36.376   7.546
    2AU       S  879  22.045  35.856   7.346
    2AU     LIG  880  21.580  35.907   7.638
    2AU     LIG  881  21.112  36.065   7.760
    2AU     LIG  882  20.628  36.050   7.683
    2AU     LIG  883  20.401  35.715   7.343
    2AU     LIG  884  20.131  35.373   7.138
    2AU     LIG  885  19.695  35.382   6.950
    2AU       S  886  22.083  36.755   7.854
    2AU     LIG  887  21.661  36.990   7.938
    2AU     LIG  888  21.209  37.135   8.090
    2AU     LIG  889  20.879  37.379   8.347
    2AU     LIG  890  20.399  37.385   8.340
    2AU     LIG  891  19.949  37.344   8.167
    2AU     LIG  892  19.626  37.032   8.321
    2AU    AUSL  893  23.781  35.902   7.500
    2AU    AUSL  894  23.741  36.075   7.877
    2AU     AUL  895  24.082  36.132   7.824
    2AU       S  896  23.986  35.519   7.480
    2AU     LIG  897  24.223  35.177   7.676
    2AU     LIG  898  24.659  34.991   7.622
    2AU     LIG  899  25.106  34.809   7.561
    2AU     LIG  900  25.549  34.611   7.524
    2AU     LIG  901  25.918  34.335   7.666
    2AU     LIG  902  26.311  34.370   7.929
    2AU       S  903  23.956  35.652   8.081
    2AU     LIG  904  24.264  35.423   8.357
    2AU     LIG  905  24.280  35.010   8.608
    2AU     LIG  906  24.513  34.643   8.830
    2AU     LIG  907  24.803  34.540   9.202
    2AU     LIG  908  25.141  34.660   9.529
    2AU     LIG  909  25.455  34.853   9.849
    2AU    AUSL  910  23.837  36.150   7.286
    2AU    AUSL  911  23.602  35.816   7.219
    2AU     AUL  912  23.968  35.933   7.108
    2AU       S  913  24.104  35.682   7.507
    2AU     LIG  914  24.539  35.432   7.352
    2AU     LIG  915  25.009  35.265   7.330
    2AU     LIG  916  25.469  35.067   7.275
    2AU     LIG  917  25.942  34.893   7.254
    2AU     LIG  918  26.419  34.913   7.107
    2AU     LIG  919  26.871  34.900   6.932
    2AU       S  920  23.821  35.531   6.833
    2AU     LIG  921  23.898  35.065   6.687
    2AU     LIG  922  23.963  34.589   6.560
    2AU     LIG  923  24.067  34.158   6.376
    2AU     LIG  924  24.306  33.745   6.324
    2AU     LIG  925  24.701  33.526   6.176
    2AU     LIG  926  25.120  33.348   6.089
    2AU    AUSL  927  22.571  35.949   7.486
    2AU    AUSL  928  22.628  36.075   7.129
    2AU     AUL  929  22.328  36.199   7.088
    2AU       S  930  22.326  35.689   6.958
    2AU     LIG  931  21.876  35.544   6.895
    2AU     LIG  932  21.512  35.263   6.735
    2AU     LIG  933  21.170  34.994   6.531
    2AU     LIG  934  21.051  34.717   6.180
    2AU     LIG  935  20.800  34.766   5.781
    2AU     LIG  936  20.543  34.867   5.394
    2AU       S  937  22.232  35.768   7.438
    2AU     LIG  938  21.830  35.466   7.586
    2AU     LIG  939  21.342  35.426   7.607
    2AU     LIG  940  20.890  35.212   7.594
    2AU     LIG  941  20.411  35.182   7.517
    2AU     LIG  942  19.969  34.980   7.482
    2AU     LIG  943  19.619  34.728   7.727
    2AU    AUSL  944  22.502  36.213   7.684
    2AU    AUSL  945  22.701  35.848   7.779
    2AU     AUL  946  22.337  36.058   7.858
    2AU       S  947  22.433  35.521   7.806
    2AU     LIG  948  22.226  35.150   7.703
    2AU     LIG  949  21.839  34.949   7.836
    2AU     LIG  950  21.591  34.662   8.133
    2AU     LIG  951  21.335  34.400   8.429
    2AU     LIG  952  21.084  34.080   8.644
    2AU     LIG  953  20.821  33.717   8.477
    2AU       S  954  22.058  35.912   7.463
    2AU     LIG  955  21.657  36.107   7.188
    2AU     LIG  956  21.199  36.007   7.257
    2AU     LIG  957  20.908  35.694   7.454
    2AU     LIG  958  20.573  35.575   7.796
    2AU     LIG  959  20.125  35.762   7.777
    2AU     LIG  960  19.673  35.730   7.918
    2AU    AUSL  961  23.202  36.976   7.929
    2AU    AUSL  962  22.810  36.908   7.785
    2AU     AUL  963  22.898  37.184   7.982
    2AU       S  964  22.552  37.006   8.293
    2AU     LIG  965  22.295  37.335   8.543
    2AU     LIG  966  22.310  37.761   8.767
    2AU     LIG  967  22.207  38.221   8.893
    2AU     LIG  968  21.916  38.621   8.954
    2AU     LIG  969  21.525  38.914   8.991
    2AU     LIG  970  21.142  39.204   9.047
    2AU       S  971  23.248  37.540   8.010
    2AU     LIG  972  23.376  37.856   8.313
    2AU     LIG  973  23.519  38.161   8.619
    2AU     LIG  974  23.484  38.361   9.009
    2AU     LIG  975  23.542  38.712   9.280
    2AU     LIG  976  23.492  39.066   9.570
    2AU     LIG  977  23.364  39.499   9.685
    2AU    AUSL  978  23.049  37.085   7.642
    2AU    AUSL  979  23.332  37.094   7.328
    2AU     AUL  980  22.856  37.299   7.438
    2AU       S  981  23.150  37.588   7.732
    2AU     LIG  982  23.083  38.040   7.922
    2AU     LIG  983  23.270  38.355   8.223
    2AU     LIG  984  23.203  38.829   8.310
    2AU     LIG  985  22.924  39.259   8.339
    2AU     LIG  986  22.609  39.680   8.341
    2AU     LIG  987  22.434  40.165   8.331
    2AU       S  988  23.462  37.524   7.222
    2AU     LIG  989  23.543  37.993   7.117
    2AU     LIG  990  23.661  38.400   6.875
    2AU     LIG  991  23.803  38.806   6.644
    2AU     LIG  992  24.100  39.212   6.580
    2AU     LIG  993  24.288  39.666   6.477
    2AU     LIG  994  24.153  40.080   6.279
    2AU    AUSL  995  23.387  37.065   7.651
    2AU    AUSL  996  23.467  36.801   8.033
    2AU     AUL  997  23.541  37.143   7.954
    2AU       S  998  23.756  36.933   8.352
    2AU     LIG  999  24.021  36.882   8.726
    2AU     LIG 1000  24.289  37.152   8.990
    2AU     LIG 1001  24.598  37.436   9.213
    2AU     LIG 1002  24.844  37.772   9.462
    2AU     LIG 1003  24.855  38.104   9.837
    2AU     LIG 1004  24.858  38.325  10.271
    2AU       S 1005  23.398  37.544   7.702
    2AU     LIG 1006  23.579  37.933   7.841
    2AU     LIG 1007  23.752  38.224   8.153
    2AU     LIG 1008  23.696  38.639   8.374
    2AU     LIG 1009  23.845  39.110   8.392
    2AU     LIG 1010  23.974  39.589   8.423
    2AU     LIG 1011  23.857  40.026   8.571
    2AU    AUSL 1012  23.201  35.784   7.980
    2AU    AUSL 1013  23.597  35.795   7.754
    2AU     AUL 1014  23.421  35.542   7.991
    2AU       S 1015  23.028  35.234   8.086
    2AU     LIG 1016  22.841  34.826   8.204
    2AU     LIG 1017  22.613  34.427   8.237
    2AU     LIG 1018  22.712  33.977   8.301
    2AU     LIG 1019  22.918  33.681   8.616
    2AU     LIG 1020  22.971  33.393   8.997
    2AU     LIG 1021  22.910  33.064   9.346
    2AU       S 1022  23.916  35.502   7.966
    2AU     LIG 1023  23.983  35.063   8.136
    2AU     LIG 1024  24.031  34.638   8.346
    2AU     LIG 1025  24.190  34.236   8.507
    2AU     LIG 1026  24.502  34.065   8.816
    2AU     LIG 1027  24.895  33.814   8.909
    2AU     LIG 1028  25.301  33.544   8.913
    2AU    AUSL 1029  22.983  35.671   7.736
    2AU    AUSL 1030  22.918  35.946   8.006
    2AU     AUL 1031  22.922  35.717   8.165
    2AU       S 1032  22.828  35.232   7.876
    2AU     LIG 1033  22.617  34.828   7.747
    2AU     LIG 1034  22.480  34.367   7.747
    2AU     LIG 1035  22.273  33.967   7.973
    2AU     LIG 1036  22.050  33.531   8.127
    2AU     LIG 1037  22.008  33.040   8.212
    2AU     LIG 1038  22.255  32.659   8.395
    2AU       S 1039  22.498  35.571   7.970
    2AU     LIG 1040  22.413  35.130   8.168
    2AU     LIG 1041  22.027  34.890   8.328
    2AU     LIG 1042  21.782  34.574   8.612
    2AU     LIG 1043  21.533  34.410   8.989
    2AU     LIG 1044  21.600  34.225   9.420
    2AU     LIG 1045  21.595  34.097   9.878
    2AU    AUSL 1046  23.301  35.686   7.674
    2AU    AUSL 1047  23.008  35.626   7.404
    2AU     AUL 1048  23.359  35.415   7.608
    2AU       S 1049  22.693  35.272   7.414
    2AU     LIG 1050  22.417  34.880   7.282
    2AU     LIG 1051  22.444  34.403   7.216
    2AU     LIG 1052  22.271  33.965   7.042
    2AU     LIG 1053  22.030  33.513   7.060
    2AU     LIG 1054  22.134  33.020   6.963
    2AU     LIG 1055  22.391  32.669   6.696
    2AU       S 1056  22.950  35.302   7.837
    2AU     LIG 1057  23.118  34.840   7.758
    2AU     LIG 1058  23.010  34.391   7.902
    2AU     LIG 1059  23.200  33.980   8.102
    2AU     LIG 1060  23.342  33.572   8.339
    2AU     LIG 1061  23.589  33.200   8.520
    2AU     LIG 1062  23.634  32.735   8.649
    2AU    AUSL 1063  23.195  36.954   7.042
    2AU    AUSL 1064  23.580  36.900   7.222
    2AU     AUL 1065  23.505  37.095   6.942
    2AU       S 1066  23.236  37.507   6.930
    2AU     LIG 1067  23.313  37.875   6.663
    2AU     LIG 1068  23.448  38.247   6.428
    2AU     LIG 1069  23.457  38.448   6.021
    2AU     LIG 1070  23.505  38.770   5.696
    2AU     LIG 1071  23.485  39.036   5.315
    2AU     LIG 1072  23.690  39.421   5.162
    2AU       S 1073  24.005  36.890   6.921
    2AU     LIG 1074  24.395  37.172   6.821
    2AU     LIG 1075  24.666  37.370   6.448
    2AU     LIG 1076  25.007  37.677   6.236
    2AU     LIG 1077  25.313  38.096   6.185
    2AU     LIG 1078  25.553  38.557   6.176
    2AU     LIG 1079  25.519  39.062   6.101
    2AU    AUSL 1080  23.016  37.027   7.318
    2AU    AUSL 1081  22.906  36.805   6.967
    2AU     AUL 1082  22.879  37.170   7.054
    2AU       S 1083  23.255  37.491   7.226
    2AU     LIG 1084  23.042  37.930   7.109
    2AU     LIG 1085  23.157  38.326   6.851
    2AU     LIG 1086  23.186  38.692   6.565
    2AU     LIG 1087  22.977  39.129   6.554
    2AU     LIG 1088  22.652  39.491   6.498
    2AU     LIG 1089  22.496  39.932   6.369
    2AU       S 1090  22.673  37.004   6.617
    2AU     LIG 1091  22.657  37.255   6.206
    2AU     LIG 1092  22.457  37.497   5.843
    2AU     LIG 1093  22.285  37.550   5.383
    2AU     LIG 1094  22.221  37.791   4.954
    2AU     LIG 1095  22.023  38.151   4.683
    2AU     LIG 1096  21.824  38.593   4.664
    2AU    AUSL 1097  23.124  35.771   7.127
    2AU    AUSL 1098  22.770  35.802   7.255
    2AU     AUL 1099  22.999  35.594   6.952
    2AU       S 1100  22.481  35.545   7.080
    2AU     LIG 1101  22.155  35.305   7.239
    2AU     LIG 1102  21.806  35.040   7.105
    2AU     LIG 1103  21.462  34.756   6.891
    2AU     LIG 1104  21.135  34.488   6.662
    2AU     LIG 1105  20.858  34.258   6.355
    2AU     LIG 1106  20.754  33.853   6.124
    2AU       S 1107  22.867  35.296   7.322
    2AU     LIG 1108  22.715  35.080   6.929
    2AU     LIG 1109  22.657  34.644   6.807
    2AU     LIG 1110  22.794  34.242   6.575
    2AU     LIG 1111  23.044  33.925   6.281
    2AU     LIG 1112  23.017  33.633   5.871
    2AU     LIG 1113  23.103  33.401   5.447
    2AU    AUSL 1114  23.342  35.657   7.352
    2AU    AUSL 1115  23.383  35.885   6.960
    2AU     AUL 1116  23.378  35.504   7.073
    2AU       S 1117  23.018  35.202   7.328
    2AU     LIG 1118  22.902  34.742   7.293
    2AU     LIG 1119  22.960  34.318   7.085
    2AU     LIG 1120  23.165  33.985   6.811
    2AU     LIG 1121  23.449  33.642   6.711
    2AU     LIG 1122  23.512  33.163   6.680
    2AU     LIG 1123  23.304  32.736   6.575
    2AU       S 1124  23.585  35.648   6.638
    2AU     LIG 1125  23.512  35.263   6.407
    2AU     LIG 1126  23.659  34.852   6.242
    2AU     LIG 1127  23.954  34.554   6.034
    2AU     LIG 1128  24.201  34.464   5.634
    2AU     LIG 1129  24.326  34.335   5.198
    2AU     LIG 1130  24.431  34.003   4.874
    3AU     AUC 1131  24.978  18.764   7.503
    3AU     AUC 1132  25.224  18.761   7.341
    3AU     AUC 1133  25.233  18.760   7.650
    3AU     AUC 1134  24.723  18.768   7.353
    3AU     AUC 1135  24.731  18.771   7.663
    3AU     AUC 1136  24.828  19.016   7.505
    3AU     AUC 1137  25.135  19.012   7.499
    3AU     AUC 1138  24.817  18.514   7.508
    3AU     AUC 1139  25.130  18.512   7.499
    3AU     AUC 1140  24.983  18.610   7.754
    3AU     AUC 1141  24.988  18.920   7.754
    3AU     AUC 1142  24.970  18.610   7.250
    3AU     AUC 1143  24.974  18.920   7.251
    3AU     AUC 1144  25.462  18.759   7.184
    3AU     AUC 1145  25.476  18.752   7.489
    3AU     AUC 1146  25.481  18.753   7.792
    3AU     AUC 1147  24.478  18.769   7.208
    3AU     AUC 1148  24.478  18.780   7.509
    3AU     AUC 1149  24.492  18.781   7.817
    3AU     AUC 1150  24.684  19.262   7.506
    3AU     AUC 1151  24.988  19.263   7.501
    3AU     AUC 1152  25.288  19.253   7.496
    3AU     AUC 1153  24.666  18.276   7.514
    3AU     AUC 1154  24.966  18.267   7.515
    3AU     AUC 1155  25.274  18.267   7.495
    3AU     AUC 1156  24.985  18.460   7.995
    3AU     AUC 1157  24.989  18.760   8.001
    3AU     AUC 1158  24.999  19.068   7.996
    3AU     AUC 1159  24.963  18.460   7.010
    3AU     AUC 1160  24.967  18.760   7.003
    3AU     AUC 1161  24.971  19.069   7.008
    3AU     AUC 1162  25.234  18.602   7.899
    3AU     AUC 1163  25.242  18.908   7.903
    3AU     AUC 1164  25.212  18.609   7.093
    3AU     AUC 1165  25.221  18.916   7.096
    3AU     AUC 1166  24.730  18.619   7.909
    3AU     AUC 1167  24.743  18.924   7.913
    3AU     AUC 1168  24.721  18.610   7.104
    3AU     AUC 1169  24.721  18.919   7.104
    3AU     AUC 1170  25.382  19.006   7.342
    3AU     AUC 1171  25.391  19.002   7.649
    3AU     AUC 1172  24.574  19.018   7.353
    3AU     AUC 1173  24.585  19.025   7.664
    3AU     AUC 1174  25.367  18.504   7.333
    3AU     AUC 1175  25.380  18.504   7.641
    3AU     AUC 1176  24.572  18.518   7.356
    3AU     AUC 1177  24.569  18.528   7.658
    3AU     AUC 1178  24.842  19.172   7.756
    3AU     AUC 1179  25.148  19.164   7.750
    3AU     AUC 1180  24.816  18.369   7.756
    3AU     AUC 1181  25.132  18.359   7.751
    3AU     AUC 1182  24.827  19.169   7.251
    3AU     AUC 1183  25.134  19.166   7.248
    3AU     AUC 1184  24.814  18.360   7.264
    3AU     AUC 1185  25.118  18.356   7.252
    3AU    AUSL 1186  25.413  18.716   8.077
    3AU    AUSL 1187  25.282  18.329   8.048
    3AU     AUL 1188  25.688  18.520   8.194
    3AU       S 1189  25.550  18.044   8.327
    3AU     LIG 1190  25.630  17.633   8.546
    3AU     LIG 1191  25.743  17.249   8.814
    3AU     LIG 1192  25.882  16.831   9.007
    3AU     LIG 1193  25.954  16.555   9.399
    3AU     LIG 1194  25.972  16.465   9.873
    3AU     LIG 1195  26.255  16.255  10.184
    3AU       S 1196  25.453  18.598   8.661
    3AU     LIG 1197  25.775  18.476   8.963
    3AU     LIG 1198  25.898  18.182   9.309
    3AU     LIG 1199  26.075  18.052   9.731
    3AU     LIG 1200  26.385  18.157  10.079
    3AU     LIG 1201  26.606  18.482  10.354
    3AU     LIG 1202  26.809  18.824  10.625
    3AU    AUSL 1203  25.130  18.580   8.210
    3AU    AUSL 1204  24.851  18.912   8.195
    3AU     AUL 1205  24.944  18.748   8.499
    3AU       S 1206  25.311  18.418   8.590
    3AU     LIG 1207  25.496  18.059   8.850
    3AU     LIG 1208  25.513  17.840   9.275
    3AU     LIG 1209  25.610  17.779   9.742
    3AU     LIG 1210  25.700  17.610  10.185
    3AU     LIG 1211  25.624  17.587  10.659
    3AU     LIG 1212  25.603  17.683  11.132
    3AU       S 1213  24.467  18.937   8.653
    3AU     LIG 1214  24.322  18.892   9.115
    3AU     LIG 1215  24.294  18.625   9.513
    3AU     LIG 1216  24.190  18.533   9.963
    3AU     LIG 1217  24.174  18.724  10.404
    3AU     LIG 1218  24.088  19.004  10.791
    3AU     LIG 1219  23.983  19.228  11.205
    3AU    AUSL 1220  25.184  18.922   8.211
    3AU    AUSL 1221  25.541  19.017   7.953
    3AU     AUL 1222  25.599  18.850   8.261
    3AU       S 1223  25.359  18.955   8.686
    3AU     LIG 1224  25.446  19.355   8.957
    3AU     LIG 1225  25.450  19.613   9.385
    3AU     LIG 1226  25.447  19.770   9.860
    3AU     LIG 1227  25.680  19.768  10.293
    3AU     LIG 1228  25.874  19.697  10.720
    3AU     LIG 1229  25.733  19.568  11.150
    3AU       S 1230  25.923  19.209   8.170
    3AU     LIG 1231  26.304  19.116   8.378
    3AU     LIG 1232  26.506  19.185   8.776
    3AU     LIG 1233  26.733  19.462   9.072
    3AU     LIG 1234  26.947  19.708   9.416
    3AU     LIG 1235  27.357  19.755   9.673
    3AU     LIG 1236  27.542  19.898  10.091
    3AU    AUSL 1237  25.404  18.811   6.896
    3AU    AUSL 1238  25.258  19.169   6.943
    3AU     AUL 1239  25.340  19.092   6.595
    3AU       S 1240  25.487  18.647   6.356
    3AU     LIG 1241  25.719  18.311   6.148
    3AU     LIG 1242  25.848  18.150   5.728
    3AU     LIG 1243  26.014  18.178   5.284
    3AU     LIG 1244  26.347  18.157   4.937
    3AU     LIG 1245  26.754  18.235   4.685
    3AU     LIG 1246  26.985  18.363   4.274
    3AU       S 1247  25.747  19.364   6.696
    3AU     LIG 1248  26.049  19.470   6.356
    3AU     LIG 1249  26.287  19.696   6.007
    3AU     LIG 1250  26.501  19.875   5.608
    3AU     LIG 1251  26.469  20.151   5.200
    3AU     LIG 1252  26.472  20.502   4.876
    3AU     LIG 1253  26.735  20.838   4.643
    3AU    AUSL 1254  25.168  18.588   6.797
    3AU    AUSL 1255  25.457  18.497   7.022
    3AU     AUL 1256  25.656  18.641   6.821
    3AU       S 1257  25.643  18.163   6.656
    3AU     LIG 1258  26.005  17.979   6.443
    3AU     LIG 1259  26.171  17.574   6.287
    3AU     LIG 1260  26.516  17.314   6.118
    3AU     LIG 1261  26.925  17.387   5.938
    3AU     LIG 1262  27.229  17.201   5.647
    3AU     LIG 1263  27.353  17.106   5.202
    3AU       S 1264  25.256  18.410   6.428
    3AU     LIG 1265  25.303  18.029   6.178
    3AU     LIG 1266  25.358  17.966   5.723
    3AU     LIG 1267  25.559  17.915   5.291
    3AU     LIG 1268  25.633  17.848   4.819
    3AU     LIG 1269  25.759  17.730   4.378
    3AU     LIG 1270  25.934  17.868   3.968
    3AU    AUSL 1271  25.097  18.910   6.811
    3AU    AUSL 1272  24.826  18.599   6.782
    3AU     AUL 1273  24.996  18.950   6.547
    3AU       S 1274  24.773  18.381   6.398
    3AU     LIG 1275  24.834  18.148   6.013
    3AU     LIG 1276  24.595  18.061   5.623
    3AU     LIG 1277  24.350  18.046   5.208
    3AU     LIG 1278  24.222  17.762   4.828
    3AU     LIG 1279  24.198  17.592   4.370
    3AU     LIG 1280  23.950  17.537   3.963
    3AU       S 1281  25.267  18.569   6.409
    3AU     LIG 1282  25.274  18.466   5.912
    3AU     LIG 1283  25.479  18.403   5.463
    3AU     LIG 1284  25.598  18.348   4.986
    3AU     LIG 1285  25.716  18.489   4.527
    3AU     LIG 1286  25.846  18.696   4.100
    3AU     LIG 1287  26.112  18.894   3.744
    3AU    AUSL 1288  24.553  18.797   8.121
    3AU    AUSL 1289  24.730  19.199   8.068
    3AU     AUL 1290  24.853  19.112   8.389
    3AU       S 1291  24.311  18.835   8.479
    3AU     LIG 1292  23.990  18.681   8.787
    3AU     LIG 1293  23.910  18.482   9.200
    3AU     LIG 1294  23.810  18.368   9.641
    3AU     LIG 1295  23.500  18.403  10.000
    3AU     LIG 1296  23.154  18.509  10.309
    3AU     LIG 1297  22.939  18.287  10.680
    3AU       S 1298  24.418  19.361   8.410
    3AU     LIG 1299  24.425  19.643   8.781
    3AU     LIG 1300  24.285  19.913   9.148
    3AU     LIG 1301  24.270  20.112   9.591
    3AU     LIG 1302  24.100  20.261  10.019
    3AU     LIG 1303  23.765  20.477  10.295
    3AU     LIG 1304  23.447  20.834  10.316
    3AU    AUSL 1305  24.797  18.577   8.207
    3AU    AUSL 1306  24.435  18.527   7.953
    3AU     AUL 1307  24.478  18.404   8.270
    3AU       S 1308  24.145  18.033   8.099
    3AU     LIG 1309  23.769  17.796   8.116
    3AU     LIG 1310  23.411  17.606   8.339
    3AU     LIG 1311  23.070  17.399   8.583
    3AU     LIG 1312  22.841  17.153   8.909
    3AU     LIG 1313  22.549  16.917   9.192
    3AU     LIG 1314  22.156  16.945   9.461
    3AU       S 1315  24.489  18.670   8.685
    3AU     LIG 1316  24.389  18.383   9.036
    3AU     LIG 1317  24.242  18.125   9.405
    3AU     LIG 1318  24.139  18.019   9.847
    3AU     LIG 1319  24.023  17.777  10.234
    3AU     LIG 1320  24.020  17.666  10.690
    3AU     LIG 1321  24.212  17.704  11.125
    3AU    AUSL 1322  24.538  18.726   6.923
    3AU    AUSL 1323  24.692  18.343   6.950
    3AU     AUL 1324  24.407  18.486   6.748
    3AU       S 1325  24.554  18.674   6.308
    3AU     LIG 1326  24.355  18.374   5.995
    3AU     LIG 1327  24.099  18.267   5.609
    3AU     LIG 1328  23.817  18.140   5.239
    3AU     LIG 1329  23.422  18.213   4.962
    3AU     LIG 1330  23.128  18.301   4.585
    3AU     LIG 1331  23.009  18.468   4.153
    3AU       S 1332  24.324  17.978   6.782
    3AU     LIG 1333  24.053  17.589   6.777
    3AU     LIG 1334  23.753  17.330   6.560
    3AU     LIG 1335  23.459  17.134   6.256
    3AU     LIG 1336  23.277  16.897   5.897
    3AU     LIG 1337  23.231  16.759   5.448
    3AU     LIG 1338  23.035  16.634   5.033
    3AU    AUSL 1339  24.765  18.931   6.808
    3AU    AUSL 1340  24.444  19.025   7.050
    3AU     AUL 1341  24.342  18.882   6.723
    3AU       S 1342  24.274  19.367   6.668
    3AU     LIG 1343  24.161  19.493   6.229
    3AU     LIG 1344  23.877  19.689   5.900
    3AU     LIG 1345  23.609  19.749   5.496
    3AU     LIG 1346  23.223  19.860   5.238
    3AU     LIG 1347  22.787  19.862   5.032
    3AU     LIG 1348  22.369  20.065   4.940
    3AU       S 1349  24.749  18.584   6.361
    3AU     LIG 1350  24.773  18.622   5.852
    3AU     LIG 1351  24.516  18.532   5.439
    3AU     LIG 1352  24.275  18.613   5.016
    3AU     LIG 1353  24.160  18.884   4.594
    3AU     LIG 1354  24.103  19.085   4.134
    3AU     LIG 1355  23.944  19.372   3.767
    3AU    AUSL 1356  25.584  19.173   7.464
    3AU    AUSL 1357  25.545  19.047   7.096
    3AU     AUL 1358  25.653  19.486   7.323
    3AU       S 1359  25.892  19.109   6.835
    3AU     LIG 1360  26.298  19.094   6.622
    3AU     LIG 1361  26.530  19.285   6.255
    3AU     LIG 1362  26.776  19.547   5.946
    3AU     LIG 1363  27.057  19.635   5.579
    3AU     LIG 1364  27.431  19.822   5.345
    3AU     LIG 1365  27.632  20.102   5.014
    3AU       S 1366  26.123  19.240   7.408
    3AU     LIG 1367  26.630  19.155   7.499
    3AU     LIG 1368  27.143  19.085   7.513
    3AU     LIG 1369  27.604  19.288   7.516
    3AU     LIG 1370  27.917  19.707   7.476
    3AU     LIG 1371  28.152  20.184   7.488
    3AU     LIG 1372  28.326  20.566   7.743
    3AU    AUSL 1373  25.699  18.875   7.334
    3AU    AUSL 1374  25.686  18.600   7.621
    3AU     AUL 1375  25.987  18.588   7.391
    3AU       S 1376  26.111  19.059   7.283
    3AU     LIG 1377  26.510  18.879   7.090
    3AU     LIG 1378  26.990  18.867   7.060
    3AU     LIG 1379  27.474  18.956   7.110
    3AU     LIG 1380  27.947  19.066   7.182
    3AU     LIG 1381  28.321  19.367   7.126
    3AU     LIG 1382  28.578  19.658   6.801
    3AU       S 1383  26.060  18.094   7.617
    3AU     LIG 1384  26.461  17.840   7.722
    3AU     LIG 1385  26.912  17.673   7.702
    3AU     LIG 1386  27.394  17.786   7.711
    3AU     LIG 1387  27.789  17.629   7.933
    3AU     LIG 1388  28.258  17.594   7.887
    3AU     LIG 1389  28.643  17.616   8.166
    3AU    AUSL 1390  25.690  18.929   7.672
    3AU    AUSL 1391  25.431  19.263   7.755
    3AU     AUL 1392  25.727  19.335   7.715
    3AU       S 1393  25.761  19.353   8.208
    3AU     LIG 1394  26.120  19.605   8.425
    3AU     LIG 1395  26.516  19.694   8.656
    3AU     LIG 1396  26.757  19.976   8.942
    3AU     LIG 1397  26.876  20.436   8.972
    3AU     LIG 1398  27.002  20.899   8.961
    3AU     LIG 1399  27.314  21.230   9.068
    3AU       S 1400  26.135  19.022   7.660
    3AU     LIG 1401  26.517  18.860   7.912
    3AU     LIG 1402  26.989  18.869   7.972
    3AU     LIG 1403  27.452  18.916   7.908
    3AU     LIG 1404  27.902  19.065   7.897
    3AU     LIG 1405  28.356  19.044   8.038
    3AU     LIG 1406  28.781  19.169   8.174
    3AU    AUSL 1407  24.385  19.225   7.526
    3AU    AUSL 1408  24.444  19.055   7.934
    3AU     AUL 1409  24.310  19.487   7.780
    3AU       S 1410  24.164  19.194   8.207
    3AU     LIG 1411  23.967  19.189   8.632
    3AU     LIG 1412  23.717  19.407   8.960
    3AU     LIG 1413  23.509  19.472   9.391
    3AU     LIG 1414  23.068  19.537   9.570
    3AU     LIG 1415  22.749  19.795   9.829
    3AU     LIG 1416  22.473  20.135  10.032
    3AU       S 1417  23.869  19.378   7.569
    3AU     LIG 1418  23.586  19.785   7.544
    3AU     LIG 1419  23.384  20.253   7.520
    3AU     LIG 1420  23.161  20.673   7.650
    3AU     LIG 1421  22.720  20.858   7.650
    3AU     LIG 1422  22.296  20.991   7.593
    3AU     LIG 1423  21.846  21.057   7.717
    3AU    AUSL 1424  24.275  18.957   7.338
    3AU    AUSL 1425  24.534  19.295   7.238
    3AU     AUL 1426  24.201  19.275   7.187
    3AU       S 1427  23.741  19.174   7.368
    3AU     LIG 1428  23.478  19.211   6.969
    3AU     LIG 1429  23.186  19.363   6.625
    3AU     LIG 1430  22.752  19.548   6.597
    3AU     LIG 1431  22.322  19.676   6.711
    3AU     LIG 1432  21.893  19.506   6.763
    3AU     LIG 1433  21.428  19.605   6.809
    3AU       S 1434  24.285  19.590   6.784
    3AU     LIG 1435  24.114  19.919   6.491
    3AU     LIG 1436  24.161  20.272   6.185
    3AU     LIG 1437  23.973  20.676   6.065
    3AU     LIG 1438  23.562  20.907   6.067
    3AU     LIG 1439  23.273  21.239   6.183
    3AU     LIG 1440  22.925  21.489   5.985
    3AU    AUSL 1441  24.273  18.943   7.681
    3AU    AUSL 1442  24.245  18.627   7.342
    3AU     AUL 1443  23.993  18.783   7.526
    3AU       S 1444  23.845  18.276   7.323
    3AU     LIG 1445  23.383  18.362   7.609
    3AU     LIG 1446  22.941  18.186   7.760
    3AU     LIG 1447  22.463  18.048   7.784
    3AU     LIG 1448  22.105  17.905   7.487
    3AU     LIG 1449  21.673  17.706   7.417
    3AU     LIG 1450  21.213  17.532   7.418
    3AU       S 1451  23.867  19.164   7.818
    3AU     LIG 1452  23.658  19.318   8.205
    3AU     LIG 1453  23.260  19.525   8.274
    3AU     LIG 1454  22.825  19.390   8.292
    3AU     LIG 1455  22.390  19.349   8.436
    3AU     LIG 1456  22.012  19.600   8.355
    3AU     LIG 1457  21.545  19.584   8.373
    3AU    AUSL 1458  25.580  18.303   7.502
    3AU    AUSL 1459  25.531  18.473   7.882
    3AU     AUL 1460  25.877  18.495   7.833
    3AU       S 1461  25.779  17.912   7.465
    3AU     LIG 1462  26.064  17.560   7.569
    3AU     LIG 1463  26.510  17.376   7.481
    3AU     LIG 1464  26.810  16.998   7.557
    3AU     LIG 1465  27.228  16.756   7.484
    3AU     LIG 1466  27.687  16.560   7.518
    3AU     LIG 1467  28.137  16.738   7.538
    3AU       S 1468  25.713  18.044   8.120
    3AU     LIG 1469  26.046  17.902   8.395
    3AU     LIG 1470  26.139  17.495   8.582
    3AU     LIG 1471  26.275  17.147   8.860
    3AU     LIG 1472  26.628  17.061   9.181
    3AU     LIG 1473  27.010  17.119   9.479
    3AU     LIG 1474  27.307  17.103   9.861
    3AU    AUSL 1475  25.635  18.556   7.295
    3AU    AUSL 1476  25.408  18.223   7.218
    3AU     AUL 1477  25.783  18.376   7.115
    3AU       S 1478  25.887  18.074   7.483
    3AU     LIG 1479  26.258  17.879   7.210
    3AU     LIG 1480  26.718  17.806   7.244
    3AU     LIG 1481  27.164  17.689   7.238
    3AU     LIG 1482  27.597  17.695   7.042
    3AU     LIG 1483  28.062  17.550   7.019
    3AU     LIG 1484  28.478  17.734   6.930
    3AU       S 1485  25.661  17.937   6.900
    3AU     LIG 1486  25.974  17.603   6.802
    3AU     LIG 1487  26.090  17.178   6.615
    3AU     LIG 1488  26.085  16.738   6.440
    3AU     LIG 1489  26.236  16.349   6.201
    3AU     LIG 1490  26.442  15.981   5.963
    3AU     LIG 1491  26.689  15.558   5.973
    3AU    AUSL 1492  24.368  18.353   7.468
    3AU    AUSL 1493  24.431  18.479   7.114
    3AU     AUL 1494  24.138  18.607   7.064
    3AU       S 1495  24.129  18.094   6.946
    3AU     LIG 1496  23.685  17.963   6.888
    3AU     LIG 1497  23.377  17.682   6.655
    3AU     LIG 1498  23.066  17.435   6.389
    3AU     LIG 1499  22.875  17.183   6.035
    3AU     LIG 1500  22.661  17.091   5.613
    3AU     LIG 1501  22.311  17.127   5.281
    3AU       S 1502  24.029  18.183   7.419
    3AU     LIG 1503  23.653  17.917   7.624
    3AU     LIG 1504  23.238  17.886   7.437
    3AU     LIG 1505  22.767  17.837   7.422
    3AU     LIG 1506  22.439  17.549   7.609
    3AU     LIG 1507  22.023  17.320   7.550
    3AU     LIG 1508  21.859  16.867   7.481
    3AU    AUSL 1509  24.294  18.615   7.667
    3AU    AUSL 1510  24.495  18.244   7.760
    3AU     AUL 1511  24.129  18.456   7.840
    3AU       S 1512  24.223  17.906   7.769
    3AU     LIG 1513  23.969  17.530   7.714
    3AU     LIG 1514  23.552  17.395   7.865
    3AU     LIG 1515  23.302  17.131   8.174
    3AU     LIG 1516  23.065  16.886   8.510
    3AU     LIG 1517  22.841  16.632   8.854
    3AU     LIG 1518  22.746  16.279   9.166
    3AU       S 1519  23.855  18.324   7.429
    3AU     LIG 1520  23.422  18.369   7.114
    3AU     LIG 1521  22.994  18.301   7.236
    3AU     LIG 1522  22.577  18.343   7.396
    3AU     LIG 1523  22.131  18.412   7.563
    3AU     LIG 1524  21.719  18.186   7.679
    3AU     LIG 1525  21.354  17.893   7.781
    3AU    AUSL 1526  24.997  19.370   7.943
    3AU    AUSL 1527  24.595  19.302   7.778
    3AU     AUL 1528  24.670  19.571   7.977
    3AU       S 1529  24.314  19.395   8.278
    3AU     LIG 1530  24.007  19.688   8.493
    3AU     LIG 1531  24.051  20.117   8.720
    3AU     LIG 1532  23.878  20.539   8.887
    3AU     LIG 1533  23.651  20.955   9.006
    3AU     LIG 1534  23.346  21.260   9.245
    3AU     LIG 1535  23.006  21.369   9.569
    3AU       S 1536  25.051  19.870   8.101
    3AU     LIG 1537  25.185  20.073   8.477
    3AU     LIG 1538  25.242  20.511   8.555
    3AU     LIG 1539  25.253  20.920   8.767
    3AU     LIG 1540  25.213  21.116   9.200
    3AU     LIG 1541  25.008  21.431   9.475
    3AU     LIG 1542  24.931  21.875   9.595
    3AU    AUSL 1543  24.845  19.479   7.656
    3AU    AUSL 1544  25.138  19.499   7.341
    3AU     AUL 1545  24.715  19.734   7.466
    3AU       S 1546  24.959  19.977   7.840
    3AU     LIG 1547  24.912  20.356   8.145
    3AU     LIG 1548  25.120  20.762   8.124
    3AU     LIG 1549  25.026  21.147   8.346
    3AU     LIG 1550  24.836  21.546   8.491
    3AU     LIG 1551  24.548  21.898   8.382
    3AU     LIG 1552  24.319  22.151   8.715
    3AU       S 1553  25.204  19.927   7.249
    3AU     LIG 1554  25.238  20.411   7.157
    3AU     LIG 1555  25.475  20.799   6.956
    3AU     LIG 1556  25.839  21.124   6.801
    3AU     LIG 1557  26.166  21.514   6.713
    3AU     LIG 1558  26.206  21.991   6.580
    3AU     LIG 1559  26.121  22.472   6.540
    3AU    AUSL 1560  25.181  19.462   7.664
    3AU    AUSL 1561  25.260  19.193   8.042
    3AU     AUL 1562  25.369  19.529   7.943
    3AU       S 1563  25.564  19.329   8.359
    3AU     LIG 1564  25.894  19.251   8.708
    3AU     LIG 1565  26.173  19.516   8.996
    3AU     LIG 1566  26.422  19.798   9.298
    3AU     LIG 1567  26.612  20.098   9.617
    3AU     LIG 1568  26.535  20.480   9.919
    3AU     LIG 1569  26.548  20.892  10.166
    3AU       S 1570  25.189  19.947   7.744
    3AU     LIG 1571  25.407  20.277   8.056
    3AU     LIG 1572  25.614  20.684   8.240
    3AU     LIG 1573  25.759  21.134   8.373
    3AU     LIG 1574  26.080  21.524   8.428
    3AU     LIG 1575  26.275  21.982   8.435
    3AU     LIG 1576  26.179  22.448   8.462
    3AU    AUSL 1577  24.992  18.177   7.971
    3AU    AUSL 1578  25.393  18.195   7.752
    3AU     AUL 1579  25.218  17.932   7.974
    3AU       S 1580  24.823  17.628   8.076
    3AU     LIG 1581  24.625  17.209   8.178
    3AU     LIG 1582  24.417  16.798   8.257
    3AU     LIG 1583  24.419  16.359   8.430
    3AU     LIG 1584  24.642  15.992   8.615
    3AU     LIG 1585  24.681  15.721   9.014
    3AU     LIG 1586  24.695  15.384   9.360
    3AU       S 1587  25.721  17.928   7.958
    3AU     LIG 1588  25.887  17.507   8.102
    3AU     LIG 1589  25.914  17.084   8.356
    3AU     LIG 1590  25.969  16.622   8.523
    3AU     LIG 1591  26.203  16.197   8.560
    3AU     LIG 1592  26.470  15.947   8.844
    3AU     LIG 1593  26.902  15.944   9.030
    3AU    AUSL 1594  24.779  18.069   7.721
    3AU    AUSL 1595  24.708  18.340   7.993
    3AU     AUL 1596  24.704  18.110   8.149
    3AU       S 1597  24.633  17.641   7.863
    3AU     LIG 1598  24.411  17.285   7.721
    3AU     LIG 1599  24.314  16.846   7.741
    3AU     LIG 1600  24.323  16.402   7.923
    3AU     LIG 1601  24.131  16.001   8.139
    3AU     LIG 1602  23.957  15.562   8.285
    3AU     LIG 1603  23.959  15.210   8.603
    3AU       S 1604  24.288  17.967   7.933
    3AU     LIG 1605  24.221  17.535   8.151
    3AU     LIG 1606  23.834  17.297   8.296
    3AU     LIG 1607  23.524  17.160   8.638
    3AU     LIG 1608  23.293  16.912   8.971
    3AU     LIG 1609  23.129  16.613   9.289
    3AU     LIG 1610  23.158  16.312   9.648
    3AU    AUSL 1611  25.098  18.086   7.664
    3AU    AUSL 1612  24.810  18.028   7.388
    3AU     AUL 1613  25.160  17.817   7.592
    3AU       S 1614  24.505  17.673   7.393
    3AU     LIG 1615  24.213  17.306   7.257
    3AU     LIG 1616  24.250  16.831   7.221
    3AU     LIG 1617  24.324  16.378   7.039
    3AU     LIG 1618  24.332  15.888   6.939
    3AU     LIG 1619  24.235  15.389   6.890
    3AU     LIG 1620  24.259  14.941   6.652
    3AU       S 1621  24.754  17.692   7.819
    3AU     LIG 1622  24.908  17.223   7.750
    3AU     LIG 1623  24.797  16.768   7.902
    3AU     LIG 1624  24.827  16.314   8.110
    3AU     LIG 1625  25.091  15.894   8.228
    3AU     LIG 1626  25.415  15.489   8.163
    3AU     LIG 1627  25.493  15.001   8.011
    3AU    AUSL 1628  25.004  19.365   7.052
    3AU    AUSL 1629  25.379  19.295   7.233
    3AU     AUL 1630  25.351  19.508   6.990
    3AU       S 1631  25.016  19.842   6.853
    3AU     LIG 1632  25.103  20.156   6.494
    3AU     LIG 1633  25.057  20.550   6.215
    3AU     LIG 1634  25.250  20.745   5.818
    3AU     LIG 1635  25.333  21.091   5.514
    3AU     LIG 1636  25.393  21.530   5.377
    3AU     LIG 1637  25.272  21.932   5.165
    3AU       S 1638  25.816  19.261   6.923
    3AU     LIG 1639  26.209  19.537   6.853
    3AU     LIG 1640  26.477  19.737   6.498
    3AU     LIG 1641  26.681  20.020   6.158
    3AU     LIG 1642  26.932  20.433   6.072
    3AU     LIG 1643  27.120  20.887   6.023
    3AU     LIG 1644  27.295  21.329   5.915
    3AU    AUSL 1645  24.818  19.437   7.327
    3AU    AUSL 1646  24.721  19.217   6.966
    3AU     AUL 1647  24.659  19.579   7.100
    3AU       S 1648  25.037  19.912   7.137
    3AU     LIG 1649  24.811  20.287   6.886
    3AU     LIG 1650  25.028  20.642   6.730
    3AU     LIG 1651  24.981  21.073   6.563
    3AU     LIG 1652  24.918  21.529   6.488
    3AU     LIG 1653  24.548  21.809   6.531
    3AU     LIG 1654  24.139  22.061   6.493
    3AU       S 1655  24.569  19.421   6.616
    3AU     LIG 1656  24.580  19.790   6.327
    3AU     LIG 1657  24.369  19.889   5.915
    3AU     LIG 1658  24.091  19.975   5.525
    3AU     LIG 1659  23.776  20.143   5.192
    3AU     LIG 1660  23.603  20.519   4.950
    3AU     LIG 1661  23.471  20.748   4.552
    3AU    AUSL 1662  24.929  18.176   7.115
    3AU    AUSL 1663  24.572  18.205   7.240
    3AU     AUL 1664  24.801  18.002   6.936
    3AU       S 1665  24.281  17.949   7.073
    3AU     LIG 1666  23.934  17.722   7.250
    3AU     LIG 1667  23.610  17.446   7.057
    3AU     LIG 1668  23.309  17.170   6.769
    3AU     LIG 1669  23.036  16.903   6.452
    3AU     LIG 1670  22.729  16.553   6.286
    3AU     LIG 1671  22.521  16.111   6.184
    3AU       S 1672  24.674  17.698   7.301
    3AU     LIG 1673  24.537  17.468   6.908
    3AU     LIG 1674  24.476  17.022   6.801
    3AU     LIG 1675  24.569  16.586   6.623
    3AU     LIG 1676  24.644  16.225   6.313
    3AU     LIG 1677  24.705  16.005   5.879
    3AU     LIG 1678  24.847  15.681   5.562
    3AU    AUSL 1679  25.144  18.061   7.341
    3AU    AUSL 1680  25.194  18.293   6.957
    3AU     AUL 1681  25.177  17.913   7.056
    3AU       S 1682  24.825  17.602   7.309
    3AU     LIG 1683  24.691  17.138   7.288
    3AU     LIG 1684  24.740  16.685   7.116
    3AU     LIG 1685  24.824  16.237   6.921
    3AU     LIG 1686  25.129  15.860   6.818
    3AU     LIG 1687  25.298  15.405   6.762
    3AU     LIG 1688  25.631  15.092   6.666
    3AU       S 1689  25.453  18.044   6.662
    3AU     LIG 1690  25.599  17.672   6.432
    3AU     LIG 1691  25.750  17.282   6.237
    3AU     LIG 1692  26.092  17.047   6.030
    3AU     LIG 1693  26.213  16.705   5.739
    3AU     LIG 1694  26.188  16.527   5.294
    3AU     LIG 1695  26.358  16.428   4.858
    4AU     AUC 1696   1.730  25.918   7.504
    4AU     AUC 1697   1.974  25.914   7.339
    4AU     AUC 1698   1.986  25.918   7.648
    4AU     AUC 1699   1.473  25.919   7.357
    4AU     AUC 1700   1.485  25.927   7.667
    4AU     AUC 1701   1.579  26.170   7.503
    4AU     AUC 1702   1.887  26.167   7.494
    4AU     AUC 1703   1.570  25.667   7.515
    4AU     AUC 1704   1.883  25.666   7.501
    4AU     AUC 1705   1.738  25.768   7.757
    4AU     AUC 1706   1.742  26.078   7.752
    4AU     AUC 1707   1.719  25.760   7.253
    4AU     AUC 1708   1.722  26.070   7.250
    4AU     AUC 1709   2.211  25.910   7.179
    4AU     AUC 1710   2.228  25.908   7.484
    4AU     AUC 1711   2.236  25.914   7.787
    4AU     AUC 1712   1.227  25.917   7.215
    4AU     AUC 1713   1.230  25.932   7.515
    4AU     AUC 1714   1.247  25.938   7.823
    4AU     AUC 1715   1.434  26.415   7.502
    4AU     AUC 1716   1.739  26.417   7.495
    4AU     AUC 1717   2.039  26.408   7.485
    4AU     AUC 1718   1.419  25.429   7.526
    4AU     AUC 1719   1.720  25.422   7.523
    4AU     AUC 1720   2.028  25.422   7.499
    4AU     AUC 1721   1.744  25.622   8.000
    4AU     AUC 1722   1.747  25.922   8.001
    4AU     AUC 1723   1.754  26.230   7.992
    4AU     AUC 1724   1.710  25.607   7.015
    4AU     AUC 1725   1.714  25.907   7.004
    4AU     AUC 1726   1.716  26.215   7.005
    4AU     AUC 1727   1.991  25.763   7.899
    4AU     AUC 1728   1.997  26.070   7.898
    4AU     AUC 1729   1.960  25.758   7.093
    4AU     AUC 1730   1.969  26.065   7.093
    4AU     AUC 1731   1.487  25.778   7.915
    4AU     AUC 1732   1.499  26.083   7.914
    4AU     AUC 1733   1.469  25.757   7.110
    4AU     AUC 1734   1.468  26.066   7.105
    4AU     AUC 1735   2.132  26.159   7.335
    4AU     AUC 1736   2.144  26.160   7.642
    4AU     AUC 1737   1.323  26.169   7.353
    4AU     AUC 1738   1.338  26.181   7.664
    4AU     AUC 1739   2.118  25.657   7.332
    4AU     AUC 1740   2.135  25.662   7.640
    4AU     AUC 1741   1.322  25.668   7.365
    4AU     AUC 1742   1.323  25.683   7.667
    4AU     AUC 1743   1.594  26.329   7.752
    4AU     AUC 1744   1.900  26.324   7.743
    4AU     AUC 1745   1.572  25.526   7.764
    4AU     AUC 1746   1.888  25.518   7.756
    4AU     AUC 1747   1.575  26.319   7.247
    4AU     AUC 1748   1.883  26.316   7.241
    4AU     AUC 1749   1.564  25.510   7.273
    4AU     AUC 1750   1.868  25.507   7.257
    4AU    AUSL 1751   2.172  25.881   8.074
    4AU    AUSL 1752   2.042  25.494   8.052
    4AU     AUL 1753   2.455  25.690   8.183
    4AU       S 1754   2.301  25.230   8.334
    4AU     LIG 1755   2.221  24.831   8.512
    4AU     LIG 1756   2.370  24.476   8.741
    4AU     LIG 1757   2.623  24.197   9.002
    4AU     LIG 1758   2.879  23.891   9.248
    4AU     LIG 1759   2.816  23.600   9.621
    4AU     LIG 1760   2.799  23.368  10.038
    4AU       S 1761   2.227  25.778   8.650
    4AU     LIG 1762   2.503  25.696   9.008
    4AU     LIG 1763   2.699  25.405   9.327
    4AU     LIG 1764   3.013  25.292   9.672
    4AU     LIG 1765   3.418  25.382   9.928
    4AU     LIG 1766   3.677  25.532  10.298
    4AU     LIG 1767   4.059  25.637  10.532
    4AU    AUSL 1768   1.891  25.747   8.212
    4AU    AUSL 1769   1.612  26.076   8.196
    4AU     AUL 1770   1.704  25.914   8.503
    4AU       S 1771   2.082  25.598   8.595
    4AU     LIG 1772   2.307  25.246   8.848
    4AU     LIG 1773   2.363  25.010   9.266
    4AU     LIG 1774   2.425  24.890   9.738
    4AU     LIG 1775   2.440  24.723  10.197
    4AU     LIG 1776   2.524  24.717  10.668
    4AU     LIG 1777   2.505  24.691  11.147
    4AU       S 1778   1.228  26.100   8.652
    4AU     LIG 1779   1.043  26.108   9.090
    4AU     LIG 1780   1.035  25.876   9.502
    4AU     LIG 1781   0.981  25.814   9.956
    4AU     LIG 1782   0.976  26.086  10.358
    4AU     LIG 1783   0.845  26.316  10.763
    4AU     LIG 1784   0.851  26.635  11.124
    4AU    AUSL 1785   1.946  26.089   8.205
    4AU    AUSL 1786   2.294  26.182   7.943
    4AU     AUL 1787   2.371  26.022   8.244
    4AU       S 1788   2.125  26.128   8.668
    4AU     LIG 1789   2.139  26.545   8.913
    4AU     LIG 1790   2.248  26.748   9.338
    4AU     LIG 1791   2.273  26.735   9.824
    4AU     LIG 1792   2.439  26.806  10.266
    4AU     LIG 1793   2.549  26.887  10.726
    4AU     LIG 1794   2.483  26.730  11.175
    4AU       S 1795   2.665  26.410   8.188
    4AU     LIG 1796   3.020  26.312   8.452
    4AU     LIG 1797   3.224  26.445   8.837
    4AU     LIG 1798   3.505  26.687   9.122
    4AU     LIG 1799   3.793  26.694   9.509
    4AU     LIG 1800   4.147  26.908   9.744
    4AU     LIG 1801   4.367  27.278   9.948
    4AU    AUSL 1802   2.150  25.961   6.892
    4AU    AUSL 1803   2.004  26.312   6.939
    4AU     AUL 1804   2.072  26.251   6.590
    4AU       S 1805   2.256  25.811   6.370
    4AU     LIG 1806   2.448  25.464   6.130
    4AU     LIG 1807   2.606  25.336   5.710
    4AU     LIG 1808   2.814  25.402   5.287
    4AU     LIG 1809   3.246  25.404   5.053
    4AU     LIG 1810   3.618  25.472   4.752
    4AU     LIG 1811   3.798  25.491   4.299
    4AU       S 1812   2.487  26.515   6.689
    4AU     LIG 1813   2.784  26.613   6.350
    4AU     LIG 1814   3.011  26.822   5.998
    4AU     LIG 1815   3.213  27.002   5.620
    4AU     LIG 1816   3.273  27.335   5.299
    4AU     LIG 1817   3.286  27.702   4.986
    4AU     LIG 1818   3.579  27.889   4.648
    4AU    AUSL 1819   1.915  25.735   6.799
    4AU    AUSL 1820   2.201  25.645   7.020
    4AU     AUL 1821   2.409  25.786   6.839
    4AU       S 1822   2.366  25.323   6.633
    4AU     LIG 1823   2.661  25.064   6.384
    4AU     LIG 1824   2.847  24.655   6.238
    4AU     LIG 1825   3.074  24.273   6.075
    4AU     LIG 1826   3.351  24.125   5.723
    4AU     LIG 1827   3.739  24.188   5.438
    4AU     LIG 1828   4.101  24.211   5.121
    4AU       S 1829   1.998  25.593   6.426
    4AU     LIG 1830   1.985  25.257   6.152
    4AU     LIG 1831   2.105  25.198   5.713
    4AU     LIG 1832   2.316  25.187   5.284
    4AU     LIG 1833   2.288  25.158   4.816
    4AU     LIG 1834   2.374  25.134   4.344
    4AU     LIG 1835   2.673  25.058   3.980
    4AU    AUSL 1836   1.841  26.056   6.807
    4AU    AUSL 1837   1.571  25.741   6.787
    4AU     AUL 1838   1.731  26.092   6.545
    4AU       S 1839   1.522  25.511   6.409
    4AU     LIG 1840   1.496  25.264   6.025
    4AU     LIG 1841   1.270  25.165   5.634
    4AU     LIG 1842   1.098  25.198   5.196
    4AU     LIG 1843   0.823  25.028   4.849
    4AU     LIG 1844   0.703  24.797   4.446
    4AU     LIG 1845   0.546  24.804   4.006
    4AU       S 1846   2.033  25.734   6.409
    4AU     LIG 1847   2.050  25.703   5.914
    4AU     LIG 1848   2.254  25.654   5.491
    4AU     LIG 1849   2.382  25.666   5.029
    4AU     LIG 1850   2.474  25.971   4.650
    4AU     LIG 1851   2.514  26.099   4.189
    4AU     LIG 1852   2.719  26.162   3.759
    4AU    AUSL 1853   1.313  25.959   8.125
    4AU    AUSL 1854   1.484  26.359   8.064
    4AU     AUL 1855   1.612  26.280   8.387
    4AU       S 1856   1.069  26.001   8.484
    4AU     LIG 1857   0.739  25.844   8.779
    4AU     LIG 1858   0.642  25.710   9.218
    4AU     LIG 1859   0.551  25.513   9.633
    4AU     LIG 1860   0.239  25.390   9.952
    4AU     LIG 1861  44.883  25.557  10.203
    4AU     LIG 1862  44.822  25.531  10.677
    4AU       S 1863   1.167  26.514   8.400
    4AU     LIG 1864   1.099  26.563   8.847
    4AU     LIG 1865   0.916  26.837   9.167
    4AU     LIG 1866   0.710  27.187   9.399
    4AU     LIG 1867   0.623  27.440   9.796
    4AU     LIG 1868   0.473  27.610  10.226
    4AU     LIG 1869   0.229  27.903  10.518
    4AU    AUSL 1870   1.558  25.740   8.212
    4AU    AUSL 1871   1.194  25.686   7.965
    4AU     AUL 1872   1.240  25.567   8.282
    4AU       S 1873   0.888  25.202   8.116
    4AU     LIG 1874   0.455  24.990   8.103
    4AU     LIG 1875   0.064  24.768   8.308
    4AU     LIG 1876  44.743  24.468   8.507
    4AU     LIG 1877  44.360  24.412   8.735
    4AU     LIG 1878  44.144  24.195   9.068
    4AU     LIG 1879  43.990  24.294   9.494
    4AU       S 1880   1.248  25.841   8.693
    4AU     LIG 1881   1.122  25.590   9.064
    4AU     LIG 1882   1.002  25.352   9.463
    4AU     LIG 1883   0.811  25.123   9.856
    4AU     LIG 1884   0.723  24.911  10.288
    4AU     LIG 1885   0.603  24.811  10.751
    4AU     LIG 1886   0.531  24.959  11.204
    4AU    AUSL 1887   1.282  25.870   6.930
    4AU    AUSL 1888   1.439  25.488   6.962
    4AU     AUL 1889   1.153  25.620   6.761
    4AU       S 1890   1.295  25.797   6.316
    4AU     LIG 1891   1.080  25.560   5.960
    4AU     LIG 1892   0.857  25.486   5.549
    4AU     LIG 1893   0.558  25.326   5.203
    4AU     LIG 1894   0.139  25.300   4.944
    4AU     LIG 1895  44.826  25.518   4.643
    4AU     LIG 1896  44.562  25.754   4.337
    4AU       S 1897   1.065  25.112   6.811
    4AU     LIG 1898   0.812  24.700   6.797
    4AU     LIG 1899   0.441  24.480   6.587
    4AU     LIG 1900   0.139  24.266   6.265
    4AU     LIG 1901   0.229  24.014   5.867
    4AU     LIG 1902   0.321  23.812   5.438
    4AU     LIG 1903   0.179  23.563   5.049
    4AU    AUSL 1904   1.509  26.072   6.811
    4AU    AUSL 1905   1.191  26.172   7.055
    4AU     AUL 1906   1.090  26.021   6.726
    4AU       S 1907   0.992  26.502   6.680
    4AU     LIG 1908   0.842  26.545   6.237
    4AU     LIG 1909   0.617  26.845   5.941
    4AU     LIG 1910   0.353  26.915   5.531
    4AU     LIG 1911  44.955  26.981   5.245
    4AU     LIG 1912  44.630  27.184   4.952
    4AU     LIG 1913  44.205  27.415   4.911
    4AU       S 1914   1.495  25.713   6.375
    4AU     LIG 1915   1.546  25.748   5.879
    4AU     LIG 1916   1.364  25.631   5.444
    4AU     LIG 1917   1.311  25.628   4.960
    4AU     LIG 1918   1.177  25.837   4.538
    4AU     LIG 1919   1.027  26.107   4.164
    4AU     LIG 1920   0.883  26.365   3.780
    4AU    AUSL 1921   2.333  26.327   7.453
    4AU    AUSL 1922   2.293  26.198   7.090
    4AU     AUL 1923   2.402  26.636   7.328
    4AU       S 1924   2.629  26.265   6.819
    4AU     LIG 1925   3.037  26.244   6.606
    4AU     LIG 1926   3.274  26.434   6.242
    4AU     LIG 1927   3.516  26.688   5.920
    4AU     LIG 1928   3.874  26.759   5.608
    4AU     LIG 1929   4.266  26.886   5.359
    4AU     LIG 1930   4.539  27.190   5.115
    4AU       S 1931   2.869  26.411   7.364
    4AU     LIG 1932   3.357  26.487   7.451
    4AU     LIG 1933   3.846  26.431   7.569
    4AU     LIG 1934   4.338  26.536   7.542
    4AU     LIG 1935   4.642  26.944   7.492
    4AU     LIG 1936   4.830  27.408   7.528
    4AU     LIG 1937   5.199  27.576   7.762
    4AU    AUSL 1938   2.448  26.028   7.327
    4AU    AUSL 1939   2.439  25.758   7.612
    4AU     AUL 1940   2.739  25.744   7.368
    4AU       S 1941   2.847  26.220   7.263
    4AU     LIG 1942   3.248  26.147   7.085
    4AU     LIG 1943   3.694  26.097   7.204
    4AU     LIG 1944   4.153  26.106   7.302
    4AU     LIG 1945   4.604  26.122   7.210
    4AU     LIG 1946   4.946  26.311   6.951
    4AU     LIG 1947   5.388  26.426   7.007
    4AU       S 1948   2.822  25.273   7.617
    4AU     LIG 1949   3.254  25.120   7.745
    4AU     LIG 1950   3.706  24.960   7.737
    4AU     LIG 1951   4.109  24.746   7.758
    4AU     LIG 1952   4.501  24.559   7.901
    4AU     LIG 1953   4.880  24.749   8.080
    4AU     LIG 1954   5.341  24.706   8.045
    4AU    AUSL 1955   2.445  26.086   7.664
    4AU    AUSL 1956   2.185  26.427   7.743
    4AU     AUL 1957   2.496  26.477   7.711
    4AU       S 1958   2.500  26.541   8.204
    4AU     LIG 1959   2.846  26.802   8.457
    4AU     LIG 1960   3.229  26.946   8.702
    4AU     LIG 1961   3.468  27.324   8.870
    4AU     LIG 1962   3.623  27.792   8.798
    4AU     LIG 1963   3.855  28.213   8.878
    4AU     LIG 1964   4.114  28.583   9.014
    4AU       S 1965   2.906  26.184   7.611
    4AU     LIG 1966   3.357  26.001   7.600
    4AU     LIG 1967   3.831  25.910   7.673
    4AU     LIG 1968   4.263  26.024   7.807
    4AU     LIG 1969   4.699  26.150   7.815
    4AU     LIG 1970   5.096  26.321   7.974
    4AU     LIG 1971   5.334  26.722   7.968
    4AU    AUSL 1972   1.137  26.376   7.523
    4AU    AUSL 1973   1.198  26.213   7.936
    4AU     AUL 1974   1.057  26.638   7.772
    4AU       S 1975   0.913  26.352   8.205
    4AU     LIG 1976   0.695  26.338   8.612
    4AU     LIG 1977   0.516  26.587   8.960
    4AU     LIG 1978   0.331  26.812   9.350
    4AU     LIG 1979   0.005  26.843   9.719
    4AU     LIG 1980  44.645  26.972  10.023
    4AU     LIG 1981  44.365  27.297  10.232
    4AU       S 1982   0.614  26.506   7.576
    4AU     LIG 1983   0.287  26.829   7.693
    4AU     LIG 1984   0.059  27.265   7.694
    4AU     LIG 1985  44.888  27.718   7.742
    4AU     LIG 1986  44.591  28.095   7.778
    4AU     LIG 1987  44.157  28.195   7.572
    4AU     LIG 1988  43.706  28.235   7.435
    4AU    AUSL 1989   1.024  26.104   7.343
    4AU    AUSL 1990   1.284  26.453   7.232
    4AU     AUL 1991   0.946  26.418   7.196
    4AU       S 1992   0.483  26.301   7.368
    4AU     LIG 1993   0.122  26.176   7.087
    4AU     LIG 1994  44.802  26.463   6.884
    4AU     LIG 1995  44.464  26.795   6.744
    4AU     LIG 1996  44.133  27.156   6.725
    4AU     LIG 1997  43.696  27.370   6.742
    4AU     LIG 1998  43.239  27.301   6.591
    4AU       S 1999   1.025  26.733   6.801
    4AU     LIG 2000   0.799  26.992   6.477
    4AU     LIG 2001   0.834  27.333   6.157
    4AU     LIG 2002   0.786  27.825   6.131
    4AU     LIG 2003   0.521  28.234   6.089
    4AU     LIG 2004   0.075  28.436   5.962
    4AU     LIG 2005  44.835  28.692   5.621
    4AU    AUSL 2006   1.027  26.098   7.686
    4AU    AUSL 2007   0.994  25.775   7.353
    4AU     AUL 2008   0.749  25.932   7.552
    4AU       S 2009   0.576  25.440   7.348
    4AU     LIG 2010   0.127  25.500   7.691
    4AU     LIG 2011  44.636  25.439   7.844
    4AU     LIG 2012  44.206  25.194   7.813
    4AU     LIG 2013  43.876  25.205   7.413
    4AU     LIG 2014  43.515  25.367   7.119
    4AU     LIG 2015  43.211  25.071   6.901
    4AU       S 2016   0.605  26.321   7.826
    4AU     LIG 2017   0.370  26.524   8.192
    4AU     LIG 2018  44.914  26.713   8.260
    4AU     LIG 2019  44.475  26.967   8.212
    4AU     LIG 2020  43.996  27.104   8.268
    4AU     LIG 2021  43.580  27.319   8.444
    4AU     LIG 2022  43.108  27.224   8.475
    4AU    AUSL 2023   2.333  25.458   7.501
    4AU    AUSL 2024   2.288  25.636   7.879
    4AU     AUL 2025   2.630  25.669   7.829
    4AU       S 2026   2.541  25.071   7.484
    4AU     LIG 2027   2.854  24.774   7.689
    4AU     LIG 2028   3.303  24.627   7.594
    4AU     LIG 2029   3.749  24.478   7.497
    4AU     LIG 2030   4.203  24.293   7.520
    4AU     LIG 2031   4.468  24.030   7.824
    4AU     LIG 2032   4.752  23.643   7.922
    4AU       S 2033   2.464  25.209   8.149
    4AU     LIG 2034   2.716  24.957   8.483
    4AU     LIG 2035   2.878  24.558   8.696
    4AU     LIG 2036   3.132  24.238   8.933
    4AU     LIG 2037   3.415  24.056   9.251
    4AU     LIG 2038   3.837  24.098   9.473
    4AU     LIG 2039   4.206  24.057   9.773
    4AU    AUSL 2040   2.387  25.707   7.288
    4AU    AUSL 2041   2.157  25.373   7.220
    4AU     AUL 2042   2.522  25.501   7.108
    4AU       S 2043   2.655  25.235   7.493
    4AU     LIG 2044   3.073  25.006   7.277
    4AU     LIG 2045   3.568  24.917   7.249
    4AU     LIG 2046   4.053  24.792   7.224
    4AU     LIG 2047   4.456  24.602   7.025
    4AU     LIG 2048   4.931  24.508   7.038
    4AU     LIG 2049   5.315  24.328   6.809
    4AU       S 2050   2.389  25.084   6.848
    4AU     LIG 2051   2.560  24.646   6.680
    4AU     LIG 2052   2.729  24.213   6.487
    4AU     LIG 2053   2.851  23.786   6.278
    4AU     LIG 2054   3.141  23.423   6.116
    4AU     LIG 2055   3.594  23.238   6.084
    4AU     LIG 2056   4.064  23.135   6.170
    4AU    AUSL 2057   1.119  25.503   7.481
    4AU    AUSL 2058   1.179  25.625   7.127
    4AU     AUL 2059   0.884  25.746   7.077
    4AU       S 2060   0.866  25.233   6.970
    4AU     LIG 2061   0.432  25.049   6.829
    4AU     LIG 2062   0.039  24.789   6.691
    4AU     LIG 2063  44.703  24.546   6.442
    4AU     LIG 2064  44.570  24.452   6.004
    4AU     LIG 2065  44.303  24.660   5.657
    4AU     LIG 2066  44.112  24.631   5.215
    4AU       S 2067   0.767  25.331   7.440
    4AU     LIG 2068   0.338  25.063   7.588
    4AU     LIG 2069  44.855  25.050   7.563
    4AU     LIG 2070  44.408  25.050   7.375
    4AU     LIG 2071  44.048  24.729   7.356
    4AU     LIG 2072  43.626  24.445   7.466
    4AU     LIG 2073  43.404  24.082   7.752
    4AU    AUSL 2074   1.052  25.769   7.677
    4AU    AUSL 2075   1.251  25.401   7.774
    4AU     AUL 2076   0.888  25.619   7.853
    4AU       S 2077   0.970  25.058   7.788
    4AU     LIG 2078   0.652  24.696   7.734
    4AU     LIG 2079   0.163  24.624   7.819
    4AU     LIG 2080  44.705  24.527   8.000
    4AU     LIG 2081  44.331  24.269   8.236
    4AU     LIG 2082  44.150  23.966   8.588
    4AU     LIG 2083  44.243  23.651   8.942
    4AU       S 2084   0.599  25.476   7.463
    4AU     LIG 2085   0.150  25.643   7.216
    4AU     LIG 2086  44.692  25.611   7.370
    4AU     LIG 2087  44.210  25.566   7.488
    4AU     LIG 2088  43.753  25.426   7.841
    4AU     LIG 2089  43.391  25.042   8.001
    4AU     LIG 2090  42.994  24.713   8.130
    4AU    AUSL 2091   1.748  26.531   7.934
    4AU    AUSL 2092   1.346  26.459   7.775
    4AU     AUL 2093   1.422  26.729   7.974
    4AU       S 2094   1.061  26.564   8.273
    4AU     LIG 2095   0.785  26.846   8.564
    4AU     LIG 2096   0.741  27.224   8.868
    4AU     LIG 2097   0.782  27.691   9.003
    4AU     LIG 2098   0.538  28.113   9.037
    4AU     LIG 2099   0.072  28.292   9.073
    4AU     LIG 2100  44.609  28.412   9.168
    4AU       S 2101   1.799  27.041   8.076
    4AU     LIG 2102   2.015  27.232   8.414
    4AU     LIG 2103   2.023  27.650   8.575
    4AU     LIG 2104   2.024  28.051   8.805
    4AU     LIG 2105   1.993  28.294   9.218
    4AU     LIG 2106   1.952  28.663   9.516
    4AU     LIG 2107   2.113  29.065   9.710
    4AU    AUSL 2108   1.592  26.638   7.647
    4AU    AUSL 2109   1.888  26.650   7.329
    4AU     AUL 2110   1.437  26.877   7.436
    4AU       S 2111   1.695  27.135   7.800
    4AU     LIG 2112   1.718  27.548   8.106
    4AU     LIG 2113   1.766  28.000   8.278
    4AU     LIG 2114   1.552  28.436   8.335
    4AU     LIG 2115   1.376  28.881   8.423
    4AU     LIG 2116   1.476  29.282   8.630
    4AU     LIG 2117   1.396  29.745   8.650
    4AU       S 2118   2.041  27.051   7.262
    4AU     LIG 2119   2.322  27.331   7.041
    4AU     LIG 2120   2.379  27.744   6.829
    4AU     LIG 2121   2.591  28.162   6.720
    4AU     LIG 2122   2.818  28.586   6.658
    4AU     LIG 2123   2.817  29.052   6.566
    4AU     LIG 2124   2.498  29.435   6.560
    4AU    AUSL 2125   1.928  26.618   7.653
    4AU    AUSL 2126   2.014  26.359   8.031
    4AU     AUL 2127   2.118  26.696   7.923
    4AU       S 2128   2.296  26.500   8.349
    4AU     LIG 2129   2.595  26.440   8.716
    4AU     LIG 2130   2.832  26.743   8.988
    4AU     LIG 2131   3.136  27.041   9.206
    4AU     LIG 2132   3.284  27.284   9.587
    4AU     LIG 2133   3.296  27.589   9.960
    4AU     LIG 2134   3.356  27.988  10.213
    4AU       S 2135   1.922  27.109   7.734
    4AU     LIG 2136   2.193  27.428   7.968
    4AU     LIG 2137   2.314  27.845   8.197
    4AU     LIG 2138   2.649  28.192   8.344
    4AU     LIG 2139   2.933  28.586   8.481
    4AU     LIG 2140   2.865  29.065   8.552
    4AU     LIG 2141   2.642  29.462   8.736
    4AU    AUSL 2142   1.751  25.338   7.981
    4AU    AUSL 2143   2.151  25.355   7.757
    4AU     AUL 2144   1.984  25.092   7.977
    4AU       S 2145   1.596  24.792   8.097
    4AU     LIG 2146   1.342  24.425   8.223
    4AU     LIG 2147   1.182  24.005   8.259
    4AU     LIG 2148   1.282  23.590   8.448
    4AU     LIG 2149   1.316  23.259   8.789
    4AU     LIG 2150   1.449  23.089   9.227
    4AU     LIG 2151   1.630  22.788   9.550
    4AU       S 2152   2.488  25.118   7.973
    4AU     LIG 2153   2.518  24.681   8.097
    4AU     LIG 2154   2.629  24.296   8.328
    4AU     LIG 2155   2.845  23.974   8.596
    4AU     LIG 2156   3.006  23.588   8.836
    4AU     LIG 2157   3.325  23.233   8.866
    4AU     LIG 2158   3.786  23.224   8.876
    4AU    AUSL 2159   1.535  25.226   7.734
    4AU    AUSL 2160   1.467  25.501   8.002
    4AU     AUL 2161   1.461  25.271   8.160
    4AU       S 2162   1.389  24.813   7.887
    4AU     LIG 2163   1.126  24.485   7.759
    4AU     LIG 2164   1.154  24.035   7.728
    4AU     LIG 2165   1.151  23.593   7.938
    4AU     LIG 2166   1.081  23.181   8.199
    4AU     LIG 2167   0.851  22.766   8.357
    4AU     LIG 2168   0.672  22.421   8.658
    4AU       S 2169   1.039  25.131   7.954
    4AU     LIG 2170   0.911  24.709   8.171
    4AU     LIG 2171   0.503  24.491   8.278
    4AU     LIG 2172   0.215  24.312   8.634
    4AU     LIG 2173   0.085  24.103   9.061
    4AU     LIG 2174   0.144  23.981   9.518
    4AU     LIG 2175   0.156  23.855   9.980
    4AU    AUSL 2176   1.854  25.244   7.674
    4AU    AUSL 2177   1.563  25.180   7.402
    4AU     AUL 2178   1.917  24.974   7.605
    4AU       S 2179   1.274  24.829   7.414
    4AU     LIG 2180   0.973  24.492   7.279
    4AU     LIG 2181   0.988  24.029   7.231
    4AU     LIG 2182   1.042  23.609   7.015
    4AU     LIG 2183   1.119  23.201   6.785
    4AU     LIG 2184   1.050  22.717   6.763
    4AU     LIG 2185   1.179  22.313   6.560
    4AU       S 2186   1.522  24.838   7.840
    4AU     LIG 2187   1.614  24.351   7.795
    4AU     LIG 2188   1.589  23.889   7.961
    4AU     LIG 2189   1.632  23.416   8.095
    4AU     LIG 2190   1.942  23.027   8.167
    4AU     LIG 2191   2.241  22.636   8.261
    4AU     LIG 2192   2.285  22.243   8.550
    4AU    AUSL 2193   1.751  26.510   7.046
    4AU    AUSL 2194   2.131  26.453   7.218
    4AU     AUL 2195   2.054  26.648   6.934
    4AU       S 2196   1.814  27.077   6.951
    4AU     LIG 2197   1.999  27.404   6.645
    4AU     LIG 2198   2.159  27.743   6.352
    4AU     LIG 2199   2.304  27.948   5.944
    4AU     LIG 2200   2.198  28.106   5.504
    4AU     LIG 2201   2.093  28.518   5.301
    4AU     LIG 2202   2.172  28.918   5.059
    4AU       S 2203   2.550  26.431   6.912
    4AU     LIG 2204   2.956  26.684   6.846
    4AU     LIG 2205   3.213  26.887   6.480
    4AU     LIG 2206   3.398  27.170   6.123
    4AU     LIG 2207   3.605  27.615   6.025
    4AU     LIG 2208   3.762  28.089   5.993
    4AU     LIG 2209   3.968  28.508   5.856
    4AU    AUSL 2210   1.570  26.586   7.321
    4AU    AUSL 2211   1.467  26.362   6.961
    4AU     AUL 2212   1.449  26.737   7.055
    4AU       S 2213   1.846  27.050   7.234
    4AU     LIG 2214   1.864  27.548   7.122
    4AU     LIG 2215   1.890  27.920   6.801
    4AU     LIG 2216   1.838  28.402   6.721
    4AU     LIG 2217   1.650  28.852   6.770
    4AU     LIG 2218   1.472  29.281   6.621
    4AU     LIG 2219   1.255  29.677   6.459
    4AU       S 2220   1.280  26.546   6.605
    4AU     LIG 2221   1.242  26.866   6.255
    4AU     LIG 2222   1.092  27.003   5.823
    4AU     LIG 2223   0.975  27.111   5.362
    4AU     LIG 2224   0.926  27.385   4.962
    4AU     LIG 2225   0.687  27.693   4.687
    4AU     LIG 2226   0.500  28.127   4.619
    4AU    AUSL 2227   1.679  25.324   7.125
    4AU    AUSL 2228   1.322  25.353   7.255
    4AU     AUL 2229   1.547  25.149   6.949
    4AU       S 2230   1.023  25.087   7.101
    4AU     LIG 2231   0.641  24.863   7.247
    4AU     LIG 2232   0.294  24.558   7.078
    4AU     LIG 2233  44.994  24.270   6.761
    4AU     LIG 2234  44.653  24.035   6.447
    4AU     LIG 2235  44.548  23.569   6.284
    4AU     LIG 2236  44.167  23.353   6.159
    4AU       S 2237   1.433  24.845   7.316
    4AU     LIG 2238   1.305  24.609   6.921
    4AU     LIG 2239   1.224  24.168   6.797
    4AU     LIG 2240   1.322  23.737   6.608
    4AU     LIG 2241   1.347  23.354   6.323
    4AU     LIG 2242   1.403  23.184   5.866
    4AU     LIG 2243   1.659  23.052   5.481
    4AU    AUSL 2244   1.896  25.214   7.351
    4AU    AUSL 2245   1.938  25.440   6.960
    4AU     AUL 2246   1.933  25.061   7.070
    4AU       S 2247   1.584  24.752   7.325
    4AU     LIG 2248   1.439  24.293   7.314
    4AU     LIG 2249   1.482  23.849   7.122
    4AU     LIG 2250   1.587  23.410   6.915
    4AU     LIG 2251   1.908  23.033   6.818
    4AU     LIG 2252   2.232  22.642   6.818
    4AU     LIG 2253   2.289  22.153   6.831
    4AU       S 2254   2.155  25.201   6.643
    4AU     LIG 2255   2.200  24.848   6.368
    4AU     LIG 2256   2.371  24.457   6.208
    4AU     LIG 2257   2.600  24.137   5.957
    4AU     LIG 2258   2.813  24.029   5.544
    4AU     LIG 2259   2.871  23.781   5.133
    4AU     LIG 2260   3.076  23.360   5.037
    5AU     AUC 2261   9.414  27.012   7.503
    5AU     AUC 2262   9.658  27.007   7.339
    5AU     AUC 2263   9.670  27.009   7.648
    5AU     AUC 2264   9.158  27.014   7.356
    5AU     AUC 2265   9.169  27.021   7.666
    5AU     AUC 2266   9.265  27.264   7.504
    5AU     AUC 2267   9.572  27.260   7.495
    5AU     AUC 2268   9.253  26.762   7.513
    5AU     AUC 2269   9.566  26.759   7.500
    5AU     AUC 2270   9.421  26.860   7.756
    5AU     AUC 2271   9.427  27.170   7.752
    5AU     AUC 2272   9.403  26.855   7.252
    5AU     AUC 2273   9.408  27.164   7.250
    5AU     AUC 2274   9.895  27.002   7.180
    5AU     AUC 2275   9.911  26.998   7.484
    5AU     AUC 2276   9.920  27.003   7.787
    5AU     AUC 2277   8.912  27.014   7.213
    5AU     AUC 2278   8.915  27.028   7.514
    5AU     AUC 2279   8.930  27.033   7.821
    5AU     AUC 2280   9.121  27.510   7.504
    5AU     AUC 2281   9.426  27.510   7.496
    5AU     AUC 2282   9.726  27.500   7.488
    5AU     AUC 2283   9.101  26.524   7.524
    5AU     AUC 2284   9.401  26.515   7.521
    5AU     AUC 2285   9.709  26.514   7.497
    5AU     AUC 2286   9.425  26.713   7.998
    5AU     AUC 2287   9.430  27.012   8.001
    5AU     AUC 2288   9.440  27.320   7.993
    5AU     AUC 2289   9.393  26.702   7.013
    5AU     AUC 2290   9.399  27.002   7.004
    5AU     AUC 2291   9.403  27.311   7.006
    5AU     AUC 2292   9.674  26.853   7.898
    5AU     AUC 2293   9.682  27.159   7.899
    5AU     AUC 2294   9.644  26.852   7.092
    5AU     AUC 2295   9.654  27.159   7.093
    5AU     AUC 2296   9.169  26.871   7.913
    5AU     AUC 2297   9.183  27.176   7.914
    5AU     AUC 2298   9.153  26.854   7.109
    5AU     AUC 2299   9.154  27.163   7.105
    5AU     AUC 2300   9.817  27.251   7.336
    5AU     AUC 2301   9.829  27.250   7.643
    5AU     AUC 2302   9.009  27.266   7.354
    5AU     AUC 2303   9.023  27.276   7.665
    5AU     AUC 2304   9.801  26.749   7.331
    5AU     AUC 2305   9.817  26.752   7.639
    5AU     AUC 2306   9.006  26.765   7.363
    5AU     AUC 2307   9.006  26.778   7.666
    5AU     AUC 2308   9.281  27.422   7.754
    5AU     AUC 2309   9.587  27.414   7.745
    5AU     AUC 2310   9.255  26.619   7.763
    5AU     AUC 2311   9.570  26.609   7.754
    5AU     AUC 2312   9.261  27.414   7.248
    5AU     AUC 2313   9.569  27.410   7.243
    5AU     AUC 2314   9.246  26.605   7.271
    5AU     AUC 2315   9.550  26.600   7.255
    5AU    AUSL 2316   9.853  26.966   8.073
    5AU    AUSL 2317   9.726  26.585   8.049
    5AU     AUL 2318  10.139  26.786   8.181
    5AU       S 2319   9.990  26.318   8.326
    5AU     LIG 2320   9.969  25.914   8.532
    5AU     LIG 2321  10.059  25.525   8.748
    5AU     LIG 2322  10.297  25.242   9.023
    5AU     LIG 2323  10.286  25.082   9.477
    5AU     LIG 2324  10.416  24.870   9.881
    5AU     LIG 2325  10.617  24.639  10.245
    5AU       S 2326   9.907  26.830   8.653
    5AU     LIG 2327  10.193  26.770   9.008
    5AU     LIG 2328  10.363  26.461   9.330
    5AU     LIG 2329  10.645  26.331   9.700
    5AU     LIG 2330  11.022  26.428   9.991
    5AU     LIG 2331  11.378  26.607  10.257
    5AU     LIG 2332  11.615  26.738  10.659
    5AU    AUSL 2333   9.571  26.834   8.211
    5AU    AUSL 2334   9.293  27.167   8.195
    5AU     AUL 2335   9.392  27.008   8.498
    5AU       S 2336   9.748  26.669   8.593
    5AU     LIG 2337   9.990  26.329   8.844
    5AU     LIG 2338  10.043  26.059   9.236
    5AU     LIG 2339  10.079  25.992   9.719
    5AU     LIG 2340  10.066  26.016  10.208
    5AU     LIG 2341  10.178  26.063  10.681
    5AU     LIG 2342  10.405  25.915  11.078
    5AU       S 2343   8.920  27.195   8.660
    5AU     LIG 2344   8.765  27.167   9.121
    5AU     LIG 2345   8.707  26.891   9.529
    5AU     LIG 2346   8.599  26.769   9.986
    5AU     LIG 2347   8.465  26.945  10.418
    5AU     LIG 2348   8.510  27.231  10.823
    5AU     LIG 2349   8.395  27.470  11.236
    5AU    AUSL 2350   9.626  27.175   8.208
    5AU    AUSL 2351   9.981  27.266   7.947
    5AU     AUL 2352  10.028  27.107   8.263
    5AU       S 2353   9.808  27.193   8.700
    5AU     LIG 2354   9.834  27.545   9.043
    5AU     LIG 2355   9.828  27.778   9.478
    5AU     LIG 2356   9.867  27.912   9.952
    5AU     LIG 2357   9.948  28.042  10.407
    5AU     LIG 2358  10.022  27.958  10.868
    5AU     LIG 2359  10.225  27.890  11.288
    5AU       S 2360  10.362  27.459   8.170
    5AU     LIG 2361  10.671  27.349   8.482
    5AU     LIG 2362  10.928  27.529   8.815
    5AU     LIG 2363  11.164  27.702   9.184
    5AU     LIG 2364  11.546  27.732   9.474
    5AU     LIG 2365  11.917  27.903   9.712
    5AU     LIG 2366  12.176  28.281   9.839
    5AU    AUSL 2367   9.836  27.054   6.893
    5AU    AUSL 2368   9.690  27.407   6.940
    5AU     AUL 2369   9.759  27.346   6.591
    5AU       S 2370   9.943  26.905   6.368
    5AU     LIG 2371  10.115  26.556   6.110
    5AU     LIG 2372  10.348  26.423   5.715
    5AU     LIG 2373  10.539  26.491   5.274
    5AU     LIG 2374  10.972  26.497   5.014
    5AU     LIG 2375  11.369  26.577   4.726
    5AU     LIG 2376  11.595  26.754   4.338
    5AU       S 2377  10.175  27.608   6.693
    5AU     LIG 2378  10.449  27.770   6.362
    5AU     LIG 2379  10.686  27.997   6.020
    5AU     LIG 2380  10.871  28.155   5.602
    5AU     LIG 2381  10.828  28.414   5.198
    5AU     LIG 2382  11.001  28.781   4.958
    5AU     LIG 2383  11.179  29.056   4.642
    5AU    AUSL 2384   9.599  26.831   6.798
    5AU    AUSL 2385   9.883  26.738   7.019
    5AU     AUL 2386  10.093  26.876   6.838
    5AU       S 2387  10.044  26.417   6.625
    5AU     LIG 2388  10.305  26.146   6.343
    5AU     LIG 2389  10.520  25.754   6.199
    5AU     LIG 2390  10.801  25.432   6.005
    5AU     LIG 2391  11.080  25.327   5.635
    5AU     LIG 2392  11.478  25.341   5.358
    5AU     LIG 2393  11.863  25.285   5.067
    5AU       S 2394   9.680  26.695   6.420
    5AU     LIG 2395   9.630  26.372   6.135
    5AU     LIG 2396   9.855  26.263   5.743
    5AU     LIG 2397  10.069  26.223   5.305
    5AU     LIG 2398  10.140  26.047   4.849
    5AU     LIG 2399  10.152  25.988   4.362
    5AU     LIG 2400  10.293  25.982   3.885
    5AU    AUSL 2401   9.528  27.152   6.806
    5AU    AUSL 2402   9.255  26.838   6.786
    5AU     AUL 2403   9.416  27.188   6.542
    5AU       S 2404   9.205  26.601   6.414
    5AU     LIG 2405   9.115  26.340   6.055
    5AU     LIG 2406   8.884  26.271   5.657
    5AU     LIG 2407   8.695  26.285   5.222
    5AU     LIG 2408   8.458  26.060   4.872
    5AU     LIG 2409   8.341  26.009   4.413
    5AU     LIG 2410   8.332  26.085   3.948
    5AU       S 2411   9.721  26.831   6.409
    5AU     LIG 2412   9.732  26.814   5.906
    5AU     LIG 2413   9.978  26.719   5.502
    5AU     LIG 2414  10.112  26.838   5.050
    5AU     LIG 2415  10.066  27.083   4.618
    5AU     LIG 2416  10.151  27.399   4.263
    5AU     LIG 2417  10.109  27.561   3.812
    5AU    AUSL 2418   8.994  27.053   8.124
    5AU    AUSL 2419   9.172  27.453   8.066
    5AU     AUL 2420   9.302  27.370   8.387
    5AU       S 2421   8.760  27.096   8.490
    5AU     LIG 2422   8.440  26.943   8.798
    5AU     LIG 2423   8.341  26.725   9.205
    5AU     LIG 2424   8.257  26.588   9.647
    5AU     LIG 2425   8.087  26.618  10.091
    5AU     LIG 2426   7.724  26.707  10.393
    5AU     LIG 2427   7.403  26.649  10.738
    5AU       S 2428   8.864  27.610   8.407
    5AU     LIG 2429   8.834  27.675   8.865
    5AU     LIG 2430   8.712  28.039   9.144
    5AU     LIG 2431   8.465  28.305   9.453
    5AU     LIG 2432   8.297  28.482   9.879
    5AU     LIG 2433   8.085  28.694  10.271
    5AU     LIG 2434   7.841  29.006  10.556
    5AU    AUSL 2435   9.239  26.833   8.211
    5AU    AUSL 2436   8.877  26.781   7.961
    5AU     AUL 2437   8.919  26.663   8.279
    5AU       S 2438   8.584  26.290   8.118
    5AU     LIG 2439   8.187  26.070   8.093
    5AU     LIG 2440   7.811  25.874   8.294
    5AU     LIG 2441   7.513  25.636   8.573
    5AU     LIG 2442   7.279  25.399   8.903
    5AU     LIG 2443   6.971  25.380   9.265
    5AU     LIG 2444   6.670  25.421   9.633
    5AU       S 2445   8.941  26.927   8.696
    5AU     LIG 2446   8.830  26.651   9.060
    5AU     LIG 2447   8.689  26.383   9.431
    5AU     LIG 2448   8.584  26.243   9.874
    5AU     LIG 2449   8.461  26.040  10.283
    5AU     LIG 2450   8.217  26.049  10.693
    5AU     LIG 2451   8.254  26.095  11.175
    5AU    AUSL 2452   8.968  26.969   6.928
    5AU    AUSL 2453   9.122  26.585   6.958
    5AU     AUL 2454   8.833  26.732   6.759
    5AU       S 2455   8.982  26.881   6.310
    5AU     LIG 2456   8.725  26.675   5.962
    5AU     LIG 2457   8.452  26.568   5.580
    5AU     LIG 2458   8.193  26.465   5.181
    5AU     LIG 2459   7.804  26.551   4.899
    5AU     LIG 2460   7.416  26.474   4.601
    5AU     LIG 2461   7.107  26.607   4.265
    5AU       S 2462   8.753  26.223   6.793
    5AU     LIG 2463   8.507  25.819   6.784
    5AU     LIG 2464   8.199  25.581   6.540
    5AU     LIG 2465   7.900  25.397   6.225
    5AU     LIG 2466   7.808  25.169   5.809
    5AU     LIG 2467   7.882  24.999   5.352
    5AU     LIG 2468   7.840  24.674   4.993
    5AU    AUSL 2469   9.197  27.170   6.810
    5AU    AUSL 2470   8.876  27.270   7.053
    5AU     AUL 2471   8.788  27.129   6.714
    5AU       S 2472   8.667  27.607   6.681
    5AU     LIG 2473   8.454  27.743   6.268
    5AU     LIG 2474   8.282  27.848   5.823
    5AU     LIG 2475   7.987  27.978   5.464
    5AU     LIG 2476   7.524  28.056   5.351
    5AU     LIG 2477   7.144  28.275   5.166
    5AU     LIG 2478   6.938  28.629   4.916
    5AU       S 2479   9.183  26.805   6.374
    5AU     LIG 2480   9.216  26.802   5.873
    5AU     LIG 2481   8.941  26.746   5.472
    5AU     LIG 2482   8.838  26.749   4.998
    5AU     LIG 2483   8.902  26.959   4.556
    5AU     LIG 2484   8.842  27.287   4.199
    5AU     LIG 2485   8.664  27.532   3.826
    5AU    AUSL 2486  10.018  27.418   7.455
    5AU    AUSL 2487   9.978  27.291   7.092
    5AU     AUL 2488  10.087  27.731   7.327
    5AU       S 2489  10.315  27.354   6.823
    5AU     LIG 2490  10.688  27.355   6.557
    5AU     LIG 2491  10.876  27.527   6.164
    5AU     LIG 2492  11.131  27.782   5.871
    5AU     LIG 2493  11.339  27.918   5.476
    5AU     LIG 2494  11.725  27.957   5.214
    5AU     LIG 2495  12.037  28.232   5.012
    5AU       S 2496  10.552  27.501   7.376
    5AU     LIG 2497  11.034  27.603   7.453
    5AU     LIG 2498  11.527  27.677   7.497
    5AU     LIG 2499  12.002  27.781   7.491
    5AU     LIG 2500  12.406  28.032   7.396
    5AU     LIG 2501  12.598  28.480   7.446
    5AU     LIG 2502  12.760  28.827   7.725
    5AU    AUSL 2503  10.133  27.118   7.328
    5AU    AUSL 2504  10.121  26.848   7.611
    5AU     AUL 2505  10.424  26.831   7.374
    5AU       S 2506  10.533  27.309   7.268
    5AU     LIG 2507  10.926  27.322   7.041
    5AU     LIG 2508  11.378  27.289   7.185
    5AU     LIG 2509  11.855  27.343   7.238
    5AU     LIG 2510  12.338  27.443   7.294
    5AU     LIG 2511  12.732  27.681   7.170
    5AU     LIG 2512  13.197  27.650   7.076
    5AU       S 2513  10.490  26.347   7.629
    5AU     LIG 2514  10.871  26.110   7.790
    5AU     LIG 2515  11.299  25.890   7.800
    5AU     LIG 2516  11.746  25.716   7.750
    5AU     LIG 2517  12.197  25.547   7.739
    5AU     LIG 2518  12.664  25.599   7.840
    5AU     LIG 2519  13.029  25.568   8.165
    5AU    AUSL 2520  10.128  27.177   7.665
    5AU    AUSL 2521   9.871  27.513   7.748
    5AU     AUL 2522  10.170  27.578   7.709
    5AU       S 2523  10.200  27.607   8.201
    5AU     LIG 2524  10.537  27.847   8.462
    5AU     LIG 2525  10.888  28.037   8.708
    5AU     LIG 2526  11.081  28.432   8.878
    5AU     LIG 2527  11.323  28.838   8.809
    5AU     LIG 2528  11.639  29.111   9.018
    5AU     LIG 2529  11.642  29.579   9.047
    5AU       S 2530  10.578  27.278   7.625
    5AU     LIG 2531  11.034  27.173   7.724
    5AU     LIG 2532  11.516  27.201   7.685
    5AU     LIG 2533  11.992  27.309   7.728
    5AU     LIG 2534  12.480  27.272   7.770
    5AU     LIG 2535  12.891  27.259   8.035
    5AU     LIG 2536  13.212  27.553   8.233
    5AU    AUSL 2537   8.825  27.474   7.527
    5AU    AUSL 2538   8.885  27.310   7.935
    5AU     AUL 2539   8.757  27.745   7.778
    5AU       S 2540   8.613  27.453   8.213
    5AU     LIG 2541   8.423  27.462   8.639
    5AU     LIG 2542   8.320  27.744   8.997
    5AU     LIG 2543   8.082  27.960   9.349
    5AU     LIG 2544   7.695  28.041   9.627
    5AU     LIG 2545   7.303  28.239   9.814
    5AU     LIG 2546   6.863  28.408   9.881
    5AU       S 2547   8.316  27.617   7.590
    5AU     LIG 2548   8.000  27.957   7.480
    5AU     LIG 2549   7.764  28.390   7.509
    5AU     LIG 2550   7.422  28.747   7.545
    5AU     LIG 2551   7.025  29.040   7.603
    5AU     LIG 2552   6.636  29.259   7.795
    5AU     LIG 2553   6.281  29.548   7.646
    5AU    AUSL 2554   8.712  27.204   7.343
    5AU    AUSL 2555   8.969  27.547   7.234
    5AU     AUL 2556   8.633  27.514   7.196
    5AU       S 2557   8.175  27.440   7.388
    5AU     LIG 2558   7.781  27.571   7.136
    5AU     LIG 2559   7.393  27.641   6.839
    5AU     LIG 2560   7.006  27.867   6.662
    5AU     LIG 2561   6.540  27.823   6.557
    5AU     LIG 2562   6.128  27.970   6.761
    5AU     LIG 2563   5.758  28.288   6.791
    5AU       S 2564   8.708  27.837   6.807
    5AU     LIG 2565   8.626  28.184   6.489
    5AU     LIG 2566   8.681  28.592   6.241
    5AU     LIG 2567   8.516  28.993   6.043
    5AU     LIG 2568   8.144  29.231   5.866
    5AU     LIG 2569   7.760  29.515   5.954
    5AU     LIG 2570   7.336  29.708   6.066
    5AU    AUSL 2571   8.710  27.194   7.686
    5AU    AUSL 2572   8.681  26.873   7.351
    5AU     AUL 2573   8.425  27.035   7.514
    5AU       S 2574   8.286  26.510   7.350
    5AU     LIG 2575   7.819  26.621   7.627
    5AU     LIG 2576   7.321  26.672   7.722
    5AU     LIG 2577   6.832  26.807   7.671
    5AU     LIG 2578   6.353  26.715   7.539
    5AU     LIG 2579   5.959  26.455   7.424
    5AU     LIG 2580   5.686  26.103   7.299
    5AU       S 2581   8.317  27.406   7.830
    5AU     LIG 2582   8.106  27.598   8.207
    5AU     LIG 2583   7.653  27.716   8.338
    5AU     LIG 2584   7.242  27.943   8.436
    5AU     LIG 2585   6.771  27.982   8.402
    5AU     LIG 2586   6.350  28.017   8.218
    5AU     LIG 2587   5.899  28.048   8.074
    5AU    AUSL 2588  10.014  26.549   7.499
    5AU    AUSL 2589   9.973  26.724   7.878
    5AU     AUL 2590  10.316  26.761   7.822
    5AU       S 2591  10.212  26.160   7.480
    5AU     LIG 2592  10.460  25.821   7.672
    5AU     LIG 2593  10.890  25.617   7.606
    5AU     LIG 2594  11.344  25.438   7.541
    5AU     LIG 2595  11.809  25.279   7.477
    5AU     LIG 2596  12.267  25.176   7.376
    5AU     LIG 2597  12.456  24.757   7.417
    5AU       S 2598  10.158  26.306   8.126
    5AU     LIG 2599  10.436  26.128   8.468
    5AU     LIG 2600  10.526  25.730   8.692
    5AU     LIG 2601  10.779  25.372   8.878
    5AU     LIG 2602  11.137  25.246   9.179
    5AU     LIG 2603  11.525  25.255   9.468
    5AU     LIG 2604  11.819  25.348   9.833
    5AU    AUSL 2605  10.071  26.798   7.286
    5AU    AUSL 2606   9.837  26.465   7.217
    5AU     AUL 2607  10.204  26.588   7.106
    5AU       S 2608  10.329  26.322   7.496
    5AU     LIG 2609  10.721  26.055   7.295
    5AU     LIG 2610  11.185  25.907   7.297
    5AU     LIG 2611  11.637  25.744   7.247
    5AU     LIG 2612  12.104  25.656   7.241
    5AU     LIG 2613  12.550  25.761   7.107
    5AU     LIG 2614  12.946  25.991   6.918
    5AU       S 2615  10.062  26.183   6.835
    5AU     LIG 2616  10.209  25.753   6.655
    5AU     LIG 2617  10.381  25.340   6.471
    5AU     LIG 2618  10.646  24.995   6.267
    5AU     LIG 2619  10.927  24.584   6.268
    5AU     LIG 2620  11.255  24.236   6.148
    5AU     LIG 2621  11.580  24.013   5.859
    5AU    AUSL 2622   8.804  26.601   7.480
    5AU    AUSL 2623   8.863  26.723   7.123
    5AU     AUL 2624   8.563  26.848   7.081
    5AU       S 2625   8.564  26.337   6.961
    5AU     LIG 2626   8.148  26.206   6.819
    5AU     LIG 2627   7.827  25.940   6.606
    5AU     LIG 2628   7.500  25.717   6.351
    5AU     LIG 2629   7.097  25.573   6.141
    5AU     LIG 2630   6.747  25.595   5.805
    5AU     LIG 2631   6.487  25.636   5.415
    5AU       S 2632   8.461  26.423   7.439
    5AU     LIG 2633   8.023  26.157   7.597
    5AU     LIG 2634   7.524  26.193   7.566
    5AU     LIG 2635   7.070  26.021   7.654
    5AU     LIG 2636   6.612  25.811   7.626
    5AU     LIG 2637   6.253  25.502   7.665
    5AU     LIG 2638   5.923  25.239   7.844
    5AU    AUSL 2639   8.729  26.866   7.677
    5AU    AUSL 2640   8.933  26.496   7.772
    5AU     AUL 2641   8.570  26.710   7.856
    5AU       S 2642   8.666  26.162   7.791
    5AU     LIG 2643   8.402  25.817   7.700
    5AU     LIG 2644   8.012  25.629   7.871
    5AU     LIG 2645   7.765  25.367   8.194
    5AU     LIG 2646   7.517  25.109   8.523
    5AU     LIG 2647   7.243  24.720   8.661
    5AU     LIG 2648   6.982  24.290   8.639
    5AU       S 2649   8.291  26.566   7.461
    5AU     LIG 2650   7.893  26.679   7.135
    5AU     LIG 2651   7.450  26.609   7.224
    5AU     LIG 2652   7.037  26.446   7.354
    5AU     LIG 2653   6.654  26.317   7.587
    5AU     LIG 2654   6.239  26.193   7.768
    5AU     LIG 2655   5.879  25.875   7.812
    5AU    AUSL 2656   9.437  27.622   7.935
    5AU    AUSL 2657   9.037  27.555   7.777
    5AU     AUL 2658   9.121  27.826   7.980
    5AU       S 2659   8.759  27.664   8.277
    5AU     LIG 2660   8.540  27.986   8.581
    5AU     LIG 2661   8.509  28.412   8.839
    5AU     LIG 2662   8.504  28.906   8.930
    5AU     LIG 2663   8.294  29.353   8.972
    5AU     LIG 2664   7.918  29.657   9.043
    5AU     LIG 2665   7.527  29.894   9.202
    5AU       S 2666   9.491  28.152   8.056
    5AU     LIG 2667   9.639  28.391   8.407
    5AU     LIG 2668   9.668  28.791   8.619
    5AU     LIG 2669   9.485  29.164   8.843
    5AU     LIG 2670   9.553  29.347   9.272
    5AU     LIG 2671   9.512  29.686   9.601
    5AU     LIG 2672   9.671  30.041   9.870
    5AU    AUSL 2673   9.284  27.731   7.647
    5AU    AUSL 2674   9.573  27.742   7.334
    5AU     AUL 2675   9.106  27.958   7.440
    5AU       S 2676   9.390  28.227   7.769
    5AU     LIG 2677   9.355  28.649   8.038
    5AU     LIG 2678   9.465  29.073   8.252
    5AU     LIG 2679   9.348  29.532   8.226
    5AU     LIG 2680   9.335  29.960   8.438
    5AU     LIG 2681   9.307  30.413   8.552
    5AU     LIG 2682   9.044  30.777   8.407
    5AU       S 2683   9.718  28.149   7.263
    5AU     LIG 2684   9.918  28.517   7.080
    5AU     LIG 2685   9.918  28.928   6.846
    5AU     LIG 2686  10.181  29.297   6.688
    5AU     LIG 2687  10.536  29.627   6.604
    5AU     LIG 2688  10.598  30.091   6.451
    5AU     LIG 2689  10.593  30.553   6.461
    5AU    AUSL 2690   9.621  27.710   7.657
    5AU    AUSL 2691   9.701  27.445   8.036
    5AU     AUL 2692   9.800  27.781   7.941
    5AU       S 2693  10.002  27.586   8.352
    5AU     LIG 2694  10.254  27.524   8.736
    5AU     LIG 2695  10.531  27.793   9.004
    5AU     LIG 2696  10.828  28.099   9.223
    5AU     LIG 2697  10.972  28.329   9.614
    5AU     LIG 2698  10.974  28.656   9.968
    5AU     LIG 2699  10.930  29.104  10.130
    5AU       S 2700   9.631  28.201   7.740
    5AU     LIG 2701   9.851  28.562   7.969
    5AU     LIG 2702  10.004  28.946   8.229
    5AU     LIG 2703  10.362  29.290   8.321
    5AU     LIG 2704  10.538  29.749   8.352
    5AU     LIG 2705  10.512  30.221   8.337
    5AU     LIG 2706  10.190  30.582   8.381
    5AU    AUSL 2707   9.433  26.430   7.979
    5AU    AUSL 2708   9.831  26.444   7.754
    5AU     AUL 2709   9.661  26.185   7.978
    5AU       S 2710   9.268  25.885   8.092
    5AU     LIG 2711   9.052  25.486   8.200
    5AU     LIG 2712   8.844  25.088   8.257
    5AU     LIG 2713   8.864  24.668   8.458
    5AU     LIG 2714   8.979  24.250   8.643
    5AU     LIG 2715   9.111  23.961   8.993
    5AU     LIG 2716   9.112  23.756   9.421
    5AU       S 2717  10.163  26.176   7.975
    5AU     LIG 2718  10.286  25.743   8.164
    5AU     LIG 2719  10.394  25.325   8.405
    5AU     LIG 2720  10.599  24.936   8.624
    5AU     LIG 2721  10.848  24.484   8.629
    5AU     LIG 2722  11.223  24.138   8.662
    5AU     LIG 2723  11.708  24.012   8.643
    5AU    AUSL 2724   9.217  26.320   7.732
    5AU    AUSL 2725   9.149  26.593   8.001
    5AU     AUL 2726   9.145  26.367   8.161
    5AU       S 2727   9.071  25.897   7.883
    5AU     LIG 2728   8.834  25.554   7.741
    5AU     LIG 2729   8.767  25.118   7.725
    5AU     LIG 2730   8.780  24.688   7.931
    5AU     LIG 2731   8.821  24.254   8.144
    5AU     LIG 2732   8.700  23.815   8.316
    5AU     LIG 2733   8.517  23.350   8.332
    5AU       S 2734   8.726  26.221   7.952
    5AU     LIG 2735   8.628  25.789   8.157
    5AU     LIG 2736   8.244  25.582   8.336
    5AU     LIG 2737   7.957  25.397   8.671
    5AU     LIG 2738   7.726  25.152   9.003
    5AU     LIG 2739   7.681  24.924   9.415
    5AU     LIG 2740   7.765  24.691   9.822
    5AU    AUSL 2741   9.535  26.335   7.672
    5AU    AUSL 2742   9.243  26.275   7.399
    5AU     AUL 2743   9.595  26.065   7.601
    5AU       S 2744   8.943  25.927   7.412
    5AU     LIG 2745   8.642  25.588   7.272
    5AU     LIG 2746   8.650  25.116   7.214
    5AU     LIG 2747   8.701  24.672   7.003
    5AU     LIG 2748   8.767  24.229   6.779
    5AU     LIG 2749   8.781  23.724   6.711
    5AU     LIG 2750   8.558  23.316   6.526
    5AU       S 2751   9.193  25.944   7.836
    5AU     LIG 2752   9.333  25.473   7.769
    5AU     LIG 2753   9.232  25.024   7.918
    5AU     LIG 2754   9.246  24.582   8.121
    5AU     LIG 2755   9.326  24.134   8.276
    5AU     LIG 2756   9.619  23.782   8.434
    5AU     LIG 2757   9.912  23.423   8.569
    5AU    AUSL 2758   9.438  27.606   7.048
    5AU    AUSL 2759   9.816  27.546   7.221
    5AU     AUL 2760   9.743  27.745   6.940
    5AU       S 2761   9.497  28.171   6.961
    5AU     LIG 2762   9.600  28.534   6.674
    5AU     LIG 2763   9.650  28.905   6.382
    5AU     LIG 2764   9.618  29.183   5.986
    5AU     LIG 2765   9.777  29.365   5.554
    5AU     LIG 2766   9.779  29.676   5.187
    5AU     LIG 2767   9.738  30.116   5.018
    5AU       S 2768  10.236  27.518   6.915
    5AU     LIG 2769  10.650  27.751   6.872
    5AU     LIG 2770  10.923  27.912   6.506
    5AU     LIG 2771  11.134  28.206   6.190
    5AU     LIG 2772  11.441  28.565   6.157
    5AU     LIG 2773  11.600  29.009   6.089
    5AU     LIG 2774  11.688  29.469   5.995
    5AU    AUSL 2775   9.256  27.679   7.322
    5AU    AUSL 2776   9.153  27.459   6.962
    5AU     AUL 2777   9.133  27.829   7.057
    5AU       S 2778   9.519  28.140   7.251
    5AU     LIG 2779   9.423  28.620   7.165
    5AU     LIG 2780   9.396  28.983   6.853
    5AU     LIG 2781   9.635  29.339   6.655
    5AU     LIG 2782   9.501  29.784   6.620
    5AU     LIG 2783   9.448  30.243   6.629
    5AU     LIG 2784   9.184  30.615   6.530
    5AU       S 2785   8.961  27.650   6.606
    5AU     LIG 2786   8.936  27.899   6.202
    5AU     LIG 2787   8.671  28.170   5.902
    5AU     LIG 2788   8.449  28.257   5.458
    5AU     LIG 2789   8.366  28.527   5.036
    5AU     LIG 2790   8.229  28.897   4.740
    5AU     LIG 2791   8.023  29.342   4.731
    5AU    AUSL 2792   9.360  26.419   7.123
    5AU    AUSL 2793   9.004  26.451   7.251
    5AU     AUL 2794   9.231  26.243   6.948
    5AU       S 2795   8.710  26.190   7.089
    5AU     LIG 2796   8.329  25.981   7.231
    5AU     LIG 2797   8.035  25.699   7.024
    5AU     LIG 2798   7.739  25.443   6.737
    5AU     LIG 2799   7.458  25.208   6.430
    5AU     LIG 2800   7.271  24.816   6.248
    5AU     LIG 2801   7.114  24.371   6.177
    5AU       S 2802   9.106  25.940   7.313
    5AU     LIG 2803   8.987  25.688   6.920
    5AU     LIG 2804   8.914  25.240   6.791
    5AU     LIG 2805   8.981  24.803   6.594
    5AU     LIG 2806   8.982  24.405   6.321
    5AU     LIG 2807   8.955  24.231   5.859
    5AU     LIG 2808   8.944  23.989   5.442
    5AU    AUSL 2809   9.576  26.306   7.348
    5AU    AUSL 2810   9.619  26.535   6.957
    5AU     AUL 2811   9.613  26.153   7.068
    5AU       S 2812   9.257  25.845   7.326
    5AU     LIG 2813   9.105  25.378   7.318
    5AU     LIG 2814   9.134  24.923   7.144
    5AU     LIG 2815   9.193  24.479   6.936
    5AU     LIG 2816   9.249  24.014   6.776
    5AU     LIG 2817   9.539  23.612   6.724
    5AU     LIG 2818  10.009  23.430   6.662
    5AU       S 2819   9.825  26.299   6.636
    5AU     LIG 2820   9.832  25.956   6.357
    5AU     LIG 2821  10.032  25.598   6.168
    5AU     LIG 2822  10.310  25.304   5.950
    5AU     LIG 2823  10.412  25.111   5.540
    5AU     LIG 2824  10.397  24.887   5.123
    5AU     LIG 2825  10.568  24.536   4.864
    6AU     AUC 2826  37.055   1.607   7.504
    6AU     AUC 2827  37.298   1.604   7.338
    6AU     AUC 2828  37.313   1.604   7.646
    6AU     AUC 2829  36.797   1.610   7.360
    6AU     AUC 2830  36.812   1.614   7.670
    6AU     AUC 2831  36.906   1.858   7.508
    6AU     AUC 2832  37.213   1.855   7.496
    6AU     AUC 2833  36.895   1.356   7.514
    6AU     AUC 2834  37.208   1.355   7.498
    6AU     AUC 2835  37.065   1.454   7.756
    6AU     AUC 2836  37.070   1.764   7.754
    6AU     AUC 2837  37.042   1.451   7.252
    6AU     AUC 2838  37.046   1.761   7.253
    6AU     AUC 2839  37.532   1.601   7.175
    6AU     AUC 2840  37.553   1.596   7.479
    6AU     AUC 2841  37.563   1.598   7.783
    6AU     AUC 2842  36.550   1.610   7.221
    6AU     AUC 2843  36.556   1.621   7.522
    6AU     AUC 2844  36.575   1.624   7.827
    6AU     AUC 2845  36.762   2.105   7.512
    6AU     AUC 2846  37.067   2.105   7.500
    6AU     AUC 2847  37.366   2.095   7.489
    6AU     AUC 2848  36.745   1.117   7.524
    6AU     AUC 2849  37.046   1.110   7.519
    6AU     AUC 2850  37.353   1.111   7.493
    6AU     AUC 2851  37.072   1.305   7.997
    6AU     AUC 2852  37.072   1.605   8.002
    6AU     AUC 2853  37.084   1.913   7.996
    6AU     AUC 2854  37.031   1.300   7.013
    6AU     AUC 2855  37.035   1.600   7.005
    6AU     AUC 2856  37.037   1.909   7.009
    6AU     AUC 2857  37.318   1.448   7.896
    6AU     AUC 2858  37.325   1.752   7.900
    6AU     AUC 2859  37.281   1.450   7.090
    6AU     AUC 2860  37.290   1.758   7.092
    6AU     AUC 2861  36.814   1.462   7.914
    6AU     AUC 2862  36.827   1.769   7.917
    6AU     AUC 2863  36.791   1.451   7.112
    6AU     AUC 2864  36.789   1.759   7.110
    6AU     AUC 2865  37.455   1.849   7.334
    6AU     AUC 2866  37.471   1.845   7.641
    6AU     AUC 2867  36.647   1.860   7.363
    6AU     AUC 2868  36.667   1.870   7.673
    6AU     AUC 2869  37.442   1.347   7.327
    6AU     AUC 2870  37.461   1.349   7.635
    6AU     AUC 2871  36.647   1.359   7.367
    6AU     AUC 2872  36.650   1.369   7.669
    6AU     AUC 2873  36.927   2.017   7.758
    6AU     AUC 2874  37.232   2.007   7.748
    6AU     AUC 2875  36.901   1.211   7.762
    6AU     AUC 2876  37.217   1.204   7.752
    6AU     AUC 2877  36.898   2.010   7.254
    6AU     AUC 2878  37.205   2.007   7.245
    6AU     AUC 2879  36.887   1.201   7.272
    6AU     AUC 2880  37.191   1.197   7.253
    6AU    AUSL 2881  37.491   1.563   8.072
    6AU    AUSL 2882  37.375   1.185   8.046
    6AU     AUL 2883  37.781   1.426   8.172
    6AU       S 2884  37.651   0.939   8.321
    6AU     LIG 2885  37.553   0.535   8.507
    6AU     LIG 2886  37.675   0.153   8.723
    6AU     LIG 2887  37.928  44.887   9.005
    6AU     LIG 2888  38.184  44.567   9.239
    6AU     LIG 2889  38.190  44.247   9.599
    6AU     LIG 2890  38.241  44.165  10.069
    6AU       S 2891  37.559   1.370   8.632
    6AU     LIG 2892  37.747   1.394   9.049
    6AU     LIG 2893  37.970   1.153   9.388
    6AU     LIG 2894  38.275   1.088   9.748
    6AU     LIG 2895  38.586   1.235  10.073
    6AU     LIG 2896  38.861   1.329  10.443
    6AU     LIG 2897  39.061   1.444  10.851
    6AU    AUSL 2898  37.213   1.424   8.213
    6AU    AUSL 2899  36.926   1.760   8.194
    6AU     AUL 2900  37.018   1.587   8.502
    6AU       S 2901  37.365   1.237   8.595
    6AU     LIG 2902  37.621   0.920   8.861
    6AU     LIG 2903  37.646   0.750   9.304
    6AU     LIG 2904  37.612   0.640   9.774
    6AU     LIG 2905  37.581   0.473  10.227
    6AU     LIG 2906  37.710   0.475  10.683
    6AU     LIG 2907  37.955   0.681  11.040
    6AU       S 2908  36.528   1.809   8.625
    6AU     LIG 2909  36.386   1.824   9.077
    6AU     LIG 2910  36.365   1.545   9.464
    6AU     LIG 2911  36.247   1.407   9.889
    6AU     LIG 2912  36.179   1.636  10.298
    6AU     LIG 2913  36.078   1.972  10.617
    6AU     LIG 2914  35.979   2.113  11.053
    6AU    AUSL 2915  37.256   1.765   8.214
    6AU    AUSL 2916  37.632   1.854   7.944
    6AU     AUL 2917  37.612   1.729   8.295
    6AU       S 2918  37.428   1.714   8.750
    6AU     LIG 2919  37.528   2.084   9.040
    6AU     LIG 2920  37.775   2.272   9.404
    6AU     LIG 2921  37.911   2.439   9.823
    6AU     LIG 2922  37.957   2.578  10.257
    6AU     LIG 2923  37.808   2.617  10.696
    6AU     LIG 2924  37.862   2.429  11.132
    6AU       S 2925  38.022   1.979   8.123
    6AU     LIG 2926  38.304   1.933   8.462
    6AU     LIG 2927  38.500   2.199   8.777
    6AU     LIG 2928  38.674   2.463   9.126
    6AU     LIG 2929  38.941   2.515   9.523
    6AU     LIG 2930  39.362   2.585   9.766
    6AU     LIG 2931  39.725   2.658  10.078
    6AU    AUSL 2932  37.471   1.654   6.889
    6AU    AUSL 2933  37.322   2.007   6.940
    6AU     AUL 2934  37.381   1.951   6.590
    6AU       S 2935  37.576   1.518   6.369
    6AU     LIG 2936  37.791   1.196   6.125
    6AU     LIG 2937  38.032   1.092   5.738
    6AU     LIG 2938  38.187   1.192   5.307
    6AU     LIG 2939  38.536   1.098   5.001
    6AU     LIG 2940  38.953   1.131   4.771
    6AU     LIG 2941  39.217   1.392   4.477
    6AU       S 2942  37.800   2.209   6.680
    6AU     LIG 2943  38.096   2.311   6.332
    6AU     LIG 2944  38.327   2.515   5.961
    6AU     LIG 2945  38.489   2.503   5.496
    6AU     LIG 2946  38.597   2.800   5.135
    6AU     LIG 2947  38.679   3.211   4.908
    6AU     LIG 2948  38.721   3.599   4.641
    6AU    AUSL 2949  37.233   1.429   6.797
    6AU    AUSL 2950  37.520   1.337   7.015
    6AU     AUL 2951  37.731   1.476   6.838
    6AU       S 2952  37.674   1.024   6.612
    6AU     LIG 2953  37.887   0.726   6.314
    6AU     LIG 2954  38.147   0.333   6.243
    6AU     LIG 2955  38.432   0.004   6.061
    6AU     LIG 2956  38.776  44.912   5.744
    6AU     LIG 2957  39.195  44.898   5.514
    6AU     LIG 2958  39.607  44.835   5.282
    6AU       S 2959  37.305   1.298   6.407
    6AU     LIG 2960  37.332   0.958   6.135
    6AU     LIG 2961  37.550   0.912   5.739
    6AU     LIG 2962  37.741   0.920   5.301
    6AU     LIG 2963  37.755   0.902   4.822
    6AU     LIG 2964  37.818   0.671   4.402
    6AU     LIG 2965  37.938   0.635   3.944
    6AU    AUSL 2966  37.163   1.751   6.807
    6AU    AUSL 2967  36.889   1.437   6.788
    6AU     AUL 2968  37.046   1.781   6.541
    6AU       S 2969  36.833   1.188   6.420
    6AU     LIG 2970  36.812   0.957   6.028
    6AU     LIG 2971  36.573   0.888   5.625
    6AU     LIG 2972  36.293   0.749   5.262
    6AU     LIG 2973  36.241   0.493   4.862
    6AU     LIG 2974  36.268   0.467   4.396
    6AU     LIG 2975  36.216   0.510   3.937
    6AU       S 2976  37.363   1.429   6.415
    6AU     LIG 2977  37.383   1.414   5.908
    6AU     LIG 2978  37.662   1.382   5.518
    6AU     LIG 2979  37.757   1.390   5.043
    6AU     LIG 2980  37.701   1.623   4.612
    6AU     LIG 2981  37.850   1.816   4.195
    6AU     LIG 2982  37.791   1.927   3.730
    6AU    AUSL 2983  36.631   1.638   8.126
    6AU    AUSL 2984  36.824   2.054   8.073
    6AU     AUL 2985  36.946   1.944   8.396
    6AU       S 2986  36.355   1.662   8.464
    6AU     LIG 2987  36.060   1.524   8.820
    6AU     LIG 2988  35.982   1.291   9.232
    6AU     LIG 2989  35.858   1.133   9.671
    6AU     LIG 2990  35.578   0.973  10.039
    6AU     LIG 2991  35.306   0.964  10.438
    6AU     LIG 2992  35.055   1.267  10.700
    6AU       S 2993  36.560   2.265   8.435
    6AU     LIG 2994  36.435   2.359   8.889
    6AU     LIG 2995  36.289   2.598   9.286
    6AU     LIG 2996  36.120   2.678   9.731
    6AU     LIG 2997  36.022   2.934  10.129
    6AU     LIG 2998  35.815   3.303  10.355
    6AU     LIG 2999  35.592   3.697  10.511
    6AU    AUSL 3000  36.882   1.425   8.208
    6AU    AUSL 3001  36.523   1.365   7.965
    6AU     AUL 3002  36.586   1.242   8.292
    6AU       S 3003  36.232   0.887   8.127
    6AU     LIG 3004  35.818   0.687   8.075
    6AU     LIG 3005  35.451   0.466   8.281
    6AU     LIG 3006  35.180   0.197   8.567
    6AU     LIG 3007  35.001  44.915   8.904
    6AU     LIG 3008  34.657  44.837   9.231
    6AU     LIG 3009  34.309  44.802   9.564
    6AU       S 3010  36.548   1.556   8.673
    6AU     LIG 3011  36.473   1.283   9.030
    6AU     LIG 3012  36.390   1.024   9.412
    6AU     LIG 3013  36.276   0.877   9.831
    6AU     LIG 3014  36.018   0.729  10.185
    6AU     LIG 3015  35.983   0.545  10.617
    6AU     LIG 3016  35.866   0.603  11.086
    6AU    AUSL 3017  36.604   1.568   6.935
    6AU    AUSL 3018  36.759   1.182   6.960
    6AU     AUL 3019  36.465   1.337   6.768
    6AU       S 3020  36.610   1.458   6.313
    6AU     LIG 3021  36.379   1.247   5.958
    6AU     LIG 3022  36.109   1.127   5.574
    6AU     LIG 3023  35.759   0.922   5.298
    6AU     LIG 3024  35.342   0.989   5.044
    6AU     LIG 3025  35.169   1.077   4.612
    6AU     LIG 3026  34.953   1.208   4.188
    6AU       S 3027  36.393   0.826   6.790
    6AU     LIG 3028  36.147   0.422   6.771
    6AU     LIG 3029  35.858   0.164   6.528
    6AU     LIG 3030  35.571  44.938   6.232
    6AU     LIG 3031  35.320  44.659   5.941
    6AU     LIG 3032  35.316  44.433   5.521
    6AU     LIG 3033  35.304  44.333   5.051
    6AU    AUSL 3034  36.833   1.769   6.815
    6AU    AUSL 3035  36.506   1.865   7.065
    6AU     AUL 3036  36.441   1.734   6.709
    6AU       S 3037  36.254   2.193   6.717
    6AU     LIG 3038  36.071   2.238   6.275
    6AU     LIG 3039  35.905   2.395   5.847
    6AU     LIG 3040  35.576   2.468   5.494
    6AU     LIG 3041  35.239   2.593   5.185
    6AU     LIG 3042  34.848   2.850   5.103
    6AU     LIG 3043  34.484   3.142   4.997
    6AU       S 3044  36.812   1.397   6.380
    6AU     LIG 3045  36.860   1.438   5.883
    6AU     LIG 3046  36.576   1.398   5.491
    6AU     LIG 3047  36.417   1.579   5.067
    6AU     LIG 3048  36.446   1.881   4.679
    6AU     LIG 3049  36.412   2.047   4.226
    6AU     LIG 3050  36.274   2.022   3.759
    6AU    AUSL 3051  37.657   2.017   7.449
    6AU    AUSL 3052  37.614   1.891   7.086
    6AU     AUL 3053  37.731   2.327   7.313
    6AU       S 3054  37.948   1.955   6.808
    6AU     LIG 3055  38.364   1.955   6.604
    6AU     LIG 3056  38.587   2.134   6.221
    6AU     LIG 3057  38.818   2.361   5.871
    6AU     LIG 3058  39.091   2.555   5.535
    6AU     LIG 3059  39.463   2.785   5.323
    6AU     LIG 3060  39.886   2.965   5.162
    6AU       S 3061  38.195   2.088   7.385
    6AU     LIG 3062  38.687   2.073   7.485
    6AU     LIG 3063  39.173   2.116   7.509
    6AU     LIG 3064  39.567   2.398   7.510
    6AU     LIG 3065  39.798   2.848   7.540
    6AU     LIG 3066  40.185   3.128   7.631
    6AU     LIG 3067  40.607   3.274   7.741
    6AU    AUSL 3068  37.771   1.719   7.318
    6AU    AUSL 3069  37.765   1.447   7.604
    6AU     AUL 3070  38.063   1.439   7.352
    6AU       S 3071  38.176   1.916   7.252
    6AU     LIG 3072  38.590   1.738   7.119
    6AU     LIG 3073  39.055   1.681   7.233
    6AU     LIG 3074  39.524   1.813   7.264
    6AU     LIG 3075  40.007   1.813   7.152
    6AU     LIG 3076  40.444   2.034   7.119
    6AU     LIG 3077  40.749   2.414   7.103
    6AU       S 3078  38.151   0.977   7.619
    6AU     LIG 3079  38.566   0.846   7.786
    6AU     LIG 3080  38.993   0.659   7.745
    6AU     LIG 3081  39.430   0.506   7.709
    6AU     LIG 3082  39.851   0.604   7.899
    6AU     LIG 3083  40.322   0.427   7.938
    6AU     LIG 3084  40.770   0.616   7.994
    6AU    AUSL 3085  37.769   1.776   7.655
    6AU    AUSL 3086  37.516   2.101   7.750
    6AU     AUL 3087  37.799   2.186   7.694
    6AU       S 3088  37.891   2.163   8.168
    6AU     LIG 3089  38.205   2.439   8.405
    6AU     LIG 3090  38.422   2.726   8.717
    6AU     LIG 3091  38.620   3.170   8.721
    6AU     LIG 3092  38.980   3.446   8.898
    6AU     LIG 3093  39.383   3.711   8.968
    6AU     LIG 3094  39.636   4.103   8.849
    6AU       S 3095  38.208   1.875   7.625
    6AU     LIG 3096  38.597   1.651   7.759
    6AU     LIG 3097  39.058   1.682   7.765
    6AU     LIG 3098  39.529   1.784   7.803
    6AU     LIG 3099  40.018   1.751   7.932
    6AU     LIG 3100  40.516   1.675   7.933
    6AU     LIG 3101  40.912   1.971   8.017
    6AU    AUSL 3102  36.466   2.066   7.544
    6AU    AUSL 3103  36.537   1.906   7.944
    6AU     AUL 3104  36.402   2.338   7.800
    6AU       S 3105  36.277   2.076   8.247
    6AU     LIG 3106  36.084   2.043   8.687
    6AU     LIG 3107  35.938   2.291   9.069
    6AU     LIG 3108  35.666   2.415   9.466
    6AU     LIG 3109  35.262   2.493   9.749
    6AU     LIG 3110  34.879   2.713   9.969
    6AU     LIG 3111  34.660   3.109  10.150
    6AU       S 3112  35.957   2.203   7.628
    6AU     LIG 3113  35.670   2.559   7.498
    6AU     LIG 3114  35.481   3.012   7.532
    6AU     LIG 3115  35.162   3.370   7.520
    6AU     LIG 3116  34.769   3.619   7.597
    6AU     LIG 3117  34.337   3.734   7.805
    6AU     LIG 3118  33.943   4.008   7.898
    6AU    AUSL 3119  36.351   1.797   7.361
    6AU    AUSL 3120  36.604   2.141   7.247
    6AU     AUL 3121  36.267   2.105   7.227
    6AU       S 3122  35.818   2.031   7.439
    6AU     LIG 3123  35.674   2.248   7.056
    6AU     LIG 3124  35.282   2.348   6.822
    6AU     LIG 3125  34.853   2.539   6.794
    6AU     LIG 3126  34.419   2.550   6.637
    6AU     LIG 3127  33.954   2.492   6.617
    6AU     LIG 3128  33.618   2.506   6.915
    6AU       S 3129  36.325   2.427   6.839
    6AU     LIG 3130  36.072   2.681   6.542
    6AU     LIG 3131  36.067   2.973   6.177
    6AU     LIG 3132  36.041   3.435   6.071
    6AU     LIG 3133  35.760   3.801   6.129
    6AU     LIG 3134  35.410   4.024   5.921
    6AU     LIG 3135  34.983   4.108   5.746
    6AU    AUSL 3136  36.353   1.784   7.703
    6AU    AUSL 3137  36.320   1.466   7.358
    6AU     AUL 3138  36.068   1.620   7.537
    6AU       S 3139  35.918   1.130   7.344
    6AU     LIG 3140  35.477   1.253   7.647
    6AU     LIG 3141  34.973   1.297   7.727
    6AU     LIG 3142  34.519   1.118   7.772
    6AU     LIG 3143  34.164   0.892   7.531
    6AU     LIG 3144  33.752   0.960   7.279
    6AU     LIG 3145  33.326   0.909   7.024
    6AU       S 3146  35.973   1.983   7.870
    6AU     LIG 3147  35.505   2.048   7.909
    6AU     LIG 3148  35.125   2.091   8.212
    6AU     LIG 3149  34.691   2.282   8.247
    6AU     LIG 3150  34.239   2.281   8.355
    6AU     LIG 3151  33.885   2.565   8.252
    6AU     LIG 3152  33.487   2.792   8.212
    6AU    AUSL 3153  37.659   1.148   7.493
    6AU    AUSL 3154  37.620   1.325   7.874
    6AU     AUL 3155  37.956   1.376   7.819
    6AU       S 3156  37.872   0.771   7.483
    6AU     LIG 3157  38.179   0.485   7.698
    6AU     LIG 3158  38.610   0.345   7.599
    6AU     LIG 3159  39.052   0.187   7.528
    6AU     LIG 3160  39.456  44.957   7.436
    6AU     LIG 3161  39.828  44.643   7.504
    6AU     LIG 3162  40.246  44.599   7.730
    6AU       S 3163  37.808   0.937   8.139
    6AU     LIG 3164  38.053   0.636   8.446
    6AU     LIG 3165  38.182   0.220   8.658
    6AU     LIG 3166  38.434  44.904   8.906
    6AU     LIG 3167  38.717  44.769   9.246
    6AU     LIG 3168  39.115  44.854   9.505
    6AU     LIG 3169  39.491  44.735   9.776
    6AU    AUSL 3170  37.711   1.397   7.279
    6AU    AUSL 3171  37.478   1.063   7.212
    6AU     AUL 3172  37.841   1.184   7.098
    6AU       S 3173  37.993   0.936   7.489
    6AU     LIG 3174  38.447   0.754   7.294
    6AU     LIG 3175  38.899   0.583   7.229
    6AU     LIG 3176  39.377   0.451   7.198
    6AU     LIG 3177  39.854   0.576   7.144
    6AU     LIG 3178  40.353   0.494   7.098
    6AU     LIG 3179  40.791   0.318   7.039
    6AU       S 3180  37.693   0.790   6.817
    6AU     LIG 3181  37.846   0.366   6.686
    6AU     LIG 3182  37.996  44.940   6.542
    6AU     LIG 3183  38.233  44.597   6.327
    6AU     LIG 3184  38.410  44.215   6.116
    6AU     LIG 3185  38.691  43.842   5.989
    6AU     LIG 3186  39.105  43.644   5.848
    6AU    AUSL 3187  36.447   1.194   7.482
    6AU    AUSL 3188  36.503   1.319   7.128
    6AU     AUL 3189  36.209   1.451   7.084
    6AU       S 3190  36.199   0.938   6.961
    6AU     LIG 3191  35.775   0.796   6.806
    6AU     LIG 3192  35.460   0.488   6.621
    6AU     LIG 3193  35.160   0.213   6.369
    6AU     LIG 3194  34.894  44.932   6.093
    6AU     LIG 3195  34.483  44.866   5.856
    6AU     LIG 3196  34.226  44.783   5.469
    6AU       S 3197  36.100   1.014   7.439
    6AU     LIG 3198  35.644   0.766   7.570
    6AU     LIG 3199  35.163   0.850   7.504
    6AU     LIG 3200  34.689   0.746   7.459
    6AU     LIG 3201  34.347   0.402   7.569
    6AU     LIG 3202  34.085   0.074   7.829
    6AU     LIG 3203  33.747  44.721   7.794
    6AU    AUSL 3204  36.376   1.456   7.682
    6AU    AUSL 3205  36.580   1.084   7.772
    6AU     AUL 3206  36.214   1.300   7.855
    6AU       S 3207  36.314   0.760   7.795
    6AU     LIG 3208  36.044   0.438   7.685
    6AU     LIG 3209  35.689   0.221   7.877
    6AU     LIG 3210  35.440  44.953   8.185
    6AU     LIG 3211  35.214  44.665   8.489
    6AU     LIG 3212  35.131  44.253   8.720
    6AU     LIG 3213  34.943  43.853   8.890
    6AU       S 3214  35.936   1.149   7.461
    6AU     LIG 3215  35.471   1.109   7.168
    6AU     LIG 3216  35.010   1.275   7.216
    6AU     LIG 3217  34.536   1.249   7.284
    6AU     LIG 3218  34.109   1.384   7.474
    6AU     LIG 3219  33.747   1.198   7.732
    6AU     LIG 3220  33.458   0.809   7.711
    6AU    AUSL 3221  37.090   2.214   7.938
    6AU    AUSL 3222  36.686   2.152   7.784
    6AU     AUL 3223  36.773   2.431   7.974
    6AU       S 3224  36.448   2.237   8.302
    6AU     LIG 3225  36.122   2.522   8.510
    6AU     LIG 3226  36.061   2.817   8.866
    6AU     LIG 3227  35.978   3.280   8.995
    6AU     LIG 3228  35.797   3.726   9.079
    6AU     LIG 3229  35.442   4.027   9.191
    6AU     LIG 3230  35.063   4.274   9.352
    6AU       S 3231  37.153   2.750   8.054
    6AU     LIG 3232  37.503   2.985   8.270
    6AU     LIG 3233  37.690   3.319   8.537
    6AU     LIG 3234  37.636   3.745   8.724
    6AU     LIG 3235  37.523   3.954   9.142
    6AU     LIG 3236  37.468   4.215   9.545
    6AU     LIG 3237  37.362   4.588   9.820
    6AU    AUSL 3238  36.936   2.324   7.652
    6AU    AUSL 3239  37.209   2.338   7.338
    6AU     AUL 3240  36.754   2.558   7.459
    6AU       S 3241  37.073   2.818   7.765
    6AU     LIG 3242  37.160   3.255   7.999
    6AU     LIG 3243  37.287   3.587   8.334
    6AU     LIG 3244  37.305   4.059   8.440
    6AU     LIG 3245  37.049   4.490   8.415
    6AU     LIG 3246  36.844   4.950   8.429
    6AU     LIG 3247  36.918   5.405   8.601
    6AU       S 3248  37.366   2.756   7.251
    6AU     LIG 3249  37.677   3.104   7.144
    6AU     LIG 3250  37.759   3.518   6.902
    6AU     LIG 3251  38.035   3.919   6.772
    6AU     LIG 3252  38.079   4.390   6.646
    6AU     LIG 3253  37.998   4.867   6.639
    6AU     LIG 3254  37.820   5.312   6.538
    6AU    AUSL 3255  37.273   2.305   7.660
    6AU    AUSL 3256  37.352   2.028   8.041
    6AU     AUL 3257  37.442   2.358   7.970
    6AU       S 3258  37.742   2.192   8.323
    6AU     LIG 3259  37.941   2.167   8.744
    6AU     LIG 3260  38.146   2.421   9.071
    6AU     LIG 3261  38.320   2.439   9.503
    6AU     LIG 3262  38.515   2.691   9.840
    6AU     LIG 3263  38.561   3.121  10.048
    6AU     LIG 3264  38.588   3.589  10.130
    6AU       S 3265  37.321   2.780   7.735
    6AU     LIG 3266  37.619   3.155   7.789
    6AU     LIG 3267  37.723   3.532   8.074
    6AU     LIG 3268  37.945   3.925   8.277
    6AU     LIG 3269  38.072   4.401   8.421
    6AU     LIG 3270  38.043   4.853   8.655
    6AU     LIG 3271  37.916   5.309   8.772
    6AU    AUSL 3272  37.085   1.023   7.976
    6AU    AUSL 3273  37.480   1.045   7.751
    6AU     AUL 3274  37.322   0.781   7.976
    6AU       S 3275  36.934   0.470   8.082
    6AU     LIG 3276  36.666   0.110   8.220
    6AU     LIG 3277  36.497  44.682   8.213
    6AU     LIG 3278  36.632  44.242   8.319
    6AU     LIG 3279  36.883  43.917   8.573
    6AU     LIG 3280  36.938  43.704   9.010
    6AU     LIG 3281  37.024  43.438   9.405
    6AU       S 3282  37.825   0.813   7.973
    6AU     LIG 3283  37.816   0.371   8.078
    6AU     LIG 3284  37.909  44.974   8.296
    6AU     LIG 3285  38.115  44.663   8.581
    6AU     LIG 3286  38.418  44.375   8.817
    6AU     LIG 3287  38.673  43.971   8.906
    6AU     LIG 3288  38.918  43.547   8.914
    6AU    AUSL 3289  36.866   0.912   7.730
    6AU    AUSL 3290  36.797   1.180   8.000
    6AU     AUL 3291  36.799   0.948   8.155
    6AU       S 3292  36.719   0.490   7.877
    6AU     LIG 3293  36.459   0.146   7.742
    6AU     LIG 3294  36.473  44.688   7.695
    6AU     LIG 3295  36.323  44.269   7.898
    6AU     LIG 3296  36.097  43.859   8.074
    6AU     LIG 3297  36.022  43.372   8.084
    6AU     LIG 3298  35.954  42.885   8.140
    6AU       S 3299  36.371   0.811   7.959
    6AU     LIG 3300  36.239   0.384   8.150
    6AU     LIG 3301  35.880   0.184   8.365
    6AU     LIG 3302  35.614  44.946   8.680
    6AU     LIG 3303  35.430  44.613   8.960
    6AU     LIG 3304  35.389  44.382   9.361
    6AU     LIG 3305  35.504  44.262   9.809
    6AU    AUSL 3306  37.185   0.928   7.669
    6AU    AUSL 3307  36.886   0.869   7.398
    6AU     AUL 3308  37.245   0.660   7.592
    6AU       S 3309  36.583   0.522   7.412
    6AU     LIG 3310  36.272   0.187   7.266
    6AU     LIG 3311  36.252  44.713   7.224
    6AU     LIG 3312  36.249  44.245   7.070
    6AU     LIG 3313  36.036  43.789   6.999
    6AU     LIG 3314  35.821  43.363   6.874
    6AU     LIG 3315  35.859  42.883   6.752
    6AU       S 3316  36.855   0.517   7.832
    6AU     LIG 3317  36.939   0.012   7.799
    6AU     LIG 3318  36.909  44.526   7.939
    6AU     LIG 3319  37.042  44.056   8.064
    6AU     LIG 3320  37.226  43.608   8.169
    6AU     LIG 3321  37.425  43.162   8.225
    6AU     LIG 3322  37.572  42.794   8.498
    6AU    AUSL 3323  37.070   2.203   7.052
    6AU    AUSL 3324  37.452   2.145   7.219
    6AU     AUL 3325  37.374   2.343   6.941
    6AU       S 3326  37.128   2.770   6.962
    6AU     LIG 3327  37.410   3.070   6.704
    6AU     LIG 3328  37.600   3.366   6.375
    6AU     LIG 3329  37.642   3.479   5.904
    6AU     LIG 3330  37.531   3.741   5.506
    6AU     LIG 3331  37.434   4.172   5.328
    6AU     LIG 3332  37.399   4.556   5.042
    6AU       S 3333  37.866   2.112   6.900
    6AU     LIG 3334  38.253   2.388   6.844
    6AU     LIG 3335  38.508   2.580   6.483
    6AU     LIG 3336  38.701   2.856   6.154
    6AU     LIG 3337  38.998   3.234   6.061
    6AU     LIG 3338  39.310   3.618   6.060
    6AU     LIG 3339  39.661   3.963   6.014
    6AU    AUSL 3340  36.891   2.277   7.328
    6AU    AUSL 3341  36.782   2.055   6.971
    6AU     AUL 3342  36.766   2.427   7.065
    6AU       S 3343  37.160   2.739   7.251
    6AU     LIG 3344  37.184   3.242   7.134
    6AU     LIG 3345  37.214   3.635   6.826
    6AU     LIG 3346  36.978   4.085   6.701
    6AU     LIG 3347  36.705   4.525   6.629
    6AU     LIG 3348  36.670   5.003   6.492
    6AU     LIG 3349  36.570   5.448   6.296
    6AU       S 3350  36.559   2.256   6.627
    6AU     LIG 3351  36.478   2.548   6.253
    6AU     LIG 3352  36.343   2.688   5.813
    6AU     LIG 3353  36.384   2.850   5.354
    6AU     LIG 3354  36.270   3.190   5.036
    6AU     LIG 3355  35.935   3.422   4.796
    6AU     LIG 3356  35.503   3.594   4.712
    6AU    AUSL 3357  36.998   1.016   7.121
    6AU    AUSL 3358  36.646   1.045   7.252
    6AU     AUL 3359  36.871   0.839   6.946
    6AU       S 3360  36.350   0.785   7.087
    6AU     LIG 3361  35.960   0.581   7.217
    6AU     LIG 3362  35.706   0.259   7.023
    6AU     LIG 3363  35.428  44.974   6.746
    6AU     LIG 3364  35.179  44.682   6.452
    6AU     LIG 3365  34.985  44.325   6.188
    6AU     LIG 3366  34.652  43.978   6.160
    6AU       S 3367  36.748   0.537   7.314
    6AU     LIG 3368  36.621   0.303   6.921
    6AU     LIG 3369  36.508  44.870   6.810
    6AU     LIG 3370  36.576  44.423   6.638
    6AU     LIG 3371  36.775  44.122   6.296
    6AU     LIG 3372  36.862  43.941   5.832
    6AU     LIG 3373  36.874  43.617   5.464
    6AU    AUSL 3374  37.218   0.905   7.344
    6AU    AUSL 3375  37.257   1.133   6.955
    6AU     AUL 3376  37.255   0.750   7.067
    6AU       S 3377  36.899   0.443   7.322
    6AU     LIG 3378  36.734  44.982   7.317
    6AU     LIG 3379  36.733  44.527   7.142
    6AU     LIG 3380  36.946  44.161   6.889
    6AU     LIG 3381  37.254  43.826   6.713
    6AU     LIG 3382  37.437  43.391   6.707
    6AU     LIG 3383  37.617  42.960   6.657
    6AU       S 3384  37.454   0.907   6.633
    6AU     LIG 3385  37.427   0.527   6.411
    6AU     LIG 3386  37.654   0.183   6.228
    6AU     LIG 3387  37.930  44.881   6.015
    6AU     LIG 3388  38.051  44.567   5.684
    6AU     LIG 3389  38.145  44.426   5.233
    6AU     LIG 3390  38.495  44.375   4.914
    7AU     AUC 3391  32.063  26.030   7.502
    7AU     AUC 3392  32.307  26.024   7.338
    7AU     AUC 3393  32.320  26.026   7.646
    7AU     AUC 3394  31.807  26.034   7.356
    7AU     AUC 3395  31.819  26.040   7.665
    7AU     AUC 3396  31.915  26.283   7.503
    7AU     AUC 3397  32.222  26.277   7.493
    7AU     AUC 3398  31.901  25.781   7.512
    7AU     AUC 3399  32.214  25.777   7.499
    7AU     AUC 3400  32.070  25.879   7.755
    7AU     AUC 3401  32.077  26.188   7.751
    7AU     AUC 3402  32.051  25.873   7.251
    7AU     AUC 3403  32.057  26.183   7.249
    7AU     AUC 3404  32.544  26.018   7.178
    7AU     AUC 3405  32.561  26.015   7.482
    7AU     AUC 3406  32.569  26.019   7.785
    7AU     AUC 3407  31.560  26.035   7.213
    7AU     AUC 3408  31.564  26.049   7.514
    7AU     AUC 3409  31.581  26.053   7.821
    7AU     AUC 3410  31.773  26.530   7.504
    7AU     AUC 3411  32.077  26.528   7.495
    7AU     AUC 3412  32.377  26.517   7.486
    7AU     AUC 3413  31.748  25.544   7.523
    7AU     AUC 3414  32.048  25.533   7.520
    7AU     AUC 3415  32.356  25.531   7.495
    7AU     AUC 3416  32.074  25.731   7.997
    7AU     AUC 3417  32.079  26.030   8.000
    7AU     AUC 3418  32.091  26.338   7.992
    7AU     AUC 3419  32.040  25.721   7.013
    7AU     AUC 3420  32.047  26.021   7.003
    7AU     AUC 3421  32.052  26.329   7.005
    7AU     AUC 3422  32.323  25.870   7.897
    7AU     AUC 3423  32.332  26.176   7.898
    7AU     AUC 3424  32.292  25.869   7.091
    7AU     AUC 3425  32.304  26.177   7.092
    7AU     AUC 3426  31.819  25.890   7.912
    7AU     AUC 3427  31.834  26.195   7.913
    7AU     AUC 3428  31.801  25.874   7.108
    7AU     AUC 3429  31.802  26.182   7.104
    7AU     AUC 3430  32.467  26.268   7.334
    7AU     AUC 3431  32.480  26.267   7.641
    7AU     AUC 3432  31.659  26.286   7.354
    7AU     AUC 3433  31.675  26.296   7.665
    7AU     AUC 3434  32.449  25.765   7.330
    7AU     AUC 3435  32.466  25.769   7.637
    7AU     AUC 3436  31.653  25.785   7.363
    7AU     AUC 3437  31.654  25.798   7.665
    7AU     AUC 3438  31.934  26.441   7.753
    7AU     AUC 3439  32.239  26.431   7.744
    7AU     AUC 3440  31.903  25.638   7.761
    7AU     AUC 3441  32.218  25.627   7.753
    7AU     AUC 3442  31.911  26.433   7.247
    7AU     AUC 3443  32.219  26.428   7.241
    7AU     AUC 3444  31.893  25.624   7.270
    7AU     AUC 3445  32.197  25.618   7.254
    7AU    AUSL 3446  32.502  25.983   8.071
    7AU    AUSL 3447  32.373  25.601   8.047
    7AU     AUL 3448  32.788  25.802   8.179
    7AU       S 3449  32.636  25.337   8.323
    7AU     LIG 3450  32.568  24.954   8.531
    7AU     LIG 3451  32.705  24.574   8.711
    7AU     LIG 3452  32.964  24.278   8.944
    7AU     LIG 3453  33.180  23.990   9.258
    7AU     LIG 3454  33.155  23.810   9.711
    7AU     LIG 3455  33.222  23.517  10.085
    7AU       S 3456  32.558  25.852   8.652
    7AU     LIG 3457  32.775  25.816   9.060
    7AU     LIG 3458  32.969  25.554   9.407
    7AU     LIG 3459  33.260  25.390   9.747
    7AU     LIG 3460  33.628  25.449  10.045
    7AU     LIG 3461  33.933  25.574  10.386
    7AU     LIG 3462  34.210  25.793  10.708
    7AU    AUSL 3463  32.221  25.851   8.210
    7AU    AUSL 3464  31.943  26.186   8.194
    7AU     AUL 3465  32.041  26.026   8.498
    7AU       S 3466  32.399  25.690   8.591
    7AU     LIG 3467  32.653  25.366   8.836
    7AU     LIG 3468  32.697  25.143   9.243
    7AU     LIG 3469  32.793  25.144   9.709
    7AU     LIG 3470  32.779  25.061  10.177
    7AU     LIG 3471  32.806  25.086  10.645
    7AU     LIG 3472  32.820  24.991  11.105
    7AU       S 3473  31.565  26.220   8.653
    7AU     LIG 3474  31.422  26.189   9.109
    7AU     LIG 3475  31.408  25.905   9.498
    7AU     LIG 3476  31.310  25.821   9.946
    7AU     LIG 3477  31.275  26.062  10.356
    7AU     LIG 3478  31.252  26.356  10.734
    7AU     LIG 3479  31.069  26.497  11.144
    7AU    AUSL 3480  32.276  26.192   8.207
    7AU    AUSL 3481  32.633  26.282   7.944
    7AU     AUL 3482  32.679  26.123   8.260
    7AU       S 3483  32.459  26.215   8.696
    7AU     LIG 3484  32.531  26.615   8.965
    7AU     LIG 3485  32.630  26.837   9.384
    7AU     LIG 3486  32.632  26.923   9.867
    7AU     LIG 3487  32.693  26.918  10.343
    7AU     LIG 3488  32.884  26.822  10.757
    7AU     LIG 3489  33.276  26.821  11.036
    7AU       S 3490  33.022  26.464   8.155
    7AU     LIG 3491  33.387  26.418   8.414
    7AU     LIG 3492  33.560  26.638   8.790
    7AU     LIG 3493  33.862  26.760   9.143
    7AU     LIG 3494  34.145  26.854   9.523
    7AU     LIG 3495  34.536  26.905   9.812
    7AU     LIG 3496  34.879  27.170  10.032
    7AU    AUSL 3497  32.486  26.069   6.891
    7AU    AUSL 3498  32.340  26.425   6.938
    7AU     AUL 3499  32.410  26.358   6.588
    7AU       S 3500  32.590  25.913   6.369
    7AU     LIG 3501  32.801  25.584   6.115
    7AU     LIG 3502  33.009  25.447   5.713
    7AU     LIG 3503  33.161  25.477   5.263
    7AU     LIG 3504  33.491  25.376   4.926
    7AU     LIG 3505  33.884  25.457   4.659
    7AU     LIG 3506  34.204  25.486   4.298
    7AU       S 3507  32.823  26.627   6.688
    7AU     LIG 3508  33.119  26.741   6.347
    7AU     LIG 3509  33.355  26.931   5.977
    7AU     LIG 3510  33.460  27.139   5.562
    7AU     LIG 3511  33.512  27.415   5.171
    7AU     LIG 3512  33.638  27.690   4.810
    7AU     LIG 3513  33.894  28.026   4.626
    7AU    AUSL 3514  32.246  25.847   6.797
    7AU    AUSL 3515  32.531  25.754   7.019
    7AU     AUL 3516  32.743  25.895   6.839
    7AU       S 3517  32.688  25.438   6.627
    7AU     LIG 3518  32.993  25.199   6.393
    7AU     LIG 3519  33.137  24.795   6.242
    7AU     LIG 3520  33.389  24.422   6.133
    7AU     LIG 3521  33.746  24.281   5.854
    7AU     LIG 3522  34.152  24.288   5.600
    7AU     LIG 3523  34.480  24.495   5.335
    7AU       S 3524  32.317  25.702   6.414
    7AU     LIG 3525  32.343  25.363   6.144
    7AU     LIG 3526  32.516  25.298   5.727
    7AU     LIG 3527  32.681  25.281   5.275
    7AU     LIG 3528  32.733  25.258   4.792
    7AU     LIG 3529  32.785  25.199   4.315
    7AU     LIG 3530  33.056  25.180   3.924
    7AU    AUSL 3531  32.180  26.169   6.804
    7AU    AUSL 3532  31.902  25.857   6.785
    7AU     AUL 3533  32.066  26.200   6.537
    7AU       S 3534  31.843  25.600   6.421
    7AU     LIG 3535  31.850  25.382   6.013
    7AU     LIG 3536  31.651  25.253   5.606
    7AU     LIG 3537  31.439  25.153   5.189
    7AU     LIG 3538  31.229  24.982   4.786
    7AU     LIG 3539  31.038  25.036   4.338
    7AU     LIG 3540  30.885  25.010   3.877
    7AU       S 3541  32.373  25.839   6.414
    7AU     LIG 3542  32.397  25.810   5.905
    7AU     LIG 3543  32.650  25.752   5.496
    7AU     LIG 3544  32.772  25.745   5.024
    7AU     LIG 3545  32.826  25.991   4.603
    7AU     LIG 3546  32.944  26.345   4.292
    7AU     LIG 3547  33.123  26.558   3.904
    7AU    AUSL 3548  31.644  26.072   8.124
    7AU    AUSL 3549  31.826  26.473   8.066
    7AU     AUL 3550  31.953  26.387   8.386
    7AU       S 3551  31.406  26.112   8.486
    7AU     LIG 3552  31.090  25.953   8.800
    7AU     LIG 3553  31.008  25.748   9.217
    7AU     LIG 3554  30.914  25.613   9.661
    7AU     LIG 3555  30.528  25.597   9.966
    7AU     LIG 3556  30.143  25.732  10.232
    7AU     LIG 3557  29.888  25.614  10.616
    7AU       S 3558  31.520  26.639   8.406
    7AU     LIG 3559  31.460  26.724   8.850
    7AU     LIG 3560  31.353  27.035   9.183
    7AU     LIG 3561  31.115  27.246   9.528
    7AU     LIG 3562  30.835  27.385   9.881
    7AU     LIG 3563  30.634  27.619  10.238
    7AU     LIG 3564  30.366  27.977  10.416
    7AU    AUSL 3565  31.888  25.851   8.210
    7AU    AUSL 3566  31.525  25.800   7.961
    7AU     AUL 3567  31.568  25.679   8.278
    7AU       S 3568  31.230  25.306   8.114
    7AU     LIG 3569  30.827  25.082   8.077
    7AU     LIG 3570  30.441  24.898   8.273
    7AU     LIG 3571  30.139  24.661   8.558
    7AU     LIG 3572  29.909  24.419   8.896
    7AU     LIG 3573  29.578  24.407   9.247
    7AU     LIG 3574  29.255  24.558   9.573
    7AU       S 3575  31.587  25.953   8.688
    7AU     LIG 3576  31.484  25.666   9.032
    7AU     LIG 3577  31.353  25.400   9.403
    7AU     LIG 3578  31.302  25.302   9.858
    7AU     LIG 3579  31.328  25.177  10.318
    7AU     LIG 3580  31.154  25.132  10.765
    7AU     LIG 3581  30.934  25.168  11.200
    7AU    AUSL 3582  31.616  25.991   6.927
    7AU    AUSL 3583  31.767  25.605   6.958
    7AU     AUL 3584  31.473  25.765   6.766
    7AU       S 3585  31.617  25.844   6.305
    7AU     LIG 3586  31.415  25.638   5.920
    7AU     LIG 3587  31.211  25.512   5.496
    7AU     LIG 3588  30.945  25.324   5.139
    7AU     LIG 3589  30.530  25.289   4.882
    7AU     LIG 3590  30.233  25.464   4.548
    7AU     LIG 3591  29.898  25.682   4.272
    7AU       S 3592  31.403  25.255   6.783
    7AU     LIG 3593  31.109  24.880   6.755
    7AU     LIG 3594  30.734  24.665   6.590
    7AU     LIG 3595  30.520  24.386   6.287
    7AU     LIG 3596  30.539  24.211   5.846
    7AU     LIG 3597  30.567  23.968   5.440
    7AU     LIG 3598  30.463  23.599   5.150
    7AU    AUSL 3599  31.851  26.189   6.810
    7AU    AUSL 3600  31.521  26.290   7.053
    7AU     AUL 3601  31.476  26.165   6.685
    7AU       S 3602  31.269  26.615   6.711
    7AU     LIG 3603  31.020  26.752   6.348
    7AU     LIG 3604  30.925  27.097   6.034
    7AU     LIG 3605  30.690  27.151   5.612
    7AU     LIG 3606  30.295  27.068   5.327
    7AU     LIG 3607  30.001  27.228   4.970
    7AU     LIG 3608  29.572  27.371   4.802
    7AU       S 3609  31.828  25.817   6.381
    7AU     LIG 3610  31.888  25.873   5.892
    7AU     LIG 3611  31.679  25.753   5.483
    7AU     LIG 3612  31.484  25.697   5.052
    7AU     LIG 3613  31.477  25.936   4.621
    7AU     LIG 3614  31.307  26.220   4.265
    7AU     LIG 3615  30.986  26.455   3.989
    7AU    AUSL 3616  32.668  26.435   7.452
    7AU    AUSL 3617  32.628  26.307   7.089
    7AU     AUL 3618  32.741  26.746   7.320
    7AU       S 3619  32.965  26.371   6.817
    7AU     LIG 3620  33.354  26.343   6.574
    7AU     LIG 3621  33.620  26.584   6.263
    7AU     LIG 3622  33.824  26.721   5.842
    7AU     LIG 3623  34.209  26.772   5.550
    7AU     LIG 3624  34.532  26.941   5.246
    7AU     LIG 3625  34.737  27.326   5.079
    7AU       S 3626  33.206  26.514   7.387
    7AU     LIG 3627  33.692  26.595   7.488
    7AU     LIG 3628  34.184  26.704   7.499
    7AU     LIG 3629  34.664  26.807   7.476
    7AU     LIG 3630  35.084  27.046   7.543
    7AU     LIG 3631  35.265  27.404   7.811
    7AU     LIG 3632  35.643  27.688   7.868
    7AU    AUSL 3633  32.782  26.135   7.324
    7AU    AUSL 3634  32.771  25.865   7.610
    7AU     AUL 3635  33.073  25.849   7.371
    7AU       S 3636  33.181  26.327   7.266
    7AU     LIG 3637  33.583  26.347   7.054
    7AU     LIG 3638  34.031  26.297   7.213
    7AU     LIG 3639  34.502  26.360   7.251
    7AU     LIG 3640  34.977  26.446   7.246
    7AU     LIG 3641  35.448  26.561   7.260
    7AU     LIG 3642  35.819  26.796   7.063
    7AU       S 3643  33.142  25.367   7.623
    7AU     LIG 3644  33.553  25.163   7.759
    7AU     LIG 3645  33.992  24.955   7.785
    7AU     LIG 3646  34.464  24.810   7.773
    7AU     LIG 3647  34.944  24.859   7.916
    7AU     LIG 3648  35.376  24.881   8.176
    7AU     LIG 3649  35.851  25.035   8.133
    7AU    AUSL 3650  32.778  26.194   7.661
    7AU    AUSL 3651  32.522  26.527   7.746
    7AU     AUL 3652  32.813  26.601   7.704
    7AU       S 3653  32.862  26.618   8.193
    7AU     LIG 3654  33.178  26.887   8.449
    7AU     LIG 3655  33.475  27.153   8.708
    7AU     LIG 3656  33.669  27.600   8.746
    7AU     LIG 3657  33.986  27.960   8.737
    7AU     LIG 3658  34.208  28.339   8.913
    7AU     LIG 3659  34.468  28.680   9.120
    7AU       S 3660  33.218  26.293   7.633
    7AU     LIG 3661  33.611  26.269   7.873
    7AU     LIG 3662  34.073  26.272   7.750
    7AU     LIG 3663  34.545  26.390   7.763
    7AU     LIG 3664  35.021  26.527   7.748
    7AU     LIG 3665  35.506  26.594   7.773
    7AU     LIG 3666  35.884  26.710   8.041
    7AU    AUSL 3667  31.478  26.495   7.530
    7AU    AUSL 3668  31.539  26.331   7.935
    7AU     AUL 3669  31.410  26.765   7.778
    7AU       S 3670  31.266  26.475   8.216
    7AU     LIG 3671  31.070  26.466   8.646
    7AU     LIG 3672  30.946  26.780   8.991
    7AU     LIG 3673  30.726  26.926   9.409
    7AU     LIG 3674  30.438  27.005   9.804
    7AU     LIG 3675  30.018  27.137  10.012
    7AU     LIG 3676  29.710  27.408  10.238
    7AU       S 3677  30.964  26.655   7.589
    7AU     LIG 3678  30.770  27.073   7.438
    7AU     LIG 3679  30.496  27.465   7.516
    7AU     LIG 3680  30.166  27.806   7.554
    7AU     LIG 3681  29.812  28.095   7.377
    7AU     LIG 3682  29.340  28.091   7.466
    7AU     LIG 3683  28.991  28.263   7.743
    7AU    AUSL 3684  31.361  26.225   7.346
    7AU    AUSL 3685  31.620  26.566   7.235
    7AU     AUL 3686  31.290  26.538   7.214
    7AU       S 3687  30.829  26.460   7.388
    7AU     LIG 3688  30.644  26.740   7.048
    7AU     LIG 3689  30.247  26.892   6.814
    7AU     LIG 3690  29.790  27.037   6.711
    7AU     LIG 3691  29.340  27.211   6.622
    7AU     LIG 3692  28.867  27.205   6.661
    7AU     LIG 3693  28.467  27.105   6.909
    7AU       S 3694  31.338  26.862   6.826
    7AU     LIG 3695  31.127  27.200   6.564
    7AU     LIG 3696  31.221  27.498   6.221
    7AU     LIG 3697  31.082  27.939   6.167
    7AU     LIG 3698  30.833  28.330   6.125
    7AU     LIG 3699  30.415  28.536   6.080
    7AU     LIG 3700  30.090  28.824   5.918
    7AU    AUSL 3701  31.361  26.215   7.688
    7AU    AUSL 3702  31.328  25.895   7.352
    7AU     AUL 3703  31.075  26.056   7.529
    7AU       S 3704  30.923  25.544   7.347
    7AU     LIG 3705  30.487  25.583   7.676
    7AU     LIG 3706  30.004  25.545   7.735
    7AU     LIG 3707  29.553  25.718   7.627
    7AU     LIG 3708  29.174  25.619   7.324
    7AU     LIG 3709  28.750  25.421   7.240
    7AU     LIG 3710  28.319  25.252   7.085
    7AU       S 3711  30.969  26.438   7.832
    7AU     LIG 3712  30.777  26.646   8.220
    7AU     LIG 3713  30.327  26.756   8.371
    7AU     LIG 3714  29.835  26.814   8.357
    7AU     LIG 3715  29.342  26.853   8.349
    7AU     LIG 3716  28.875  26.886   8.428
    7AU     LIG 3717  28.603  27.279   8.391
    7AU    AUSL 3718  32.662  25.566   7.498
    7AU    AUSL 3719  32.621  25.740   7.876
    7AU     AUL 3720  32.963  25.776   7.823
    7AU       S 3721  32.861  25.175   7.480
    7AU     LIG 3722  33.130  24.859   7.701
    7AU     LIG 3723  33.558  24.666   7.619
    7AU     LIG 3724  34.005  24.514   7.522
    7AU     LIG 3725  34.388  24.234   7.545
    7AU     LIG 3726  34.697  23.937   7.753
    7AU     LIG 3727  35.049  23.619   7.869
    7AU       S 3728  32.802  25.320   8.131
    7AU     LIG 3729  33.062  25.107   8.486
    7AU     LIG 3730  33.206  24.703   8.704
    7AU     LIG 3731  33.470  24.349   8.909
    7AU     LIG 3732  33.818  24.227   9.222
    7AU     LIG 3733  34.213  24.177   9.511
    7AU     LIG 3734  34.558  24.040   9.832
    7AU    AUSL 3735  32.719  25.814   7.285
    7AU    AUSL 3736  32.484  25.481   7.217
    7AU     AUL 3737  32.854  25.608   7.107
    7AU       S 3738  32.974  25.339   7.495
    7AU     LIG 3739  33.357  25.069   7.286
    7AU     LIG 3740  33.830  24.967   7.295
    7AU     LIG 3741  34.308  24.874   7.282
    7AU     LIG 3742  34.778  24.941   7.148
    7AU     LIG 3743  35.210  24.995   6.909
    7AU     LIG 3744  35.702  25.043   6.830
    7AU       S 3745  32.709  25.203   6.841
    7AU     LIG 3746  32.894  24.791   6.710
    7AU     LIG 3747  32.994  24.375   6.504
    7AU     LIG 3748  33.193  23.984   6.351
    7AU     LIG 3749  33.485  23.615   6.361
    7AU     LIG 3750  33.724  23.299   6.131
    7AU     LIG 3751  34.079  23.013   6.214
    7AU    AUSL 3752  31.450  25.621   7.479
    7AU    AUSL 3753  31.510  25.746   7.124
    7AU     AUL 3754  31.212  25.873   7.082
    7AU       S 3755  31.201  25.364   6.956
    7AU     LIG 3756  30.720  25.287   6.954
    7AU     LIG 3757  30.407  25.045   6.696
    7AU     LIG 3758  30.211  24.787   6.369
    7AU     LIG 3759  29.852  24.625   6.136
    7AU     LIG 3760  29.525  24.630   5.791
    7AU     LIG 3761  29.385  24.552   5.340
    7AU       S 3762  31.108  25.446   7.432
    7AU     LIG 3763  30.710  25.147   7.582
    7AU     LIG 3764  30.302  25.097   7.793
    7AU     LIG 3765  29.857  25.061   7.626
    7AU     LIG 3766  29.481  24.860   7.409
    7AU     LIG 3767  29.067  24.594   7.477
    7AU     LIG 3768  28.858  24.222   7.701
    7AU    AUSL 3769  31.379  25.886   7.677
    7AU    AUSL 3770  31.580  25.515   7.771
    7AU     AUL 3771  31.218  25.729   7.854
    7AU       S 3772  31.305  25.177   7.785
    7AU     LIG 3773  31.048  24.797   7.706
    7AU     LIG 3774  30.607  24.669   7.823
    7AU     LIG 3775  30.343  24.409   8.143
    7AU     LIG 3776  30.101  24.135   8.483
    7AU     LIG 3777  29.806  23.747   8.630
    7AU     LIG 3778  29.511  23.401   8.829
    7AU       S 3779  30.937  25.589   7.459
    7AU     LIG 3780  30.494  25.730   7.199
    7AU     LIG 3781  30.011  25.727   7.270
    7AU     LIG 3782  29.662  25.383   7.283
    7AU     LIG 3783  29.293  25.271   7.654
    7AU     LIG 3784  28.814  25.348   7.817
    7AU     LIG 3785  28.358  25.189   7.960
    7AU    AUSL 3786  32.092  26.640   7.934
    7AU    AUSL 3787  31.692  26.576   7.777
    7AU     AUL 3788  31.775  26.847   7.976
    7AU       S 3789  31.415  26.677   8.276
    7AU     LIG 3790  31.123  26.957   8.516
    7AU     LIG 3791  31.083  27.306   8.828
    7AU     LIG 3792  31.050  27.781   8.911
    7AU     LIG 3793  30.803  28.163   9.037
    7AU     LIG 3794  30.561  28.553   9.129
    7AU     LIG 3795  30.222  28.728   9.410
    7AU       S 3796  32.151  27.165   8.052
    7AU     LIG 3797  32.374  27.328   8.398
    7AU     LIG 3798  32.494  27.743   8.525
    7AU     LIG 3799  32.406  28.116   8.799
    7AU     LIG 3800  32.325  28.330   9.218
    7AU     LIG 3801  32.235  28.662   9.545
    7AU     LIG 3802  32.054  29.074   9.696
    7AU    AUSL 3803  31.939  26.750   7.646
    7AU    AUSL 3804  32.224  26.760   7.332
    7AU     AUL 3805  31.763  26.981   7.444
    7AU       S 3806  32.060  27.244   7.772
    7AU     LIG 3807  32.109  27.667   8.079
    7AU     LIG 3808  32.177  28.105   8.318
    7AU     LIG 3809  32.047  28.560   8.507
    7AU     LIG 3810  31.897  29.053   8.527
    7AU     LIG 3811  31.735  29.521   8.552
    7AU     LIG 3812  31.705  29.996   8.686
    7AU       S 3813  32.383  27.176   7.253
    7AU     LIG 3814  32.641  27.554   7.087
    7AU     LIG 3815  32.836  27.908   6.810
    7AU     LIG 3816  33.173  28.257   6.696
    7AU     LIG 3817  33.323  28.711   6.574
    7AU     LIG 3818  33.362  29.161   6.428
    7AU     LIG 3819  33.128  29.571   6.431
    7AU    AUSL 3820  32.276  26.728   7.655
    7AU    AUSL 3821  32.354  26.461   8.035
    7AU     AUL 3822  32.456  26.793   7.943
    7AU       S 3823  32.669  26.602   8.348
    7AU     LIG 3824  32.957  26.511   8.704
    7AU     LIG 3825  33.128  26.832   8.992
    7AU     LIG 3826  33.462  27.069   9.229
    7AU     LIG 3827  33.697  27.194   9.624
    7AU     LIG 3828  33.669  27.513   9.985
    7AU     LIG 3829  33.612  27.944  10.185
    7AU       S 3830  32.311  27.221   7.738
    7AU     LIG 3831  32.597  27.552   7.989
    7AU     LIG 3832  32.850  27.944   8.187
    7AU     LIG 3833  33.219  28.295   8.257
    7AU     LIG 3834  33.397  28.771   8.334
    7AU     LIG 3835  33.376  29.261   8.313
    7AU     LIG 3836  33.225  29.726   8.406
    7AU    AUSL 3837  32.080  25.448   7.977
    7AU    AUSL 3838  32.478  25.461   7.753
    7AU     AUL 3839  32.307  25.200   7.976
    7AU       S 3840  31.911  24.901   8.087
    7AU     LIG 3841  31.717  24.475   8.177
    7AU     LIG 3842  31.561  24.029   8.213
    7AU     LIG 3843  31.519  23.593   8.396
    7AU     LIG 3844  31.672  23.308   8.737
    7AU     LIG 3845  31.748  23.166   9.188
    7AU     LIG 3846  31.803  22.881   9.562
    7AU       S 3847  32.809  25.199   7.973
    7AU     LIG 3848  32.880  24.760   8.161
    7AU     LIG 3849  33.028  24.350   8.377
    7AU     LIG 3850  33.204  23.966   8.609
    7AU     LIG 3851  33.313  23.492   8.664
    7AU     LIG 3852  33.697  23.262   8.787
    7AU     LIG 3853  34.056  23.158   9.090
    7AU    AUSL 3854  31.863  25.339   7.730
    7AU    AUSL 3855  31.797  25.612   7.999
    7AU     AUL 3856  31.792  25.384   8.159
    7AU       S 3857  31.714  24.910   7.878
    7AU     LIG 3858  31.492  24.548   7.733
    7AU     LIG 3859  31.353  24.112   7.740
    7AU     LIG 3860  31.355  23.654   7.900
    7AU     LIG 3861  31.219  23.230   8.106
    7AU     LIG 3862  31.086  22.753   8.100
    7AU     LIG 3863  31.242  22.277   8.128
    7AU       S 3864  31.374  25.240   7.947
    7AU     LIG 3865  31.283  24.803   8.152
    7AU     LIG 3866  30.869  24.588   8.272
    7AU     LIG 3867  30.575  24.395   8.604
    7AU     LIG 3868  30.352  24.141   8.946
    7AU     LIG 3869  30.312  23.841   9.322
    7AU     LIG 3870  30.238  23.681   9.764
    7AU    AUSL 3871  32.182  25.353   7.670
    7AU    AUSL 3872  31.888  25.294   7.398
    7AU     AUL 3873  32.238  25.081   7.599
    7AU       S 3874  31.579  24.941   7.409
    7AU     LIG 3875  31.283  24.566   7.278
    7AU     LIG 3876  31.267  24.100   7.227
    7AU     LIG 3877  31.287  23.647   7.044
    7AU     LIG 3878  31.234  23.222   6.807
    7AU     LIG 3879  30.988  22.785   6.771
    7AU     LIG 3880  30.830  22.378   6.543
    7AU       S 3881  31.832  24.969   7.832
    7AU     LIG 3882  31.997  24.518   7.736
    7AU     LIG 3883  31.861  24.071   7.789
    7AU     LIG 3884  31.874  23.634   8.019
    7AU     LIG 3885  32.065  23.203   8.189
    7AU     LIG 3886  32.368  22.795   8.212
    7AU     LIG 3887  32.538  22.329   8.268
    7AU    AUSL 3888  32.087  26.623   7.046
    7AU    AUSL 3889  32.467  26.563   7.218
    7AU     AUL 3890  32.392  26.762   6.938
    7AU       S 3891  32.145  27.188   6.965
    7AU     LIG 3892  32.331  27.510   6.685
    7AU     LIG 3893  32.472  27.869   6.416
    7AU     LIG 3894  32.374  28.141   6.042
    7AU     LIG 3895  32.345  28.341   5.604
    7AU     LIG 3896  32.417  28.748   5.374
    7AU     LIG 3897  32.292  29.100   5.077
    7AU       S 3898  32.887  26.532   6.909
    7AU     LIG 3899  33.302  26.771   6.845
    7AU     LIG 3900  33.512  27.049   6.500
    7AU     LIG 3901  33.642  27.486   6.318
    7AU     LIG 3902  33.908  27.879   6.214
    7AU     LIG 3903  34.136  28.193   5.940
    7AU     LIG 3904  34.203  28.659   5.969
    7AU    AUSL 3905  31.906  26.700   7.321
    7AU    AUSL 3906  31.799  26.477   6.960
    7AU     AUL 3907  31.782  26.846   7.051
    7AU       S 3908  32.179  27.151   7.253
    7AU     LIG 3909  32.145  27.641   7.179
    7AU     LIG 3910  32.296  27.991   6.891
    7AU     LIG 3911  32.242  28.337   6.558
    7AU     LIG 3912  32.089  28.778   6.422
    7AU     LIG 3913  31.963  29.248   6.427
    7AU     LIG 3914  31.557  29.461   6.543
    7AU       S 3915  31.569  26.693   6.609
    7AU     LIG 3916  31.449  26.999   6.215
    7AU     LIG 3917  31.356  27.243   5.782
    7AU     LIG 3918  31.451  27.416   5.329
    7AU     LIG 3919  31.261  27.639   4.937
    7AU     LIG 3920  31.010  27.968   4.700
    7AU     LIG 3921  30.606  28.191   4.582
    7AU    AUSL 3922  32.005  25.438   7.122
    7AU    AUSL 3923  31.650  25.471   7.250
    7AU     AUL 3924  31.878  25.261   6.947
    7AU       S 3925  31.360  25.215   7.079
    7AU     LIG 3926  31.019  24.985   7.236
    7AU     LIG 3927  30.622  24.795   7.091
    7AU     LIG 3928  30.283  24.552   6.823
    7AU     LIG 3929  30.055  24.253   6.492
    7AU     LIG 3930  29.871  23.792   6.362
    7AU     LIG 3931  29.827  23.299   6.251
    7AU       S 3932  31.749  24.963   7.316
    7AU     LIG 3933  31.592  24.740   6.925
    7AU     LIG 3934  31.523  24.291   6.824
    7AU     LIG 3935  31.558  23.847   6.648
    7AU     LIG 3936  31.592  23.403   6.456
    7AU     LIG 3937  31.563  23.103   6.072
    7AU     LIG 3938  31.498  22.823   5.678
    7AU    AUSL 3939  32.222  25.324   7.346
    7AU    AUSL 3940  32.266  25.551   6.957
    7AU     AUL 3941  32.257  25.171   7.068
    7AU       S 3942  31.898  24.863   7.321
    7AU     LIG 3943  31.755  24.392   7.299
    7AU     LIG 3944  31.742  23.927   7.147
    7AU     LIG 3945  31.779  23.484   6.944
    7AU     LIG 3946  32.044  23.119   6.765
    7AU     LIG 3947  32.404  22.783   6.707
    7AU     LIG 3948  32.643  22.480   6.410
    7AU       S 3949  32.476  25.314   6.639
    7AU     LIG 3950  32.547  24.952   6.367
    7AU     LIG 3951  32.681  24.577   6.142
    7AU     LIG 3952  32.935  24.234   5.958
    7AU     LIG 3953  33.031  23.951   5.580
    7AU     LIG 3954  33.152  23.658   5.215
    7AU     LIG 3955  33.203  23.316   4.887
    8AU     AUC 3956  11.580   7.625   7.500
    8AU     AUC 3957  11.826   7.622   7.339
    8AU     AUC 3958  11.835   7.622   7.648
    8AU     AUC 3959  11.327   7.629   7.350
    8AU     AUC 3960  11.333   7.634   7.659
    8AU     AUC 3961  11.431   7.878   7.501
    8AU     AUC 3962  11.738   7.874   7.495
    8AU     AUC 3963  11.419   7.375   7.506
    8AU     AUC 3964  11.732   7.373   7.497
    8AU     AUC 3965  11.584   7.472   7.752
    8AU     AUC 3966  11.589   7.782   7.751
    8AU     AUC 3967  11.572   7.470   7.248
    8AU     AUC 3968  11.577   7.780   7.248
    8AU     AUC 3969  12.064   7.619   7.182
    8AU     AUC 3970  12.078   7.613   7.487
    8AU     AUC 3971  12.082   7.616   7.790
    8AU     AUC 3972  11.082   7.630   7.204
    8AU     AUC 3973  11.082   7.641   7.505
    8AU     AUC 3974  11.091   7.645   7.810
    8AU     AUC 3975  11.287   8.124   7.501
    8AU     AUC 3976  11.591   8.124   7.497
    8AU     AUC 3977  11.891   8.114   7.492
    8AU     AUC 3978  11.267   7.137   7.515
    8AU     AUC 3979  11.568   7.128   7.514
    8AU     AUC 3980  11.876   7.128   7.493
    8AU     AUC 3981  11.586   7.323   7.993
    8AU     AUC 3982  11.589   7.622   7.998
    8AU     AUC 3983  11.598   7.930   7.993
    8AU     AUC 3984  11.564   7.318   7.009
    8AU     AUC 3985  11.569   7.619   7.001
    8AU     AUC 3986  11.574   7.928   7.004
    8AU     AUC 3987  11.835   7.465   7.897
    8AU     AUC 3988  11.842   7.770   7.900
    8AU     AUC 3989  11.814   7.469   7.090
    8AU     AUC 3990  11.824   7.776   7.093
    8AU     AUC 3991  11.331   7.482   7.906
    8AU     AUC 3992  11.342   7.787   7.907
    8AU     AUC 3993  11.322   7.469   7.104
    8AU     AUC 3994  11.325   7.778   7.099
    8AU     AUC 3995  11.984   7.867   7.339
    8AU     AUC 3996  11.993   7.864   7.647
    8AU     AUC 3997  11.180   7.882   7.347
    8AU     AUC 3998  11.188   7.888   7.658
    8AU     AUC 3999  11.969   7.365   7.331
    8AU     AUC 4000  11.982   7.366   7.638
    8AU     AUC 4001  11.173   7.380   7.357
    8AU     AUC 4002  11.171   7.390   7.657
    8AU     AUC 4003  11.444   8.034   7.752
    8AU     AUC 4004  11.749   8.026   7.747
    8AU     AUC 4005  11.419   7.230   7.754
    8AU     AUC 4006  11.734   7.222   7.750
    8AU     AUC 4007  11.429   8.030   7.246
    8AU     AUC 4008  11.737   8.026   7.244
    8AU     AUC 4009  11.415   7.219   7.265
    8AU     AUC 4010  11.720   7.216   7.251
    8AU    AUSL 4011  12.012   7.577   8.075
    8AU    AUSL 4012  11.885   7.194   8.047
    8AU     AUL 4013  12.289   7.382   8.193
    8AU       S 4014  12.157   6.909   8.326
    8AU     LIG 4015  12.144   6.511   8.546
    8AU     LIG 4016  12.163   6.052   8.589
    8AU     LIG 4017  12.383   5.800   8.893
    8AU     LIG 4018  12.660   5.562   9.180
    8AU     LIG 4019  12.753   5.395   9.607
    8AU     LIG 4020  12.683   5.245  10.058
    8AU       S 4021  12.051   7.463   8.658
    8AU     LIG 4022  12.334   7.389   9.013
    8AU     LIG 4023  12.539   7.125   9.349
    8AU     LIG 4024  12.862   7.096   9.703
    8AU     LIG 4025  13.241   7.267   9.955
    8AU     LIG 4026  13.566   7.377  10.289
    8AU     LIG 4027  13.749   7.523  10.710
    8AU    AUSL 4028  11.727   7.443   8.208
    8AU    AUSL 4029  11.452   7.776   8.194
    8AU     AUL 4030  11.541   7.613   8.497
    8AU       S 4031  11.908   7.283   8.587
    8AU     LIG 4032  12.111   6.948   8.860
    8AU     LIG 4033  12.156   6.766   9.307
    8AU     LIG 4034  12.139   6.632   9.780
    8AU     LIG 4035  12.196   6.609  10.261
    8AU     LIG 4036  12.337   6.556  10.717
    8AU     LIG 4037  12.623   6.378  11.062
    8AU       S 4038  11.064   7.802   8.646
    8AU     LIG 4039  10.927   7.785   9.105
    8AU     LIG 4040  10.935   7.512   9.503
    8AU     LIG 4041  10.944   7.409   9.962
    8AU     LIG 4042  11.015   7.639  10.383
    8AU     LIG 4043  10.850   7.917  10.742
    8AU     LIG 4044  10.517   8.139  11.013
    8AU    AUSL 4045  11.785   7.784   8.208
    8AU    AUSL 4046  12.141   7.879   7.951
    8AU     AUL 4047  12.201   7.712   8.257
    8AU       S 4048  11.958   7.818   8.681
    8AU     LIG 4049  12.068   8.187   8.984
    8AU     LIG 4050  12.205   8.378   9.413
    8AU     LIG 4051  12.219   8.484   9.898
    8AU     LIG 4052  12.241   8.544  10.382
    8AU     LIG 4053  12.504   8.445  10.767
    8AU     LIG 4054  12.474   8.474  11.241
    8AU       S 4055  12.525   8.072   8.162
    8AU     LIG 4056  12.896   7.996   8.375
    8AU     LIG 4057  13.048   8.141   8.772
    8AU     LIG 4058  13.335   8.377   9.049
    8AU     LIG 4059  13.613   8.582   9.364
    8AU     LIG 4060  13.985   8.632   9.664
    8AU     LIG 4061  14.320   8.900   9.876
    8AU    AUSL 4062  12.007   7.673   6.894
    8AU    AUSL 4063  11.862   8.025   6.942
    8AU     AUL 4064  11.928   7.966   6.592
    8AU       S 4065  12.118   7.526   6.371
    8AU     LIG 4066  12.297   7.175   6.124
    8AU     LIG 4067  12.462   7.082   5.696
    8AU     LIG 4068  12.622   7.181   5.262
    8AU     LIG 4069  13.055   7.182   5.032
    8AU     LIG 4070  13.494   7.188   4.817
    8AU     LIG 4071  13.711   7.227   4.397
    8AU       S 4072  12.348   8.222   6.692
    8AU     LIG 4073  12.640   8.343   6.347
    8AU     LIG 4074  12.870   8.551   5.985
    8AU     LIG 4075  13.026   8.683   5.546
    8AU     LIG 4076  13.090   9.022   5.205
    8AU     LIG 4077  13.214   9.352   4.886
    8AU     LIG 4078  13.354   9.605   4.512
    8AU    AUSL 4079  11.770   7.450   6.796
    8AU    AUSL 4080  12.055   7.356   7.020
    8AU     AUL 4081  12.265   7.497   6.841
    8AU       S 4082  12.222   7.038   6.629
    8AU     LIG 4083  12.481   6.754   6.361
    8AU     LIG 4084  12.566   6.315   6.190
    8AU     LIG 4085  12.794   5.937   5.995
    8AU     LIG 4086  13.158   5.852   5.677
    8AU     LIG 4087  13.593   5.882   5.452
    8AU     LIG 4088  13.878   5.931   5.060
    8AU       S 4089  11.855   7.312   6.422
    8AU     LIG 4090  11.821   6.988   6.139
    8AU     LIG 4091  11.971   6.938   5.707
    8AU     LIG 4092  12.154   6.923   5.256
    8AU     LIG 4093  12.118   6.882   4.766
    8AU     LIG 4094  12.180   6.625   4.344
    8AU     LIG 4095  12.462   6.514   3.962
    8AU    AUSL 4096  11.701   7.771   6.804
    8AU    AUSL 4097  11.426   7.453   6.782
    8AU     AUL 4098  11.585   7.805   6.540
    8AU       S 4099  11.381   7.209   6.409
    8AU     LIG 4100  11.327   6.988   6.005
    8AU     LIG 4101  11.083   6.874   5.620
    8AU     LIG 4102  10.851   6.794   5.206
    8AU     LIG 4103  10.756   6.491   4.833
    8AU     LIG 4104  10.670   6.365   4.374
    8AU     LIG 4105  10.525   6.554   3.954
    8AU       S 4106  11.895   7.452   6.408
    8AU     LIG 4107  11.919   7.435   5.909
    8AU     LIG 4108  12.110   7.393   5.475
    8AU     LIG 4109  12.176   7.379   5.002
    8AU     LIG 4110  12.210   7.603   4.586
    8AU     LIG 4111  12.377   7.891   4.243
    8AU     LIG 4112  12.684   8.110   3.952
    8AU    AUSL 4113  11.151   7.671   8.113
    8AU    AUSL 4114  11.323   8.056   8.062
    8AU     AUL 4115  11.447   7.987   8.384
    8AU       S 4116  10.900   7.712   8.458
    8AU     LIG 4117  10.590   7.554   8.797
    8AU     LIG 4118  10.512   7.380   9.239
    8AU     LIG 4119  10.402   7.204   9.680
    8AU     LIG 4120  10.088   7.129  10.060
    8AU     LIG 4121   9.851   7.209  10.484
    8AU     LIG 4122   9.508   7.238  10.822
    8AU       S 4123  10.992   8.206   8.379
    8AU     LIG 4124  10.963   8.288   8.836
    8AU     LIG 4125  10.873   8.575   9.202
    8AU     LIG 4126  10.633   8.914   9.431
    8AU     LIG 4127  10.556   9.195   9.821
    8AU     LIG 4128  10.377   9.357  10.250
    8AU     LIG 4129  10.099   9.570  10.588
    8AU    AUSL 4130  11.392   7.443   8.202
    8AU    AUSL 4131  11.047   7.391   7.954
    8AU     AUL 4132  11.070   7.271   8.264
    8AU       S 4133  10.756   6.864   8.094
    8AU     LIG 4134  10.350   6.638   8.184
    8AU     LIG 4135   9.990   6.391   8.392
    8AU     LIG 4136   9.658   6.121   8.605
    8AU     LIG 4137   9.459   5.779   8.854
    8AU     LIG 4138   9.268   5.710   9.267
    8AU     LIG 4139   8.894   5.843   9.540
    8AU       S 4140  11.079   7.543   8.675
    8AU     LIG 4141  10.976   7.263   9.037
    8AU     LIG 4142  10.841   7.011   9.424
    8AU     LIG 4143  10.781   6.899   9.880
    8AU     LIG 4144  10.645   6.676  10.281
    8AU     LIG 4145  10.543   6.559  10.737
    8AU     LIG 4146  10.518   6.685  11.207
    8AU    AUSL 4147  11.136   7.582   6.921
    8AU    AUSL 4148  11.289   7.202   6.957
    8AU     AUL 4149  11.004   7.329   6.759
    8AU       S 4150  11.147   7.466   6.306
    8AU     LIG 4151  10.922   7.294   5.923
    8AU     LIG 4152  10.694   7.197   5.514
    8AU     LIG 4153  10.350   6.994   5.246
    8AU     LIG 4154   9.925   7.009   5.005
    8AU     LIG 4155   9.635   7.214   4.677
    8AU     LIG 4156   9.468   7.337   4.249
    8AU       S 4157  10.910   6.823   6.817
    8AU     LIG 4158  10.652   6.436   6.778
    8AU     LIG 4159  10.279   6.277   6.535
    8AU     LIG 4160   9.981   6.081   6.205
    8AU     LIG 4161   9.827   5.905   5.773
    8AU     LIG 4162   9.879   5.754   5.301
    8AU     LIG 4163   9.948   5.388   4.989
    8AU    AUSL 4164  11.368   7.785   6.809
    8AU    AUSL 4165  11.046   7.889   7.038
    8AU     AUL 4166  10.971   7.743   6.695
    8AU       S 4167  10.822   8.214   6.697
    8AU     LIG 4168  10.670   8.292   6.244
    8AU     LIG 4169  10.473   8.508   5.858
    8AU     LIG 4170  10.207   8.595   5.466
    8AU     LIG 4171   9.862   8.775   5.195
    8AU     LIG 4172   9.396   8.852   5.131
    8AU     LIG 4173   8.966   9.051   5.090
    8AU       S 4174  11.355   7.420   6.377
    8AU     LIG 4175  11.414   7.473   5.889
    8AU     LIG 4176  11.203   7.360   5.480
    8AU     LIG 4177  11.048   7.390   5.030
    8AU     LIG 4178  10.953   7.620   4.606
    8AU     LIG 4179  10.742   7.877   4.245
    8AU     LIG 4180  10.583   8.164   3.885
    8AU    AUSL 4181  12.183   8.034   7.461
    8AU    AUSL 4182  12.149   7.908   7.095
    8AU     AUL 4183  12.259   8.344   7.326
    8AU       S 4184  12.491   7.971   6.829
    8AU     LIG 4185  12.874   7.942   6.573
    8AU     LIG 4186  13.117   8.143   6.216
    8AU     LIG 4187  13.364   8.428   5.916
    8AU     LIG 4188  13.648   8.494   5.533
    8AU     LIG 4189  14.058   8.564   5.282
    8AU     LIG 4190  14.451   8.674   5.032
    8AU       S 4191  12.727   8.114   7.412
    8AU     LIG 4192  13.224   8.202   7.493
    8AU     LIG 4193  13.726   8.306   7.508
    8AU     LIG 4194  14.217   8.392   7.513
    8AU     LIG 4195  14.658   8.585   7.590
    8AU     LIG 4196  14.934   9.003   7.623
    8AU     LIG 4197  15.094   9.398   7.886
    8AU    AUSL 4198  12.300   7.736   7.333
    8AU    AUSL 4199  12.287   7.463   7.616
    8AU     AUL 4200  12.592   7.453   7.379
    8AU       S 4201  12.699   7.933   7.282
    8AU     LIG 4202  13.102   7.953   7.063
    8AU     LIG 4203  13.561   7.907   7.214
    8AU     LIG 4204  14.039   7.960   7.262
    8AU     LIG 4205  14.518   8.042   7.266
    8AU     LIG 4206  14.884   8.215   7.041
    8AU     LIG 4207  15.347   8.208   7.019
    8AU       S 4208  12.666   6.970   7.627
    8AU     LIG 4209  13.079   6.758   7.776
    8AU     LIG 4210  13.512   6.526   7.795
    8AU     LIG 4211  13.964   6.332   7.766
    8AU     LIG 4212  14.453   6.376   7.803
    8AU     LIG 4213  14.951   6.370   7.871
    8AU     LIG 4214  15.452   6.389   7.893
    8AU    AUSL 4215  12.291   7.792   7.670
    8AU    AUSL 4216  12.032   8.125   7.754
    8AU     AUL 4217  12.322   8.201   7.712
    8AU       S 4218  12.364   8.217   8.203
    8AU     LIG 4219  12.706   8.477   8.444
    8AU     LIG 4220  13.058   8.658   8.707
    8AU     LIG 4221  13.398   8.895   8.957
    8AU     LIG 4222  13.721   9.258   8.944
    8AU     LIG 4223  14.051   9.622   8.933
    8AU     LIG 4224  14.223  10.051   9.042
    8AU       S 4225  12.729   7.893   7.653
    8AU     LIG 4226  13.138   7.871   7.874
    8AU     LIG 4227  13.604   7.874   7.752
    8AU     LIG 4228  14.086   7.971   7.774
    8AU     LIG 4229  14.577   8.073   7.779
    8AU     LIG 4230  15.008   7.976   7.993
    8AU     LIG 4231  15.408   8.125   8.177
    8AU    AUSL 4232  10.992   8.088   7.531
    8AU    AUSL 4233  11.036   7.920   7.907
    8AU     AUL 4234  10.933   8.376   7.748
    8AU       S 4235  10.734   8.057   8.160
    8AU     LIG 4236  10.558   8.052   8.615
    8AU     LIG 4237  10.463   8.334   8.995
    8AU     LIG 4238  10.247   8.497   9.403
    8AU     LIG 4239   9.869   8.548   9.723
    8AU     LIG 4240   9.482   8.732   9.955
    8AU     LIG 4241   9.049   8.903  10.087
    8AU       S 4242  10.490   8.171   7.683
    8AU     LIG 4243  10.179   8.531   7.576
    8AU     LIG 4244   9.947   8.974   7.510
    8AU     LIG 4245   9.634   9.371   7.525
    8AU     LIG 4246   9.250   9.618   7.702
    8AU     LIG 4247   8.995   9.947   7.938
    8AU     LIG 4248   8.546  10.102   8.017
    8AU    AUSL 4249  10.905   7.831   7.330
    8AU    AUSL 4250  11.133   8.159   7.233
    8AU     AUL 4251  10.777   8.136   7.222
    8AU       S 4252  10.339   8.006   7.513
    8AU     LIG 4253   9.932   8.172   7.270
    8AU     LIG 4254   9.525   8.240   6.972
    8AU     LIG 4255   9.100   8.347   6.760
    8AU     LIG 4256   8.721   8.648   6.672
    8AU     LIG 4257   8.325   8.934   6.635
    8AU     LIG 4258   7.940   9.229   6.742
    8AU       S 4259  10.869   8.439   6.821
    8AU     LIG 4260  10.708   8.731   6.505
    8AU     LIG 4261  10.669   8.933   6.087
    8AU     LIG 4262  10.488   9.277   5.822
    8AU     LIG 4263  10.156   9.623   5.762
    8AU     LIG 4264   9.790   9.942   5.800
    8AU     LIG 4265   9.468  10.294   5.731
    8AU    AUSL 4266  10.863   7.794   7.652
    8AU    AUSL 4267  10.847   7.503   7.350
    8AU     AUL 4268  10.641   7.762   7.219
    8AU       S 4269  10.426   7.252   7.429
    8AU     LIG 4270  10.056   7.176   7.768
    8AU     LIG 4271   9.585   7.257   7.763
    8AU     LIG 4272   9.121   7.309   7.654
    8AU     LIG 4273   8.771   7.348   7.308
    8AU     LIG 4274   8.441   7.021   7.144
    8AU     LIG 4275   7.963   6.950   7.017
    8AU       S 4276  10.489   7.827   7.793
    8AU     LIG 4277  10.182   8.076   8.074
    8AU     LIG 4278   9.720   8.237   8.126
    8AU     LIG 4279   9.312   8.479   8.218
    8AU     LIG 4280   8.858   8.410   8.346
    8AU     LIG 4281   8.457   8.596   8.543
    8AU     LIG 4282   7.990   8.657   8.520
    8AU    AUSL 4283  12.182   7.165   7.500
    8AU    AUSL 4284  12.134   7.336   7.879
    8AU     AUL 4285  12.476   7.371   7.834
    8AU       S 4286  12.387   6.776   7.475
    8AU     LIG 4287  12.653   6.462   7.717
    8AU     LIG 4288  13.082   6.255   7.636
    8AU     LIG 4289  13.530   6.069   7.552
    8AU     LIG 4290  13.975   5.869   7.491
    8AU     LIG 4291  14.383   5.587   7.454
    8AU     LIG 4292  14.739   5.419   7.725
    8AU       S 4293  12.323   6.907   8.115
    8AU     LIG 4294  12.614   6.617   8.353
    8AU     LIG 4295  12.654   6.190   8.564
    8AU     LIG 4296  12.892   5.898   8.853
    8AU     LIG 4297  13.181   5.659   9.135
    8AU     LIG 4298  13.604   5.621   9.341
    8AU     LIG 4299  13.978   5.699   9.626
    8AU    AUSL 4300  12.240   7.415   7.290
    8AU    AUSL 4301  12.008   7.082   7.215
    8AU     AUL 4302  12.377   7.210   7.110
    8AU       S 4303  12.500   6.940   7.497
    8AU     LIG 4304  12.897   6.661   7.305
    8AU     LIG 4305  13.378   6.516   7.296
    8AU     LIG 4306  13.857   6.353   7.268
    8AU     LIG 4307  14.336   6.196   7.323
    8AU     LIG 4308  14.814   6.159   7.194
    8AU     LIG 4309  15.199   6.342   6.971
    8AU       S 4310  12.240   6.802   6.840
    8AU     LIG 4311  12.357   6.360   6.676
    8AU     LIG 4312  12.470   5.921   6.511
    8AU     LIG 4313  12.661   5.528   6.336
    8AU     LIG 4314  12.814   5.091   6.248
    8AU     LIG 4315  13.235   4.873   6.171
    8AU     LIG 4316  13.688   4.774   5.993
    8AU    AUSL 4317  10.963   7.218   7.470
    8AU    AUSL 4318  11.031   7.341   7.124
    8AU     AUL 4319  10.740   7.428   7.054
    8AU       S 4320  10.722   6.928   6.984
    8AU     LIG 4321  10.281   6.801   6.928
    8AU     LIG 4322   9.903   6.585   6.736
    8AU     LIG 4323   9.616   6.357   6.440
    8AU     LIG 4324   9.356   6.174   6.109
    8AU     LIG 4325   9.142   6.112   5.707
    8AU     LIG 4326   9.171   5.897   5.283
    8AU       S 4327  10.582   7.092   7.432
    8AU     LIG 4328  10.184   6.804   7.445
    8AU     LIG 4329   9.717   6.810   7.525
    8AU     LIG 4330   9.300   6.814   7.756
    8AU     LIG 4331   8.926   6.527   7.771
    8AU     LIG 4332   8.466   6.448   7.681
    8AU     LIG 4333   8.069   6.225   7.557
    8AU    AUSL 4334  10.892   7.474   7.676
    8AU    AUSL 4335  11.099   7.105   7.759
    8AU     AUL 4336  10.757   7.301   7.875
    8AU       S 4337  10.830   6.767   7.741
    8AU     LIG 4338  10.524   6.431   7.750
    8AU     LIG 4339  10.145   6.220   7.924
    8AU     LIG 4340   9.904   5.904   8.197
    8AU     LIG 4341   9.507   5.694   8.343
    8AU     LIG 4342   9.381   5.307   8.589
    8AU     LIG 4343   9.286   4.866   8.765
    8AU       S 4344  10.435   7.383   7.505
    8AU     LIG 4345   9.959   7.255   7.280
    8AU     LIG 4346   9.484   7.183   7.257
    8AU     LIG 4347   9.091   6.946   7.309
    8AU     LIG 4348   8.711   6.953   7.613
    8AU     LIG 4349   8.334   6.920   7.872
    8AU     LIG 4350   7.913   7.089   7.786
    8AU    AUSL 4351  11.595   8.230   7.938
    8AU    AUSL 4352  11.203   8.172   7.776
    8AU     AUL 4353  11.286   8.434   7.990
    8AU       S 4354  10.892   8.263   8.243
    8AU     LIG 4355  10.634   8.551   8.524
    8AU     LIG 4356  10.572   8.846   8.886
    8AU     LIG 4357  10.459   9.265   9.078
    8AU     LIG 4358  10.154   9.630   9.138
    8AU     LIG 4359   9.741   9.876   9.184
    8AU     LIG 4360   9.361  10.171   9.252
    8AU       S 4361  11.652   8.760   8.067
    8AU     LIG 4362  11.849   8.960   8.431
    8AU     LIG 4363  11.927   9.396   8.557
    8AU     LIG 4364  11.898   9.825   8.722
    8AU     LIG 4365  11.886  10.044   9.143
    8AU     LIG 4366  11.865  10.375   9.486
    8AU     LIG 4367  11.677  10.603   9.866
    8AU    AUSL 4368  11.449   8.345   7.647
    8AU    AUSL 4369  11.739   8.358   7.338
    8AU     AUL 4370  11.281   8.579   7.444
    8AU       S 4371  11.557   8.842   7.785
    8AU     LIG 4372  11.696   9.256   8.053
    8AU     LIG 4373  11.756   9.692   8.174
    8AU     LIG 4374  11.540  10.019   8.367
    8AU     LIG 4375  11.277  10.394   8.352
    8AU     LIG 4376  11.084  10.814   8.376
    8AU     LIG 4377  10.931  11.103   8.703
    8AU       S 4378  11.881   8.766   7.267
    8AU     LIG 4379  12.116   9.154   7.243
    8AU     LIG 4380  12.168   9.481   6.896
    8AU     LIG 4381  12.145   9.900   6.625
    8AU     LIG 4382  12.333  10.366   6.560
    8AU     LIG 4383  12.566  10.817   6.508
    8AU     LIG 4384  12.742  11.280   6.486
    8AU    AUSL 4385  11.784   8.323   7.662
    8AU    AUSL 4386  11.860   8.055   8.039
    8AU     AUL 4387  11.957   8.389   7.955
    8AU       S 4388  12.171   8.189   8.357
    8AU     LIG 4389  12.487   8.103   8.703
    8AU     LIG 4390  12.677   8.418   8.997
    8AU     LIG 4391  12.981   8.713   9.221
    8AU     LIG 4392  13.175   9.055   9.490
    8AU     LIG 4393  13.143   9.444   9.795
    8AU     LIG 4394  13.248   9.828  10.070
    8AU       S 4395  11.786   8.800   7.738
    8AU     LIG 4396  12.104   9.116   7.788
    8AU     LIG 4397  12.201   9.446   8.114
    8AU     LIG 4398  12.247   9.887   8.314
    8AU     LIG 4399  12.514  10.317   8.324
    8AU     LIG 4400  12.608  10.798   8.344
    8AU     LIG 4401  12.352  11.158   8.493
    8AU    AUSL 4402  11.596   7.039   7.971
    8AU    AUSL 4403  11.995   7.057   7.752
    8AU     AUL 4404  11.819   6.797   7.977
    8AU       S 4405  11.425   6.493   8.077
    8AU     LIG 4406  11.243   6.065   8.167
    8AU     LIG 4407  11.133   5.613   8.219
    8AU     LIG 4408  11.257   5.191   8.369
    8AU     LIG 4409  11.408   4.926   8.733
    8AU     LIG 4410  11.292   4.725   9.153
    8AU     LIG 4411  11.288   4.524   9.593
    8AU       S 4412  12.319   6.794   7.961
    8AU     LIG 4413  12.286   6.340   8.079
    8AU     LIG 4414  12.439   5.913   8.174
    8AU     LIG 4415  12.649   5.633   8.483
    8AU     LIG 4416  12.921   5.372   8.777
    8AU     LIG 4417  13.344   5.191   8.964
    8AU     LIG 4418  13.774   4.992   9.104
    8AU    AUSL 4419  11.382   6.930   7.721
    8AU    AUSL 4420  11.312   7.198   7.992
    8AU     AUL 4421  11.301   6.974   8.149
    8AU       S 4422  11.238   6.497   7.860
    8AU     LIG 4423  11.009   6.142   7.721
    8AU     LIG 4424  11.057   5.672   7.705
    8AU     LIG 4425  10.913   5.225   7.903
    8AU     LIG 4426  10.677   4.760   7.941
    8AU     LIG 4427  10.597   4.246   7.990
    8AU     LIG 4428  10.714   3.774   8.164
    8AU       S 4429  10.892   6.811   7.928
    8AU     LIG 4430  10.821   6.375   8.154
    8AU     LIG 4431  10.445   6.136   8.340
    8AU     LIG 4432  10.136   5.949   8.663
    8AU     LIG 4433   9.920   5.811   9.072
    8AU     LIG 4434   9.773   5.585   9.466
    8AU     LIG 4435   9.811   5.328   9.861
    8AU    AUSL 4436  11.701   6.948   7.664
    8AU    AUSL 4437  11.413   6.888   7.388
    8AU     AUL 4438  11.763   6.679   7.597
    8AU       S 4439  11.128   6.506   7.383
    8AU     LIG 4440  10.839   6.114   7.247
    8AU     LIG 4441  10.857   5.630   7.208
    8AU     LIG 4442  10.608   5.188   7.158
    8AU     LIG 4443  10.328   4.782   7.032
    8AU     LIG 4444  10.346   4.384   6.777
    8AU     LIG 4445  10.662   4.198   6.486
    8AU       S 4446  11.351   6.562   7.818
    8AU     LIG 4447  11.533   6.114   7.741
    8AU     LIG 4448  11.547   5.694   7.920
    8AU     LIG 4449  11.706   5.323   8.156
    8AU     LIG 4450  11.671   4.878   8.261
    8AU     LIG 4451  11.987   4.529   8.223
    8AU     LIG 4452  12.295   4.152   8.277
    8AU    AUSL 4453  11.609   8.223   7.049
    8AU    AUSL 4454  11.984   8.161   7.226
    8AU     AUL 4455  11.922   8.363   6.951
    8AU       S 4456  11.660   8.779   6.950
    8AU     LIG 4457  11.706   9.068   6.581
    8AU     LIG 4458  11.909   9.453   6.442
    8AU     LIG 4459  11.945   9.765   6.095
    8AU     LIG 4460  11.925   9.944   5.651
    8AU     LIG 4461  11.937  10.270   5.313
    8AU     LIG 4462  11.836  10.691   5.142
    8AU       S 4463  12.411   8.133   6.916
    8AU     LIG 4464  12.830   8.374   6.838
    8AU     LIG 4465  13.088   8.588   6.474
    8AU     LIG 4466  13.364   8.890   6.202
    8AU     LIG 4467  13.645   9.308   6.159
    8AU     LIG 4468  13.845   9.759   6.105
    8AU     LIG 4469  14.167  10.080   5.968
    8AU    AUSL 4470  11.421   8.295   7.320
    8AU    AUSL 4471  11.325   8.077   6.960
    8AU     AUL 4472  11.299   8.445   7.060
    8AU       S 4473  11.681   8.774   7.237
    8AU     LIG 4474  11.672   9.267   7.039
    8AU     LIG 4475  11.715   9.705   6.857
    8AU     LIG 4476  11.637  10.097   6.666
    8AU     LIG 4477  11.330  10.451   6.704
    8AU     LIG 4478  11.150  10.767   6.414
    8AU     LIG 4479  11.070  11.214   6.297
    8AU       S 4480  11.120   8.271   6.610
    8AU     LIG 4481  11.108   8.555   6.229
    8AU     LIG 4482  10.967   8.648   5.786
    8AU     LIG 4483  10.650   8.878   5.508
    8AU     LIG 4484  10.513   9.078   5.084
    8AU     LIG 4485  10.289   9.309   4.723
    8AU     LIG 4486  10.037   9.633   4.472
    8AU    AUSL 4487  11.531   7.035   7.114
    8AU    AUSL 4488  11.170   7.064   7.247
    8AU     AUL 4489  11.394   6.864   6.936
    8AU       S 4490  10.872   6.810   7.119
    8AU     LIG 4491  10.568   6.535   7.265
    8AU     LIG 4492  10.203   6.298   7.060
    8AU     LIG 4493   9.877   6.055   6.763
    8AU     LIG 4494   9.600   5.806   6.432
    8AU     LIG 4495   9.424   5.364   6.264
    8AU     LIG 4496   9.228   4.920   6.144
    8AU       S 4497  11.286   6.555   7.300
    8AU     LIG 4498  11.161   6.292   6.908
    8AU     LIG 4499  11.187   5.817   6.822
    8AU     LIG 4500  11.335   5.438   6.552
    8AU     LIG 4501  11.389   5.030   6.295
    8AU     LIG 4502  11.319   4.752   5.894
    8AU     LIG 4503  11.443   4.457   5.528
    8AU    AUSL 4504  11.747   6.921   7.341
    8AU    AUSL 4505  11.793   7.153   6.953
    8AU     AUL 4506  11.785   6.774   7.057
    8AU       S 4507  11.441   6.457   7.305
    8AU     LIG 4508  11.321   5.986   7.305
    8AU     LIG 4509  11.383   5.523   7.225
    8AU     LIG 4510  11.399   5.131   6.960
    8AU     LIG 4511  11.742   4.889   6.734
    8AU     LIG 4512  12.134   4.588   6.727
    8AU     LIG 4513  12.509   4.267   6.751
    8AU       S 4514  12.009   6.914   6.630
    8AU     LIG 4515  12.013   6.557   6.346
    8AU     LIG 4516  12.087   6.119   6.215
    8AU     LIG 4517  12.303   5.749   6.042
    8AU     LIG 4518  12.582   5.479   5.790
    8AU     LIG 4519  12.741   5.383   5.348
    8AU     LIG 4520  12.815   5.176   4.923
    9AU     AUC 4521  23.182   5.193   7.503
    9AU     AUC 4522  23.426   5.189   7.339
    9AU     AUC 4523  23.438   5.191   7.648
    9AU     AUC 4524  22.925   5.195   7.355
    9AU     AUC 4525  22.937   5.202   7.665
    9AU     AUC 4526  23.032   5.444   7.503
    9AU     AUC 4527  23.339   5.442   7.495
    9AU     AUC 4528  23.021   4.943   7.512
    9AU     AUC 4529  23.334   4.941   7.500
    9AU     AUC 4530  23.189   5.042   7.756
    9AU     AUC 4531  23.194   5.352   7.752
    9AU     AUC 4532  23.172   5.036   7.252
    9AU     AUC 4533  23.175   5.346   7.250
    9AU     AUC 4534  23.664   5.185   7.181
    9AU     AUC 4535  23.679   5.181   7.485
    9AU     AUC 4536  23.687   5.186   7.788
    9AU     AUC 4537  22.680   5.194   7.212
    9AU     AUC 4538  22.682   5.207   7.513
    9AU     AUC 4539  22.698   5.213   7.821
    9AU     AUC 4540  22.887   5.690   7.503
    9AU     AUC 4541  23.192   5.691   7.495
    9AU     AUC 4542  23.492   5.682   7.487
    9AU     AUC 4543  22.869   4.705   7.522
    9AU     AUC 4544  23.169   4.696   7.520
    9AU     AUC 4545  23.477   4.696   7.497
    9AU     AUC 4546  23.193   4.895   7.998
    9AU     AUC 4547  23.198   5.194   8.001
    9AU     AUC 4548  23.207   5.502   7.992
    9AU     AUC 4549  23.164   4.884   7.013
    9AU     AUC 4550  23.168   5.184   7.004
    9AU     AUC 4551  23.170   5.492   7.005
    9AU     AUC 4552  23.442   5.035   7.898
    9AU     AUC 4553  23.449   5.342   7.898
    9AU     AUC 4554  23.413   5.034   7.093
    9AU     AUC 4555  23.423   5.341   7.093
    9AU     AUC 4556  22.937   5.053   7.913
    9AU     AUC 4557  22.951   5.357   7.913
    9AU     AUC 4558  22.922   5.035   7.107
    9AU     AUC 4559  22.921   5.343   7.104
    9AU     AUC 4560  23.584   5.434   7.337
    9AU     AUC 4561  23.596   5.434   7.643
    9AU     AUC 4562  22.775   5.445   7.354
    9AU     AUC 4563  22.790   5.456   7.665
    9AU     AUC 4564  23.570   4.931   7.332
    9AU     AUC 4565  23.585   4.934   7.639
    9AU     AUC 4566  22.775   4.945   7.361
    9AU     AUC 4567  22.774   4.958   7.664
    9AU     AUC 4568  23.048   5.604   7.752
    9AU     AUC 4569  23.353   5.597   7.744
    9AU     AUC 4570  23.022   4.801   7.762
    9AU     AUC 4571  23.337   4.791   7.754
    9AU     AUC 4572  23.027   5.594   7.247
    9AU     AUC 4573  23.335   5.592   7.242
    9AU     AUC 4574  23.016   4.786   7.270
    9AU     AUC 4575  23.320   4.782   7.255
    9AU    AUSL 4576  23.624   5.150   8.073
    9AU    AUSL 4577  23.491   4.762   8.049
    9AU     AUL 4578  23.882   4.938   8.201
    9AU       S 4579  23.780   4.456   8.318
    9AU     LIG 4580  23.801   4.076   8.594
    9AU     LIG 4581  23.832   3.621   8.740
    9AU     LIG 4582  23.978   3.354   9.083
    9AU     LIG 4583  24.046   3.146   9.494
    9AU     LIG 4584  24.302   2.940   9.837
    9AU     LIG 4585  24.415   2.740  10.256
    9AU       S 4586  23.665   5.069   8.655
    9AU     LIG 4587  23.944   4.997   9.001
    9AU     LIG 4588  24.122   4.684   9.301
    9AU     LIG 4589  24.409   4.583   9.667
    9AU     LIG 4590  24.793   4.671   9.948
    9AU     LIG 4591  25.082   4.718  10.325
    9AU     LIG 4592  25.230   4.780  10.767
    9AU    AUSL 4593  23.341   5.016   8.210
    9AU    AUSL 4594  23.064   5.348   8.196
    9AU     AUL 4595  23.153   5.180   8.503
    9AU       S 4596  23.529   4.860   8.594
    9AU     LIG 4597  23.759   4.535   8.857
    9AU     LIG 4598  23.789   4.285   9.268
    9AU     LIG 4599  23.820   4.186   9.745
    9AU     LIG 4600  23.785   4.083  10.222
    9AU     LIG 4601  23.916   4.048  10.688
    9AU     LIG 4602  24.070   4.205  11.118
    9AU       S 4603  22.680   5.388   8.654
    9AU     LIG 4604  22.502   5.361   9.101
    9AU     LIG 4605  22.486   5.091   9.506
    9AU     LIG 4606  22.431   5.013   9.973
    9AU     LIG 4607  22.509   5.264  10.389
    9AU     LIG 4608  22.422   5.577  10.753
    9AU     LIG 4609  22.218   5.730  11.167
    9AU    AUSL 4610  23.399   5.357   8.204
    9AU    AUSL 4611  23.745   5.453   7.945
    9AU     AUL 4612  23.837   5.281   8.235
    9AU       S 4613  23.578   5.397   8.657
    9AU     LIG 4614  23.593   5.789   8.938
    9AU     LIG 4615  23.696   5.996   9.363
    9AU     LIG 4616  23.650   6.110   9.836
    9AU     LIG 4617  23.792   6.106  10.294
    9AU     LIG 4618  24.023   6.072  10.710
    9AU     LIG 4619  24.130   6.012  11.170
    9AU       S 4620  24.117   5.682   8.192
    9AU     LIG 4621  24.475   5.600   8.461
    9AU     LIG 4622  24.684   5.704   8.853
    9AU     LIG 4623  25.000   5.966   9.073
    9AU     LIG 4624  25.287   6.226   9.351
    9AU     LIG 4625  25.683   6.190   9.654
    9AU     LIG 4626  26.079   6.340   9.891
    9AU    AUSL 4627  23.607   5.236   6.894
    9AU    AUSL 4628  23.458   5.589   6.940
    9AU     AUL 4629  23.530   5.529   6.593
    9AU       S 4630  23.717   5.088   6.373
    9AU     LIG 4631  23.892   4.729   6.132
    9AU     LIG 4632  24.121   4.607   5.738
    9AU     LIG 4633  24.290   4.694   5.296
    9AU     LIG 4634  24.648   4.656   4.973
    9AU     LIG 4635  25.102   4.712   4.791
    9AU     LIG 4636  25.460   4.916   4.545
    9AU       S 4637  23.946   5.793   6.697
    9AU     LIG 4638  24.251   5.909   6.375
    9AU     LIG 4639  24.482   6.130   6.026
    9AU     LIG 4640  24.632   6.320   5.616
    9AU     LIG 4641  24.738   6.652   5.275
    9AU     LIG 4642  24.823   6.928   4.880
    9AU     LIG 4643  24.797   7.379   4.704
    9AU    AUSL 4644  23.370   5.012   6.799
    9AU    AUSL 4645  23.654   4.919   7.021
    9AU     AUL 4646  23.865   5.057   6.843
    9AU       S 4647  23.820   4.595   6.633
    9AU     LIG 4648  24.085   4.302   6.361
    9AU     LIG 4649  24.235   3.859   6.217
    9AU     LIG 4650  24.471   3.471   6.038
    9AU     LIG 4651  24.781   3.260   5.731
    9AU     LIG 4652  25.165   3.399   5.459
    9AU     LIG 4653  25.541   3.355   5.160
    9AU       S 4654  23.458   4.876   6.430
    9AU     LIG 4655  23.404   4.559   6.145
    9AU     LIG 4656  23.615   4.484   5.747
    9AU     LIG 4657  23.827   4.464   5.317
    9AU     LIG 4658  24.026   4.474   4.879
    9AU     LIG 4659  23.999   4.383   4.410
    9AU     LIG 4660  24.070   4.324   3.938
    9AU    AUSL 4661  23.299   5.333   6.806
    9AU    AUSL 4662  23.026   5.020   6.785
    9AU     AUL 4663  23.187   5.371   6.543
    9AU       S 4664  22.982   4.782   6.413
    9AU     LIG 4665  22.896   4.509   6.065
    9AU     LIG 4666  22.694   4.422   5.659
    9AU     LIG 4667  22.549   4.448   5.212
    9AU     LIG 4668  22.407   4.227   4.819
    9AU     LIG 4669  22.355   4.031   4.375
    9AU     LIG 4670  22.082   4.032   3.988
    9AU       S 4671  23.491   5.015   6.407
    9AU     LIG 4672  23.516   4.999   5.914
    9AU     LIG 4673  23.781   4.937   5.528
    9AU     LIG 4674  23.876   4.931   5.061
    9AU     LIG 4675  23.889   5.001   4.581
    9AU     LIG 4676  24.030   5.304   4.229
    9AU     LIG 4677  24.111   5.672   3.942
    9AU    AUSL 4678  22.764   5.235   8.124
    9AU    AUSL 4679  22.939   5.633   8.067
    9AU     AUL 4680  23.069   5.548   8.387
    9AU       S 4681  22.524   5.278   8.480
    9AU     LIG 4682  22.197   5.110   8.777
    9AU     LIG 4683  22.104   4.931   9.198
    9AU     LIG 4684  22.033   4.841   9.657
    9AU     LIG 4685  21.822   4.691  10.060
    9AU     LIG 4686  21.432   4.613  10.338
    9AU     LIG 4687  21.204   4.737  10.739
    9AU       S 4688  22.639   5.807   8.409
    9AU     LIG 4689  22.573   5.936   8.848
    9AU     LIG 4690  22.443   6.222   9.204
    9AU     LIG 4691  22.193   6.428   9.549
    9AU     LIG 4692  22.075   6.578   9.994
    9AU     LIG 4693  21.928   6.931  10.286
    9AU     LIG 4694  21.710   7.314  10.476
    9AU    AUSL 4695  23.008   5.014   8.210
    9AU    AUSL 4696  22.641   4.963   7.962
    9AU     AUL 4697  22.694   4.844   8.283
    9AU       S 4698  22.352   4.480   8.121
    9AU     LIG 4699  21.970   4.245   8.098
    9AU     LIG 4700  21.584   4.063   8.284
    9AU     LIG 4701  21.296   3.823   8.572
    9AU     LIG 4702  21.076   3.559   8.896
    9AU     LIG 4703  20.742   3.428   9.196
    9AU     LIG 4704  20.404   3.411   9.531
    9AU       S 4705  22.695   5.125   8.689
    9AU     LIG 4706  22.591   4.847   9.040
    9AU     LIG 4707  22.446   4.586   9.404
    9AU     LIG 4708  22.351   4.490   9.846
    9AU     LIG 4709  22.124   4.254  10.164
    9AU     LIG 4710  22.110   4.135  10.609
    9AU     LIG 4711  22.015   4.240  11.063
    9AU    AUSL 4712  22.738   5.150   6.927
    9AU    AUSL 4713  22.893   4.766   6.956
    9AU     AUL 4714  22.606   4.913   6.756
    9AU       S 4715  22.755   5.054   6.305
    9AU     LIG 4716  22.508   4.834   5.951
    9AU     LIG 4717  22.252   4.685   5.565
    9AU     LIG 4718  22.015   4.449   5.205
    9AU     LIG 4719  21.635   4.440   4.900
    9AU     LIG 4720  21.276   4.659   4.634
    9AU     LIG 4721  21.154   4.961   4.272
    9AU       S 4722  22.528   4.405   6.787
    9AU     LIG 4723  22.291   3.995   6.779
    9AU     LIG 4724  21.957   3.788   6.525
    9AU     LIG 4725  21.695   3.523   6.225
    9AU     LIG 4726  21.595   3.350   5.792
    9AU     LIG 4727  21.741   3.127   5.380
    9AU     LIG 4728  21.711   3.009   4.917
    9AU    AUSL 4729  22.967   5.351   6.809
    9AU    AUSL 4730  22.639   5.448   7.054
    9AU     AUL 4731  22.566   5.309   6.706
    9AU       S 4732  22.412   5.779   6.695
    9AU     LIG 4733  22.259   5.828   6.248
    9AU     LIG 4734  22.035   6.076   5.907
    9AU     LIG 4735  21.793   6.140   5.497
    9AU     LIG 4736  21.388   6.226   5.254
    9AU     LIG 4737  20.983   6.405   5.072
    9AU     LIG 4738  20.779   6.778   4.856
    9AU       S 4739  22.959   4.986   6.374
    9AU     LIG 4740  23.002   4.969   5.876
    9AU     LIG 4741  22.733   4.901   5.473
    9AU     LIG 4742  22.613   4.938   5.007
    9AU     LIG 4743  22.658   5.174   4.574
    9AU     LIG 4744  22.600   5.420   4.155
    9AU     LIG 4745  22.497   5.564   3.704
    9AU    AUSL 4746  23.785   5.602   7.456
    9AU    AUSL 4747  23.746   5.474   7.093
    9AU     AUL 4748  23.848   5.917   7.331
    9AU       S 4749  24.084   5.538   6.821
    9AU     LIG 4750  24.493   5.515   6.596
    9AU     LIG 4751  24.737   5.725   6.240
    9AU     LIG 4752  24.964   5.979   5.895
    9AU     LIG 4753  25.315   6.015   5.559
    9AU     LIG 4754  25.654   6.213   5.279
    9AU     LIG 4755  25.922   6.552   5.050
    9AU       S 4756  24.313   5.688   7.360
    9AU     LIG 4757  24.786   5.806   7.428
    9AU     LIG 4758  25.278   5.782   7.514
    9AU     LIG 4759  25.757   5.886   7.518
    9AU     LIG 4760  26.136   6.198   7.509
    9AU     LIG 4761  26.250   6.604   7.722
    9AU     LIG 4762  26.518   6.894   7.987
    9AU    AUSL 4763  23.901   5.302   7.329
    9AU    AUSL 4764  23.890   5.032   7.614
    9AU     AUL 4765  24.192   5.015   7.374
    9AU       S 4766  24.302   5.491   7.266
    9AU     LIG 4767  24.707   5.444   7.081
    9AU     LIG 4768  25.158   5.384   7.208
    9AU     LIG 4769  25.627   5.422   7.302
    9AU     LIG 4770  26.030   5.634   7.159
    9AU     LIG 4771  26.389   5.912   7.124
    9AU     LIG 4772  26.841   5.881   7.055
    9AU       S 4773  24.262   4.543   7.644
    9AU     LIG 4774  24.668   4.341   7.801
    9AU     LIG 4775  25.107   4.131   7.809
    9AU     LIG 4776  25.552   3.934   7.813
    9AU     LIG 4777  26.002   3.728   7.817
    9AU     LIG 4778  26.440   3.831   8.017
    9AU     LIG 4779  26.871   3.981   8.169
    9AU    AUSL 4780  23.896   5.360   7.666
    9AU    AUSL 4781  23.638   5.701   7.747
    9AU     AUL 4782  23.946   5.751   7.715
    9AU       S 4783  23.949   5.807   8.208
    9AU     LIG 4784  24.270   6.078   8.471
    9AU     LIG 4785  24.671   6.196   8.700
    9AU     LIG 4786  24.996   6.462   8.931
    9AU     LIG 4787  25.205   6.847   9.112
    9AU     LIG 4788  25.441   7.262   9.101
    9AU     LIG 4789  25.731   7.619   8.979
    9AU       S 4790  24.356   5.462   7.609
    9AU     LIG 4791  24.819   5.329   7.605
    9AU     LIG 4792  25.295   5.303   7.705
    9AU     LIG 4793  25.735   5.457   7.815
    9AU     LIG 4794  26.089   5.535   8.109
    9AU     LIG 4795  26.495   5.724   8.160
    9AU     LIG 4796  26.849   5.986   8.220
    9AU    AUSL 4797  22.591   5.651   7.530
    9AU    AUSL 4798  22.652   5.490   7.934
    9AU     AUL 4799  22.522   5.924   7.778
    9AU       S 4800  22.375   5.643   8.218
    9AU     LIG 4801  22.206   5.631   8.664
    9AU     LIG 4802  22.062   5.947   8.987
    9AU     LIG 4803  21.802   6.148   9.342
    9AU     LIG 4804  21.429   6.203   9.666
    9AU     LIG 4805  21.128   6.371  10.008
    9AU     LIG 4806  20.845   6.692  10.233
    9AU       S 4807  22.080   5.781   7.602
    9AU     LIG 4808  21.820   6.143   7.483
    9AU     LIG 4809  21.538   6.519   7.427
    9AU     LIG 4810  21.135   6.772   7.444
    9AU     LIG 4811  20.866   7.126   7.578
    9AU     LIG 4812  20.585   7.368   7.842
    9AU     LIG 4813  20.176   7.578   7.886
    9AU    AUSL 4814  22.477   5.381   7.346
    9AU    AUSL 4815  22.734   5.726   7.236
    9AU     AUL 4816  22.400   5.695   7.207
    9AU       S 4817  21.945   5.603   7.392
    9AU     LIG 4818  21.694   5.850   7.069
    9AU     LIG 4819  21.284   6.018   6.871
    9AU     LIG 4820  20.816   6.135   6.786
    9AU     LIG 4821  20.357   6.188   6.666
    9AU     LIG 4822  20.094   6.579   6.681
    9AU     LIG 4823  19.671   6.603   6.560
    9AU       S 4824  22.465   6.010   6.815
    9AU     LIG 4825  22.245   6.268   6.508
    9AU     LIG 4826  22.264   6.535   6.132
    9AU     LIG 4827  22.102   6.964   5.991
    9AU     LIG 4828  21.734   7.281   5.961
    9AU     LIG 4829  21.289   7.492   5.977
    9AU     LIG 4830  20.973   7.849   5.920
    9AU    AUSL 4831  22.476   5.370   7.688
    9AU    AUSL 4832  22.447   5.051   7.347
    9AU     AUL 4833  22.192   5.198   7.531
    9AU       S 4834  22.033   4.724   7.322
    9AU     LIG 4835  21.607   4.809   7.624
    9AU     LIG 4836  21.109   4.826   7.644
    9AU     LIG 4837  20.636   4.947   7.533
    9AU     LIG 4838  20.195   4.959   7.258
    9AU     LIG 4839  19.797   4.670   7.151
    9AU     LIG 4840  19.409   4.406   7.004
    9AU       S 4841  22.083   5.578   7.836
    9AU     LIG 4842  21.816   5.837   8.128
    9AU     LIG 4843  21.345   5.973   8.226
    9AU     LIG 4844  20.863   6.095   8.270
    9AU     LIG 4845  20.389   6.106   8.355
    9AU     LIG 4846  19.971   6.314   8.412
    9AU     LIG 4847  19.515   6.460   8.316
    9AU    AUSL 4848  23.783   4.733   7.503
    9AU    AUSL 4849  23.739   4.904   7.878
    9AU     AUL 4850  24.079   4.958   7.833
    9AU       S 4851  23.993   4.347   7.479
    9AU     LIG 4852  24.257   4.033   7.722
    9AU     LIG 4853  24.688   3.838   7.662
    9AU     LIG 4854  25.136   3.660   7.593
    9AU     LIG 4855  25.593   3.484   7.580
    9AU     LIG 4856  25.900   3.198   7.812
    9AU     LIG 4857  26.234   2.905   7.626
    9AU       S 4858  23.955   4.478   8.078
    9AU     LIG 4859  24.251   4.246   8.358
    9AU     LIG 4860  24.278   3.861   8.624
    9AU     LIG 4861  24.444   3.510   8.893
    9AU     LIG 4862  24.806   3.304   9.139
    9AU     LIG 4863  25.223   3.235   9.381
    9AU     LIG 4864  25.597   3.104   9.656
    9AU    AUSL 4865  23.840   4.981   7.289
    9AU    AUSL 4866  23.607   4.646   7.219
    9AU     AUL 4867  23.974   4.768   7.112
    9AU       S 4868  24.102   4.513   7.510
    9AU     LIG 4869  24.505   4.242   7.321
    9AU     LIG 4870  24.979   4.089   7.311
    9AU     LIG 4871  25.459   3.941   7.306
    9AU     LIG 4872  25.952   3.872   7.288
    9AU     LIG 4873  26.386   4.017   7.056
    9AU     LIG 4874  26.765   3.825   6.781
    9AU       S 4875  23.835   4.359   6.841
    9AU     LIG 4876  23.952   3.908   6.669
    9AU     LIG 4877  24.091   3.458   6.518
    9AU     LIG 4878  24.297   3.069   6.312
    9AU     LIG 4879  24.660   2.865   6.069
    9AU     LIG 4880  25.090   2.642   6.136
    9AU     LIG 4881  25.468   2.340   6.219
    9AU    AUSL 4882  22.573   4.779   7.474
    9AU    AUSL 4883  22.634   4.904   7.120
    9AU     AUL 4884  22.342   5.034   7.070
    9AU       S 4885  22.331   4.520   6.954
    9AU     LIG 4886  21.914   4.354   6.831
    9AU     LIG 4887  21.558   4.085   6.679
    9AU     LIG 4888  21.306   3.812   6.386
    9AU     LIG 4889  21.149   3.637   5.980
    9AU     LIG 4890  20.834   3.749   5.622
    9AU     LIG 4891  20.468   3.751   5.306
    9AU       S 4892  22.229   4.603   7.427
    9AU     LIG 4893  21.825   4.328   7.612
    9AU     LIG 4894  21.340   4.348   7.628
    9AU     LIG 4895  20.847   4.355   7.640
    9AU     LIG 4896  20.407   4.133   7.551
    9AU     LIG 4897  19.952   3.946   7.530
    9AU     LIG 4898  19.697   3.530   7.547
    9AU    AUSL 4899  22.502   5.041   7.672
    9AU    AUSL 4900  22.699   4.679   7.770
    9AU     AUL 4901  22.332   4.892   7.843
    9AU       S 4902  22.429   4.348   7.791
    9AU     LIG 4903  22.194   3.981   7.707
    9AU     LIG 4904  21.792   3.813   7.867
    9AU     LIG 4905  21.550   3.555   8.191
    9AU     LIG 4906  21.317   3.298   8.519
    9AU     LIG 4907  21.132   2.989   8.841
    9AU     LIG 4908  21.016   2.515   8.925
    9AU       S 4909  22.069   4.721   7.443
    9AU     LIG 4910  21.593   4.539   7.203
    9AU     LIG 4911  21.083   4.551   7.206
    9AU     LIG 4912  20.577   4.540   7.249
    9AU     LIG 4913  20.243   4.608   7.606
    9AU     LIG 4914  19.878   4.416   7.805
    9AU     LIG 4915  19.572   4.062   7.880
    9AU    AUSL 4916  23.201   5.805   7.932
    9AU    AUSL 4917  22.805   5.736   7.777
    9AU     AUL 4918  22.887   6.010   7.976
    9AU       S 4919  22.533   5.834   8.278
    9AU     LIG 4920  22.222   6.118   8.504
    9AU     LIG 4921  22.157   6.461   8.839
    9AU     LIG 4922  22.116   6.936   8.978
    9AU     LIG 4923  21.984   7.409   9.074
    9AU     LIG 4924  21.658   7.745   9.230
    9AU     LIG 4925  21.256   7.978   9.373
    9AU       S 4926  23.252   6.344   8.044
    9AU     LIG 4927  23.538   6.580   8.316
    9AU     LIG 4928  23.539   6.978   8.552
    9AU     LIG 4929  23.481   7.404   8.718
    9AU     LIG 4930  23.498   7.612   9.133
    9AU     LIG 4931  23.448   7.911   9.487
    9AU     LIG 4932  23.617   8.295   9.711
    9AU    AUSL 4933  23.048   5.913   7.644
    9AU    AUSL 4934  23.337   5.924   7.330
    9AU     AUL 4935  22.871   6.138   7.438
    9AU       S 4936  23.155   6.417   7.759
    9AU     LIG 4937  23.245   6.853   8.005
    9AU     LIG 4938  23.361   7.282   8.182
    9AU     LIG 4939  23.127   7.626   8.369
    9AU     LIG 4940  22.827   7.993   8.395
    9AU     LIG 4941  22.770   8.458   8.440
    9AU     LIG 4942  22.803   8.918   8.623
    9AU       S 4943  23.477   6.339   7.247
    9AU     LIG 4944  23.662   6.754   7.220
    9AU     LIG 4945  23.856   7.047   6.904
    9AU     LIG 4946  23.831   7.481   6.712
    9AU     LIG 4947  23.981   7.936   6.651
    9AU     LIG 4948  24.222   8.359   6.575
    9AU     LIG 4949  24.190   8.786   6.382
    9AU    AUSL 4950  23.385   5.893   7.654
    9AU    AUSL 4951  23.464   5.629   8.033
    9AU     AUL 4952  23.557   5.968   7.943
    9AU       S 4953  23.754   5.758   8.352
    9AU     LIG 4954  24.041   5.691   8.720
    9AU     LIG 4955  24.276   5.987   8.995
    9AU     LIG 4956  24.600   6.257   9.213
    9AU     LIG 4957  24.875   6.580   9.425
    9AU     LIG 4958  24.887   6.961   9.712
    9AU     LIG 4959  24.824   7.218  10.108
    9AU       S 4960  23.382   6.372   7.721
    9AU     LIG 4961  23.671   6.696   7.772
    9AU     LIG 4962  23.781   7.006   8.095
    9AU     LIG 4963  23.846   7.420   8.343
    9AU     LIG 4964  24.023   7.880   8.433
    9AU     LIG 4965  24.194   8.350   8.517
    9AU     LIG 4966  24.117   8.772   8.735
    9AU    AUSL 4967  23.197   4.613   7.977
    9AU    AUSL 4968  23.596   4.624   7.754
    9AU     AUL 4969  23.418   4.372   7.990
    9AU       S 4970  23.025   4.066   8.090
    9AU     LIG 4971  22.840   3.652   8.196
    9AU     LIG 4972  22.862   3.190   8.213
    9AU     LIG 4973  22.819   2.769   8.430
    9AU     LIG 4974  22.872   2.475   8.809
    9AU     LIG 4975  22.887   2.370   9.298
    9AU     LIG 4976  23.103   2.213   9.709
    9AU       S 4977  23.913   4.337   7.962
    9AU     LIG 4978  23.952   3.900   8.133
    9AU     LIG 4979  24.095   3.491   8.320
    9AU     LIG 4980  24.167   3.152   8.648
    9AU     LIG 4981  24.422   2.788   8.799
    9AU     LIG 4982  24.840   2.564   8.883
    9AU     LIG 4983  25.204   2.562   9.180
    9AU    AUSL 4984  22.982   4.501   7.730
    9AU    AUSL 4985  22.914   4.777   7.999
    9AU     AUL 4986  22.913   4.549   8.159
    9AU       S 4987  22.835   4.078   7.878
    9AU     LIG 4988  22.629   3.715   7.739
    9AU     LIG 4989  22.673   3.263   7.717
    9AU     LIG 4990  22.653   2.822   7.916
    9AU     LIG 4991  22.514   2.431   8.172
    9AU     LIG 4992  22.357   1.983   8.288
    9AU     LIG 4993  22.471   1.517   8.384
    9AU       S 4994  22.492   4.405   7.954
    9AU     LIG 4995  22.415   3.974   8.162
    9AU     LIG 4996  22.021   3.772   8.339
    9AU     LIG 4997  21.738   3.580   8.676
    9AU     LIG 4998  21.519   3.312   9.001
    9AU     LIG 4999  21.414   3.070   9.391
    9AU     LIG 5000  21.469   2.851   9.815
    9AU    AUSL 5001  23.300   4.517   7.672
    9AU    AUSL 5002  23.012   4.456   7.399
    9AU     AUL 5003  23.364   4.248   7.606
    9AU       S 5004  22.707   4.110   7.409
    9AU     LIG 5005  22.434   3.750   7.275
    9AU     LIG 5006  22.498   3.283   7.222
    9AU     LIG 5007  22.628   2.885   6.982
    9AU     LIG 5008  22.734   2.488   6.718
    9AU     LIG 5009  22.697   2.008   6.617
    9AU     LIG 5010  22.432   1.588   6.558
    9AU       S 5011  22.957   4.127   7.834
    9AU     LIG 5012  23.138   3.670   7.773
    9AU     LIG 5013  23.170   3.196   7.785
    9AU     LIG 5014  23.157   2.791   8.029
    9AU     LIG 5015  23.103   2.373   8.239
    9AU     LIG 5016  23.147   1.896   8.301
    9AU     LIG 5017  23.314   1.465   8.434
    9AU    AUSL 5018  23.203   5.786   7.044
    9AU    AUSL 5019  23.582   5.729   7.221
    9AU     AUL 5020  23.511   5.925   6.940
    9AU       S 5021  23.256   6.347   6.944
    9AU     LIG 5022  23.460   6.726   6.745
    9AU     LIG 5023  23.510   7.125   6.511
    9AU     LIG 5024  23.443   7.342   6.114
    9AU     LIG 5025  23.608   7.520   5.708
    9AU     LIG 5026  23.511   7.831   5.383
    9AU     LIG 5027  23.490   8.250   5.180
    9AU       S 5028  24.005   5.704   6.920
    9AU     LIG 5029  24.428   5.928   6.882
    9AU     LIG 5030  24.685   6.149   6.529
    9AU     LIG 5031  24.894   6.425   6.184
    9AU     LIG 5032  25.155   6.835   6.093
    9AU     LIG 5033  25.385   7.265   6.020
    9AU     LIG 5034  25.464   7.728   5.919
    9AU    AUSL 5035  23.021   5.859   7.319
    9AU    AUSL 5036  22.916   5.638   6.963
    9AU     AUL 5037  22.895   6.008   7.056
    9AU       S 5038  23.276   6.323   7.235
    9AU     LIG 5039  23.151   6.793   7.149
    9AU     LIG 5040  23.383   7.178   7.024
    9AU     LIG 5041  23.328   7.583   6.802
    9AU     LIG 5042  23.176   8.047   6.730
    9AU     LIG 5043  23.009   8.490   6.609
    9AU     LIG 5044  22.802   8.943   6.580
    9AU       S 5045  22.710   5.830   6.611
    9AU     LIG 5046  22.669   6.134   6.252
    9AU     LIG 5047  22.519   6.209   5.811
    9AU     LIG 5048  22.312   6.321   5.392
    9AU     LIG 5049  22.299   6.611   5.006
    9AU     LIG 5050  22.083   6.966   4.759
    9AU     LIG 5051  21.927   7.332   4.480
    9AU    AUSL 5052  23.130   4.600   7.123
    9AU    AUSL 5053  22.775   4.631   7.247
    9AU     AUL 5054  23.005   4.423   6.946
    9AU       S 5055  22.483   4.373   7.079
    9AU     LIG 5056  22.122   4.148   7.237
    9AU     LIG 5057  21.842   3.838   7.036
    9AU     LIG 5058  21.559   3.548   6.747
    9AU     LIG 5059  21.296   3.248   6.444
    9AU     LIG 5060  21.075   2.785   6.367
    9AU     LIG 5061  20.763   2.407   6.243
    9AU       S 5062  22.872   4.120   7.308
    9AU     LIG 5063  22.777   3.843   6.921
    9AU     LIG 5064  22.823   3.371   6.830
    9AU     LIG 5065  22.981   2.968   6.611
    9AU     LIG 5066  23.117   2.599   6.345
    9AU     LIG 5067  23.121   2.378   5.919
    9AU     LIG 5068  22.951   2.045   5.614
    9AU    AUSL 5069  23.346   4.488   7.349
    9AU    AUSL 5070  23.391   4.716   6.958
    9AU     AUL 5071  23.384   4.335   7.069
    9AU       S 5072  23.026   4.031   7.327
    9AU     LIG 5073  22.920   3.564   7.330
    9AU     LIG 5074  23.012   3.103   7.254
    9AU     LIG 5075  23.115   2.681   7.014
    9AU     LIG 5076  23.213   2.279   6.758
    9AU     LIG 5077  23.272   1.797   6.643
    9AU     LIG 5078  23.230   1.277   6.662
    9AU       S 5079  23.600   4.475   6.637
    9AU     LIG 5080  23.607   4.130   6.346
    9AU     LIG 5081  23.741   3.708   6.215
    9AU     LIG 5082  23.969   3.348   6.030
    9AU     LIG 5083  24.242   3.062   5.788
    9AU     LIG 5084  24.493   2.933   5.417
    9AU     LIG 5085  24.649   2.745   5.014
   10AU     AUC 5086  17.765  20.283   7.500
   10AU     AUC 5087  18.011  20.279   7.339
   10AU     AUC 5088  18.019  20.279   7.648
   10AU     AUC 5089  17.511  20.286   7.348
   10AU     AUC 5090  17.517  20.292   7.658
   10AU     AUC 5091  17.615  20.535   7.500
   10AU     AUC 5092  17.923  20.531   7.496
   10AU     AUC 5093  17.604  20.033   7.505
   10AU     AUC 5094  17.917  20.031   7.498
   10AU     AUC 5095  17.767  20.131   7.751
   10AU     AUC 5096  17.774  20.440   7.750
   10AU     AUC 5097  17.758  20.128   7.248
   10AU     AUC 5098  17.762  20.438   7.248
   10AU     AUC 5099  18.249  20.276   7.181
   10AU     AUC 5100  18.262  20.271   7.487
   10AU     AUC 5101  18.266  20.273   7.790
   10AU     AUC 5102  17.267  20.286   7.201
   10AU     AUC 5103  17.265  20.299   7.501
   10AU     AUC 5104  17.276  20.303   7.809
   10AU     AUC 5105  17.472  20.782   7.500
   10AU     AUC 5106  17.777  20.782   7.499
   10AU     AUC 5107  18.077  20.772   7.492
   10AU     AUC 5108  17.452  19.795   7.512
   10AU     AUC 5109  17.753  19.786   7.516
   10AU     AUC 5110  18.061  19.787   7.498
   10AU     AUC 5111  17.766  19.983   7.994
   10AU     AUC 5112  17.773  20.282   7.998
   10AU     AUC 5113  17.784  20.588   7.992
   10AU     AUC 5114  17.752  19.976   7.008
   10AU     AUC 5115  17.754  20.277   7.000
   10AU     AUC 5116  17.759  20.587   7.005
   10AU     AUC 5117  18.018  20.123   7.899
   10AU     AUC 5118  18.028  20.429   7.899
   10AU     AUC 5119  18.000  20.124   7.092
   10AU     AUC 5120  18.007  20.433   7.092
   10AU     AUC 5121  17.513  20.141   7.905
   10AU     AUC 5122  17.528  20.445   7.908
   10AU     AUC 5123  17.510  20.127   7.100
   10AU     AUC 5124  17.510  20.437   7.099
   10AU     AUC 5125  18.169  20.524   7.337
   10AU     AUC 5126  18.178  20.521   7.644
   10AU     AUC 5127  17.363  20.538   7.345
   10AU     AUC 5128  17.371  20.546   7.656
   10AU     AUC 5129  18.154  20.022   7.333
   10AU     AUC 5130  18.166  20.025   7.642
   10AU     AUC 5131  17.359  20.037   7.350
   10AU     AUC 5132  17.354  20.048   7.653
   10AU     AUC 5133  17.628  20.692   7.752
   10AU     AUC 5134  17.936  20.683   7.747
   10AU     AUC 5135  17.599  19.889   7.753
   10AU     AUC 5136  17.917  19.881   7.752
   10AU     AUC 5137  17.617  20.689   7.248
   10AU     AUC 5138  17.922  20.684   7.245
   10AU     AUC 5139  17.602  19.877   7.262
   10AU     AUC 5140  17.907  19.872   7.254
   10AU    AUSL 5141  18.194  20.246   8.078
   10AU    AUSL 5142  18.054  19.851   8.041
   10AU     AUL 5143  18.206  19.958   8.352
   10AU       S 5144  18.437  19.520   8.248
   10AU     LIG 5145  18.419  19.096   8.446
   10AU     LIG 5146  18.441  18.713   8.696
   10AU     LIG 5147  18.677  18.463   8.991
   10AU     LIG 5148  18.992  18.168   9.170
   10AU     LIG 5149  19.058  17.962   9.597
   10AU     LIG 5150  19.012  17.755  10.026
   10AU       S 5151  18.330  20.410   8.638
   10AU     LIG 5152  18.616  20.249   8.992
   10AU     LIG 5153  18.712  19.910   9.333
   10AU     LIG 5154  18.866  19.672   9.724
   10AU     LIG 5155  19.201  19.669  10.075
   10AU     LIG 5156  19.528  19.878  10.359
   10AU     LIG 5157  19.799  20.066  10.703
   10AU    AUSL 5158  17.912  20.112   8.211
   10AU    AUSL 5159  17.639  20.430   8.198
   10AU     AUL 5160  17.737  20.216   8.504
   10AU       S 5161  18.157  20.238   8.761
   10AU     LIG 5162  18.249  19.879   9.083
   10AU     LIG 5163  18.341  19.564   9.450
   10AU     LIG 5164  18.460  19.345   9.860
   10AU     LIG 5165  18.420  19.124  10.288
   10AU     LIG 5166  18.520  19.086  10.754
   10AU     LIG 5167  18.733  19.241  11.148
   10AU       S 5168  17.265  20.460   8.658
   10AU     LIG 5169  17.113  20.394   9.116
   10AU     LIG 5170  17.053  20.129   9.507
   10AU     LIG 5171  16.905  20.098   9.960
   10AU     LIG 5172  16.864  20.343  10.377
   10AU     LIG 5173  16.799  20.706  10.704
   10AU     LIG 5174  16.747  20.875  11.152
   10AU    AUSL 5175  17.973  20.448   8.207
   10AU    AUSL 5176  18.333  20.528   7.947
   10AU     AUL 5177  18.427  20.239   8.191
   10AU       S 5178  18.091  20.610   8.604
   10AU     LIG 5179  18.240  20.935   8.912
   10AU     LIG 5180  18.423  21.127   9.310
   10AU     LIG 5181  18.485  21.189   9.784
   10AU     LIG 5182  18.599  21.184  10.249
   10AU     LIG 5183  18.593  21.152  10.720
   10AU     LIG 5184  18.608  21.121  11.190
   10AU       S 5185  18.723  20.647   8.139
   10AU     LIG 5186  19.054  20.571   8.415
   10AU     LIG 5187  19.215  20.775   8.788
   10AU     LIG 5188  19.531  21.030   9.026
   10AU     LIG 5189  19.744  21.308   9.344
   10AU     LIG 5190  20.133  21.441   9.593
   10AU     LIG 5191  20.581  21.522   9.766
   10AU    AUSL 5192  18.189  20.324   6.893
   10AU    AUSL 5193  18.043  20.684   6.934
   10AU     AUL 5194  18.140  20.594   6.590
   10AU       S 5195  18.284  20.131   6.374
   10AU     LIG 5196  18.612  19.922   6.151
   10AU     LIG 5197  18.827  19.725   5.793
   10AU     LIG 5198  18.892  19.691   5.327
   10AU     LIG 5199  19.034  19.755   4.874
   10AU     LIG 5200  19.403  19.809   4.562
   10AU     LIG 5201  19.716  20.023   4.259
   10AU       S 5202  18.530  20.890   6.691
   10AU     LIG 5203  18.824  20.989   6.362
   10AU     LIG 5204  19.038  21.226   6.025
   10AU     LIG 5205  19.229  21.462   5.670
   10AU     LIG 5206  19.341  21.623   5.244
   10AU     LIG 5207  19.496  21.820   4.839
   10AU     LIG 5208  19.720  22.171   4.590
   10AU    AUSL 5209  17.957  20.097   6.798
   10AU    AUSL 5210  18.244  20.012   7.023
   10AU     AUL 5211  18.451  20.163   6.839
   10AU       S 5212  18.420  19.694   6.645
   10AU     LIG 5213  18.708  19.477   6.382
   10AU     LIG 5214  18.861  19.081   6.234
   10AU     LIG 5215  19.050  18.711   6.022
   10AU     LIG 5216  19.381  18.581   5.698
   10AU     LIG 5217  19.810  18.586   5.486
   10AU     LIG 5218  20.174  18.526   5.178
   10AU       S 5219  17.970  19.903   6.405
   10AU     LIG 5220  18.222  19.587   6.155
   10AU     LIG 5221  18.361  19.521   5.723
   10AU     LIG 5222  18.411  19.523   5.246
   10AU     LIG 5223  18.578  19.505   4.799
   10AU     LIG 5224  18.603  19.355   4.349
   10AU     LIG 5225  18.630  19.367   3.888
   10AU    AUSL 5226  17.879  20.421   6.810
   10AU    AUSL 5227  17.613  20.125   6.776
   10AU     AUL 5228  17.824  20.418   6.540
   10AU       S 5229  17.502  20.089   6.324
   10AU     LIG 5230  17.433  19.796   5.973
   10AU     LIG 5231  17.190  19.542   5.660
   10AU     LIG 5232  17.012  19.511   5.232
   10AU     LIG 5233  16.771  19.412   4.841
   10AU     LIG 5234  16.617  19.375   4.396
   10AU     LIG 5235  16.540  19.280   3.928
   10AU       S 5236  18.101  20.033   6.431
   10AU     LIG 5237  18.165  20.020   5.904
   10AU     LIG 5238  18.457  19.981   5.508
   10AU     LIG 5239  18.569  19.976   5.034
   10AU     LIG 5240  18.627  20.006   4.560
   10AU     LIG 5241  18.599  20.213   4.116
   10AU     LIG 5242  18.762  20.404   3.694
   10AU    AUSL 5243  17.338  20.323   8.113
   10AU    AUSL 5244  17.512  20.715   8.059
   10AU     AUL 5245  17.626  20.640   8.374
   10AU       S 5246  17.097  20.370   8.472
   10AU     LIG 5247  16.762  20.236   8.773
   10AU     LIG 5248  16.689  19.983   9.157
   10AU     LIG 5249  16.606  19.867   9.601
   10AU     LIG 5250  16.338  19.911   9.991
   10AU     LIG 5251  15.970  19.958  10.310
   10AU     LIG 5252  15.840  19.952  10.780
   10AU       S 5253  17.194  20.882   8.402
   10AU     LIG 5254  17.313  21.221   8.711
   10AU     LIG 5255  17.117  21.409   9.098
   10AU     LIG 5256  16.960  21.515   9.534
   10AU     LIG 5257  16.850  21.797   9.907
   10AU     LIG 5258  16.585  22.088  10.183
   10AU     LIG 5259  16.241  22.284  10.462
   10AU    AUSL 5260  17.578  20.098   8.202
   10AU    AUSL 5261  17.218  20.052   7.948
   10AU     AUL 5262  17.257  19.931   8.266
   10AU       S 5263  16.918  19.566   8.091
   10AU     LIG 5264  16.527  19.346   8.100
   10AU     LIG 5265  16.171  19.138   8.322
   10AU     LIG 5266  15.879  18.883   8.590
   10AU     LIG 5267  15.724  18.615   8.939
   10AU     LIG 5268  15.401  18.501   9.254
   10AU     LIG 5269  15.121  18.554   9.631
   10AU       S 5270  17.266  20.209   8.672
   10AU     LIG 5271  17.168  19.896   8.995
   10AU     LIG 5272  17.030  19.637   9.361
   10AU     LIG 5273  16.996  19.576   9.821
   10AU     LIG 5274  16.977  19.268  10.186
   10AU     LIG 5275  16.749  19.198  10.591
   10AU     LIG 5276  16.707  19.134  11.054
   10AU    AUSL 5277  17.319  20.240   6.914
   10AU    AUSL 5278  17.491  19.859   6.950
   10AU     AUL 5279  17.248  19.943   6.733
   10AU       S 5280  17.209  20.248   6.344
   10AU     LIG 5281  16.976  20.036   5.967
   10AU     LIG 5282  16.775  19.845   5.569
   10AU     LIG 5283  16.500  19.629   5.242
   10AU     LIG 5284  16.274  19.607   4.822
   10AU     LIG 5285  15.955  19.797   4.525
   10AU     LIG 5286  15.728  20.141   4.272
   10AU       S 5287  17.102  19.461   6.820
   10AU     LIG 5288  16.848  19.079   6.795
   10AU     LIG 5289  16.562  18.827   6.552
   10AU     LIG 5290  16.277  18.603   6.258
   10AU     LIG 5291  16.110  18.247   6.000
   10AU     LIG 5292  15.956  18.074   5.595
   10AU     LIG 5293  15.990  18.179   5.125
   10AU    AUSL 5294  17.541  20.455   6.808
   10AU    AUSL 5295  17.247  20.545   7.045
   10AU     AUL 5296  17.057  20.389   6.819
   10AU       S 5297  17.144  20.823   6.592
   10AU     LIG 5298  16.881  21.008   6.254
   10AU     LIG 5299  16.659  21.173   5.880
   10AU     LIG 5300  16.428  21.216   5.480
   10AU     LIG 5301  16.045  21.249   5.212
   10AU     LIG 5302  15.643  21.438   5.061
   10AU     LIG 5303  15.219  21.664   5.047
   10AU       S 5304  17.368  20.400   6.392
   10AU     LIG 5305  17.405  20.316   5.884
   10AU     LIG 5306  17.257  20.039   5.515
   10AU     LIG 5307  17.105  19.995   5.055
   10AU     LIG 5308  17.144  20.147   4.581
   10AU     LIG 5309  17.159  20.362   4.132
   10AU     LIG 5310  17.037  20.614   3.732
   10AU    AUSL 5311  18.371  20.695   7.456
   10AU    AUSL 5312  18.330  20.565   7.088
   10AU     AUL 5313  18.431  21.009   7.312
   10AU       S 5314  18.677  20.634   6.822
   10AU     LIG 5315  19.085  20.619   6.614
   10AU     LIG 5316  19.292  20.795   6.223
   10AU     LIG 5317  19.502  21.053   5.883
   10AU     LIG 5318  19.737  21.392   5.641
   10AU     LIG 5319  20.044  21.556   5.312
   10AU     LIG 5320  20.292  21.771   4.957
   10AU       S 5321  18.901  20.772   7.388
   10AU     LIG 5322  19.401  20.674   7.488
   10AU     LIG 5323  19.898  20.664   7.546
   10AU     LIG 5324  20.346  20.882   7.483
   10AU     LIG 5325  20.681  21.270   7.476
   10AU     LIG 5326  20.927  21.734   7.446
   10AU     LIG 5327  21.092  22.223   7.442
   10AU    AUSL 5328  18.484  20.396   7.327
   10AU    AUSL 5329  18.462  20.120   7.623
   10AU     AUL 5330  18.772  20.117   7.390
   10AU       S 5331  18.893  20.586   7.271
   10AU     LIG 5332  19.268  20.393   7.083
   10AU     LIG 5333  19.729  20.400   7.137
   10AU     LIG 5334  20.169  20.547   7.112
   10AU     LIG 5335  20.626  20.627   7.064
   10AU     LIG 5336  21.075  20.757   7.144
   10AU     LIG 5337  21.529  20.910   7.119
   10AU       S 5338  18.839  19.645   7.650
   10AU     LIG 5339  19.153  19.442   7.879
   10AU     LIG 5340  19.587  19.389   7.796
   10AU     LIG 5341  20.022  19.386   7.845
   10AU     LIG 5342  20.441  19.415   7.949
   10AU     LIG 5343  20.863  19.229   8.030
   10AU     LIG 5344  21.324  19.306   7.975
   10AU    AUSL 5345  18.477  20.451   7.662
   10AU    AUSL 5346  18.224  20.780   7.750
   10AU     AUL 5347  18.511  20.864   7.710
   10AU       S 5348  18.574  20.807   8.192
   10AU     LIG 5349  18.922  21.073   8.397
   10AU     LIG 5350  19.206  21.290   8.712
   10AU     LIG 5351  19.504  21.564   8.953
   10AU     LIG 5352  19.753  21.981   8.964
   10AU     LIG 5353  19.958  22.420   9.041
   10AU     LIG 5354  20.349  22.604   9.238
   10AU       S 5355  18.920  20.562   7.638
   10AU     LIG 5356  19.261  20.409   7.927
   10AU     LIG 5357  19.713  20.388   8.066
   10AU     LIG 5358  20.133  20.394   7.912
   10AU     LIG 5359  20.499  20.676   7.939
   10AU     LIG 5360  20.953  20.757   7.886
   10AU     LIG 5361  21.384  20.951   7.963
   10AU    AUSL 5362  17.172  20.745   7.515
   10AU    AUSL 5363  17.226  20.577   7.923
   10AU     AUL 5364  17.092  21.007   7.767
   10AU       S 5365  16.939  20.715   8.189
   10AU     LIG 5366  16.739  20.731   8.603
   10AU     LIG 5367  16.516  21.020   8.880
   10AU     LIG 5368  16.242  21.168   9.237
   10AU     LIG 5369  15.868  21.253   9.516
   10AU     LIG 5370  15.491  21.404   9.778
   10AU     LIG 5371  15.083  21.639   9.881
   10AU       S 5372  16.659  20.894   7.540
   10AU     LIG 5373  16.285  21.194   7.401
   10AU     LIG 5374  16.015  21.599   7.436
   10AU     LIG 5375  15.837  21.997   7.635
   10AU     LIG 5376  15.487  22.315   7.582
   10AU     LIG 5377  15.028  22.370   7.664
   10AU     LIG 5378  14.735  22.686   7.836
   10AU    AUSL 5379  17.064  20.477   7.325
   10AU    AUSL 5380  17.326  20.816   7.231
   10AU     AUL 5381  16.996  20.795   7.159
   10AU       S 5382  16.534  20.688   7.344
   10AU     LIG 5383  16.211  20.815   7.040
   10AU     LIG 5384  15.862  20.977   6.775
   10AU     LIG 5385  15.513  21.186   6.567
   10AU     LIG 5386  15.143  21.456   6.582
   10AU     LIG 5387  14.728  21.340   6.719
   10AU     LIG 5388  14.262  21.395   6.706
   10AU       S 5389  17.109  21.057   6.731
   10AU     LIG 5390  16.973  21.457   6.519
   10AU     LIG 5391  16.988  21.895   6.349
   10AU     LIG 5392  16.686  22.242   6.250
   10AU     LIG 5393  16.350  22.345   5.950
   10AU     LIG 5394  16.042  22.681   5.883
   10AU     LIG 5395  15.886  23.030   5.607
   10AU    AUSL 5396  17.058  20.463   7.669
   10AU    AUSL 5397  17.034  20.146   7.331
   10AU     AUL 5398  16.782  20.299   7.514
   10AU       S 5399  16.608  19.826   7.318
   10AU     LIG 5400  16.257  20.005   7.688
   10AU     LIG 5401  15.785  20.055   7.734
   10AU     LIG 5402  15.363  19.850   7.624
   10AU     LIG 5403  14.995  19.618   7.373
   10AU     LIG 5404  14.593  19.323   7.283
   10AU     LIG 5405  14.183  19.194   7.046
   10AU       S 5406  16.649  20.684   7.796
   10AU     LIG 5407  16.413  20.820   8.169
   10AU     LIG 5408  15.996  21.019   8.211
   10AU     LIG 5409  15.517  21.091   8.256
   10AU     LIG 5410  15.039  21.152   8.281
   10AU     LIG 5411  14.590  21.308   8.382
   10AU     LIG 5412  14.169  21.533   8.309
   10AU    AUSL 5413  18.368  19.824   7.502
   10AU    AUSL 5414  18.323  19.998   7.899
   10AU     AUL 5415  18.670  20.080   7.808
   10AU       S 5416  18.582  19.445   7.469
   10AU     LIG 5417  18.894  19.122   7.582
   10AU     LIG 5418  19.354  19.022   7.528
   10AU     LIG 5419  19.797  18.803   7.510
   10AU     LIG 5420  20.110  18.399   7.486
   10AU     LIG 5421  20.510  18.111   7.409
   10AU     LIG 5422  20.981  18.026   7.432
   10AU       S 5423  18.564  19.671   8.098
   10AU     LIG 5424  18.874  19.287   8.293
   10AU     LIG 5425  18.920  18.912   8.620
   10AU     LIG 5426  19.166  18.602   8.915
   10AU     LIG 5427  19.422  18.494   9.321
   10AU     LIG 5428  19.784  18.628   9.640
   10AU     LIG 5429  20.141  18.564   9.963
   10AU    AUSL 5430  18.425  20.075   7.295
   10AU    AUSL 5431  18.195  19.738   7.221
   10AU     AUL 5432  18.568  19.879   7.117
   10AU       S 5433  18.688  19.613   7.510
   10AU     LIG 5434  19.091  19.461   7.256
   10AU     LIG 5435  19.555  19.413   7.251
   10AU     LIG 5436  19.992  19.277   7.339
   10AU     LIG 5437  20.437  19.326   7.188
   10AU     LIG 5438  20.901  19.241   7.080
   10AU     LIG 5439  21.363  19.260   7.190
   10AU       S 5440  18.441  19.459   6.868
   10AU     LIG 5441  18.714  19.092   6.747
   10AU     LIG 5442  18.814  18.668   6.542
   10AU     LIG 5443  18.860  18.278   6.271
   10AU     LIG 5444  19.043  17.832   6.223
   10AU     LIG 5445  19.455  17.605   6.163
   10AU     LIG 5446  19.684  17.189   6.179
   10AU    AUSL 5447  17.154  19.872   7.460
   10AU    AUSL 5448  17.222  19.993   7.107
   10AU     AUL 5449  16.928  20.110   7.054
   10AU       S 5450  16.913  19.605   6.954
   10AU     LIG 5451  16.491  19.463   6.807
   10AU     LIG 5452  16.170  19.153   6.649
   10AU     LIG 5453  15.870  18.879   6.407
   10AU     LIG 5454  15.731  18.600   6.055
   10AU     LIG 5455  15.438  18.552   5.681
   10AU     LIG 5456  15.117  18.648   5.332
   10AU       S 5457  16.799  19.708   7.419
   10AU     LIG 5458  16.365  19.477   7.612
   10AU     LIG 5459  15.882  19.551   7.594
   10AU     LIG 5460  15.443  19.358   7.500
   10AU     LIG 5461  15.009  19.153   7.575
   10AU     LIG 5462  14.581  19.108   7.749
   10AU     LIG 5463  14.317  18.734   7.829
   10AU    AUSL 5464  17.082  20.134   7.658
   10AU    AUSL 5465  17.278  19.767   7.755
   10AU     AUL 5466  16.914  19.988   7.833
   10AU       S 5467  17.010  19.435   7.761
   10AU     LIG 5468  16.735  19.097   7.699
   10AU     LIG 5469  16.372  18.894   7.896
   10AU     LIG 5470  16.158  18.627   8.226
   10AU     LIG 5471  15.964  18.351   8.564
   10AU     LIG 5472  15.676  17.998   8.714
   10AU     LIG 5473  15.463  17.559   8.802
   10AU       S 5474  16.645  19.832   7.431
   10AU     LIG 5475  16.125  19.842   7.239
   10AU     LIG 5476  15.675  20.070   7.229
   10AU     LIG 5477  15.184  20.156   7.265
   10AU     LIG 5478  14.840  20.045   7.595
   10AU     LIG 5479  14.563  19.657   7.701
   10AU     LIG 5480  14.197  19.441   7.916
   10AU    AUSL 5481  17.784  20.888   7.943
   10AU    AUSL 5482  17.379  20.824   7.769
   10AU     AUL 5483  17.456  21.088   7.972
   10AU       S 5484  17.094  20.917   8.266
   10AU     LIG 5485  16.848  21.245   8.508
   10AU     LIG 5486  17.009  21.668   8.670
   10AU     LIG 5487  16.961  22.125   8.798
   10AU     LIG 5488  16.618  22.462   8.834
   10AU     LIG 5489  16.334  22.835   8.948
   10AU     LIG 5490  15.959  23.158   8.951
   10AU       S 5491  17.831  21.396   8.093
   10AU     LIG 5492  17.713  21.535   8.517
   10AU     LIG 5493  17.930  21.869   8.738
   10AU     LIG 5494  18.055  22.223   8.990
   10AU     LIG 5495  18.027  22.631   9.211
   10AU     LIG 5496  18.045  22.935   9.576
   10AU     LIG 5497  18.000  23.342   9.813
   10AU    AUSL 5498  17.636  20.997   7.653
   10AU    AUSL 5499  17.928  21.018   7.343
   10AU     AUL 5500  17.508  21.257   7.463
   10AU       S 5501  17.747  21.497   7.843
   10AU     LIG 5502  17.737  21.898   8.155
   10AU     LIG 5503  17.999  22.234   8.377
   10AU     LIG 5504  17.931  22.710   8.408
   10AU     LIG 5505  17.649  23.107   8.445
   10AU     LIG 5506  17.338  23.506   8.490
   10AU     LIG 5507  17.104  23.953   8.529
   10AU       S 5508  17.992  21.437   7.249
   10AU     LIG 5509  18.295  21.738   7.097
   10AU     LIG 5510  18.294  22.163   6.895
   10AU     LIG 5511  18.424  22.593   6.729
   10AU     LIG 5512  18.631  23.030   6.660
   10AU     LIG 5513  18.738  23.501   6.588
   10AU     LIG 5514  18.639  23.932   6.410
   10AU    AUSL 5515  17.973  20.980   7.668
   10AU    AUSL 5516  18.051  20.710   8.031
   10AU     AUL 5517  18.156  21.042   7.976
   10AU       S 5518  18.427  20.760   8.299
   10AU     LIG 5519  18.678  20.768   8.716
   10AU     LIG 5520  18.867  21.068   9.032
   10AU     LIG 5521  19.194  21.294   9.305
   10AU     LIG 5522  19.397  21.470   9.703
   10AU     LIG 5523  19.437  21.861   9.977
   10AU     LIG 5524  19.353  22.316  10.118
   10AU       S 5525  17.976  21.445   7.738
   10AU     LIG 5526  18.076  21.900   7.767
   10AU     LIG 5527  18.278  22.272   7.947
   10AU     LIG 5528  18.408  22.586   8.270
   10AU     LIG 5529  18.390  23.050   8.406
   10AU     LIG 5530  18.498  23.536   8.410
   10AU     LIG 5531  18.519  24.034   8.385
   10AU    AUSL 5532  17.767  19.697   7.974
   10AU    AUSL 5533  18.182  19.719   7.755
   10AU     AUL 5534  18.007  19.468   8.002
   10AU       S 5535  17.614  19.152   8.079
   10AU     LIG 5536  17.381  18.760   8.200
   10AU     LIG 5537  17.184  18.343   8.228
   10AU     LIG 5538  17.308  17.908   8.336
   10AU     LIG 5539  17.572  17.614   8.614
   10AU     LIG 5540  17.614  17.331   8.999
   10AU     LIG 5541  17.650  17.006   9.340
   10AU       S 5542  18.507  19.447   7.955
   10AU     LIG 5543  18.592  18.989   7.980
   10AU     LIG 5544  18.705  18.615   8.263
   10AU     LIG 5545  18.906  18.276   8.571
   10AU     LIG 5546  19.128  17.851   8.728
   10AU     LIG 5547  19.464  17.483   8.680
   10AU     LIG 5548  19.850  17.203   8.806
   10AU    AUSL 5549  17.563  19.590   7.720
   10AU    AUSL 5550  17.487  19.863   7.988
   10AU     AUL 5551  17.477  19.632   8.146
   10AU       S 5552  17.412  19.170   7.871
   10AU     LIG 5553  17.166  18.819   7.734
   10AU     LIG 5554  17.153  18.358   7.709
   10AU     LIG 5555  16.977  17.943   7.909
   10AU     LIG 5556  16.713  17.524   8.008
   10AU     LIG 5557  16.736  17.081   8.214
   10AU     LIG 5558  16.544  16.657   8.090
   10AU       S 5559  17.062  19.496   7.925
   10AU     LIG 5560  16.975  19.073   8.147
   10AU     LIG 5561  16.615  18.867   8.358
   10AU     LIG 5562  16.341  18.695   8.708
   10AU     LIG 5563  16.187  18.400   9.050
   10AU     LIG 5564  16.302  18.206   9.472
   10AU     LIG 5565  16.231  17.975   9.878
   10AU    AUSL 5566  17.886  19.606   7.673
   10AU    AUSL 5567  17.598  19.546   7.390
   10AU     AUL 5568  17.949  19.340   7.604
   10AU       S 5569  17.311  19.189   7.397
   10AU     LIG 5570  16.982  18.878   7.265
   10AU     LIG 5571  16.953  18.408   7.231
   10AU     LIG 5572  16.970  17.945   7.073
   10AU     LIG 5573  16.734  17.524   6.961
   10AU     LIG 5574  16.606  17.116   6.752
   10AU     LIG 5575  16.802  16.798   6.467
   10AU       S 5576  17.548  19.202   7.827
   10AU     LIG 5577  17.660  18.717   7.776
   10AU     LIG 5578  17.608  18.248   7.944
   10AU     LIG 5579  17.745  17.784   8.089
   10AU     LIG 5580  17.827  17.335   8.262
   10AU     LIG 5581  18.027  16.930   8.455
   10AU     LIG 5582  18.131  16.452   8.551
   10AU    AUSL 5583  17.797  20.886   7.053
   10AU    AUSL 5584  18.162  20.811   7.225
   10AU     AUL 5585  18.137  21.026   6.985
   10AU       S 5586  17.794  21.356   6.851
   10AU     LIG 5587  17.730  21.575   6.425
   10AU     LIG 5588  18.002  21.840   6.131
   10AU     LIG 5589  18.100  22.278   5.980
   10AU     LIG 5590  18.172  22.639   5.672
   10AU     LIG 5591  18.094  22.973   5.343
   10AU     LIG 5592  18.032  23.378   5.099
   10AU       S 5593  18.600  20.781   6.915
   10AU     LIG 5594  18.993  21.056   6.855
   10AU     LIG 5595  19.271  21.235   6.495
   10AU     LIG 5596  19.476  21.503   6.140
   10AU     LIG 5597  19.712  21.896   5.986
   10AU     LIG 5598  19.884  22.361   5.996
   10AU     LIG 5599  20.098  22.767   5.846
   10AU    AUSL 5600  17.608  20.959   7.323
   10AU    AUSL 5601  17.518  20.742   6.963
   10AU     AUL 5602  17.437  21.104   7.098
   10AU       S 5603  17.833  21.432   7.131
   10AU     LIG 5604  17.871  21.846   6.834
   10AU     LIG 5605  17.798  22.295   6.775
   10AU     LIG 5606  17.446  22.598   6.704
   10AU     LIG 5607  17.233  23.027   6.664
   10AU     LIG 5608  17.316  23.449   6.435
   10AU     LIG 5609  17.197  23.914   6.524
   10AU       S 5610  17.415  20.934   6.599
   10AU     LIG 5611  17.349  21.241   6.257
   10AU     LIG 5612  17.056  21.505   5.988
   10AU     LIG 5613  16.823  21.581   5.565
   10AU     LIG 5614  16.697  21.797   5.144
   10AU     LIG 5615  16.463  22.140   4.899
   10AU     LIG 5616  16.229  22.453   4.613
   10AU    AUSL 5617  17.721  19.689   7.118
   10AU    AUSL 5618  17.362  19.721   7.238
   10AU     AUL 5619  17.588  19.519   6.934
   10AU       S 5620  17.061  19.458   7.095
   10AU     LIG 5621  16.660  19.267   7.235
   10AU     LIG 5622  16.414  18.927   7.052
   10AU     LIG 5623  16.138  18.636   6.778
   10AU     LIG 5624  15.893  18.339   6.482
   10AU     LIG 5625  15.762  17.947   6.225
   10AU     LIG 5626  15.535  17.720   5.881
   10AU       S 5627  17.472  19.213   7.301
   10AU     LIG 5628  17.335  18.974   6.915
   10AU     LIG 5629  17.233  18.533   6.820
   10AU     LIG 5630  17.336  18.087   6.667
   10AU     LIG 5631  17.585  17.726   6.434
   10AU     LIG 5632  17.635  17.527   5.981
   10AU     LIG 5633  17.717  17.422   5.508
   10AU    AUSL 5634  17.933  19.579   7.349
   10AU    AUSL 5635  17.983  19.806   6.959
   10AU     AUL 5636  17.974  19.427   7.064
   10AU       S 5637  17.623  19.115   7.315
   10AU     LIG 5638  17.440  18.658   7.313
   10AU     LIG 5639  17.426  18.190   7.183
   10AU     LIG 5640  17.488  17.735   7.006
   10AU     LIG 5641  17.661  17.343   6.804
   10AU     LIG 5642  18.057  17.073   6.822
   10AU     LIG 5643  18.184  16.584   6.822
   10AU       S 5644  18.222  19.569   6.652
   10AU     LIG 5645  18.316  19.155   6.428
   10AU     LIG 5646  18.457  18.767   6.184
   10AU     LIG 5647  18.614  18.483   5.842
   10AU     LIG 5648  18.663  18.373   5.384
   10AU     LIG 5649  18.908  18.155   5.033
   10AU     LIG 5650  19.043  17.714   4.905
   11POPC   NC3 5651   3.094  41.335   9.355
   11POPC   PO4 5652   2.481  41.476   9.460
   11POPC   GL1 5653   2.656  41.680   9.145
   11POPC   GL2 5654   2.351  41.878   9.090
   11POPC   C1A 5655   2.959  41.724   8.783
   11POPC   D2A 5656   3.129  41.527   8.405
   11POPC   C3A 5657   3.112  41.767   8.034
   11POPC   C4A 5658   2.938  41.659   7.669
   11POPC   C1B 5659   2.454  41.732   8.690
   11POPC   C2B 5660   2.684  41.841   8.347
   11POPC   C3B 5661   2.553  41.650   7.986
   11POPC   C4B 5662   2.313  41.726   7.627
   12POPC   NC3 5663   6.221  34.708   9.496
   12POPC   PO4 5664   5.818  34.205   9.353
   12POPC   GL1 5665   5.827  34.566   9.143
   12POPC   GL2 5666   6.118  34.644   9.017
   12POPC   C1A 5667   5.713  34.740   8.734
   12POPC   D2A 5668   5.904  34.831   8.344
   12POPC   C3A 5669   5.669  34.703   8.004
   12POPC   C4A 5670   5.638  34.937   7.646
   12POPC   C1B 5671   6.191  34.473   8.646
   12POPC   C2B 5672   6.333  34.417   8.233
   12POPC   C3B 5673   6.176  34.604   7.865
   12POPC   C4B 5674   5.853  34.465   7.576
   13POPC   NC3 5675   7.598   9.468   9.696
   13POPC   PO4 5676   7.007   9.160   9.591
   13POPC   GL1 5677   7.049   9.253   9.159
   13POPC   GL2 5678   7.257   8.973   9.038
   13POPC   C1A 5679   7.261   9.418   8.782
   13POPC   D2A 5680   7.403   9.401   8.351
   13POPC   C3A 5681   7.208   9.071   8.155
   13POPC   C4A 5682   7.134   9.009   7.762
   13POPC   C1B 5683   7.515   8.969   8.621
   13POPC   C2B 5684   7.704   8.939   8.177
   13POPC   C3B 5685   7.646   8.958   7.701
   13POPC   C4B 5686   7.656   8.850   7.241
   14POPC   NC3 5687   7.887   1.244   9.430
   14POPC   PO4 5688   8.555   1.375   9.533
   14POPC   GL1 5689   8.473   1.315   9.139
   14POPC   GL2 5690   8.582   1.014   9.116
   14POPC   C1A 5691   8.401   1.473   8.744
   14POPC   D2A 5692   8.454   1.267   8.349
   14POPC   C3A 5693   8.189   1.396   8.006
   14POPC   C4A 5694   8.183   1.578   7.608
   14POPC   C1B 5695   8.351   0.926   8.768
   14POPC   C2B 5696   8.259   0.795   8.363
   14POPC   C3B 5697   8.396   0.928   7.960
   14POPC   C4B 5698   8.024   0.777   7.772
   15POPC   NC3 5699  23.891  13.530   9.432
   15POPC   PO4 5700  23.386  13.982   9.459
   15POPC   GL1 5701  23.589  13.795   9.115
   15POPC   GL2 5702  23.571  13.469   9.032
   15POPC   C1A 5703  23.742  13.803   8.685
   15POPC   D2A 5704  23.613  13.981   8.306
   15POPC   C3A 5705  23.931  14.014   8.001
   15POPC   C4A 5706  23.765  14.112   7.588
   15POPC   C1B 5707  23.993  13.383   8.774
   15POPC   C2B 5708  24.030  13.218   8.359
   15POPC   C3B 5709  23.824  13.496   8.106
   15POPC   C4B 5710  23.759  13.629   7.726
   16POPC   NC3 5711  33.248   3.883   9.582
   16POPC   PO4 5712  32.974   3.234   9.664
   16POPC   GL1 5713  32.956   3.373   9.236
   16POPC   GL2 5714  32.956   3.746   9.169
   16POPC   C1A 5715  33.135   3.390   8.847
   16POPC   D2A 5716  33.316   3.126   8.577
   16POPC   C3A 5717  33.032   3.030   8.260
   16POPC   C4A 5718  32.870   3.303   7.927
   16POPC   C1B 5719  32.676   3.634   8.848
   16POPC   C2B 5720  32.809   3.559   8.451
   16POPC   C3B 5721  32.774   3.796   8.096
   16POPC   C4B 5722  32.528   3.665   7.752
   17POPC   NC3 5723  32.560   8.473   9.331
   17POPC   PO4 5724  32.032   8.169   9.594
   17POPC   GL1 5725  32.114   8.327   9.161
   17POPC   GL2 5726  32.371   8.082   9.113
   17POPC   C1A 5727  32.306   8.421   8.737
   17POPC   D2A 5728  32.181   8.579   8.348
   17POPC   C3A 5729  32.092   8.224   8.104
   17POPC   C4A 5730  32.378   8.138   7.738
   17POPC   C1B 5731  32.543   7.946   8.737
   17POPC   C2B 5732  32.542   8.119   8.336
   17POPC   C3B 5733  32.785   7.983   7.967
   17POPC   C4B 5734  32.648   7.674   7.633
   18POPC   NC3 5735  41.679  17.761   9.417
   18POPC   PO4 5736  41.142  17.264   9.554
   18POPC   GL1 5737  41.404  17.375   9.217
   18POPC   GL2 5738  41.260  17.642   9.072
   18POPC   C1A 5739  41.617  17.386   8.812
   18POPC   D2A 5740  41.506  17.230   8.416
   18POPC   C3A 5741  41.744  17.402   8.060
   18POPC   C4A 5742  41.774  17.235   7.661
   18POPC   C1B 5743  41.336  17.877   8.738
   18POPC   C2B 5744  41.448  17.731   8.369
   18POPC   C3B 5745  41.262  17.516   8.054
   18POPC   C4B 5746  41.409  17.610   7.667
   19POPC   NC3 5747  15.321   3.966   9.485
   19POPC   PO4 5748  15.289   3.265   9.517
   19POPC   GL1 5749  15.041   3.477   9.219
   19POPC   GL2 5750  15.254   3.741   9.022
   19POPC   C1A 5751  14.990   3.367   8.798
   19POPC   D2A 5752  15.265   3.602   8.482
   19POPC   C3A 5753  15.105   3.702   8.062
   19POPC   C4A 5754  15.025   3.343   7.844
   19POPC   C1B 5755  15.520   3.362   8.856
   19POPC   C2B 5756  15.685   3.297   8.413
   19POPC   C3B 5757  15.590   3.295   7.950
   19POPC   C4B 5758  15.788   3.378   7.527
   20POPC   NC3 5759  28.627  25.952   9.604
   20POPC   PO4 5760  28.057  26.225   9.609
   20POPC   GL1 5761  28.305  26.138   9.203
   20POPC   GL2 5762  28.432  25.804   9.132
   20POPC   C1A 5763  28.401  26.129   8.723
   20POPC   D2A 5764  28.195  26.128   8.280
   20POPC   C3A 5765  28.454  26.153   7.872
   20POPC   C4A 5766  28.351  26.452   7.510
   20POPC   C1B 5767  28.131  25.695   8.772
   20POPC   C2B 5768  27.933  25.701   8.341
   20POPC   C3B 5769  28.132  25.715   7.915
   20POPC   C4B 5770  28.355  25.477   7.553
   21POPC   NC3 5771  20.070  10.408   9.691
   21POPC   PO4 5772  19.540  10.169   9.484
   21POPC   GL1 5773  19.707  10.360   9.134
   21POPC   GL2 5774  20.056  10.351   9.174
   21POPC   C1A 5775  19.793  10.701   8.847
   21POPC   D2A 5776  19.556  10.841   8.491
   21POPC   C3A 5777  19.639  10.824   8.038
   21POPC   C4A 5778  19.655  10.539   7.655
   21POPC   C1B 5779  20.088  10.314   8.709
   21POPC   C2B 5780  20.089  10.656   8.380
   21POPC   C3B 5781  20.075  10.559   7.939
   21POPC   C4B 5782  20.043  10.121   7.724
   22POPC   NC3 5783  41.301  41.398   9.512
   22POPC   PO4 5784  41.788  41.751   9.571
   22POPC   GL1 5785  41.610  41.625   9.180
   22POPC   GL2 5786  41.318  41.747   9.088
   22POPC   C1A 5787  41.539  41.345   8.840
   22POPC   D2A 5788  41.285  41.247   8.475
   22POPC   C3A 5789  41.479  41.350   8.038
   22POPC   C4A 5790  41.672  41.453   7.659
   22POPC   C1B 5791  41.299  41.750   8.656
   22POPC   C2B 5792  41.250  41.746   8.232
   22POPC   C3B 5793  41.117  41.733   7.795
   22POPC   C4B 5794  41.145  42.078   7.474
   23POPC   NC3 5795   5.285  20.672   9.579
   23POPC   PO4 5796   4.662  20.478   9.502
   23POPC   GL1 5797   4.928  20.384   9.152
   23POPC   GL2 5798   5.308  20.420   9.132
   23POPC   C1A 5799   4.980  20.719   8.844
   23POPC   D2A 5800   5.017  20.825   8.414
   23POPC   C3A 5801   4.899  20.462   8.174
   23POPC   C4A 5802   4.923  20.416   7.716
   23POPC   C1B 5803   5.502  20.711   8.824
   23POPC   C2B 5804   5.566  20.578   8.397
   23POPC   C3B 5805   5.381  20.477   7.998
   23POPC   C4B 5806   5.490  20.581   7.591
   24POPC   NC3 5807   4.278   3.776   9.315
   24POPC   PO4 5808   4.864   3.731   9.505
   24POPC   GL1 5809   4.745   3.676   9.080
   24POPC   GL2 5810   4.574   3.373   9.078
   24POPC   C1A 5811   4.539   3.637   8.661
   24POPC   D2A 5812   4.635   3.740   8.258
   24POPC   C3A 5813   4.566   3.538   7.917
   24POPC   C4A 5814   4.195   3.671   7.767
   24POPC   C1B 5815   4.163   3.310   8.835
   24POPC   C2B 5816   4.116   3.111   8.466
   24POPC   C3B 5817   4.138   3.311   8.113
   24POPC   C4B 5818   3.986   3.166   7.750
   25POPC   NC3 5819  17.908  15.752   9.790
   25POPC   PO4 5820  17.505  16.189   9.479
   25POPC   GL1 5821  17.647  15.803   9.283
   25POPC   GL2 5822  17.961  15.866   9.144
   25POPC   C1A 5823  17.671  15.607   8.838
   25POPC   D2A 5824  17.532  15.683   8.403
   25POPC   C3A 5825  17.774  15.583   8.012
   25POPC   C4A 5826  17.634  15.708   7.583
   25POPC   C1B 5827  17.814  16.103   8.787
   25POPC   C2B 5828  17.702  16.176   8.349
   25POPC   C3B 5829  17.481  16.010   7.980
   25POPC   C4B 5830  17.265  16.245   7.664
   26POPC   NC3 5831   4.539  41.082   9.770
   26POPC   PO4 5832   4.357  40.786   9.192
   26POPC   GL1 5833   4.353  40.523   8.924
   26POPC   GL2 5834   4.464  40.271   9.096
   26POPC   C1A 5835   4.474  40.563   8.508
   26POPC   D2A 5836   4.504  40.902   8.233
   26POPC   C3A 5837   4.249  40.818   7.889
   26POPC   C4A 5838   4.038  40.669   7.548
   26POPC   C1B 5839   4.583  40.099   8.726
   26POPC   C2B 5840   4.739  40.158   8.319
   26POPC   C3B 5841   4.612  40.446   7.989
   26POPC   C4B 5842   4.415  40.352   7.631
   27POPC   NC3 5843   7.246   8.437   9.837
   27POPC   PO4 5844   7.106   7.737   9.702
   27POPC   GL1 5845   7.242   8.073   9.412
   27POPC   GL2 5846   7.260   8.436   9.295
   27POPC   C1A 5847   7.246   8.057   8.963
   27POPC   D2A 5848   7.428   8.003   8.578
   27POPC   C3A 5849   7.474   8.034   8.133
   27POPC   C4A 5850   7.212   8.148   7.814
   27POPC   C1B 5851   7.340   8.519   8.817
   27POPC   C2B 5852   7.500   8.504   8.394
   27POPC   C3B 5853   7.386   8.590   7.967
   27POPC   C4B 5854   7.506   8.463   7.537
   28POPC   NC3 5855   0.425  36.553  10.174
   28POPC   PO4 5856   0.360  36.861   9.567
   28POPC   GL1 5857   0.360  37.051   9.171
   28POPC   GL2 5858   0.722  37.179   9.175
   28POPC   C1A 5859   0.142  37.001   8.752
   28POPC   D2A 5860   0.089  36.669   8.447
   28POPC   C3A 5861   0.190  36.685   8.009
   28POPC   C4A 5862   0.309  37.035   7.762
   28POPC   C1B 5863   0.664  36.944   8.767
   28POPC   C2B 5864   0.516  36.946   8.328
   28POPC   C3B 5865   0.710  36.777   7.946
   28POPC   C4B 5866   0.796  37.136   7.684
   29POPC   NC3 5867  14.504  36.320   9.357
   29POPC   PO4 5868  14.189  35.687   9.501
   29POPC   GL1 5869  14.055  36.010   9.173
   29POPC   GL2 5870  14.088  36.372   9.084
   29POPC   C1A 5871  14.106  35.933   8.753
   29POPC   D2A 5872  14.281  36.002   8.337
   29POPC   C3A 5873  14.057  35.764   8.042
   29POPC   C4A 5874  13.866  35.876   7.652
   29POPC   C1B 5875  14.410  36.332   8.729
   29POPC   C2B 5876  14.542  36.453   8.313
   29POPC   C3B 5877  14.430  36.331   7.906
   29POPC   C4B 5878  14.598  36.437   7.510
   30POPC   NC3 5879  28.255   6.444   9.421
   30POPC   PO4 5880  28.757   6.836   9.358
   30POPC   GL1 5881  28.620   6.487   9.062
   30POPC   GL2 5882  28.241   6.473   8.922
   30POPC   C1A 5883  28.626   6.309   8.671
   30POPC   D2A 5884  28.310   6.419   8.353
   30POPC   C3A 5885  28.530   6.595   7.998
   30POPC   C4A 5886  28.768   6.397   7.675
   30POPC   C1B 5887  28.080   6.890   8.794
   30POPC   C2B 5888  27.824   6.985   8.426
   30POPC   C3B 5889  28.003   6.792   8.059
   30POPC   C4B 5890  28.278   7.000   7.801
   31POPC   NC3 5891  32.964  12.008   9.538
   31POPC   PO4 5892  33.537  11.691   9.450
   31POPC   GL1 5893  33.208  11.930   9.097
   31POPC   GL2 5894  32.957  12.252   9.104
   31POPC   C1A 5895  33.150  12.145   8.665
   31POPC   D2A 5896  32.889  12.003   8.340
   31POPC   C3A 5897  33.105  11.962   8.011
   31POPC   C4A 5898  33.389  12.168   7.752
   31POPC   C1B 5899  32.652  12.069   8.820
   31POPC   C2B 5900  32.415  12.130   8.430
   31POPC   C3B 5901  32.557  12.366   8.054
   31POPC   C4B 5902  32.978  12.467   7.875
   32POPC   NC3 5903  15.675  32.749   9.719
   32POPC   PO4 5904  16.216  32.771   9.294
   32POPC   GL1 5905  16.138  33.038   8.944
   32POPC   GL2 5906  16.122  33.372   9.098
   32POPC   C1A 5907  15.896  32.911   8.568
   32POPC   D2A 5908  15.873  32.556   8.276
   32POPC   C3A 5909  15.896  32.792   7.908
   32POPC   C4A 5910  15.666  33.170   7.867
   32POPC   C1B 5911  16.386  33.481   8.768
   32POPC   C2B 5912  16.195  33.304   8.400
   32POPC   C3B 5913  16.198  33.207   7.967
   32POPC   C4B 5914  16.354  33.415   7.615
   33POPC   NC3 5915  30.377  38.334   9.520
   33POPC   PO4 5916  31.066  38.489   9.441
   33POPC   GL1 5917  30.737  38.517   9.151
   33POPC   GL2 5918  30.443  38.725   9.208
   33POPC   C1A 5919  30.725  38.353   8.749
   33POPC   D2A 5920  30.773  38.543   8.357
   33POPC   C3A 5921  30.802  38.206   8.092
   33POPC   C4A 5922  30.711  38.089   7.726
   33POPC   C1B 5923  30.442  38.766   8.794
   33POPC   C2B 5924  30.249  38.496   8.518
   33POPC   C3B 5925  30.295  38.452   8.094
   33POPC   C4B 5926  30.622  38.631   7.853
   34POPC   NC3 5927   6.261  20.465   9.502
   34POPC   PO4 5928   5.583  20.273   9.582
   34POPC   GL1 5929   5.835  20.320   9.230
   34POPC   GL2 5930   5.896  20.669   9.189
   34POPC   C1A 5931   5.862  20.344   8.779
   34POPC   D2A 5932   6.073  20.426   8.380
   34POPC   C3A 5933   5.890  20.472   7.990
   34POPC   C4A 5934   5.934  20.327   7.575
   34POPC   C1B 5935   6.062  20.816   8.781
   34POPC   C2B 5936   5.978  20.926   8.371
   34POPC   C3B 5937   6.250  20.825   8.071
   34POPC   C4B 5938   6.142  20.795   7.678
   35POPC   NC3 5939  40.596   5.172   9.819
   35POPC   PO4 5940  40.833   4.629   9.738
   35POPC   GL1 5941  40.790   4.898   9.285
   35POPC   GL2 5942  41.098   5.051   9.181
   35POPC   C1A 5943  40.701   5.231   8.923
   35POPC   D2A 5944  40.711   5.362   8.454
   35POPC   C3A 5945  40.725   5.189   8.008
   35POPC   C4A 5946  40.806   5.370   7.586
   35POPC   C1B 5947  41.144   5.202   8.712
   35POPC   C2B 5948  41.119   4.978   8.334
   35POPC   C3B 5949  41.024   4.763   7.974
   35POPC   C4B 5950  40.897   4.868   7.601
   36POPC   NC3 5951  13.253  23.000   9.417
   36POPC   PO4 5952  13.920  22.923   9.491
   36POPC   GL1 5953  13.749  23.083   9.082
   36POPC   GL2 5954  13.402  23.240   8.989
   36POPC   C1A 5955  13.916  22.840   8.700
   36POPC   D2A 5956  13.997  22.603   8.311
   36POPC   C3A 5957  13.806  22.818   7.962
   36POPC   C4A 5958  13.652  22.568   7.661
   36POPC   C1B 5959  13.423  22.806   8.780
   36POPC   C2B 5960  13.490  22.676   8.349
   36POPC   C3B 5961  13.265  22.668   7.937
   36POPC   C4B 5962  13.262  22.738   7.417
   37POPC   NC3 5963  31.110  39.894   9.455
   37POPC   PO4 5964  31.731  39.996   9.583
   37POPC   GL1 5965  31.550  40.110   9.228
   37POPC   GL2 5966  31.536  39.780   9.107
   37POPC   C1A 5967  31.692  40.147   8.809
   37POPC   D2A 5968  31.824  39.821   8.549
   37POPC   C3A 5969  31.753  39.885   8.114
   37POPC   C4A 5970  31.907  39.655   7.738
   37POPC   C1B 5971  31.209  39.926   8.796
   37POPC   C2B 5972  31.089  40.039   8.393
   37POPC   C3B 5973  31.183  39.949   7.965
   37POPC   C4B 5974  31.515  39.993   7.664
   38POPC   NC3 5975  30.015  15.888   9.521
   38POPC   PO4 5976  30.051  16.524   9.457
   38POPC   GL1 5977  29.748  16.382   9.130
   38POPC   GL2 5978  29.658  16.007   9.154
   38POPC   C1A 5979  29.830  16.250   8.726
   38POPC   D2A 5980  29.926  16.062   8.349
   38POPC   C3A 5981  29.830  16.087   7.921
   38POPC   C4A 5982  30.192  15.913   7.777
   38POPC   C1B 5983  29.869  15.664   8.897
   38POPC   C2B 5984  30.053  15.578   8.514
   38POPC   C3B 5985  29.950  15.614   8.119
   38POPC   C4B 5986  29.922  15.477   7.741
   39POPC   NC3 5987  39.053  38.024   9.466
   39POPC   PO4 5988  38.563  38.587   9.534
   39POPC   GL1 5989  38.383  38.592   9.136
   39POPC   GL2 5990  38.062  38.698   9.154
   39POPC   C1A 5991  38.515  38.463   8.718
   39POPC   D2A 5992  38.712  38.641   8.328
   39POPC   C3A 5993  38.519  38.509   7.931
   39POPC   C4A 5994  38.531  38.086   7.776
   39POPC   C1B 5995  37.989  38.591   8.741
   39POPC   C2B 5996  38.201  38.635   8.350
   39POPC   C3B 5997  38.065  38.770   7.961
   39POPC   C4B 5998  38.128  38.686   7.545
   40POPC   NC3 5999  22.104  12.970   9.529
   40POPC   PO4 6000  22.552  12.476   9.664
   40POPC   GL1 6001  22.496  12.651   9.196
   40POPC   GL2 6002  22.235  12.900   9.070
   40POPC   C1A 6003  22.461  12.687   8.700
   40POPC   D2A 6004  22.223  13.070   8.511
   40POPC   C3A 6005  22.404  13.171   8.104
   40POPC   C4A 6006  22.475  12.877   7.772
   40POPC   C1B 6007  21.963  12.607   8.829
   40POPC   C2B 6008  21.974  12.624   8.385
   40POPC   C3B 6009  21.975  12.839   7.975
   40POPC   C4B 6010  21.773  12.619   7.615
   41POPC   NC3 6011  14.539  40.934   9.573
   41POPC   PO4 6012  13.997  40.551   9.368
   41POPC   GL1 6013  14.278  40.709   9.106
   41POPC   GL2 6014  14.604  40.823   9.080
   41POPC   C1A 6015  14.249  40.865   8.701
   41POPC   D2A 6016  14.407  41.031   8.313
   41POPC   C3A 6017  14.321  40.791   7.916
   41POPC   C4A 6018  14.098  40.528   7.587
   41POPC   C1B 6019  14.717  40.655   8.647
   41POPC   C2B 6020  14.749  40.650   8.178
   41POPC   C3B 6021  14.828  40.666   7.722
   41POPC   C4B 6022  14.757  40.685   7.272
   42POPC   NC3 6023   5.218   4.029   9.543
   42POPC   PO4 6024   4.702   4.410   9.512
   42POPC   GL1 6025   4.967   4.302   9.170
   42POPC   GL2 6026   5.315   4.444   9.200
   42POPC   C1A 6027   4.963   4.256   8.735
   42POPC   D2A 6028   4.994   4.074   8.350
   42POPC   C3A 6029   4.926   4.379   8.020
   42POPC   C4A 6030   5.243   4.495   7.780
   42POPC   C1B 6031   5.477   4.333   8.792
   42POPC   C2B 6032   5.537   4.081   8.435
   42POPC   C3B 6033   5.389   4.062   8.023
   42POPC   C4B 6034   5.389   3.745   7.705
   43POPC   NC3 6035  17.132   4.091   9.443
   43POPC   PO4 6036  16.391   4.323   9.536
   43POPC   GL1 6037  16.587   4.232   9.177
   43POPC   GL2 6038  16.699   3.896   9.139
   43POPC   C1A 6039  16.689   4.437   8.797
   43POPC   D2A 6040  16.583   4.544   8.383
   43POPC   C3A 6041  16.765   4.261   8.124
   43POPC   C4A 6042  16.957   4.447   7.787
   43POPC   C1B 6043  16.349   3.920   8.857
   43POPC   C2B 6044  16.282   4.174   8.527
   43POPC   C3B 6045  16.299   4.041   8.090
   43POPC   C4B 6046  16.522   3.978   7.717
   44POPC   NC3 6047  36.367  17.544   9.810
   44POPC   PO4 6048  35.820  17.791   9.601
   44POPC   GL1 6049  36.060  17.718   9.227
   44POPC   GL2 6050  35.997  17.389   9.170
   44POPC   C1A 6051  36.225  17.656   8.787
   44POPC   D2A 6052  36.007  17.557   8.408
   44POPC   C3A 6053  36.192  17.743   8.081
   44POPC   C4A 6054  36.339  17.658   7.726
   44POPC   C1B 6055  36.050  17.152   8.751
   44POPC   C2B 6056  35.861  17.076   8.329
   44POPC   C3B 6057  36.002  17.286   7.931
   44POPC   C4B 6058  36.113  17.291   7.463
   45POPC   NC3 6059  39.673   6.374   9.309
   45POPC   PO4 6060  38.979   6.428   9.479
   45POPC   GL1 6061  39.208   6.422   9.070
   45POPC   GL2 6062  39.362   6.714   8.920
   45POPC   C1A 6063  39.222   6.363   8.607
   45POPC   D2A 6064  39.120   6.612   8.241
   45POPC   C3A 6065  39.385   6.455   7.835
   45POPC   C4A 6066  39.538   6.302   7.379
   45POPC   C1B 6067  39.098   7.009   8.670
   45POPC   C2B 6068  39.245   7.236   8.341
   45POPC   C3B 6069  39.399   6.995   8.029
   45POPC   C4B 6070  39.073   6.853   7.777
   46POPC   NC3 6071  14.456  37.345   9.489
   46POPC   PO4 6072  14.263  36.684   9.487
   46POPC   GL1 6073  14.407  36.780   9.081
   46POPC   GL2 6074  14.316  37.091   9.080
   46POPC   C1A 6075  14.340  36.824   8.633
   46POPC   D2A 6076  14.060  36.542   8.401
   46POPC   C3A 6077  14.107  36.707   8.012
   46POPC   C4A 6078  14.286  36.835   7.654
   46POPC   C1B 6079  14.041  37.223   8.749
   46POPC   C2B 6080  13.870  37.032   8.355
   46POPC   C3B 6081  13.951  37.190   7.920
   46POPC   C4B 6082  14.009  37.246   7.453
   47POPC   NC3 6083   2.158  39.727   9.466
   47POPC   PO4 6084   1.482  40.048   9.393
   47POPC   GL1 6085   1.722  40.041   9.024
   47POPC   GL2 6086   2.091  40.001   9.044
   47POPC   C1A 6087   1.846  40.099   8.599
   47POPC   D2A 6088   1.861  39.858   8.231
   47POPC   C3A 6089   1.899  40.142   7.886
   47POPC   C4A 6090   1.677  40.412   7.610
   47POPC   C1B 6091   2.410  39.757   8.788
   47POPC   C2B 6092   2.596  39.755   8.368
   47POPC   C3B 6093   2.329  39.849   8.013
   47POPC   C4B 6094   2.256  39.737   7.592
   48POPC   NC3 6095  41.469  23.404   9.533
   48POPC   PO4 6096  41.965  22.894   9.636
   48POPC   GL1 6097  41.713  23.013   9.268
   48POPC   GL2 6098  41.333  23.010   9.158
   48POPC   C1A 6099  41.712  22.904   8.826
   48POPC   D2A 6100  41.431  22.877   8.491
   48POPC   C3A 6101  41.583  23.062   8.130
   48POPC   C4A 6102  41.689  22.920   7.766
   48POPC   C1B 6103  41.077  22.729   8.847
   48POPC   C2B 6104  41.036  22.592   8.361
   48POPC   C3B 6105  41.133  22.795   7.919
   48POPC   C4B 6106  41.251  22.780   7.451
   49POPC   NC3 6107  39.040  40.992   9.230
   49POPC   PO4 6108  39.427  41.591   9.471
   49POPC   GL1 6109  39.233  41.450   9.159
   49POPC   GL2 6110  39.477  41.213   9.019
   49POPC   C1A 6111  39.082  41.562   8.787
   49POPC   D2A 6112  39.202  41.415   8.389
   49POPC   C3A 6113  39.084  41.601   8.023
   49POPC   C4A 6114  38.991  41.493   7.586
   49POPC   C1B 6115  39.610  41.619   8.841
   49POPC   C2B 6116  39.550  41.789   8.452
   49POPC   C3B 6117  39.622  41.635   8.057
   49POPC   C4B 6118  39.488  41.484   7.679
   50POPC   NC3 6119   1.448  34.751   9.381
   50POPC   PO4 6120   0.994  34.343   9.616
   50POPC   GL1 6121   1.078  34.400   9.174
   50POPC   GL2 6122   1.375  34.268   9.045
   50POPC   C1A 6123   0.984  34.572   8.734
   50POPC   D2A 6124   1.189  34.731   8.346
   50POPC   C3A 6125   1.031  34.683   7.948
   50POPC   C4A 6126   1.338  34.687   7.644
   50POPC   C1B 6127   1.507  34.603   8.728
   50POPC   C2B 6128   1.659  34.510   8.298
   50POPC   C3B 6129   1.745  34.390   7.840
   50POPC   C4B 6130   1.656  34.384   7.382
   51POPC   NC3 6131  18.986  38.085   9.479
   51POPC   PO4 6132  19.069  37.418   9.617
   51POPC   GL1 6133  18.876  37.475   9.169
   51POPC   GL2 6134  19.017  37.748   9.083
   51POPC   C1A 6135  18.877  37.366   8.724
   51POPC   D2A 6136  19.160  37.374   8.367
   51POPC   C3A 6137  19.028  37.446   7.978
   51POPC   C4A 6138  19.111  37.710   7.668
   51POPC   C1B 6139  19.341  37.484   8.909
   51POPC   C2B 6140  19.615  37.496   8.546
   51POPC   C3B 6141  19.515  37.631   8.095
   51POPC   C4B 6142  19.575  37.922   7.709
   52POPC   NC3 6143   5.091  14.663   9.548
   52POPC   PO4 6144   5.289  13.989   9.490
   52POPC   GL1 6145   5.172  14.277   9.180
   52POPC   GL2 6146   4.829  14.398   9.199
   52POPC   C1A 6147   5.232  14.350   8.752
   52POPC   D2A 6148   5.094  14.246   8.341
   52POPC   C3A 6149   5.342  14.370   7.964
   52POPC   C4A 6150   5.389  14.206   7.524
   52POPC   C1B 6151   4.880  14.717   8.899
   52POPC   C2B 6152   5.038  14.767   8.484
   52POPC   C3B 6153   4.921  14.655   8.052
   52POPC   C4B 6154   5.044  14.576   7.602
   53POPC   NC3 6155  11.660  21.360   9.779
   53POPC   PO4 6156  12.309  21.383   9.605
   53POPC   GL1 6157  12.107  21.427   9.225
   53POPC   GL2 6158  11.867  21.190   9.329
   53POPC   C1A 6159  12.240  21.521   8.777
   53POPC   D2A 6160  12.257  21.753   8.367
   53POPC   C3A 6161  12.115  21.550   7.953
   53POPC   C4A 6162  12.395  21.241   7.764
   53POPC   C1B 6163  11.928  21.032   8.935
   53POPC   C2B 6164  11.944  21.049   8.516
   53POPC   C3B 6165  12.055  21.021   8.100
   53POPC   C4B 6166  11.918  21.071   7.687
   54POPC   NC3 6167  16.186   7.142   9.505
   54POPC   PO4 6168  15.734   7.656   9.661
   54POPC   GL1 6169  15.957   7.549   9.280
   54POPC   GL2 6170  16.320   7.594   9.204
   54POPC   C1A 6171  15.990   7.402   8.867
   54POPC   D2A 6172  15.955   7.566   8.464
   54POPC   C3A 6173  15.905   7.285   8.162
   54POPC   C4A 6174  15.610   7.286   7.856
   54POPC   C1B 6175  16.385   7.701   8.756
   54POPC   C2B 6176  16.371   7.825   8.343
   54POPC   C3B 6177  16.263   7.630   7.966
   54POPC   C4B 6178  15.942   7.642   7.680
   55POPC   NC3 6179  39.981  13.185   9.474
   55POPC   PO4 6180  39.956  12.467   9.635
   55POPC   GL1 6181  39.997  12.702   9.247
   55POPC   GL2 6182  40.266  12.571   9.086
   55POPC   C1A 6183  39.837  12.929   8.845
   55POPC   D2A 6184  40.077  13.055   8.459
   55POPC   C3A 6185  39.942  13.089   8.037
   55POPC   C4A 6186  39.926  13.070   7.601
   55POPC   C1B 6187  40.180  12.598   8.646
   55POPC   C2B 6188  40.383  12.620   8.256
   55POPC   C3B 6189  40.236  12.706   7.880
   55POPC   C4B 6190  39.779  12.624   7.834
   56POPC   NC3 6191  31.672  39.500   9.524
   56POPC   PO4 6192  31.154  39.178   9.736
   56POPC   GL1 6193  31.349  38.984   9.309
   56POPC   GL2 6194  31.614  39.216   9.130
   56POPC   C1A 6195  31.397  38.943   8.802
   56POPC   D2A 6196  31.313  39.103   8.355
   56POPC   C3A 6197  31.067  38.852   8.021
   56POPC   C4A 6198  30.943  38.889   7.545
   56POPC   C1B 6199  31.463  39.447   8.733
   56POPC   C2B 6200  31.361  39.623   8.349
   56POPC   C3B 6201  31.443  39.518   7.938
   56POPC   C4B 6202  31.296  39.193   7.722
   57POPC   NC3 6203  28.208  13.084   9.503
   57POPC   PO4 6204  28.656  12.611   9.460
   57POPC   GL1 6205  28.526  12.873   9.144
   57POPC   GL2 6206  28.582  13.268   9.203
   57POPC   C1A 6207  28.369  12.702   8.738
   57POPC   D2A 6208  28.215  12.937   8.369
   57POPC   C3A 6209  28.055  12.893   7.932
   57POPC   C4A 6210  28.251  12.709   7.555
   57POPC   C1B 6211  28.360  13.218   8.815
   57POPC   C2B 6212  28.610  13.250   8.465
   57POPC   C3B 6213  28.442  13.284   8.080
   57POPC   C4B 6214  28.443  13.158   7.702
   58POPC   NC3 6215  40.417  25.588   9.685
   58POPC   PO4 6216  40.919  25.150   9.575
   58POPC   GL1 6217  40.898  25.161   9.149
   58POPC   GL2 6218  41.058  24.879   9.128
   58POPC   C1A 6219  40.632  25.194   8.778
   58POPC   D2A 6220  40.660  25.417   8.383
   58POPC   C3A 6221  40.737  25.326   7.900
   58POPC   C4A 6222  40.499  25.435   7.498
   58POPC   C1B 6223  40.938  24.793   8.723
   58POPC   C2B 6224  40.933  24.990   8.317
   58POPC   C3B 6225  41.143  24.935   7.927
   58POPC   C4B 6226  41.279  25.127   7.559
   59POPC   NC3 6227  36.978  33.619   9.420
   59POPC   PO4 6228  36.815  34.204   9.548
   59POPC   GL1 6229  36.685  34.073   9.113
   59POPC   GL2 6230  37.043  33.998   9.077
   59POPC   C1A 6231  36.609  33.919   8.654
   59POPC   D2A 6232  36.789  33.530   8.449
   59POPC   C3A 6233  36.657  33.309   8.076
   59POPC   C4A 6234  36.456  33.501   7.724
   59POPC   C1B 6235  37.127  33.854   8.682
   59POPC   C2B 6236  36.975  34.029   8.299
   59POPC   C3B 6237  36.773  33.814   7.993
   59POPC   C4B 6238  37.121  33.646   7.750
   60POPC   NC3 6239  36.459  21.925   9.498
   60POPC   PO4 6240  35.768  21.891   9.484
   60POPC   GL1 6241  36.039  22.090   9.182
   60POPC   GL2 6242  36.239  22.390   9.262
   60POPC   C1A 6243  36.257  21.970   8.816
   60POPC   D2A 6244  36.211  22.137   8.421
   60POPC   C3A 6245  36.160  21.869   8.100
   60POPC   C4A 6246  36.235  22.053   7.703
   60POPC   C1B 6247  36.293  22.477   8.821
   60POPC   C2B 6248  36.520  22.546   8.438
   60POPC   C3B 6249  36.408  22.558   8.032
   60POPC   C4B 6250  36.230  22.567   7.654
   61POPC   NC3 6251  21.349  12.591   9.495
   61POPC   PO4 6252  21.033  13.119   9.714
   61POPC   GL1 6253  21.377  13.055   9.295
   61POPC   GL2 6254  21.698  12.922   9.235
   61POPC   C1A 6255  21.361  12.858   8.849
   61POPC   D2A 6256  21.474  12.564   8.512
   61POPC   C3A 6257  21.479  12.723   8.071
   61POPC   C4A 6258  21.203  12.865   7.694
   61POPC   C1B 6259  21.820  13.093   8.852
   61POPC   C2B 6260  21.684  13.045   8.445
   61POPC   C3B 6261  21.457  13.239   8.125
   61POPC   C4B 6262  21.613  13.170   7.741
   62POPC   NC3 6263  14.001  44.445  10.039
   62POPC   PO4 6264  14.491  44.867   9.683
   62POPC   GL1 6265  14.428  44.829   9.234
   62POPC   GL2 6266  14.276  44.498   9.163
   62POPC   C1A 6267  14.405  44.836   8.791
   62POPC   D2A 6268  14.375  44.645   8.381
   62POPC   C3A 6269  14.369  44.869   7.955
   62POPC   C4A 6270  14.281   0.015   7.517
   62POPC   C1B 6271  14.035  44.474   8.764
   62POPC   C2B 6272  13.905  44.323   8.354
   62POPC   C3B 6273  14.006  44.386   7.891
   62POPC   C4B 6274  14.149  44.173   7.501
   63POPC   NC3 6275  28.107  15.929   9.600
   63POPC   PO4 6276  28.717  16.067   9.444
   63POPC   GL1 6277  28.597  15.736   9.143
   63POPC   GL2 6278  28.233  15.697   9.166
   63POPC   C1A 6279  28.527  15.675   8.689
   63POPC   D2A 6280  28.654  15.729   8.258
   63POPC   C3A 6281  28.504  16.074   7.991
   63POPC   C4A 6282  28.087  16.207   7.795
   63POPC   C1B 6283  28.038  15.575   8.787
   63POPC   C2B 6284  28.162  15.446   8.358
   63POPC   C3B 6285  28.177  15.676   7.940
   63POPC   C4B 6286  28.162  15.791   7.489
   64POPC   NC3 6287  39.676  40.449   9.779
   64POPC   PO4 6288  39.950  39.867   9.497
   64POPC   GL1 6289  40.065  39.803   9.095
   64POPC   GL2 6290  40.053  40.142   9.082
   64POPC   C1A 6291  39.989  39.895   8.652
   64POPC   D2A 6292  40.075  39.720   8.302
   64POPC   C3A 6293  39.800  39.705   7.984
   64POPC   C4A 6294  40.057  39.767   7.679
   64POPC   C1B 6295  40.168  40.352   8.739
   64POPC   C2B 6296  40.003  40.345   8.329
   64POPC   C3B 6297  39.975  40.208   7.940
   64POPC   C4B 6298  39.738  40.163   7.600
   65POPC   NC3 6299  15.734  38.465   9.534
   65POPC   PO4 6300  16.198  38.047   9.466
   65POPC   GL1 6301  15.980  38.250   9.138
   65POPC   GL2 6302  15.677  38.066   9.207
   65POPC   C1A 6303  15.996  38.517   8.765
   65POPC   D2A 6304  16.177  38.746   8.397
   65POPC   C3A 6305  15.949  38.620   8.019
   65POPC   C4A 6306  16.049  38.401   7.612
   65POPC   C1B 6307  15.593  38.180   8.776
   65POPC   C2B 6308  15.742  38.284   8.347
   65POPC   C3B 6309  15.633  38.248   7.886
   65POPC   C4B 6310  15.593  38.358   7.417
   66POPC   NC3 6311  33.155  22.680   9.537
   66POPC   PO4 6312  33.165  23.239   9.326
   66POPC   GL1 6313  33.039  22.859   9.059
   66POPC   GL2 6314  33.235  22.514   9.048
   66POPC   C1A 6315  32.967  22.992   8.633
   66POPC   D2A 6316  33.245  23.082   8.264
   66POPC   C3A 6317  33.005  23.030   7.883
   66POPC   C4A 6318  32.724  23.091   7.519
   66POPC   C1B 6319  33.002  22.452   8.650
   66POPC   C2B 6320  32.883  22.683   8.242
   66POPC   C3B 6321  32.668  22.621   7.802
   66POPC   C4B 6322  32.616  22.606   7.326
   67POPC   NC3 6323   0.801  29.952   9.489
   67POPC   PO4 6324   0.090  30.026   9.396
   67POPC   GL1 6325   0.187  29.817   9.046
   67POPC   GL2 6326   0.507  29.957   9.026
   67POPC   C1A 6327   0.172  29.895   8.620
   67POPC   D2A 6328   0.466  29.836   8.304
   67POPC   C3A 6329   0.280  29.729   7.916
   67POPC   C4A 6330   0.307  30.096   7.668
   67POPC   C1B 6331   0.882  29.857   8.796
   67POPC   C2B 6332   0.984  29.923   8.361
   67POPC   C3B 6333   0.813  29.989   7.939
   67POPC   C4B 6334   0.943  30.263   7.623
   68POPC   NC3 6335   3.624  19.552   9.372
   68POPC   PO4 6336   3.211  19.973   9.438
   68POPC   GL1 6337   3.366  19.870   9.065
   68POPC   GL2 6338   3.219  19.550   9.044
   68POPC   C1A 6339   3.616  19.709   8.732
   68POPC   D2A 6340   3.647  19.898   8.356
   68POPC   C3A 6341   3.715  19.679   7.997
   68POPC   C4A 6342   3.668  19.762   7.582
   68POPC   C1B 6343   3.093  19.729   8.658
   68POPC   C2B 6344   3.154  19.906   8.264
   68POPC   C3B 6345   3.338  20.052   7.895
   68POPC   C4B 6346   3.172  19.805   7.589
   69POPC   NC3 6347  14.807   1.990   9.779
   69POPC   PO4 6348  14.197   2.043   9.561
   69POPC   GL1 6349  14.470   1.761   9.322
   69POPC   GL2 6350  14.749   1.930   9.213
   69POPC   C1A 6351  14.474   1.716   8.841
   69POPC   D2A 6352  14.265   1.949   8.517
   69POPC   C3A 6353  14.214   1.813   8.092
   69POPC   C4A 6354  14.210   2.091   7.780
   69POPC   C1B 6355  14.735   2.149   8.819
   69POPC   C2B 6356  14.780   1.925   8.454
   69POPC   C3B 6357  14.675   2.055   8.079
   69POPC   C4B 6358  14.662   1.898   7.703
   70POPC   NC3 6359   3.196  36.477   9.392
   70POPC   PO4 6360   2.762  35.952   9.551
   70POPC   GL1 6361   2.638  36.040   9.128
   70POPC   GL2 6362   2.928  36.186   8.982
   70POPC   C1A 6363   2.509  36.116   8.711
   70POPC   D2A 6364   2.740  36.242   8.399
   70POPC   C3A 6365   2.610  36.075   8.018
   70POPC   C4A 6366   2.668  36.308   7.618
   70POPC   C1B 6367   2.995  35.853   8.697
   70POPC   C2B 6368   3.109  35.921   8.276
   70POPC   C3B 6369   3.090  36.188   7.917
   70POPC   C4B 6370   3.127  36.078   7.516
   71POPC   NC3 6371  32.043  44.943   9.539
   71POPC   PO4 6372  32.712  44.914   9.706
   71POPC   GL1 6373  32.484  44.626   9.335
   71POPC   GL2 6374  32.182  44.696   9.123
   71POPC   C1A 6375  32.591  44.539   8.866
   71POPC   D2A 6376  32.650  44.371   8.418
   71POPC   C3A 6377  32.492  44.493   7.993
   71POPC   C4A 6378  32.102  44.448   7.762
   71POPC   C1B 6379  32.125  44.489   8.711
   71POPC   C2B 6380  32.180  44.686   8.338
   71POPC   C3B 6381  31.973  44.928   8.040
   71POPC   C4B 6382  32.091  44.946   7.640
   72POPC   NC3 6383   7.860  42.060   9.296
   72POPC   PO4 6384   8.398  42.471   9.552
   72POPC   GL1 6385   8.166  42.455   9.131
   72POPC   GL2 6386   8.187  42.108   8.927
   72POPC   C1A 6387   8.175  42.524   8.669
   72POPC   D2A 6388   8.203  42.170   8.404
   72POPC   C3A 6389   8.049  42.182   8.023
   72POPC   C4A 6390   8.179  42.413   7.671
   72POPC   C1B 6391   7.782  42.093   8.678
   72POPC   C2B 6392   7.574  42.121   8.313
   72POPC   C3B 6393   7.575  41.977   7.923
   72POPC   C4B 6394   7.674  42.309   7.701
   73POPC   NC3 6395  42.332  22.610   9.704
   73POPC   PO4 6396  42.495  23.126   9.265
   73POPC   GL1 6397  42.182  22.886   9.045
   73POPC   GL2 6398  42.053  22.613   9.226
   73POPC   C1A 6399  42.251  22.798   8.596
   73POPC   D2A 6400  42.607  22.971   8.341
   73POPC   C3A 6401  42.570  22.902   7.913
   73POPC   C4A 6402  42.533  23.136   7.513
   73POPC   C1B 6403  41.952  22.451   8.839
   73POPC   C2B 6404  41.996  22.363   8.419
   73POPC   C3B 6405  42.029  22.667   8.109
   73POPC   C4B 6406  42.142  22.679   7.679
   74POPC   NC3 6407  20.508   9.133   9.502
   74POPC   PO4 6408  21.078   8.743   9.375
   74POPC   GL1 6409  20.708   8.879   9.118
   74POPC   GL2 6410  20.843   9.218   9.066
   74POPC   C1A 6411  20.429   9.122   8.813
   74POPC   D2A 6412  20.518   9.105   8.390
   74POPC   C3A 6413  20.251   9.168   8.065
   74POPC   C4A 6414  20.287   9.017   7.625
   74POPC   C1B 6415  20.917   9.340   8.617
   74POPC   C2B 6416  20.782   9.472   8.171
   74POPC   C3B 6417  20.723   9.106   7.885
   74POPC   C4B 6418  20.874   9.045   7.438
   75POPC   NC3 6419  30.746  35.885   9.418
   75POPC   PO4 6420  31.039  36.501   9.268
   75POPC   GL1 6421  30.647  36.296   9.078
   75POPC   GL2 6422  30.548  35.953   8.949
   75POPC   C1A 6423  30.545  36.436   8.679
   75POPC   D2A 6424  30.811  36.622   8.342
   75POPC   C3A 6425  30.898  36.291   8.057
   75POPC   C4A 6426  30.524  36.153   7.885
   75POPC   C1B 6427  30.786  35.990   8.571
   75POPC   C2B 6428  30.748  35.796   8.174
   75POPC   C3B 6429  30.915  35.768   7.758
   75POPC   C4B 6430  30.858  35.681   7.249
   76POPC   NC3 6431   3.274  31.249   9.553
   76POPC   PO4 6432   3.691  31.685   9.609
   76POPC   GL1 6433   3.757  31.452   9.214
   76POPC   GL2 6434   3.471  31.338   9.109
   76POPC   C1A 6435   3.765  31.579   8.783
   76POPC   D2A 6436   3.913  31.583   8.373
   76POPC   C3A 6437   3.580  31.751   8.120
   76POPC   C4A 6438   3.450  31.541   7.745
   76POPC   C1B 6439   3.408  31.185   8.715
   76POPC   C2B 6440   3.435  31.347   8.374
   76POPC   C3B 6441   3.332  31.120   8.042
   76POPC   C4B 6442   3.377  30.993   7.665
   77POPC   NC3 6443  19.842  12.332   9.490
   77POPC   PO4 6444  20.186  11.726   9.478
   77POPC   GL1 6445  19.883  11.749   9.100
   77POPC   GL2 6446  19.763  12.119   9.040
   77POPC   C1A 6447  19.862  11.817   8.656
   77POPC   D2A 6448  20.017  12.210   8.507
   77POPC   C3A 6449  20.033  12.189   8.075
   77POPC   C4A 6450  19.933  11.923   7.707
   77POPC   C1B 6451  19.540  12.301   8.689
   77POPC   C2B 6452  19.570  12.435   8.243
   77POPC   C3B 6453  19.631  12.313   7.788
   77POPC   C4B 6454  19.949  12.374   7.431
   78POPC   NC3 6455  29.523   0.834   9.294
   78POPC   PO4 6456  29.999   0.585   9.745
   78POPC   GL1 6457  29.998   0.447   9.294
   78POPC   GL2 6458  29.692   0.324   9.211
   78POPC   C1A 6459  30.169   0.341   8.873
   78POPC   D2A 6460  30.147   0.446   8.415
   78POPC   C3A 6461  30.451   0.344   8.089
   78POPC   C4A 6462  30.258   0.272   7.686
   78POPC   C1B 6463  29.678   0.430   8.779
   78POPC   C2B 6464  29.671   0.247   8.379
   78POPC   C3B 6465  29.738   0.576   8.113
   78POPC   C4B 6466  29.760   0.731   7.740
   79POPC   NC3 6467  12.419   2.555   9.556
   79POPC   PO4 6468  11.920   3.020   9.398
   79POPC   GL1 6469  12.037   2.740   9.074
   79POPC   GL2 6470  12.366   2.810   9.119
   79POPC   C1A 6471  12.150   2.714   8.632
   79POPC   D2A 6472  11.910   2.691   8.287
   79POPC   C3A 6473  12.022   2.456   7.956
   79POPC   C4A 6474  12.131   2.759   7.665
   79POPC   C1B 6475  12.482   2.460   8.907
   79POPC   C2B 6476  12.672   2.555   8.532
   79POPC   C3B 6477  12.450   2.655   8.157
   79POPC   C4B 6478  12.537   2.407   7.806
   80POPC   NC3 6479  14.647   1.243   9.527
   80POPC   PO4 6480  14.015   1.303   9.430
   80POPC   GL1 6481  14.361   1.303   9.101
   80POPC   GL2 6482  14.797   1.411   9.090
   80POPC   C1A 6483  14.180   1.128   8.723
   80POPC   D2A 6484  14.169   0.846   8.371
   80POPC   C3A 6485  14.053   1.145   8.099
   80POPC   C4A 6486  14.198   1.318   7.765
   80POPC   C1B 6487  14.685   1.258   8.704
   80POPC   C2B 6488  14.446   1.444   8.387
   80POPC   C3B 6489  14.615   1.503   8.005
   80POPC   C4B 6490  14.659   1.419   7.566
   81POPC   NC3 6491  43.684  41.735   9.560
   81POPC   PO4 6492  44.347  41.418   9.677
   81POPC   GL1 6493  44.101  41.497   9.306
   81POPC   GL2 6494  43.777  41.288   9.337
   81POPC   C1A 6495  44.217  41.562   8.857
   81POPC   D2A 6496  44.144  41.329   8.451
   81POPC   C3A 6497  44.057  41.552   8.059
   81POPC   C4A 6498  43.962  41.871   7.742
   81POPC   C1B 6499  43.757  41.380   8.898
   81POPC   C2B 6500  43.682  41.566   8.488
   81POPC   C3B 6501  43.554  41.685   8.081
   81POPC   C4B 6502  43.667  41.486   7.686
   82POPC   NC3 6503   3.947  10.899   9.505
   82POPC   PO4 6504   3.294  10.696   9.556
   82POPC   GL1 6505   3.470  10.549   9.145
   82POPC   GL2 6506   3.821  10.513   9.104
   82POPC   C1A 6507   3.536  10.305   8.764
   82POPC   D2A 6508   3.550  10.466   8.354
   82POPC   C3A 6509   3.496  10.233   7.982
   82POPC   C4A 6510   3.491  10.394   7.543
   82POPC   C1B 6511   4.064  10.431   8.710
   82POPC   C2B 6512   4.052  10.565   8.260
   82POPC   C3B 6513   4.014  10.446   7.808
   82POPC   C4B 6514   3.994  10.446   7.338
   83POPC   NC3 6515  11.747  43.689   9.485
   83POPC   PO4 6516  12.252  44.029   9.753
   83POPC   GL1 6517  12.124  43.981   9.298
   83POPC   GL2 6518  12.259  43.761   9.050
   83POPC   C1A 6519  11.875  44.038   8.880
   83POPC   D2A 6520  11.737  44.074   8.415
   83POPC   C3A 6521  11.894  43.767   8.076
   83POPC   C4A 6522  12.047  43.887   7.675
   83POPC   C1B 6523  12.540  43.781   8.671
   83POPC   C2B 6524  12.371  43.790   8.268
   83POPC   C3B 6525  12.351  43.530   7.925
   83POPC   C4B 6526  12.355  43.537   7.444
   84POPC   NC3 6527  42.510  18.386   9.475
   84POPC   PO4 6528  41.904  18.187   9.461
   84POPC   GL1 6529  42.158  18.259   9.086
   84POPC   GL2 6530  42.476  18.082   9.019
   84POPC   C1A 6531  42.161  18.333   8.638
   84POPC   D2A 6532  42.069  18.570   8.273
   84POPC   C3A 6533  42.182  18.425   7.852
   84POPC   C4A 6534  42.339  18.060   7.657
   84POPC   C1B 6535  42.606  18.502   8.842
   84POPC   C2B 6536  42.522  18.677   8.464
   84POPC   C3B 6537  42.599  18.466   8.140
   84POPC   C4B 6538  42.708  18.452   7.723
   85POPC   NC3 6539  24.200  10.603   9.586
   85POPC   PO4 6540  23.559  10.907   9.431
   85POPC   GL1 6541  23.836  10.671   9.153
   85POPC   GL2 6542  24.063  10.381   9.164
   85POPC   C1A 6543  23.646  10.414   8.813
   85POPC   D2A 6544  23.667  10.167   8.428
   85POPC   C3A 6545  23.558  10.365   8.061
   85POPC   C4A 6546  23.483  10.641   7.711
   85POPC   C1B 6547  24.142  10.490   8.752
   85POPC   C2B 6548  23.970  10.570   8.384
   85POPC   C3B 6549  24.075  10.419   8.002
   85POPC   C4B 6550  23.841  10.282   7.644
   86POPC   NC3 6551  37.341  36.052   9.489
   86POPC   PO4 6552  37.988  36.260   9.454
   86POPC   GL1 6553  37.964  36.008   9.084
   86POPC   GL2 6554  37.598  35.967   9.044
   86POPC   C1A 6555  37.921  35.943   8.638
   86POPC   D2A 6556  37.904  36.162   8.263
   86POPC   C3A 6557  37.841  35.842   7.969
   86POPC   C4A 6558  37.821  35.947   7.579
   86POPC   C1B 6559  37.502  36.223   8.658
   86POPC   C2B 6560  37.423  35.981   8.263
   86POPC   C3B 6561  37.357  35.972   7.828
   86POPC   C4B 6562  37.436  36.276   7.472
   87POPC   NC3 6563  32.760  43.313   9.458
   87POPC   PO4 6564  33.361  42.899   9.526
   87POPC   GL1 6565  33.082  42.942   9.149
   87POPC   GL2 6566  32.792  42.711   9.168
   87POPC   C1A 6567  33.016  43.234   8.767
   87POPC   D2A 6568  32.820  43.347   8.356
   87POPC   C3A 6569  33.107  43.205   8.050
   87POPC   C4A 6570  33.225  43.422   7.667
   87POPC   C1B 6571  32.579  43.002   8.855
   87POPC   C2B 6572  32.694  42.856   8.446
   87POPC   C3B 6573  32.624  42.933   8.036
   87POPC   C4B 6574  32.731  43.201   7.712
   88POPC   NC3 6575  43.159   5.446   9.663
   88POPC   PO4 6576  42.854   6.068   9.453
   88POPC   GL1 6577  43.181   5.896   9.185
   88POPC   GL2 6578  43.431   5.654   9.278
   88POPC   C1A 6579  43.275   5.943   8.765
   88POPC   D2A 6580  43.360   6.231   8.441
   88POPC   C3A 6581  43.096   6.114   8.086
   88POPC   C4A 6582  43.128   5.961   7.676
   88POPC   C1B 6583  43.428   5.461   8.889
   88POPC   C2B 6584  43.208   5.432   8.504
   88POPC   C3B 6585  43.247   5.570   8.066
   88POPC   C4B 6586  43.465   5.581   7.690
   89POPC   NC3 6587  14.868  13.196   9.293
   89POPC   PO4 6588  15.017  13.799   9.571
   89POPC   GL1 6589  14.920  13.655   9.152
   89POPC   GL2 6590  15.284  13.602   9.039
   89POPC   C1A 6591  14.928  13.730   8.709
   89POPC   D2A 6592  15.285  13.658   8.463
   89POPC   C3A 6593  15.124  13.739   8.131
   89POPC   C4A 6594  15.313  13.735   7.781
   89POPC   C1B 6595  15.130  13.264   8.735
   89POPC   C2B 6596  14.924  13.275   8.346
   89POPC   C3B 6597  15.127  13.276   7.942
   89POPC   C4B 6598  14.967  13.228   7.533
   90POPC   NC3 6599  41.325  36.652   9.371
   90POPC   PO4 6600  41.283  35.967   9.500
   90POPC   GL1 6601  41.320  36.182   9.113
   90POPC   GL2 6602  41.643  36.351   9.102
   90POPC   C1A 6603  41.502  36.080   8.694
   90POPC   D2A 6604  41.748  35.924   8.364
   90POPC   C3A 6605  41.454  35.958   8.013
   90POPC   C4A 6606  41.511  35.788   7.594
   90POPC   C1B 6607  41.704  36.580   8.694
   90POPC   C2B 6608  41.665  36.482   8.216
   90POPC   C3B 6609  41.291  36.516   7.923
   90POPC   C4B 6610  41.149  36.561   7.483
   91POPC   NC3 6611  23.832  12.784   9.527
   91POPC   PO4 6612  23.483  13.294   9.508
   91POPC   GL1 6613  23.508  12.968   9.168
   91POPC   GL2 6614  23.860  13.032   9.085
   91POPC   C1A 6615  23.634  12.666   8.833
   91POPC   D2A 6616  23.900  12.732   8.476
   91POPC   C3A 6617  23.749  12.668   8.053
   91POPC   C4A 6618  24.029  12.525   7.786
   91POPC   C1B 6619  23.584  13.127   8.667
   91POPC   C2B 6620  23.533  13.098   8.244
   91POPC   C3B 6621  23.541  13.097   7.821
   91POPC   C4B 6622  23.304  12.742   7.721
   92POPC   NC3 6623  14.341  26.917   9.577
   92POPC   PO4 6624  14.867  26.595   9.381
   92POPC   GL1 6625  14.530  26.652   9.084
   92POPC   GL2 6626  14.259  26.918   9.083
   92POPC   C1A 6627  14.334  26.622   8.664
   92POPC   D2A 6628  14.431  26.540   8.226
   92POPC   C3A 6629  14.191  26.795   7.962
   92POPC   C4A 6630  14.263  27.034   7.554
   92POPC   C1B 6631  14.559  27.074   8.798
   92POPC   C2B 6632  14.607  26.974   8.397
   92POPC   C3B 6633  14.613  27.079   7.982
   92POPC   C4B 6634  14.857  27.099   7.644
   93POPC   NC3 6635  10.150  44.799   9.378
   93POPC   PO4 6636  10.711  44.599   9.742
   93POPC   GL1 6637  10.655  44.678   9.306
   93POPC   GL2 6638  10.411  44.456   9.114
   93POPC   C1A 6639  10.791  44.739   8.887
   93POPC   D2A 6640  10.738  44.466   8.566
   93POPC   C3A 6641  10.729  44.564   8.143
   93POPC   C4A 6642  10.745  44.464   7.728
   93POPC   C1B 6643  10.275  44.619   8.745
   93POPC   C2B 6644  10.228  44.476   8.349
   93POPC   C3B 6645  10.276  44.477   7.933
   93POPC   C4B 6646  10.330  44.769   7.582
   94POPC   NC3 6647  17.261   2.348   9.547
   94POPC   PO4 6648  17.487   2.982   9.609
   94POPC   GL1 6649  17.409   2.773   9.247
   94POPC   GL2 6650  17.173   3.035   9.213
   94POPC   C1A 6651  17.663   2.702   8.889
   94POPC   D2A 6652  17.520   2.701   8.478
   94POPC   C3A 6653  17.726   2.633   8.095
   94POPC   C4A 6654  17.599   2.506   7.741
   94POPC   C1B 6655  17.323   3.061   8.815
   94POPC   C2B 6656  17.275   3.154   8.398
   94POPC   C3B 6657  17.259   2.894   8.056
   94POPC   C4B 6658  17.274   3.013   7.650
   95POPC   NC3 6659  34.219  35.338   9.243
   95POPC   PO4 6660  34.724  35.715   9.420
   95POPC   GL1 6661  34.821  35.420   9.106
   95POPC   GL2 6662  34.786  35.050   9.221
   95POPC   C1A 6663  34.883  35.513   8.660
   95POPC   D2A 6664  35.093  35.461   8.256
   95POPC   C3A 6665  34.758  35.486   7.976
   95POPC   C4A 6666  34.286  35.543   7.942
   95POPC   C1B 6667  34.641  35.066   8.781
   95POPC   C2B 6668  34.547  35.198   8.360
   95POPC   C3B 6669  34.608  35.001   7.956
   95POPC   C4B 6670  34.510  35.259   7.585
   96POPC   NC3 6671  16.060  29.601   9.732
   96POPC   PO4 6672  15.577  29.177   9.493
   96POPC   GL1 6673  15.809  29.301   9.167
   96POPC   GL2 6674  16.124  29.393   9.260
   96POPC   C1A 6675  15.928  29.046   8.845
   96POPC   D2A 6676  15.704  28.842   8.521
   96POPC   C3A 6677  15.956  28.825   8.174
   96POPC   C4A 6678  16.075  28.980   7.751
   96POPC   C1B 6679  16.097  29.543   8.811
   96POPC   C2B 6680  15.976  29.353   8.419
   96POPC   C3B 6681  15.714  29.260   8.089
   96POPC   C4B 6682  15.877  29.448   7.702
   97POPC   NC3 6683   5.469   2.317   9.531
   97POPC   PO4 6684   5.996   2.033   9.425
   97POPC   GL1 6685   5.930   2.090   9.048
   97POPC   GL2 6686   5.618   2.202   9.053
   97POPC   C1A 6687   5.995   1.876   8.702
   97POPC   D2A 6688   5.851   2.001   8.342
   97POPC   C3A 6689   5.726   1.742   8.062
   97POPC   C4A 6690   5.986   1.804   7.737
   97POPC   C1B 6691   5.687   2.382   8.650
   97POPC   C2B 6692   5.501   2.355   8.258
   97POPC   C3B 6693   5.733   2.234   7.895
   97POPC   C4B 6694   6.053   2.380   7.631
   98POPC   NC3 6695  41.918  37.845   9.367
   98POPC   PO4 6696  42.314  37.493   9.689
   98POPC   GL1 6697  42.285  37.619   9.174
   98POPC   GL2 6698  42.012  37.401   9.136
   98POPC   C1A 6699  42.387  37.846   8.770
   98POPC   D2A 6700  42.561  37.883   8.327
   98POPC   C3A 6701  42.233  37.898   7.967
   98POPC   C4A 6702  42.318  37.746   7.568
   98POPC   C1B 6703  42.162  37.381   8.723
   98POPC   C2B 6704  42.189  37.542   8.341
   98POPC   C3B 6705  42.357  37.404   7.952
   98POPC   C4B 6706  42.103  37.195   7.653
   99POPC   NC3 6707  23.134  44.452   9.446
   99POPC   PO4 6708  22.676  44.915   9.558
   99POPC   GL1 6709  22.703  44.890   9.139
   99POPC   GL2 6710  22.676  44.542   9.080
   99POPC   C1A 6711  22.568  44.842   8.711
   99POPC   D2A 6712  22.838  44.669   8.416
   99POPC   C3A 6713  22.736  44.738   8.028
   99POPC   C4A 6714  22.971  44.643   7.662
   99POPC   C1B 6715  23.007  44.382   8.809
   99POPC   C2B 6716  23.227  44.252   8.454
   99POPC   C3B 6717  23.195  44.390   8.043
   99POPC   C4B 6718  23.423  44.369   7.654
  100POPC   NC3 6719  10.771   3.780   9.591
  100POPC   PO4 6720  10.435   3.192   9.691
  100POPC   GL1 6721  10.392   3.385   9.257
  100POPC   GL2 6722  10.612   3.634   9.117
  100POPC   C1A 6723  10.237   3.332   8.802
  100POPC   D2A 6724  10.091   3.248   8.352
  100POPC   C3A 6725  10.357   3.363   7.972
  100POPC   C4A 6726  10.316   3.790   7.812
  100POPC   C1B 6727  10.732   3.473   8.716
  100POPC   C2B 6728  10.700   3.236   8.328
  100POPC   C3B 6729  10.907   3.245   7.965
  100POPC   C4B 6730  10.819   3.569   7.714
  101POPC   NC3 6731   0.269   1.233   9.412
  101POPC   PO4 6732   0.897   1.483   9.425
  101POPC   GL1 6733   0.673   1.349   9.109
  101POPC   GL2 6734   0.701   1.000   9.164
  101POPC   C1A 6735   0.362   1.376   8.785
  101POPC   D2A 6736   0.273   1.210   8.399
  101POPC   C3A 6737   0.420   1.380   8.006
  101POPC   C4A 6738   0.211   1.340   7.620
  101POPC   C1B 6739   0.464   0.873   8.798
  101POPC   C2B 6740   0.291   0.686   8.419
  101POPC   C3B 6741   0.275   0.860   8.031
  101POPC   C4B 6742   0.557   0.963   7.734
  102POPC   NC3 6743  19.759  11.451   9.498
  102POPC   PO4 6744  20.231  10.828   9.583
  102POPC   GL1 6745  20.125  11.168   9.220
  102POPC   GL2 6746  19.748  11.154   9.083
  102POPC   C1A 6747  20.087  11.349   8.777
  102POPC   D2A 6748  19.892  11.218   8.390
  102POPC   C3A 6749  20.106  11.079   8.023
  102POPC   C4A 6750  19.909  10.995   7.614
  102POPC   C1B 6751  19.518  11.416   8.758
  102POPC   C2B 6752  19.534  11.582   8.304
  102POPC   C3B 6753  19.790  11.476   7.905
  102POPC   C4B 6754  19.576  11.498   7.464
  103POPC   NC3 6755  25.306  39.996   9.464
  103POPC   PO4 6756  25.510  40.650   9.589
  103POPC   GL1 6757  25.280  40.762   9.226
  103POPC   GL2 6758  25.574  40.827   9.068
  103POPC   C1A 6759  25.086  40.628   8.873
  103POPC   D2A 6760  24.904  40.753   8.500
  103POPC   C3A 6761  25.112  40.629   8.097
  103POPC   C4A 6762  25.212  40.787   7.669
  103POPC   C1B 6763  25.733  40.948   8.698
  103POPC   C2B 6764  25.701  40.776   8.313
  103POPC   C3B 6765  25.638  40.675   7.913
  103POPC   C4B 6766  25.717  40.948   7.585
  104POPC   NC3 6767  17.623   7.988   9.479
  104POPC   PO4 6768  17.371   8.616   9.725
  104POPC   GL1 6769  17.503   8.435   9.246
  104POPC   GL2 6770  17.253   8.505   8.979
  104POPC   C1A 6771  17.739   8.293   8.868
  104POPC   D2A 6772  17.712   8.018   8.485
  104POPC   C3A 6773  17.400   8.091   8.163
  104POPC   C4A 6774  17.520   8.232   7.765
  104POPC   C1B 6775  17.471   8.664   8.624
  104POPC   C2B 6776  17.570   8.581   8.194
  104POPC   C3B 6777  17.283   8.654   7.858
  104POPC   C4B 6778  17.181   8.469   7.421
  105POPC   NC3 6779  17.213  22.134   9.424
  105POPC   PO4 6780  17.613  21.732   9.416
  105POPC   GL1 6781  17.562  22.011   9.063
  105POPC   GL2 6782  17.586  22.363   9.173
  105POPC   C1A 6783  17.441  21.968   8.630
  105POPC   D2A 6784  17.143  22.028   8.315
  105POPC   C3A 6785  17.313  22.099   7.919
  105POPC   C4A 6786  17.581  21.924   7.616
  105POPC   C1B 6787  17.652  22.420   8.736
  105POPC   C2B 6788  17.532  22.380   8.297
  105POPC   C3B 6789  17.760  22.346   7.889
  105POPC   C4B 6790  17.598  22.428   7.454
  106POPC   NC3 6791  37.958   9.958   9.392
  106POPC   PO4 6792  37.719   9.361   9.559
  106POPC   GL1 6793  37.733   9.472   9.103
  106POPC   GL2 6794  37.647   9.814   9.003
  106POPC   C1A 6795  37.726   9.448   8.618
  106POPC   D2A 6796  37.476   9.709   8.382
  106POPC   C3A 6797  37.610   9.646   7.974
  106POPC   C4A 6798  37.761   9.602   7.567
  106POPC   C1B 6799  37.992   9.867   8.695
  106POPC   C2B 6800  37.945   9.963   8.238
  106POPC   C3B 6801  37.859  10.051   7.790
  106POPC   C4B 6802  38.185   9.911   7.498
  107POPC   NC3 6803   7.261  17.994   9.360
  107POPC   PO4 6804   7.871  18.365   9.566
  107POPC   GL1 6805   7.611  18.304   9.187
  107POPC   GL2 6806   7.763  18.474   9.029
  107POPC   C1A 6807   7.321  18.355   8.824
  107POPC   D2A 6808   7.288  18.485   8.410
  107POPC   C3A 6809   7.233  18.279   8.038
  107POPC   C4A 6810   7.382  18.635   7.837
  107POPC   C1B 6811   7.772  18.136   8.701
  107POPC   C2B 6812   7.682  18.062   8.241
  107POPC   C3B 6813   7.689  18.231   7.814
  107POPC   C4B 6814   7.828  18.083   7.384
  108POPC   NC3 6815  12.304  15.138   9.523
  108POPC   PO4 6816  11.662  15.349   9.248
  108POPC   GL1 6817  12.025  15.172   9.077
  108POPC   GL2 6818  12.091  14.856   9.105
  108POPC   C1A 6819  12.125  15.120   8.666
  108POPC   D2A 6820  11.949  15.371   8.354
  108POPC   C3A 6821  12.154  15.383   7.967
  108POPC   C4A 6822  11.824  15.296   7.672
  108POPC   C1B 6823  11.796  14.728   8.785
  108POPC   C2B 6824  11.776  14.889   8.357
  108POPC   C3B 6825  12.034  14.891   7.996
  108POPC   C4B 6826  12.142  14.552   7.742
  109POPC   NC3 6827   8.953  40.066   9.409
  109POPC   PO4 6828   8.290  40.021   9.501
  109POPC   GL1 6829   8.502  40.080   9.120
  109POPC   GL2 6830   8.521  39.732   9.029
  109POPC   C1A 6831   8.757  40.113   8.740
  109POPC   D2A 6832   9.129  40.000   8.468
  109POPC   C3A 6833   9.094  40.056   8.005
  109POPC   C4A 6834   8.958  40.283   7.629
  109POPC   C1B 6835   8.800  39.592   8.667
  109POPC   C2B 6836   9.053  39.522   8.282
  109POPC   C3B 6837   8.938  39.602   7.854
  109POPC   C4B 6838   9.185  39.843   7.518
  110POPC   NC3 6839  31.441  37.490   9.688
  110POPC   PO4 6840  31.547  36.870   9.513
  110POPC   GL1 6841  31.509  36.809   9.083
  110POPC   GL2 6842  31.778  36.588   8.993
  110POPC   C1A 6843  31.366  36.694   8.687
  110POPC   D2A 6844  31.573  36.869   8.357
  110POPC   C3A 6845  31.396  37.060   8.035
  110POPC   C4A 6846  31.133  36.824   7.765
  110POPC   C1B 6847  31.946  36.530   8.554
  110POPC   C2B 6848  31.917  36.609   8.093
  110POPC   C3B 6849  31.649  36.748   7.729
  110POPC   C4B 6850  31.769  36.804   7.282
  111POPC   NC3 6851  27.923  14.256   9.532
  111POPC   PO4 6852  27.383  14.651   9.428
  111POPC   GL1 6853  27.668  14.435   9.129
  111POPC   GL2 6854  27.824  14.076   9.064
  111POPC   C1A 6855  27.838  14.460   8.728
  111POPC   D2A 6856  27.654  14.643   8.416
  111POPC   C3A 6857  27.711  14.536   8.022
  111POPC   C4A 6858  27.575  14.849   7.751
  111POPC   C1B 6859  27.454  14.122   8.773
  111POPC   C2B 6860  27.515  14.084   8.329
  111POPC   C3B 6861  27.337  14.188   7.949
  111POPC   C4B 6862  27.482  14.352   7.592
  112POPC   NC3 6863  14.169  43.786   9.483
  112POPC   PO4 6864  14.740  43.538   9.317
  112POPC   GL1 6865  14.657  43.997   9.144
  112POPC   GL2 6866  14.307  43.995   9.062
  112POPC   C1A 6867  14.543  44.300   8.768
  112POPC   D2A 6868  14.401  44.137   8.381
  112POPC   C3A 6869  14.506  44.313   8.013
  112POPC   C4A 6870  14.600  44.048   7.687
  112POPC   C1B 6871  14.053  43.975   8.712
  112POPC   C2B 6872  13.998  43.820   8.337
  112POPC   C3B 6873  14.162  43.884   7.948
  112POPC   C4B 6874  14.216  43.592   7.610
  113POPC   NC3 6875  16.747  41.401   9.573
  113POPC   PO4 6876  16.711  42.135   9.607
  113POPC   GL1 6877  16.755  41.794   9.255
  113POPC   GL2 6878  17.005  41.506   9.147
  113POPC   C1A 6879  16.688  41.730   8.824
  113POPC   D2A 6880  16.647  41.428   8.472
  113POPC   C3A 6881  16.739  41.554   8.041
  113POPC   C4A 6882  16.499  41.595   7.673
  113POPC   C1B 6883  17.110  41.373   8.709
  113POPC   C2B 6884  17.238  41.432   8.260
  113POPC   C3B 6885  17.147  41.308   7.828
  113POPC   C4B 6886  16.963  41.534   7.505
  114POPC   NC3 6887  43.655   1.604   9.490
  114POPC   PO4 6888  44.158   1.139   9.643
  114POPC   GL1 6889  44.066   1.091   9.166
  114POPC   GL2 6890  44.319   0.854   9.007
  114POPC   C1A 6891  43.901   1.295   8.754
  114POPC   D2A 6892  43.658   1.448   8.387
  114POPC   C3A 6893  43.874   1.362   7.992
  114POPC   C4A 6894  43.796   1.022   7.745
  114POPC   C1B 6895  44.372   1.094   8.655
  114POPC   C2B 6896  44.303   1.195   8.229
  114POPC   C3B 6897  44.304   1.033   7.786
  114POPC   C4B 6898  44.129   1.035   7.341
  115POPC   NC3 6899  30.455   3.643   9.523
  115POPC   PO4 6900  30.750   3.063   9.645
  115POPC   GL1 6901  30.799   3.397   9.261
  115POPC   GL2 6902  30.886   3.750   9.254
  115POPC   C1A 6903  30.567   3.715   8.884
  115POPC   D2A 6904  30.656   3.919   8.503
  115POPC   C3A 6905  30.346   3.812   8.186
  115POPC   C4A 6906  30.409   3.573   7.822
  115POPC   C1B 6907  31.040   3.564   8.862
  115POPC   C2B 6908  31.096   3.627   8.460
  115POPC   C3B 6909  30.873   3.684   8.108
  115POPC   C4B 6910  30.957   3.534   7.719
  116POPC   NC3 6911   4.308  11.582   9.538
  116POPC   PO4 6912   4.363  10.972   9.681
  116POPC   GL1 6913   4.472  11.161   9.269
  116POPC   GL2 6914   4.182  11.332   9.114
  116POPC   C1A 6915   4.623  11.457   8.925
  116POPC   D2A 6916   4.610  11.478   8.464
  116POPC   C3A 6917   4.354  11.441   8.089
  116POPC   C4A 6918   4.493  11.389   7.665
  116POPC   C1B 6919   4.101  11.287   8.722
  116POPC   C2B 6920   4.110  11.071   8.346
  116POPC   C3B 6921   3.929  11.153   7.936
  116POPC   C4B 6922   3.981  11.288   7.516
  117POPC   NC3 6923  17.745  41.388   9.506
  117POPC   PO4 6924  17.182  41.791   9.551
  117POPC   GL1 6925  17.382  41.862   9.168
  117POPC   GL2 6926  17.522  41.549   9.056
  117POPC   C1A 6927  17.207  41.858   8.768
  117POPC   D2A 6928  17.570  41.721   8.538
  117POPC   C3A 6929  17.686  41.858   8.146
  117POPC   C4A 6930  17.560  41.596   7.822
  117POPC   C1B 6931  17.918  41.471   8.818
  117POPC   C2B 6932  18.054  41.549   8.380
  117POPC   C3B 6933  18.064  41.321   8.004
  117POPC   C4B 6934  17.872  41.268   7.610
  118POPC   NC3 6935  29.001   6.433   9.409
  118POPC   PO4 6936  29.528   6.955   9.477
  118POPC   GL1 6937  29.383   6.670   9.128
  118POPC   GL2 6938  29.455   6.340   9.149
  118POPC   C1A 6939  29.092   6.569   8.776
  118POPC   D2A 6940  28.898   6.765   8.411
  118POPC   C3A 6941  29.074   6.657   8.008
  118POPC   C4A 6942  29.172   6.702   7.600
  118POPC   C1B 6943  29.538   6.276   8.734
  118POPC   C2B 6944  29.417   6.459   8.343
  118POPC   C3B 6945  29.499   6.334   7.903
  118POPC   C4B 6946  29.563   6.431   7.451
  119POPC   NC3 6947   7.096  13.069   9.524
  119POPC   PO4 6948   7.167  12.436   9.705
  119POPC   GL1 6949   7.454  12.623   9.297
  119POPC   GL2 6950   7.458  12.994   9.178
  119POPC   C1A 6951   7.521  12.686   8.800
  119POPC   D2A 6952   7.227  12.818   8.447
  119POPC   C3A 6953   7.399  12.765   8.035
  119POPC   C4A 6954   7.681  12.926   7.696
  119POPC   C1B 6955   7.307  13.202   8.802
  119POPC   C2B 6956   7.288  13.366   8.385
  119POPC   C3B 6957   7.240  13.239   7.938
  119POPC   C4B 6958   7.294  13.201   7.468
  120POPC   NC3 6959  19.716  27.875   9.682
  120POPC   PO4 6960  19.768  28.496   9.581
  120POPC   GL1 6961  19.622  28.280   9.254
  120POPC   GL2 6962  19.955  28.301   9.086
  120POPC   C1A 6963  19.528  28.412   8.849
  120POPC   D2A 6964  19.799  28.256   8.535
  120POPC   C3A 6965  19.704  28.273   8.124
  120POPC   C4A 6966  19.861  28.247   7.722
  120POPC   C1B 6967  19.992  28.654   8.794
  120POPC   C2B 6968  19.972  28.738   8.387
  120POPC   C3B 6969  20.141  28.565   8.021
  120POPC   C4B 6970  20.316  28.464   7.633
  121POPC   NC3 6971  21.727  42.347   9.343
  121POPC   PO4 6972  22.397  42.473   9.553
  121POPC   GL1 6973  22.198  42.364   9.164
  121POPC   GL2 6974  22.003  42.600   8.993
  121POPC   C1A 6975  22.137  42.144   8.770
  121POPC   D2A 6976  22.289  42.240   8.335
  121POPC   C3A 6977  22.225  42.028   7.936
  121POPC   C4A 6978  22.195  42.102   7.493
  121POPC   C1B 6979  22.414  42.580   8.705
  121POPC   C2B 6980  22.356  42.767   8.328
  121POPC   C3B 6981  21.980  42.596   8.122
  121POPC   C4B 6982  21.891  42.463   7.708
  122POPC   NC3 6983  34.340  11.027   9.569
  122POPC   PO4 6984  34.535  10.357   9.663
  122POPC   GL1 6985  34.506  10.375   9.234
  122POPC   GL2 6986  34.402  10.703   9.167
  122POPC   C1A 6987  34.735  10.466   8.845
  122POPC   D2A 6988  34.909  10.501   8.424
  122POPC   C3A 6989  34.700  10.634   8.073
  122POPC   C4A 6990  34.718  10.424   7.701
  122POPC   C1B 6991  34.510  10.922   8.795
  122POPC   C2B 6992  34.664  11.058   8.383
  122POPC   C3B 6993  34.731  11.126   7.939
  122POPC   C4B 6994  34.634  10.930   7.469
  123POPC   NC3 6995  10.082  36.853   9.809
  123POPC   PO4 6996   9.567  36.545   9.552
  123POPC   GL1 6997   9.735  36.805   9.177
  123POPC   GL2 6998   9.501  37.067   9.117
  123POPC   C1A 6999   9.807  37.016   8.735
  123POPC   D2A 7000   9.681  37.167   8.329
  123POPC   C3A 7001   9.971  37.014   8.030
  123POPC   C4A 7002   9.906  36.713   7.717
  123POPC   C1B 7003   9.335  36.779   8.804
  123POPC   C2B 7004   9.240  36.689   8.361
  123POPC   C3B 7005   9.448  36.780   7.968
  123POPC   C4B 7006   9.575  37.157   7.735
  124POPC   NC3 7007   0.391  41.842   9.921
  124POPC   PO4 7008   0.485  41.398   9.415
  124POPC   GL1 7009   0.527  41.536   9.050
  124POPC   GL2 7010   0.698  41.898   9.042
  124POPC   C1A 7011   0.635  41.278   8.729
  124POPC   D2A 7012   0.891  41.224   8.387
  124POPC   C3A 7013   0.701  41.405   8.013
  124POPC   C4A 7014   0.382  41.325   7.722
  124POPC   C1B 7015   0.401  41.840   8.696
  124POPC   C2B 7016   0.319  41.632   8.323
  124POPC   C3B 7017   0.364  41.815   7.922
  124POPC   C4B 7018   0.621  42.044   7.668
  125POPC   NC3 7019  26.495  30.463   9.493
  125POPC   PO4 7020  27.096  30.715   9.607
  125POPC   GL1 7021  26.924  30.554   9.220
  125POPC   GL2 7022  26.628  30.731   9.109
  125POPC   C1A 7023  26.983  30.577   8.769
  125POPC   D2A 7024  26.804  30.516   8.356
  125POPC   C3A 7025  27.125  30.564   8.109
  125POPC   C4A 7026  26.969  30.668   7.756
  125POPC   C1B 7027  26.470  30.627   8.715
  125POPC   C2B 7028  26.446  30.879   8.335
  125POPC   C3B 7029  26.496  30.682   7.931
  125POPC   C4B 7030  26.556  30.927   7.548
  126POPC   NC3 7031  25.941  27.990   9.419
  126POPC   PO4 7032  26.231  27.515   9.818
  126POPC   GL1 7033  26.328  27.579   9.292
  126POPC   GL2 7034  26.557  27.829   9.186
  126POPC   C1A 7035  26.175  27.748   8.835
  126POPC   D2A 7036  26.122  27.889   8.396
  126POPC   C3A 7037  26.008  27.599   8.050
  126POPC   C4A 7038  25.926  27.911   7.727
  126POPC   C1B 7039  26.644  27.568   8.798
  126POPC   C2B 7040  26.525  27.508   8.345
  126POPC   C3B 7041  26.463  27.777   7.979
  126POPC   C4B 7042  26.337  27.604   7.586
  127POPC   NC3 7043  33.134   9.194   9.242
  127POPC   PO4 7044  33.374   8.565   9.438
  127POPC   GL1 7045  33.239   8.748   9.034
  127POPC   GL2 7046  32.844   8.834   9.002
  127POPC   C1A 7047  33.144   8.778   8.601
  127POPC   D2A 7048  32.773   8.799   8.351
  127POPC   C3A 7049  33.080   8.760   8.011
  127POPC   C4A 7050  33.173   8.787   7.546
  127POPC   C1B 7051  32.833   9.204   8.647
  127POPC   C2B 7052  32.901   9.262   8.160
  127POPC   C3B 7053  32.788   9.053   7.751
  127POPC   C4B 7054  32.828   9.066   7.283
  128POPC   NC3 7055   6.382  17.278   9.487
  128POPC   PO4 7056   6.736  17.849   9.365
  128POPC   GL1 7057   6.632  17.541   9.122
  128POPC   GL2 7058   6.295  17.672   9.144
  128POPC   C1A 7059   6.767  17.270   8.781
  128POPC   D2A 7060   6.973  17.535   8.447
  128POPC   C3A 7061   6.774  17.621   8.025
  128POPC   C4A 7062   6.705  17.605   7.556
  128POPC   C1B 7063   6.243  17.386   8.854
  128POPC   C2B 7064   6.447  17.558   8.516
  128POPC   C3B 7065   6.279  17.517   8.181
  128POPC   C4B 7066   6.344  17.376   7.811
  129POPC   NC3 7067  30.779  31.687   9.531
  129POPC   PO4 7068  30.196  31.295   9.474
  129POPC   GL1 7069  30.322  31.579   9.113
  129POPC   GL2 7070  30.691  31.679   9.035
  129POPC   C1A 7071  30.356  31.555   8.668
  129POPC   D2A 7072  30.726  31.588   8.465
  129POPC   C3A 7073  30.762  31.422   8.079
  129POPC   C4A 7074  30.546  31.468   7.708
  129POPC   C1B 7075  31.029  31.870   8.762
  129POPC   C2B 7076  31.154  31.823   8.276
  129POPC   C3B 7077  30.884  31.877   7.865
  129POPC   C4B 7078  30.914  31.670   7.422
  130POPC   NC3 7079  43.693  25.018   9.503
  130POPC   PO4 7080  43.374  24.545   9.397
  130POPC   GL1 7081  43.667  24.437   9.097
  130POPC   GL2 7082  43.905  24.689   9.110
  130POPC   C1A 7083  43.829  24.377   8.674
  130POPC   D2A 7084  43.897  24.562   8.263
  130POPC   C3A 7085  43.883  24.288   7.902
  130POPC   C4A 7086  44.107  24.265   7.524
  130POPC   C1B 7087  44.068  24.834   8.693
  130POPC   C2B 7088  44.361  24.778   8.319
  130POPC   C3B 7089  44.223  24.685   7.885
  130POPC   C4B 7090  43.807  24.831   7.782
  131POPC   NC3 7091  38.048  28.955   9.527
  131POPC   PO4 7092  38.679  29.197   9.656
  131POPC   GL1 7093  38.573  29.254   9.233
  131POPC   GL2 7094  38.429  28.949   9.152
  131POPC   C1A 7095  38.562  29.289   8.770
  131POPC   D2A 7096  38.273  29.103   8.442
  131POPC   C3A 7097  38.303  29.299   8.070
  131POPC   C4A 7098  38.002  29.388   7.811
  131POPC   C1B 7099  38.503  28.789   8.761
  131POPC   C2B 7100  38.758  28.907   8.429
  131POPC   C3B 7101  38.577  28.842   8.026
  131POPC   C4B 7102  38.410  28.991   7.674
  132POPC   NC3 7103   5.471  34.464   9.507
  132POPC   PO4 7104   4.803  34.697   9.494
  132POPC   GL1 7105   5.088  34.575   9.182
  132POPC   GL2 7106   5.362  34.795   9.113
  132POPC   C1A 7107   5.165  34.385   8.787
  132POPC   D2A 7108   4.834  34.266   8.492
  132POPC   C3A 7109   4.863  34.329   8.052
  132POPC   C4A 7110   4.802  34.580   7.701
  132POPC   C1B 7111   5.220  34.926   8.749
  132POPC   C2B 7112   5.176  34.717   8.357
  132POPC   C3B 7113   5.167  34.868   7.931
  132POPC   C4B 7114   5.186  34.843   7.456
  133POPC   NC3 7115  29.123  10.184   9.574
  133POPC   PO4 7116  28.852  10.800   9.533
  133POPC   GL1 7117  29.115  10.561   9.224
  133POPC   GL2 7118  28.996  10.208   9.092
  133POPC   C1A 7119  29.402  10.437   8.889
  133POPC   D2A 7120  29.206  10.497   8.494
  133POPC   C3A 7121  29.458  10.465   8.124
  133POPC   C4A 7122  29.407  10.752   7.785
  133POPC   C1B 7123  28.794  10.218   8.699
  133POPC   C2B 7124  28.675  10.461   8.333
  133POPC   C3B 7125  28.967  10.556   8.025
  133POPC   C4B 7126  29.012  10.466   7.604
  134POPC   NC3 7127  42.971  32.664   9.809
  134POPC   PO4 7128  43.063  33.340   9.553
  134POPC   GL1 7129  43.123  33.331   9.102
  134POPC   GL2 7130  43.258  32.959   9.010
  134POPC   C1A 7131  42.858  33.162   8.744
  134POPC   D2A 7132  42.961  32.824   8.532
  134POPC   C3A 7133  42.895  32.902   8.110
  134POPC   C4A 7134  43.099  33.129   7.787
  134POPC   C1B 7135  43.375  33.191   8.696
  134POPC   C2B 7136  43.217  33.307   8.340
  134POPC   C3B 7137  43.475  33.473   8.037
  134POPC   C4B 7138  43.582  33.228   7.702
  135POPC   NC3 7139  19.229  27.122   9.939
  135POPC   PO4 7140  19.266  27.714   9.580
  135POPC   GL1 7141  19.094  27.579   9.164
  135POPC   GL2 7142  18.906  27.272   9.060
  135POPC   C1A 7143  19.048  27.672   8.734
  135POPC   D2A 7144  18.999  27.848   8.332
  135POPC   C3A 7145  19.159  27.675   7.952
  135POPC   C4A 7146  19.194  27.712   7.487
  135POPC   C1B 7147  19.305  27.239   8.797
  135POPC   C2B 7148  19.336  27.389   8.399
  135POPC   C3B 7149  19.312  27.192   8.043
  135POPC   C4B 7150  19.060  27.248   7.656
  136POPC   NC3 7151  26.819  25.601   9.540
  136POPC   PO4 7152  26.503  24.994   9.566
  136POPC   GL1 7153  26.607  25.157   9.163
  136POPC   GL2 7154  26.396  25.453   9.197
  136POPC   C1A 7155  26.643  24.970   8.721
  136POPC   D2A 7156  26.839  24.971   8.301
  136POPC   C3A 7157  26.996  25.408   8.133
  136POPC   C4A 7158  27.013  25.572   7.697
  136POPC   C1B 7159  26.465  25.452   8.750
  136POPC   C2B 7160  26.508  25.370   8.327
  136POPC   C3B 7161  26.562  25.358   7.880
  136POPC   C4B 7162  26.422  25.632   7.537
  137POPC   NC3 7163  39.047  36.311   9.448
  137POPC   PO4 7164  39.635  36.090   9.536
  137POPC   GL1 7165  39.411  35.911   9.144
  137POPC   GL2 7166  39.049  36.009   9.059
  137POPC   C1A 7167  39.314  35.823   8.682
  137POPC   D2A 7168  39.458  36.058   8.323
  137POPC   C3A 7169  39.666  35.878   7.932
  137POPC   C4A 7170  39.584  35.887   7.475
  137POPC   C1B 7171  38.814  36.002   8.683
  137POPC   C2B 7172  38.960  36.037   8.272
  137POPC   C3B 7173  39.186  36.110   7.909
  137POPC   C4B 7174  39.112  36.479   7.739
  138POPC   NC3 7175   7.785  12.125   9.278
  138POPC   PO4 7176   8.519  12.054   9.250
  138POPC   GL1 7177   8.195  12.094   8.958
  138POPC   GL2 7178   7.906  12.308   8.813
  138POPC   C1A 7179   8.205  11.976   8.550
  138POPC   D2A 7180   8.520  11.943   8.269
  138POPC   C3A 7181   8.304  12.050   7.916
  138POPC   C4A 7182   7.865  11.975   7.816
  138POPC   C1B 7183   8.301  12.484   8.618
  138POPC   C2B 7184   8.387  12.517   8.162
  138POPC   C3B 7185   8.584  12.470   7.746
  138POPC   C4B 7186   8.551  12.554   7.289
  139POPC   NC3 7187   2.673  38.667   9.600
  139POPC   PO4 7188   2.874  38.096   9.396
  139POPC   GL1 7189   2.927  38.472   9.166
  139POPC   GL2 7190   2.625  38.694   9.107
  139POPC   C1A 7191   3.131  38.437   8.770
  139POPC   D2A 7192   3.041  38.422   8.350
  139POPC   C3A 7193   3.235  38.248   8.011
  139POPC   C4A 7194   3.069  38.358   7.613
  139POPC   C1B 7195   2.613  38.428   8.758
  139POPC   C2B 7196   2.555  38.262   8.353
  139POPC   C3B 7197   2.431  38.411   7.971
  139POPC   C4B 7198   2.203  38.177   7.643
  140POPC   NC3 7199  43.321  24.107   9.329
  140POPC   PO4 7200  42.932  24.611   9.680
  140POPC   GL1 7201  42.965  24.743   9.172
  140POPC   GL2 7202  43.309  24.948   9.125
  140POPC   C1A 7203  42.996  24.540   8.712
  140POPC   D2A 7204  43.152  24.203   8.381
  140POPC   C3A 7205  42.967  24.240   7.962
  140POPC   C4A 7206  42.743  24.231   7.576
  140POPC   C1B 7207  43.517  24.805   8.767
  140POPC   C2B 7208  43.420  24.638   8.389
  140POPC   C3B 7209  43.428  24.534   7.955
  140POPC   C4B 7210  43.128  24.571   7.612
  141POPC   NC3 7211   1.568  31.564   9.399
  141POPC   PO4 7212   0.943  31.705   9.477
  141POPC   GL1 7213   1.028  31.320   9.259
  141POPC   GL2 7214   1.232  31.455   9.030
  141POPC   C1A 7215   0.898  31.148   8.830
  141POPC   D2A 7216   1.187  31.093   8.493
  141POPC   C3A 7217   1.183  31.350   8.170
  141POPC   C4A 7218   1.225  31.184   7.788
  141POPC   C1B 7219   1.252  31.736   8.678
  141POPC   C2B 7220   1.161  31.847   8.275
  141POPC   C3B 7221   1.310  31.734   7.842
  141POPC   C4B 7222   1.290  31.482   7.393
  142POPC   NC3 7223   3.064   2.024   9.536
  142POPC   PO4 7224   2.449   1.930   9.528
  142POPC   GL1 7225   2.724   2.069   9.156
  142POPC   GL2 7226   3.056   2.207   9.065
  142POPC   C1A 7227   2.722   1.866   8.742
  142POPC   D2A 7228   2.402   1.924   8.409
  142POPC   C3A 7229   2.594   1.782   8.054
  142POPC   C4A 7230   2.874   1.685   7.767
  142POPC   C1B 7231   2.899   2.341   8.699
  142POPC   C2B 7232   2.917   2.112   8.331
  142POPC   C3B 7233   3.058   2.149   7.935
  142POPC   C4B 7234   2.845   2.453   7.715
  143POPC   NC3 7235  32.423  31.836   9.559
  143POPC   PO4 7236  32.309  32.481   9.553
  143POPC   GL1 7237  32.242  32.206   9.258
  143POPC   GL2 7238  32.581  32.146   9.176
  143POPC   C1A 7239  32.054  32.080   8.897
  143POPC   D2A 7240  32.260  32.116   8.500
  143POPC   C3A 7241  32.089  32.309   8.166
  143POPC   C4A 7242  31.928  32.157   7.809
  143POPC   C1B 7243  32.687  32.014   8.780
  143POPC   C2B 7244  32.752  32.146   8.366
  143POPC   C3B 7245  32.536  32.081   8.010
  143POPC   C4B 7246  32.615  32.032   7.592
  144POPC   NC3 7247  42.561  33.621   9.532
  144POPC   PO4 7248  42.165  34.143   9.718
  144POPC   GL1 7249  42.299  34.025   9.278
  144POPC   GL2 7250  42.125  33.758   9.147
  144POPC   C1A 7251  42.548  33.818   8.883
  144POPC   D2A 7252  42.551  33.608   8.465
  144POPC   C3A 7253  42.545  33.876   8.081
  144POPC   C4A 7254  42.242  33.799   7.772
  144POPC   C1B 7255  42.130  34.079   8.806
  144POPC   C2B 7256  42.235  34.097   8.425
  144POPC   C3B 7257  42.107  34.360   8.139
  144POPC   C4B 7258  42.047  34.252   7.738
  145POPC   NC3 7259  40.915  17.724   9.626
  145POPC   PO4 7260  40.352  17.393   9.659
  145POPC   GL1 7261  40.537  17.579   9.268
  145POPC   GL2 7262  40.838  17.395   9.186
  145POPC   C1A 7263  40.640  17.588   8.793
  145POPC   D2A 7264  40.969  17.557   8.494
  145POPC   C3A 7265  40.843  17.783   8.138
  145POPC   C4A 7266  40.566  17.772   7.802
  145POPC   C1B 7267  41.090  17.178   8.843
  145POPC   C2B 7268  41.026  17.041   8.406
  145POPC   C3B 7269  40.828  17.246   8.060
  145POPC   C4B 7270  40.913  17.431   7.686
  146POPC   NC3 7271   3.136  40.190   9.586
  146POPC   PO4 7272   2.481  40.073   9.423
  146POPC   GL1 7273   2.768  39.900   9.129
  146POPC   GL2 7274   3.039  39.696   9.297
  146POPC   C1A 7275   2.858  40.067   8.698
  146POPC   D2A 7276   3.152  40.179   8.354
  146POPC   C3A 7277   2.889  40.296   7.986
  146POPC   C4A 7278   2.730  39.957   7.713
  146POPC   C1B 7279   3.204  39.759   8.888
  146POPC   C2B 7280   3.112  39.655   8.469
  146POPC   C3B 7281   3.014  39.756   8.077
  146POPC   C4B 7282   3.095  39.586   7.714
  147POPC   NC3 7283  23.681  23.033   9.670
  147POPC   PO4 7284  23.800  22.407   9.616
  147POPC   GL1 7285  23.735  22.678   9.271
  147POPC   GL2 7286  23.462  22.895   9.227
  147POPC   C1A 7287  23.816  22.833   8.851
  147POPC   D2A 7288  23.674  22.913   8.424
  147POPC   C3A 7289  23.715  22.642   8.060
  147POPC   C4A 7290  23.884  22.868   7.714
  147POPC   C1B 7291  23.314  22.946   8.819
  147POPC   C2B 7292  23.178  22.937   8.369
  147POPC   C3B 7293  23.395  23.027   7.948
  147POPC   C4B 7294  23.420  22.750   7.570
  148POPC   NC3 7295  33.770   5.202   9.613
  148POPC   PO4 7296  33.353   4.766   9.518
  148POPC   GL1 7297  33.418   5.055   9.172
  148POPC   GL2 7298  33.678   5.249   9.107
  148POPC   C1A 7299  33.423   4.998   8.717
  148POPC   D2A 7300  33.391   5.218   8.343
  148POPC   C3A 7301  33.756   5.197   8.120
  148POPC   C4A 7302  33.779   4.920   7.784
  148POPC   C1B 7303  33.936   5.059   8.781
  148POPC   C2B 7304  34.026   4.868   8.390
  148POPC   C3B 7305  34.232   4.974   8.005
  148POPC   C4B 7306  34.104   5.347   7.765
  149POPC   NC3 7307  39.908  27.686   9.505
  149POPC   PO4 7308  40.535  27.757   9.399
  149POPC   GL1 7309  40.329  27.690   9.065
  149POPC   GL2 7310  40.075  27.473   9.063
  149POPC   C1A 7311  40.273  27.696   8.659
  149POPC   D2A 7312  39.937  27.700   8.413
  149POPC   C3A 7313  40.090  27.769   8.026
  149POPC   C4A 7314  40.208  27.939   7.635
  149POPC   C1B 7315  39.883  27.239   8.722
  149POPC   C2B 7316  39.610  27.316   8.389
  149POPC   C3B 7317  39.699  27.414   8.041
  149POPC   C4B 7318  39.983  27.362   7.758
  150POPC   NC3 7319   8.830  42.602   9.414
  150POPC   PO4 7320   8.995  43.264   9.513
  150POPC   GL1 7321   8.854  43.177   9.123
  150POPC   GL2 7322   8.639  43.435   9.050
  150POPC   C1A 7323   9.020  43.105   8.735
  150POPC   D2A 7324   9.299  43.259   8.422
  150POPC   C3A 7325   9.266  43.097   8.025
  150POPC   C4A 7326   9.187  43.122   7.564
  150POPC   C1B 7327   8.552  43.315   8.645
  150POPC   C2B 7328   8.799  43.243   8.274
  150POPC   C3B 7329   8.785  43.067   7.891
  150POPC   C4B 7330   8.959  42.704   7.771
  151POPC   NC3 7331  40.799   6.863   9.453
  151POPC   PO4 7332  40.448   6.342   9.617
  151POPC   GL1 7333  40.628   6.481   9.162
  151POPC   GL2 7334  40.991   6.467   9.161
  151POPC   C1A 7335  40.830   6.717   8.751
  151POPC   D2A 7336  41.118   6.851   8.358
  151POPC   C3A 7337  40.891   6.720   7.946
  151POPC   C4A 7338  40.629   6.469   7.642
  151POPC   C1B 7339  41.046   6.192   8.808
  151POPC   C2B 7340  40.980   6.358   8.402
  151POPC   C3B 7341  40.932   6.202   8.004
  151POPC   C4B 7342  41.122   6.321   7.660
  152POPC   NC3 7343  18.111  11.649   9.631
  152POPC   PO4 7344  18.266  11.049   9.424
  152POPC   GL1 7345  18.320  11.321   9.109
  152POPC   GL2 7346  17.930  11.362   9.176
  152POPC   C1A 7347  18.496  11.324   8.659
  152POPC   D2A 7348  18.563  11.545   8.243
  152POPC   C3A 7349  18.510  11.405   7.802
  152POPC   C4A 7350  18.518  11.629   7.388
  152POPC   C1B 7351  17.957  11.225   8.761
  152POPC   C2B 7352  18.079  11.045   8.383
  152POPC   C3B 7353  17.951  10.830   8.018
  152POPC   C4B 7354  18.116  11.087   7.684
  153POPC   NC3 7355  12.504  16.455   9.356
  153POPC   PO4 7356  12.916  16.926   9.382
  153POPC   GL1 7357  12.918  16.893   8.951
  153POPC   GL2 7358  12.808  16.585   8.975
  153POPC   C1A 7359  12.685  16.871   8.575
  153POPC   D2A 7360  12.595  16.606   8.267
  153POPC   C3A 7361  12.835  16.697   7.935
  153POPC   C4A 7362  13.255  16.883   7.784
  153POPC   C1B 7363  12.683  16.302   8.709
  153POPC   C2B 7364  12.467  16.138   8.381
  153POPC   C3B 7365  12.640  16.209   7.946
  153POPC   C4B 7366  12.541  16.469   7.561
  154POPC   NC3 7367  19.199  13.976   9.324
  154POPC   PO4 7368  19.230  14.604   9.599
  154POPC   GL1 7369  19.181  14.457   9.164
  154POPC   GL2 7370  19.459  14.625   9.074
  154POPC   C1A 7371  18.893  14.528   8.812
  154POPC   D2A 7372  18.978  14.662   8.398
  154POPC   C3A 7373  19.021  14.314   8.088
  154POPC   C4A 7374  18.933  14.379   7.645
  154POPC   C1B 7375  19.419  14.488   8.658
  154POPC   C2B 7376  19.478  14.610   8.253
  154POPC   C3B 7377  19.391  14.538   7.823
  154POPC   C4B 7378  19.404  14.425   7.404
  155POPC   NC3 7379  37.269  29.574   9.429
  155POPC   PO4 7380  37.531  30.162   9.410
  155POPC   GL1 7381  37.613  29.802   9.106
  155POPC   GL2 7382  37.961  29.704   9.044
  155POPC   C1A 7383  37.663  29.620   8.657
  155POPC   D2A 7384  37.894  29.660   8.264
  155POPC   C3A 7385  37.730  29.811   7.884
  155POPC   C4A 7386  37.976  30.097   7.686
  155POPC   C1B 7387  37.851  30.144   8.841
  155POPC   C2B 7388  37.697  30.366   8.492
  155POPC   C3B 7389  37.677  30.298   8.065
  155POPC   C4B 7390  37.527  30.373   7.660
  156POPC   NC3 7391  26.436   2.870   9.527
  156POPC   PO4 7392  26.797   3.347   9.466
  156POPC   GL1 7393  26.873   3.536   9.037
  156POPC   GL2 7394  26.989   3.268   8.829
  156POPC   C1A 7395  26.795   3.683   8.585
  156POPC   D2A 7396  26.777   3.449   8.178
  156POPC   C3A 7397  26.875   3.661   7.778
  156POPC   C4A 7398  26.818   4.108   7.649
  156POPC   C1B 7399  26.538   3.256   8.647
  156POPC   C2B 7400  26.275   3.379   8.259
  156POPC   C3B 7401  26.395   3.362   7.819
  156POPC   C4B 7402  26.666   3.326   7.464
  157POPC   NC3 7403  31.638  32.977   9.379
  157POPC   PO4 7404  30.977  33.215   9.493
  157POPC   GL1 7405  31.175  33.045   9.150
  157POPC   GL2 7406  31.368  33.314   9.044
  157POPC   C1A 7407  31.325  32.783   8.792
  157POPC   D2A 7408  31.158  32.787   8.395
  157POPC   C3A 7409  31.405  32.789   8.056
  157POPC   C4A 7410  31.810  32.692   7.900
  157POPC   C1B 7411  31.239  33.264   8.609
  157POPC   C2B 7412  31.528  33.273   8.246
  157POPC   C3B 7413  31.616  33.203   7.813
  157POPC   C4B 7414  31.419  32.891   7.550
  158POPC   NC3 7415   2.193   5.401   9.588
  158POPC   PO4 7416   1.541   5.508   9.430
  158POPC   GL1 7417   1.716   5.145   9.154
  158POPC   GL2 7418   2.077   5.145   9.169
  158POPC   C1A 7419   1.730   4.925   8.710
  158POPC   D2A 7420   1.672   4.920   8.210
  158POPC   C3A 7421   1.705   5.217   7.840
  158POPC   C4A 7422   2.025   5.267   7.523
  158POPC   C1B 7423   2.256   4.943   8.829
  158POPC   C2B 7424   2.150   4.911   8.412
  158POPC   C3B 7425   2.157   5.156   8.060
  158POPC   C4B 7426   2.448   5.074   7.751
  159POPC   NC3 7427  16.240  15.678   9.484
  159POPC   PO4 7428  15.812  16.203   9.551
  159POPC   GL1 7429  15.800  15.878   9.236
  159POPC   GL2 7430  16.106  16.043   9.142
  159POPC   C1A 7431  15.928  15.708   8.813
  159POPC   D2A 7432  15.982  15.977   8.463
  159POPC   C3A 7433  15.859  15.853   8.076
  159POPC   C4A 7434  15.908  15.457   7.896
  159POPC   C1B 7435  16.232  16.352   8.861
  159POPC   C2B 7436  16.211  16.452   8.441
  159POPC   C3B 7437  16.211  16.233   8.076
  159POPC   C4B 7438  16.146  16.237   7.661
  160POPC   NC3 7439  44.945  42.688   9.490
  160POPC   PO4 7440  44.559  43.177   9.592
  160POPC   GL1 7441  44.718  43.050   9.200
  160POPC   GL2 7442  44.391  42.919   9.183
  160POPC   C1A 7443  44.756  43.266   8.797
  160POPC   D2A 7444  44.774  43.057   8.400
  160POPC   C3A 7445  44.693  43.310   8.050
  160POPC   C4A 7446  44.681  43.199   7.621
  160POPC   C1B 7447  44.477  42.831   8.789
  160POPC   C2B 7448  44.391  42.660   8.389
  160POPC   C3B 7449  44.427  42.884   8.016
  160POPC   C4B 7450  44.313  42.764   7.623
  161POPC   NC3 7451  44.959  32.632   9.257
  161POPC   PO4 7452  44.436  32.378   9.639
  161POPC   GL1 7453  44.603  32.232   9.236
  161POPC   GL2 7454  44.924  32.126   9.187
  161POPC   C1A 7455  44.534  32.330   8.816
  161POPC   D2A 7456  44.209  32.325   8.484
  161POPC   C3A 7457  44.440  32.423   8.105
  161POPC   C4A 7458  44.640  32.254   7.727
  161POPC   C1B 7459   0.075  32.223   8.786
  161POPC   C2B 7460  44.887  32.351   8.412
  161POPC   C3B 7461   0.072  32.281   8.031
  161POPC   C4B 7462   0.136  32.424   7.637
  162POPC   NC3 7463   5.929  38.071   9.613
  162POPC   PO4 7464   5.705  38.714   9.532
  162POPC   GL1 7465   5.865  38.467   9.193
  162POPC   GL2 7466   6.168  38.281   9.200
  162POPC   C1A 7467   5.680  38.435   8.782
  162POPC   D2A 7468   5.690  38.648   8.393
  162POPC   C3A 7469   5.597  38.377   8.062
  162POPC   C4A 7470   5.658  38.614   7.716
  162POPC   C1B 7471   6.196  38.333   8.759
  162POPC   C2B 7472   6.019  38.168   8.358
  162POPC   C3B 7473   6.110  38.334   7.936
  162POPC   C4B 7474   6.159  38.587   7.562
  163POPC   NC3 7475  15.879   4.360   9.585
  163POPC   PO4 7476  15.495   4.677   9.165
  163POPC   GL1 7477  15.658   4.244   9.115
  163POPC   GL2 7478  16.028   4.163   9.139
  163POPC   C1A 7479  15.732   4.272   8.676
  163POPC   D2A 7480  15.844   4.087   8.322
  163POPC   C3A 7481  15.760   4.118   7.935
  163POPC   C4A 7482  16.047   4.222   7.616
  163POPC   C1B 7483  16.154   4.522   8.886
  163POPC   C2B 7484  16.050   4.625   8.448
  163POPC   C3B 7485  16.111   4.507   8.042
  163POPC   C4B 7486  16.452   4.487   7.798
  164POPC   NC3 7487  38.787  10.308   9.827
  164POPC   PO4 7488  38.664  10.838   9.445
  164POPC   GL1 7489  38.382  10.669   9.168
  164POPC   GL2 7490  38.182  10.426   9.324
  164POPC   C1A 7491  38.542  10.637   8.750
  164POPC   D2A 7492  38.684  10.474   8.376
  164POPC   C3A 7493  38.630  10.837   8.144
  164POPC   C4A 7494  38.554  10.812   7.728
  164POPC   C1B 7495  38.264  10.242   8.906
  164POPC   C2B 7496  38.144  10.360   8.507
  164POPC   C3B 7497  38.254  10.494   8.110
  164POPC   C4B 7498  38.234  10.394   7.706
  165POPC   NC3 7499  30.294  18.303   9.477
  165POPC   PO4 7500  29.701  18.595   9.360
  165POPC   GL1 7501  29.955  18.358   9.080
  165POPC   GL2 7502  30.315  18.293   8.980
  165POPC   C1A 7503  29.860  18.354   8.680
  165POPC   D2A 7504  29.871  18.538   8.300
  165POPC   C3A 7505  29.782  18.312   7.933
  165POPC   C4A 7506  29.813  18.558   7.560
  165POPC   C1B 7507  30.126  17.924   8.751
  165POPC   C2B 7508  29.883  17.938   8.389
  165POPC   C3B 7509  29.617  17.839   8.076
  165POPC   C4B 7510  29.859  17.708   7.747
  166POPC   NC3 7511  24.839  10.834   9.361
  166POPC   PO4 7512  24.750  10.177   9.501
  166POPC   GL1 7513  24.722  10.404   9.106
  166POPC   GL2 7514  24.458  10.679   9.083
  166POPC   C1A 7515  24.736  10.524   8.686
  166POPC   D2A 7516  24.469  10.509   8.355
  166POPC   C3A 7517  24.640  10.344   8.028
  166POPC   C4A 7518  24.796  10.505   7.675
  166POPC   C1B 7519  24.396  10.911   8.693
  166POPC   C2B 7520  24.254  11.001   8.295
  166POPC   C3B 7521  24.394  10.803   7.909
  166POPC   C4B 7522  24.129  10.676   7.560
  167POPC   NC3 7523  44.214  37.152   9.502
  167POPC   PO4 7524  43.729  36.727   9.578
  167POPC   GL1 7525  43.761  36.900   9.174
  167POPC   GL2 7526  43.639  37.256   9.215
  167POPC   C1A 7527  43.884  36.753   8.740
  167POPC   D2A 7528  44.156  36.796   8.363
  167POPC   C3A 7529  43.922  36.657   8.006
  167POPC   C4A 7530  44.192  36.826   7.714
  167POPC   C1B 7531  43.843  37.254   8.809
  167POPC   C2B 7532  43.766  37.109   8.382
  167POPC   C3B 7533  43.851  37.152   7.936
  167POPC   C4B 7534  44.026  37.287   7.532
  168POPC   NC3 7535  39.258  37.904  10.004
  168POPC   PO4 7536  39.173  38.517   9.668
  168POPC   GL1 7537  39.331  38.394   9.240
  168POPC   GL2 7538  39.438  38.653   9.055
  168POPC   C1A 7539  39.275  38.267   8.776
  168POPC   D2A 7540  39.332  38.372   8.333
  168POPC   C3A 7541  39.021  38.365   7.977
  168POPC   C4A 7542  38.871  38.384   7.524
  168POPC   C1B 7543  39.191  38.806   8.692
  168POPC   C2B 7544  39.169  38.842   8.240
  168POPC   C3B 7545  39.430  38.686   7.928
  168POPC   C4B 7546  39.494  38.929   7.597
  169POPC   NC3 7547   1.258  33.170   9.915
  169POPC   PO4 7548   1.090  32.557   9.787
  169POPC   GL1 7549   1.297  32.964   9.447
  169POPC   GL2 7550   1.164  33.234   9.213
  169POPC   C1A 7551   1.410  32.849   8.973
  169POPC   D2A 7552   1.312  32.702   8.529
  169POPC   C3A 7553   1.320  33.061   8.205
  169POPC   C4A 7554   1.276  33.217   7.776
  169POPC   C1B 7555   0.994  33.109   8.776
  169POPC   C2B 7556   0.800  33.044   8.339
  169POPC   C3B 7557   0.931  32.807   7.948
  169POPC   C4B 7558   1.030  32.819   7.502
  170POPC   NC3 7559  27.621  23.502   9.537
  170POPC   PO4 7560  27.967  24.201   9.445
  170POPC   GL1 7561  27.890  23.889   9.123
  170POPC   GL2 7562  27.551  23.767   9.113
  170POPC   C1A 7563  27.724  23.969   8.678
  170POPC   D2A 7564  27.622  23.712   8.329
  170POPC   C3A 7565  27.774  23.700   7.914
  170POPC   C4A 7566  27.930  23.313   7.770
  170POPC   C1B 7567  27.306  23.683   8.752
  170POPC   C2B 7568  27.142  23.576   8.358
  170POPC   C3B 7569  27.268  23.517   7.950
  170POPC   C4B 7570  27.357  23.734   7.601
  171POPC   NC3 7571   6.846  23.617   9.488
  171POPC   PO4 7572   6.224  23.741   9.494
  171POPC   GL1 7573   6.469  23.606   9.115
  171POPC   GL2 7574   6.713  23.863   9.058
  171POPC   C1A 7575   6.648  23.469   8.705
  171POPC   D2A 7576   6.846  23.645   8.389
  171POPC   C3A 7577   6.752  23.420   8.031
  171POPC   C4A 7578   6.440  23.504   7.751
  171POPC   C1B 7579   6.530  23.986   8.680
  171POPC   C2B 7580   6.630  24.112   8.266
  171POPC   C3B 7581   6.753  23.922   7.866
  171POPC   C4B 7582   6.862  24.148   7.465
  172POPC   NC3 7583   6.324   4.579   9.447
  172POPC   PO4 7584   6.752   4.028   9.530
  172POPC   GL1 7585   6.904   4.136   9.147
  172POPC   GL2 7586   6.753   4.475   9.088
  172POPC   C1A 7587   6.921   3.922   8.735
  172POPC   D2A 7588   6.728   4.149   8.406
  172POPC   C3A 7589   6.655   4.059   8.007
  172POPC   C4A 7590   6.324   4.242   7.780
  172POPC   C1B 7591   7.001   4.434   8.724
  172POPC   C2B 7592   7.073   4.551   8.307
  172POPC   C3B 7593   6.743   4.551   8.027
  172POPC   C4B 7594   6.837   4.495   7.609
  173POPC   NC3 7595  28.118  39.037   9.640
  173POPC   PO4 7596  28.679  39.381   9.600
  173POPC   GL1 7597  28.456  39.128   9.275
  173POPC   GL2 7598  28.294  39.425   9.205
  173POPC   C1A 7599  28.097  39.031   8.946
  173POPC   D2A 7600  27.824  39.141   8.561
  173POPC   C3A 7601  28.044  39.110   8.131
  173POPC   C4A 7602  28.170  38.975   7.678
  173POPC   C1B 7603  28.553  39.364   8.829
  173POPC   C2B 7604  28.559  39.600   8.447
  173POPC   C3B 7605  28.637  39.707   8.041
  173POPC   C4B 7606  28.491  39.288   7.892
  174POPC   NC3 7607  35.884  10.309   9.427
  174POPC   PO4 7608  36.578  10.494   9.422
  174POPC   GL1 7609  36.254  10.567   9.097
  174POPC   GL2 7610  35.886  10.669   9.064
  174POPC   C1A 7611  36.363  10.534   8.672
  174POPC   D2A 7612  36.496  10.847   8.376
  174POPC   C3A 7613  36.261  10.690   8.071
  174POPC   C4A 7614  36.309  10.428   7.714
  174POPC   C1B 7615  35.813  10.381   8.749
  174POPC   C2B 7616  35.947  10.349   8.345
  174POPC   C3B 7617  35.764  10.313   7.949
  174POPC   C4B 7618  35.851  10.319   7.506
  175POPC   NC3 7619  23.470  42.579   9.541
  175POPC   PO4 7620  23.898  42.020   9.473
  175POPC   GL1 7621  23.893  42.221   9.100
  175POPC   GL2 7622  23.628  42.393   9.118
  175POPC   C1A 7623  23.968  42.484   8.758
  175POPC   D2A 7624  24.230  42.418   8.436
  175POPC   C3A 7625  23.974  42.360   8.096
  175POPC   C4A 7626  24.016  42.545   7.711
  175POPC   C1B 7627  23.496  42.225   8.746
  175POPC   C2B 7628  23.359  42.497   8.429
  175POPC   C3B 7629  23.270  42.514   7.996
  175POPC   C4B 7630  23.584  42.234   7.758
  176POPC   NC3 7631  36.150  35.416   9.647
  176POPC   PO4 7632  36.264  35.882   9.216
  176POPC   GL1 7633  36.027  35.511   9.023
  176POPC   GL2 7634  36.058  35.167   9.092
  176POPC   C1A 7635  35.870  35.356   8.670
  176POPC   D2A 7636  36.077  35.220   8.347
  176POPC   C3A 7637  36.349  35.494   8.096
  176POPC   C4A 7638  36.286  35.551   7.648
  176POPC   C1B 7639  36.299  34.953   8.731
  176POPC   C2B 7640  36.565  35.072   8.349
  176POPC   C3B 7641  36.459  35.033   7.867
  176POPC   C4B 7642  36.395  34.799   7.431
  177POPC   NC3 7643   8.452  44.485   9.505
  177POPC   PO4 7644   8.327   0.064   9.431
  177POPC   GL1 7645   8.231  44.787   9.145
  177POPC   GL2 7646   7.943  44.610   9.241
  177POPC   C1A 7647   8.310  44.707   8.740
  177POPC   D2A 7648   8.351  44.652   8.306
  177POPC   C3A 7649   8.412  44.966   8.006
  177POPC   C4A 7650   8.362  44.665   7.728
  177POPC   C1B 7651   7.788  44.767   8.861
  177POPC   C2B 7652   7.891  44.777   8.460
  177POPC   C3B 7653   7.920  44.752   8.046
  177POPC   C4B 7654   7.840  44.588   7.648
  178POPC   NC3 7655   4.197  14.226   9.692
  178POPC   PO4 7656   4.611  14.720   9.567
  178POPC   GL1 7657   4.320  14.534   9.263
  178POPC   GL2 7658   4.368  14.179   9.190
  178POPC   C1A 7659   4.362  14.580   8.827
  178POPC   D2A 7660   4.626  14.429   8.503
  178POPC   C3A 7661   4.436  14.536   8.123
  178POPC   C4A 7662   4.529  14.522   7.701
  178POPC   C1B 7663   4.005  14.216   8.903
  178POPC   C2B 7664   3.896  14.095   8.505
  178POPC   C3B 7665   3.952  14.365   8.179
  178POPC   C4B 7666   4.078  14.279   7.781
  179POPC   NC3 7667   3.257  37.957   9.205
  179POPC   PO4 7668   3.812  37.769   9.503
  179POPC   GL1 7669   3.697  37.560   9.138
  179POPC   GL2 7670   3.489  37.272   9.228
  179POPC   C1A 7671   3.623  37.692   8.727
  179POPC   D2A 7672   3.388  37.970   8.481
  179POPC   C3A 7673   3.419  37.769   8.096
  179POPC   C4A 7674   3.617  37.914   7.741
  179POPC   C1B 7675   3.248  37.356   8.866
  179POPC   C2B 7676   3.161  37.448   8.448
  179POPC   C3B 7677   3.251  37.261   8.047
  179POPC   C4B 7678   3.378  37.450   7.672
  180POPC   NC3 7679  38.885  37.221   9.409
  180POPC   PO4 7680  38.364  36.873   9.617
  180POPC   GL1 7681  38.363  37.091   9.235
  180POPC   GL2 7682  38.024  37.262   9.236
  180POPC   C1A 7683  38.615  36.961   8.865
  180POPC   D2A 7684  38.690  36.952   8.433
  180POPC   C3A 7685  38.357  36.744   8.249
  180POPC   C4A 7686  38.223  36.773   7.824
  180POPC   C1B 7687  38.106  37.289   8.788
  180POPC   C2B 7688  38.393  37.363   8.429
  180POPC   C3B 7689  38.463  37.215   8.008
  180POPC   C4B 7690  38.163  37.275   7.675
  181POPC   NC3 7691  39.654  25.722   9.611
  181POPC   PO4 7692  39.752  26.431   9.460
  181POPC   GL1 7693  40.074  26.122   9.250
  181POPC   GL2 7694  39.935  25.825   9.181
  181POPC   C1A 7695  40.272  25.999   8.846
  181POPC   D2A 7696  40.476  25.909   8.477
  181POPC   C3A 7697  40.386  26.114   8.079
  181POPC   C4A 7698  40.362  25.878   7.705
  181POPC   C1B 7699  39.772  26.168   8.847
  181POPC   C2B 7700  39.720  26.035   8.423
  181POPC   C3B 7701  39.923  25.918   8.051
  181POPC   C4B 7702  39.928  26.146   7.652
  182POPC   NC3 7703   5.468  13.524   9.437
  182POPC   PO4 7704   6.130  13.775   9.423
  182POPC   GL1 7705   6.100  13.686   9.058
  182POPC   GL2 7706   5.912  13.416   9.052
  182POPC   C1A 7707   6.005  13.743   8.659
  182POPC   D2A 7708   5.746  13.693   8.331
  182POPC   C3A 7709   5.996  13.668   7.989
  182POPC   C4A 7710   5.907  13.650   7.580
  182POPC   C1B 7711   5.582  13.387   8.757
  182POPC   C2B 7712   5.514  13.154   8.371
  182POPC   C3B 7713   5.569  13.349   7.978
  182POPC   C4B 7714   5.507  13.292   7.531
  183POPC   NC3 7715  33.035  30.587   9.648
  183POPC   PO4 7716  33.287  31.067   9.799
  183POPC   GL1 7717  33.209  30.953   9.316
  183POPC   GL2 7718  32.876  31.007   9.182
  183POPC   C1A 7719  33.280  31.106   8.843
  183POPC   D2A 7720  33.345  30.935   8.399
  183POPC   C3A 7721  33.125  30.974   7.967
  183POPC   C4A 7722  33.324  30.961   7.535
  183POPC   C1B 7723  32.923  30.756   8.800
  183POPC   C2B 7724  32.806  30.835   8.364
  183POPC   C3B 7725  32.607  30.854   7.942
  183POPC   C4B 7726  32.637  30.518   7.636
  184POPC   NC3 7727  37.787  16.062   9.536
  184POPC   PO4 7728  37.150  15.858   9.466
  184POPC   GL1 7729  37.496  15.833   9.170
  184POPC   GL2 7730  37.825  15.657   9.199
  184POPC   C1A 7731  37.474  15.754   8.758
  184POPC   D2A 7732  37.514  15.997   8.341
  184POPC   C3A 7733  37.585  15.776   7.977
  184POPC   C4A 7734  37.600  15.864   7.543
  184POPC   C1B 7735  37.996  15.731   8.827
  184POPC   C2B 7736  38.119  15.866   8.436
  184POPC   C3B 7737  38.077  15.933   8.005
  184POPC   C4B 7738  38.046  16.118   7.570
  185POPC   NC3 7739  20.670   6.674   9.564
  185POPC   PO4 7740  20.716   6.219   9.483
  185POPC   GL1 7741  20.496   6.418   9.140
  185POPC   GL2 7742  20.704   6.703   9.040
  185POPC   C1A 7743  20.380   6.481   8.701
  185POPC   D2A 7744  20.607   6.572   8.313
  185POPC   C3A 7745  20.552   6.337   7.914
  185POPC   C4A 7746  20.748   6.409   7.491
  185POPC   C1B 7747  20.566   6.968   8.683
  185POPC   C2B 7748  20.449   7.059   8.244
  185POPC   C3B 7749  20.553   6.845   7.865
  185POPC   C4B 7750  20.406   6.794   7.465
  186POPC   NC3 7751  32.079   1.884   9.651
  186POPC   PO4 7752  32.526   2.354   9.508
  186POPC   GL1 7753  32.255   2.129   9.197
  186POPC   GL2 7754  32.365   1.817   9.217
  186POPC   C1A 7755  32.022   2.139   8.761
  186POPC   D2A 7756  31.928   2.253   8.306
  186POPC   C3A 7757  31.964   1.950   7.969
  186POPC   C4A 7758  32.196   2.021   7.563
  186POPC   C1B 7759  32.477   1.916   8.775
  186POPC   C2B 7760  32.276   1.816   8.390
  186POPC   C3B 7761  32.441   1.787   7.993
  186POPC   C4B 7762  32.686   1.815   7.632
  187POPC   NC3 7763  12.614  43.573   9.329
  187POPC   PO4 7764  12.419  42.903   9.526
  187POPC   GL1 7765  12.746  43.068   9.194
  187POPC   GL2 7766  13.101  42.936   9.093
  187POPC   C1A 7767  12.746  43.187   8.759
  187POPC   D2A 7768  12.584  43.308   8.351
  187POPC   C3A 7769  12.813  43.607   8.105
  187POPC   C4A 7770  12.803  43.496   7.680
  187POPC   C1B 7771  13.203  42.739   8.685
  187POPC   C2B 7772  13.025  43.015   8.356
  187POPC   C3B 7773  12.891  43.086   7.955
  187POPC   C4B 7774  12.989  42.924   7.526
  188POPC   NC3 7775  18.571   6.171   9.529
  188POPC   PO4 7776  18.074   6.738   9.514
  188POPC   GL1 7777  18.229   6.744   9.125
  188POPC   GL2 7778  18.434   6.445   9.067
  188POPC   C1A 7779  18.367   6.887   8.736
  188POPC   D2A 7780  18.471   6.632   8.385
  188POPC   C3A 7781  18.460   6.799   7.993
  188POPC   C4A 7782  18.114   6.940   7.813
  188POPC   C1B 7783  18.105   6.427   8.742
  188POPC   C2B 7784  17.905   6.379   8.372
  188POPC   C3B 7785  18.059   6.461   7.973
  188POPC   C4B 7786  18.429   6.362   7.707
  189POPC   NC3 7787  19.957  13.885   9.335
  189POPC   PO4 7788  19.361  13.578   9.492
  189POPC   GL1 7789  19.565  13.637   9.068
  189POPC   GL2 7790  19.886  13.474   9.029
  189POPC   C1A 7791  19.774  13.807   8.655
  189POPC   D2A 7792  19.788  13.654   8.219
  189POPC   C3A 7793  19.713  13.714   7.775
  189POPC   C4A 7794  19.943  13.499   7.459
  189POPC   C1B 7795  19.834  13.295   8.661
  189POPC   C2B 7796  20.100  13.231   8.304
  189POPC   C3B 7797  19.904  13.255   7.914
  189POPC   C4B 7798  19.533  13.241   7.639
  190POPC   NC3 7799   2.442   6.473   9.630
  190POPC   PO4 7800   1.891   6.788   9.755
  190POPC   GL1 7801   1.980   6.785   9.271
  190POPC   GL2 7802   2.045   6.487   9.141
  190POPC   C1A 7803   1.829   6.802   8.810
  190POPC   D2A 7804   2.041   6.605   8.464
  190POPC   C3A 7805   2.158   6.753   8.081
  190POPC   C4A 7806   1.770   6.853   7.826
  190POPC   C1B 7807   1.837   6.260   8.798
  190POPC   C2B 7808   1.809   6.117   8.370
  190POPC   C3B 7809   1.754   6.326   7.978
  190POPC   C4B 7810   2.087   6.442   7.709
  191POPC   NC3 7811  34.282  33.196   9.245
  191POPC   PO4 7812  33.818  32.824   9.621
  191POPC   GL1 7813  33.836  32.954   9.129
  191POPC   GL2 7814  33.964  33.243   8.884
  191POPC   C1A 7815  33.638  32.943   8.707
  191POPC   D2A 7816  33.818  33.038   8.305
  191POPC   C3A 7817  33.577  33.354   8.056
  191POPC   C4A 7818  33.481  33.333   7.620
  191POPC   C1B 7819  34.115  32.767   8.755
  191POPC   C2B 7820  34.034  32.558   8.367
  191POPC   C3B 7821  34.105  32.710   7.978
  191POPC   C4B 7822  33.935  33.094   7.799
  192POPC   NC3 7823  33.024  37.284   9.791
  192POPC   PO4 7824  32.732  37.819   9.469
  192POPC   GL1 7825  33.079  37.718   9.233
  192POPC   GL2 7826  32.890  37.557   9.018
  192POPC   C1A 7827  33.288  37.848   8.860
  192POPC   D2A 7828  33.187  37.508   8.594
  192POPC   C3A 7829  33.210  37.563   8.139
  192POPC   C4A 7830  33.219  37.750   7.743
  192POPC   C1B 7831  32.655  37.475   8.692
  192POPC   C2B 7832  32.743  37.567   8.330
  192POPC   C3B 7833  32.697  37.824   8.028
  192POPC   C4B 7834  32.733  37.654   7.668
  193POPC   NC3 7835  40.541   1.447   9.612
  193POPC   PO4 7836  39.981   1.403   9.572
  193POPC   GL1 7837  40.048   1.276   9.139
  193POPC   GL2 7838  40.410   1.238   9.105
  193POPC   C1A 7839  40.124   1.418   8.691
  193POPC   D2A 7840  40.223   1.359   8.230
  193POPC   C3A 7841  39.894   1.259   7.906
  193POPC   C4A 7842  39.843   1.506   7.520
  193POPC   C1B 7843  40.275   0.945   8.754
  193POPC   C2B 7844  40.082   0.883   8.333
  193POPC   C3B 7845  40.264   0.917   7.921
  193POPC   C4B 7846  40.166   0.712   7.521
  194POPC   NC3 7847  17.031   1.378   9.459
  194POPC   PO4 7848  16.629   0.779   9.459
  194POPC   GL1 7849  16.874   1.003   9.185
  194POPC   GL2 7850  16.629   1.026   8.988
  194POPC   C1A 7851  17.107   1.034   8.794
  194POPC   D2A 7852  16.978   1.063   8.365
  194POPC   C3A 7853  16.931   1.224   7.956
  194POPC   C4A 7854  16.561   1.159   7.757
  194POPC   C1B 7855  16.650   1.377   8.700
  194POPC   C2B 7856  16.515   1.458   8.271
  194POPC   C3B 7857  16.654   1.672   7.938
  194POPC   C4B 7858  16.810   1.573   7.558
  195POPC   NC3 7859   9.220   2.884   9.542
  195POPC   PO4 7860   8.625   3.100   9.319
  195POPC   GL1 7861   8.944   2.999   9.090
  195POPC   GL2 7862   8.987   2.703   9.119
  195POPC   C1A 7863   8.849   2.971   8.697
  195POPC   D2A 7864   8.932   2.790   8.337
  195POPC   C3A 7865   9.048   2.984   7.968
  195POPC   C4A 7866   8.839   2.952   7.581
  195POPC   C1B 7867   9.205   2.569   8.810
  195POPC   C2B 7868   9.406   2.666   8.476
  195POPC   C3B 7869   9.437   2.659   8.074
  195POPC   C4B 7870   9.268   2.549   7.698
  196POPC   NC3 7871   5.095   6.225   9.452
  196POPC   PO4 7872   5.003   6.833   9.440
  196POPC   GL1 7873   4.942   6.616   9.079
  196POPC   GL2 7874   4.712   6.357   9.097
  196POPC   C1A 7875   5.116   6.610   8.676
  196POPC   D2A 7876   5.387   6.446   8.402
  196POPC   C3A 7877   5.303   6.700   8.087
  196POPC   C4A 7878   5.060   6.717   7.755
  196POPC   C1B 7879   5.070   6.145   8.831
  196POPC   C2B 7880   5.094   6.018   8.396
  196POPC   C3B 7881   5.080   6.233   8.004
  196POPC   C4B 7882   4.687   6.392   7.858
  197POPC   NC3 7883  29.137  35.382   9.550
  197POPC   PO4 7884  29.329  36.000   9.596
  197POPC   GL1 7885  29.284  35.706   9.190
  197POPC   GL2 7886  28.997  35.487   9.075
  197POPC   C1A 7887  29.394  35.472   8.791
  197POPC   D2A 7888  29.083  35.372   8.449
  197POPC   C3A 7889  29.204  35.153   8.106
  197POPC   C4A 7890  29.353  35.410   7.775
  197POPC   C1B 7891  28.822  35.129   8.831
  197POPC   C2B 7892  28.667  35.056   8.375
  197POPC   C3B 7893  28.690  35.172   7.913
  197POPC   C4B 7894  28.893  35.428   7.569
  198POPC   NC3 7895  12.410  35.873   9.440
  198POPC   PO4 7896  11.786  36.025   9.424
  198POPC   GL1 7897  11.846  36.260   9.077
  198POPC   GL2 7898  12.182  36.268   9.130
  198POPC   C1A 7899  12.019  36.327   8.667
  198POPC   D2A 7900  11.990  36.064   8.335
  198POPC   C3A 7901  11.883  36.386   8.067
  198POPC   C4A 7902  11.993  36.474   7.670
  198POPC   C1B 7903  12.349  35.950   8.801
  198POPC   C2B 7904  12.433  35.773   8.370
  198POPC   C3B 7905  12.450  35.804   7.937
  198POPC   C4B 7906  12.280  36.053   7.608
  199POPC   NC3 7907  10.988  43.590   9.293
  199POPC   PO4 7908  11.400  44.037   9.571
  199POPC   GL1 7909  11.399  43.958   9.142
  199POPC   GL2 7910  11.066  44.052   9.070
  199POPC   C1A 7911  11.399  43.795   8.712
  199POPC   D2A 7912  11.253  43.693   8.277
  199POPC   C3A 7913  11.446  43.970   7.984
  199POPC   C4A 7914  11.544  43.921   7.580
  199POPC   C1B 7915  11.200  44.290   8.724
  199POPC   C2B 7916  11.106  44.239   8.267
  199POPC   C3B 7917  10.942  44.000   7.915
  199POPC   C4B 7918  11.060  43.937   7.494
  200POPC   NC3 7919  33.545  31.446   9.701
  200POPC   PO4 7920  32.868  31.709   9.596
  200POPC   GL1 7921  32.841  31.534   9.236
  200POPC   GL2 7922  33.202  31.452   9.267
  200POPC   C1A 7923  32.804  31.483   8.819
  200POPC   D2A 7924  32.947  31.358   8.437
  200POPC   C3A 7925  32.928  31.701   8.108
  200POPC   C4A 7926  32.657  31.563   7.786
  200POPC   C1B 7927  33.294  31.611   8.868
  200POPC   C2B 7928  33.346  31.697   8.436
  200POPC   C3B 7929  33.348  31.400   8.141
  200POPC   C4B 7930  33.228  31.436   7.743
  201POPC   NC3 7931  25.545   1.369   9.621
  201POPC   PO4 7932  24.976   1.599   9.717
  201POPC   GL1 7933  25.218   1.419   9.236
  201POPC   GL2 7934  25.607   1.469   9.089
  201POPC   C1A 7935  25.334   1.119   8.837
  201POPC   D2A 7936  25.359   1.103   8.354
  201POPC   C3A 7937  25.073   1.115   7.984
  201POPC   C4A 7938  25.095   0.903   7.570
  201POPC   C1B 7939  25.708   1.397   8.624
  201POPC   C2B 7940  25.784   1.371   8.197
  201POPC   C3B 7941  25.546   1.279   7.879
  201POPC   C4B 7942  25.604   1.010   7.579
  202POPC   NC3 7943  15.009  23.005   9.672
  202POPC   PO4 7944  14.832  22.513   9.471
  202POPC   GL1 7945  15.050  22.872   9.155
  202POPC   GL2 7946  15.276  23.179   9.260
  202POPC   C1A 7947  15.164  22.963   8.671
  202POPC   D2A 7948  15.070  22.763   8.229
  202POPC   C3A 7949  15.370  22.757   7.856
  202POPC   C4A 7950  15.508  23.088   7.536
  202POPC   C1B 7951  15.028  23.382   8.935
  202POPC   C2B 7952  15.101  23.499   8.508
  202POPC   C3B 7953  15.235  23.250   8.155
  202POPC   C4B 7954  15.025  23.110   7.803
  203POPC   NC3 7955  35.653  20.580   9.404
  203POPC   PO4 7956  36.308  20.772   9.435
  203POPC   GL1 7957  36.098  20.518   9.106
  203POPC   GL2 7958  35.779  20.296   9.017
  203POPC   C1A 7959  35.985  20.694   8.744
  203POPC   D2A 7960  36.295  20.773   8.464
  203POPC   C3A 7961  36.139  20.869   8.087
  203POPC   C4A 7962  36.375  20.898   7.721
  203POPC   C1B 7963  36.050  20.199   8.674
  203POPC   C2B 7964  36.058  20.353   8.267
  203POPC   C3B 7965  36.167  20.416   7.847
  203POPC   C4B 7966  35.903  20.286   7.506
  204POPC   NC3 7967  38.043  15.291   9.645
  204POPC   PO4 7968  37.411  15.059   9.597
  204POPC   GL1 7969  37.606  15.194   9.226
  204POPC   GL2 7970  37.927  15.032   9.186
  204POPC   C1A 7971  37.721  15.292   8.797
  204POPC   D2A 7972  37.740  15.520   8.415
  204POPC   C3A 7973  37.946  15.432   8.066
  204POPC   C4A 7974  37.727  15.387   7.659
  204POPC   C1B 7975  37.955  14.844   8.763
  204POPC   C2B 7976  37.841  14.985   8.317
  204POPC   C3B 7977  37.971  14.986   7.840
  204POPC   C4B 7978  38.060  15.153   7.347
  205POPC   NC3 7979   3.196  21.981   9.380
  205POPC   PO4 7980   3.917  22.004   9.402
  205POPC   GL1 7981   3.624  22.008   9.101
  205POPC   GL2 7982   3.548  22.322   9.184
  205POPC   C1A 7983   3.333  22.146   8.751
  205POPC   D2A 7984   3.228  22.050   8.331
  205POPC   C3A 7985   3.625  21.948   8.147
  205POPC   C4A 7986   3.794  22.054   7.767
  205POPC   C1B 7987   3.814  22.349   8.801
  205POPC   C2B 7988   3.638  22.408   8.404
  205POPC   C3B 7989   3.514  22.475   8.016
  205POPC   C4B 7990   3.648  22.545   7.592
  206POPC   NC3 7991  18.723  33.250   9.344
  206POPC   PO4 7992  19.120  33.714   9.749
  206POPC   GL1 7993  19.122  33.634   9.257
  206POPC   GL2 7994  19.162  33.282   9.106
  206POPC   C1A 7995  18.999  33.923   8.855
  206POPC   D2A 7996  18.654  34.049   8.508
  206POPC   C3A 7997  18.830  34.097   8.070
  206POPC   C4A 7998  19.219  33.923   7.861
  206POPC   C1B 7999  19.248  33.495   8.742
  206POPC   C2B 8000  19.047  33.706   8.383
  206POPC   C3B 8001  18.918  33.543   8.004
  206POPC   C4B 8002  19.260  33.401   7.756
  207POPC   NC3 8003  36.500  42.152   9.405
  207POPC   PO4 8004  35.800  42.289   9.573
  207POPC   GL1 8005  36.014  42.229   9.184
  207POPC   GL2 8006  35.922  41.917   9.149
  207POPC   C1A 8007  36.221  42.382   8.790
  207POPC   D2A 8008  36.524  42.259   8.429
  207POPC   C3A 8009  36.335  42.384   8.024
  207POPC   C4A 8010  35.964  42.489   7.774
  207POPC   C1B 8011  36.172  41.884   8.792
  207POPC   C2B 8012  36.040  42.069   8.395
  207POPC   C3B 8013  36.195  41.882   8.035
  207POPC   C4B 8014  36.415  42.010   7.673
  208POPC   NC3 8015  12.324  20.933   9.452
  208POPC   PO4 8016  12.213  20.342   9.470
  208POPC   GL1 8017  12.037  20.564   9.144
  208POPC   GL2 8018  11.711  20.677   9.270
  208POPC   C1A 8019  12.207  20.655   8.735
  208POPC   D2A 8020  12.405  20.478   8.381
  208POPC   C3A 8021  12.479  20.705   8.033
  208POPC   C4A 8022  12.208  20.647   7.724
  208POPC   C1B 8023  11.597  20.475   8.879
  208POPC   C2B 8024  11.730  20.590   8.479
  208POPC   C3B 8025  11.812  20.552   8.034
  208POPC   C4B 8026  11.713  20.613   7.591
  209POPC   NC3 8027  31.104  33.632   9.350
  209POPC   PO4 8028  31.530  34.033   9.654
  209POPC   GL1 8029  31.523  34.013   9.196
  209POPC   GL2 8030  31.205  34.107   9.149
  209POPC   C1A 8031  31.724  33.977   8.757
  209POPC   D2A 8032  31.732  34.070   8.281
  209POPC   C3A 8033  31.574  33.726   7.973
  209POPC   C4A 8034  31.200  33.538   7.765
  209POPC   C1B 8035  31.283  34.243   8.734
  209POPC   C2B 8036  31.215  34.086   8.316
  209POPC   C3B 8037  31.331  34.164   7.904
  209POPC   C4B 8038  31.155  34.283   7.517
  210POPC   NC3 8039   1.089  41.986   9.394
  210POPC   PO4 8040   1.413  42.535   9.615
  210POPC   GL1 8041   1.190  42.465   9.232
  210POPC   GL2 8042   0.858  42.408   9.082
  210POPC   C1A 8043   1.256  42.351   8.804
  210POPC   D2A 8044   1.470  42.453   8.455
  210POPC   C3A 8045   1.368  42.340   8.044
  210POPC   C4A 8046   1.675  42.551   7.859
  210POPC   C1B 8047   0.773  42.243   8.698
  210POPC   C2B 8048   0.966  42.299   8.365
  210POPC   C3B 8049   0.778  42.349   8.026
  210POPC   C4B 8050   0.912  42.471   7.659
  211POPC   NC3 8051  36.186  36.678   9.571
  211POPC   PO4 8052  36.474  37.230   9.412
  211POPC   GL1 8053  36.348  36.979   9.127
  211POPC   GL2 8054  36.489  36.637   9.164
  211POPC   C1A 8055  36.175  37.139   8.745
  211POPC   D2A 8056  36.288  37.337   8.360
  211POPC   C3A 8057  36.016  37.220   8.028
  211POPC   C4A 8058  35.945  36.836   7.827
  211POPC   C1B 8059  36.484  36.727   8.714
  211POPC   C2B 8060  36.731  36.782   8.364
  211POPC   C3B 8061  36.604  36.590   7.993
  211POPC   C4B 8062  36.432  36.698   7.608
  212POPC   NC3 8063  36.291  14.634   9.546
  212POPC   PO4 8064  36.315  13.981   9.280
  212POPC   GL1 8065  36.332  14.348   9.114
  212POPC   GL2 8066  36.012  14.452   9.067
  212POPC   C1A 8067  36.401  14.531   8.731
  212POPC   D2A 8068  36.151  14.525   8.366
  212POPC   C3A 8069  36.424  14.464   8.062
  212POPC   C4A 8070  36.358  14.751   7.787
  212POPC   C1B 8071  35.780  14.605   8.726
  212POPC   C2B 8072  35.672  14.843   8.365
  212POPC   C3B 8073  35.833  14.799   7.965
  212POPC   C4B 8074  35.958  14.379   7.835
  213POPC   NC3 8075  26.471  10.341   9.588
  213POPC   PO4 8076  27.133  10.661   9.550
  213POPC   GL1 8077  26.898  10.741   9.163
  213POPC   GL2 8078  26.736  10.433   9.150
  213POPC   C1A 8079  26.690  10.709   8.731
  213POPC   D2A 8080  26.622  10.514   8.321
  213POPC   C3A 8081  26.852  10.667   7.964
  213POPC   C4A 8082  26.699  10.785   7.582
  213POPC   C1B 8083  26.652  10.209   8.767
  213POPC   C2B 8084  26.900  10.095   8.416
  213POPC   C3B 8085  26.778  10.141   8.011
  213POPC   C4B 8086  26.955  10.298   7.622
  214POPC   NC3 8087  26.381  11.072   9.322
  214POPC   PO4 8088  25.942  11.460   9.563
  214POPC   GL1 8089  25.968  11.295   9.131
  214POPC   GL2 8090  25.900  10.910   9.122
  214POPC   C1A 8091  25.967  11.444   8.690
  214POPC   D2A 8092  26.215  11.363   8.299
  214POPC   C3A 8093  26.031  11.352   7.841
  214POPC   C4A 8094  25.755  11.520   7.458
  214POPC   C1B 8095  26.099  10.916   8.754
  214POPC   C2B 8096  26.269  10.858   8.391
  214POPC   C3B 8097  26.057  10.847   8.007
  214POPC   C4B 8098  26.197  10.887   7.609
  215POPC   NC3 8099   4.068  41.142   9.239
  215POPC   PO4 8100   4.423  41.600   9.675
  215POPC   GL1 8101   4.308  41.592   9.259
  215POPC   GL2 8102   4.519  41.331   9.114
  215POPC   C1A 8103   4.245  41.769   8.863
  215POPC   D2A 8104   4.340  41.724   8.433
  215POPC   C3A 8105   4.170  41.943   8.075
  215POPC   C4A 8106   4.394  41.871   7.709
  215POPC   C1B 8107   4.357  41.261   8.667
  215POPC   C2B 8108   4.151  41.272   8.248
  215POPC   C3B 8109   4.424  41.301   7.871
  215POPC   C4B 8110   4.477  41.037   7.471
  216POPC   NC3 8111  33.443  33.032   9.430
  216POPC   PO4 8112  32.861  33.273   9.541
  216POPC   GL1 8113  32.954  32.945   9.241
  216POPC   GL2 8114  32.697  32.665   9.250
  216POPC   C1A 8115  33.135  32.910   8.786
  216POPC   D2A 8116  33.282  33.072   8.366
  216POPC   C3A 8117  33.142  33.031   7.922
  216POPC   C4A 8118  33.046  33.176   7.456
  216POPC   C1B 8119  32.633  32.926   8.879
  216POPC   C2B 8120  32.719  33.056   8.484
  216POPC   C3B 8121  32.656  33.131   8.055
  216POPC   C4B 8122  32.674  32.894   7.659
  217POPC   NC3 8123  38.019  36.703   9.318
  217POPC   PO4 8124  37.477  37.093   9.213
  217POPC   GL1 8125  37.762  36.926   8.909
  217POPC   GL2 8126  38.144  36.794   8.848
  217POPC   C1A 8127  37.724  37.095   8.512
  217POPC   D2A 8128  37.978  37.079   8.171
  217POPC   C3A 8129  37.694  36.925   7.890
  217POPC   C4A 8130  37.407  36.768   7.588
  217POPC   C1B 8131  37.928  36.607   8.530
  217POPC   C2B 8132  37.536  36.633   8.343
  217POPC   C3B 8133  37.494  36.437   7.989
  217POPC   C4B 8134  37.835  36.430   7.754
  218POPC   NC3 8135  27.399  37.183   9.551
  218POPC   PO4 8136  27.550  37.884   9.497
  218POPC   GL1 8137  27.701  37.782   9.116
  218POPC   GL2 8138  27.790  37.457   9.142
  218POPC   C1A 8139  27.683  38.002   8.706
  218POPC   D2A 8140  27.894  38.023   8.294
  218POPC   C3A 8141  27.564  38.019   7.950
  218POPC   C4A 8142  27.505  37.830   7.539
  218POPC   C1B 8143  27.681  37.479   8.714
  218POPC   C2B 8144  27.497  37.661   8.350
  218POPC   C3B 8145  27.754  37.565   8.010
  218POPC   C4B 8146  27.792  37.361   7.660
  219POPC   NC3 8147  41.544  18.487   9.473
  219POPC   PO4 8148  41.260  17.962   9.450
  219POPC   GL1 8149  41.356  18.175   9.133
  219POPC   GL2 8150  41.125  18.427   9.187
  219POPC   C1A 8151  41.658  18.304   8.830
  219POPC   D2A 8152  41.655  18.212   8.409
  219POPC   C3A 8153  41.680  18.372   8.003
  219POPC   C4A 8154  41.816  18.002   7.748
  219POPC   C1B 8155  41.175  18.464   8.760
  219POPC   C2B 8156  41.326  18.608   8.375
  219POPC   C3B 8157  41.186  18.541   8.004
  219POPC   C4B 8158  41.309  18.456   7.629
  220POPC   NC3 8159  31.504   1.587   9.938
  220POPC   PO4 8160  31.702   1.109   9.472
  220POPC   GL1 8161  31.577   1.250   9.068
  220POPC   GL2 8162  31.248   1.343   9.047
  220POPC   C1A 8163  31.730   1.263   8.665
  220POPC   D2A 8164  31.806   1.609   8.369
  220POPC   C3A 8165  31.663   1.479   7.959
  220POPC   C4A 8166  31.611   1.021   7.810
  220POPC   C1B 8167  31.239   1.111   8.676
  220POPC   C2B 8168  31.376   1.145   8.269
  220POPC   C3B 8169  31.136   1.204   7.905
  220POPC   C4B 8170  31.135   1.116   7.488
  221POPC   NC3 8171  10.935  36.121   9.522
  221POPC   PO4 8172  10.361  35.803   9.713
  221POPC   GL1 8173  10.396  35.944   9.261
  221POPC   GL2 8174  10.521  36.266   9.233
  221POPC   C1A 8175  10.578  35.944   8.816
  221POPC   D2A 8176  10.417  35.833   8.456
  221POPC   C3A 8177  10.523  36.113   8.155
  221POPC   C4A 8178  10.647  35.971   7.755
  221POPC   C1B 8179  10.649  36.452   8.839
  221POPC   C2B 8180  10.854  36.476   8.428
  221POPC   C3B 8181  10.763  36.583   7.972
  221POPC   C4B 8182  10.703  36.425   7.544
  222POPC   NC3 8183  34.837  34.620   9.564
  222POPC   PO4 8184  34.247  34.903   9.402
  222POPC   GL1 8185  34.546  34.583   9.152
  222POPC   GL2 8186  34.974  34.487   9.112
  222POPC   C1A 8187  34.674  34.572   8.737
  222POPC   D2A 8188  34.561  34.675   8.392
  222POPC   C3A 8189  34.434  34.398   8.122
  222POPC   C4A 8190  34.485  34.548   7.722
  222POPC   C1B 8191  34.976  34.186   8.769
  222POPC   C2B 8192  34.835  34.113   8.348
  222POPC   C3B 8193  34.879  34.244   7.904
  222POPC   C4B 8194  34.966  34.342   7.454
  223POPC   NC3 8195  10.629  34.429   9.487
  223POPC   PO4 8196  10.166  34.923   9.569
  223POPC   GL1 8197  10.401  34.810   9.215
  223POPC   GL2 8198  10.382  34.473   9.062
  223POPC   C1A 8199  10.450  34.971   8.810
  223POPC   D2A 8200  10.706  34.986   8.435
  223POPC   C3A 8201  10.521  34.833   8.051
  223POPC   C4A 8202  10.127  34.627   7.942
  223POPC   C1B 8203  10.294  34.207   8.711
  223POPC   C2B 8204  10.301  34.253   8.256
  223POPC   C3B 8205  10.523  34.321   7.873
  223POPC   C4B 8206  10.729  34.519   7.530
  224POPC   NC3 8207   9.523  13.374   9.408
  224POPC   PO4 8208   9.960  13.950   9.603
  224POPC   GL1 8209   9.927  13.693   9.212
  224POPC   GL2 8210   9.882  13.329   9.044
  224POPC   C1A 8211   9.786  13.775   8.800
  224POPC   D2A 8212   9.548  13.720   8.445
  224POPC   C3A 8213   9.734  13.908   8.097
  224POPC   C4A 8214   9.872  14.002   7.709
  224POPC   C1B 8215   9.470  13.307   8.769
  224POPC   C2B 8216   9.304  13.294   8.330
  224POPC   C3B 8217   9.651  13.399   8.033
  224POPC   C4B 8218   9.744  13.503   7.619
  225POPC   NC3 8219  38.322   8.046   9.683
  225POPC   PO4 8220  38.863   8.311   9.342
  225POPC   GL1 8221  38.615   8.052   9.064
  225POPC   GL2 8222  38.265   8.064   9.154
  225POPC   C1A 8223  38.484   8.200   8.648
  225POPC   D2A 8224  38.559   8.598   8.434
  225POPC   C3A 8225  38.622   8.520   8.002
  225POPC   C4A 8226  38.563   8.047   7.912
  225POPC   C1B 8227  38.021   8.001   8.762
  225POPC   C2B 8228  37.893   7.820   8.355
  225POPC   C3B 8229  37.948   8.063   7.972
  225POPC   C4B 8230  38.176   8.376   7.806
  226POPC   NC3 8231  34.750  38.604   9.494
  226POPC   PO4 8232  34.350  38.000   9.513
  226POPC   GL1 8233  34.470  38.298   9.203
  226POPC   GL2 8234  34.821  38.278   9.090
  226POPC   C1A 8235  34.398  38.472   8.801
  226POPC   D2A 8236  34.513  38.276   8.407
  226POPC   C3A 8237  34.362  38.460   8.026
  226POPC   C4A 8238  34.510  38.331   7.600
  226POPC   C1B 8239  34.840  38.685   8.845
  226POPC   C2B 8240  34.689  38.803   8.414
  226POPC   C3B 8241  34.825  38.683   7.978
  226POPC   C4B 8242  34.955  38.827   7.559
  227POPC   NC3 8243  16.767  14.832   9.397
  227POPC   PO4 8244  16.792  15.514   9.478
  227POPC   GL1 8245  16.572  15.377   9.125
  227POPC   GL2 8246  16.808  15.163   9.024
  227POPC   C1A 8247  16.650  15.448   8.645
  227POPC   D2A 8248  16.644  15.251   8.248
  227POPC   C3A 8249  16.745  15.376   7.853
  227POPC   C4A 8250  16.661  15.088   7.530
  227POPC   C1B 8251  16.878  14.983   8.624
  227POPC   C2B 8252  17.229  14.878   8.417
  227POPC   C3B 8253  17.064  14.945   8.029
  227POPC   C4B 8254  16.929  14.678   7.699
  228POPC   NC3 8255  37.497  12.437   9.507
  228POPC   PO4 8256  37.425  11.797   9.502
  228POPC   GL1 8257  37.627  11.854   9.125
  228POPC   GL2 8258  37.523  12.194   9.075
  228POPC   C1A 8259  37.886  11.991   8.788
  228POPC   D2A 8260  37.912  12.274   8.444
  228POPC   C3A 8261  37.808  12.095   8.060
  228POPC   C4A 8262  38.017  12.147   7.638
  228POPC   C1B 8263  37.475  12.408   8.681
  228POPC   C2B 8264  37.354  12.367   8.226
  228POPC   C3B 8265  37.525  12.413   7.811
  228POPC   C4B 8266  37.608  12.377   7.371
  229POPC   NC3 8267  27.058   8.798   9.509
  229POPC   PO4 8268  26.549   8.317   9.477
  229POPC   GL1 8269  26.894   8.374   9.224
  229POPC   GL2 8270  26.945   8.100   9.004
  229POPC   C1A 8271  27.102   8.592   8.869
  229POPC   D2A 8272  27.108   8.750   8.432
  229POPC   C3A 8273  26.964   8.546   8.054
  229POPC   C4A 8274  26.695   8.390   7.713
  229POPC   C1B 8275  26.828   8.282   8.570
  229POPC   C2B 8276  26.720   8.098   8.148
  229POPC   C3B 8277  26.572   7.906   7.737
  229POPC   C4B 8278  26.433   8.112   7.339
  230POPC   NC3 8279  33.593  43.309   9.631
  230POPC   PO4 8280  34.017  42.890   9.819
  230POPC   GL1 8281  33.866  43.006   9.301
  230POPC   GL2 8282  33.593  42.785   9.106
  230POPC   C1A 8283  33.876  43.134   8.835
  230POPC   D2A 8284  33.780  43.396   8.449
  230POPC   C3A 8285  34.025  43.308   8.065
  230POPC   C4A 8286  33.956  43.337   7.599
  230POPC   C1B 8287  33.432  42.915   8.702
  230POPC   C2B 8288  33.645  42.928   8.279
  230POPC   C3B 8289  33.578  43.121   7.869
  230POPC   C4B 8290  33.662  42.915   7.458
  231POPC   NC3 8291   1.356  34.077   9.564
  231POPC   PO4 8292   1.479  33.469   9.655
  231POPC   GL1 8293   1.401  33.697   9.238
  231POPC   GL2 8294   1.042  33.854   9.217
  231POPC   C1A 8295   1.405  33.792   8.788
  231POPC   D2A 8296   1.102  33.723   8.425
  231POPC   C3A 8297   1.279  33.733   7.994
  231POPC   C4A 8298   1.054  33.668   7.617
  231POPC   C1B 8299   0.963  34.057   8.804
  231POPC   C2B 8300   1.275  34.209   8.484
  231POPC   C3B 8301   1.290  34.252   8.022
  231POPC   C4B 8302   1.245  34.139   7.560
  232POPC   NC3 8303  36.454  25.700   9.461
  232POPC   PO4 8304  35.800  25.684   9.325
  232POPC   GL1 8305  36.146  25.817   9.040
  232POPC   GL2 8306  36.345  26.138   9.082
  232POPC   C1A 8307  36.126  26.010   8.629
  232POPC   D2A 8308  36.126  26.248   8.222
  232POPC   C3A 8309  36.121  25.882   7.937
  232POPC   C4A 8310  35.781  25.623   7.900
  232POPC   C1B 8311  36.473  26.404   8.659
  232POPC   C2B 8312  36.565  26.603   8.228
  232POPC   C3B 8313  36.343  26.626   7.820
  232POPC   C4B 8314  35.981  26.340   7.689
  233POPC   NC3 8315  18.461  10.314   9.531
  233POPC   PO4 8316  17.757  10.489   9.665
  233POPC   GL1 8317  18.119  10.468   9.184
  233POPC   GL2 8318  18.402  10.645   9.156
  233POPC   C1A 8319  18.272  10.353   8.757
  233POPC   D2A 8320  18.197  10.547   8.364
  233POPC   C3A 8321  18.283  10.411   7.921
  233POPC   C4A 8322  18.094  10.622   7.515
  233POPC   C1B 8323  18.347  10.855   8.791
  233POPC   C2B 8324  18.601  10.879   8.428
  233POPC   C3B 8325  18.439  10.900   8.045
  233POPC   C4B 8326  18.559  10.778   7.663
  234POPC   NC3 8327  33.420   9.647   9.732
  234POPC   PO4 8328  32.894   9.532   9.433
  234POPC   GL1 8329  33.224   9.677   9.173
  234POPC   GL2 8330  33.215   9.986   9.101
  234POPC   C1A 8331  33.191   9.644   8.711
  234POPC   D2A 8332  33.257   9.878   8.337
  234POPC   C3A 8333  33.229   9.648   7.951
  234POPC   C4A 8334  32.972   9.484   7.637
  234POPC   C1B 8335  32.816   9.936   8.923
  234POPC   C2B 8336  32.744   9.948   8.482
  234POPC   C3B 8337  32.790   9.892   8.017
  234POPC   C4B 8338  32.910   9.969   7.580
  235POPC   NC3 8339  33.425  18.685   9.439
  235POPC   PO4 8340  32.930  18.338   9.416
  235POPC   GL1 8341  33.166  18.366   9.095
  235POPC   GL2 8342  33.012  18.676   9.031
  235POPC   C1A 8343  33.172  18.121   8.743
  235POPC   D2A 8344  33.354  17.761   8.558
  235POPC   C3A 8345  33.349  17.826   8.115
  235POPC   C4A 8346  33.080  17.954   7.804
  235POPC   C1B 8347  33.300  18.599   8.673
  235POPC   C2B 8348  33.184  18.344   8.302
  235POPC   C3B 8349  33.026  18.440   7.915
  235POPC   C4B 8350  33.169  18.358   7.499
  236POPC   NC3 8351  14.357   5.106   9.612
  236POPC   PO4 8352  14.985   5.042   9.565
  236POPC   GL1 8353  14.671   4.959   9.216
  236POPC   GL2 8354  14.323   5.070   9.109
  236POPC   C1A 8355  14.613   4.799   8.782
  236POPC   D2A 8356  14.460   4.712   8.384
  236POPC   C3A 8357  14.580   4.974   8.063
  236POPC   C4A 8358  14.453   4.747   7.754
  236POPC   C1B 8359  14.118   4.939   8.712
  236POPC   C2B 8360  14.114   5.083   8.254
  236POPC   C3B 8361  14.190   5.199   7.788
  236POPC   C4B 8362  13.927   5.347   7.419
  237POPC   NC3 8363   4.015  32.446   9.319
  237POPC   PO4 8364   4.234  31.913   9.704
  237POPC   GL1 8365   4.369  32.047   9.247
  237POPC   GL2 8366   4.406  32.397   9.006
  237POPC   C1A 8367   4.571  31.981   8.823
  237POPC   D2A 8368   4.411  32.259   8.481
  237POPC   C3A 8369   4.493  32.176   8.056
  237POPC   C4A 8370   4.683  31.898   7.788
  237POPC   C1B 8371   4.137  32.608   8.710
  237POPC   C2B 8372   3.818  32.656   8.377
  237POPC   C3B 8373   3.802  32.442   7.982
  237POPC   C4B 8374   4.135  32.347   7.701
  238POPC   NC3 8375   2.997  22.966   9.483
  238POPC   PO4 8376   3.027  22.413   9.333
  238POPC   GL1 8377   3.304  22.760   9.130
  238POPC   GL2 8378   3.674  22.824   9.227
  238POPC   C1A 8379   3.559  22.783   8.739
  238POPC   D2A 8380   3.733  23.007   8.388
  238POPC   C3A 8381   3.659  22.961   7.933
  238POPC   C4A 8382   3.823  23.245   7.584
  238POPC   C1B 8383   4.046  22.785   8.917
  238POPC   C2B 8384   4.089  22.658   8.480
  238POPC   C3B 8385   4.017  22.553   8.045
  238POPC   C4B 8386   4.087  22.805   7.676
  239POPC   NC3 8387  31.305  19.139   9.285
  239POPC   PO4 8388  31.901  19.276   9.321
  239POPC   GL1 8389  31.653  19.196   8.921
  239POPC   GL2 8390  31.246  19.267   8.822
  239POPC   C1A 8391  31.606  19.294   8.501
  239POPC   D2A 8392  31.307  19.112   8.296
  239POPC   C3A 8393  31.366  19.178   7.908
  239POPC   C4A 8394  31.517  18.818   7.724
  239POPC   C1B 8395  31.321  18.817   8.720
  239POPC   C2B 8396  31.285  18.564   8.351
  239POPC   C3B 8397  31.064  18.764   8.003
  239POPC   C4B 8398  31.037  18.934   7.581
  240POPC   NC3 8399  36.076   7.204   9.466
  240POPC   PO4 8400  35.700   7.766   9.281
  240POPC   GL1 8401  35.927   7.493   9.049
  240POPC   GL2 8402  35.821   7.135   9.032
  240POPC   C1A 8403  36.057   7.616   8.636
  240POPC   D2A 8404  35.924   7.453   8.267
  240POPC   C3A 8405  36.236   7.540   7.975
  240POPC   C4A 8406  35.959   7.700   7.733
  240POPC   C1B 8407  36.186   7.152   8.771
  240POPC   C2B 8408  36.329   7.143   8.376
  240POPC   C3B 8409  36.103   7.053   7.986
  240POPC   C4B 8410  36.076   7.211   7.574
  241POPC   NC3 8411   2.669  35.292   9.546
  241POPC   PO4 8412   3.189  34.950   9.285
  241POPC   GL1 8413   2.938  35.239   9.087
  241POPC   GL2 8414   2.870  35.586   9.166
  241POPC   C1A 8415   2.890  35.323   8.670
  241POPC   D2A 8416   2.724  35.130   8.319
  241POPC   C3A 8417   2.886  35.272   7.964
  241POPC   C4A 8418   3.018  35.658   7.825
  241POPC   C1B 8419   2.532  35.632   8.811
  241POPC   C2B 8420   2.648  35.644   8.340
  241POPC   C3B 8421   2.474  35.605   7.901
  241POPC   C4B 8422   2.641  35.825   7.519
  242POPC   NC3 8423  30.212   8.884   9.412
  242POPC   PO4 8424  29.501   8.814   9.481
  242POPC   GL1 8425  29.676   9.002   9.110
  242POPC   GL2 8426  29.968   9.213   9.095
  242POPC   C1A 8427  29.624   8.984   8.673
  242POPC   D2A 8428  29.807   8.953   8.253
  242POPC   C3A 8429  29.608   9.088   7.846
  242POPC   C4A 8430  29.654   8.874   7.452
  242POPC   C1B 8431  30.148   9.003   8.738
  242POPC   C2B 8432  30.332   9.138   8.348
  242POPC   C3B 8433  30.241   9.009   7.932
  242POPC   C4B 8434  30.084   9.178   7.590
  243POPC   NC3 8435   0.560  32.618   9.685
  243POPC   PO4 8436   0.222  32.003   9.569
  243POPC   GL1 8437   0.418  32.315   9.293
  243POPC   GL2 8438   0.510  32.040   9.129
  243POPC   C1A 8439   0.554  32.440   8.847
  243POPC   D2A 8440   0.404  32.434   8.417
  243POPC   C3A 8441   0.566  32.448   7.976
  243POPC   C4A 8442   0.628  32.485   7.512
  243POPC   C1B 8443   0.512  31.947   8.696
  243POPC   C2B 8444   0.595  31.970   8.276
  243POPC   C3B 8445   0.455  31.961   7.862
  243POPC   C4B 8446   0.204  31.911   7.548
  244POPC   NC3 8447  28.743  11.268   9.512
  244POPC   PO4 8448  28.073  10.998   9.495
  244POPC   GL1 8449  28.312  11.225   9.221
  244POPC   GL2 8450  28.531  10.957   9.152
  244POPC   C1A 8451  28.370  11.369   8.801
  244POPC   D2A 8452  28.610  11.370   8.394
  244POPC   C3A 8453  28.299  11.428   8.055
  244POPC   C4A 8454  28.034  11.429   7.695
  244POPC   C1B 8455  28.749  11.015   8.781
  244POPC   C2B 8456  28.932  10.936   8.399
  244POPC   C3B 8457  28.782  11.027   8.014
  244POPC   C4B 8458  28.532  11.142   7.701
  245POPC   NC3 8459  31.498  36.401   9.372
  245POPC   PO4 8460  31.248  35.736   9.431
  245POPC   GL1 8461  31.437  35.963   9.113
  245POPC   GL2 8462  31.096  36.046   9.017
  245POPC   C1A 8463  31.563  36.190   8.709
  245POPC   D2A 8464  31.746  36.127   8.274
  245POPC   C3A 8465  31.622  36.243   7.856
  245POPC   C4A 8466  31.737  36.078   7.443
  245POPC   C1B 8467  31.241  35.783   8.681
  245POPC   C2B 8468  31.274  35.874   8.219
  245POPC   C3B 8469  31.432  35.782   7.802
  245POPC   C4B 8470  31.293  35.873   7.379
  246POPC   NC3 8471  33.555   7.027   9.290
  246POPC   PO4 8472  33.458   7.702   9.246
  246POPC   GL1 8473  33.519   7.440   8.947
  246POPC   GL2 8474  33.868   7.373   9.031
  246POPC   C1A 8475  33.671   7.353   8.556
  246POPC   D2A 8476  33.867   7.060   8.318
  246POPC   C3A 8477  33.770   7.164   7.911
  246POPC   C4A 8478  33.533   7.542   7.820
  246POPC   C1B 8479  34.099   7.609   8.685
  246POPC   C2B 8480  33.912   7.735   8.264
  246POPC   C3B 8481  33.977   7.794   7.845
  246POPC   C4B 8482  34.013   7.465   7.550
  247POPC   NC3 8483  17.533  32.947   9.449
  247POPC   PO4 8484  18.021  32.473   9.240
  247POPC   GL1 8485  17.808  32.884   9.007
  247POPC   GL2 8486  17.487  33.168   9.006
  247POPC   C1A 8487  17.624  32.959   8.578
  247POPC   D2A 8488  17.333  32.852   8.263
  247POPC   C3A 8489  17.551  32.875   7.888
  247POPC   C4A 8490  17.591  32.628   7.542
  247POPC   C1B 8491  17.535  33.465   8.646
  247POPC   C2B 8492  17.621  33.328   8.229
  247POPC   C3B 8493  17.676  33.358   7.837
  247POPC   C4B 8494  17.404  33.430   7.477
  248POPC   NC3 8495  23.142  24.331   9.394
  248POPC   PO4 8496  22.659  24.749   9.531
  248POPC   GL1 8497  22.768  24.603   9.151
  248POPC   GL2 8498  22.643  24.274   9.228
  248POPC   C1A 8499  22.959  24.446   8.770
  248POPC   D2A 8500  23.112  24.606   8.380
  248POPC   C3A 8501  22.935  24.460   8.008
  248POPC   C4A 8502  22.786  24.681   7.694
  248POPC   C1B 8503  22.436  24.368   8.844
  248POPC   C2B 8504  22.564  24.499   8.437
  248POPC   C3B 8505  22.471  24.254   8.052
  248POPC   C4B 8506  22.611  24.219   7.627
  249POPC   NC3 8507  41.895  24.295   9.528
  249POPC   PO4 8508  41.213  24.533   9.466
  249POPC   GL1 8509  41.465  24.565   9.108
  249POPC   GL2 8510  41.574  24.883   9.084
  249POPC   C1A 8511  41.457  24.669   8.649
  249POPC   D2A 8512  41.654  24.440   8.325
  249POPC   C3A 8513  41.535  24.517   7.936
  249POPC   C4A 8514  41.648  24.211   7.666
  249POPC   C1B 8515  41.894  24.911   8.831
  249POPC   C2B 8516  42.009  24.818   8.460
  249POPC   C3B 8517  42.053  24.728   8.043
  249POPC   C4B 8518  41.945  24.644   7.639
  250POPC   NC3 8519  19.253  29.585   9.402
  250POPC   PO4 8520  18.822  30.156   9.565
  250POPC   GL1 8521  18.939  29.963   9.225
  250POPC   GL2 8522  19.184  30.196   9.171
  250POPC   C1A 8523  18.896  29.969   8.794
  250POPC   D2A 8524  18.995  30.109   8.390
  250POPC   C3A 8525  18.814  29.848   8.086
  250POPC   C4A 8526  18.972  29.819   7.667
  250POPC   C1B 8527  19.400  29.911   8.855
  250POPC   C2B 8528  19.444  29.691   8.446
  250POPC   C3B 8529  19.346  29.834   8.037
  250POPC   C4B 8530  19.390  30.085   7.669
  251POPC   NC3 8531   1.082  37.483   9.481
  251POPC   PO4 8532   1.366  38.011   9.890
  251POPC   GL1 8533   1.360  38.060   9.373
  251POPC   GL2 8534   1.473  37.728   9.225
  251POPC   C1A 8535   1.190  38.061   8.912
  251POPC   D2A 8536   0.890  37.808   8.625
  251POPC   C3A 8537   0.877  37.835   8.169
  251POPC   C4A 8538   0.893  37.623   7.778
  251POPC   C1B 8539   1.438  37.629   8.776
  251POPC   C2B 8540   1.377  37.794   8.363
  251POPC   C3B 8541   1.383  37.658   7.931
  251POPC   C4B 8542   1.309  37.377   7.595
  252POPC   NC3 8543  30.063  20.244   9.391
  252POPC   PO4 8544  30.341  20.845   9.395
  252POPC   GL1 8545  30.205  20.814   9.022
  252POPC   GL2 8546  29.876  20.739   9.135
  252POPC   C1A 8547  30.100  20.495   8.720
  252POPC   D2A 8548  29.759  20.524   8.413
  252POPC   C3A 8549  29.924  20.585   8.013
  252POPC   C4A 8550  30.018  20.423   7.627
  252POPC   C1B 8551  29.806  20.923   8.720
  252POPC   C2B 8552  29.951  21.013   8.299
  252POPC   C3B 8553  29.673  21.040   7.954
  252POPC   C4B 8554  29.625  20.783   7.633
  253POPC   NC3 8555  19.242   4.826   9.637
  253POPC   PO4 8556  18.933   5.379   9.437
  253POPC   GL1 8557  19.042   5.227   9.076
  253POPC   GL2 8558  19.042   4.885   9.173
  253POPC   C1A 8559  18.828   5.202   8.683
  253POPC   D2A 8560  18.809   5.197   8.250
  253POPC   C3A 8561  19.188   5.070   8.103
  253POPC   C4A 8562  19.103   5.333   7.798
  253POPC   C1B 8563  18.774   4.730   8.868
  253POPC   C2B 8564  18.948   4.736   8.456
  253POPC   C3B 8565  18.861   4.689   8.040
  253POPC   C4B 8566  18.760   4.951   7.724
  254POPC   NC3 8567  11.513  18.424   9.624
  254POPC   PO4 8568  12.269  18.244   9.534
  254POPC   GL1 8569  11.930  18.289   9.222
  254POPC   GL2 8570  11.836  17.907   9.199
  254POPC   C1A 8571  11.982  18.514   8.798
  254POPC   D2A 8572  12.200  18.386   8.418
  254POPC   C3A 8573  12.017  18.391   8.012
  254POPC   C4A 8574  12.104  18.620   7.637
  254POPC   C1B 8575  11.965  17.999   8.774
  254POPC   C2B 8576  12.132  17.891   8.374
  254POPC   C3B 8577  12.379  18.015   8.001
  254POPC   C4B 8578  12.078  18.041   7.637
  255POPC   NC3 8579   9.053  40.997   9.538
  255POPC   PO4 8580   8.683  40.453   9.471
  255POPC   GL1 8581   8.798  40.584   9.085
  255POPC   GL2 8582   8.792  40.949   9.106
  255POPC   C1A 8583   9.046  40.522   8.707
  255POPC   D2A 8584   8.916  40.442   8.284
  255POPC   C3A 8585   9.228  40.578   7.966
  255POPC   C4A 8586   9.296  40.912   7.657
  255POPC   C1B 8587   8.879  40.996   8.697
  255POPC   C2B 8588   8.647  40.914   8.344
  255POPC   C3B 8589   8.761  40.793   7.943
  255POPC   C4B 8590   8.792  41.020   7.602
  256POPC   NC3 8591  26.860  24.687   9.526
  256POPC   PO4 8592  26.583  24.153   9.312
  256POPC   GL1 8593  26.733  24.476   9.056
  256POPC   GL2 8594  26.943  24.742   9.045
  256POPC   C1A 8595  26.833  24.448   8.634
  256POPC   D2A 8596  26.718  24.180   8.319
  256POPC   C3A 8597  26.808  24.283   7.922
  256POPC   C4A 8598  27.218  24.171   7.845
  256POPC   C1B 8599  27.205  24.785   8.702
  256POPC   C2B 8600  27.227  24.570   8.311
  256POPC   C3B 8601  27.125  24.699   7.940
  256POPC   C4B 8602  26.762  24.872   7.790
  257POPC   NC3 8603  18.388  31.433   9.462
  257POPC   PO4 8604  17.757  31.632   9.646
  257POPC   GL1 8605  17.776  31.663   9.207
  257POPC   GL2 8606  17.986  31.395   9.018
  257POPC   C1A 8607  17.825  31.794   8.767
  257POPC   D2A 8608  17.991  31.486   8.430
  257POPC   C3A 8609  18.264  31.623   8.079
  257POPC   C4A 8610  18.025  31.465   7.719
  257POPC   C1B 8611  18.358  31.209   8.822
  257POPC   C2B 8612  18.491  31.215   8.405
  257POPC   C3B 8613  18.336  31.136   8.002
  257POPC   C4B 8614  18.499  31.320   7.628
  258POPC   NC3 8615  23.144  13.592   9.551
  258POPC   PO4 8616  22.620  14.015   9.476
  258POPC   GL1 8617  22.766  13.641   9.229
  258POPC   GL2 8618  23.067  13.751   9.093
  258POPC   C1A 8619  22.706  13.530   8.782
  258POPC   D2A 8620  22.780  13.705   8.385
  258POPC   C3A 8621  22.771  13.522   8.003
  258POPC   C4A 8622  22.869  13.656   7.605
  258POPC   C1B 8623  23.246  13.752   8.723
  258POPC   C2B 8624  23.371  13.549   8.395
  258POPC   C3B 8625  23.304  13.552   7.970
  258POPC   C4B 8626  23.314  13.456   7.538
  259POPC   NC3 8627  34.811  16.109   9.617
  259POPC   PO4 8628  34.314  15.675   9.609
  259POPC   GL1 8629  34.533  15.844   9.231
  259POPC   GL2 8630  34.560  16.226   9.205
  259POPC   C1A 8631  34.565  15.918   8.777
  259POPC   D2A 8632  34.776  15.716   8.398
  259POPC   C3A 8633  34.614  15.715   7.931
  259POPC   C4A 8634  34.569  15.781   7.426
  259POPC   C1B 8635  34.834  16.318   8.873
  259POPC   C2B 8636  34.696  16.252   8.429
  259POPC   C3B 8637  34.818  16.175   8.051
  259POPC   C4B 8638  34.618  16.201   7.670
  260POPC   NC3 8639  32.832   6.070   9.453
  260POPC   PO4 8640  33.365   5.727   9.603
  260POPC   GL1 8641  33.405   5.828   9.144
  260POPC   GL2 8642  33.165   6.109   9.065
  260POPC   C1A 8643  33.309   5.815   8.681
  260POPC   D2A 8644  32.978   6.013   8.404
  260POPC   C3A 8645  33.074   5.905   8.013
  260POPC   C4A 8646  33.156   6.101   7.646
  260POPC   C1B 8647  32.806   5.834   8.845
  260POPC   C2B 8648  32.526   5.760   8.462
  260POPC   C3B 8649  32.603   5.717   8.060
  260POPC   C4B 8650  32.720   5.796   7.652
  261POPC   NC3 8651  24.159  22.193   9.414
  261POPC   PO4 8652  23.373  22.043   9.467
  261POPC   GL1 8653  23.677  22.159   9.181
  261POPC   GL2 8654  23.432  22.323   9.057
  261POPC   C1A 8655  23.836  22.335   8.762
  261POPC   D2A 8656  24.051  22.369   8.345
  261POPC   C3A 8657  23.961  22.167   7.933
  261POPC   C4A 8658  23.675  22.313   7.616
  261POPC   C1B 8659  23.418  22.052   8.692
  261POPC   C2B 8660  23.593  22.126   8.287
  261POPC   C3B 8661  23.503  21.912   7.887
  261POPC   C4B 8662  23.464  21.533   7.652
  262POPC   NC3 8663  38.789  33.751   9.557
  262POPC   PO4 8664  38.112  33.474   9.522
  262POPC   GL1 8665  38.395  33.682   9.209
  262POPC   GL2 8666  38.716  33.461   9.171
  262POPC   C1A 8667  38.377  33.988   8.835
  262POPC   D2A 8668  38.140  34.013   8.440
  262POPC   C3A 8669  38.330  33.889   8.036
  262POPC   C4A 8670  38.177  33.966   7.616
  262POPC   C1B 8671  38.817  33.746   8.836
  262POPC   C2B 8672  38.676  33.720   8.414
  262POPC   C3B 8673  38.629  33.481   8.029
  262POPC   C4B 8674  38.638  33.695   7.622
  263POPC   NC3 8675  22.478  40.168   9.325
  263POPC   PO4 8676  22.081  40.097   9.897
  263POPC   GL1 8677  21.948  40.301   9.406
  263POPC   GL2 8678  22.137  40.506   9.178
  263POPC   C1A 8679  21.785  40.110   8.952
  263POPC   D2A 8680  21.935  39.910   8.543
  263POPC   C3A 8681  22.106  39.809   8.120
  263POPC   C4A 8682  21.933  39.864   7.687
  263POPC   C1B 8683  22.135  40.383   8.743
  263POPC   C2B 8684  21.912  40.391   8.343
  263POPC   C3B 8685  22.081  40.296   7.958
  263POPC   C4B 8686  22.490  40.266   7.785
  264POPC   NC3 8687  27.609   1.719   9.564
  264POPC   PO4 8688  27.346   2.341   9.535
  264POPC   GL1 8689  27.639   2.202   9.163
  264POPC   GL2 8690  27.558   1.829   9.071
  264POPC   C1A 8691  27.841   2.082   8.737
  264POPC   D2A 8692  27.677   1.723   8.507
  264POPC   C3A 8693  27.741   1.759   8.060
  264POPC   C4A 8694  27.828   2.125   7.833
  264POPC   C1B 8695  27.331   2.038   8.728
  264POPC   C2B 8696  27.479   2.158   8.301
  264POPC   C3B 8697  27.394   2.338   7.912
  264POPC   C4B 8698  27.372   2.161   7.507
  265POPC   NC3 8699  41.639  16.993   9.474
  265POPC   PO4 8700  41.418  16.331   9.324
  265POPC   GL1 8701  41.666  16.598   9.135
  265POPC   GL2 8702  41.956  16.391   9.086
  265POPC   C1A 8703  41.553  16.872   8.802
  265POPC   D2A 8704  41.432  16.716   8.407
  265POPC   C3A 8705  41.569  16.895   8.022
  265POPC   C4A 8706  41.291  17.090   7.753
  265POPC   C1B 8707  41.713  16.380   8.684
  265POPC   C2B 8708  41.750  16.358   8.237
  265POPC   C3B 8709  41.638  16.436   7.808
  265POPC   C4B 8710  41.701  16.335   7.371
  266POPC   NC3 8711  15.301  40.620   9.474
  266POPC   PO4 8712  14.963  41.120   9.478
  266POPC   GL1 8713  15.099  40.933   9.106
  266POPC   GL2 8714  15.043  40.553   9.050
  266POPC   C1A 8715  15.065  41.056   8.682
  266POPC   D2A 8716  14.921  41.142   8.272
  266POPC   C3A 8717  15.194  40.966   7.992
  266POPC   C4A 8718  15.459  40.986   7.654
  266POPC   C1B 8719  15.389  40.652   8.795
  266POPC   C2B 8720  15.207  40.606   8.411
  266POPC   C3B 8721  15.185  40.448   8.029
  266POPC   C4B 8722  15.367  40.478   7.662
  267POPC   NC3 8723  10.748   2.854   9.570
  267POPC   PO4 8724  10.123   2.862   9.267
  267POPC   GL1 8725  10.496   2.901   9.126
  267POPC   GL2 8726  10.689   2.622   9.118
  267POPC   C1A 8727  10.614   2.975   8.739
  267POPC   D2A 8728  10.380   2.834   8.336
  267POPC   C3A 8729  10.560   2.872   7.908
  267POPC   C4A 8730  10.671   3.113   7.519
  267POPC   C1B 8731  10.488   2.497   8.730
  267POPC   C2B 8732  10.493   2.320   8.298
  267POPC   C3B 8733  10.265   2.434   7.925
  267POPC   C4B 8734  10.275   2.644   7.529
  268POPC   NC3 8735  23.365  29.447   9.425
  268POPC   PO4 8736  22.911  28.940   9.468
  268POPC   GL1 8737  22.947  29.268   9.167
  268POPC   GL2 8738  23.261  29.087   9.090
  268POPC   C1A 8739  23.092  29.457   8.781
  268POPC   D2A 8740  22.916  29.309   8.390
  268POPC   C3A 8741  22.917  29.490   7.997
  268POPC   C4A 8742  22.543  29.345   7.772
  268POPC   C1B 8743  23.178  28.962   8.680
  268POPC   C2B 8744  23.256  28.972   8.219
  268POPC   C3B 8745  23.201  28.785   7.814
  268POPC   C4B 8746  23.282  28.839   7.365
  269POPC   NC3 8747  44.473   1.571   9.538
  269POPC   PO4 8748  44.867   1.012   9.396
  269POPC   GL1 8749  44.823   1.363   9.125
  269POPC   GL2 8750  44.477   1.388   9.068
  269POPC   C1A 8751  44.831   1.368   8.666
  269POPC   D2A 8752  44.786   1.020   8.352
  269POPC   C3A 8753  44.834   1.100   7.902
  269POPC   C4A 8754   0.055   0.865   7.549
  269POPC   C1B 8755  44.374   1.621   8.706
  269POPC   C2B 8756  44.557   1.651   8.294
  269POPC   C3B 8757  44.470   1.520   7.858
  269POPC   C4B 8758  44.312   1.497   7.433
  270POPC   NC3 8759  14.061  44.721   9.565
  270POPC   PO4 8760  13.389  44.696   9.582
  270POPC   GL1 8761  13.648  44.642   9.178
  270POPC   GL2 8762  13.913  44.869   9.050
  270POPC   C1A 8763  13.548  44.698   8.736
  270POPC   D2A 8764  13.356  44.446   8.436
  270POPC   C3A 8765  13.503  44.551   8.051
  270POPC   C4A 8766  13.549  44.475   7.652
  270POPC   C1B 8767  13.959  44.973   8.606
  270POPC   C2B 8768  13.922  44.792   8.198
  270POPC   C3B 8769  13.841  44.891   7.764
  270POPC   C4B 8770  13.806   0.084   7.343
  271POPC   NC3 8771  27.975  11.516   9.513
  271POPC   PO4 8772  27.988  12.232   9.367
  271POPC   GL1 8773  27.720  11.993   9.130
  271POPC   GL2 8774  27.416  11.831   9.271
  271POPC   C1A 8775  27.813  11.937   8.706
  271POPC   D2A 8776  27.911  12.103   8.315
  271POPC   C3A 8777  27.709  11.939   7.953
  271POPC   C4A 8778  27.382  12.139   7.650
  271POPC   C1B 8779  27.325  11.925   8.823
  271POPC   C2B 8780  27.385  11.754   8.385
  271POPC   C3B 8781  27.242  11.746   7.933
  271POPC   C4B 8782  27.539  11.643   7.547
  272POPC   NC3 8783  37.503   6.498   9.877
  272POPC   PO4 8784  37.491   5.916   9.533
  272POPC   GL1 8785  37.616   5.713   9.108
  272POPC   GL2 8786  37.973   5.768   8.989
  272POPC   C1A 8787  37.430   5.577   8.713
  272POPC   D2A 8788  37.665   5.463   8.338
  272POPC   C3A 8789  37.484   5.540   7.928
  272POPC   C4A 8790  37.581   5.343   7.528
  272POPC   C1B 8791  37.762   5.945   8.641
  272POPC   C2B 8792  37.477   5.922   8.286
  272POPC   C3B 8793  37.574   6.049   7.888
  272POPC   C4B 8794  37.884   6.329   7.815
  273POPC   NC3 8795  17.867   6.335   9.384
  273POPC   PO4 8796  17.340   6.671   9.572
  273POPC   GL1 8797  17.560   6.695   9.187
  273POPC   GL2 8798  17.213   6.682   9.031
  273POPC   C1A 8799  17.612   6.650   8.741
  273POPC   D2A 8800  17.322   6.696   8.417
  273POPC   C3A 8801  17.599   6.676   8.094
  273POPC   C4A 8802  17.625   6.685   7.684
  273POPC   C1B 8803  17.008   6.376   8.693
  273POPC   C2B 8804  16.977   6.316   8.216
  273POPC   C3B 8805  17.168   6.476   7.805
  273POPC   C4B 8806  17.212   6.566   7.329
  274POPC   NC3 8807  43.952  29.580   9.749
  274POPC   PO4 8808  43.465  30.005   9.816
  274POPC   GL1 8809  43.795  29.986   9.410
  274POPC   GL2 8810  43.603  30.004   9.075
  274POPC   C1A 8811  44.101  30.078   9.012
  274POPC   D2A 8812  44.200  29.932   8.552
  274POPC   C3A 8813  44.014  29.972   8.104
  274POPC   C4A 8814  43.785  29.698   7.809
  274POPC   C1B 8815  43.634  29.712   8.702
  274POPC   C2B 8816  43.539  29.826   8.265
  274POPC   C3B 8817  43.287  29.858   7.871
  274POPC   C4B 8818  43.276  30.048   7.426
  275POPC   NC3 8819  20.705   8.473   9.447
  275POPC   PO4 8820  20.509   7.953   9.629
  275POPC   GL1 8821  20.456   8.090   9.186
  275POPC   GL2 8822  20.265   8.365   9.162
  275POPC   C1A 8823  20.463   8.180   8.699
  275POPC   D2A 8824  20.363   8.182   8.211
  275POPC   C3A 8825  20.589   8.259   7.794
  275POPC   C4A 8826  20.797   8.200   7.359
  275POPC   C1B 8827  20.283   8.644   8.837
  275POPC   C2B 8828  20.147   8.757   8.430
  275POPC   C3B 8829  20.371   8.683   8.050
  275POPC   C4B 8830  20.168   8.543   7.726
  276POPC   NC3 8831  41.426  19.413   9.824
  276POPC   PO4 8832  41.286  18.877   9.402
  276POPC   GL1 8833  41.494  18.757   9.027
  276POPC   GL2 8834  41.757  18.923   9.122
  276POPC   C1A 8835  41.728  18.766   8.609
  276POPC   D2A 8836  41.563  19.102   8.290
  276POPC   C3A 8837  41.370  19.008   7.873
  276POPC   C4A 8838  41.551  18.903   7.469
  276POPC   C1B 8839  41.693  19.221   8.786
  276POPC   C2B 8840  41.908  19.495   8.536
  276POPC   C3B 8841  41.856  19.536   8.090
  276POPC   C4B 8842  41.749  19.307   7.732
  277POPC   NC3 8843  43.965  22.714   9.717
  277POPC   PO4 8844  43.404  22.841   9.568
  277POPC   GL1 8845  43.769  22.780   9.248
  277POPC   GL2 8846  43.965  23.063   9.239
  277POPC   C1A 8847  43.897  22.776   8.797
  277POPC   D2A 8848  43.838  23.000   8.395
  277POPC   C3A 8849  43.966  22.766   8.053
  277POPC   C4A 8850  44.039  22.887   7.637
  277POPC   C1B 8851  43.874  23.293   8.848
  277POPC   C2B 8852  44.147  23.433   8.467
  277POPC   C3B 8853  44.137  23.297   8.020
  277POPC   C4B 8854  43.877  23.369   7.667
  278POPC   NC3 8855  11.268  33.081   9.683
  278POPC   PO4 8856  11.660  33.227   9.175
  278POPC   GL1 8857  11.292  33.385   8.979
  278POPC   GL2 8858  10.984  33.370   9.178
  278POPC   C1A 8859  11.267  33.294   8.539
  278POPC   D2A 8860  11.613  33.019   8.322
  278POPC   C3A 8861  11.507  32.897   7.916
  278POPC   C4A 8862  11.243  33.201   7.760
  278POPC   C1B 8863  11.025  32.973   8.894
  278POPC   C2B 8864  11.156  32.791   8.508
  278POPC   C3B 8865  11.016  32.798   8.099
  278POPC   C4B 8866  11.066  32.733   7.681
  279POPC   NC3 8867  18.962  13.338   9.409
  279POPC   PO4 8868  18.724  13.982   9.357
  279POPC   GL1 8869  18.857  13.775   9.006
  279POPC   GL2 8870  19.016  14.043   8.847
  279POPC   C1A 8871  19.145  13.545   8.768
  279POPC   D2A 8872  19.378  13.447   8.399
  279POPC   C3A 8873  19.244  13.563   7.968
  279POPC   C4A 8874  18.927  13.343   7.696
  279POPC   C1B 8875  19.321  13.990   8.509
  279POPC   C2B 8876  19.493  14.076   8.097
  279POPC   C3B 8877  19.310  14.029   7.721
  279POPC   C4B 8878  18.916  13.870   7.683
  280POPC   NC3 8879  25.340  22.873   9.598
  280POPC   PO4 8880  24.772  22.635   9.386
  280POPC   GL1 8881  25.050  23.054   9.197
  280POPC   GL2 8882  25.438  23.064   9.156
  280POPC   C1A 8883  25.155  23.280   8.774
  280POPC   D2A 8884  24.982  23.349   8.335
  280POPC   C3A 8885  25.039  23.255   7.868
  280POPC   C4A 8886  25.099  22.896   7.543
  280POPC   C1B 8887  25.599  23.027   8.775
  280POPC   C2B 8888  25.523  23.167   8.363
  280POPC   C3B 8889  25.515  23.061   7.941
  280POPC   C4B 8890  25.453  23.238   7.554
  281POPC   NC3 8891  14.173  14.963   9.529
  281POPC   PO4 8892  14.842  15.119   9.484
  281POPC   GL1 8893  14.517  15.198   9.160
  281POPC   GL2 8894  14.460  15.556   9.054
  281POPC   C1A 8895  14.429  15.153   8.717
  281POPC   D2A 8896  14.366  14.919   8.333
  281POPC   C3A 8897  14.560  15.038   7.975
  281POPC   C4A 8898  14.705  15.346   7.682
  281POPC   C1B 8899  14.147  15.596   8.739
  281POPC   C2B 8900  14.131  15.383   8.334
  281POPC   C3B 8901  14.185  15.370   7.894
  281POPC   C4B 8902  13.938  15.548   7.592
  282POPC   NC3 8903  25.595  36.102   9.806
  282POPC   PO4 8904  26.116  35.948   9.676
  282POPC   GL1 8905  26.209  36.163   9.246
  282POPC   GL2 8906  25.915  36.356   9.136
  282POPC   C1A 8907  26.279  36.313   8.772
  282POPC   D2A 8908  26.124  36.541   8.364
  282POPC   C3A 8909  26.120  36.302   7.983
  282POPC   C4A 8910  26.394  35.973   7.833
  282POPC   C1B 8911  25.759  36.356   8.688
  282POPC   C2B 8912  25.647  36.370   8.229
  282POPC   C3B 8913  25.650  36.108   7.867
  282POPC   C4B 8914  25.735  36.164   7.441
  283POPC   NC3 8915  41.250   7.268   9.601
  283POPC   PO4 8916  41.662   7.747   9.656
  283POPC   GL1 8917  41.711   7.704   9.209
  283POPC   GL2 8918  41.842   7.358   9.225
  283POPC   C1A 8919  41.530   7.608   8.799
  283POPC   D2A 8920  41.391   7.327   8.451
  283POPC   C3A 8921  41.559   7.394   8.081
  283POPC   C4A 8922  41.595   7.581   7.698
  283POPC   C1B 8923  42.031   7.447   8.834
  283POPC   C2B 8924  41.907   7.562   8.434
  283POPC   C3B 8925  41.932   7.755   8.047
  283POPC   C4B 8926  42.107   7.668   7.671
  284POPC   NC3 8927  27.250  30.182   9.492
  284POPC   PO4 8928  27.232  29.545   9.792
  284POPC   GL1 8929  27.491  29.719   9.415
  284POPC   GL2 8930  27.232  29.705   9.199
  284POPC   C1A 8931  27.666  29.836   8.934
  284POPC   D2A 8932  27.932  29.873   8.512
  284POPC   C3A 8933  27.749  29.985   8.077
  284POPC   C4A 8934  27.358  30.161   7.913
  284POPC   C1B 8935  27.140  29.789   8.761
  284POPC   C2B 8936  27.416  29.736   8.386
  284POPC   C3B 8937  27.326  29.662   7.938
  284POPC   C4B 8938  27.262  29.673   7.456
  285POPC   NC3 8939  30.844  32.673   9.461
  285POPC   PO4 8940  30.450  32.019   9.539
  285POPC   GL1 8941  30.365  32.096   9.150
  285POPC   GL2 8942  30.427  32.440   9.192
  285POPC   C1A 8943  30.518  32.050   8.749
  285POPC   D2A 8944  30.737  32.098   8.387
  285POPC   C3A 8945  30.566  32.282   8.012
  285POPC   C4A 8946  30.559  32.184   7.610
  285POPC   C1B 8947  30.438  32.600   8.792
  285POPC   C2B 8948  30.681  32.606   8.416
  285POPC   C3B 8949  30.821  32.723   8.015
  285POPC   C4B 8950  30.658  32.679   7.592
  286POPC   NC3 8951   5.014  36.473   9.425
  286POPC   PO4 8952   5.213  37.029   9.653
  286POPC   GL1 8953   5.075  36.928   9.203
  286POPC   GL2 8954   4.844  36.741   9.039
  286POPC   C1A 8955   5.255  36.837   8.762
  286POPC   D2A 8956   5.170  37.048   8.374
  286POPC   C3A 8957   5.334  36.828   8.008
  286POPC   C4A 8958   5.174  36.937   7.600
  286POPC   C1B 8959   4.814  37.110   8.785
  286POPC   C2B 8960   4.628  37.068   8.410
  286POPC   C3B 8961   4.793  36.855   8.054
  286POPC   C4B 8962   4.680  36.977   7.669
  287POPC   NC3 8963   4.068   9.907   9.525
  287POPC   PO4 8964   4.722   9.703   9.500
  287POPC   GL1 8965   4.420   9.782   9.165
  287POPC   GL2 8966   4.263  10.137   9.118
  287POPC   C1A 8967   4.383   9.572   8.784
  287POPC   D2A 8968   4.575   9.661   8.384
  287POPC   C3A 8969   4.353   9.465   8.080
  287POPC   C4A 8970   4.147   9.530   7.711
  287POPC   C1B 8971   4.454  10.071   8.724
  287POPC   C2B 8972   4.257  10.071   8.343
  287POPC   C3B 8973   4.400   9.948   7.942
  287POPC   C4B 8974   4.282  10.022   7.530
  288POPC   NC3 8975   3.643   8.415   9.659
  288POPC   PO4 8976   3.890   7.928   9.235
  288POPC   GL1 8977   3.695   8.255   9.055
  288POPC   GL2 8978   3.411   8.247   9.221
  288POPC   C1A 8979   3.668   8.446   8.637
  288POPC   D2A 8980   3.732   8.451   8.213
  288POPC   C3A 8981   3.667   8.068   8.039
  288POPC   C4A 8982   3.829   7.833   7.737
  288POPC   C1B 8983   3.219   8.323   8.828
  288POPC   C2B 8984   3.244   8.221   8.390
  288POPC   C3B 8985   3.256   8.350   7.964
  288POPC   C4B 8986   3.342   8.050   7.631
  289POPC   NC3 8987  41.751  36.062   9.563
  289POPC   PO4 8988  42.405  35.898   9.514
  289POPC   GL1 8989  42.402  36.103   9.153
  289POPC   GL2 8990  42.047  36.039   9.137
  289POPC   C1A 8991  42.434  35.933   8.745
  289POPC   D2A 8992  42.315  35.749   8.355
  289POPC   C3A 8993  42.528  35.769   7.974
  289POPC   C4A 8994  42.345  35.992   7.647
  289POPC   C1B 8995  42.013  36.195   8.737
  289POPC   C2B 8996  42.163  36.253   8.316
  289POPC   C3B 8997  41.941  36.110   7.930
  289POPC   C4B 8998  41.637  36.291   7.636
  290POPC   NC3 8999  37.259  23.146   9.468
  290POPC   PO4 9000  37.840  22.923   9.579
  290POPC   GL1 9001  37.754  22.825   9.170
  290POPC   GL2 9002  38.089  22.647   9.149
  290POPC   C1A 9003  37.503  22.986   8.811
  290POPC   D2A 9004  37.324  23.083   8.406
  290POPC   C3A 9005  37.436  22.874   8.041
  290POPC   C4A 9006  37.565  23.148   7.753
  290POPC   C1B 9007  37.995  22.847   8.748
  290POPC   C2B 9008  37.786  22.789   8.383
  290POPC   C3B 9009  37.958  22.916   7.973
  290POPC   C4B 9010  38.136  22.733   7.614
  291POPC   NC3 9011  11.747  40.878   9.529
  291POPC   PO4 9012  11.231  40.370   9.535
  291POPC   GL1 9013  11.468  40.580   9.212
  291POPC   GL2 9014  11.350  40.945   9.212
  291POPC   C1A 9015  11.433  40.646   8.766
  291POPC   D2A 9016  11.129  40.798   8.437
  291POPC   C3A 9017  11.275  40.622   8.045
  291POPC   C4A 9018  11.152  40.736   7.648
  291POPC   C1B 9019  11.308  41.152   8.819
  291POPC   C2B 9020  11.577  41.057   8.480
  291POPC   C3B 9021  11.447  41.103   8.102
  291POPC   C4B 9022  11.546  41.050   7.703
  292POPC   NC3 9023  34.117  13.461   9.452
  292POPC   PO4 9024  33.508  13.180   9.571
  292POPC   GL1 9025  33.658  13.428   9.180
  292POPC   GL2 9026  33.785  13.774   9.168
  292POPC   C1A 9027  33.938  13.461   8.776
  292POPC   D2A 9028  33.849  13.268   8.347
  292POPC   C3A 9029  34.064  13.309   7.924
  292POPC   C4A 9030  33.891  13.314   7.505
  292POPC   C1B 9031  33.392  13.781   8.901
  292POPC   C2B 9032  33.341  13.904   8.487
  292POPC   C3B 9033  33.534  13.679   8.165
  292POPC   C4B 9034  33.776  13.720   7.786
  293POPC   NC3 9035  19.136   2.440   9.443
  293POPC   PO4 9036  18.780   1.840   9.561
  293POPC   GL1 9037  18.903   2.023   9.234
  293POPC   GL2 9038  18.682   2.238   9.207
  293POPC   C1A 9039  19.111   2.061   8.863
  293POPC   D2A 9040  19.247   1.941   8.474
  293POPC   C3A 9041  19.009   1.923   8.109
  293POPC   C4A 9042  19.143   1.666   7.807
  293POPC   C1B 9043  18.691   2.383   8.812
  293POPC   C2B 9044  18.755   2.235   8.439
  293POPC   C3B 9045  18.751   2.389   8.054
  293POPC   C4B 9046  18.968   2.259   7.692
  294POPC   NC3 9047  28.314  18.173   9.538
  294POPC   PO4 9048  28.278  18.907   9.544
  294POPC   GL1 9049  28.339  18.650   9.130
  294POPC   GL2 9050  28.515  18.319   9.084
  294POPC   C1A 9051  28.352  18.572   8.652
  294POPC   D2A 9052  28.170  18.359   8.267
  294POPC   C3A 9053  28.346  18.536   7.891
  294POPC   C4A 9054  28.253  18.875   7.565
  294POPC   C1B 9055  28.728  18.206   8.670
  294POPC   C2B 9056  28.644  18.149   8.206
  294POPC   C3B 9057  28.608  17.974   7.789
  294POPC   C4B 9058  28.378  17.829   7.425
  295POPC   NC3 9059  13.381  40.130   9.296
  295POPC   PO4 9060  13.981  40.056   9.641
  295POPC   GL1 9061  13.956  40.081   9.171
  295POPC   GL2 9062  13.783  40.330   8.961
  295POPC   C1A 9063  13.941  39.889   8.761
  295POPC   D2A 9064  13.688  39.676   8.477
  295POPC   C3A 9065  13.873  39.755   8.095
  295POPC   C4A 9066  13.668  39.754   7.728
  295POPC   C1B 9067  13.501  40.154   8.633
  295POPC   C2B 9068  13.464  40.085   8.179
  295POPC   C3B 9069  13.592  40.268   7.779
  295POPC   C4B 9070  13.333  40.260   7.405
  296POPC   NC3 9071  11.469  22.338   9.555
  296POPC   PO4 9072  11.393  21.712   9.682
  296POPC   GL1 9073  11.210  21.927   9.287
  296POPC   GL2 9074  11.105  22.277   9.224
  296POPC   C1A 9075  11.457  22.086   8.906
  296POPC   D2A 9076  11.656  21.950   8.529
  296POPC   C3A 9077  11.517  22.055   8.152
  296POPC   C4A 9078  11.381  22.044   7.770
  296POPC   C1B 9079  11.109  22.469   8.822
  296POPC   C2B 9080  11.015  22.604   8.400
  296POPC   C3B 9081  11.171  22.427   8.030
  296POPC   C4B 9082  11.131  22.415   7.547
  297POPC   NC3 9083   0.113  17.901   9.691
  297POPC   PO4 9084  44.709  17.374   9.426
  297POPC   GL1 9085  44.496  17.508   9.103
  297POPC   GL2 9086  44.152  17.451   9.195
  297POPC   C1A 9087  44.725  17.460   8.747
  297POPC   D2A 9088  44.802  17.701   8.413
  297POPC   C3A 9089  44.697  17.520   8.023
  297POPC   C4A 9090  44.895  17.272   7.721
  297POPC   C1B 9091  44.192  17.270   8.778
  297POPC   C2B 9092  44.373  17.357   8.395
  297POPC   C3B 9093  44.194  17.454   8.013
  297POPC   C4B 9094  44.356  17.479   7.639
  298POPC   NC3 9095  12.384  29.900   9.693
  298POPC   PO4 9096  12.957  29.963   9.783
  298POPC   GL1 9097  12.848  30.005   9.344
  298POPC   GL2 9098  12.913  29.680   9.232
  298POPC   C1A 9099  13.049  30.129   8.938
  298POPC   D2A 9100  12.983  29.953   8.517
  298POPC   C3A 9101  12.794  30.100   8.141
  298POPC   C4A 9102  12.910  29.992   7.717
  298POPC   C1B 9103  12.636  29.805   8.877
  298POPC   C2B 9104  12.515  29.744   8.418
  298POPC   C3B 9105  12.697  29.609   8.003
  298POPC   C4B 9106  13.085  29.435   7.826
  299POPC   NC3 9107  43.930  36.324   9.462
  299POPC   PO4 9108  44.046  35.673   9.457
  299POPC   GL1 9109  44.177  36.039   9.127
  299POPC   GL2 9110  44.153  36.453   9.040
  299POPC   C1A 9111  43.927  36.083   8.767
  299POPC   D2A 9112  43.845  35.770   8.505
  299POPC   C3A 9113  43.728  35.866   8.112
  299POPC   C4A 9114  43.810  36.176   7.831
  299POPC   C1B 9115  44.287  36.412   8.660
  299POPC   C2B 9116  44.131  36.235   8.279
  299POPC   C3B 9117  44.288  36.323   7.865
  299POPC   C4B 9118  44.013  36.444   7.446
  300POPC   NC3 9119  29.938  20.884   9.641
  300POPC   PO4 9120  30.142  21.647   9.511
  300POPC   GL1 9121  29.825  21.615   9.144
  300POPC   GL2 9122  29.806  21.356   8.944
  300POPC   C1A 9123  29.667  21.783   8.717
  300POPC   D2A 9124  29.682  21.411   8.451
  300POPC   C3A 9125  29.832  21.498   8.038
  300POPC   C4A 9126  29.712  21.763   7.708
  300POPC   C1B 9127  30.188  21.293   8.678
  300POPC   C2B 9128  30.428  21.320   8.308
  300POPC   C3B 9129  30.339  21.143   7.948
  300POPC   C4B 9130  30.093  20.974   7.675
  301POPC   NC3 9131  13.586  29.213   9.272
  301POPC   PO4 9132  14.060  28.988   9.672
  301POPC   GL1 9133  14.049  29.025   9.176
  301POPC   GL2 9134  14.054  29.382   9.082
  301POPC   C1A 9135  13.930  29.058   8.693
  301POPC   D2A 9136  13.801  28.774   8.347
  301POPC   C3A 9137  13.838  28.931   7.916
  301POPC   C4A 9138  13.550  28.937   7.551
  301POPC   C1B 9139  13.799  29.551   8.727
  301POPC   C2B 9140  13.624  29.325   8.350
  301POPC   C3B 9141  13.597  29.389   7.897
  301POPC   C4B 9142  13.886  29.587   7.628
  302POPC   NC3 9143  16.646  38.066   9.438
  302POPC   PO4 9144  17.035  38.571   9.616
  302POPC   GL1 9145  16.881  38.459   9.211
  302POPC   GL2 9146  16.494  38.477   9.173
  302POPC   C1A 9147  16.863  38.325   8.797
  302POPC   D2A 9148  16.713  38.465   8.424
  302POPC   C3A 9149  16.905  38.337   8.052
  302POPC   C4A 9150  17.050  38.678   7.857
  302POPC   C1B 9151  16.385  38.166   8.823
  302POPC   C2B 9152  16.266  38.227   8.389
  302POPC   C3B 9153  16.415  38.451   7.999
  302POPC   C4B 9154  16.595  38.533   7.566
  303POPC   NC3 9155   8.240  21.724   9.528
  303POPC   PO4 9156   8.364  22.316   9.453
  303POPC   GL1 9157   8.055  22.229   9.143
  303POPC   GL2 9158   8.224  21.944   9.083
  303POPC   C1A 9159   7.993  22.151   8.703
  303POPC   D2A 9160   8.123  21.962   8.358
  303POPC   C3A 9161   8.145  22.138   7.951
  303POPC   C4A 9162   7.819  22.390   7.797
  303POPC   C1B 9163   8.466  21.793   8.753
  303POPC   C2B 9164   8.577  21.773   8.338
  303POPC   C3B 9165   8.669  21.889   7.903
  303POPC   C4B 9166   8.495  22.092   7.520
  304POPC   NC3 9167  15.158  31.076   9.487
  304POPC   PO4 9168  15.429  31.695   9.376
  304POPC   GL1 9169  15.155  31.454   9.149
  304POPC   GL2 9170  15.437  31.210   9.085
  304POPC   C1A 9171  14.971  31.303   8.785
  304POPC   D2A 9172  15.148  31.324   8.388
  304POPC   C3A 9173  14.909  31.204   8.017
  304POPC   C4A 9174  14.999  31.461   7.674
  304POPC   C1B 9175  15.645  31.198   8.697
  304POPC   C2B 9176  15.557  31.045   8.312
  304POPC   C3B 9177  15.413  31.252   7.935
  304POPC   C4B 9178  15.525  31.043   7.546
  305POPC   NC3 9179  11.015  42.285   9.580
  305POPC   PO4 9180  11.560  42.686   9.561
  305POPC   GL1 9181  11.460  42.386   9.157
  305POPC   GL2 9182  11.221  42.116   9.157
  305POPC   C1A 9183  11.352  42.196   8.701
  305POPC   D2A 9184  11.129  41.975   8.396
  305POPC   C3A 9185  11.257  42.123   8.022
  305POPC   C4A 9186  11.264  42.222   7.611
  305POPC   C1B 9187  11.015  42.490   8.913
  305POPC   C2B 9188  10.760  42.554   8.522
  305POPC   C3B 9189  10.833  42.460   8.093
  305POPC   C4B 9190  10.905  42.586   7.650
  306POPC   NC3 9191  42.944  41.114   9.602
  306POPC   PO4 9192  43.159  40.494   9.477
  306POPC   GL1 9193  43.032  40.812   9.206
  306POPC   GL2 9194  43.316  41.063   9.180
  306POPC   C1A 9195  42.999  40.847   8.793
  306POPC   D2A 9196  42.865  41.137   8.487
  306POPC   C3A 9197  42.971  40.908   8.146
  306POPC   C4A 9198  42.838  40.941   7.763
  306POPC   C1B 9199  43.303  41.245   8.747
  306POPC   C2B 9200  43.411  41.173   8.294
  306POPC   C3B 9201  43.326  41.112   7.812
  306POPC   C4B 9202  43.419  41.201   7.363
  307POPC   NC3 9203  26.432   4.926   9.485
  307POPC   PO4 9204  26.126   5.334   9.751
  307POPC   GL1 9205  26.157   5.290   9.274
  307POPC   GL2 9206  26.395   5.500   9.091
  307POPC   C1A 9207  26.244   5.064   8.853
  307POPC   D2A 9208  26.059   5.134   8.421
  307POPC   C3A 9209  26.040   5.040   7.953
  307POPC   C4A 9210  25.702   4.979   7.603
  307POPC   C1B 9211  26.432   5.466   8.608
  307POPC   C2B 9212  26.551   5.213   8.244
  307POPC   C3B 9213  26.472   5.330   7.823
  307POPC   C4B 9214  26.238   5.723   7.662
  308POPC   NC3 9215   9.043  43.695   9.670
  308POPC   PO4 9216   8.586  44.069   9.361
  308POPC   GL1 9217   8.881  43.934   9.064
  308POPC   GL2 9218   9.102  43.655   9.147
  308POPC   C1A 9219   8.933  44.105   8.628
  308POPC   D2A 9220   8.621  44.238   8.337
  308POPC   C3A 9221   8.551  44.039   7.928
  308POPC   C4A 9222   8.812  43.908   7.605
  308POPC   C1B 9223   9.003  43.606   8.695
  308POPC   C2B 9224   9.159  43.752   8.289
  308POPC   C3B 9225   9.057  43.566   7.898
  308POPC   C4B 9226   9.193  43.622   7.468
  309POPC   NC3 9227  22.766  23.418   9.550
  309POPC   PO4 9228  23.257  23.898   9.303
  309POPC   GL1 9229  23.144  23.770   8.928
  309POPC   GL2 9230  22.803  23.634   9.063
  309POPC   C1A 9231  23.201  23.750   8.502
  309POPC   D2A 9232  23.192  23.431   8.223
  309POPC   C3A 9233  23.227  23.505   7.809
  309POPC   C4A 9234  22.823  23.532   7.610
  309POPC   C1B 9235  22.733  23.973   8.763
  309POPC   C2B 9236  22.868  24.103   8.371
  309POPC   C3B 9237  22.887  23.906   7.976
  309POPC   C4B 9238  23.105  23.967   7.598
  310POPC   NC3 9239  30.843  18.786   9.525
  310POPC   PO4 9240  30.647  18.187   9.754
  310POPC   GL1 9241  30.783  18.302   9.300
  310POPC   GL2 9242  30.765  18.033   9.070
  310POPC   C1A 9243  30.960  18.487   8.898
  310POPC   D2A 9244  30.792  18.658   8.485
  310POPC   C3A 9245  30.688  18.439   8.097
  310POPC   C4A 9246  30.783  18.493   7.643
  310POPC   C1B 9247  30.663  18.164   8.641
  310POPC   C2B 9248  30.303  18.261   8.400
  310POPC   C3B 9249  30.226  18.075   8.020
  310POPC   C4B 9250  30.595  18.032   7.807
  311POPC   NC3 9251  21.981  25.678   9.538
  311POPC   PO4 9252  22.107  25.036   9.551
  311POPC   GL1 9253  22.176  25.290   9.205
  311POPC   GL2 9254  21.857  25.383   9.136
  311POPC   C1A 9255  22.393  25.395   8.828
  311POPC   D2A 9256  22.181  25.478   8.425
  311POPC   C3A 9257  22.308  25.290   8.026
  311POPC   C4A 9258  22.277  25.149   7.599
  311POPC   C1B 9259  21.969  25.127   8.749
  311POPC   C2B 9260  21.839  24.899   8.372
  311POPC   C3B 9261  21.918  24.915   7.934
  311POPC   C4B 9262  21.752  24.610   7.656
  312POPC   NC3 9263  25.702  42.095   9.560
  312POPC   PO4 9264  26.234  42.507   9.677
  312POPC   GL1 9265  26.104  42.261   9.265
  312POPC   GL2 9266  25.851  42.462   9.142
  312POPC   C1A 9267  25.992  42.108   8.823
  312POPC   D2A 9268  25.927  42.171   8.388
  312POPC   C3A 9269  26.296  42.119   8.098
  312POPC   C4A 9270  26.215  42.068   7.644
  312POPC   C1B 9271  25.966  42.602   8.709
  312POPC   C2B 9272  25.946  42.816   8.333
  312POPC   C3B 9273  25.967  42.523   8.028
  312POPC   C4B 9274  25.887  42.429   7.659
  313POPC   NC3 9275  32.609  36.375   9.276
  313POPC   PO4 9276  31.943  36.242   9.342
  313POPC   GL1 9277  32.218  36.334   8.962
  313POPC   GL2 9278  32.453  36.041   8.908
  313POPC   C1A 9279  32.481  36.495   8.603
  313POPC   D2A 9280  32.600  36.288   8.205
  313POPC   C3A 9281  32.207  36.198   7.979
  313POPC   C4A 9282  32.032  36.442   7.615
  313POPC   C1B 9283  32.187  36.057   8.526
  313POPC   C2B 9284  32.041  35.707   8.239
  313POPC   C3B 9285  31.954  35.760   7.796
  313POPC   C4B 9286  32.224  35.972   7.504
  314POPC   NC3 9287  31.604  42.254   9.545
  314POPC   PO4 9288  31.340  42.902   9.471
  314POPC   GL1 9289  31.629  42.623   9.153
  314POPC   GL2 9290  31.613  42.227   9.045
  314POPC   C1A 9291  31.645  42.598   8.685
  314POPC   D2A 9292  31.649  42.339   8.314
  314POPC   C3A 9293  31.320  42.460   8.048
  314POPC   C4A 9294  31.382  42.570   7.654
  314POPC   C1B 9295  31.714  41.942   8.696
  314POPC   C2B 9296  31.633  41.811   8.275
  314POPC   C3B 9297  31.539  42.018   7.912
  314POPC   C4B 9298  31.656  42.076   7.497
  315POPC   NC3 9299  41.595  21.778   9.471
  315POPC   PO4 9300  41.433  21.174   9.746
  315POPC   GL1 9301  41.521  21.270   9.299
  315POPC   GL2 9302  41.197  21.199   9.208
  315POPC   C1A 9303  41.580  21.458   8.876
  315POPC   D2A 9304  41.469  21.317   8.466
  315POPC   C3A 9305  41.509  21.482   8.050
  315POPC   C4A 9306  41.213  21.697   7.765
  315POPC   C1B 9307  41.360  20.961   8.862
  315POPC   C2B 9308  41.330  20.846   8.426
  315POPC   C3B 9309  41.333  21.000   8.007
  315POPC   C4B 9310  41.294  21.190   7.585
  316POPC   NC3 9311  32.506  15.605   9.243
  316POPC   PO4 9312  32.614  16.182   9.572
  316POPC   GL1 9313  32.426  16.161   9.188
  316POPC   GL2 9314  32.096  16.018   9.165
  316POPC   C1A 9315  32.570  16.059   8.789
  316POPC   D2A 9316  32.496  15.865   8.414
  316POPC   C3A 9317  32.722  15.999   8.074
  316POPC   C4A 9318  32.590  15.742   7.728
  316POPC   C1B 9319  31.967  16.162   8.740
  316POPC   C2B 9320  31.935  15.990   8.309
  316POPC   C3B 9321  32.057  15.937   7.873
  316POPC   C4B 9322  31.818  16.028   7.522
  317POPC   NC3 9323   1.717   0.247   9.424
  317POPC   PO4 9324   2.215   0.513   9.770
  317POPC   GL1 9325   2.197   0.435   9.262
  317POPC   GL2 9326   2.388   0.192   9.041
  317POPC   C1A 9327   2.076   0.575   8.819
  317POPC   D2A 9328   2.046   0.432   8.341
  317POPC   C3A 9329   1.679   0.532   8.037
  317POPC   C4A 9330   1.785   0.766   7.654
  317POPC   C1B 9331   1.986   0.086   8.761
  317POPC   C2B 9332   1.720   0.011   8.443
  317POPC   C3B 9333   1.853   0.034   8.058
  317POPC   C4B 9334   2.071   0.306   7.803
  318POPC   NC3 9335  28.141  34.030   9.492
  318POPC   PO4 9336  28.728  33.802   9.530
  318POPC   GL1 9337  28.543  33.661   9.129
  318POPC   GL2 9338  28.187  33.714   9.076
  318POPC   C1A 9339  28.495  33.515   8.712
  318POPC   D2A 9340  28.474  33.735   8.338
  318POPC   C3A 9341  28.654  33.578   7.978
  318POPC   C4A 9342  28.506  33.735   7.612
  318POPC   C1B 9343  28.343  34.024   8.755
  318POPC   C2B 9344  28.219  34.196   8.350
  318POPC   C3B 9345  28.207  34.211   7.886
  318POPC   C4B 9346  28.232  34.116   7.448
  319POPC   NC3 9347  15.442   7.287   9.632
  319POPC   PO4 9348  14.872   7.277   9.332
  319POPC   GL1 9349  15.320   7.322   9.106
  319POPC   GL2 9350  15.633   7.142   9.183
  319POPC   C1A 9351  15.505   7.531   8.700
  319POPC   D2A 9352  15.435   7.617   8.221
  319POPC   C3A 9353  15.484   7.813   7.792
  319POPC   C4A 9354  15.531   7.748   7.337
  319POPC   C1B 9355  15.677   7.034   8.732
  319POPC   C2B 9356  15.454   7.125   8.346
  319POPC   C3B 9357  15.295   6.899   7.977
  319POPC   C4B 9358  15.428   6.923   7.537
  320POPC   NC3 9359  32.178   0.933   9.561
  320POPC   PO4 9360  31.940   1.493   9.841
  320POPC   GL1 9361  31.949   1.532   9.315
  320POPC   GL2 9362  32.082   1.233   9.142
  320POPC   C1A 9363  32.055   1.623   8.843
  320POPC   D2A 9364  32.227   1.297   8.542
  320POPC   C3A 9365  32.168   1.343   8.098
  320POPC   C4A 9366  32.158   1.495   7.674
  320POPC   C1B 9367  32.069   0.886   8.870
  320POPC   C2B 9368  32.194   0.712   8.472
  320POPC   C3B 9369  32.321   0.770   8.047
  320POPC   C4B 9370  32.108   0.969   7.723
  321POPC   NC3 9371  14.903  10.579   9.598
  321POPC   PO4 9372  15.545  10.307   9.584
  321POPC   GL1 9373  15.399  10.610   9.288
  321POPC   GL2 9374  15.141  10.393   9.144
  321POPC   C1A 9375  15.306  10.823   8.888
  321POPC   D2A 9376  15.038  10.670   8.556
  321POPC   C3A 9377  15.118  10.682   8.110
  321POPC   C4A 9378  15.142  10.757   7.670
  321POPC   C1B 9379  15.110  10.177   8.725
  321POPC   C2B 9380  15.311  10.248   8.312
  321POPC   C3B 9381  15.248  10.197   7.862
  321POPC   C4B 9382  14.873  10.328   7.613
  322POPC   NC3 9383  44.639  22.316   9.249
  322POPC   PO4 9384  44.567  21.744   9.641
  322POPC   GL1 9385  44.567  21.832   9.210
  322POPC   GL2 9386  44.218  21.873   9.204
  322POPC   C1A 9387  44.779  21.869   8.779
  322POPC   D2A 9388  44.879  21.706   8.372
  322POPC   C3A 9389  44.843  21.983   7.989
  322POPC   C4A 9390  44.751  22.271   7.633
  322POPC   C1B 9391  44.270  22.027   8.767
  322POPC   C2B 9392  44.431  21.955   8.337
  322POPC   C3B 9393  44.341  22.036   7.895
  322POPC   C4B 9394  44.226  22.429   7.754
  323POPC   NC3 9395  36.974  40.500   9.418
  323POPC   PO4 9396  36.894  41.095   9.649
  323POPC   GL1 9397  36.926  40.956   9.238
  323POPC   GL2 9398  36.643  40.755   9.139
  323POPC   C1A 9399  37.153  41.023   8.851
  323POPC   D2A 9400  37.053  40.820   8.471
  323POPC   C3A 9401  37.150  40.994   8.091
  323POPC   C4A 9402  37.144  40.826   7.696
  323POPC   C1B 9403  36.677  40.496   8.782
  323POPC   C2B 9404  36.602  40.597   8.358
  323POPC   C3B 9405  36.846  40.485   8.009
  323POPC   C4B 9406  36.747  40.500   7.586
  324POPC   NC3 9407  14.670   9.732  10.075
  324POPC   PO4 9408  14.807  10.122   9.642
  324POPC   GL1 9409  14.744  10.053   9.152
  324POPC   GL2 9410  14.635   9.708   9.052
  324POPC   C1A 9411  14.609  10.055   8.682
  324POPC   D2A 9412  14.557   9.790   8.298
  324POPC   C3A 9413  14.312   9.954   7.924
  324POPC   C4A 9414  14.029  10.192   7.597
  324POPC   C1B 9415  14.976   9.682   8.712
  324POPC   C2B 9416  15.074   9.798   8.273
  324POPC   C3B 9417  14.850   9.851   7.858
  324POPC   C4B 9418  14.686   9.532   7.557
  325POPC   NC3 9419  43.772  39.664   9.423
  325POPC   PO4 9420  43.741  38.946   9.615
  325POPC   GL1 9421  44.006  39.210   9.313
  325POPC   GL2 9422  44.225  38.991   9.177
  325POPC   C1A 9423  44.093  39.359   8.853
  325POPC   D2A 9424  44.132  39.407   8.398
  325POPC   C3A 9425  43.807  39.392   8.109
  325POPC   C4A 9426  44.086  39.397   7.751
  325POPC   C1B 9427  43.840  38.922   8.916
  325POPC   C2B 9428  43.788  39.030   8.496
  325POPC   C3B 9429  44.039  38.953   8.138
  325POPC   C4B 9430  43.800  38.973   7.779
  326POPC   NC3 9431  33.257  20.926   9.526
  326POPC   PO4 9432  32.769  21.345   9.520
  326POPC   GL1 9433  32.932  21.433   9.108
  326POPC   GL2 9434  32.829  21.092   9.056
  326POPC   C1A 9435  32.963  21.504   8.654
  326POPC   D2A 9436  33.200  21.677   8.283
  326POPC   C3A 9437  32.964  21.607   7.912
  326POPC   C4A 9438  32.820  21.292   7.655
  326POPC   C1B 9439  33.257  21.116   8.866
  326POPC   C2B 9440  33.266  21.158   8.411
  326POPC   C3B 9441  33.250  21.213   7.990
  326POPC   C4B 9442  33.254  20.998   7.595
  327POPC   NC3 9443  29.380   4.695   9.479
  327POPC   PO4 9444  29.327   5.395   9.390
  327POPC   GL1 9445  29.146   5.109   9.136
  327POPC   GL2 9446  28.775   5.181   9.172
  327POPC   C1A 9447  29.357   5.133   8.752
  327POPC   D2A 9448  29.472   5.385   8.391
  327POPC   C3A 9449  29.416   5.175   8.007
  327POPC   C4A 9450  29.267   5.034   7.617
  327POPC   C1B 9451  28.831   5.271   8.734
  327POPC   C2B 9452  29.022   5.086   8.375
  327POPC   C3B 9453  28.891   5.080   7.980
  327POPC   C4B 9454  28.698   4.772   7.781
  328POPC   NC3 9455   9.449  41.817   9.419
  328POPC   PO4 9456  10.014  41.455   9.754
  328POPC   GL1 9457   9.922  41.547   9.316
  328POPC   GL2 9458  10.074  41.839   9.182
  328POPC   C1A 9459   9.830  41.545   8.858
  328POPC   D2A 9460   9.830  41.534   8.424
  328POPC   C3A 9461   9.477  41.521   8.178
  328POPC   C4A 9462   9.562  41.351   7.793
  328POPC   C1B 9463  10.264  41.875   8.768
  328POPC   C2B 9464  10.122  41.928   8.337
  328POPC   C3B 9465   9.906  41.744   7.955
  328POPC   C4B 9466  10.121  41.538   7.623
  329POPC   NC3 9467   4.595  13.097   9.672
  329POPC   PO4 9468   4.309  13.791   9.530
  329POPC   GL1 9469   4.212  13.701   9.114
  329POPC   GL2 9470   4.487  13.553   9.060
  329POPC   C1A 9471   4.340  13.893   8.703
  329POPC   D2A 9472   4.347  14.040   8.279
  329POPC   C3A 9473   4.350  13.775   7.931
  329POPC   C4A 9474   4.431  13.964   7.569
  329POPC   C1B 9475   4.350  13.381   8.660
  329POPC   C2B 9476   4.521  13.299   8.270
  329POPC   C3B 9477   4.318  13.264   7.912
  329POPC   C4B 9478   3.917  13.438   7.826
  330POPC   NC3 9479  34.189   7.554   9.393
  330POPC   PO4 9480  34.885   7.436   9.393
  330POPC   GL1 9481  34.598   7.469   9.080
  330POPC   GL2 9482  34.449   7.173   9.154
  330POPC   C1A 9483  34.636   7.526   8.662
  330POPC   D2A 9484  34.891   7.295   8.362
  330POPC   C3A 9485  34.648   7.126   8.056
  330POPC   C4A 9486  34.465   7.268   7.663
  330POPC   C1B 9487  34.214   7.111   8.785
  330POPC   C2B 9488  34.318   7.230   8.413
  330POPC   C3B 9489  34.209   7.393   8.068
  330POPC   C4B 9490  34.476   7.715   7.942
  331POPC   NC3 9491  25.001  30.880   9.911
  331POPC   PO4 9492  24.494  31.153   9.476
  331POPC   GL1 9493  24.549  30.857   9.117
  331POPC   GL2 9494  24.724  30.527   9.113
  331POPC   C1A 9495  24.332  30.900   8.763
  331POPC   D2A 9496  24.360  30.723   8.398
  331POPC   C3A 9497  24.396  30.968   8.095
  331POPC   C4A 9498  24.568  30.867   7.779
  331POPC   C1B 9499  24.490  30.346   8.740
  331POPC   C2B 9500  24.515  30.254   8.271
  331POPC   C3B 9501  24.666  30.368   7.852
  331POPC   C4B 9502  24.871  30.599   7.500
  332POPC   NC3 9503  43.003  31.172   9.455
  332POPC   PO4 9504  42.763  31.837   9.641
  332POPC   GL1 9505  42.941  31.748   9.201
  332POPC   GL2 9506  43.278  31.669   9.254
  332POPC   C1A 9507  43.014  31.492   8.798
  332POPC   D2A 9508  42.896  31.487   8.352
  332POPC   C3A 9509  43.003  31.226   7.996
  332POPC   C4A 9510  42.951  31.501   7.637
  332POPC   C1B 9511  43.333  31.914   8.854
  332POPC   C2B 9512  43.378  31.879   8.394
  332POPC   C3B 9513  43.287  31.672   8.011
  332POPC   C4B 9514  43.419  31.335   7.728
  333POPC   NC3 9515   1.275   7.737   9.310
  333POPC   PO4 9516   1.662   7.188   9.327
  333POPC   GL1 9517   1.300   7.252   9.054
  333POPC   GL2 9518   0.975   7.325   9.178
  333POPC   C1A 9519   1.315   7.390   8.626
  333POPC   D2A 9520   1.351   7.716   8.320
  333POPC   C3A 9521   1.550   7.486   7.992
  333POPC   C4A 9522   1.327   7.124   7.792
  333POPC   C1B 9523   0.891   7.580   8.803
  333POPC   C2B 9524   0.816   7.563   8.380
  333POPC   C3B 9525   1.017   7.514   7.984
  333POPC   C4B 9526   0.834   7.319   7.638
  334POPC   NC3 9527  29.505  11.758   9.297
  334POPC   PO4 9528  30.137  11.853   9.536
  334POPC   GL1 9529  29.940  11.952   9.131
  334POPC   GL2 9530  29.665  12.177   9.080
  334POPC   C1A 9531  29.790  11.776   8.722
  334POPC   D2A 9532  29.801  11.937   8.346
  334POPC   C3A 9533  29.734  11.745   8.017
  334POPC   C4A 9534  30.073  11.598   7.782
  334POPC   C1B 9535  29.833  12.298   8.739
  334POPC   C2B 9536  29.695  12.430   8.394
  334POPC   C3B 9537  29.878  12.373   8.007
  334POPC   C4B 9538  29.866  12.074   7.657
  335POPC   NC3 9539  21.510  14.390   9.344
  335POPC   PO4 9540  21.007  13.951   9.503
  335POPC   GL1 9541  21.076  14.215   9.138
  335POPC   GL2 9542  20.964  14.558   9.209
  335POPC   C1A 9543  21.236  14.201   8.710
  335POPC   D2A 9544  21.026  14.120   8.325
  335POPC   C3A 9545  21.268  14.147   7.919
  335POPC   C4A 9546  21.631  14.381   7.786
  335POPC   C1B 9547  21.158  14.699   8.825
  335POPC   C2B 9548  21.276  14.727   8.402
  335POPC   C3B 9549  21.057  14.835   8.036
  335POPC   C4B 9550  21.215  14.663   7.712
  336POPC   NC3 9551  31.814  14.195   9.513
  336POPC   PO4 9552  32.522  14.290   9.578
  336POPC   GL1 9553  32.206  14.424   9.245
  336POPC   GL2 9554  32.013  14.153   9.070
  336POPC   C1A 9555  32.229  14.507   8.787
  336POPC   D2A 9556  32.079  14.431   8.366
  336POPC   C3A 9557  32.212  14.640   7.985
  336POPC   C4A 9558  32.049  14.648   7.559
  336POPC   C1B 9559  32.145  14.010   8.691
  336POPC   C2B 9560  32.511  14.183   8.495
  336POPC   C3B 9561  32.534  14.213   8.066
  336POPC   C4B 9562  32.157  14.132   7.794
  337POPC   NC3 9563  16.978   5.663   9.417
  337POPC   PO4 9564  16.597   6.038   9.791
  337POPC   GL1 9565  16.551   5.940   9.324
  337POPC   GL2 9566  16.863   6.007   9.067
  337POPC   C1A 9567  16.441   5.804   8.912
  337POPC   D2A 9568  16.639   6.019   8.573
  337POPC   C3A 9569  16.708   5.823   8.189
  337POPC   C4A 9570  16.526   5.880   7.805
  337POPC   C1B 9571  16.882   5.608   8.768
  337POPC   C2B 9572  17.150   5.606   8.410
  337POPC   C3B 9573  17.202   5.832   8.044
  337POPC   C4B 9574  16.985   5.738   7.706
  338POPC   NC3 9575   8.057  22.666   9.415
  338POPC   PO4 9576   8.747  22.860   9.499
  338POPC   GL1 9577   8.464  22.906   9.172
  338POPC   GL2 9578   8.505  22.604   9.056
  338POPC   C1A 9579   8.320  23.099   8.764
  338POPC   D2A 9580   8.125  22.993   8.333
  338POPC   C3A 9581   8.203  23.164   7.898
  338POPC   C4A 9582   8.031  23.336   7.468
  338POPC   C1B 9583   8.139  22.623   8.767
  338POPC   C2B 9584   8.063  22.489   8.331
  338POPC   C3B 9585   8.228  22.635   7.960
  338POPC   C4B 9586   8.458  22.702   7.592
  339POPC   NC3 9587   3.565  10.276   9.560
  339POPC   PO4 9588   3.775   9.539   9.507
  339POPC   GL1 9589   3.501   9.784   9.269
  339POPC   GL2 9590   3.728  10.018   9.160
  339POPC   C1A 9591   3.398   9.774   8.837
  339POPC   D2A 9592   3.495   9.506   8.484
  339POPC   C3A 9593   3.413   9.686   8.071
  339POPC   C4A 9594   3.434   9.484   7.653
  339POPC   C1B 9595   3.917   9.947   8.782
  339POPC   C2B 9596   3.723   9.980   8.395
  339POPC   C3B 9597   3.895   9.903   8.003
  339POPC   C4B 9598   3.782   9.995   7.607
  340POPC   NC3 9599  39.534  30.196   9.636
  340POPC   PO4 9600  40.199  30.064   9.483
  340POPC   GL1 9601  39.910  29.814   9.281
  340POPC   GL2 9602  40.117  29.517   9.239
  340POPC   C1A 9603  39.764  29.914   8.878
  340POPC   D2A 9604  39.937  30.000   8.459
  340POPC   C3A 9605  39.637  30.062   8.132
  340POPC   C4A 9606  39.780  30.090   7.713
  340POPC   C1B 9607  40.249  29.723   8.836
  340POPC   C2B 9608  40.409  29.777   8.390
  340POPC   C3B 9609  40.221  29.752   7.954
  340POPC   C4B 9610  40.184  29.857   7.504
  341POPC   NC3 9611  28.274  32.375   9.581
  341POPC   PO4 9612  28.529  31.734   9.682
  341POPC   GL1 9613  28.542  31.977   9.265
  341POPC   GL2 9614  28.597  32.363   9.187
  341POPC   C1A 9615  28.335  32.093   8.847
  341POPC   D2A 9616  28.269  32.366   8.494
  341POPC   C3A 9617  28.475  32.208   8.126
  341POPC   C4A 9618  28.258  32.105   7.758
  341POPC   C1B 9619  28.724  32.473   8.753
  341POPC   C2B 9620  28.647  32.666   8.317
  341POPC   C3B 9621  28.790  32.576   7.902
  341POPC   C4B 9622  28.725  32.236   7.606
  342POPC   NC3 9623  43.268  27.729   9.826
  342POPC   PO4 9624  42.846  28.190   9.766
  342POPC   GL1 9625  43.060  27.880   9.410
  342POPC   GL2 9626  43.271  28.034   9.214
  342POPC   C1A 9627  43.118  27.602   8.988
  342POPC   D2A 9628  42.925  27.692   8.550
  342POPC   C3A 9629  43.010  27.590   8.087
  342POPC   C4A 9630  43.380  27.537   7.823
  342POPC   C1B 9631  43.260  28.040   8.750
  342POPC   C2B 9632  43.390  27.835   8.330
  342POPC   C3B 9633  43.270  28.009   7.924
  342POPC   C4B 9634  42.896  27.970   7.659
  343POPC   NC3 9635   0.393  41.864   9.417
  343POPC   PO4 9636   0.792  42.368   9.562
  343POPC   GL1 9637   0.394  42.378   9.281
  343POPC   GL2 9638   0.346  42.724   9.156
  343POPC   C1A 9639   0.284  42.332   8.818
  343POPC   D2A 9640   0.390  42.203   8.350
  343POPC   C3A 9641   0.275  42.340   7.932
  343POPC   C4A 9642   0.400  42.493   7.537
  343POPC   C1B 9643   0.615  42.737   8.777
  343POPC   C2B 9644   0.590  42.701   8.342
  343POPC   C3B 9645   0.558  42.806   7.906
  343POPC   C4B 9646   0.707  42.901   7.477
  344POPC   NC3 9647  28.566  41.891   9.536
  344POPC   PO4 9648  28.109  41.475   9.548
  344POPC   GL1 9649  28.197  41.629   9.125
  344POPC   GL2 9650  28.536  41.531   9.170
  344POPC   C1A 9651  28.173  41.644   8.643
  344POPC   D2A 9652  28.195  41.346   8.300
  344POPC   C3A 9653  28.294  41.570   7.937
  344POPC   C4A 9654  28.254  41.618   7.514
  344POPC   C1B 9655  28.641  41.455   8.770
  344POPC   C2B 9656  28.660  41.623   8.387
  344POPC   C3B 9657  28.728  41.864   8.056
  344POPC   C4B 9658  28.731  41.633   7.697
  345POPC   NC3 9659  37.048   6.004   9.471
  345POPC   PO4 9660  36.408   5.946   9.433
  345POPC   GL1 9661  36.675   5.933   9.111
  345POPC   GL2 9662  36.633   5.576   9.072
  345POPC   C1A 9663  37.005   5.885   8.818
  345POPC   D2A 9664  36.978   5.941   8.402
  345POPC   C3A 9665  37.094   5.937   7.945
  345POPC   C4A 9666  37.009   6.161   7.553
  345POPC   C1B 9667  36.493   5.728   8.681
  345POPC   C2B 9668  36.605   5.649   8.281
  345POPC   C3B 9669  36.742   5.592   7.847
  345POPC   C4B 9670  37.064   5.377   7.597
  346POPC   NC3 9671  35.534   9.463   9.636
  346POPC   PO4 9672  35.182  10.060   9.424
  346POPC   GL1 9673  35.580   9.896   9.261
  346POPC   GL2 9674  35.445   9.594   9.141
  346POPC   C1A 9675  35.740   9.856   8.828
  346POPC   D2A 9676  35.531  10.014   8.460
  346POPC   C3A 9677  35.580   9.829   8.060
  346POPC   C4A 9678  35.464   9.994   7.657
  346POPC   C1B 9679  35.279   9.586   8.717
  346POPC   C2B 9680  35.084   9.714   8.314
  346POPC   C3B 9681  35.140   9.560   7.881
  346POPC   C4B 9682  35.127   9.621   7.420
  347POPC   NC3 9683  14.164  39.651   9.423
  347POPC   PO4 9684  14.645  39.171   9.615
  347POPC   GL1 9685  14.449  39.210   9.191
  347POPC   GL2 9686  14.071  39.188   9.201
  347POPC   C1A 9687  14.576  39.335   8.757
  347POPC   D2A 9688  14.732  39.516   8.353
  347POPC   C3A 9689  14.635  39.339   7.922
  347POPC   C4A 9690  14.574  39.390   7.452
  347POPC   C1B 9691  14.029  39.367   8.794
  347POPC   C2B 9692  14.177  39.484   8.416
  347POPC   C3B 9693  14.123  39.297   8.021
  347POPC   C4B 9694  14.137  39.528   7.686
  348POPC   NC3 9695   3.739  13.023   9.518
  348POPC   PO4 9696   3.666  12.398   9.345
  348POPC   GL1 9697   3.722  12.799   9.076
  348POPC   GL2 9698   3.425  13.005   9.104
  348POPC   C1A 9699   3.744  13.113   8.712
  348POPC   D2A 9700   3.594  12.894   8.311
  348POPC   C3A 9701   3.614  13.033   7.878
  348POPC   C4A 9702   3.539  12.957   7.422
  348POPC   C1B 9703   3.240  13.032   8.680
  348POPC   C2B 9704   3.227  13.272   8.281
  348POPC   C3B 9705   3.141  13.208   7.849
  348POPC   C4B 9706   3.016  12.819   7.622
  349POPC   NC3 9707  17.344  28.578   9.435
  349POPC   PO4 9708  17.753  28.106   9.379
  349POPC   GL1 9709  17.653  28.393   9.032
  349POPC   GL2 9710  17.679  28.739   9.082
  349POPC   C1A 9711  17.619  28.302   8.594
  349POPC   D2A 9712  17.618  27.995   8.244
  349POPC   C3A 9713  17.278  28.119   7.992
  349POPC   C4A 9714  17.296  28.485   7.762
  349POPC   C1B 9715  17.825  28.830   8.685
  349POPC   C2B 9716  17.678  29.023   8.328
  349POPC   C3B 9717  17.631  28.841   7.918
  349POPC   C4B 9718  17.724  28.639   7.537
  350POPC   NC3 9719  21.539  44.249   9.381
  350POPC   PO4 9720  21.089  44.786   9.556
  350POPC   GL1 9721  21.053  44.644   9.151
  350POPC   GL2 9722  21.403  44.647   9.065
  350POPC   C1A 9723  21.038  44.693   8.683
  350POPC   D2A 9724  21.253  44.559   8.286
  350POPC   C3A 9725  21.066  44.379   7.930
  350POPC   C4A 9726  21.093  44.426   7.444
  350POPC   C1B 9727  21.687  44.635   8.700
  350POPC   C2B 9728  21.744  44.735   8.254
  350POPC   C3B 9729  21.811  44.816   7.792
  350POPC   C4B 9730  21.618   0.119   7.500
  351POPC   NC3 9731  30.258  40.253   9.574
  351POPC   PO4 9732  29.694  39.855   9.442
  351POPC   GL1 9733  29.889  39.922   9.080
  351POPC   GL2 9734  30.060  40.258   9.114
  351POPC   C1A 9735  29.729  39.876   8.648
  351POPC   D2A 9736  29.513  39.856   8.242
  351POPC   C3A 9737  29.790  39.994   7.925
  351POPC   C4A 9738  29.982  39.853   7.542
  351POPC   C1B 9739  30.229  40.092   8.760
  351POPC   C2B 9740  30.096  40.102   8.332
  351POPC   C3B 9741  30.301  40.067   7.938
  351POPC   C4B 9742  30.300  40.250   7.514
  352POPC   NC3 9743  17.601  14.348   9.366
  352POPC   PO4 9744  17.152  14.767   9.144
  352POPC   GL1 9745  17.346  14.446   8.927
  352POPC   GL2 9746  17.324  14.074   8.999
  352POPC   C1A 9747  17.699  14.314   8.709
  352POPC   D2A 9748  17.737  14.159   8.326
  352POPC   C3A 9749  17.669  14.418   7.953
  352POPC   C4A 9750  17.448  14.746   7.742
  352POPC   C1B 9751  17.253  14.121   8.537
  352POPC   C2B 9752  17.161  14.050   8.118
  352POPC   C3B 9753  17.226  14.257   7.708
  352POPC   C4B 9754  17.193  14.107   7.255
  353POPC   NC3 9755  44.525  40.326   9.402
  353POPC   PO4 9756  44.251  39.694   9.477
  353POPC   GL1 9757  44.395  39.933   9.113
  353POPC   GL2 9758  44.583  39.677   9.017
  353POPC   C1A 9759  44.384  40.285   8.755
  353POPC   D2A 9760  44.485  40.139   8.315
  353POPC   C3A 9761  44.330  40.129   7.870
  353POPC   C4A 9762  44.518  39.783   7.666
  353POPC   C1B 9763  44.781  39.968   8.707
  353POPC   C2B 9764  44.979  39.991   8.305
  353POPC   C3B 9765  44.856  40.183   7.930
  353POPC   C4B 9766  44.810  40.169   7.483
  354POPC   NC3 9767  16.328   8.692   9.588
  354POPC   PO4 9768  16.770   9.098   9.353
  354POPC   GL1 9769  16.533   9.043   9.039
  354POPC   GL2 9770  16.539   8.661   9.080
  354POPC   C1A 9771  16.723   9.302   8.725
  354POPC   D2A 9772  16.960   9.405   8.352
  354POPC   C3A 9773  16.695   9.390   8.042
  354POPC   C4A 9774  16.548   9.134   7.758
  354POPC   C1B 9775  16.865   8.802   8.737
  354POPC   C2B 9776  16.694   8.939   8.346
  354POPC   C3B 9777  16.589   8.677   8.018
  354POPC   C4B 9778  16.803   8.688   7.657
  355POPC   NC3 9779  30.731  17.764   9.610
  355POPC   PO4 9780  30.845  17.097   9.538
  355POPC   GL1 9781  31.001  17.475   9.288
  355POPC   GL2 9782  30.714  17.533   9.141
  355POPC   C1A 9783  31.097  17.656   8.852
  355POPC   D2A 9784  31.236  17.418   8.495
  355POPC   C3A 9785  30.980  17.417   8.114
  355POPC   C4A 9786  31.065  17.346   7.665
  355POPC   C1B 9787  30.577  17.667   8.740
  355POPC   C2B 9788  30.530  17.750   8.306
  355POPC   C3B 9789  30.353  17.565   7.927
  355POPC   C4B 9790  30.361  17.716   7.505
  356POPC   NC3 9791  24.251  24.736   9.314
  356POPC   PO4 9792  23.537  24.594   9.447
  356POPC   GL1 9793  23.794  24.505   9.106
  356POPC   GL2 9794  23.813  24.151   9.123
  356POPC   C1A 9795  23.614  24.368   8.689
  356POPC   D2A 9796  23.404  24.185   8.324
  356POPC   C3A 9797  23.446  24.444   7.953
  356POPC   C4A 9798  23.487  24.297   7.549
  356POPC   C1B 9799  24.107  24.219   8.758
  356POPC   C2B 9800  24.122  24.462   8.371
  356POPC   C3B 9801  23.960  24.388   7.947
  356POPC   C4B 9802  23.872  24.634   7.553
  357POPC   NC3 9803  38.856   7.202   9.731
  357POPC   PO4 9804  38.279   7.589   9.714
  357POPC   GL1 9805  38.444   7.567   9.244
  357POPC   GL2 9806  38.798   7.419   9.256
  357POPC   C1A 9807  38.234   7.528   8.797
  357POPC   D2A 9808  37.983   7.271   8.447
  357POPC   C3A 9809  38.195   7.213   8.034
  357POPC   C4A 9810  38.391   7.545   7.771
  357POPC   C1B 9811  38.685   7.265   8.845
  357POPC   C2B 9812  38.759   7.429   8.431
  357POPC   C3B 9813  38.844   7.267   8.037
  357POPC   C4B 9814  38.737   7.204   7.650
  358POPC   NC3 9815  14.776  28.394   9.514
  358POPC   PO4 9816  14.168  28.105   9.506
  358POPC   GL1 9817  14.422  28.262   9.172
  358POPC   GL2 9818  14.425  28.585   9.021
  358POPC   C1A 9819  14.492  28.095   8.794
  358POPC   D2A 9820  14.531  28.308   8.457
  358POPC   C3A 9821  14.530  28.111   8.091
  358POPC   C4A 9822  14.363  28.278   7.719
  358POPC   C1B 9823  14.300  28.735   8.631
  358POPC   C2B 9824  14.272  28.943   8.245
  358POPC   C3B 9825  14.334  28.762   7.830
  358POPC   C4B 9826  14.066  28.712   7.486
  359POPC   NC3 9827  14.827  23.800   9.857
  359POPC   PO4 9828  14.273  23.804   9.414
  359POPC   GL1 9829  14.186  23.789   8.983
  359POPC   GL2 9830  13.937  24.024   8.854
  359POPC   C1A 9831  14.180  23.721   8.524
  359POPC   D2A 9832  13.987  23.833   8.137
  359POPC   C3A 9833  14.229  23.615   7.829
  359POPC   C4A 9834  14.700  23.492   7.763
  359POPC   C1B 9835  14.373  24.174   8.697
  359POPC   C2B 9836  14.648  24.094   8.327
  359POPC   C3B 9837  14.589  23.984   7.893
  359POPC   C4B 9838  14.203  24.098   7.670
  360POPC   NC3 9839  35.890  13.433   9.710
  360POPC   PO4 9840  35.276  13.250   9.534
  360POPC   GL1 9841  35.352  13.546   9.220
  360POPC   GL2 9842  35.314  13.278   9.016
  360POPC   C1A 9843  35.241  13.774   8.825
  360POPC   D2A 9844  35.454  13.819   8.424
  360POPC   C3A 9845  35.248  13.786   8.039
  360POPC   C4A 9846  34.907  13.711   7.759
  360POPC   C1B 9847  35.514  13.068   8.692
  360POPC   C2B 9848  35.782  13.080   8.361
  360POPC   C3B 9849  35.599  13.288   8.002
  360POPC   C4B 9850  35.466  13.533   7.656
  361POPC   NC3 9851   1.369  29.171   9.748
  361POPC   PO4 9852   0.931  29.515   9.574
  361POPC   GL1 9853   1.084  29.203   9.253
  361POPC   GL2 9854   1.091  29.436   8.992
  361POPC   C1A 9855   1.046  28.955   8.837
  361POPC   D2A 9856   0.840  28.927   8.416
  361POPC   C3A 9857   1.030  29.092   8.020
  361POPC   C4A 9858   1.236  29.393   7.709
  361POPC   C1B 9859   0.997  29.409   8.548
  361POPC   C2B 9860   1.264  29.515   8.207
  361POPC   C3B 9861   1.330  29.845   7.927
  361POPC   C4B 9862   1.273  29.858   7.471
  362POPC   NC3 9863   9.921  18.537   9.577
  362POPC   PO4 9864   9.655  17.957   9.632
  362POPC   GL1 9865   9.810  18.148   9.264
  362POPC   GL2 9866   9.553  18.119   9.060
  362POPC   C1A 9867   9.988  18.325   8.893
  362POPC   D2A 9868  10.056  18.253   8.447
  362POPC   C3A 9869   9.869  18.498   8.130
  362POPC   C4A 9870   9.893  18.624   7.709
  362POPC   C1B 9871   9.478  18.402   8.733
  362POPC   C2B 9872   9.451  18.279   8.326
  362POPC   C3B 9873   9.720  18.000   8.099
  362POPC   C4B 9874   9.898  18.107   7.701
  363POPC   NC3 9875   5.064  22.121   9.494
  363POPC   PO4 9876   4.587  22.678   9.397
  363POPC   GL1 9877   4.831  22.413   9.092
  363POPC   GL2 9878   5.134  22.227   9.029
  363POPC   C1A 9879   5.031  22.524   8.654
  363POPC   D2A 9880   4.986  22.406   8.233
  363POPC   C3A 9881   5.319  22.160   8.096
  363POPC   C4A 9882   5.358  22.259   7.682
  363POPC   C1B 9883   4.877  21.999   8.776
  363POPC   C2B 9884   4.892  21.917   8.356
  363POPC   C3B 9885   4.881  21.986   7.932
  363POPC   C4B 9886   5.166  21.804   7.629
  364POPC   NC3 9887  44.508  23.826   9.726
  364POPC   PO4 9888  44.822  23.387   9.602
  364POPC   GL1 9889  44.729  23.709   9.258
  364POPC   GL2 9890  44.728  23.482   8.985
  364POPC   C1A 9891  44.632  23.969   8.847
  364POPC   D2A 9892  44.594  23.797   8.416
  364POPC   C3A 9893  44.731  24.020   8.043
  364POPC   C4A 9894  44.559  24.070   7.610
  364POPC   C1B 9895  44.718  23.317   8.565
  364POPC   C2B 9896  44.639  23.341   8.134
  364POPC   C3B 9897  44.658  23.592   7.781
  364POPC   C4B 9898  44.780  23.678   7.348
  365POPC   NC3 9899   0.712  29.097   9.583
  365POPC   PO4 9900   0.059  29.146   9.521
  365POPC   GL1 9901   0.343  29.212   9.155
  365POPC   GL2 9902   0.602  29.472   9.178
  365POPC   C1A 9903   0.330  29.043   8.718
  365POPC   D2A 9904   0.077  29.188   8.365
  365POPC   C3A 9905   0.244  29.180   7.894
  365POPC   C4A 9906   0.628  29.009   7.655
  365POPC   C1B 9907   0.512  29.512   8.723
  365POPC   C2B 9908   0.572  29.343   8.280
  365POPC   C3B 9909   0.722  29.476   7.868
  365POPC   C4B 9910   0.464  29.475   7.495
  366POPC   NC3 9911  20.286  17.120   9.637
  366POPC   PO4 9912  19.640  17.028   9.442
  366POPC   GL1 9913  19.696  16.769   9.076
  366POPC   GL2 9914  20.031  16.691   9.077
  366POPC   C1A 9915  19.822  16.724   8.617
  366POPC   D2A 9916  19.864  16.645   8.179
  366POPC   C3A 9917  19.641  16.794   7.858
  366POPC   C4A 9918  19.797  16.481   7.602
  366POPC   C1B 9919  20.285  16.873   8.722
  366POPC   C2B 9920  20.157  17.051   8.326
  366POPC   C3B 9921  20.097  16.994   7.867
  366POPC   C4B 9922  19.907  17.271   7.530
  367POPC   NC3 9923   8.610   2.649   9.469
  367POPC   PO4 9924   8.171   3.108   9.707
  367POPC   GL1 9925   8.135   2.876   9.240
  367POPC   GL2 9926   8.444   2.743   9.011
  367POPC   C1A 9927   8.003   2.644   8.813
  367POPC   D2A 9928   8.288   2.629   8.428
  367POPC   C3A 9929   8.060   2.753   8.030
  367POPC   C4A 9930   8.092   2.595   7.608
  367POPC   C1B 9931   8.301   3.058   8.740
  367POPC   C2B 9932   8.492   3.097   8.350
  367POPC   C3B 9933   8.545   2.864   8.002
  367POPC   C4B 9934   8.342   3.026   7.644
  368POPC   NC3 9935   2.399  32.946   9.537
  368POPC   PO4 9936   3.023  33.116   9.693
  368POPC   GL1 9937   2.833  32.981   9.275
  368POPC   GL2 9938   2.892  33.255   9.090
  368POPC   C1A 9939   2.739  32.878   8.806
  368POPC   D2A 9940   2.987  32.877   8.414
  368POPC   C3A 9941   2.972  32.530   8.098
  368POPC   C4A 9942   2.838  32.624   7.682
  368POPC   C1B 9943   2.656  33.385   8.726
  368POPC   C2B 9944   2.529  33.191   8.360
  368POPC   C3B 9945   2.747  33.057   7.994
  368POPC   C4B 9946   2.434  32.959   7.735
  369POPC   NC3 9947  35.067  21.346   9.614
  369POPC   PO4 9948  35.587  21.049   9.272
  369POPC   GL1 9949  35.244  21.254   9.135
  369POPC   GL2 9950  35.351  21.581   9.228
  369POPC   C1A 9951  35.287  21.142   8.714
  369POPC   D2A 9952  35.584  21.240   8.407
  369POPC   C3A 9953  35.336  21.142   8.050
  369POPC   C4A 9954  35.240  21.356   7.681
  369POPC   C1B 9955  35.331  21.657   8.797
  369POPC   C2B 9956  35.129  21.520   8.434
  369POPC   C3B 9957  35.130  21.660   8.068
  369POPC   C4B 9958  35.279  21.864   7.749
  370POPC   NC3 9959  26.104  27.188   9.533
  370POPC   PO4 9960  26.002  26.618   9.328
  370POPC   GL1 9961  26.120  26.766   8.994
  370POPC   GL2 9962  26.346  27.040   9.118
  370POPC   C1A 9963  25.866  26.653   8.651
  370POPC   D2A 9964  25.768  26.771   8.262
  370POPC   C3A 9965  26.050  26.641   7.998
  370POPC   C4A 9966  25.859  26.581   7.626
  370POPC   C1B 9967  26.339  27.158   8.714
  370POPC   C2B 9968  26.365  26.942   8.343
  370POPC   C3B 9969  26.407  27.085   7.943
  370POPC   C4B 9970  26.062  27.074   7.684
  371POPC   NC3 9971  35.601  41.860   9.531
  371POPC   PO4 9972  36.267  41.730   9.468
  371POPC   GL1 9973  36.175  41.455   9.154
  371POPC   GL2 9974  35.836  41.345   9.236
  371POPC   C1A 9975  36.233  41.367   8.742
  371POPC   D2A 9976  36.338  41.569   8.402
  371POPC   C3A 9977  36.334  41.372   8.058
  371POPC   C4A 9978  36.513  41.521   7.688
  371POPC   C1B 9979  35.787  41.551   8.844
  371POPC   C2B 9980  35.832  41.619   8.441
  371POPC   C3B 9981  35.712  41.623   8.034
  371POPC   C4B 9982  36.001  41.518   7.695
  372POPC   NC3 9983  23.270  26.647   9.459
  372POPC   PO4 9984  23.846  27.029   9.388
  372POPC   GL1 9985  23.628  26.804   9.081
  372POPC   GL2 9986  23.682  26.449   8.982
  372POPC   C1A 9987  23.510  26.875   8.664
  372POPC   D2A 9988  23.439  26.587   8.337
  372POPC   C3A 9989  23.552  26.775   7.937
  372POPC   C4A 9990  23.611  27.106   7.613
  372POPC   C1B 9991  23.965  26.609   8.664
  372POPC   C2B 9992  23.930  26.878   8.307
  372POPC   C3B 9993  24.054  26.849   7.872
  372POPC   C4B 9994  23.950  26.801   7.429
  373POPC   NC3 9995   9.675   1.513   9.356
  373POPC   PO4 9996   9.998   0.912   9.432
  373POPC   GL1 9997   9.668   0.988   9.126
  373POPC   GL2 9998   9.835   0.887   8.820
  373POPC   C1A 9999   9.479   1.250   8.758
  373POPC   D2A10000   9.581   1.203   8.315
  373POPC   C3A10001   9.402   1.493   7.970
  373POPC   C4A10002   9.519   1.423   7.513
  373POPC   C1B10003  10.007   1.258   8.607
  373POPC   C2B10004  10.017   1.380   8.184
  373POPC   C3B10005   9.861   1.159   7.878
  373POPC   C4B10006  10.095   0.816   7.675
  374POPC   NC310007  24.666  44.901   9.292
  374POPC   PO410008  24.402  44.420   9.693
  374POPC   GL110009  24.270  44.580   9.185
  374POPC   GL210010  24.549  44.642   8.869
  374POPC   C1A10011  24.127  44.887   8.841
  374POPC   D2A10012  24.324  44.920   8.409
  374POPC   C3A10013  24.093  44.886   8.021
  374POPC   C4A10014  24.369  44.721   7.704
  374POPC   C1B10015  24.740   0.033   8.685
  374POPC   C2B10016  24.788   0.221   8.308
  374POPC   C3B10017  24.817  44.968   7.930
  374POPC   C4B10018  24.805  44.946   7.489
  375POPC   NC310019  17.980  32.072   9.496
  375POPC   PO410020  18.621  32.128   9.711
  375POPC   GL110021  18.436  32.155   9.251
  375POPC   GL210022  18.246  31.844   9.118
  375POPC   C1A10023  18.463  32.196   8.808
  375POPC   D2A10024  18.612  32.088   8.379
  375POPC   C3A10025  18.358  32.284   8.037
  375POPC   C4A10026  17.968  32.473   7.855
  375POPC   C1B10027  18.354  31.724   8.687
  375POPC   C2B10028  18.102  31.999   8.391
  375POPC   C3B10029  17.935  31.994   7.973
  375POPC   C4B10030  18.196  31.953   7.649
  376POPC   NC310031  30.126  21.238   9.308
  376POPC   PO410032  30.794  21.208   9.566
  376POPC   GL110033  30.624  21.198   9.168
  376POPC   GL210034  30.490  21.513   9.090
  376POPC   C1A10035  30.704  21.148   8.745
  376POPC   D2A10036  30.961  21.309   8.381
  376POPC   C3A10037  30.832  21.230   7.956
  376POPC   C4A10038  30.611  21.311   7.515
  376POPC   C1B10039  30.599  21.641   8.667
  376POPC   C2B10040  30.599  21.813   8.256
  376POPC   C3B10041  30.600  21.663   7.875
  376POPC   C4B10042  30.823  21.775   7.499
  377POPC   NC310043  21.115  30.483   9.433
  377POPC   PO410044  21.714  30.730   9.497
  377POPC   GL110045  21.505  30.630   9.151
  377POPC   GL210046  21.576  30.264   9.150
  377POPC   C1A10047  21.198  30.659   8.790
  377POPC   D2A10048  21.159  30.961   8.452
  377POPC   C3A10049  21.171  30.724   8.048
  377POPC   C4A10050  21.007  30.864   7.659
  377POPC   C1B10051  21.672  30.463   8.725
  377POPC   C2B10052  21.626  30.745   8.385
  377POPC   C3B10053  21.671  30.557   7.990
  377POPC   C4B10054  21.434  30.570   7.617
  378POPC   NC310055   5.599  22.897   9.364
  378POPC   PO410056   6.141  22.600   9.444
  378POPC   GL110057   6.070  22.992   9.165
  378POPC   GL210058   5.962  22.759   8.937
  378POPC   C1A10059   5.884  23.196   8.740
  378POPC   D2A10060   5.941  22.943   8.353
  378POPC   C3A10061   5.704  23.009   7.977
  378POPC   C4A10062   5.880  23.052   7.540
  378POPC   C1B10063   5.858  22.472   8.565
  378POPC   C2B10064   5.688  22.508   8.149
  378POPC   C3B10065   5.750  22.573   7.693
  378POPC   C4B10066   5.557  22.477   7.261
  379POPC   NC310067  12.811  34.041   9.443
  379POPC   PO410068  12.981  33.363   9.231
  379POPC   GL110069  12.712  33.643   9.037
  379POPC   GL210070  12.799  34.012   8.951
  379POPC   C1A10071  12.691  33.653   8.614
  379POPC   D2A10072  12.874  33.723   8.212
  379POPC   C3A10073  12.675  34.034   7.985
  379POPC   C4A10074  12.649  33.986   7.556
  379POPC   C1B10075  13.045  34.045   8.582
  379POPC   C2B10076  13.179  34.144   8.171
  379POPC   C3B10077  13.123  34.042   7.730
  379POPC   C4B10078  13.173  34.092   7.277
  380POPC   NC310079   3.473  33.031   9.658
  380POPC   PO410080   3.929  32.548   9.759
  380POPC   GL110081   3.800  32.890   9.309
  380POPC   GL210082   3.483  33.167   9.155
  380POPC   C1A10083   3.737  32.883   8.838
  380POPC   D2A10084   3.460  33.083   8.516
  380POPC   C3A10085   3.512  32.989   8.088
  380POPC   C4A10086   3.382  32.673   7.809
  380POPC   C1B10087   3.758  33.384   8.803
  380POPC   C2B10088   3.917  33.284   8.338
  380POPC   C3B10089   3.792  33.386   7.912
  380POPC   C4B10090   3.573  33.218   7.577
  381POPC   NC310091  25.118  31.752   9.739
  381POPC   PO410092  25.747  31.482   9.410
  381POPC   GL110093  25.376  31.337   9.189
  381POPC   GL210094  25.227  31.651   9.248
  381POPC   C1A10095  25.180  31.258   8.759
  381POPC   D2A10096  25.277  31.098   8.351
  381POPC   C3A10097  25.247  31.448   8.095
  381POPC   C4A10098  25.018  31.717   7.832
  381POPC   C1B10099  25.383  31.731   8.845
  381POPC   C2B10100  25.395  31.781   8.436
  381POPC   C3B10101  25.641  31.809   8.063
  381POPC   C4B10102  25.496  31.710   7.664
  382POPC   NC310103  21.156   1.120   9.549
  382POPC   PO410104  21.740   1.421   9.462
  382POPC   GL110105  21.438   1.249   9.135
  382POPC   GL210106  21.056   1.348   9.106
  382POPC   C1A10107  21.548   1.138   8.696
  382POPC   D2A10108  21.368   0.976   8.305
  382POPC   C3A10109  21.612   1.002   7.906
  382POPC   C4A10110  21.518   1.260   7.554
  382POPC   C1B10111  21.054   1.200   8.723
  382POPC   C2B10112  21.041   1.366   8.324
  382POPC   C3B10113  21.146   1.235   7.905
  382POPC   C4B10114  21.156   0.857   7.684
  383POPC   NC310115   6.617  19.536   9.606
  383POPC   PO410116   6.991  20.075   9.504
  383POPC   GL110117   6.659  19.855   9.217
  383POPC   GL210118   6.682  20.017   8.919
  383POPC   C1A10119   6.485  19.579   8.846
  383POPC   D2A10120   6.639  19.745   8.438
  383POPC   C3A10121   6.656  19.543   8.018
  383POPC   C4A10122   6.537  19.773   7.663
  383POPC   C1B10123   7.066  20.097   8.769
  383POPC   C2B10124   7.113  19.931   8.381
  383POPC   C3B10125   6.860  20.017   8.022
  383POPC   C4B10126   7.052  20.246   7.733
  384POPC   NC310127  28.534   2.076   9.438
  384POPC   PO410128  28.033   1.623   9.424
  384POPC   GL110129  28.287   1.804   9.088
  384POPC   GL210130  28.165   2.165   9.108
  384POPC   C1A10131  28.495   1.680   8.690
  384POPC   D2A10132  28.165   1.806   8.391
  384POPC   C3A10133  28.272   1.948   8.003
  384POPC   C4A10134  28.657   1.839   7.773
  384POPC   C1B10135  28.373   2.161   8.717
  384POPC   C2B10136  28.634   2.095   8.331
  384POPC   C3B10137  28.614   2.319   7.956
  384POPC   C4B10138  28.236   2.387   7.716
  385POPC   NC310139  13.615  16.339   9.556
  385POPC   PO410140  13.492  16.995   9.527
  385POPC   GL110141  13.656  16.685   9.190
  385POPC   GL210142  13.572  16.330   9.061
  385POPC   C1A10143  13.795  16.700   8.774
  385POPC   D2A10144  13.525  16.753   8.373
  385POPC   C3A10145  13.716  16.867   7.994
  385POPC   C4A10146  13.861  16.592   7.702
  385POPC   C1B10147  13.289  16.559   8.808
  385POPC   C2B10148  13.079  16.473   8.419
  385POPC   C3B10149  13.256  16.419   8.016
  385POPC   C4B10150  13.465  16.254   7.672
  386POPC   NC310151  28.452   7.202   9.439
  386POPC   PO410152  27.867   7.552   9.489
  386POPC   GL110153  28.166   7.495   9.135
  386POPC   GL210154  28.459   7.626   9.130
  386POPC   C1A10155  28.404   7.271   8.757
  386POPC   D2A10156  28.295   7.163   8.303
  386POPC   C3A10157  28.316   7.481   7.929
  386POPC   C4A10158  28.571   7.382   7.551
  386POPC   C1B10159  28.655   7.699   8.752
  386POPC   C2B10160  28.602   7.579   8.348
  386POPC   C3B10161  28.821   7.503   7.977
  386POPC   C4B10162  28.883   7.771   7.634
  387POPC   NC310163   9.311   2.072   9.588
  387POPC   PO410164   9.932   1.890   9.478
  387POPC   GL110165   9.808   2.072   9.162
  387POPC   GL210166   9.488   1.953   9.127
  387POPC   C1A10167   9.844   1.913   8.762
  387POPC   D2A10168   9.685   1.667   8.478
  387POPC   C3A10169   9.769   1.818   8.081
  387POPC   C4A10170   9.943   1.633   7.726
  387POPC   C1B10171   9.320   2.035   8.747
  387POPC   C2B10172   9.232   1.843   8.358
  387POPC   C3B10173   9.280   2.056   7.965
  387POPC   C4B10174   9.518   1.908   7.638
  388POPC   NC310175  24.246   9.083   9.744
  388POPC   PO410176  24.838   9.184   9.474
  388POPC   GL110177  24.590   9.101   9.146
  388POPC   GL210178  24.523   8.759   9.191
  388POPC   C1A10179  24.460   9.170   8.724
  388POPC   D2A10180  24.672   9.308   8.341
  388POPC   C3A10181  24.459   9.199   7.967
  388POPC   C4A10182  24.119   8.951   7.804
  388POPC   C1B10183  24.618   8.677   8.741
  388POPC   C2B10184  24.450   8.813   8.330
  388POPC   C3B10185  24.549   8.653   7.927
  388POPC   C4B10186  24.893   8.588   7.607
  389POPC   NC310187   7.175  38.968   9.512
  389POPC   PO410188   7.669  39.361   9.464
  389POPC   GL110189   7.377  39.234   9.079
  389POPC   GL210190   7.023  39.341   9.180
  389POPC   C1A10191   7.328  39.227   8.582
  389POPC   D2A10192   7.586  39.467   8.228
  389POPC   C3A10193   7.513  39.362   7.785
  389POPC   C4A10194   7.423  39.012   7.458
  389POPC   C1B10195   6.846  39.286   8.770
  389POPC   C2B10196   6.870  39.373   8.347
  389POPC   C3B10197   7.101  39.167   8.009
  389POPC   C4B10198   7.039  39.329   7.568
  390POPC   NC310199   4.418   4.378   9.889
  390POPC   PO410200   3.897   3.987   9.494
  390POPC   GL110201   4.248   4.275   9.297
  390POPC   GL210202   4.257   4.631   9.235
  390POPC   C1A10203   4.471   4.225   8.893
  390POPC   D2A10204   4.277   4.082   8.508
  390POPC   C3A10205   4.455   4.200   8.127
  390POPC   C4A10206   4.476   4.092   7.726
  390POPC   C1B10207   4.092   4.566   8.787
  390POPC   C2B10208   4.211   4.611   8.340
  390POPC   C3B10209   4.118   4.535   7.880
  390POPC   C4B10210   4.169   4.376   7.455
  391POPC   NC310211  38.121  25.175   9.696
  391POPC   PO410212  37.644  24.749   9.530
  391POPC   GL110213  37.632  25.039   9.221
  391POPC   GL210214  37.332  25.150   9.166
  391POPC   C1A10215  37.624  25.095   8.771
  391POPC   D2A10216  37.626  24.903   8.407
  391POPC   C3A10217  37.626  25.187   8.088
  391POPC   C4A10218  37.702  25.199   7.699
  391POPC   C1B10219  37.294  25.455   8.872
  391POPC   C2B10220  37.367  25.412   8.453
  391POPC   C3B10221  37.178  25.441   8.047
  391POPC   C4B10222  37.193  25.614   7.616
  392POPC   NC310223  39.639   9.910   9.488
  392POPC   PO410224  40.126   9.406   9.501
  392POPC   GL110225  39.931   9.457   9.141
  392POPC   GL210226  39.973   9.790   9.118
  392POPC   C1A10227  39.912   9.515   8.695
  392POPC   D2A10228  40.108   9.494   8.322
  392POPC   C3A10229  39.777   9.663   8.122
  392POPC   C4A10230  39.628   9.654   7.734
  392POPC   C1B10231  40.051  10.049   8.772
  392POPC   C2B10232  40.153   9.983   8.348
  392POPC   C3B10233  40.004  10.064   7.924
  392POPC   C4B10234  40.208  10.034   7.549
  393POPC   NC310235  41.212  24.083   9.331
  393POPC   PO410236  41.798  23.755   9.478
  393POPC   GL110237  41.564  23.760   9.145
  393POPC   GL210238  41.674  24.100   9.098
  393POPC   C1A10239  41.624  23.690   8.729
  393POPC   D2A10240  41.856  23.949   8.448
  393POPC   C3A10241  41.747  23.818   8.034
  393POPC   C4A10242  41.776  23.439   7.792
  393POPC   C1B10243  41.458  24.170   8.735
  393POPC   C2B10244  41.340  23.985   8.364
  393POPC   C3B10245  41.268  23.994   7.936
  393POPC   C4B10246  41.424  23.756   7.642
  394POPC   NC310247  17.610  30.124   9.563
  394POPC   PO410248  17.469  29.471   9.456
  394POPC   GL110249  17.535  29.629   9.073
  394POPC   GL210250  17.685  29.951   9.091
  394POPC   C1A10251  17.609  29.734   8.626
  394POPC   D2A10252  17.788  29.608   8.218
  394POPC   C3A10253  17.520  29.796   7.877
  394POPC   C4A10254  17.254  30.167   7.749
  394POPC   C1B10255  17.968  30.304   8.931
  394POPC   C2B10256  18.029  30.302   8.500
  394POPC   C3B10257  17.769  30.134   8.184
  394POPC   C4B10258  17.802  30.203   7.742
  395POPC   NC310259  13.869  15.683   9.711
  395POPC   PO410260  13.274  16.024   9.623
  395POPC   GL110261  13.475  15.841   9.233
  395POPC   GL210262  13.836  15.852   9.225
  395POPC   C1A10263  13.592  15.688   8.778
  395POPC   D2A10264  13.838  15.812   8.375
  395POPC   C3A10265  13.640  15.757   7.958
  395POPC   C4A10266  13.480  15.743   7.520
  395POPC   C1B10267  13.925  16.055   8.841
  395POPC   C2B10268  13.699  16.278   8.525
  395POPC   C3B10269  13.760  16.260   8.081
  395POPC   C4B10270  13.925  16.057   7.646
  396POPC   NC310271  12.978  11.169  10.008
  396POPC   PO410272  12.818  11.425   9.480
  396POPC   GL110273  13.122  11.544   9.106
  396POPC   GL210274  12.854  11.668   8.984
  396POPC   C1A10275  13.283  11.486   8.657
  396POPC   D2A10276  13.119  11.232   8.297
  396POPC   C3A10277  13.176  11.252   7.868
  396POPC   C4A10278  12.895  11.399   7.522
  396POPC   C1B10279  12.781  11.405   8.651
  396POPC   C2B10280  12.679  11.455   8.208
  396POPC   C3B10281  12.681  11.116   7.919
  396POPC   C4B10282  12.710  10.845   7.563
  397POPC   NC310283  30.273  36.546   9.348
  397POPC   PO410284  29.571  36.569   9.336
  397POPC   GL110285  29.791  36.830   9.033
  397POPC   GL210286  30.157  36.898   8.993
  397POPC   C1A10287  29.797  37.175   8.745
  397POPC   D2A10288  29.890  37.169   8.317
  397POPC   C3A10289  29.663  37.033   7.972
  397POPC   C4A10290  29.804  36.809   7.610
  397POPC   C1B10291  30.112  36.715   8.604
  397POPC   C2B10292  30.294  36.526   8.223
  397POPC   C3B10293  30.168  36.487   7.777
  397POPC   C4B10294  30.438  36.415   7.411
  398POPC   NC310295   6.037  22.142   9.533
  398POPC   PO410296   5.441  21.784   9.548
  398POPC   GL110297   5.588  22.067   9.196
  398POPC   GL210298   5.908  22.263   9.066
  398POPC   C1A10299   5.533  22.097   8.744
  398POPC   D2A10300   5.856  21.943   8.501
  398POPC   C3A10301   5.768  21.920   8.090
  398POPC   C4A10302   5.875  22.085   7.725
  398POPC   C1B10303   6.287  22.406   8.811
  398POPC   C2B10304   6.308  22.206   8.429
  398POPC   C3B10305   6.154  22.343   8.071
  398POPC   C4B10306   6.249  22.616   7.743
  399POPC   NC310307  27.524  21.704   9.529
  399POPC   PO410308  27.398  22.359   9.686
  399POPC   GL110309  27.455  22.187   9.299
  399POPC   GL210310  27.161  21.978   9.263
  399POPC   C1A10311  27.704  22.291   8.912
  399POPC   D2A10312  27.892  22.163   8.481
  399POPC   C3A10313  27.806  22.267   8.031
  399POPC   C4A10314  27.806  22.143   7.595
  399POPC   C1B10315  27.254  22.085   8.827
  399POPC   C2B10316  27.346  22.230   8.400
  399POPC   C3B10317  27.171  22.259   8.001
  399POPC   C4B10318  27.311  22.095   7.659
  400POPC   NC310319  31.248   2.365   9.460
  400POPC   PO410320  31.690   2.893   9.462
  400POPC   GL110321  31.508   2.676   9.144
  400POPC   GL210322  31.614   2.935   8.944
  400POPC   C1A10323  31.309   2.565   8.757
  400POPC   D2A10324  31.518   2.585   8.343
  400POPC   C3A10325  31.277   2.742   8.014
  400POPC   C4A10326  31.296   2.619   7.592
  400POPC   C1B10327  31.887   3.191   8.738
  400POPC   C2B10328  32.010   3.201   8.314
  400POPC   C3B10329  31.749   3.139   7.996
  400POPC   C4B10330  31.715   2.860   7.694
  401POPC   NC310331  27.117  22.744   9.571
  401POPC   PO410332  26.608  23.225   9.553
  401POPC   GL110333  26.826  23.033   9.258
  401POPC   GL210334  26.640  22.778   9.246
  401POPC   C1A10335  26.909  22.997   8.841
  401POPC   D2A10336  26.846  23.192   8.465
  401POPC   C3A10337  27.119  23.056   8.152
  401POPC   C4A10338  27.102  22.742   7.836
  401POPC   C1B10339  26.548  22.624   8.842
  401POPC   C2B10340  26.496  22.833   8.443
  401POPC   C3B10341  26.627  22.996   8.032
  401POPC   C4B10342  26.460  22.935   7.626
  402POPC   NC310343  41.054  25.620   9.547
  402POPC   PO410344  40.471  26.045   9.687
  402POPC   GL110345  40.619  26.020   9.262
  402POPC   GL210346  40.473  25.693   9.194
  402POPC   C1A10347  40.777  26.202   8.837
  402POPC   D2A10348  40.639  26.427   8.436
  402POPC   C3A10349  40.847  26.330   8.038
  402POPC   C4A10350  40.690  26.258   7.638
  402POPC   C1B10351  40.812  25.677   8.893
  402POPC   C2B10352  40.991  25.814   8.498
  402POPC   C3B10353  40.809  25.816   8.099
  402POPC   C4B10354  40.889  25.779   7.719
  403POPC   NC310355  44.148  33.720   9.557
  403POPC   PO410356  43.600  33.563   9.205
  403POPC   GL110357  43.823  33.945   9.051
  403POPC   GL210358  44.207  34.012   9.152
  403POPC   C1A10359  43.679  34.065   8.614
  403POPC   D2A10360  43.470  34.039   8.179
  403POPC   C3A10361  43.683  33.879   7.754
  403POPC   C4A10362  43.807  33.550   7.411
  403POPC   C1B10363  44.230  33.848   8.745
  403POPC   C2B10364  43.996  33.751   8.363
  403POPC   C3B10365  44.032  33.586   7.949
  403POPC   C4B10366  44.224  33.966   7.788
  404POPC   NC310367  41.264   9.147   9.442
  404POPC   PO410368  41.881   9.381   9.405
  404POPC   GL110369  41.619   9.191   9.077
  404POPC   GL210370  41.572   8.834   9.162
  404POPC   C1A10371  41.643   9.095   8.636
  404POPC   D2A10372  41.406   9.060   8.242
  404POPC   C3A10373  41.564   9.121   7.800
  404POPC   C4A10374  41.551   9.295   7.345
  404POPC   C1B10375  41.461   8.602   8.820
  404POPC   C2B10376  41.441   8.542   8.403
  404POPC   C3B10377  41.373   8.642   7.982
  404POPC   C4B10378  41.716   8.614   7.701
  405POPC   NC310379  43.487  25.915   9.795
  405POPC   PO410380  43.031  26.286   9.616
  405POPC   GL110381  43.006  26.109   9.193
  405POPC   GL210382  43.319  26.218   9.182
  405POPC   C1A10383  43.067  26.139   8.726
  405POPC   D2A10384  43.388  26.370   8.494
  405POPC   C3A10385  43.367  26.381   8.035
  405POPC   C4A10386  42.961  26.216   7.745
  405POPC   C1B10387  43.365  25.808   8.977
  405POPC   C2B10388  43.446  25.842   8.538
  405POPC   C3B10389  43.150  25.974   8.190
  405POPC   C4B10390  43.335  25.890   7.739
  406POPC   NC310391  39.718  10.623   9.642
  406POPC   PO410392  40.048  10.122   9.502
  406POPC   GL110393  39.860  10.373   9.172
  406POPC   GL210394  39.683  10.722   9.147
  406POPC   C1A10395  39.996  10.582   8.772
  406POPC   D2A10396  39.961  10.430   8.372
  406POPC   C3A10397  40.188  10.525   8.014
  406POPC   C4A10398  40.005  10.494   7.612
  406POPC   C1B10399  39.556  10.894   8.719
  406POPC   C2B10400  39.860  10.921   8.339
  406POPC   C3B10401  39.994  10.975   7.879
  406POPC   C4B10402  39.925  11.303   7.574
  407POPC   NC310403   0.241  21.965   9.648
  407POPC   PO410404   0.024  22.507   9.391
  407POPC   GL110405   0.108  22.173   9.055
  407POPC   GL210406   0.416  22.013   9.144
  407POPC   C1A10407   0.232  22.098   8.585
  407POPC   D2A10408   0.483  22.263   8.207
  407POPC   C3A10409   0.247  22.299   7.827
  407POPC   C4A10410   0.206  22.410   7.395
  407POPC   C1B10411   0.282  21.676   8.879
  407POPC   C2B10412   0.375  21.600   8.444
  407POPC   C3B10413   0.315  21.807   8.083
  407POPC   C4B10414   0.590  21.904   7.770
  408POPC   NC310415   3.735  29.809   9.579
  408POPC   PO410416   4.383  30.034   9.746
  408POPC   GL110417   4.412  29.873   9.314
  408POPC   GL210418   4.120  29.721   9.218
  408POPC   C1A10419   4.515  29.977   8.861
  408POPC   D2A10420   4.369  30.179   8.469
  408POPC   C3A10421   4.479  29.975   8.065
  408POPC   C4A10422   4.745  29.801   7.722
  408POPC   C1B10423   4.027  29.845   8.795
  408POPC   C2B10424   3.928  29.954   8.382
  408POPC   C3B10425   4.016  29.773   8.021
  408POPC   C4B10426   4.236  29.840   7.652
  409POPC   NC310427  12.481  40.161   9.456
  409POPC   PO410428  12.001  40.494   9.538
  409POPC   GL110429  12.173  40.786   9.227
  409POPC   GL210430  12.486  40.597   9.171
  409POPC   C1A10431  11.969  40.914   8.810
  409POPC   D2A10432  11.912  40.663   8.439
  409POPC   C3A10433  11.918  40.911   8.073
  409POPC   C4A10434  12.029  40.876   7.652
  409POPC   C1B10435  12.301  40.539   8.797
  409POPC   C2B10436  12.415  40.574   8.390
  409POPC   C3B10437  12.350  40.633   7.993
  409POPC   C4B10438  12.520  40.638   7.601
  410POPC   NC310439  34.983  41.637   9.308
  410POPC   PO410440  34.389  41.405   9.566
  410POPC   GL110441  34.431  41.373   9.131
  410POPC   GL210442  34.726  41.210   9.204
  410POPC   C1A10443  34.530  41.646   8.758
  410POPC   D2A10444  34.877  41.693   8.458
  410POPC   C3A10445  34.733  41.602   8.044
  410POPC   C4A10446  34.618  41.683   7.592
  410POPC   C1B10447  34.869  41.275   8.787
  410POPC   C2B10448  34.732  41.197   8.394
  410POPC   C3B10449  34.880  41.127   7.985
  410POPC   C4B10450  35.046  41.420   7.702
  411POPC   NC310451  25.522   8.170   9.742
  411POPC   PO410452  25.147   8.602   9.660
  411POPC   GL110453  25.315   8.379   9.288
  411POPC   GL210454  25.569   8.588   9.166
  411POPC   C1A10455  25.313   8.242   8.823
  411POPC   D2A10456  25.250   8.414   8.366
  411POPC   C3A10457  25.252   8.203   7.951
  411POPC   C4A10458  25.251   8.227   7.486
  411POPC   C1B10459  25.435   8.731   8.738
  411POPC   C2B10460  25.468   8.886   8.299
  411POPC   C3B10461  25.348   8.723   7.908
  411POPC   C4B10462  25.641   8.466   7.743
  412POPC   NC310463  12.830  19.420   9.478
  412POPC   PO410464  13.131  20.069   9.374
  412POPC   GL110465  12.900  19.776   9.137
  412POPC   GL210466  12.628  19.904   9.060
  412POPC   C1A10467  12.827  19.538   8.755
  412POPC   D2A10468  12.867  19.740   8.358
  412POPC   C3A10469  12.905  19.657   7.924
  412POPC   C4A10470  13.002  19.993   7.676
  412POPC   C1B10471  12.401  19.824   8.749
  412POPC   C2B10472  12.392  19.972   8.389
  412POPC   C3B10473  12.437  19.801   8.045
  412POPC   C4B10474  12.478  19.993   7.694
  413POPC   NC310475  28.069  28.916   9.269
  413POPC   PO410476  28.591  29.334   9.512
  413POPC   GL110477  28.415  29.242   9.060
  413POPC   GL210478  28.252  29.537   8.871
  413POPC   C1A10479  28.294  29.053   8.630
  413POPC   D2A10480  28.181  29.225   8.179
  413POPC   C3A10481  28.383  29.035   7.829
  413POPC   C4A10482  28.552  29.205   7.462
  413POPC   C1B10483  27.893  29.349   8.598
  413POPC   C2B10484  27.817  28.937   8.346
  413POPC   C3B10485  27.876  28.875   7.883
  413POPC   C4B10486  27.991  29.220   7.584
  414POPC   NC310487  14.150  41.484   9.526
  414POPC   PO410488  14.584  41.274   9.886
  414POPC   GL110489  14.603  41.425   9.357
  414POPC   GL210490  14.917  41.582   9.222
  414POPC   C1A10491  14.455  41.306   8.924
  414POPC   D2A10492  14.090  41.351   8.617
  414POPC   C3A10493  14.081  41.710   8.319
  414POPC   C4A10494  14.210  41.735   7.878
  414POPC   C1B10495  14.748  41.748   8.840
  414POPC   C2B10496  14.615  41.535   8.458
  414POPC   C3B10497  14.719  41.646   8.030
  414POPC   C4B10498  14.783  41.520   7.626
  415POPC   NC310499  41.387  24.957   9.538
  415POPC   PO410500  41.563  25.597   9.524
  415POPC   GL110501  41.388  25.375   9.178
  415POPC   GL210502  41.708  25.370   8.990
  415POPC   C1A10503  41.294  25.170   8.764
  415POPC   D2A10504  41.450  25.107   8.338
  415POPC   C3A10505  41.217  25.422   8.074
  415POPC   C4A10506  41.372  25.635   7.711
  415POPC   C1B10507  41.912  25.346   8.563
  415POPC   C2B10508  41.939  25.210   8.155
  415POPC   C3B10509  41.673  25.029   7.845
  415POPC   C4B10510  41.745  25.068   7.363
  416POPC   NC310511  11.709  40.117   9.549
  416POPC   PO410512  12.329  39.779   9.673
  416POPC   GL110513  12.261  39.849   9.158
  416POPC   GL210514  12.083  40.177   9.131
  416POPC   C1A10515  12.169  39.689   8.730
  416POPC   D2A10516  11.842  39.756   8.414
  416POPC   C3A10517  11.999  39.760   8.012
  416POPC   C4A10518  12.179  39.932   7.695
  416POPC   C1B10519  11.968  40.170   8.709
  416POPC   C2B10520  12.118  40.177   8.296
  416POPC   C3B10521  11.923  40.384   7.972
  416POPC   C4B10522  12.074  40.399   7.553
  417POPC   NC310523  18.090  12.854   9.485
  417POPC   PO410524  18.633  12.328   9.397
  417POPC   GL110525  18.435  12.617   9.149
  417POPC   GL210526  18.538  12.973   9.084
  417POPC   C1A10527  18.261  12.694   8.773
  417POPC   D2A10528  18.376  12.974   8.460
  417POPC   C3A10529  18.361  12.696   8.138
  417POPC   C4A10530  18.286  12.755   7.720
  417POPC   C1B10531  18.138  13.167   8.901
  417POPC   C2B10532  17.876  13.271   8.572
  417POPC   C3B10533  17.996  13.178   8.123
  417POPC   C4B10534  18.142  13.255   7.682
  418POPC   NC310535  17.682  39.833   9.391
  418POPC   PO410536  18.353  40.065   9.511
  418POPC   GL110537  18.117  39.964   9.131
  418POPC   GL210538  17.927  40.243   8.983
  418POPC   C1A10539  18.312  39.856   8.739
  418POPC   D2A10540  18.211  39.794   8.323
  418POPC   C3A10541  18.505  39.865   8.027
  418POPC   C4A10542  18.626  39.795   7.640
  418POPC   C1B10543  18.019  40.239   8.574
  418POPC   C2B10544  17.873  40.137   8.193
  418POPC   C3B10545  18.080  40.214   7.824
  418POPC   C4B10546  17.871  40.333   7.443
  419POPC   NC310547  21.539   0.092   9.474
  419POPC   PO410548  21.120   0.647   9.587
  419POPC   GL110549  21.255   0.470   9.201
  419POPC   GL210550  21.186   0.131   9.114
  419POPC   C1A10551  21.434   0.635   8.834
  419POPC   D2A10552  21.522   0.504   8.428
  419POPC   C3A10553  21.211   0.528   8.116
  419POPC   C4A10554  21.497   0.509   7.797
  419POPC   C1B10555  21.492   0.111   8.811
  419POPC   C2B10556  21.339   0.040   8.434
  419POPC   C3B10557  21.428   0.071   8.033
  419POPC   C4B10558  21.306  44.783   7.778
  420POPC   NC310559  16.644  44.577   9.535
  420POPC   PO410560  17.160  44.958   9.287
  420POPC   GL110561  16.861  44.756   9.086
  420POPC   GL210562  16.888  44.465   9.077
  420POPC   C1A10563  16.689  44.653   8.664
  420POPC   D2A10564  16.496  44.674   8.314
  420POPC   C3A10565  16.677  44.606   7.932
  420POPC   C4A10566  16.503  44.636   7.503
  420POPC   C1B10567  16.946  44.216   8.743
  420POPC   C2B10568  17.005  44.352   8.326
  420POPC   C3B10569  17.107  44.328   7.910
  420POPC   C4B10570  16.988  44.516   7.515
  421POPC   NC310571  18.989  33.272   9.784
  421POPC   PO410572  18.814  32.715   9.457
  421POPC   GL110573  18.982  32.765   9.067
  421POPC   GL210574  19.307  32.761   9.155
  421POPC   C1A10575  19.064  32.997   8.688
  421POPC   D2A10576  19.262  33.202   8.318
  421POPC   C3A10577  19.020  33.029   8.012
  421POPC   C4A10578  18.819  33.178   7.641
  421POPC   C1B10579  19.421  32.550   8.772
  421POPC   C2B10580  19.327  32.674   8.360
  421POPC   C3B10581  19.505  32.769   7.977
  421POPC   C4B10582  19.333  32.917   7.609
  422POPC   NC310583  10.103  37.182   9.292
  422POPC   PO410584  10.520  36.790   9.732
  422POPC   GL110585  10.589  36.796   9.268
  422POPC   GL210586  10.256  36.706   9.267
  422POPC   C1A10587  10.567  36.966   8.803
  422POPC   D2A10588  10.738  36.973   8.344
  422POPC   C3A10589  10.512  37.065   7.936
  422POPC   C4A10590  10.595  36.914   7.516
  422POPC   C1B10591  10.141  36.635   8.854
  422POPC   C2B10592  10.332  36.656   8.466
  422POPC   C3B10593  10.259  36.591   8.077
  422POPC   C4B10594  10.228  36.306   7.786
  423POPC   NC310595  38.174  28.187   9.653
  423POPC   PO410596  38.618  27.569   9.453
  423POPC   GL110597  38.265  27.554   9.162
  423POPC   GL210598  38.173  27.864   8.997
  423POPC   C1A10599  38.165  27.367   8.750
  423POPC   D2A10600  38.235  27.507   8.301
  423POPC   C3A10601  38.649  27.486   8.027
  423POPC   C4A10602  38.895  27.175   7.789
  423POPC   C1B10603  38.491  27.768   8.686
  423POPC   C2B10604  38.516  27.925   8.266
  423POPC   C3B10605  38.304  27.860   7.918
  423POPC   C4B10606  38.534  28.030   7.641
  424POPC   NC310607   8.834  33.560   9.501
  424POPC   PO410608   9.260  34.048   9.454
  424POPC   GL110609   8.992  33.868   9.136
  424POPC   GL210610   8.596  33.874   9.164
  424POPC   C1A10611   8.867  33.570   8.800
  424POPC   D2A10612   8.641  33.686   8.415
  424POPC   C3A10613   8.859  33.617   8.053
  424POPC   C4A10614   9.095  33.862   7.804
  424POPC   C1B10615   8.718  34.065   8.767
  424POPC   C2B10616   8.787  34.370   8.461
  424POPC   C3B10617   8.745  34.167   8.068
  424POPC   C4B10618   8.630  34.011   7.658
  425POPC   NC310619  36.787   8.474   9.455
  425POPC   PO410620  37.256   7.977   9.409
  425POPC   GL110621  37.132   8.264   9.122
  425POPC   GL210622  36.791   8.168   9.021
  425POPC   C1A10623  37.131   8.375   8.715
  425POPC   D2A10624  36.771   8.299   8.513
  425POPC   C3A10625  36.725   8.512   8.185
  425POPC   C4A10626  36.670   8.372   7.786
  425POPC   C1B10627  37.009   7.882   8.663
  425POPC   C2B10628  37.023   7.994   8.178
  425POPC   C3B10629  37.079   8.109   7.701
  425POPC   C4B10630  37.132   7.986   7.234
  426POPC   NC310631  19.273  26.464   9.546
  426POPC   PO410632  18.967  27.132   9.553
  426POPC   GL110633  19.148  26.842   9.202
  426POPC   GL210634  19.004  26.488   9.123
  426POPC   C1A10635  19.045  26.812   8.740
  426POPC   D2A10636  18.933  27.035   8.369
  426POPC   C3A10637  19.033  26.778   7.988
  426POPC   C4A10638  18.860  26.796   7.596
  426POPC   C1B10639  19.348  26.405   8.812
  426POPC   C2B10640  19.364  26.566   8.393
  426POPC   C3B10641  19.361  26.384   7.986
  426POPC   C4B10642  19.271  26.483   7.574
  427POPC   NC310643  31.865   3.339   9.405
  427POPC   PO410644  31.269   3.716   9.559
  427POPC   GL110645  31.387   3.449   9.212
  427POPC   GL210646  31.241   3.114   9.282
  427POPC   C1A10647  31.544   3.581   8.778
  427POPC   D2A10648  31.652   3.975   8.537
  427POPC   C3A10649  31.746   3.955   8.081
  427POPC   C4A10650  31.541   3.747   7.707
  427POPC   C1B10651  31.145   3.074   8.859
  427POPC   C2B10652  31.386   3.174   8.476
  427POPC   C3B10653  31.302   3.367   8.067
  427POPC   C4B10654  31.294   3.144   7.690
  428POPC   NC310655  36.623  12.902   9.571
  428POPC   PO410656  37.171  12.673   9.302
  428POPC   GL110657  37.069  12.719   8.953
  428POPC   GL210658  36.813  12.976   9.050
  428POPC   C1A10659  37.059  12.666   8.541
  428POPC   D2A10660  36.892  13.037   8.497
  428POPC   C3A10661  36.835  13.077   8.123
  428POPC   C4A10662  36.805  12.955   7.719
  428POPC   C1B10663  36.584  12.697   8.751
  428POPC   C2B10664  36.587  12.635   8.332
  428POPC   C3B10665  36.879  12.533   8.040
  428POPC   C4B10666  36.684  12.326   7.715
  429POPC   NC310667  14.355  40.286   9.456
  429POPC   PO410668  14.618  39.681   9.316
  429POPC   GL110669  14.449  39.955   9.074
  429POPC   GL210670  14.590  40.294   9.015
  429POPC   C1A10671  14.435  39.833   8.698
  429POPC   D2A10672  14.519  40.025   8.390
  429POPC   C3A10673  14.400  39.785   8.064
  429POPC   C4A10674  14.580  39.823   7.698
  429POPC   C1B10675  14.257  40.334   8.747
  429POPC   C2B10676  14.298  40.486   8.339
  429POPC   C3B10677  14.428  40.290   7.942
  429POPC   C4B10678  14.110  40.041   7.723
  430POPC   NC310679  13.841  30.152   9.504
  430POPC   PO410680  14.444  29.829   9.625
  430POPC   GL110681  14.203  29.860   9.210
  430POPC   GL210682  14.067  30.181   9.054
  430POPC   C1A10683  14.249  29.794   8.742
  430POPC   D2A10684  14.311  29.975   8.314
  430POPC   C3A10685  14.304  29.789   7.884
  430POPC   C4A10686  14.221  29.963   7.467
  430POPC   C1B10687  14.313  30.337   8.714
  430POPC   C2B10688  14.274  30.482   8.290
  430POPC   C3B10689  14.273  30.297   7.895
  430POPC   C4B10690  14.414  30.457   7.525
  431POPC   NC310691  12.406  22.498   9.245
  431POPC   PO410692  12.170  23.027   9.632
  431POPC   GL110693  12.124  22.924   9.216
  431POPC   GL210694  11.900  23.139   9.140
  431POPC   C1A10695  12.035  22.798   8.778
  431POPC   D2A10696  12.168  22.952   8.392
  431POPC   C3A10697  12.237  22.655   8.096
  431POPC   C4A10698  12.041  22.691   7.736
  431POPC   C1B10699  11.643  23.142   8.794
  431POPC   C2B10700  11.665  22.937   8.440
  431POPC   C3B10701  11.810  23.032   8.040
  431POPC   C4B10702  11.797  23.149   7.631
  432POPC   NC310703  43.494  30.448   9.940
  432POPC   PO410704  42.980  30.521   9.503
  432POPC   GL110705  43.100  30.709   9.143
  432POPC   GL210706  43.372  30.509   9.021
  432POPC   C1A10707  42.871  30.939   8.833
  432POPC   D2A10708  42.833  30.986   8.420
  432POPC   C3A10709  42.802  30.669   8.118
  432POPC   C4A10710  42.771  30.771   7.712
  432POPC   C1B10711  43.363  30.829   8.700
  432POPC   C2B10712  43.283  30.749   8.270
  432POPC   C3B10713  43.312  30.821   7.840
  432POPC   C4B10714  43.585  30.903   7.477
  433POPC   NC310715  34.614  21.880   9.600
  433POPC   PO410716  34.356  22.479   9.394
  433POPC   GL110717  34.649  22.238   9.173
  433POPC   GL210718  34.473  21.949   9.121
  433POPC   C1A10719  34.623  22.258   8.726
  433POPC   D2A10720  34.327  22.191   8.360
  433POPC   C3A10721  34.566  22.259   7.980
  433POPC   C4A10722  34.857  22.550   7.744
  433POPC   C1B10723  34.336  21.819   8.727
  433POPC   C2B10724  34.218  21.693   8.325
  433POPC   C3B10725  34.162  21.860   7.897
  433POPC   C4B10726  34.441  21.996   7.571
  434POPC   NC310727  39.401  33.220   9.521
  434POPC   PO410728  39.231  33.952   9.501
  434POPC   GL110729  39.196  33.698   9.194
  434POPC   GL210730  39.487  33.536   9.147
  434POPC   C1A10731  39.329  33.834   8.786
  434POPC   D2A10732  39.121  34.016   8.442
  434POPC   C3A10733  39.363  33.997   8.061
  434POPC   C4A10734  39.026  33.960   7.792
  434POPC   C1B10735  39.624  33.400   8.749
  434POPC   C2B10736  39.605  33.623   8.369
  434POPC   C3B10737  39.587  33.547   7.931
  434POPC   C4B10738  39.509  33.578   7.487
  435POPC   NC310739  35.805  35.850   9.296
  435POPC   PO410740  36.225  36.239   9.664
  435POPC   GL110741  36.082  36.345   9.180
  435POPC   GL210742  35.953  36.681   9.084
  435POPC   C1A10743  36.167  36.224   8.701
  435POPC   D2A10744  36.090  35.823   8.427
  435POPC   C3A10745  35.976  35.844   7.963
  435POPC   C4A10746  36.104  35.992   7.514
  435POPC   C1B10747  35.954  36.689   8.634
  435POPC   C2B10748  36.154  36.520   8.263
  435POPC   C3B10749  36.128  36.370   7.850
  435POPC   C4B10750  35.869  36.441   7.506
  436POPC   NC310751  21.297  16.020   9.433
  436POPC   PO410752  21.671  15.524   9.604
  436POPC   GL110753  21.490  15.545   9.199
  436POPC   GL210754  21.167  15.570   9.197
  436POPC   C1A10755  21.415  15.635   8.762
  436POPC   D2A10756  21.582  15.892   8.430
  436POPC   C3A10757  21.396  15.914   8.061
  436POPC   C4A10758  21.216  16.238   7.808
  436POPC   C1B10759  20.896  15.710   8.881
  436POPC   C2B10760  21.017  15.816   8.465
  436POPC   C3B10761  20.879  15.861   8.071
  436POPC   C4B10762  21.076  15.761   7.692
  437POPC   NC310763  13.900  27.718   9.456
  437POPC   PO410764  13.255  27.698   9.490
  437POPC   GL110765  13.530  27.625   9.106
  437POPC   GL210766  13.786  27.358   9.093
  437POPC   C1A10767  13.579  27.568   8.663
  437POPC   D2A10768  13.845  27.552   8.354
  437POPC   C3A10769  13.643  27.624   7.976
  437POPC   C4A10770  13.435  27.583   7.545
  437POPC   C1B10771  14.025  27.227   8.740
  437POPC   C2B10772  14.005  26.977   8.395
  437POPC   C3B10773  13.953  27.216   8.005
  437POPC   C4B10774  13.945  27.436   7.635
  438POPC   NC310775  36.663  27.510   9.314
  438POPC   PO410776  37.180  27.808   9.576
  438POPC   GL110777  37.131  27.860   9.128
  438POPC   GL210778  37.291  28.209   9.035
  438POPC   C1A10779  36.948  27.678   8.695
  438POPC   D2A10780  36.837  27.378   8.334
  438POPC   C3A10781  36.725  27.532   7.914
  438POPC   C4A10782  36.926  27.437   7.520
  438POPC   C1B10783  37.397  27.991   8.730
  438POPC   C2B10784  37.321  27.821   8.367
  438POPC   C3B10785  37.213  27.614   8.022
  438POPC   C4B10786  37.377  27.608   7.643
  439POPC   NC310787  17.135  29.602   9.749
  439POPC   PO410788  17.343  28.976   9.653
  439POPC   GL110789  17.316  29.059   9.206
  439POPC   GL210790  17.095  28.860   9.048
  439POPC   C1A10791  17.464  29.206   8.788
  439POPC   D2A10792  17.291  29.409   8.395
  439POPC   C3A10793  17.438  29.307   7.968
  439POPC   C4A10794  17.510  29.403   7.530
  439POPC   C1B10795  17.318  28.716   8.697
  439POPC   C2B10796  17.345  28.625   8.273
  439POPC   C3B10797  17.127  28.901   7.962
  439POPC   C4B10798  17.281  28.960   7.536
  440POPC   NC310799  16.359  11.480   9.507
  440POPC   PO410800  15.831  11.062   9.426
  440POPC   GL110801  15.776  11.332   9.066
  440POPC   GL210802  15.879  11.634   9.220
  440POPC   C1A10803  15.787  11.277   8.625
  440POPC   D2A10804  16.121  11.147   8.345
  440POPC   C3A10805  15.970  10.957   7.969
  440POPC   C4A10806  15.796  11.194   7.623
  440POPC   C1B10807  16.149  11.630   8.842
  440POPC   C2B10808  16.024  11.673   8.394
  440POPC   C3B10809  16.088  11.528   7.974
  440POPC   C4B10810  16.429  11.763   7.844
  441POPC   NC310811   8.955  30.665   9.530
  441POPC   PO410812   8.244  30.849   9.533
  441POPC   GL110813   8.261  30.821   9.115
  441POPC   GL210814   7.948  30.701   9.105
  441POPC   C1A10815   8.277  30.966   8.678
  441POPC   D2A10816   8.541  30.985   8.275
  441POPC   C3A10817   8.281  30.960   7.899
  441POPC   C4A10818   7.858  31.096   7.839
  441POPC   C1B10819   8.153  30.470   8.751
  441POPC   C2B10820   8.334  30.523   8.366
  441POPC   C3B10821   8.350  30.419   7.960
  441POPC   C4B10822   8.238  30.555   7.544
  442POPC   NC310823  13.141  12.919   9.263
  442POPC   PO410824  13.801  12.745   9.486
  442POPC   GL110825  13.627  12.670   9.122
  442POPC   GL210826  13.387  12.477   9.239
  442POPC   C1A10827  13.771  12.861   8.763
  442POPC   D2A10828  14.007  12.883   8.414
  442POPC   C3A10829  13.792  13.031   8.057
  442POPC   C4A10830  13.710  12.860   7.649
  442POPC   C1B10831  13.328  12.504   8.744
  442POPC   C2B10832  13.481  12.763   8.371
  442POPC   C3B10833  13.305  12.827   7.976
  442POPC   C4B10834  13.140  12.432   7.899
  443POPC   NC310835  30.758   0.906   9.546
  443POPC   PO410836  30.988   1.546   9.538
  443POPC   GL110837  30.774   1.264   9.194
  443POPC   GL210838  30.447   1.279   9.209
  443POPC   C1A10839  30.747   1.025   8.780
  443POPC   D2A10840  30.845   1.206   8.343
  443POPC   C3A10841  30.615   1.115   7.943
  443POPC   C4A10842  30.623   1.023   7.472
  443POPC   C1B10843  30.384   1.372   8.800
  443POPC   C2B10844  30.348   1.345   8.359
  443POPC   C3B10845  30.216   1.404   7.930
  443POPC   C4B10846  30.110   1.206   7.562
  444POPC   NC310847  20.032  29.634   9.800
  444POPC   PO410848  19.414  29.970   9.587
  444POPC   GL110849  19.701  30.161   9.218
  444POPC   GL210850  19.835  29.872   9.120
  444POPC   C1A10851  19.898  30.241   8.785
  444POPC   D2A10852  19.979  30.029   8.390
  444POPC   C3A10853  19.879  29.983   7.974
  444POPC   C4A10854  19.880  30.268   7.650
  444POPC   C1B10855  19.850  29.664   8.738
  444POPC   C2B10856  19.932  29.536   8.325
  444POPC   C3B10857  19.732  29.505   7.942
  444POPC   C4B10858  20.085  29.462   7.718
  445POPC   NC310859  15.398  34.321   9.757
  445POPC   PO410860  15.361  34.926   9.436
  445POPC   GL110861  15.147  34.741   9.146
  445POPC   GL210862  15.097  34.434   9.274
  445POPC   C1A10863  15.218  34.828   8.768
  445POPC   D2A10864  15.453  34.580   8.547
  445POPC   C3A10865  15.274  34.523   8.167
  445POPC   C4A10866  15.210  34.794   7.832
  445POPC   C1B10867  15.019  34.334   8.812
  445POPC   C2B10868  14.839  34.186   8.405
  445POPC   C3B10869  15.004  34.082   8.015
  445POPC   C4B10870  15.193  34.310   7.687
  446POPC   NC310871  17.152  40.547   9.901
  446POPC   PO410872  17.727  40.966   9.705
  446POPC   GL110873  17.541  40.975   9.265
  446POPC   GL210874  17.708  40.700   9.115
  446POPC   C1A10875  17.539  41.099   8.813
  446POPC   D2A10876  17.803  41.106   8.435
  446POPC   C3A10877  17.595  41.081   8.032
  446POPC   C4A10878  17.454  40.926   7.637
  446POPC   C1B10879  17.529  40.604   8.716
  446POPC   C2B10880  17.696  40.612   8.333
  446POPC   C3B10881  17.651  40.515   7.938
  446POPC   C4B10882  17.398  40.415   7.687
  447POPC   NC310883   5.778  21.421   9.525
  447POPC   PO410884   6.310  20.942   9.430
  447POPC   GL110885   5.967  21.185   9.123
  447POPC   GL210886   5.937  21.600   9.095
  447POPC   C1A10887   6.020  21.330   8.688
  447POPC   D2A10888   5.845  21.456   8.303
  447POPC   C3A10889   5.866  21.180   7.917
  447POPC   C4A10890   6.043  21.236   7.458
  447POPC   C1B10891   5.572  21.591   8.829
  447POPC   C2B10892   5.340  21.630   8.430
  447POPC   C3B10893   5.439  21.523   7.996
  447POPC   C4B10894   5.714  21.600   7.660
  448POPC   NC310895  20.250  27.181   9.326
  448POPC   PO410896  20.372  26.575   9.554
  448POPC   GL110897  20.579  26.704   9.149
  448POPC   GL210898  20.611  27.050   9.004
  448POPC   C1A10899  20.808  26.675   8.743
  448POPC   D2A10900  20.700  26.919   8.413
  448POPC   C3A10901  20.924  26.986   8.036
  448POPC   C4A10902  20.877  26.775   7.666
  448POPC   C1B10903  20.261  26.867   8.742
  448POPC   C2B10904  20.166  26.931   8.305
  448POPC   C3B10905  20.431  26.893   7.962
  448POPC   C4B10906  20.545  27.152   7.649
  449POPC   NC310907  43.018  29.390   9.445
  449POPC   PO410908  43.486  28.823   9.479
  449POPC   GL110909  43.340  29.087   9.160
  449POPC   GL210910  43.031  28.953   9.138
  449POPC   C1A10911  43.201  29.352   8.803
  449POPC   D2A10912  43.242  29.196   8.416
  449POPC   C3A10913  43.441  29.367   8.073
  449POPC   C4A10914  43.146  29.311   7.779
  449POPC   C1B10915  42.849  28.961   8.743
  449POPC   C2B10916  42.696  29.064   8.327
  449POPC   C3B10917  42.790  28.891   7.927
  449POPC   C4B10918  43.056  28.797   7.565
  450POPC   NC310919  36.090  15.608   9.651
  450POPC   PO410920  36.248  16.286   9.533
  450POPC   GL110921  36.277  15.903   9.247
  450POPC   GL210922  35.948  15.824   9.141
  450POPC   C1A10923  36.358  15.733   8.801
  450POPC   D2A10924  36.106  15.703   8.412
  450POPC   C3A10925  36.187  15.654   7.955
  450POPC   C4A10926  36.226  15.869   7.541
  450POPC   C1B10927  36.069  16.152   8.797
  450POPC   C2B10928  35.885  16.169   8.371
  450POPC   C3B10929  36.070  16.161   7.972
  450POPC   C4B10930  35.863  16.255   7.604
  451POPC   NC310931   4.207  18.362   9.622
  451POPC   PO410932   4.763  17.989   9.470
  451POPC   GL110933   4.428  18.196   9.206
  451POPC   GL210934   4.062  18.099   9.182
  451POPC   C1A10935   4.426  18.441   8.831
  451POPC   D2A10936   4.721  18.463   8.487
  451POPC   C3A10937   4.567  18.433   8.075
  451POPC   C4A10938   4.589  18.407   7.649
  451POPC   C1B10939   3.918  18.341   8.815
  451POPC   C2B10940   3.802  18.294   8.387
  451POPC   C3B10941   4.040  18.378   8.009
  451POPC   C4B10942   4.094  18.508   7.577
  452POPC   NC310943   2.701  31.231   9.458
  452POPC   PO410944   2.722  31.913   9.514
  452POPC   GL110945   2.692  31.642   9.164
  452POPC   GL210946   3.033  31.576   9.245
  452POPC   C1A10947   2.502  31.516   8.768
  452POPC   D2A10948   2.499  31.737   8.346
  452POPC   C3A10949   2.580  31.532   7.987
  452POPC   C4A10950   2.582  31.687   7.591
  452POPC   C1B10951   3.144  31.614   8.840
  452POPC   C2B10952   2.957  31.522   8.479
  452POPC   C3B10953   3.072  31.571   8.084
  452POPC   C4B10954   2.973  31.326   7.730
  453POPC   NC310955  14.984  39.089   9.317
  453POPC   PO410956  15.472  39.579   9.523
  453POPC   GL110957  15.276  39.465   9.133
  453POPC   GL210958  15.371  39.128   8.963
  453POPC   C1A10959  15.085  39.491   8.741
  453POPC   D2A10960  15.239  39.336   8.352
  453POPC   C3A10961  15.112  39.571   7.992
  453POPC   C4A10962  15.041  39.615   7.569
  453POPC   C1B10963  14.992  38.983   8.672
  453POPC   C2B10964  14.898  38.971   8.229
  453POPC   C3B10965  15.086  39.088   7.837
  453POPC   C4B10966  14.962  39.061   7.418
  454POPC   NC310967  43.894  28.604   9.537
  454POPC   PO410968  43.598  28.007   9.638
  454POPC   GL110969  43.748  28.209   9.238
  454POPC   GL210970  44.105  28.194   9.269
  454POPC   C1A10971  43.687  28.311   8.793
  454POPC   D2A10972  43.458  28.360   8.381
  454POPC   C3A10973  43.742  28.567   8.128
  454POPC   C4A10974  43.898  28.626   7.712
  454POPC   C1B10975  44.159  28.476   8.920
  454POPC   C2B10976  44.082  28.498   8.487
  454POPC   C3B10977  44.222  28.405   8.047
  454POPC   C4B10978  44.420  28.676   7.737
  455POPC   NC310979  31.284   6.367   9.292
  455POPC   PO410980  31.473   7.009   9.529
  455POPC   GL110981  31.541   6.834   9.134
  455POPC   GL210982  31.860   7.014   9.077
  455POPC   C1A10983  31.262   6.846   8.774
  455POPC   D2A10984  31.361   7.020   8.377
  455POPC   C3A10985  31.339   6.670   8.102
  455POPC   C4A10986  31.214   6.638   7.691
  455POPC   C1B10987  31.772   6.867   8.672
  455POPC   C2B10988  31.615   6.484   8.506
  455POPC   C3B10989  31.794   6.363   8.123
  455POPC   C4B10990  31.727   6.607   7.739
  456POPC   NC310991  23.670   9.757   9.646
  456POPC   PO410992  23.789  10.409   9.647
  456POPC   GL110993  23.640  10.138   9.284
  456POPC   GL210994  23.907   9.906   9.231
  456POPC   C1A10995  23.519   9.906   8.902
  456POPC   D2A10996  23.740   9.677   8.536
  456POPC   C3A10997  23.518   9.739   8.148
  456POPC   C4A10998  23.473   9.942   7.766
  456POPC   C1B10999  24.004  10.017   8.804
  456POPC   C2B11000  24.173  10.074   8.385
  456POPC   C3B11001  23.967   9.931   7.989
  456POPC   C4B11002  23.930   9.802   7.540
  457POPC   NC311003  21.196  13.491   9.467
  457POPC   PO411004  21.865  13.359   9.484
  457POPC   GL111005  21.625  13.492   9.126
  457POPC   GL211006  21.355  13.782   9.090
  457POPC   C1A11007  21.415  13.389   8.756
  457POPC   D2A11008  21.213  13.694   8.544
  457POPC   C3A11009  21.161  13.668   8.113
  457POPC   C4A11010  21.372  13.645   7.742
  457POPC   C1B11011  21.643  13.895   8.766
  457POPC   C2B11012  21.570  14.006   8.325
  457POPC   C3B11013  21.760  13.920   7.923
  457POPC   C4B11014  21.603  14.006   7.456
  458POPC   NC311015  18.442   7.153   9.394
  458POPC   PO411016  18.093   7.673   9.509
  458POPC   GL111017  18.115   7.464   9.147
  458POPC   GL211018  17.950   7.173   9.239
  458POPC   C1A11019  18.257   7.390   8.746
  458POPC   D2A11020  18.300   7.262   8.323
  458POPC   C3A11021  18.475   7.538   8.021
  458POPC   C4A11022  18.506   7.256   7.664
  458POPC   C1B11023  17.886   7.052   8.850
  458POPC   C2B11024  17.951   6.892   8.434
  458POPC   C3B11025  17.813   7.154   8.132
  458POPC   C4B11026  18.013   7.455   7.820
  459POPC   NC311027  31.256  11.829   9.582
  459POPC   PO411028  31.483  12.461   9.621
  459POPC   GL111029  31.551  12.194   9.289
  459POPC   GL211030  31.276  12.200   9.147
  459POPC   C1A11031  31.715  12.053   8.889
  459POPC   D2A11032  31.535  11.904   8.480
  459POPC   C3A11033  31.679  11.878   8.066
  459POPC   C4A11034  31.464  11.867   7.661
  459POPC   C1B11035  31.159  11.975   8.816
  459POPC   C2B11036  31.124  12.175   8.425
  459POPC   C3B11037  31.183  12.060   8.032
  459POPC   C4B11038  31.250  12.357   7.715
  460POPC   NC311039  13.679  40.433   9.665
  460POPC   PO411040  14.044  41.042   9.490
  460POPC   GL111041  13.792  40.875   9.054
  460POPC   GL211042  13.509  40.667   9.207
  460POPC   C1A11043  13.749  40.910   8.604
  460POPC   D2A11044  13.865  40.721   8.205
  460POPC   C3A11045  13.839  40.929   7.799
  460POPC   C4A11046  14.029  40.987   7.371
  460POPC   C1B11047  13.339  40.641   8.796
  460POPC   C2B11048  13.199  40.525   8.381
  460POPC   C3B11049  13.381  40.700   8.017
  460POPC   C4B11050  13.421  40.721   7.578
  461POPC   NC311051  20.121  36.155   9.526
  461POPC   PO411052  19.600  35.904   9.540
  461POPC   GL111053  19.673  36.231   9.203
  461POPC   GL211054  20.004  36.344   9.061
  461POPC   C1A11055  19.600  36.211   8.747
  461POPC   D2A11056  19.565  36.029   8.335
  461POPC   C3A11057  19.637  36.239   7.942
  461POPC   C4A11058  19.757  36.060   7.532
  461POPC   C1B11059  20.096  36.169   8.646
  461POPC   C2B11060  20.063  36.067   8.201
  461POPC   C3B11061  20.135  36.291   7.833
  461POPC   C4B11062  20.233  36.187   7.415
  462POPC   NC311063  13.983   2.712   9.475
  462POPC   PO411064  13.463   3.078   9.454
  462POPC   GL111065  13.686   2.920   9.106
  462POPC   GL211066  13.953   3.167   9.152
  462POPC   C1A11067  13.690   2.668   8.717
  462POPC   D2A11068  13.602   2.578   8.279
  462POPC   C3A11069  13.424   2.776   7.912
  462POPC   C4A11070  13.610   2.541   7.626
  462POPC   C1B11071  14.024   3.054   8.720
  462POPC   C2B11072  14.080   2.822   8.330
  462POPC   C3B11073  13.893   2.923   7.931
  462POPC   C4B11074  14.012   3.011   7.470
  463POPC   NC311075   6.538  33.339   9.399
  463POPC   PO411076   6.979  33.782   9.343
  463POPC   GL111077   6.829  33.655   8.951
  463POPC   GL211078   6.482  33.668   9.017
  463POPC   C1A11079   6.919  33.902   8.575
  463POPC   D2A11080   6.741  34.055   8.189
  463POPC   C3A11081   6.838  33.939   7.781
  463POPC   C4A11082   6.974  33.552   7.589
  463POPC   C1B11083   6.301  33.513   8.617
  463POPC   C2B11084   6.621  33.558   8.363
  463POPC   C3B11085   6.657  33.518   7.987
  463POPC   C4B11086   6.453  33.596   7.629
  464POPC   NC311087  39.927  19.215   9.505
  464POPC   PO411088  40.317  18.666   9.447
  464POPC   GL111089  40.344  18.883   9.047
  464POPC   GL211090  40.266  19.253   9.098
  464POPC   C1A11091  40.116  18.995   8.646
  464POPC   D2A11092  39.750  18.866   8.358
  464POPC   C3A11093  39.841  18.891   7.902
  464POPC   C4A11094  40.083  19.107   7.549
  464POPC   C1B11095  39.895  19.418   8.861
  464POPC   C2B11096  39.760  19.386   8.435
  464POPC   C3B11097  39.944  19.374   8.027
  464POPC   C4B11098  39.774  19.494   7.649
  465POPC   NC311099  39.992  20.958   9.598
  465POPC   PO411100  39.553  20.465   9.613
  465POPC   GL111101  39.818  20.637   9.232
  465POPC   GL211102  39.769  21.004   9.158
  465POPC   C1A11103  40.067  20.427   8.886
  465POPC   D2A11104  40.144  20.547   8.496
  465POPC   C3A11105  40.095  20.352   8.108
  465POPC   C4A11106  40.052  20.467   7.726
  465POPC   C1B11107  39.905  20.903   8.769
  465POPC   C2B11108  39.708  20.779   8.378
  465POPC   C3B11109  39.965  20.860   8.054
  465POPC   C4B11110  40.019  20.980   7.651
  466POPC   NC311111   9.601  15.883   9.596
  466POPC   PO411112   9.461  16.208   9.051
  466POPC   GL111113   9.736  15.802   9.015
  466POPC   GL211114   9.732  15.506   9.245
  466POPC   C1A11115   9.932  15.697   8.621
  466POPC   D2A11116  10.138  15.918   8.250
  466POPC   C3A11117   9.875  16.034   7.898
  466POPC   C4A11118   9.739  16.135   7.466
  466POPC   C1B11119   9.550  15.364   8.835
  466POPC   C2B11120   9.579  15.387   8.387
  466POPC   C3B11121   9.785  15.531   8.034
  466POPC   C4B11122   9.677  15.654   7.607
  467POPC   NC311123  34.348  12.522   9.199
  467POPC   PO411124  34.447  11.914   9.303
  467POPC   GL111125  34.556  11.861   8.910
  467POPC   GL211126  34.179  11.891   8.813
  467POPC   C1A11127  34.846  11.980   8.558
  467POPC   D2A11128  34.923  12.392   8.310
  467POPC   C3A11129  34.912  12.227   7.888
  467POPC   C4A11130  34.548  12.042   7.660
  467POPC   C1B11131  34.380  12.199   8.582
  467POPC   C2B11132  34.497  12.117   8.195
  467POPC   C3B11133  34.463  12.445   7.974
  467POPC   C4B11134  34.204  12.471   7.654
  468POPC   NC311135   6.214  32.165   9.634
  468POPC   PO411136   6.848  32.144   9.530
  468POPC   GL111137   6.773  32.247   9.106
  468POPC   GL211138   6.435  32.377   9.140
  468POPC   C1A11139   6.607  32.132   8.692
  468POPC   D2A11140   6.530  32.326   8.310
  468POPC   C3A11141   6.902  32.203   8.142
  468POPC   C4A11142   6.860  32.003   7.794
  468POPC   C1B11143   6.171  32.060   8.928
  468POPC   C2B11144   6.131  31.972   8.488
  468POPC   C3B11145   6.359  31.893   8.102
  468POPC   C4B11146   6.387  32.137   7.746
  469POPC   NC311147   3.846   5.166   9.657
  469POPC   PO411148   4.462   5.021   9.673
  469POPC   GL111149   4.338   5.152   9.234
  469POPC   GL211150   4.118   5.464   9.178
  469POPC   C1A11151   4.376   4.994   8.795
  469POPC   D2A11152   4.208   5.223   8.427
  469POPC   C3A11153   4.241   5.032   8.035
  469POPC   C4A11154   4.227   5.099   7.618
  469POPC   C1B11155   4.429   5.499   8.838
  469POPC   C2B11156   4.500   5.637   8.424
  469POPC   C3B11157   4.315   5.581   8.035
  469POPC   C4B11158   4.449   5.561   7.611
  470POPC   NC311159  17.398   5.166   9.619
  470POPC   PO411160  17.314   4.527   9.421
  470POPC   GL111161  17.475   4.882   9.119
  470POPC   GL211162  17.525   5.263   9.148
  470POPC   C1A11163  17.694   5.053   8.716
  470POPC   D2A11164  17.906   5.073   8.271
  470POPC   C3A11165  17.611   5.154   7.898
  470POPC   C4A11166  17.263   4.867   7.794
  470POPC   C1B11167  17.231   5.214   8.798
  470POPC   C2B11168  17.337   5.125   8.334
  470POPC   C3B11169  17.110   5.315   7.956
  470POPC   C4B11170  16.961   5.262   7.484
  471POPC   NC311171  27.185   3.596   9.464
  471POPC   PO411172  27.770   3.237   9.669
  471POPC   GL111173  27.714   3.615   9.278
  471POPC   GL211174  27.401   3.573   9.025
  471POPC   C1A11175  27.783   3.720   8.768
  471POPC   D2A11176  27.765   3.479   8.381
  471POPC   C3A11177  27.748   3.711   8.013
  471POPC   C4A11178  27.544   3.890   7.659
  471POPC   C1B11179  27.302   3.614   8.578
  471POPC   C2B11180  27.266   3.606   8.116
  471POPC   C3B11181  27.360   3.369   7.716
  471POPC   C4B11182  27.170   3.065   7.379
  472POPC   NC311183  17.963  34.821   9.716
  472POPC   PO411184  18.148  34.234   9.662
  472POPC   GL111185  18.157  34.600   9.305
  472POPC   GL211186  18.474  34.677   9.153
  472POPC   C1A11187  18.055  34.779   8.854
  472POPC   D2A11188  18.211  34.764   8.410
  472POPC   C3A11189  18.165  34.547   8.031
  472POPC   C4A11190  18.207  34.720   7.617
  472POPC   C1B11191  18.487  34.486   8.734
  472POPC   C2B11192  18.679  34.579   8.333
  472POPC   C3B11193  18.676  34.588   7.910
  472POPC   C4B11194  18.484  34.284   7.701
  473POPC   NC311195  37.523  37.488   9.438
  473POPC   PO411196  38.123  37.756   9.590
  473POPC   GL111197  37.856  37.779   9.174
  473POPC   GL211198  37.465  37.885   9.140
  473POPC   C1A11199  37.691  37.597   8.765
  473POPC   D2A11200  37.913  37.548   8.365
  473POPC   C3A11201  37.712  37.471   7.966
  473POPC   C4A11202  37.763  37.746   7.621
  473POPC   C1B11203  37.229  38.059   8.795
  473POPC   C2B11204  37.336  38.155   8.361
  473POPC   C3B11205  37.495  37.938   8.019
  473POPC   C4B11206  37.230  37.761   7.710
  474POPC   NC311207  18.852  15.925   9.508
  474POPC   PO411208  19.492  16.183   9.536
  474POPC   GL111209  19.328  15.974   9.177
  474POPC   GL211210  19.111  15.736   9.109
  474POPC   C1A11211  19.402  15.951   8.742
  474POPC   D2A11212  19.151  15.969   8.378
  474POPC   C3A11213  19.262  15.885   7.951
  474POPC   C4A11214  19.028  16.149   7.665
  474POPC   C1B11215  18.838  15.830   8.819
  474POPC   C2B11216  18.693  15.721   8.450
  474POPC   C3B11217  18.752  15.875   8.034
  474POPC   C4B11218  18.686  15.683   7.672
  475POPC   NC311219  30.088  31.745   9.531
  475POPC   PO411220  29.504  31.512   9.713
  475POPC   GL111221  29.739  31.454   9.285
  475POPC   GL211222  29.507  31.190   9.129
  475POPC   C1A11223  29.891  31.432   8.870
  475POPC   D2A11224  29.998  31.201   8.517
  475POPC   C3A11225  30.245  31.342   8.176
  475POPC   C4A11226  30.054  31.354   7.774
  475POPC   C1B11227  29.467  31.167   8.683
  475POPC   C2B11228  29.574  31.269   8.231
  475POPC   C3B11229  29.554  31.281   7.771
  475POPC   C4B11230  29.723  31.171   7.336
  476POPC   NC311231  30.165  19.936   9.863
  476POPC   PO411232  29.801  19.495   9.567
  476POPC   GL111233  29.849  19.775   9.188
  476POPC   GL211234  30.108  19.637   9.008
  476POPC   C1A11235  29.856  20.043   8.767
  476POPC   D2A11236  29.951  20.083   8.287
  476POPC   C3A11237  29.677  20.132   7.874
  476POPC   C4A11238  29.421  19.974   7.498
  476POPC   C1B11239  30.109  19.643   8.572
  476POPC   C2B11240  30.371  19.804   8.276
  476POPC   C3B11241  30.134  19.821   7.879
  476POPC   C4B11242  29.786  19.599   7.720
  477POPC   NC311243  39.717  33.937   9.407
  477POPC   PO411244  39.842  33.258   9.377
  477POPC   GL111245  39.995  33.586   9.139
  477POPC   GL211246  40.324  33.544   9.188
  477POPC   C1A11247  39.892  33.854   8.786
  477POPC   D2A11248  40.105  34.114   8.479
  477POPC   C3A11249  39.887  33.984   8.125
  477POPC   C4A11250  39.901  33.921   7.729
  477POPC   C1B11251  40.401  33.800   8.822
  477POPC   C2B11252  40.589  33.847   8.399
  477POPC   C3B11253  40.383  33.908   7.994
  477POPC   C4B11254  40.390  33.787   7.550
  478POPC   NC311255  32.188  17.541   9.570
  478POPC   PO411256  31.465  17.552   9.493
  478POPC   GL111257  31.579  17.561   9.090
  478POPC   GL211258  31.396  17.284   9.000
  478POPC   C1A11259  31.614  17.743   8.682
  478POPC   D2A11260  31.451  17.832   8.260
  478POPC   C3A11261  31.578  17.917   7.831
  478POPC   C4A11262  31.344  17.720   7.452
  478POPC   C1B11263  31.655  17.168   8.694
  478POPC   C2B11264  31.746  17.363   8.316
  478POPC   C3B11265  31.499  17.430   7.941
  478POPC   C4B11266  31.554  17.275   7.512
  479POPC   NC311267   0.382   8.817   9.534
  479POPC   PO411268   0.052   8.318   9.125
  479POPC   GL111269   0.194   8.748   9.046
  479POPC   GL211270   0.562   8.886   9.056
  479POPC   C1A11271   0.286   8.792   8.616
  479POPC   D2A11272   0.597   8.855   8.309
  479POPC   C3A11273   0.492   8.767   7.911
  479POPC   C4A11274   0.644   8.653   7.543
  479POPC   C1B11275   0.605   9.170   8.710
  479POPC   C2B11276   0.923   9.228   8.383
  479POPC   C3B11277   0.790   9.186   7.939
  479POPC   C4B11278   0.616   9.166   7.494
  480POPC   NC311279   0.297  40.961   9.377
  480POPC   PO411280   0.685  40.422   9.498
  480POPC   GL111281   0.461  40.550   9.108
  480POPC   GL211282   0.078  40.489   9.175
  480POPC   C1A11283   0.344  40.774   8.697
  480POPC   D2A11284   0.374  41.070   8.329
  480POPC   C3A11285   0.556  40.920   7.956
  480POPC   C4A11286   0.363  40.788   7.569
  480POPC   C1B11287   0.163  40.300   8.763
  480POPC   C2B11288   0.312  40.383   8.315
  480POPC   C3B11289   0.104  40.630   7.980
  480POPC   C4B11290  44.900  41.042   7.890
  481POPC   NC311291   0.707  39.091   9.568
  481POPC   PO411292   0.232  39.534   9.587
  481POPC   GL111293   0.469  39.392   9.232
  481POPC   GL211294   0.386  38.996   9.174
  481POPC   C1A11295   0.506  39.381   8.797
  481POPC   D2A11296   0.492  39.192   8.386
  481POPC   C3A11297   0.366  39.476   8.044
  481POPC   C4A11298   0.456  39.430   7.600
  481POPC   C1B11299   0.124  39.022   8.783
  481POPC   C2B11300  44.955  39.144   8.381
  481POPC   C3B11301   0.082  39.061   7.975
  481POPC   C4B11302   0.184  38.983   7.560
  482POPC   NC311303   6.386   5.405   9.778
  482POPC   PO411304   6.698   4.858   9.464
  482POPC   GL111305   6.497   4.928   9.080
  482POPC   GL211306   6.829   5.020   9.001
  482POPC   C1A11307   6.415   5.193   8.705
  482POPC   D2A11308   6.274   5.463   8.377
  482POPC   C3A11309   6.292   5.274   7.983
  482POPC   C4A11310   6.450   5.393   7.592
  482POPC   C1B11311   6.789   4.878   8.596
  482POPC   C2B11312   6.700   5.030   8.177
  482POPC   C3B11313   6.666   4.966   7.735
  482POPC   C4B11314   6.846   4.938   7.307
  483POPC   NC311315  29.198  23.455   9.475
  483POPC   PO411316  28.844  23.930   9.439
  483POPC   GL111317  28.949  23.686   9.079
  483POPC   GL211318  28.817  23.382   9.124
  483POPC   C1A11319  29.077  23.614   8.647
  483POPC   D2A11320  29.292  23.533   8.246
  483POPC   C3A11321  29.221  23.876   7.925
  483POPC   C4A11322  29.303  24.072   7.491
  483POPC   C1B11323  28.611  23.437   8.741
  483POPC   C2B11324  28.594  23.484   8.333
  483POPC   C3B11325  28.836  23.496   7.994
  483POPC   C4B11326  28.706  23.280   7.665
  484POPC   NC311327  20.623  11.026   9.390
  484POPC   PO411328  20.522  10.303   9.612
  484POPC   GL111329  20.512  10.536   9.276
  484POPC   GL211330  20.808  10.554   9.176
  484POPC   C1A11331  20.398  10.688   8.865
  484POPC   D2A11332  20.615  10.492   8.519
  484POPC   C3A11333  20.582  10.621   8.102
  484POPC   C4A11334  20.499  10.375   7.739
  484POPC   C1B11335  20.901  10.836   8.805
  484POPC   C2B11336  20.961  10.909   8.371
  484POPC   C3B11337  21.136  10.751   8.014
  484POPC   C4B11338  20.899  10.694   7.682
  485POPC   NC311339  10.145   2.422   9.384
  485POPC   PO411340   9.667   2.847   9.598
  485POPC   GL111341   9.624   2.756   9.150
  485POPC   GL211342   9.455   2.459   9.225
  485POPC   C1A11343   9.840   2.865   8.707
  485POPC   D2A11344   9.914   2.646   8.324
  485POPC   C3A11345  10.002   2.898   7.973
  485POPC   C4A11346   9.784   2.751   7.647
  485POPC   C1B11347   9.684   2.391   8.799
  485POPC   C2B11348   9.622   2.219   8.356
  485POPC   C3B11349   9.738   2.303   7.893
  485POPC   C4B11350   9.632   2.336   7.395
  486POPC   NC311351  27.876  36.652  10.121
  486POPC   PO411352  27.484  36.692   9.534
  486POPC   GL111353  27.710  36.935   9.204
  486POPC   GL211354  27.431  37.099   9.043
  486POPC   C1A11355  27.816  36.988   8.753
  486POPC   D2A11356  27.981  36.836   8.371
  486POPC   C3A11357  27.854  36.923   7.940
  486POPC   C4A11358  27.569  36.607   7.797
  486POPC   C1B11359  27.283  37.202   8.607
  486POPC   C2B11360  27.470  37.167   8.191
  486POPC   C3B11361  27.309  37.041   7.781
  486POPC   C4B11362  27.132  36.908   7.380
  487POPC   NC311363  34.978  30.957   9.461
  487POPC   PO411364  34.290  30.956   9.609
  487POPC   GL111365  34.516  30.787   9.194
  487POPC   GL211366  34.811  30.884   9.008
  487POPC   C1A11367  34.453  30.794   8.678
  487POPC   D2A11368  34.746  30.619   8.332
  487POPC   C3A11369  34.993  30.624   7.958
  487POPC   C4A11370  34.689  30.585   7.634
  487POPC   C1B11371  34.997  31.110   8.685
  487POPC   C2B11372  34.748  31.130   8.326
  487POPC   C3B11373  34.584  30.964   7.967
  487POPC   C4B11374  34.901  31.041   7.669
  488POPC   NC311375   5.718   9.265   9.660
  488POPC   PO411376   5.874   8.695   9.423
  488POPC   GL111377   5.805   9.083   9.176
  488POPC   GL211378   6.009   9.378   9.213
  488POPC   C1A11379   5.806   9.032   8.743
  488POPC   D2A11380   5.996   8.773   8.401
  488POPC   C3A11381   5.793   8.723   7.999
  488POPC   C4A11382   6.044   8.775   7.630
  488POPC   C1B11383   6.228   9.289   8.798
  488POPC   C2B11384   6.080   9.304   8.389
  488POPC   C3B11385   6.073   9.154   8.003
  488POPC   C4B11386   5.723   9.173   7.739
  489POPC   NC311387   4.985  32.654   9.491
  489POPC   PO411388   5.296  33.231   9.719
  489POPC   GL111389   5.168  33.055   9.252
  489POPC   GL211390   4.808  32.971   9.155
  489POPC   C1A11391   5.157  32.910   8.791
  489POPC   D2A11392   5.339  32.679   8.427
  489POPC   C3A11393   5.473  32.942   8.064
  489POPC   C4A11394   5.219  33.236   7.815
  489POPC   C1B11395   4.624  32.853   8.755
  489POPC   C2B11396   4.811  32.998   8.377
  489POPC   C3B11397   4.744  33.108   7.965
  489POPC   C4B11398   4.885  32.887   7.616
  490POPC   NC311399  27.704  25.967   9.757
  490POPC   PO411400  27.484  26.473   9.400
  490POPC   GL111401  27.794  26.252   9.161
  490POPC   GL211402  27.823  25.886   9.209
  490POPC   C1A11403  27.870  26.155   8.741
  490POPC   D2A11404  27.560  26.052   8.459
  490POPC   C3A11405  27.692  26.084   8.070
  490POPC   C4A11406  27.974  26.238   7.773
  490POPC   C1B11407  27.628  25.695   8.807
  490POPC   C2B11408  27.445  25.556   8.410
  490POPC   C3B11409  27.494  25.620   7.968
  490POPC   C4B11410  27.722  25.825   7.629
  491POPC   NC311411  25.693  31.938   9.364
  491POPC   PO411412  25.178  32.276   9.591
  491POPC   GL111413  25.312  32.234   9.152
  491POPC   GL211414  25.026  32.087   9.053
  491POPC   C1A11415  25.369  32.226   8.680
  491POPC   D2A11416  25.406  32.234   8.222
  491POPC   C3A11417  25.323  32.146   7.843
  491POPC   C4A11418  25.560  32.295   7.540
  491POPC   C1B11419  24.860  32.251   8.670
  491POPC   C2B11420  24.895  32.230   8.222
  491POPC   C3B11421  24.855  32.296   7.795
  491POPC   C4B11422  25.099  32.475   7.484
  492POPC   NC311423  16.212  16.454   9.530
  492POPC   PO411424  16.286  17.079   9.497
  492POPC   GL111425  16.055  16.802   9.146
  492POPC   GL211426  15.831  16.502   9.163
  492POPC   C1A11427  15.860  16.719   8.712
  492POPC   D2A11428  15.929  16.861   8.283
  492POPC   C3A11429  16.070  16.701   7.893
  492POPC   C4A11430  16.396  16.672   7.568
  492POPC   C1B11431  15.729  16.237   8.811
  492POPC   C2B11432  15.703  16.388   8.332
  492POPC   C3B11433  15.699  16.325   7.887
  492POPC   C4B11434  15.752  16.566   7.510
  493POPC   NC311435  34.409  18.827   9.545
  493POPC   PO411436  34.997  19.273   9.403
  493POPC   GL111437  34.786  19.029   9.107
  493POPC   GL211438  34.433  19.034   9.081
  493POPC   C1A11439  34.816  19.025   8.673
  493POPC   D2A11440  35.026  19.115   8.305
  493POPC   C3A11441  34.789  18.978   8.013
  493POPC   C4A11442  34.571  18.876   7.667
  493POPC   C1B11443  34.418  19.338   8.739
  493POPC   C2B11444  34.512  19.294   8.327
  493POPC   C3B11445  34.373  19.270   7.940
  493POPC   C4B11446  34.676  19.412   7.663
  494POPC   NC311447  33.680  12.704   9.582
  494POPC   PO411448  34.338  12.911   9.471
  494POPC   GL111449  33.958  13.008   9.195
  494POPC   GL211450  33.819  12.701   9.084
  494POPC   C1A11451  33.643  13.053   8.797
  494POPC   D2A11452  33.709  12.768   8.435
  494POPC   C3A11453  33.979  12.694   8.088
  494POPC   C4A11454  33.888  12.848   7.683
  494POPC   C1B11455  33.432  12.558   8.809
  494POPC   C2B11456  33.246  12.579   8.354
  494POPC   C3B11457  33.476  12.634   7.960
  494POPC   C4B11458  33.476  12.592   7.507
  495POPC   NC311459  15.828  31.433   9.402
  495POPC   PO411460  16.403  31.803   9.462
  495POPC   GL111461  16.223  31.697   9.112
  495POPC   GL211462  16.268  31.335   9.150
  495POPC   C1A11463  15.963  31.577   8.780
  495POPC   D2A11464  15.584  31.687   8.524
  495POPC   C3A11465  15.695  31.670   8.090
  495POPC   C4A11466  15.880  31.361   7.814
  495POPC   C1B11467  16.237  31.137   8.760
  495POPC   C2B11468  16.074  31.249   8.370
  495POPC   C3B11469  16.294  31.150   8.020
  495POPC   C4B11470  16.341  31.255   7.602
  496POPC   NC311471  41.286  40.637   9.544
  496POPC   PO411472  41.719  41.159   9.468
  496POPC   GL111473  41.488  40.944   9.170
  496POPC   GL211474  41.672  40.607   9.159
  496POPC   C1A11475  41.515  40.841   8.737
  496POPC   D2A11476  41.310  40.587   8.439
  496POPC   C3A11477  41.347  40.872   8.122
  496POPC   C4A11478  41.522  40.937   7.706
  496POPC   C1B11479  41.917  40.557   8.751
  496POPC   C2B11480  41.810  40.656   8.356
  496POPC   C3B11481  41.699  40.551   8.003
  496POPC   C4B11482  41.919  40.592   7.683
  497POPC   NC311483  23.773  28.067   9.619
  497POPC   PO411484  23.565  28.654   9.411
  497POPC   GL111485  23.575  28.315   9.191
  497POPC   GL211486  23.935  28.254   9.169
  497POPC   C1A11487  23.609  28.343   8.773
  497POPC   D2A11488  23.570  28.655   8.472
  497POPC   C3A11489  23.643  28.509   8.091
  497POPC   C4A11490  23.491  28.372   7.722
  497POPC   C1B11491  24.003  28.030   8.797
  497POPC   C2B11492  23.733  28.071   8.379
  497POPC   C3B11493  23.829  28.051   7.950
  497POPC   C4B11494  24.016  28.336   7.680
  498POPC   NC311495  43.144  23.224   9.519
  498POPC   PO411496  42.818  22.640   9.659
  498POPC   GL111497  43.049  22.813   9.206
  498POPC   GL211498  43.344  23.020   9.101
  498POPC   C1A11499  42.959  22.835   8.735
  498POPC   D2A11500  43.053  22.647   8.302
  498POPC   C3A11501  43.071  22.864   7.908
  498POPC   C4A11502  42.957  23.279   7.814
  498POPC   C1B11503  43.429  23.015   8.693
  498POPC   C2B11504  43.183  23.151   8.371
  498POPC   C3B11505  43.427  23.213   8.058
  498POPC   C4B11506  43.537  22.997   7.741
  499POPC   NC311507  39.555  25.041  10.079
  499POPC   PO411508  39.988  25.408   9.682
  499POPC   GL111509  40.089  25.340   9.278
  499POPC   GL211510  40.400  25.162   9.291
  499POPC   C1A11511  40.157  25.482   8.853
  499POPC   D2A11512  40.102  25.403   8.432
  499POPC   C3A11513  40.283  25.549   8.081
  499POPC   C4A11514  40.059  25.438   7.737
  499POPC   C1B11515  40.185  24.965   8.928
  499POPC   C2B11516  40.278  24.934   8.494
  499POPC   C3B11517  40.405  25.010   8.099
  499POPC   C4B11518  40.568  24.849   7.720
  500POPC   NC311519  16.011  20.573   9.571
  500POPC   PO411520  16.535  20.572   9.414
  500POPC   GL111521  16.186  20.672   9.088
  500POPC   GL211522  15.842  20.841   9.169
  500POPC   C1A11523  16.226  20.647   8.635
  500POPC   D2A11524  16.247  20.338   8.320
  500POPC   C3A11525  16.079  20.466   7.943
  500POPC   C4A11526  16.153  20.825   7.711
  500POPC   C1B11527  15.789  20.881   8.708
  500POPC   C2B11528  15.723  20.610   8.322
  500POPC   C3B11529  15.661  20.776   7.883
  500POPC   C4B11530  15.789  21.200   7.727
  501POPC   NC311531  26.887  39.886   9.708
  501POPC   PO411532  26.463  40.351   9.546
  501POPC   GL111533  26.686  40.058   9.233
  501POPC   GL211534  27.026  40.095   9.116
  501POPC   C1A11535  26.726  39.849   8.807
  501POPC   D2A11536  26.778  40.042   8.393
  501POPC   C3A11537  26.847  39.846   7.973
  501POPC   C4A11538  26.500  39.661   7.765
  501POPC   C1B11539  26.942  40.374   8.794
  501POPC   C2B11540  26.976  40.565   8.413
  501POPC   C3B11541  26.955  40.379   8.041
  501POPC   C4B11542  27.120  40.346   7.679
  502POPC   NC311543  18.425  17.507   9.720
  502POPC   PO411544  17.859  17.566   9.710
  502POPC   GL111545  18.055  17.455   9.258
  502POPC   GL211546  18.390  17.288   9.244
  502POPC   C1A11547  18.066  17.391   8.754
  502POPC   D2A11548  18.333  17.351   8.344
  502POPC   C3A11549  18.189  17.383   7.868
  502POPC   C4A11550  18.272  17.237   7.403
  502POPC   C1B11551  18.563  17.497   8.864
  502POPC   C2B11552  18.745  17.644   8.450
  502POPC   C3B11553  18.642  17.608   8.006
  502POPC   C4B11554  18.681  17.242   7.743
  503POPC   NC311555  40.425  39.867   9.472
  503POPC   PO411556  40.951  40.283   9.491
  503POPC   GL111557  40.851  40.047   9.159
  503POPC   GL211558  40.544  40.230   9.135
  503POPC   C1A11559  41.016  39.989   8.723
  503POPC   D2A11560  40.931  39.856   8.283
  503POPC   C3A11561  40.869  40.160   7.935
  503POPC   C4A11562  40.917  40.057   7.508
  503POPC   C1B11563  40.488  39.947   8.802
  503POPC   C2B11564  40.460  40.076   8.394
  503POPC   C3B11565  40.418  39.938   7.995
  503POPC   C4B11566  40.428  40.135   7.591
  504POPC   NC311567  12.666  18.139   9.767
  504POPC   PO411568  13.264  18.393   9.689
  504POPC   GL111569  13.031  18.391   9.249
  504POPC   GL211570  12.677  18.415   9.200
  504POPC   C1A11571  12.984  18.375   8.772
  504POPC   D2A11572  13.127  18.180   8.339
  504POPC   C3A11573  12.986  18.329   7.899
  504POPC   C4A11574  13.000  18.156   7.461
  504POPC   C1B11575  12.535  18.585   8.764
  504POPC   C2B11576  12.689  18.425   8.340
  504POPC   C3B11577  12.503  18.523   7.953
  504POPC   C4B11578  12.593  18.743   7.564
  505POPC   NC311579  13.026  15.997  10.036
  505POPC   PO411580  12.516  16.026   9.556
  505POPC   GL111581  12.735  16.029   9.156
  505POPC   GL211582  13.067  16.182   9.168
  505POPC   C1A11583  12.694  15.804   8.763
  505POPC   D2A11584  12.869  15.846   8.335
  505POPC   C3A11585  12.679  15.691   7.941
  505POPC   C4A11586  12.565  15.911   7.537
  505POPC   C1B11587  13.199  16.050   8.742
  505POPC   C2B11588  13.344  15.992   8.299
  505POPC   C3B11589  13.134  15.922   7.869
  505POPC   C4B11590  13.094  16.031   7.394
  506POPC   NC311591  29.216  42.574   9.703
  506POPC   PO411592  29.281  43.290   9.552
  506POPC   GL111593  29.135  43.100   9.191
  506POPC   GL211594  28.788  43.146   9.166
  506POPC   C1A11595  29.144  42.908   8.770
  506POPC   D2A11596  29.210  42.621   8.416
  506POPC   C3A11597  29.122  42.815   8.026
  506POPC   C4A11598  29.268  43.006   7.655
  506POPC   C1B11599  28.915  43.368   8.795
  506POPC   C2B11600  28.948  43.205   8.360
  506POPC   C3B11601  29.002  43.324   7.918
  506POPC   C4B11602  28.956  43.340   7.407
  507POPC   NC311603  12.044  42.645   9.654
  507POPC   PO411604  12.255  41.969   9.525
  507POPC   GL111605  12.298  42.366   9.271
  507POPC   GL211606  11.962  42.500   9.173
  507POPC   C1A11607  12.317  42.350   8.814
  507POPC   D2A11608  12.169  42.452   8.411
  507POPC   C3A11609  12.120  42.198   8.090
  507POPC   C4A11610  12.281  42.374   7.765
  507POPC   C1B11611  11.790  42.445   8.756
  507POPC   C2B11612  11.668  42.315   8.328
  507POPC   C3B11613  11.696  42.389   7.895
  507POPC   C4B11614  11.808  42.296   7.475
  508POPC   NC311615   6.128   9.847   9.883
  508POPC   PO411616   6.616  10.073   9.476
  508POPC   GL111617   6.620   9.826   9.140
  508POPC   GL211618   6.351   9.708   9.020
  508POPC   C1A11619   6.790   9.619   8.782
  508POPC   D2A11620   6.876   9.369   8.427
  508POPC   C3A11621   6.966   9.550   8.032
  508POPC   C4A11622   6.920   9.431   7.600
  508POPC   C1B11623   6.436  10.022   8.725
  508POPC   C2B11624   6.677   9.982   8.406
  508POPC   C3B11625   6.599   9.998   8.014
  508POPC   C4B11626   6.527   9.679   7.766
  509POPC   NC311627   6.581  22.720   9.440
  509POPC   PO411628   7.049  23.177   9.449
  509POPC   GL111629   6.897  22.933   9.105
  509POPC   GL211630   6.598  23.104   9.098
  509POPC   C1A11631   6.717  22.679   8.752
  509POPC   D2A11632   6.434  22.689   8.374
  509POPC   C3A11633   6.638  22.837   8.011
  509POPC   C4A11634   6.788  22.664   7.671
  509POPC   C1B11635   6.365  23.047   8.736
  509POPC   C2B11636   6.381  23.196   8.319
  509POPC   C3B11637   6.221  23.088   7.910
  509POPC   C4B11638   6.372  23.011   7.451
  510POPC   NC311639  44.488  19.388   9.493
  510POPC   PO411640  44.714  20.024   9.486
  510POPC   GL111641  44.649  19.728   9.131
  510POPC   GL211642  44.387  19.480   9.018
  510POPC   C1A11643  44.721  19.663   8.669
  510POPC   D2A11644  44.792  19.968   8.358
  510POPC   C3A11645  44.946  19.775   8.009
  510POPC   C4A11646  44.895  19.840   7.579
  510POPC   C1B11647  44.303  19.901   8.818
  510POPC   C2B11648  44.246  19.957   8.418
  510POPC   C3B11649  44.420  19.697   8.130
  510POPC   C4B11650  44.386  19.782   7.744
  511POPC   NC311651  12.202  21.841   9.635
  511POPC   PO411652  11.987  22.479   9.494
  511POPC   GL111653  12.036  22.094   9.231
  511POPC   GL211654  12.358  21.878   9.156
  511POPC   C1A11655  12.048  22.051   8.808
  511POPC   D2A11656  12.042  22.352   8.489
  511POPC   C3A11657  12.024  22.131   8.123
  511POPC   C4A11658  11.863  22.212   7.750
  511POPC   C1B11659  12.556  21.991   8.738
  511POPC   C2B11660  12.520  22.210   8.315
  511POPC   C3B11661  12.430  22.253   7.840
  511POPC   C4B11662  12.512  22.624   7.605
  512POPC   NC311663   2.072  41.301   9.401
  512POPC   PO411664   1.491  41.669   9.423
  512POPC   GL111665   1.858  41.662   9.059
  512POPC   GL211666   2.170  41.397   8.936
  512POPC   C1A11667   1.920  41.644   8.599
  512POPC   D2A11668   2.159  41.760   8.289
  512POPC   C3A11669   1.996  41.567   7.980
  512POPC   C4A11670   1.789  41.644   7.575
  512POPC   C1B11671   1.797  41.160   8.720
  512POPC   C2B11672   1.538  41.150   8.317
  512POPC   C3B11673   1.629  41.235   7.857
  512POPC   C4B11674   2.053  41.226   7.597
  513POPC   NC311675  39.582  21.855   9.433
  513POPC   PO411676  39.176  22.319   9.790
  513POPC   GL111677  39.200  22.419   9.274
  513POPC   GL211678  39.328  22.154   9.013
  513POPC   C1A11679  38.936  22.446   8.859
  513POPC   D2A11680  39.131  22.408   8.428
  513POPC   C3A11681  38.926  22.366   8.006
  513POPC   C4A11682  39.143  22.415   7.628
  513POPC   C1B11683  39.396  21.714   8.818
  513POPC   C2B11684  39.374  21.637   8.397
  513POPC   C3B11685  39.285  21.929   8.070
  513POPC   C4B11686  39.584  21.944   7.742
  514POPC   NC311687  13.346  29.842  10.007
  514POPC   PO411688  13.801  29.609   9.467
  514POPC   GL111689  13.675  29.820   9.158
  514POPC   GL211690  13.366  29.926   9.292
  514POPC   C1A11691  13.612  30.087   8.833
  514POPC   D2A11692  13.866  30.176   8.478
  514POPC   C3A11693  13.838  29.907   8.101
  514POPC   C4A11694  13.815  30.080   7.708
  514POPC   C1B11695  13.296  29.687   8.863
  514POPC   C2B11696  13.455  29.806   8.438
  514POPC   C3B11697  13.313  29.996   8.063
  514POPC   C4B11698  13.396  29.812   7.672
  515POPC   NC311699  32.920   4.659   9.661
  515POPC   PO411700  33.364   4.232   9.901
  515POPC   GL111701  33.257   4.314   9.366
  515POPC   GL211702  32.910   4.343   9.259
  515POPC   C1A11703  33.252   4.469   8.910
  515POPC   D2A11704  33.079   4.519   8.481
  515POPC   C3A11705  33.206   4.338   8.071
  515POPC   C4A11706  33.118   4.506   7.650
  515POPC   C1B11707  32.830   4.149   8.846
  515POPC   C2B11708  32.645   4.207   8.428
  515POPC   C3B11709  32.711   4.390   8.023
  515POPC   C4B11710  32.833   4.092   7.699
  516POPC   NC311711   1.093  41.214   9.587
  516POPC   PO411712   0.784  41.803   9.678
  516POPC   GL111713   1.003  41.535   9.216
  516POPC   GL211714   1.213  41.791   8.959
  516POPC   C1A11715   1.190  41.321   8.815
  516POPC   D2A11716   1.384  41.606   8.471
  516POPC   C3A11717   1.206  41.484   8.062
  516POPC   C4A11718   1.282  41.574   7.625
  516POPC   C1B11719   0.902  41.718   8.622
  516POPC   C2B11720   0.795  41.852   8.220
  516POPC   C3B11721   1.064  41.959   7.869
  516POPC   C4B11722   1.044  42.031   7.401
  517POPC   NC311723   6.271  13.306   9.422
  517POPC   PO411724   6.454  12.662   9.455
  517POPC   GL111725   6.523  12.946   9.121
  517POPC   GL211726   6.190  12.949   9.072
  517POPC   C1A11727   6.630  12.926   8.664
  517POPC   D2A11728   6.833  13.136   8.291
  517POPC   C3A11729   6.866  12.872   7.917
  517POPC   C4A11730   6.459  12.926   7.726
  517POPC   C1B11731   6.241  12.563   8.824
  517POPC   C2B11732   6.511  12.437   8.467
  517POPC   C3B11733   6.490  12.532   8.039
  517POPC   C4B11734   6.401  12.439   7.595
  518POPC   NC311735   5.104  44.937   9.556
  518POPC   PO411736   4.746  44.407   9.362
  518POPC   GL111737   5.002  44.427   9.044
  518POPC   GL211738   5.264  44.652   9.118
  518POPC   C1A11739   4.847  44.373   8.679
  518POPC   D2A11740   4.892  44.147   8.338
  518POPC   C3A11741   5.072  44.393   8.033
  518POPC   C4A11742   5.306  44.663   7.784
  518POPC   C1B11743   5.049  44.856   8.785
  518POPC   C2B11744   5.006  44.972   8.386
  518POPC   C3B11745   5.048   0.306   8.145
  518POPC   C4B11746   5.032   0.123   7.759
  519POPC   NC311747  36.310  38.343   9.544
  519POPC   PO411748  35.922  38.784   9.461
  519POPC   GL111749  36.085  38.515   9.102
  519POPC   GL211750  36.411  38.306   9.054
  519POPC   C1A11751  36.177  38.648   8.692
  519POPC   D2A11752  36.264  38.828   8.279
  519POPC   C3A11753  36.127  38.597   7.894
  519POPC   C4A11754  35.812  38.387   7.611
  519POPC   C1B11755  36.208  38.145   8.719
  519POPC   C2B11756  36.008  38.232   8.348
  519POPC   C3B11757  36.239  38.110   8.038
  519POPC   C4B11758  36.315  38.189   7.649
  520POPC   NC311759  41.030  37.714   9.683
  520POPC   PO411760  40.401  37.888   9.536
  520POPC   GL111761  40.719  37.783   9.225
  520POPC   GL211762  40.963  38.058   9.184
  520POPC   C1A11763  40.816  37.578   8.830
  520POPC   D2A11764  40.704  37.717   8.449
  520POPC   C3A11765  40.791  37.580   8.081
  520POPC   C4A11766  40.553  37.557   7.717
  520POPC   C1B11767  40.851  38.125   8.714
  520POPC   C2B11768  40.973  38.092   8.209
  520POPC   C3B11769  40.950  37.931   7.750
  520POPC   C4B11770  41.085  37.876   7.288
  521POPC   NC311771  38.487  26.199   9.531
  521POPC   PO411772  38.243  25.545   9.442
  521POPC   GL111773  38.321  25.724   9.079
  521POPC   GL211774  38.560  25.981   9.076
  521POPC   C1A11775  38.191  25.816   8.687
  521POPC   D2A11776  38.044  26.069   8.346
  521POPC   C3A11777  38.132  25.850   7.977
  521POPC   C4A11778  38.463  25.668   7.733
  521POPC   C1B11779  38.737  25.870   8.690
  521POPC   C2B11780  38.538  25.998   8.320
  521POPC   C3B11781  38.554  26.145   7.906
  521POPC   C4B11782  38.559  26.062   7.420
  522POPC   NC311783  42.548  20.979   9.401
  522POPC   PO411784  42.062  20.465   9.428
  522POPC   GL111785  42.275  20.629   9.109
  522POPC   GL211786  42.573  20.461   8.946
  522POPC   C1A11787  42.113  20.520   8.714
  522POPC   D2A11788  42.278  20.555   8.325
  522POPC   C3A11789  42.118  20.406   7.949
  522POPC   C4A11790  42.485  20.409   7.702
  522POPC   C1B11791  42.513  20.886   8.758
  522POPC   C2B11792  42.323  21.041   8.415
  522POPC   C3B11793  42.327  20.932   7.969
  522POPC   C4B11794  42.744  20.860   7.803
  523POPC   NC311795  27.514  24.170   9.438
  523POPC   PO411796  27.296  24.812   9.434
  523POPC   GL111797  27.414  24.538   9.095
  523POPC   GL211798  27.732  24.370   9.020
  523POPC   C1A11799  27.258  24.212   8.831
  523POPC   D2A11800  27.246  24.072   8.407
  523POPC   C3A11801  27.607  24.213   8.167
  523POPC   C4A11802  27.593  24.513   7.822
  523POPC   C1B11803  27.635  24.491   8.607
  523POPC   C2B11804  27.722  24.756   8.247
  523POPC   C3B11805  27.994  24.819   7.867
  523POPC   C4B11806  28.159  24.952   7.466
  524POPC   NC311807  29.626  13.499   9.618
  524POPC   PO411808  29.085  13.940   9.534
  524POPC   GL111809  29.357  13.827   9.225
  524POPC   GL211810  29.332  13.460   9.192
  524POPC   C1A11811  29.444  13.756   8.788
  524POPC   D2A11812  29.431  13.523   8.383
  524POPC   C3A11813  29.275  13.742   7.993
  524POPC   C4A11814  28.934  13.974   7.745
  524POPC   C1B11815  29.145  13.323   8.781
  524POPC   C2B11816  29.103  13.093   8.385
  524POPC   C3B11817  28.950  13.174   7.976
  524POPC   C4B11818  29.283  13.286   7.688
  525POPC   NC311819  44.495   4.108   9.389
  525POPC   PO411820  44.535   3.479   9.565
  525POPC   GL111821  44.740   3.609   9.161
  525POPC   GL211822  44.956   3.918   9.201
  525POPC   C1A11823  44.633   3.525   8.709
  525POPC   D2A11824  44.613   3.794   8.339
  525POPC   C3A11825  44.596   3.620   7.939
  525POPC   C4A11826  44.968   3.430   7.819
  525POPC   C1B11827  44.818   4.013   8.775
  525POPC   C2B11828   0.024   4.086   8.378
  525POPC   C3B11829   0.019   3.928   7.977
  525POPC   C4B11830   0.338   3.762   7.691
  526POPC   NC311831   8.812  11.745   9.459
  526POPC   PO411832   8.888  12.418   9.598
  526POPC   GL111833   8.977  12.242   9.140
  526POPC   GL211834   9.203  11.957   9.183
  526POPC   C1A11835   8.747  12.171   8.674
  526POPC   D2A11836   8.859  12.350   8.245
  526POPC   C3A11837   8.846  12.070   7.900
  526POPC   C4A11838   8.629  11.687   7.792
  526POPC   C1B11839   9.178  11.903   8.768
  526POPC   C2B11840   9.042  11.884   8.343
  526POPC   C3B11841   9.321  11.958   7.995
  526POPC   C4B11842   9.338  12.168   7.620
  527POPC   NC311843  16.180  24.440   9.710
  527POPC   PO411844  15.718  24.822   9.469
  527POPC   GL111845  15.873  24.663   9.078
  527POPC   GL211846  16.128  24.379   9.091
  527POPC   C1A11847  15.981  24.881   8.705
  527POPC   D2A11848  16.132  24.821   8.286
  527POPC   C3A11849  15.849  24.711   7.949
  527POPC   C4A11850  15.858  24.352   7.647
  527POPC   C1B11851  16.041  24.330   8.623
  527POPC   C2B11852  16.015  24.265   8.145
  527POPC   C3B11853  16.313  24.209   7.773
  527POPC   C4B11854  16.328  24.148   7.308
  528POPC   NC311855  26.924  40.473   9.453
  528POPC   PO411856  26.547  41.096   9.547
  528POPC   GL111857  26.775  40.889   9.201
  528POPC   GL211858  26.582  40.597   9.115
  528POPC   C1A11859  27.045  40.885   8.810
  528POPC   D2A11860  27.304  40.952   8.404
  528POPC   C3A11861  27.252  40.796   7.992
  528POPC   C4A11862  27.056  40.828   7.587
  528POPC   C1B11863  26.552  40.780   8.740
  528POPC   C2B11864  26.715  41.031   8.426
  528POPC   C3B11865  26.735  40.863   8.026
  528POPC   C4B11866  26.621  40.603   7.713
  529POPC   NC311867  18.163  38.865   9.483
  529POPC   PO411868  18.563  38.281   9.619
  529POPC   GL111869  18.249  38.372   9.315
  529POPC   GL211870  18.457  38.608   9.171
  529POPC   C1A11871  18.042  38.386   8.897
  529POPC   D2A11872  18.201  38.486   8.472
  529POPC   C3A11873  18.212  38.244   8.111
  529POPC   C4A11874  18.086  38.406   7.742
  529POPC   C1B11875  18.539  38.328   8.832
  529POPC   C2B11876  18.623  38.136   8.407
  529POPC   C3B11877  18.695  38.292   7.976
  529POPC   C4B11878  18.580  38.556   7.608
  530POPC   NC311879  42.044  27.027   9.510
  530POPC   PO411880  42.643  26.722   9.457
  530POPC   GL111881  42.506  26.889   9.065
  530POPC   GL211882  42.781  27.086   8.903
  530POPC   C1A11883  42.121  26.986   8.806
  530POPC   D2A11884  42.062  26.844   8.375
  530POPC   C3A11885  42.349  26.959   8.040
  530POPC   C4A11886  42.287  26.892   7.601
  530POPC   C1B11887  42.555  26.891   8.541
  530POPC   C2B11888  42.515  26.516   8.275
  530POPC   C3B11889  42.536  26.504   7.822
  530POPC   C4B11890  42.768  26.719   7.503
  531POPC   NC311891  28.941  16.467   9.478
  531POPC   PO411892  29.206  17.055   9.514
  531POPC   GL111893  29.060  16.877   9.199
  531POPC   GL211894  29.291  16.641   9.121
  531POPC   C1A11895  28.912  16.721   8.810
  531POPC   D2A11896  29.068  16.533   8.458
  531POPC   C3A11897  29.076  16.725   8.067
  531POPC   C4A11898  29.054  16.646   7.644
  531POPC   C1B11899  29.491  16.675   8.725
  531POPC   C2B11900  29.543  16.415   8.342
  531POPC   C3B11901  29.355  16.291   7.972
  531POPC   C4B11902  29.544  16.417   7.609
  532POPC   NC311903  37.200   7.513   9.367
  532POPC   PO411904  36.549   7.272   9.471
  532POPC   GL111905  36.724   7.349   9.093
  532POPC   GL211906  36.932   7.042   9.188
  532POPC   C1A11907  36.606   7.506   8.636
  532POPC   D2A11908  36.512   7.856   8.285
  532POPC   C3A11909  36.703   7.768   7.842
  532POPC   C4A11910  37.119   7.620   7.674
  532POPC   C1B11911  36.777   6.990   8.764
  532POPC   C2B11912  36.968   7.153   8.387
  532POPC   C3B11913  36.959   7.242   7.951
  532POPC   C4B11914  36.623   7.295   7.663
  533POPC   NC311915   0.757  18.132   9.685
  533POPC   PO411916   0.193  18.435   9.604
  533POPC   GL111917   0.314  18.179   9.255
  533POPC   GL211918   0.681  18.230   9.176
  533POPC   C1A11919   0.361  18.249   8.800
  533POPC   D2A11920   0.396  18.426   8.403
  533POPC   C3A11921   0.288  18.140   8.053
  533POPC   C4A11922   0.089  18.244   7.665
  533POPC   C1B11923   0.772  18.558   8.802
  533POPC   C2B11924   0.919  18.581   8.359
  533POPC   C3B11925   0.800  18.295   8.069
  533POPC   C4B11926   0.599  18.387   7.687
  534POPC   NC311927  40.279  21.691   9.519
  534POPC   PO411928  39.701  21.386   9.581
  534POPC   GL111929  39.919  21.496   9.214
  534POPC   GL211930  40.201  21.254   9.228
  534POPC   C1A11931  39.943  21.495   8.782
  534POPC   D2A11932  39.860  21.279   8.405
  534POPC   C3A11933  39.906  21.556   8.094
  534POPC   C4A11934  39.874  21.460   7.697
  534POPC   C1B11935  40.354  21.170   8.800
  534POPC   C2B11936  40.370  21.369   8.400
  534POPC   C3B11937  40.325  21.258   7.948
  534POPC   C4B11938  40.458  21.242   7.518
  535POPC   NC311939   4.145   5.889   9.529
  535POPC   PO411940   4.759   5.927   9.530
  535POPC   GL111941   4.642   5.848   9.125
  535POPC   GL211942   4.308   5.987   9.078
  535POPC   C1A11943   4.607   6.044   8.699
  535POPC   D2A11944   4.676   6.295   8.384
  535POPC   C3A11945   4.367   6.117   8.162
  535POPC   C4A11946   4.333   6.031   7.737
  535POPC   C1B11947   4.098   5.879   8.718
  535POPC   C2B11948   3.955   5.785   8.326
  535POPC   C3B11949   3.897   6.077   7.982
  535POPC   C4B11950   3.792   6.300   7.658
  536POPC   NC311951  26.170  14.854   9.486
  536POPC   PO411952  25.872  14.245   9.462
  536POPC   GL111953  26.061  14.383   9.105
  536POPC   GL211954  26.402  14.294   9.116
  536POPC   C1A11955  25.887  14.473   8.698
  536POPC   D2A11956  25.814  14.719   8.332
  536POPC   C3A11957  25.749  14.488   7.963
  536POPC   C4A11958  25.963  14.130   7.850
  536POPC   C1B11959  26.284  14.141   8.695
  536POPC   C2B11960  26.190  14.335   8.275
  536POPC   C3B11961  26.325  14.501   7.878
  536POPC   C4B11962  26.443  14.404   7.487
  537POPC   NC311963   3.040  28.754   9.738
  537POPC   PO411964   3.544  28.509   9.498
  537POPC   GL111965   3.572  28.611   9.071
  537POPC   GL211966   3.236  28.544   8.997
  537POPC   C1A11967   3.732  28.719   8.678
  537POPC   D2A11968   3.442  28.680   8.344
  537POPC   C3A11969   3.597  28.565   7.939
  537POPC   C4A11970   3.396  28.609   7.529
  537POPC   C1B11971   3.393  28.281   8.668
  537POPC   C2B11972   3.480  28.151   8.233
  537POPC   C3B11973   3.425  28.121   7.756
  537POPC   C4B11974   3.508  28.164   7.294
  538POPC   NC311975  39.224  22.758   9.670
  538POPC   PO411976  39.819  23.000   9.523
  538POPC   GL111977  39.492  22.971   9.215
  538POPC   GL211978  39.184  23.093   9.209
  538POPC   C1A11979  39.367  22.763   8.825
  538POPC   D2A11980  39.267  22.910   8.391
  538POPC   C3A11981  39.403  22.683   7.977
  538POPC   C4A11982  39.481  22.784   7.490
  538POPC   C1B11983  38.903  22.993   8.821
  538POPC   C2B11984  38.766  23.052   8.402
  538POPC   C3B11985  38.893  22.905   8.020
  538POPC   C4B11986  39.177  23.099   7.793
  539POPC   NC311987  25.881  30.963   9.482
  539POPC   PO411988  26.064  30.284   9.429
  539POPC   GL111989  26.206  30.391   9.071
  539POPC   GL211990  26.111  30.715   9.097
  539POPC   C1A11991  25.968  30.421   8.685
  539POPC   D2A11992  26.151  30.461   8.290
  539POPC   C3A11993  25.995  30.552   7.899
  539POPC   C4A11994  26.165  30.621   7.487
  539POPC   C1B11995  26.064  30.919   8.696
  539POPC   C2B11996  25.921  30.932   8.290
  539POPC   C3B11997  26.127  31.034   7.904
  539POPC   C4B11998  25.814  30.952   7.613
  540POPC   NC311999   5.719  37.365   9.522
  540POPC   PO412000   6.086  37.754   9.915
  540POPC   GL112001   6.066  37.735   9.305
  540POPC   GL212002   5.827  37.513   9.073
  540POPC   C1A12003   5.892  37.949   8.873
  540POPC   D2A12004   5.653  37.732   8.532
  540POPC   C3A12005   5.696  37.788   8.079
  540POPC   C4A12006   6.032  37.853   7.798
  540POPC   C1B12007   6.073  37.458   8.729
  540POPC   C2B12008   6.144  37.295   8.329
  540POPC   C3B12009   6.178  37.366   7.904
  540POPC   C4B12010   5.896  37.431   7.565
  541POPC   NC312011  40.595  32.162   9.498
  541POPC   PO412012  41.126  31.765   9.207
  541POPC   GL112013  40.829  32.100   9.053
  541POPC   GL212014  40.413  32.062   9.051
  541POPC   C1A12015  40.673  32.315   8.698
  541POPC   D2A12016  40.493  32.267   8.306
  541POPC   C3A12017  40.792  32.174   7.991
  541POPC   C4A12018  40.783  32.514   7.719
  541POPC   C1B12019  40.315  31.877   8.678
  541POPC   C2B12020  40.319  31.794   8.228
  541POPC   C3B12021  40.295  32.055   7.844
  541POPC   C4B12022  40.603  32.067   7.501
  542POPC   NC312023  29.594  33.661   9.617
  542POPC   PO412024  30.228  33.864   9.591
  542POPC   GL112025  30.032  33.801   9.174
  542POPC   GL212026  30.290  33.588   9.086
  542POPC   C1A12027  29.813  34.024   8.803
  542POPC   D2A12028  29.721  34.259   8.412
  542POPC   C3A12029  29.604  34.018   8.036
  542POPC   C4A12030  29.779  33.881   7.648
  542POPC   C1B12031  30.076  33.601   8.662
  542POPC   C2B12032  30.011  33.789   8.261
  542POPC   C3B12033  30.251  33.856   7.916
  542POPC   C4B12034  30.313  33.680   7.536
  543POPC   NC312035  14.663  35.668   9.536
  543POPC   PO412036  14.411  35.087   9.446
  543POPC   GL112037  14.414  35.377   9.110
  543POPC   GL212038  14.437  35.700   9.062
  543POPC   C1A12039  14.213  35.428   8.703
  543POPC   D2A12040  14.242  35.186   8.354
  543POPC   C3A12041  14.383  35.331   7.951
  543POPC   C4A12042  14.386  35.136   7.519
  543POPC   C1B12043  14.630  35.759   8.662
  543POPC   C2B12044  14.800  36.008   8.331
  543POPC   C3B12045  14.729  35.911   7.896
  543POPC   C4B12046  14.629  35.579   7.572
  544POPC   NC312047  38.828   9.480   9.269
  544POPC   PO412048  38.508  10.056   9.528
  544POPC   GL112049  38.397   9.783   9.163
  544POPC   GL212050  38.219   9.479   9.297
  544POPC   C1A12051  38.539   9.728   8.721
  544POPC   D2A12052  38.762   9.515   8.363
  544POPC   C3A12053  38.668   9.738   7.982
  544POPC   C4A12054  38.673  10.205   7.881
  544POPC   C1B12055  38.179   9.374   8.839
  544POPC   C2B12056  38.201   9.518   8.382
  544POPC   C3B12057  38.143   9.548   7.930
  544POPC   C4B12058  38.109   9.203   7.631
  545POPC   NC312059   8.347  43.685   9.377
  545POPC   PO412060   8.019  44.288   9.624
  545POPC   GL112061   8.093  44.101   9.168
  545POPC   GL212062   8.123  43.740   8.953
  545POPC   C1A12063   8.189  44.201   8.716
  545POPC   D2A12064   8.172  43.981   8.310
  545POPC   C3A12065   8.109  44.259   7.938
  545POPC   C4A12066   8.318  44.206   7.494
  545POPC   C1B12067   8.510  43.815   8.705
  545POPC   C2B12068   8.649  43.715   8.289
  545POPC   C3B12069   8.558  43.529   7.842
  545POPC   C4B12070   8.478  43.642   7.365
  546POPC   NC312071  28.141   4.865   9.672
  546POPC   PO412072  28.435   5.393   9.535
  546POPC   GL112073  28.249   5.130   9.251
  546POPC   GL212074  27.920   5.214   9.288
  546POPC   C1A12075  28.261   5.003   8.850
  546POPC   D2A12076  28.530   4.873   8.516
  546POPC   C3A12077  28.339   4.936   8.134
  546POPC   C4A12078  28.341   5.154   7.740
  546POPC   C1B12079  27.879   5.371   8.865
  546POPC   C2B12080  27.956   5.188   8.438
  546POPC   C3B12081  28.088   5.411   8.098
  546POPC   C4B12082  28.141   5.653   7.752
  547POPC   NC312083  27.879  13.513   9.671
  547POPC   PO412084  27.538  13.996   9.471
  547POPC   GL112085  27.476  13.695   9.104
  547POPC   GL212086  27.721  13.415   9.120
  547POPC   C1A12087  27.519  13.644   8.645
  547POPC   D2A12088  27.629  13.416   8.295
  547POPC   C3A12089  27.549  13.683   7.951
  547POPC   C4A12090  27.805  14.032   7.857
  547POPC   C1B12091  27.453  13.173   8.811
  547POPC   C2B12092  27.158  13.297   8.492
  547POPC   C3B12093  27.150  13.341   8.066
  547POPC   C4B12094  27.179  13.323   7.643
  548POPC   NC312095  29.645  19.020   9.535
  548POPC   PO412096  30.359  18.831   9.481
  548POPC   GL112097  30.053  18.879   9.132
  548POPC   GL212098  29.849  19.199   9.087
  548POPC   C1A12099  29.820  18.860   8.723
  548POPC   D2A12100  29.940  19.090   8.362
  548POPC   C3A12101  29.796  18.932   7.978
  548POPC   C4A12102  29.604  19.023   7.556
  548POPC   C1B12103  30.236  19.190   8.779
  548POPC   C2B12104  30.426  19.281   8.357
  548POPC   C3B12105  30.257  19.315   7.941
  548POPC   C4B12106  30.128  19.026   7.621
  549POPC   NC312107  21.020  19.719   9.865
  549POPC   PO412108  20.447  19.831   9.793
  549POPC   GL112109  20.594  19.794   9.335
  549POPC   GL212110  20.469  20.083   9.162
  549POPC   C1A12111  20.627  19.733   8.823
  549POPC   D2A12112  20.547  19.785   8.319
  549POPC   C3A12113  20.835  19.729   7.936
  549POPC   C4A12114  20.816  19.453   7.551
  549POPC   C1B12115  20.352  20.166   8.719
  549POPC   C2B12116  20.477  20.290   8.299
  549POPC   C3B12117  20.590  20.170   7.884
  549POPC   C4B12118  20.535  20.400   7.507
  550POPC   NC312119  17.942  36.391   9.366
  550POPC   PO412120  17.421  36.016   9.632
  550POPC   GL112121  17.492  35.950   9.159
  550POPC   GL212122  17.820  36.012   8.967
  550POPC   C1A12123  17.408  35.982   8.698
  550POPC   D2A12124  17.533  36.167   8.330
  550POPC   C3A12125  17.218  36.088   8.053
  550POPC   C4A12126  17.060  35.870   7.727
  550POPC   C1B12127  17.946  36.298   8.626
  550POPC   C2B12128  17.973  36.379   8.160
  550POPC   C3B12129  17.663  36.443   7.887
  550POPC   C4B12130  17.465  36.174   7.595
  551POPC   NC312131  13.762  42.904   9.475
  551POPC   PO412132  13.760  43.576   9.509
  551POPC   GL112133  13.502  43.360   9.158
  551POPC   GL212134  13.691  43.077   9.015
  551POPC   C1A12135  13.362  43.228   8.689
  551POPC   D2A12136  13.515  42.960   8.289
  551POPC   C3A12137  13.394  43.141   7.861
  551POPC   C4A12138  13.511  42.990   7.425
  551POPC   C1B12139  14.035  43.073   8.744
  551POPC   C2B12140  14.044  42.942   8.330
  551POPC   C3B12141  13.890  42.657   8.041
  551POPC   C4B12142  14.054  42.691   7.632
  552POPC   NC312143   1.025  38.494   9.574
  552POPC   PO412144   1.701  38.542   9.379
  552POPC   GL112145   1.562  38.440   9.033
  552POPC   GL212146   1.237  38.557   9.112
  552POPC   C1A12147   1.396  38.483   8.625
  552POPC   D2A12148   1.073  38.256   8.409
  552POPC   C3A12149   1.240  38.159   7.983
  552POPC   C4A12150   1.309  38.323   7.557
  552POPC   C1B12151   0.904  38.661   8.819
  552POPC   C2B12152   0.805  38.733   8.372
  552POPC   C3B12153   0.927  38.769   7.908
  552POPC   C4B12154   0.979  38.677   7.446
  553POPC   NC312155  40.520  24.099   9.264
  553POPC   PO412156  40.047  23.827   9.630
  553POPC   GL112157  40.063  23.673   9.236
  553POPC   GL212158  39.854  23.911   9.145
  553POPC   C1A12159  39.983  23.556   8.773
  553POPC   D2A12160  40.137  23.475   8.346
  553POPC   C3A12161  39.890  23.579   8.014
  553POPC   C4A12162  40.095  23.531   7.647
  553POPC   C1B12163  40.047  24.062   8.784
  553POPC   C2B12164  40.032  23.973   8.380
  553POPC   C3B12165  40.145  24.027   8.000
  553POPC   C4B12166  39.871  24.025   7.684
  554POPC   NC312167  29.769   5.386   9.225
  554POPC   PO412168  29.724   4.912   9.680
  554POPC   GL112169  29.901   4.818   9.258
  554POPC   GL212170  30.264   4.944   9.202
  554POPC   C1A12171  29.841   4.817   8.792
  554POPC   D2A12172  29.590   4.860   8.394
  554POPC   C3A12173  29.870   4.881   8.049
  554POPC   C4A12174  29.958   4.674   7.677
  554POPC   C1B12175  30.269   5.167   8.788
  554POPC   C2B12176  29.956   5.228   8.457
  554POPC   C3B12177  29.893   5.391   8.037
  554POPC   C4B12178  30.013   5.199   7.643
  555POPC   NC312179   0.108   5.915   9.357
  555POPC   PO412180   0.717   5.820   9.601
  555POPC   GL112181   0.618   5.868   9.205
  555POPC   GL212182   0.559   6.218   9.218
  555POPC   C1A12183   0.508   5.682   8.826
  555POPC   D2A12184   0.711   5.781   8.447
  555POPC   C3A12185   0.579   5.656   8.098
  555POPC   C4A12186   0.631   5.626   7.700
  555POPC   C1B12187   0.475   6.205   8.778
  555POPC   C2B12188   0.575   6.261   8.345
  555POPC   C3B12189   0.454   6.173   7.917
  555POPC   C4B12190   0.089   6.177   7.608
  556POPC   NC312191   1.443  18.353   9.416
  556POPC   PO412192   0.987  17.859   9.411
  556POPC   GL112193   1.173  18.123   9.066
  556POPC   GL212194   1.577  18.171   8.965
  556POPC   C1A12195   1.194  18.296   8.672
  556POPC   D2A12196   1.364  18.065   8.375
  556POPC   C3A12197   1.378  18.103   7.968
  556POPC   C4A12198   1.211  18.474   7.812
  556POPC   C1B12199   1.686  18.489   8.644
  556POPC   C2B12200   1.552  18.559   8.199
  556POPC   C3B12201   1.724  18.401   7.755
  556POPC   C4B12202   1.803  18.295   7.279
  557POPC   NC312203   8.782  32.637   9.531
  557POPC   PO412204   9.180  32.089   9.679
  557POPC   GL112205   9.024  32.239   9.216
  557POPC   GL212206   8.808  32.538   9.054
  557POPC   C1A12207   8.927  32.185   8.748
  557POPC   D2A12208   8.771  32.178   8.337
  557POPC   C3A12209   9.100  32.231   8.033
  557POPC   C4A12210   9.074  32.023   7.664
  557POPC   C1B12211   8.606  32.633   8.660
  557POPC   C2B12212   8.643  32.787   8.226
  557POPC   C3B12213   8.690  32.502   7.858
  557POPC   C4B12214   8.739  32.613   7.401
  558POPC   NC312215   3.334  42.294   9.440
  558POPC   PO412216   3.979  41.999   9.462
  558POPC   GL112217   3.889  42.299   9.101
  558POPC   GL212218   3.553  42.332   8.994
  558POPC   C1A12219   3.824  42.623   8.712
  558POPC   D2A12220   3.802  42.803   8.291
  558POPC   C3A12221   3.627  42.541   7.991
  558POPC   C4A12222   3.701  42.378   7.608
  558POPC   C1B12223   3.299  42.126   8.669
  558POPC   C2B12224   3.309  42.207   8.218
  558POPC   C3B12225   3.236  42.220   7.756
  558POPC   C4B12226   3.232  42.469   7.355
  559POPC   NC312227  12.552  33.243   9.384
  559POPC   PO412228  12.970  32.687   9.606
  559POPC   GL112229  13.006  32.831   9.183
  559POPC   GL212230  12.708  32.957   9.006
  559POPC   C1A12231  13.029  32.623   8.776
  559POPC   D2A12232  12.784  32.684   8.385
  559POPC   C3A12233  12.978  32.927   8.037
  559POPC   C4A12234  12.902  33.158   7.666
  559POPC   C1B12235  12.539  33.165   8.673
  559POPC   C2B12236  12.640  33.265   8.272
  559POPC   C3B12237  12.481  33.355   7.896
  559POPC   C4B12238  12.426  33.055   7.539
  560POPC   NC312239  19.617  38.849   9.415
  560POPC   PO412240  19.406  39.520   9.386
  560POPC   GL112241  19.240  39.173   9.178
  560POPC   GL212242  18.869  39.183   9.151
  560POPC   C1A12243  19.191  39.082   8.758
  560POPC   D2A12244  18.938  39.098   8.406
  560POPC   C3A12245  19.222  39.119   8.056
  560POPC   C4A12246  19.312  39.283   7.651
  560POPC   C1B12247  18.851  39.473   8.776
  560POPC   C2B12248  18.638  39.503   8.384
  560POPC   C3B12249  18.814  39.425   7.960
  560POPC   C4B12250  18.844  39.358   7.499
  561POPC   NC312251  43.104  32.122   9.503
  561POPC   PO412252  43.270  32.767   9.481
  561POPC   GL112253  43.283  32.451   9.142
  561POPC   GL212254  42.941  32.518   9.093
  561POPC   C1A12255  43.239  32.402   8.673
  561POPC   D2A12256  43.097  32.432   8.228
  561POPC   C3A12257  43.248  32.187   7.919
  561POPC   C4A12258  43.630  32.238   7.723
  561POPC   C1B12259  42.829  32.142   8.866
  561POPC   C2B12260  42.887  31.986   8.454
  561POPC   C3B12261  42.798  31.877   8.023
  561POPC   C4B12262  42.864  32.003   7.606
  562POPC   NC312263   7.875  15.418   9.449
  562POPC   PO412264   8.401  15.119   9.446
  562POPC   GL112265   8.148  15.124   9.109
  562POPC   GL212266   7.909  14.886   9.112
  562POPC   C1A12267   8.243  15.090   8.684
  562POPC   D2A12268   8.528  15.362   8.449
  562POPC   C3A12269   8.445  15.294   8.022
  562POPC   C4A12270   8.498  14.915   7.764
  562POPC   C1B12271   7.732  15.200   8.809
  562POPC   C2B12272   7.816  15.242   8.387
  562POPC   C3B12273   7.870  15.110   7.971
  562POPC   C4B12274   8.102  15.312   7.643
  563POPC   NC312275  44.180  38.814   9.675
  563POPC   PO412276  43.840  38.256   9.519
  563POPC   GL112277  44.028  38.522   9.237
  563POPC   GL212278  43.787  38.424   9.000
  563POPC   C1A12279  44.239  38.614   8.828
  563POPC   D2A12280  43.946  38.546   8.505
  563POPC   C3A12281  44.026  38.465   8.087
  563POPC   C4A12282  44.361  38.479   7.824
  563POPC   C1B12283  43.600  38.185   8.686
  563POPC   C2B12284  43.365  37.939   8.398
  563POPC   C3B12285  43.519  37.967   7.974
  563POPC   C4B12286  43.903  38.133   7.742
  564POPC   NC312287  37.366  16.918   9.409
  564POPC   PO412288  37.989  16.480   9.518
  564POPC   GL112289  37.891  16.605   9.107
  564POPC   GL212290  37.627  16.377   9.133
  564POPC   C1A12291  37.687  16.668   8.686
  564POPC   D2A12292  37.440  16.528   8.297
  564POPC   C3A12293  37.593  16.811   7.929
  564POPC   C4A12294  37.316  17.156   7.776
  564POPC   C1B12295  37.757  16.177   8.757
  564POPC   C2B12296  37.920  16.323   8.350
  564POPC   C3B12297  37.749  16.313   7.937
  564POPC   C4B12298  37.620  16.415   7.519
  565POPC   NC312299  22.013   8.956   9.480
  565POPC   PO412300  22.305   9.432   9.579
  565POPC   GL112301  22.393   9.172   9.175
  565POPC   GL212302  22.302   8.795   9.087
  565POPC   C1A12303  22.340   9.166   8.711
  565POPC   D2A12304  22.091   9.126   8.310
  565POPC   C3A12305  22.167   8.961   7.868
  565POPC   C4A12306  22.140   8.986   7.420
  565POPC   C1B12307  22.354   8.671   8.644
  565POPC   C2B12308  22.510   8.840   8.212
  565POPC   C3B12309  22.609   8.762   7.730
  565POPC   C4B12310  22.500   8.665   7.286
  566POPC   NC312311   6.548   3.615   9.591
  566POPC   PO412312   6.656   3.029   9.379
  566POPC   GL112313   6.892   3.391   9.208
  566POPC   GL212314   6.692   3.672   9.113
  566POPC   C1A12315   6.937   3.382   8.753
  566POPC   D2A12316   6.625   3.155   8.477
  566POPC   C3A12317   6.615   3.262   8.044
  566POPC   C4A12318   6.764   3.595   7.831
  566POPC   C1B12319   6.444   3.596   8.737
  566POPC   C2B12320   6.485   3.675   8.301
  566POPC   C3B12321   6.269   3.730   7.893
  566POPC   C4B12322   6.193   3.866   7.444
  567POPC   NC312323  37.192  24.843   9.530
  567POPC   PO412324  37.394  25.444   9.558
  567POPC   GL112325  36.958  25.456   9.352
  567POPC   GL212326  36.825  25.117   9.275
  567POPC   C1A12327  36.800  25.498   8.926
  567POPC   D2A12328  36.900  25.596   8.491
  567POPC   C3A12329  36.648  25.472   8.172
  567POPC   C4A12330  36.724  25.340   7.785
  567POPC   C1B12331  36.989  25.004   8.840
  567POPC   C2B12332  36.948  25.082   8.401
  567POPC   C3B12333  36.991  24.963   7.992
  567POPC   C4B12334  37.209  25.115   7.640
  568POPC   NC312335  44.127  25.821   9.653
  568POPC   PO412336  43.714  26.316   9.890
  568POPC   GL112337  43.792  26.144   9.399
  568POPC   GL212338  44.138  26.070   9.202
  568POPC   C1A12339  43.727  26.160   8.893
  568POPC   D2A12340  43.875  26.162   8.456
  568POPC   C3A12341  43.676  25.986   8.099
  568POPC   C4A12342  43.732  26.206   7.701
  568POPC   C1B12343  44.135  25.842   8.773
  568POPC   C2B12344  44.007  25.672   8.339
  568POPC   C3B12345  44.113  25.813   7.906
  568POPC   C4B12346  44.197  26.078   7.534
  569POPC   NC312347  38.087  31.788   9.319
  569POPC   PO412348  37.641  32.074   9.749
  569POPC   GL112349  37.718  32.195   9.311
  569POPC   GL212350  37.513  32.005   9.103
  569POPC   C1A12351  37.768  32.422   8.901
  569POPC   D2A12352  38.025  32.364   8.510
  569POPC   C3A12353  37.903  32.514   8.086
  569POPC   C4A12354  37.675  32.341   7.745
  569POPC   C1B12355  37.682  31.985   8.636
  569POPC   C2B12356  37.645  32.075   8.215
  569POPC   C3B12357  37.458  31.899   7.867
  569POPC   C4B12358  37.506  31.939   7.420
  570POPC   NC312359  42.419  15.168   9.578
  570POPC   PO412360  42.286  15.767   9.532
  570POPC   GL112361  42.281  15.504   9.191
  570POPC   GL212362  42.570  15.350   9.096
  570POPC   C1A12363  42.159  15.576   8.756
  570POPC   D2A12364  42.211  15.676   8.304
  570POPC   C3A12365  42.206  15.352   7.954
  570POPC   C4A12366  42.020  15.030   7.637
  570POPC   C1B12367  42.625  15.428   8.640
  570POPC   C2B12368  42.677  15.509   8.191
  570POPC   C3B12369  42.735  15.287   7.824
  570POPC   C4B12370  42.703  14.962   7.501
  571POPC   NC312371  36.614  22.792   9.547
  571POPC   PO412372  37.297  22.671   9.411
  571POPC   GL112373  36.962  22.862   9.165
  571POPC   GL212374  36.695  22.628   9.080
  571POPC   C1A12375  36.997  23.145   8.825
  571POPC   D2A12376  36.827  23.124   8.415
  571POPC   C3A12377  36.944  22.782   8.160
  571POPC   C4A12378  37.047  23.136   7.867
  571POPC   C1B12379  36.942  22.666   8.685
  571POPC   C2B12380  37.329  22.560   8.515
  571POPC   C3B12381  37.388  22.366   8.130
  571POPC   C4B12382  37.153  22.457   7.733
  572POPC   NC312383  32.652   2.820   9.564
  572POPC   PO412384  33.264   2.511   9.734
  572POPC   GL112385  33.124   2.804   9.356
  572POPC   GL212386  33.349   2.810   9.062
  572POPC   C1A12387  32.878   2.937   8.951
  572POPC   D2A12388  32.694   2.760   8.596
  572POPC   C3A12389  32.773   2.585   8.202
  572POPC   C4A12390  32.953   2.750   7.824
  572POPC   C1B12391  33.203   2.643   8.641
  572POPC   C2B12392  33.236   2.351   8.285
  572POPC   C3B12393  33.409   2.411   7.872
  572POPC   C4B12394  33.496   2.494   7.413
  573POPC   NC312395  19.750   9.117   9.609
  573POPC   PO412396  20.294   8.677   9.558
  573POPC   GL112397  19.981   8.812   9.242
  573POPC   GL212398  19.584   8.792   9.234
  573POPC   C1A12399  19.867   8.963   8.826
  573POPC   D2A12400  19.600   9.060   8.455
  573POPC   C3A12401  19.802   8.898   8.073
  573POPC   C4A12402  19.791   8.872   7.649
  573POPC   C1B12403  19.404   8.701   8.804
  573POPC   C2B12404  19.552   8.559   8.390
  573POPC   C3B12405  19.435   8.513   7.934
  573POPC   C4B12406  19.297   8.769   7.557
  574POPC   NC312407  22.784  15.253   9.429
  574POPC   PO412408  23.384  15.470   9.346
  574POPC   GL112409  23.161  15.072   9.129
  574POPC   GL212410  22.836  15.086   8.944
  574POPC   C1A12411  23.257  14.811   8.792
  574POPC   D2A12412  23.086  14.974   8.417
  574POPC   C3A12413  23.143  15.085   8.012
  574POPC   C4A12414  23.202  15.452   7.728
  574POPC   C1B12415  22.613  14.995   8.560
  574POPC   C2B12416  22.691  15.274   8.193
  574POPC   C3B12417  22.732  15.272   7.735
  574POPC   C4B12418  22.776  14.967   7.436
  575POPC   NC312419  17.754   8.752   9.506
  575POPC   PO412420  18.342   9.105   9.535
  575POPC   GL112421  18.386   9.033   9.127
  575POPC   GL212422  18.514   9.370   9.076
  575POPC   C1A12423  18.471   8.974   8.712
  575POPC   D2A12424  18.243   9.021   8.373
  575POPC   C3A12425  18.524   9.014   8.051
  575POPC   C4A12426  18.462   8.695   7.734
  575POPC   C1B12427  18.179   9.396   8.767
  575POPC   C2B12428  18.016   9.500   8.337
  575POPC   C3B12429  18.061   9.286   7.964
  575POPC   C4B12430  18.304   9.162   7.629
  576POPC   NC312431  38.597  13.849   9.586
  576POPC   PO412432  38.019  13.549   9.440
  576POPC   GL112433  38.405  13.515   9.193
  576POPC   GL212434  38.419  13.865   9.121
  576POPC   C1A12435  38.676  13.576   8.789
  576POPC   D2A12436  38.808  13.562   8.333
  576POPC   C3A12437  38.591  13.340   7.966
  576POPC   C4A12438  38.520  13.394   7.508
  576POPC   C1B12439  38.187  13.764   8.739
  576POPC   C2B12440  38.275  13.619   8.309
  576POPC   C3B12441  38.238  13.681   7.853
  576POPC   C4B12442  37.912  13.588   7.548
  577POPC   NC312443  17.026   8.712   9.403
  577POPC   PO412444  17.209   8.056   9.244
  577POPC   GL112445  16.844   8.231   9.119
  577POPC   GL212446  16.686   7.950   9.055
  577POPC   C1A12447  16.863   8.295   8.672
  577POPC   D2A12448  17.022   8.482   8.284
  577POPC   C3A12449  16.977   8.251   7.888
  577POPC   C4A12450  16.806   8.143   7.505
  577POPC   C1B12451  16.381   8.219   8.790
  577POPC   C2B12452  16.267   8.324   8.367
  577POPC   C3B12453  16.440   8.183   7.965
  577POPC   C4B12454  16.383   8.413   7.574
  578POPC   NC312455   3.333  14.839   9.489
  578POPC   PO412456   3.780  14.321   9.525
  578POPC   GL112457   3.562  14.257   9.151
  578POPC   GL212458   3.547  14.609   9.062
  578POPC   C1A12459   3.472  14.050   8.753
  578POPC   D2A12460   3.311  14.148   8.338
  578POPC   C3A12461   3.518  14.249   7.955
  578POPC   C4A12462   3.670  14.603   7.757
  578POPC   C1B12463   3.655  14.521   8.638
  578POPC   C2B12464   3.560  14.687   8.260
  578POPC   C3B12465   3.216  14.682   7.986
  578POPC   C4B12466   3.233  14.855   7.602
  579POPC   NC312467   7.535  37.276   9.424
  579POPC   PO412468   7.369  37.916   9.383
  579POPC   GL112469   7.496  37.876   9.000
  579POPC   GL212470   7.435  37.544   8.998
  579POPC   C1A12471   7.620  38.122   8.669
  579POPC   D2A12472   7.790  38.021   8.326
  579POPC   C3A12473   7.480  37.867   8.081
  579POPC   C4A12474   7.592  37.586   7.786
  579POPC   C1B12475   7.596  37.573   8.583
  579POPC   C2B12476   7.473  37.341   8.242
  579POPC   C3B12477   7.320  37.165   7.856
  579POPC   C4B12478   7.466  37.288   7.394
  580POPC   NC312479  28.236  31.419   9.872
  580POPC   PO412480  27.572  31.460   9.587
  580POPC   GL112481  27.359  31.366   9.254
  580POPC   GL212482  27.648  31.367   9.085
  580POPC   C1A12483  27.167  31.466   8.856
  580POPC   D2A12484  27.342  31.370   8.465
  580POPC   C3A12485  27.185  31.427   8.086
  580POPC   C4A12486  27.434  31.491   7.730
  580POPC   C1B12487  27.747  31.195   8.748
  580POPC   C2B12488  27.919  31.349   8.403
  580POPC   C3B12489  27.776  31.251   8.035
  580POPC   C4B12490  27.957  31.289   7.635
  581POPC   NC312491  27.682  44.395   9.470
  581POPC   PO412492  27.670   0.091   9.649
  581POPC   GL112493  27.543  44.893   9.214
  581POPC   GL212494  27.798  44.691   9.023
  581POPC   C1A12495  27.338  44.865   8.795
  581POPC   D2A12496  27.493  44.637   8.450
  581POPC   C3A12497  27.247  44.449   8.134
  581POPC   C4A12498  27.437  44.570   7.745
  581POPC   C1B12499  27.648  44.311   8.805
  581POPC   C2B12500  27.547  44.119   8.403
  581POPC   C3B12501  27.621  44.136   7.956
  581POPC   C4B12502  27.709  44.256   7.489
  582POPC   NC312503  10.412  42.023   9.577
  582POPC   PO412504  10.747  42.690   9.610
  582POPC   GL112505  10.634  42.381   9.206
  582POPC   GL212506  10.286  42.293   9.147
  582POPC   C1A12507  10.731  42.103   8.761
  582POPC   D2A12508  10.628  41.873   8.367
  582POPC   C3A12509  10.526  42.063   7.969
  582POPC   C4A12510  10.430  42.512   7.775
  582POPC   C1B12511  10.305  42.384   8.711
  582POPC   C2B12512  10.321  42.397   8.278
  582POPC   C3B12513  10.061  42.223   7.917
  582POPC   C4B12514  10.166  42.192   7.453
  583POPC   NC312515  42.819  40.152   9.409
  583POPC   PO412516  43.381  39.878   9.603
  583POPC   GL112517  43.264  40.124   9.118
  583POPC   GL212518  43.370  40.478   9.008
  583POPC   C1A12519  43.427  40.155   8.633
  583POPC   D2A12520  43.537  39.837   8.329
  583POPC   C3A12521  43.186  39.894   8.122
  583POPC   C4A12522  42.939  39.916   7.801
  583POPC   C1B12523  42.951  40.328   8.771
  583POPC   C2B12524  42.716  40.193   8.379
  583POPC   C3B12525  42.808  40.367   7.978
  583POPC   C4B12526  43.197  40.545   7.825
  584POPC   NC312527  41.032  16.143   9.517
  584POPC   PO412528  40.302  15.982   9.380
  584POPC   GL112529  40.656  16.058   9.162
  584POPC   GL212530  40.887  15.785   9.177
  584POPC   C1A12531  40.885  16.171   8.807
  584POPC   D2A12532  40.883  15.946   8.396
  584POPC   C3A12533  40.929  16.178   7.986
  584POPC   C4A12534  40.844  16.271   7.536
  584POPC   C1B12535  40.618  15.680   8.806
  584POPC   C2B12536  40.465  15.651   8.366
  584POPC   C3B12537  40.709  15.640   8.001
  584POPC   C4B12538  40.955  15.761   7.685
  585POPC   NC312539  27.755  40.418   9.511
  585POPC   PO412540  27.290  39.989   9.521
  585POPC   GL112541  27.537  39.963   9.167
  585POPC   GL212542  27.895  40.060   9.155
  585POPC   C1A12543  27.419  40.021   8.754
  585POPC   D2A12544  27.276  40.146   8.368
  585POPC   C3A12545  27.369  39.907   8.001
  585POPC   C4A12546  27.486  40.013   7.590
  585POPC   C1B12547  27.901  40.207   8.714
  585POPC   C2B12548  27.786  40.053   8.299
  585POPC   C3B12549  27.913  40.052   7.864
  585POPC   C4B12550  27.884  39.715   7.541
  586POPC   NC312551  37.422  27.404   9.500
  586POPC   PO412552  37.919  27.855   9.457
  586POPC   GL112553  37.681  27.772   9.106
  586POPC   GL212554  37.763  27.435   9.083
  586POPC   C1A12555  37.830  27.750   8.656
  586POPC   D2A12556  37.737  27.541   8.279
  586POPC   C3A12557  37.825  27.683   7.859
  586POPC   C4A12558  37.808  27.606   7.389
  586POPC   C1B12559  37.410  27.475   8.797
  586POPC   C2B12560  37.330  27.284   8.403
  586POPC   C3B12561  37.478  27.192   8.000
  586POPC   C4B12562  37.264  27.084   7.650
  587POPC   NC312563  36.938  35.221   9.420
  587POPC   PO412564  36.276  34.972   9.535
  587POPC   GL112565  36.553  35.098   9.135
  587POPC   GL212566  36.511  35.426   9.171
  587POPC   C1A12567  36.888  35.373   8.812
  587POPC   D2A12568  37.111  35.521   8.446
  587POPC   C3A12569  36.882  35.378   8.094
  587POPC   C4A12570  36.920  35.234   7.673
  587POPC   C1B12571  36.406  35.462   8.703
  587POPC   C2B12572  36.635  35.749   8.452
  587POPC   C3B12573  36.916  35.893   8.111
  587POPC   C4B12574  36.753  35.720   7.733
  588POPC   NC312575  35.021  18.135   9.394
  588POPC   PO412576  35.585  18.541   9.423
  588POPC   GL112577  35.662  18.326   9.079
  588POPC   GL212578  35.603  17.973   9.159
  588POPC   C1A12579  35.741  18.479   8.673
  588POPC   D2A12580  35.651  18.360   8.280
  588POPC   C3A12581  35.707  18.491   7.877
  588POPC   C4A12582  35.470  18.408   7.516
  588POPC   C1B12583  35.270  17.934   8.822
  588POPC   C2B12584  35.169  18.132   8.420
  588POPC   C3B12585  35.234  18.252   7.988
  588POPC   C4B12586  34.903  18.485   7.784
  589POPC   NC312587   2.101  23.218   9.812
  589POPC   PO412588   2.557  22.863   9.572
  589POPC   GL112589   2.694  22.764   9.116
  589POPC   GL212590   2.865  23.037   8.983
  589POPC   C1A12591   2.554  22.693   8.680
  589POPC   D2A12592   2.779  22.597   8.279
  589POPC   C3A12593   2.626  22.753   7.870
  589POPC   C4A12594   2.399  22.819   7.440
  589POPC   C1B12595   3.058  22.738   8.701
  589POPC   C2B12596   3.263  22.800   8.325
  589POPC   C3B12597   3.133  22.903   7.936
  589POPC   C4B12598   3.142  22.583   7.686
  590POPC   NC312599  25.825  44.339   9.591
  590POPC   PO412600  26.337  44.726   9.497
  590POPC   GL112601  26.115  44.601   9.171
  590POPC   GL212602  25.991  44.949   9.138
  590POPC   C1A12603  26.221  44.405   8.767
  590POPC   D2A12604  26.323  44.563   8.338
  590POPC   C3A12605  26.154  44.391   7.942
  590POPC   C4A12606  26.239  44.302   7.473
  590POPC   C1B12607  26.088  44.890   8.681
  590POPC   C2B12608  26.035  44.988   8.244
  590POPC   C3B12609  25.768  44.873   7.928
  590POPC   C4B12610  25.871  44.636   7.578
  591POPC   NC312611  11.150  20.631   9.596
  591POPC   PO412612  11.462  20.050   9.391
  591POPC   GL112613  11.175  20.352   9.176
  591POPC   GL212614  11.221  20.773   9.133
  591POPC   C1A12615  11.052  20.468   8.783
  591POPC   D2A12616  11.031  20.628   8.414
  591POPC   C3A12617  11.318  20.472   8.177
  591POPC   C4A12618  11.237  20.597   7.802
  591POPC   C1B12619  11.433  20.982   8.810
  591POPC   C2B12620  11.425  20.992   8.369
  591POPC   C3B12621  11.494  20.990   7.931
  591POPC   C4B12622  11.340  20.912   7.430
  592POPC   NC312623  34.317  19.838   9.737
  592POPC   PO412624  33.603  19.804   9.928
  592POPC   GL112625  33.824  19.890   9.456
  592POPC   GL212626  34.119  19.713   9.280
  592POPC   C1A12627  33.890  20.078   8.995
  592POPC   D2A12628  34.010  20.031   8.529
  592POPC   C3A12629  33.753  20.039   8.152
  592POPC   C4A12630  33.878  19.992   7.722
  592POPC   C1B12631  33.983  19.587   8.858
  592POPC   C2B12632  34.010  19.454   8.416
  592POPC   C3B12633  33.930  19.538   7.974
  592POPC   C4B12634  34.259  19.671   7.649
  593POPC   NC312635  11.167  37.965   9.523
  593POPC   PO412636  10.987  38.673   9.607
  593POPC   GL112637  11.113  38.389   9.235
  593POPC   GL212638  10.898  38.123   9.107
  593POPC   C1A12639  11.414  38.270   8.924
  593POPC   D2A12640  11.611  38.538   8.650
  593POPC   C3A12641  11.566  38.476   8.232
  593POPC   C4A12642  11.375  38.604   7.869
  593POPC   C1B12643  10.954  38.338   8.684
  593POPC   C2B12644  11.044  38.369   8.216
  593POPC   C3B12645  11.011  38.247   7.734
  593POPC   C4B12646  11.134  38.052   7.283
  594POPC   NC312647  36.373  13.549   9.426
  594POPC   PO412648  35.920  13.887   9.721
  594POPC   GL112649  35.919  13.660   9.235
  594POPC   GL212650  35.818  13.297   9.188
  594POPC   C1A12651  36.192  13.598   8.791
  594POPC   D2A12652  36.395  13.615   8.367
  594POPC   C3A12653  36.263  13.887   8.042
  594POPC   C4A12654  36.505  14.076   7.748
  594POPC   C1B12655  35.697  13.530   8.792
  594POPC   C2B12656  35.892  13.574   8.374
  594POPC   C3B12657  36.098  13.396   8.012
  594POPC   C4B12658  35.968  13.468   7.609
  595POPC   NC312659  25.048   8.820   9.275
  595POPC   PO412660  25.674   8.954   9.548
  595POPC   GL112661  25.476   9.086   9.123
  595POPC   GL212662  25.128   9.277   9.070
  595POPC   C1A12663  25.425   9.222   8.676
  595POPC   D2A12664  25.190   9.317   8.304
  595POPC   C3A12665  25.384   9.240   7.898
  595POPC   C4A12666  25.516   9.199   7.457
  595POPC   C1B12667  24.954   9.063   8.704
  595POPC   C2B12668  24.958   8.837   8.351
  595POPC   C3B12669  24.922   8.983   7.968
  595POPC   C4B12670  25.034   9.082   7.570
  596POPC   NC312671   9.963  35.902   9.523
  596POPC   PO412672   9.287  36.002   9.629
  596POPC   GL112673   9.613  36.100   9.207
  596POPC   GL212674   9.927  36.317   9.246
  596POPC   C1A12675   9.673  36.382   8.808
  596POPC   D2A12676   9.763  36.625   8.407
  596POPC   C3A12677   9.775  36.363   8.043
  596POPC   C4A12678   9.635  36.006   7.794
  596POPC   C1B12679  10.112  36.128   8.886
  596POPC   C2B12680  10.065  36.207   8.454
  596POPC   C3B12681  10.020  35.919   8.120
  596POPC   C4B12682  10.132  35.807   7.701
  597POPC   NC312683   4.761  37.089   9.595
  597POPC   PO412684   4.184  36.879   9.556
  597POPC   GL112685   4.388  36.778   9.234
  597POPC   GL212686   4.486  37.130   9.172
  597POPC   C1A12687   4.351  36.805   8.793
  597POPC   D2A12688   4.084  36.981   8.455
  597POPC   C3A12689   4.272  36.994   8.055
  597POPC   C4A12690   4.130  36.854   7.677
  597POPC   C1B12691   4.219  37.305   8.870
  597POPC   C2B12692   4.190  37.501   8.472
  597POPC   C3B12693   4.351  37.508   8.066
  597POPC   C4B12694   4.329  37.317   7.664
  598POPC   NC312695   2.979   8.625   9.650
  598POPC   PO412696   2.791   9.188   9.504
  598POPC   GL112697   2.827   8.866   9.203
  598POPC   GL212698   3.174   8.743   9.185
  598POPC   C1A12699   2.668   8.955   8.784
  598POPC   D2A12700   2.784   9.121   8.385
  598POPC   C3A12701   2.511   9.125   8.032
  598POPC   C4A12702   2.657   8.993   7.656
  598POPC   C1B12703   3.175   8.843   8.767
  598POPC   C2B12704   2.937   8.637   8.444
  598POPC   C3B12705   2.902   8.745   8.029
  598POPC   C4B12706   3.026   8.646   7.622
  599POPC   NC312707  39.963   8.339   9.595
  599POPC   PO412708  39.682   7.828   9.290
  599POPC   GL112709  40.012   8.045   9.131
  599POPC   GL212710  40.077   8.429   9.119
  599POPC   C1A12711  40.145   8.130   8.720
  599POPC   D2A12712  40.168   7.943   8.334
  599POPC   C3A12713  40.258   8.228   7.997
  599POPC   C4A12714  40.332   7.980   7.650
  599POPC   C1B12715  39.868   8.567   8.732
  599POPC   C2B12716  39.871   8.368   8.337
  599POPC   C3B12717  39.785   8.037   8.023
  599POPC   C4B12718  39.817   8.124   7.609
  600POPC   NC312719  35.537  42.666   9.528
  600POPC   PO412720  35.124  42.055   9.454
  600POPC   GL112721  35.156  42.219   9.107
  600POPC   GL212722  35.494  42.291   9.165
  600POPC   C1A12723  35.214  42.346   8.719
  600POPC   D2A12724  35.188  42.596   8.397
  600POPC   C3A12725  35.136  42.297   8.132
  600POPC   C4A12726  35.200  42.282   7.712
  600POPC   C1B12727  35.684  42.523   8.842
  600POPC   C2B12728  35.696  42.481   8.384
  600POPC   C3B12729  35.506  42.649   7.991
  600POPC   C4B12730  35.532  42.646   7.550
  601POPC   NC312731  30.181  10.696   9.594
  601POPC   PO412732  29.562  10.456   9.558
  601POPC   GL112733  29.895  10.435   9.223
  601POPC   GL212734  30.231  10.588   9.107
  601POPC   C1A12735  29.923  10.324   8.788
  601POPC   D2A12736  29.989  10.298   8.345
  601POPC   C3A12737  29.924  10.698   8.115
  601POPC   C4A12738  29.911  10.704   7.674
  601POPC   C1B12739  30.461  10.687   8.725
  601POPC   C2B12740  30.413  10.595   8.286
  601POPC   C3B12741  30.382  10.667   7.854
  601POPC   C4B12742  30.388  10.732   7.410
  602POPC   NC312743  41.583  27.654   9.476
  602POPC   PO412744  41.306  28.017   9.045
  602POPC   GL112745  41.544  27.710   8.924
  602POPC   GL212746  41.510  27.381   9.051
  602POPC   C1A12747  41.543  27.733   8.496
  602POPC   D2A12748  41.669  27.899   8.133
  602POPC   C3A12749  41.596  27.513   7.983
  602POPC   C4A12750  41.557  27.492   7.598
  602POPC   C1B12751  41.212  27.362   8.683
  602POPC   C2B12752  41.160  27.280   8.222
  602POPC   C3B12753  41.125  27.184   7.760
  602POPC   C4B12754  41.149  27.365   7.319
  603POPC   NC312755  12.087   5.200   9.716
  603POPC   PO412756  11.857   4.892   9.469
  603POPC   GL112757  11.888   5.181   9.126
  603POPC   GL212758  12.198   5.343   9.213
  603POPC   C1A12759  11.859   5.179   8.649
  603POPC   D2A12760  12.157   5.044   8.309
  603POPC   C3A12761  12.013   4.959   7.883
  603POPC   C4A12762  11.807   4.822   7.491
  603POPC   C1B12763  12.336   5.317   8.768
  603POPC   C2B12764  12.148   5.543   8.394
  603POPC   C3B12765  12.137   5.478   7.925
  603POPC   C4B12766  12.235   5.240   7.516
  604POPC   NC312767  11.867  31.868   9.452
  604POPC   PO412768  12.241  31.292   9.372
  604POPC   GL112769  11.887  31.259   9.069
  604POPC   GL212770  11.907  31.622   8.963
  604POPC   C1A12771  11.806  31.265   8.602
  604POPC   D2A12772  11.988  31.589   8.333
  604POPC   C3A12773  12.080  31.479   7.916
  604POPC   C4A12774  11.820  31.512   7.524
  604POPC   C1B12775  12.279  31.418   8.734
  604POPC   C2B12776  12.356  31.219   8.347
  604POPC   C3B12777  12.371  31.003   7.972
  604POPC   C4B12778  12.440  31.147   7.606
  605POPC   NC312779  35.855  16.499   9.399
  605POPC   PO412780  36.220  17.097   9.634
  605POPC   GL112781  36.190  16.889   9.220
  605POPC   GL212782  35.833  16.916   9.135
  605POPC   C1A12783  36.354  16.603   8.873
  605POPC   D2A12784  36.607  16.619   8.452
  605POPC   C3A12785  36.424  16.570   8.048
  605POPC   C4A12786  36.237  16.862   7.776
  605POPC   C1B12787  35.855  16.641   8.768
  605POPC   C2B12788  36.080  16.624   8.414
  605POPC   C3B12789  35.855  16.621   8.025
  605POPC   C4B12790  35.554  16.655   7.704
  606POPC   NC312791   2.632   3.817   9.703
  606POPC   PO412792   3.047   3.536   9.223
  606POPC   GL112793   2.657   3.599   8.948
  606POPC   GL212794   2.583   3.280   8.844
  606POPC   C1A12795   2.547   3.685   8.507
  606POPC   D2A12796   2.808   3.577   8.150
  606POPC   C3A12797   2.729   3.643   7.745
  606POPC   C4A12798   2.509   3.860   7.445
  606POPC   C1B12799   2.984   3.385   8.608
  606POPC   C2B12800   3.161   3.214   8.269
  606POPC   C3B12801   3.161   3.370   7.833
  606POPC   C4B12802   3.046   3.422   7.402
  607POPC   NC312803  34.049  10.360   9.768
  607POPC   PO412804  33.642  10.699   9.371
  607POPC   GL112805  33.956  10.419   9.234
  607POPC   GL212806  33.734  10.364   9.003
  607POPC   C1A12807  34.202  10.313   8.825
  607POPC   D2A12808  34.377  10.553   8.464
  607POPC   C3A12809  34.196  10.523   8.046
  607POPC   C4A12810  33.805  10.330   7.933
  607POPC   C1B12811  33.509  10.578   8.728
  607POPC   C2B12812  33.517  10.334   8.382
  607POPC   C3B12813  33.399  10.600   8.110
  607POPC   C4B12814  33.391  10.619   7.730
  608POPC   NC312815  18.707  43.387   9.636
  608POPC   PO412816  19.258  43.062   9.672
  608POPC   GL112817  19.066  43.052   9.205
  608POPC   GL212818  19.201  42.781   9.149
  608POPC   C1A12819  18.979  43.213   8.756
  608POPC   D2A12820  19.146  43.163   8.309
  608POPC   C3A12821  18.880  43.316   7.967
  608POPC   C4A12822  19.025  43.450   7.554
  608POPC   C1B12823  19.353  42.865   8.770
  608POPC   C2B12824  19.260  42.665   8.391
  608POPC   C3B12825  19.414  42.766   8.000
  608POPC   C4B12826  19.318  43.101   7.778
  609POPC   NC312827  30.705   0.257   9.584
  609POPC   PO412828  30.382   0.780   9.327
  609POPC   GL112829  30.613   0.468   9.092
  609POPC   GL212830  30.927   0.288   9.132
  609POPC   C1A12831  30.612   0.418   8.638
  609POPC   D2A12832  30.630   0.753   8.337
  609POPC   C3A12833  30.914   0.729   7.993
  609POPC   C4A12834  30.729   0.527   7.666
  609POPC   C1B12835  31.053   0.597   8.820
  609POPC   C2B12836  31.066   0.458   8.401
  609POPC   C3B12837  30.975   0.226   8.003
  609POPC   C4B12838  31.089   0.190   7.523
  610POPC   NC312839  14.039  20.735   9.616
  610POPC   PO412840  14.603  20.559   9.464
  610POPC   GL112841  14.231  20.634   9.153
  610POPC   GL212842  14.122  20.996   9.119
  610POPC   C1A12843  14.136  20.625   8.692
  610POPC   D2A12844  14.374  20.424   8.331
  610POPC   C3A12845  14.244  20.520   7.917
  610POPC   C4A12846  14.149  20.926   7.760
  610POPC   C1B12847  14.542  20.921   8.869
  610POPC   C2B12848  14.724  20.793   8.469
  610POPC   C3B12849  14.610  20.903   8.042
  610POPC   C4B12850  14.654  21.006   7.597
  611POPC   NC312851  12.639  25.045   9.485
  611POPC   PO412852  13.276  25.101   9.457
  611POPC   GL112853  13.123  24.982   9.064
  611POPC   GL212854  12.896  24.707   9.145
  611POPC   C1A12855  13.130  25.009   8.601
  611POPC   D2A12856  12.794  25.066   8.284
  611POPC   C3A12857  13.001  25.117   7.911
  611POPC   C4A12858  13.121  25.455   7.677
  611POPC   C1B12859  12.746  24.711   8.719
  611POPC   C2B12860  12.876  24.566   8.294
  611POPC   C3B12861  12.683  24.719   7.891
  611POPC   C4B12862  12.494  25.119   7.825
  612POPC   NC312863   2.655   5.689   9.765
  612POPC   PO412864   2.321   6.128   9.346
  612POPC   GL112865   2.566   5.909   8.988
  612POPC   GL212866   2.935   5.881   8.963
  612POPC   C1A12867   2.665   5.740   8.573
  612POPC   D2A12868   2.714   5.921   8.242
  612POPC   C3A12869   2.737   5.885   7.875
  612POPC   C4A12870   3.019   6.122   7.662
  612POPC   C1B12871   3.117   5.508   8.791
  612POPC   C2B12872   3.019   5.331   8.400
  612POPC   C3B12873   3.081   5.553   8.027
  612POPC   C4B12874   3.046   5.612   7.564
  613POPC   NC312875  13.986  35.249   9.323
  613POPC   PO412876  13.439  35.363   9.592
  613POPC   GL112877  13.483  35.471   9.175
  613POPC   GL212878  13.794  35.607   9.024
  613POPC   C1A12879  13.193  35.381   8.837
  613POPC   D2A12880  13.206  35.171   8.453
  613POPC   C3A12881  13.331  35.373   8.091
  613POPC   C4A12882  13.457  35.268   7.724
  613POPC   C1B12883  13.695  35.270   8.734
  613POPC   C2B12884  13.702  35.106   8.333
  613POPC   C3B12885  13.895  35.062   7.970
  613POPC   C4B12886  13.949  35.378   7.710
  614POPC   NC312887  18.202  13.928   9.383
  614POPC   PO412888  18.394  13.204   9.514
  614POPC   GL112889  18.481  13.488   9.178
  614POPC   GL212890  18.211  13.653   8.970
  614POPC   C1A12891  18.605  13.385   8.753
  614POPC   D2A12892  18.312  13.483   8.424
  614POPC   C3A12893  18.472  13.398   8.035
  614POPC   C4A12894  18.501  13.601   7.647
  614POPC   C1B12895  18.034  13.873   8.650
  614POPC   C2B12896  18.185  13.950   8.244
  614POPC   C3B12897  18.090  13.771   7.868
  614POPC   C4B12898  17.943  14.092   7.629
  615POPC   NC312899  28.234  19.715   9.602
  615POPC   PO412900  28.826  19.687   9.679
  615POPC   GL112901  28.631  19.716   9.254
  615POPC   GL212902  28.429  20.010   9.182
  615POPC   C1A12903  28.499  19.675   8.787
  615POPC   D2A12904  28.394  19.818   8.338
  615POPC   C3A12905  28.512  19.568   7.948
  615POPC   C4A12906  28.587  19.282   7.594
  615POPC   C1B12907  28.490  20.199   8.741
  615POPC   C2B12908  28.500  20.328   8.284
  615POPC   C3B12909  28.504  20.102   7.885
  615POPC   C4B12910  28.696  20.243   7.516
  616POPC   NC312911   2.309  31.978   9.261
  616POPC   PO412912   1.626  32.090   9.473
  616POPC   GL112913   1.944  32.325   9.150
  616POPC   GL212914   1.984  32.091   8.861
  616POPC   C1A12915   2.290  32.451   8.775
  616POPC   D2A12916   2.299  32.195   8.399
  616POPC   C3A12917   1.993  32.315   8.096
  616POPC   C4A12918   2.030  32.636   7.800
  616POPC   C1B12919   2.012  31.722   8.580
  616POPC   C2B12920   1.652  31.676   8.314
  616POPC   C3B12921   1.791  31.866   7.997
  616POPC   C4B12922   2.241  31.907   7.904
  617POPC   NC312923  11.242  15.541   9.208
  617POPC   PO412924  11.236  14.924   9.570
  617POPC   GL112925  11.277  15.030   9.147
  617POPC   GL212926  10.984  15.155   8.988
  617POPC   C1A12927  11.409  15.088   8.694
  617POPC   D2A12928  11.233  15.047   8.288
  617POPC   C3A12929  11.501  14.987   7.935
  617POPC   C4A12930  11.710  14.776   7.602
  617POPC   C1B12931  10.798  14.943   8.633
  617POPC   C2B12932  10.770  14.847   8.173
  617POPC   C3B12933  10.994  14.983   7.819
  617POPC   C4B12934  11.268  15.035   7.459
  618POPC   NC312935   9.725   0.521   9.471
  618POPC   PO412936   9.749  44.820   9.580
  618POPC   GL112937   9.819   0.149   9.146
  618POPC   GL212938  10.049   0.473   9.044
  618POPC   C1A12939   9.682   0.366   8.715
  618POPC   D2A12940   9.517   0.312   8.276
  618POPC   C3A12941   9.755   0.166   7.900
  618POPC   C4A12942   9.867  44.981   7.497
  618POPC   C1B12943  10.179   0.515   8.606
  618POPC   C2B12944  10.021   0.823   8.288
  618POPC   C3B12945   9.714   0.688   7.984
  618POPC   C4B12946   9.351   0.502   7.815
  619POPC   NC312947  42.017  32.769   9.529
  619POPC   PO412948  41.498  33.211   9.447
  619POPC   GL112949  41.357  32.913   9.095
  619POPC   GL212950  41.157  33.147   8.924
  619POPC   C1A12951  41.470  32.780   8.648
  619POPC   D2A12952  41.521  33.105   8.311
  619POPC   C3A12953  41.455  33.000   7.894
  619POPC   C4A12954  41.678  32.687   7.663
  619POPC   C1B12955  41.632  33.252   8.799
  619POPC   C2B12956  41.928  33.386   8.456
  619POPC   C3B12957  41.800  33.448   8.020
  619POPC   C4B12958  41.941  33.419   7.612
  620POPC   NC312959  43.014  18.524   9.446
  620POPC   PO412960  43.292  18.026   9.709
  620POPC   GL112961  43.367  18.168   9.269
  620POPC   GL212962  43.296  17.953   9.037
  620POPC   C1A12963  43.294  18.453   8.899
  620POPC   D2A12964  43.021  18.571   8.520
  620POPC   C3A12965  43.098  18.353   8.151
  620POPC   C4A12966  43.260  18.482   7.796
  620POPC   C1B12967  42.940  18.133   8.787
  620POPC   C2B12968  42.638  18.072   8.481
  620POPC   C3B12969  42.700  17.984   8.031
  620POPC   C4B12970  43.017  18.052   7.687
  621POPC   NC312971   2.094   1.718   9.754
  621POPC   PO412972   1.898   2.270   9.455
  621POPC   GL112973   2.048   2.035   9.102
  621POPC   GL212974   2.298   1.859   9.002
  621POPC   C1A12975   1.858   1.863   8.709
  621POPC   D2A12976   1.719   1.759   8.274
  621POPC   C3A12977   1.917   2.074   8.018
  621POPC   C4A12978   2.343   2.217   7.911
  621POPC   C1B12979   2.250   1.518   8.691
  621POPC   C2B12980   2.211   1.420   8.226
  621POPC   C3B12981   2.140   1.665   7.864
  621POPC   C4B12982   1.714   1.708   7.719
  622POPC   NC312983  39.989  37.708   9.685
  622POPC   PO412984  40.026  37.233   9.279
  622POPC   GL112985  40.133  37.653   9.154
  622POPC   GL212986  39.812  37.716   9.172
  622POPC   C1A12987  40.322  37.822   8.785
  622POPC   D2A12988  40.220  37.604   8.370
  622POPC   C3A12989  40.164  37.821   7.958
  622POPC   C4A12990  40.058  37.678   7.529
  622POPC   C1B12991  39.833  37.662   8.711
  622POPC   C2B12992  39.610  37.956   8.421
  622POPC   C3B12993  39.598  38.114   7.977
  622POPC   C4B12994  39.393  38.290   7.579
  623POPC   NC312995  26.706   9.573   9.329
  623POPC   PO412996  26.661   8.995   9.700
  623POPC   GL112997  26.661   8.831   9.196
  623POPC   GL212998  26.484   9.105   9.175
  623POPC   C1A12999  26.764   8.955   8.752
  623POPC   D2A13000  26.935   9.247   8.471
  623POPC   C3A13001  26.846   9.110   8.046
  623POPC   C4A13002  26.874   8.858   7.659
  623POPC   C1B13003  26.395   9.324   8.816
  623POPC   C2B13004  26.416   9.196   8.429
  623POPC   C3B13005  26.298   9.279   8.049
  623POPC   C4B13006  26.499   9.209   7.673
  624POPC   NC313007  35.345  14.831   9.387
  624POPC   PO413008  35.805  15.343   9.417
  624POPC   GL113009  35.511  15.218   9.076
  624POPC   GL213010  35.494  15.553   8.998
  624POPC   C1A13011  35.352  14.925   8.757
  624POPC   D2A13012  35.063  14.941   8.428
  624POPC   C3A13013  35.252  14.843   8.027
  624POPC   C4A13014  35.119  14.932   7.620
  624POPC   C1B13015  35.247  15.421   8.665
  624POPC   C2B13016  35.382  15.294   8.279
  624POPC   C3B13017  35.192  15.352   7.914
  624POPC   C4B13018  35.297  15.487   7.536
  625POPC   NC313019  42.526  24.694   9.481
  625POPC   PO413020  41.834  24.754   9.499
  625POPC   GL113021  42.117  24.632   9.172
  625POPC   GL213022  42.153  24.307   9.108
  625POPC   C1A13023  42.396  24.610   8.783
  625POPC   D2A13024  42.537  24.757   8.377
  625POPC   C3A13025  42.517  24.523   7.987
  625POPC   C4A13026  42.535  24.700   7.581
  625POPC   C1B13027  41.938  24.378   8.752
  625POPC   C2B13028  42.162  24.349   8.372
  625POPC   C3B13029  42.046  24.224   7.995
  625POPC   C4B13030  42.236  24.241   7.634
  626POPC   NC313031  44.271  22.093   9.729
  626POPC   PO413032  43.610  22.030   9.675
  626POPC   GL113033  43.703  21.983   9.221
  626POPC   GL213034  43.565  22.314   9.240
  626POPC   C1A13035  43.753  22.149   8.785
  626POPC   D2A13036  43.986  22.356   8.457
  626POPC   C3A13037  43.866  22.219   8.060
  626POPC   C4A13038  43.475  22.057   7.904
  626POPC   C1B13039  43.436  22.552   8.916
  626POPC   C2B13040  43.520  22.552   8.478
  626POPC   C3B13041  43.482  22.571   8.037
  626POPC   C4B13042  43.675  22.517   7.644
  627POPC   NC313043  39.038   8.714   9.530
  627POPC   PO413044  39.215   9.349   9.520
  627POPC   GL113045  39.286   9.084   9.155
  627POPC   GL213046  38.967   9.000   9.112
  627POPC   C1A13047  39.246   9.163   8.669
  627POPC   D2A13048  39.275   9.177   8.162
  627POPC   C3A13049  39.449   9.006   7.752
  627POPC   C4A13050  39.607   9.273   7.383
  627POPC   C1B13051  38.986   8.730   8.785
  627POPC   C2B13052  39.300   8.679   8.476
  627POPC   C3B13053  39.122   8.659   8.091
  627POPC   C4B13054  39.007   8.729   7.683
  628POPC   NC313055   0.045   7.936   9.366
  628POPC   PO413056   0.401   8.380   9.719
  628POPC   GL113057   0.532   8.410   9.218
  628POPC   GL213058   0.505   8.058   9.129
  628POPC   C1A13059   0.633   8.410   8.756
  628POPC   D2A13060   0.427   8.366   8.324
  628POPC   C3A13061   0.415   8.264   7.852
  628POPC   C4A13062   0.227   8.368   7.422
  628POPC   C1B13063   0.523   7.909   8.686
  628POPC   C2B13064   0.346   7.839   8.268
  628POPC   C3B13065   0.156   7.805   7.854
  628POPC   C4B13066   0.345   7.860   7.414
  629POPC   NC313067  27.635   2.719   9.549
  629POPC   PO413068  27.701   3.160   9.083
  629POPC   GL113069  27.675   2.728   9.042
  629POPC   GL213070  27.976   2.637   9.184
  629POPC   C1A13071  27.547   2.512   8.674
  629POPC   D2A13072  27.357   2.700   8.274
  629POPC   C3A13073  27.450   2.870   7.835
  629POPC   C4A13074  27.536   2.625   7.476
  629POPC   C1B13075  28.056   2.579   8.748
  629POPC   C2B13076  27.880   2.784   8.390
  629POPC   C3B13077  27.853   2.620   7.994
  629POPC   C4B13078  27.978   2.808   7.626
  630POPC   NC313079  27.573   7.165   9.541
  630POPC   PO413080  27.246   7.787   9.421
  630POPC   GL113081  27.502   7.466   9.123
  630POPC   GL213082  27.763   7.171   9.075
  630POPC   C1A13083  27.436   7.324   8.696
  630POPC   D2A13084  27.453   7.718   8.472
  630POPC   C3A13085  27.530   7.748   8.051
  630POPC   C4A13086  27.389   7.495   7.729
  630POPC   C1B13087  27.925   7.432   8.711
  630POPC   C2B13088  27.936   7.536   8.291
  630POPC   C3B13089  27.842   7.292   7.908
  630POPC   C4B13090  27.786   7.295   7.449
  631POPC   NC313091  33.920  32.358   9.653
  631POPC   PO413092  34.323  31.920   9.396
  631POPC   GL113093  33.978  32.108   9.173
  631POPC   GL213094  33.895  32.456   9.155
  631POPC   C1A13095  34.014  32.212   8.728
  631POPC   D2A13096  33.696  32.139   8.411
  631POPC   C3A13097  33.786  32.259   8.008
  631POPC   C4A13098  33.862  31.972   7.695
  631POPC   C1B13099  33.574  32.457   8.804
  631POPC   C2B13100  33.490  32.602   8.359
  631POPC   C3B13101  33.560  32.705   7.917
  631POPC   C4B13102  33.595  32.395   7.538
  632POPC   NC313103  32.678  35.423   9.500
  632POPC   PO413104  32.048  35.260   9.496
  632POPC   GL113105  32.253  35.204   9.133
  632POPC   GL213106  32.436  35.513   9.073
  632POPC   C1A13107  32.428  35.051   8.762
  632POPC   D2A13108  32.209  35.173   8.406
  632POPC   C3A13109  32.299  35.271   8.011
  632POPC   C4A13110  32.038  35.268   7.641
  632POPC   C1B13111  32.331  35.585   8.671
  632POPC   C2B13112  32.560  35.777   8.331
  632POPC   C3B13113  32.452  35.748   7.912
  632POPC   C4B13114  32.499  35.462   7.578
  633POPC   NC313115   7.617  21.177   9.357
  633POPC   PO413116   7.086  21.571   9.483
  633POPC   GL113117   7.415  21.587   9.123
  633POPC   GL213118   7.793  21.662   9.207
  633POPC   C1A13119   7.548  21.369   8.739
  633POPC   D2A13120   7.686  21.137   8.367
  633POPC   C3A13121   7.376  21.118   8.024
  633POPC   C4A13122   7.207  21.486   7.837
  633POPC   C1B13123   7.959  21.643   8.778
  633POPC   C2B13124   7.719  21.662   8.367
  633POPC   C3B13125   7.742  21.455   7.975
  633POPC   C4B13126   7.648  21.548   7.558
  634POPC   NC313127   7.627  36.665   9.773
  634POPC   PO413128   7.088  36.972   9.561
  634POPC   GL113129   7.157  37.068   9.133
  634POPC   GL213130   7.306  36.772   9.002
  634POPC   C1A13131   7.210  37.197   8.704
  634POPC   D2A13132   7.081  37.014   8.337
  634POPC   C3A13133   7.351  36.680   8.226
  634POPC   C4A13134   7.560  36.722   7.844
  634POPC   C1B13135   7.628  36.859   8.665
  634POPC   C2B13136   7.869  36.761   8.287
  634POPC   C3B13137   8.062  36.650   7.882
  634POPC   C4B13138   7.872  36.446   7.523
  635POPC   NC313139  44.427  44.948   9.593
  635POPC   PO413140   0.100  44.789   9.621
  635POPC   GL113141  44.838  44.712   9.259
  635POPC   GL213142  44.585  44.928   9.122
  635POPC   C1A13143  44.852  44.488   8.847
  635POPC   D2A13144   0.050  44.374   8.453
  635POPC   C3A13145  44.836  44.456   8.107
  635POPC   C4A13146  44.990  44.429   7.712
  635POPC   C1B13147  44.499  44.878   8.698
  635POPC   C2B13148  44.450   0.121   8.326
  635POPC   C3B13149  44.306   0.005   7.947
  635POPC   C4B13150  44.470  44.639   7.796
  636POPC   NC313151  40.926  28.017   9.327
  636POPC   PO413152  40.632  28.685   9.303
  636POPC   GL113153  40.781  28.482   9.014
  636POPC   GL213154  40.994  28.770   8.867
  636POPC   C1A13155  40.522  28.198   8.739
  636POPC   D2A13156  40.374  28.070   8.338
  636POPC   C3A13157  40.533  28.316   8.004
  636POPC   C4A13158  40.641  28.190   7.606
  636POPC   C1B13159  40.972  28.415   8.564
  636POPC   C2B13160  40.945  28.058   8.296
  636POPC   C3B13161  41.058  28.201   7.891
  636POPC   C4B13162  40.899  28.605   7.738
  637POPC   NC313163  26.595  33.495   9.555
  637POPC   PO413164  27.065  33.983   9.356
  637POPC   GL113165  26.868  33.655   9.132
  637POPC   GL213166  26.568  33.803   9.134
  637POPC   C1A13167  26.715  33.459   8.763
  637POPC   D2A13168  26.701  33.593   8.336
  637POPC   C3A13169  27.078  33.710   8.128
  637POPC   C4A13170  27.012  33.757   7.681
  637POPC   C1B13171  26.765  33.972   8.747
  637POPC   C2B13172  26.863  34.112   8.348
  637POPC   C3B13173  26.711  34.060   7.951
  637POPC   C4B13174  26.789  34.342   7.610
  638POPC   NC313175  42.635   0.035   9.248
  638POPC   PO413176  42.652  44.455   9.507
  638POPC   GL113177  42.418  44.581   9.138
  638POPC   GL213178  42.138  44.795   9.240
  638POPC   C1A13179  42.499  44.609   8.690
  638POPC   D2A13180  42.599  44.663   8.255
  638POPC   C3A13181  42.277  44.546   7.951
  638POPC   C4A13182  42.301  44.564   7.491
  638POPC   C1B13183  42.092  44.915   8.816
  638POPC   C2B13184  42.111  44.840   8.372
  638POPC   C3B13185  42.219   0.064   7.992
  638POPC   C4B13186  42.080   0.326   7.646
  639POPC   NC313187  42.558  34.396   9.698
  639POPC   PO413188  43.167  34.649   9.515
  639POPC   GL113189  43.088  34.383   9.188
  639POPC   GL213190  43.434  34.286   9.259
  639POPC   C1A13191  43.008  34.621   8.796
  639POPC   D2A13192  42.891  34.942   8.504
  639POPC   C3A13193  42.865  34.760   8.112
  639POPC   C4A13194  43.002  34.598   7.749
  639POPC   C1B13195  43.509  34.472   8.905
  639POPC   C2B13196  43.454  34.514   8.493
  639POPC   C3B13197  43.363  34.573   8.095
  639POPC   C4B13198  43.435  34.314   7.742
  640POPC   NC313199  16.962  27.143   9.494
  640POPC   PO413200  16.534  27.659   9.466
  640POPC   GL113201  16.633  27.544   9.076
  640POPC   GL213202  16.927  27.367   9.029
  640POPC   C1A13203  16.742  27.915   8.806
  640POPC   D2A13204  16.963  28.014   8.393
  640POPC   C3A13205  16.809  27.868   7.979
  640POPC   C4A13206  16.768  27.761   7.542
  640POPC   C1B13207  16.879  27.498   8.591
  640POPC   C2B13208  16.677  27.406   8.222
  640POPC   C3B13209  16.838  27.270   7.855
  640POPC   C4B13210  16.987  27.314   7.465
  641POPC   NC313211  41.687  26.052   9.569
  641POPC   PO413212  41.024  26.089   9.650
  641POPC   GL113213  41.235  25.947   9.215
  641POPC   GL213214  41.611  25.881   9.117
  641POPC   C1A13215  41.307  26.093   8.789
  641POPC   D2A13216  41.550  26.103   8.409
  641POPC   C3A13217  41.295  25.982   8.096
  641POPC   C4A13218  41.224  26.159   7.721
  641POPC   C1B13219  41.769  25.811   8.756
  641POPC   C2B13220  41.478  25.603   8.500
  641POPC   C3B13221  41.676  25.640   8.134
  641POPC   C4B13222  41.841  26.009   7.945
  642POPC   NC313223  21.671  18.823   9.382
  642POPC   PO413224  22.093  19.068   9.855
  642POPC   GL113225  22.180  19.022   9.358
  642POPC   GL213226  21.935  19.208   9.140
  642POPC   C1A13227  22.308  19.007   8.853
  642POPC   D2A13228  22.170  18.883   8.395
  642POPC   C3A13229  22.264  19.123   7.980
  642POPC   C4A13230  22.303  19.322   7.545
  642POPC   C1B13231  21.867  19.215   8.662
  642POPC   C2B13232  21.792  19.168   8.190
  642POPC   C3B13233  21.811  19.308   7.741
  642POPC   C4B13234  21.850  19.459   7.284
  643POPC   NC313235   6.774  30.098   9.672
  643POPC   PO413236   7.013  29.572   9.489
  643POPC   GL113237   6.859  29.940   9.189
  643POPC   GL213238   7.107  30.211   9.263
  643POPC   C1A13239   6.497  30.032   8.859
  643POPC   D2A13240   6.540  29.918   8.402
  643POPC   C3A13241   6.270  29.957   8.040
  643POPC   C4A13242   6.466  30.208   7.785
  643POPC   C1B13243   7.240  30.068   8.812
  643POPC   C2B13244   7.255  30.120   8.328
  643POPC   C3B13245   7.101  30.035   7.883
  643POPC   C4B13246   6.729  29.778   7.789
  644POPC   NC313247  34.864  36.159   9.438
  644POPC   PO413248  34.231  36.346   9.575
  644POPC   GL113249  34.197  36.233   9.171
  644POPC   GL213250  34.242  35.857   9.121
  644POPC   C1A13251  34.291  36.562   8.876
  644POPC   D2A13252  34.408  36.659   8.479
  644POPC   C3A13253  34.330  36.340   8.194
  644POPC   C4A13254  34.589  36.356   7.856
  644POPC   C1B13255  34.376  36.074   8.732
  644POPC   C2B13256  34.732  36.204   8.503
  644POPC   C3B13257  34.775  35.968   8.128
  644POPC   C4B13258  34.585  35.883   7.701
  645POPC   NC313259  12.388  22.625   9.749
  645POPC   PO413260  12.971  22.614   9.380
  645POPC   GL113261  12.716  22.930   9.210
  645POPC   GL213262  12.975  22.939   8.960
  645POPC   C1A13263  12.505  22.981   8.812
  645POPC   D2A13264  12.603  22.723   8.467
  645POPC   C3A13265  12.636  23.013   8.126
  645POPC   C4A13266  12.384  23.092   7.768
  645POPC   C1B13267  13.050  22.992   8.489
  645POPC   C2B13268  13.376  23.154   8.202
  645POPC   C3B13269  13.339  23.130   7.766
  645POPC   C4B13270  12.897  22.976   7.666
  646POPC   NC313271  33.570  23.305   9.502
  646POPC   PO413272  33.577  22.716   9.703
  646POPC   GL113273  33.703  22.697   9.230
  646POPC   GL213274  33.537  22.940   9.134
  646POPC   C1A13275  33.909  22.775   8.800
  646POPC   D2A13276  33.768  22.962   8.365
  646POPC   C3A13277  33.992  22.927   7.958
  646POPC   C4A13278  33.918  22.708   7.569
  646POPC   C1B13279  33.422  22.818   8.711
  646POPC   C2B13280  33.383  22.598   8.341
  646POPC   C3B13281  33.582  22.639   7.991
  646POPC   C4B13282  33.485  22.930   7.736
  647POPC   NC313283  33.359  44.089   9.343
  647POPC   PO413284  32.770  43.793   9.493
  647POPC   GL113285  32.899  43.935   9.146
  647POPC   GL213286  32.849  44.267   9.208
  647POPC   C1A13287  33.075  43.766   8.769
  647POPC   D2A13288  33.272  43.561   8.421
  647POPC   C3A13289  33.077  43.732   8.057
  647POPC   C4A13290  32.812  43.705   7.691
  647POPC   C1B13291  33.029  44.284   8.792
  647POPC   C2B13292  33.141  44.135   8.399
  647POPC   C3B13293  32.992  44.251   8.004
  647POPC   C4B13294  33.194  44.045   7.665
  648POPC   NC313295   7.124  32.529   9.435
  648POPC   PO413296   7.557  33.069   9.599
  648POPC   GL113297   7.625  32.966   9.184
  648POPC   GL213298   7.297  32.909   9.122
  648POPC   C1A13299   7.557  33.189   8.770
  648POPC   D2A13300   7.810  33.242   8.388
  648POPC   C3A13301   7.549  33.054   8.080
  648POPC   C4A13302   7.472  33.203   7.686
  648POPC   C1B13303   7.130  32.903   8.714
  648POPC   C2B13304   7.025  33.222   8.406
  648POPC   C3B13305   7.043  33.197   7.992
  648POPC   C4B13306   7.104  32.853   7.797
  649POPC   NC313307   5.810  11.853   9.370
  649POPC   PO413308   5.903  11.240   9.535
  649POPC   GL113309   6.008  11.373   9.137
  649POPC   GL213310   6.271  11.592   9.125
  649POPC   C1A13311   5.869  11.260   8.732
  649POPC   D2A13312   5.690  11.302   8.339
  649POPC   C3A13313   5.922  11.212   7.986
  649POPC   C4A13314   5.785  11.237   7.559
  649POPC   C1B13315   6.250  11.616   8.669
  649POPC   C2B13316   6.028  11.698   8.281
  649POPC   C3B13317   5.858  11.694   7.848
  649POPC   C4B13318   6.193  11.568   7.590
  650POPC   NC313319  16.363  42.451   9.470
  650POPC   PO413320  15.737  42.213   9.397
  650POPC   GL113321  16.020  42.259   9.125
  650POPC   GL213322  15.896  42.496   8.964
  650POPC   C1A13323  16.050  42.100   8.708
  650POPC   D2A13324  15.786  42.198   8.356
  650POPC   C3A13325  15.918  42.175   8.003
  650POPC   C4A13326  15.806  42.303   7.659
  650POPC   C1B13327  15.900  42.633   8.591
  650POPC   C2B13328  16.173  42.843   8.339
  650POPC   C3B13329  15.942  42.964   8.010
  650POPC   C4B13330  15.849  42.802   7.642
  651POPC   NC313331  28.832  22.644   9.664
  651POPC   PO413332  29.307  22.195   9.549
  651POPC   GL113333  29.073  22.083   9.222
  651POPC   GL213334  28.998  22.417   9.204
  651POPC   C1A13335  29.172  22.034   8.799
  651POPC   D2A13336  29.323  22.204   8.394
  651POPC   C3A13337  29.227  21.957   8.030
  651POPC   C4A13338  29.148  22.150   7.650
  651POPC   C1B13339  29.036  22.520   8.804
  651POPC   C2B13340  28.981  22.626   8.419
  651POPC   C3B13341  29.088  22.520   8.030
  651POPC   C4B13342  28.813  22.549   7.680
  652POPC   NC313343  24.327  31.581   9.676
  652POPC   PO413344  24.938  31.318   9.750
  652POPC   GL113345  24.734  31.547   9.295
  652POPC   GL213346  24.363  31.547   9.182
  652POPC   C1A13347  24.664  31.323   8.842
  652POPC   D2A13348  24.712  31.131   8.469
  652POPC   C3A13349  24.749  31.351   8.126
  652POPC   C4A13350  24.683  31.348   7.727
  652POPC   C1B13351  24.169  31.419   8.828
  652POPC   C2B13352  24.174  31.283   8.422
  652POPC   C3B13353  24.244  31.450   7.996
  652POPC   C4B13354  24.255  31.552   7.539
  653POPC   NC313355  28.597  39.859   9.698
  653POPC   PO413356  28.210  40.370   9.618
  653POPC   GL113357  28.368  40.292   9.195
  653POPC   GL213358  28.423  39.944   9.199
  653POPC   C1A13359  28.425  40.253   8.756
  653POPC   D2A13360  28.298  40.029   8.373
  653POPC   C3A13361  28.503  40.197   8.034
  653POPC   C4A13362  28.265  40.403   7.764
  653POPC   C1B13363  28.227  39.778   8.821
  653POPC   C2B13364  28.050  39.587   8.422
  653POPC   C3B13365  28.137  39.629   7.986
  653POPC   C4B13366  28.363  39.886   7.636
  654POPC   NC313367  11.660  12.311   9.530
  654POPC   PO413368  11.013  11.993   9.503
  654POPC   GL113369  11.218  12.298   9.211
  654POPC   GL213370  10.892  12.392   9.066
  654POPC   C1A13371  11.408  12.410   8.836
  654POPC   D2A13372  11.267  12.392   8.398
  654POPC   C3A13373  11.466  12.260   7.985
  654POPC   C4A13374  11.591  11.885   7.713
  654POPC   C1B13375  11.038  12.050   8.780
  654POPC   C2B13376  11.005  11.854   8.361
  654POPC   C3B13377  11.134  11.834   7.957
  654POPC   C4B13378  11.091  12.109   7.650
  655POPC   NC313379  44.496  35.700   9.344
  655POPC   PO413380  44.482  36.414   9.398
  655POPC   GL113381  44.676  36.202   9.039
  655POPC   GL213382  44.748  35.824   8.942
  655POPC   C1A13383  44.865  36.240   8.629
  655POPC   D2A13384   0.058  36.222   8.202
  655POPC   C3A13385  44.807  36.351   7.854
  655POPC   C4A13386  44.536  36.507   7.469
  655POPC   C1B13387  44.435  35.942   8.663
  655POPC   C2B13388  44.586  36.015   8.255
  655POPC   C3B13389  44.747  35.811   7.901
  655POPC   C4B13390  44.665  36.007   7.514
  656POPC   NC313391  44.518  18.661   9.430
  656POPC   PO413392  44.678  18.023   9.845
  656POPC   GL113393  44.773  18.195   9.404
  656POPC   GL213394  44.667  17.984   9.156
  656POPC   C1A13395  44.891  18.380   8.954
  656POPC   D2A13396  44.915  18.215   8.511
  656POPC   C3A13397  44.920  18.497   8.142
  656POPC   C4A13398  44.649  18.465   7.772
  656POPC   C1B13399  44.459  17.897   8.750
  656POPC   C2B13400  44.333  17.865   8.324
  656POPC   C3B13401  44.649  18.038   8.065
  656POPC   C4B13402  44.578  17.933   7.685
  657POPC   NC313403  39.566   1.241   9.534
  657POPC   PO413404  39.106   0.922   9.639
  657POPC   GL113405  39.295   0.982   9.180
  657POPC   GL213406  39.210   1.300   9.023
  657POPC   C1A13407  39.648   1.095   8.847
  657POPC   D2A13408  39.722   1.279   8.412
  657POPC   C3A13409  39.414   1.344   8.079
  657POPC   C4A13410  39.451   0.989   7.845
  657POPC   C1B13411  39.214   1.141   8.567
  657POPC   C2B13412  39.039   0.991   8.157
  657POPC   C3B13413  38.969   1.172   7.747
  657POPC   C4B13414  38.722   1.304   7.402
  658POPC   NC313415  10.448  39.608   9.226
  658POPC   PO413416  10.401  40.291   9.388
  658POPC   GL113417  10.637  40.072   9.070
  658POPC   GL213418  10.920  39.821   9.094
  658POPC   C1A13419  10.539  40.169   8.639
  658POPC   D2A13420  10.556  40.460   8.310
  658POPC   C3A13421  10.424  40.276   7.932
  658POPC   C4A13422  10.188  39.908   7.719
  658POPC   C1B13423  10.792  39.729   8.686
  658POPC   C2B13424  10.469  39.610   8.394
  658POPC   C3B13425  10.603  39.786   8.015
  658POPC   C4B13426  10.980  39.774   7.782
  659POPC   NC313427  30.103   1.094   9.531
  659POPC   PO413428  29.538   1.307   9.229
  659POPC   GL113429  29.930   1.232   9.057
  659POPC   GL213430  29.979   0.885   9.027
  659POPC   C1A13431  29.906   1.240   8.616
  659POPC   D2A13432  29.815   1.476   8.261
  659POPC   C3A13433  29.738   1.216   7.908
  659POPC   C4A13434  29.525   1.163   7.509
  659POPC   C1B13435  30.253   0.879   8.657
  659POPC   C2B13436  30.144   0.918   8.182
  659POPC   C3B13437  30.276   0.767   7.769
  659POPC   C4B13438  30.364   0.609   7.314
  660POPC   NC313439  31.972  12.185   9.563
  660POPC   PO413440  32.558  11.781   9.581
  660POPC   GL113441  32.358  11.960   9.237
  660POPC   GL213442  32.439  12.328   9.276
  660POPC   C1A13443  32.204  11.814   8.827
  660POPC   D2A13444  32.009  11.758   8.448
  660POPC   C3A13445  32.187  11.830   8.074
  660POPC   C4A13446  32.276  12.098   7.734
  660POPC   C1B13447  32.196  12.333   8.879
  660POPC   C2B13448  31.941  12.255   8.492
  660POPC   C3B13449  32.005  12.307   8.110
  660POPC   C4B13450  31.792  12.235   7.716
  661POPC   NC313451  31.991   2.535   9.407
  661POPC   PO413452  32.308   3.139   9.469
  661POPC   GL113453  32.111   2.949   9.132
  661POPC   GL213454  32.401   2.748   9.114
  661POPC   C1A13455  32.026   2.695   8.750
  661POPC   D2A13456  32.234   2.756   8.386
  661POPC   C3A13457  32.034   2.697   8.045
  661POPC   C4A13458  32.125   2.555   7.633
  661POPC   C1B13459  32.442   2.423   8.854
  661POPC   C2B13460  32.408   2.303   8.446
  661POPC   C3B13461  32.369   2.295   8.015
  661POPC   C4B13462  32.603   2.373   7.644
  662POPC   NC313463  18.366  32.515   9.586
  662POPC   PO413464  18.536  33.161   9.755
  662POPC   GL113465  18.307  32.959   9.326
  662POPC   GL213466  18.468  32.678   9.106
  662POPC   C1A13467  18.272  33.103   8.869
  662POPC   D2A13468  18.586  33.153   8.495
  662POPC   C3A13469  18.482  33.239   8.053
  662POPC   C4A13470  18.193  33.203   7.699
  662POPC   C1B13471  18.480  32.678   8.674
  662POPC   C2B13472  18.101  32.813   8.484
  662POPC   C3B13473  18.014  32.933   8.091
  662POPC   C4B13474  18.376  32.772   7.857
  663POPC   NC313475  26.608  38.813   9.535
  663POPC   PO413476  26.839  39.463   9.527
  663POPC   GL113477  26.928  39.299   9.126
  663POPC   GL213478  26.666  39.084   9.106
  663POPC   C1A13479  26.827  39.360   8.674
  663POPC   D2A13480  26.588  39.501   8.298
  663POPC   C3A13481  26.829  39.303   7.973
  663POPC   C4A13482  27.105  38.923   7.893
  663POPC   C1B13483  26.721  38.856   8.727
  663POPC   C2B13484  26.776  38.888   8.287
  663POPC   C3B13485  26.594  38.871   7.857
  663POPC   C4B13486  26.451  38.718   7.471
  664POPC   NC313487  18.865  44.113   9.499
  664POPC   PO413488  19.118  43.493   9.415
  664POPC   GL113489  18.826  43.706   9.140
  664POPC   GL213490  18.950  44.038   9.013
  664POPC   C1A13491  18.758  43.716   8.679
  664POPC   D2A13492  18.981  43.744   8.291
  664POPC   C3A13493  18.879  43.827   7.858
  664POPC   C4A13494  18.652  43.829   7.443
  664POPC   C1B13495  19.311  44.135   8.736
  664POPC   C2B13496  19.377  44.094   8.308
  664POPC   C3B13497  19.197  44.356   8.004
  664POPC   C4B13498  18.980  44.274   7.656
  665POPC   NC313499   8.010  33.012   9.641
  665POPC   PO413500   8.481  32.637   9.889
  665POPC   GL113501   8.471  32.997   9.422
  665POPC   GL213502   8.170  32.955   9.186
  665POPC   C1A13503   8.571  33.087   8.932
  665POPC   D2A13504   8.419  33.209   8.463
  665POPC   C3A13505   8.236  33.077   8.054
  665POPC   C4A13506   8.502  32.960   7.713
  665POPC   C1B13507   8.057  33.106   8.821
  665POPC   C2B13508   8.083  32.804   8.480
  665POPC   C3B13509   7.898  32.666   8.087
  665POPC   C4B13510   7.867  32.859   7.675
  666POPC   NC313511   7.735  35.625   9.525
  666POPC   PO413512   7.569  34.959   9.440
  666POPC   GL113513   7.457  35.163   9.044
  666POPC   GL213514   7.498  35.506   9.096
  666POPC   C1A13515   7.303  35.167   8.616
  666POPC   D2A13516   6.984  34.978   8.398
  666POPC   C3A13517   7.122  34.882   7.972
  666POPC   C4A13518   7.443  35.208   7.858
  666POPC   C1B13519   7.688  35.500   8.722
  666POPC   C2B13520   7.489  35.512   8.304
  666POPC   C3B13521   7.590  35.708   7.971
  666POPC   C4B13522   7.714  35.540   7.557
  667POPC   NC313523   5.177   1.442   9.564
  667POPC   PO413524   4.556   1.286   9.566
  667POPC   GL113525   4.838   1.138   9.209
  667POPC   GL213526   5.137   0.975   9.352
  667POPC   C1A13527   4.894   1.216   8.738
  667POPC   D2A13528   5.078   1.503   8.427
  667POPC   C3A13529   4.896   1.570   8.025
  667POPC   C4A13530   4.659   1.283   7.816
  667POPC   C1B13531   5.354   1.161   8.959
  667POPC   C2B13532   5.394   1.103   8.495
  667POPC   C3B13533   5.399   1.284   8.072
  667POPC   C4B13534   5.158   1.159   7.705
  668POPC   NC313535  29.044   8.641   9.535
  668POPC   PO413536  28.849   9.201   9.254
  668POPC   GL113537  29.055   8.862   9.048
  668POPC   GL213538  29.330   8.611   9.075
  668POPC   C1A13539  29.110   8.963   8.625
  668POPC   D2A13540  29.321   9.141   8.278
  668POPC   C3A13541  29.028   9.223   7.951
  668POPC   C4A13542  28.802   9.631   7.927
  668POPC   C1B13543  29.233   8.478   8.709
  668POPC   C2B13544  29.387   8.625   8.338
  668POPC   C3B13545  29.219   8.736   7.960
  668POPC   C4B13546  29.290   8.568   7.597
  669POPC   NC313547  33.349  19.669   9.552
  669POPC   PO413548  32.685  19.712   9.523
  669POPC   GL113549  32.900  19.873   9.187
  669POPC   GL213550  33.190  20.069   9.259
  669POPC   C1A13551  32.788  19.894   8.761
  669POPC   D2A13552  33.010  19.883   8.345
  669POPC   C3A13553  33.209  20.086   8.013
  669POPC   C4A13554  32.982  19.965   7.689
  669POPC   C1B13555  33.443  19.838   8.945
  669POPC   C2B13556  33.586  19.734   8.537
  669POPC   C3B13557  33.438  19.645   8.126
  669POPC   C4B13558  33.456  19.732   7.689
  670POPC   NC313559  17.897  25.336   9.523
  670POPC   PO413560  18.368  24.936   9.711
  670POPC   GL113561  18.382  25.316   9.377
  670POPC   GL213562  18.380  25.116   9.139
  670POPC   C1A13563  18.259  25.530   8.918
  670POPC   D2A13564  18.368  25.420   8.504
  670POPC   C3A13565  18.167  25.461   8.119
  670POPC   C4A13566  18.330  25.437   7.708
  670POPC   C1B13567  18.669  25.131   8.827
  670POPC   C2B13568  18.724  25.061   8.402
  670POPC   C3B13569  18.495  25.073   8.023
  670POPC   C4B13570  18.344  24.924   7.618
  671POPC   NC313571  28.628   4.045   9.373
  671POPC   PO413572  28.195   4.428   9.855
  671POPC   GL113573  28.342   4.497   9.383
  671POPC   GL213574  28.153   4.240   9.273
  671POPC   C1A13575  28.439   4.506   8.894
  671POPC   D2A13576  28.387   4.339   8.445
  671POPC   C3A13577  28.516   4.348   8.000
  671POPC   C4A13578  28.501   3.991   7.695
  671POPC   C1B13579  27.957   4.597   9.030
  671POPC   C2B13580  28.004   4.662   8.570
  671POPC   C3B13581  27.997   4.559   8.137
  671POPC   C4B13582  28.189   4.657   7.739
  672POPC   NC313583  40.791   6.070   9.476
  672POPC   PO413584  40.887   5.388   9.522
  672POPC   GL113585  40.574   5.624   9.230
  672POPC   GL213586  40.461   5.984   9.109
  672POPC   C1A13587  40.771   5.731   8.816
  672POPC   D2A13588  40.780   5.897   8.413
  672POPC   C3A13589  40.815   5.700   8.013
  672POPC   C4A13590  41.096   5.784   7.663
  672POPC   C1B13591  40.545   6.247   8.717
  672POPC   C2B13592  40.494   6.301   8.269
  672POPC   C3B13593  40.417   6.063   7.887
  672POPC   C4B13594  40.617   5.878   7.535
  673POPC   NC313595  23.001  21.937   9.214
  673POPC   PO413596  22.613  22.285   9.632
  673POPC   GL113597  22.769  22.420   9.207
  673POPC   GL213598  23.041  22.622   9.143
  673POPC   C1A13599  22.665  22.360   8.749
  673POPC   D2A13600  22.632  22.173   8.318
  673POPC   C3A13601  22.862  22.072   7.923
  673POPC   C4A13602  22.701  22.131   7.473
  673POPC   C1B13603  23.152  22.493   8.696
  673POPC   C2B13604  23.122  22.328   8.324
  673POPC   C3B13605  23.294  22.376   7.951
  673POPC   C4B13606  23.138  22.331   7.566
  674POPC   NC313607  44.584  32.833   9.706
  674POPC   PO413608  44.980  33.083   9.183
  674POPC   GL113609  44.595  32.877   9.003
  674POPC   GL213610  44.383  32.696   9.241
  674POPC   C1A13611  44.609  32.802   8.562
  674POPC   D2A13612  44.775  33.164   8.336
  674POPC   C3A13613  44.904  33.143   7.920
  674POPC   C4A13614  44.927  32.951   7.551
  674POPC   C1B13615  44.138  32.667   8.864
  674POPC   C2B13616  44.122  32.848   8.437
  674POPC   C3B13617  44.399  32.932   8.057
  674POPC   C4B13618  44.476  32.755   7.665
  675POPC   NC313619   6.991   1.505   9.348
  675POPC   PO413620   7.548   1.453   9.710
  675POPC   GL113621   7.413   1.240   9.227
  675POPC   GL213622   7.124   1.029   9.155
  675POPC   C1A13623   7.299   1.411   8.758
  675POPC   D2A13624   7.255   1.508   8.288
  675POPC   C3A13625   7.668   1.451   8.057
  675POPC   C4A13626   7.801   1.220   7.687
  675POPC   C1B13627   7.279   0.909   8.765
  675POPC   C2B13628   7.492   1.071   8.389
  675POPC   C3B13629   7.333   1.055   7.961
  675POPC   C4B13630   7.447   0.877   7.561
  676POPC   NC313631  33.988  11.766   9.296
  676POPC   PO413632  33.906  11.186   9.777
  676POPC   GL113633  33.825  11.266   9.319
  676POPC   GL213634  34.006  11.025   9.164
  676POPC   C1A13635  33.693  11.399   8.859
  676POPC   D2A13636  33.881  11.597   8.462
  676POPC   C3A13637  33.796  11.339   8.103
  676POPC   C4A13638  33.962  11.383   7.682
  676POPC   C1B13639  33.999  10.787   8.780
  676POPC   C2B13640  33.847  10.736   8.350
  676POPC   C3B13641  33.804  10.857   7.916
  676POPC   C4B13642  33.511  11.124   7.736
  677POPC   NC313643  41.236  32.153   9.432
  677POPC   PO413644  41.880  32.303   9.582
  677POPC   GL113645  41.715  32.100   9.213
  677POPC   GL213646  41.530  32.417   9.098
  677POPC   C1A13647  41.800  32.163   8.773
  677POPC   D2A13648  41.626  32.302   8.407
  677POPC   C3A13649  41.767  32.085   8.070
  677POPC   C4A13650  41.728  32.175   7.700
  677POPC   C1B13651  41.242  32.295   8.742
  677POPC   C2B13652  41.124  32.479   8.311
  677POPC   C3B13653  41.260  32.503   7.868
  677POPC   C4B13654  41.195  32.734   7.440
  678POPC   NC313655  31.918  19.635   9.661
  678POPC   PO413656  31.322  20.051   9.460
  678POPC   GL113657  31.408  19.985   9.053
  678POPC   GL213658  31.576  19.675   9.094
  678POPC   C1A13659  31.446  20.218   8.689
  678POPC   D2A13660  31.636  20.156   8.283
  678POPC   C3A13661  31.312  20.074   7.984
  678POPC   C4A13662  31.226  19.683   7.780
  678POPC   C1B13663  31.698  19.772   8.651
  678POPC   C2B13664  31.634  19.665   8.165
  678POPC   C3B13665  31.714  19.516   7.743
  678POPC   C4B13666  31.699  19.733   7.343
  679POPC   NC313667  20.408  16.180   9.664
  679POPC   PO413668  20.864  15.690   9.581
  679POPC   GL113669  20.564  15.830   9.275
  679POPC   GL213670  20.681  16.141   9.203
  679POPC   C1A13671  20.396  15.868   8.866
  679POPC   D2A13672  20.541  16.029   8.466
  679POPC   C3A13673  20.329  15.992   8.079
  679POPC   C4A13674  20.522  15.821   7.709
  679POPC   C1B13675  20.889  16.209   8.796
  679POPC   C2B13676  20.919  16.336   8.327
  679POPC   C3B13677  20.714  16.315   7.918
  679POPC   C4B13678  20.802  16.175   7.518
  680POPC   NC313679  21.258  40.759   9.509
  680POPC   PO413680  21.578  41.229   9.319
  680POPC   GL113681  21.492  40.933   9.062
  680POPC   GL213682  21.618  40.612   9.175
  680POPC   C1A13683  21.548  41.056   8.657
  680POPC   D2A13684  21.392  41.210   8.313
  680POPC   C3A13685  21.318  40.985   7.971
  680POPC   C4A13686  21.464  40.819   7.593
  680POPC   C1B13687  21.624  40.553   8.739
  680POPC   C2B13688  21.432  40.648   8.352
  680POPC   C3B13689  21.387  40.466   7.957
  680POPC   C4B13690  21.674  40.356   7.685
  681POPC   NC313691   8.717  10.144  10.155
  681POPC   PO413692   8.926  10.520   9.700
  681POPC   GL113693   9.031  10.608   9.224
  681POPC   GL213694   8.872  10.890   9.064
  681POPC   C1A13695   9.055  10.569   8.723
  681POPC   D2A13696   8.846  10.388   8.343
  681POPC   C3A13697   8.905  10.454   7.894
  681POPC   C4A13698   9.065  10.244   7.513
  681POPC   C1B13699   9.141  11.080   8.696
  681POPC   C2B13700   9.289  10.874   8.276
  681POPC   C3B13701   9.355  10.674   7.848
  681POPC   C4B13702   9.074  10.764   7.505
  682POPC   NC313703  16.410  13.362   9.570
  682POPC   PO413704  16.924  13.763   9.496
  682POPC   GL113705  16.871  13.520   9.119
  682POPC   GL213706  16.548  13.298   9.081
  682POPC   C1A13707  16.942  13.793   8.774
  682POPC   D2A13708  16.730  13.945   8.404
  682POPC   C3A13709  16.757  13.719   8.020
  682POPC   C4A13710  16.990  13.821   7.671
  682POPC   C1B13711  16.678  13.370   8.648
  682POPC   C2B13712  16.686  13.232   8.212
  682POPC   C3B13713  16.450  13.335   7.835
  682POPC   C4B13714  16.380  13.338   7.370
  683POPC   NC313715   5.119  31.071   9.405
  683POPC   PO413716   4.856  30.503   9.656
  683POPC   GL113717   4.915  30.639   9.217
  683POPC   GL213718   4.677  30.926   9.150
  683POPC   C1A13719   5.101  30.619   8.780
  683POPC   D2A13720   5.136  30.416   8.368
  683POPC   C3A13721   5.160  30.634   7.979
  683POPC   C4A13722   5.200  31.071   7.857
  683POPC   C1B13723   4.908  31.085   8.775
  683POPC   C2B13724   5.004  30.938   8.354
  683POPC   C3B13725   4.722  30.899   7.984
  683POPC   C4B13726   4.693  30.917   7.516
  684POPC   NC313727  34.360  39.300   9.440
  684POPC   PO413728  34.983  39.036   9.447
  684POPC   GL113729  34.751  39.185   9.111
  684POPC   GL213730  34.480  38.968   9.057
  684POPC   C1A13731  34.589  39.433   8.777
  684POPC   D2A13732  34.437  39.268   8.400
  684POPC   C3A13733  34.544  39.467   8.013
  684POPC   C4A13734  34.619  39.271   7.590
  684POPC   C1B13735  34.173  38.937   8.734
  684POPC   C2B13736  33.980  38.994   8.355
  684POPC   C3B13737  34.200  39.084   7.963
  684POPC   C4B13738  34.430  38.828   7.683
  685POPC   NC313739  27.244  28.295   9.456
  685POPC   PO413740  27.761  28.728   9.563
  685POPC   GL113741  27.693  28.567   9.144
  685POPC   GL213742  27.357  28.584   9.066
  685POPC   C1A13743  27.708  28.421   8.714
  685POPC   D2A13744  27.794  28.444   8.302
  685POPC   C3A13745  27.632  28.419   7.949
  685POPC   C4A13746  27.761  28.466   7.544
  685POPC   C1B13747  27.218  28.308   8.746
  685POPC   C2B13748  27.303  28.191   8.325
  685POPC   C3B13749  27.138  28.345   7.929
  685POPC   C4B13750  27.267  28.219   7.508
  686POPC   NC313751  32.942  32.175   9.552
  686POPC   PO413752  33.288  32.591   9.384
  686POPC   GL113753  33.069  32.360   9.082
  686POPC   GL213754  33.079  31.989   9.102
  686POPC   C1A13755  32.866  32.491   8.728
  686POPC   D2A13756  32.970  32.658   8.307
  686POPC   C3A13757  32.854  32.476   7.927
  686POPC   C4A13758  33.080  32.192   7.683
  686POPC   C1B13759  33.207  32.122   8.660
  686POPC   C2B13760  33.230  32.172   8.203
  686POPC   C3B13761  33.409  31.890   7.919
  686POPC   C4B13762  33.427  31.919   7.450
  687POPC   NC313763   6.427  10.503   9.547
  687POPC   PO413764   6.982  10.725   9.548
  687POPC   GL113765   6.876  10.541   9.173
  687POPC   GL213766   6.562  10.381   9.066
  687POPC   C1A13767   6.753  10.837   8.879
  687POPC   D2A13768   6.724  10.920   8.457
  687POPC   C3A13769   6.635  10.617   8.135
  687POPC   C4A13770   6.652  10.760   7.692
  687POPC   C1B13771   6.386  10.533   8.669
  687POPC   C2B13772   6.237  10.317   8.291
  687POPC   C3B13773   6.290  10.381   7.837
  687POPC   C4B13774   6.649  10.276   7.584
  688POPC   NC313775  20.785  25.348   9.453
  688POPC   PO413776  20.153  25.030   9.569
  688POPC   GL113777  20.258  25.211   9.157
  688POPC   GL213778  20.515  25.451   9.047
  688POPC   C1A13779  20.517  24.999   8.827
  688POPC   D2A13780  20.436  24.834   8.428
  688POPC   C3A13781  20.430  25.150   8.076
  688POPC   C4A13782  20.286  25.187   7.662
  688POPC   C1B13783  20.708  25.626   8.708
  688POPC   C2B13784  20.523  25.612   8.340
  688POPC   C3B13785  20.763  25.552   8.017
  688POPC   C4B13786  20.763  25.325   7.644
  689POPC   NC313787  38.149  13.123   9.517
  689POPC   PO413788  38.639  12.767   9.365
  689POPC   GL113789  38.456  12.890   9.061
  689POPC   GL213790  38.123  12.952   9.054
  689POPC   C1A13791  38.461  12.715   8.676
  689POPC   D2A13792  38.855  12.703   8.447
  689POPC   C3A13793  38.848  12.878   8.050
  689POPC   C4A13794  38.571  12.887   7.720
  689POPC   C1B13795  38.305  13.246   8.765
  689POPC   C2B13796  38.509  13.152   8.423
  689POPC   C3B13797  38.283  12.953   8.124
  689POPC   C4B13798  38.149  13.151   7.734
  690POPC   NC313799  16.311   3.836   9.499
  690POPC   PO413800  16.958   3.593   9.465
  690POPC   GL113801  16.865   3.419   9.078
  690POPC   GL213802  17.190   3.508   8.995
  690POPC   C1A13803  16.580   3.473   8.736
  690POPC   D2A13804  16.637   3.823   8.439
  690POPC   C3A13805  16.728   3.647   8.075
  690POPC   C4A13806  16.499   3.452   7.766
  690POPC   C1B13807  17.084   3.607   8.561
  690POPC   C2B13808  17.159   3.946   8.226
  690POPC   C3B13809  17.033   3.930   7.783
  690POPC   C4B13810  17.043   3.488   7.666
  691POPC   NC313811  13.376  32.560   9.456
  691POPC   PO413812  13.817  32.045   9.511
  691POPC   GL113813  13.829  32.166   9.083
  691POPC   GL213814  13.704  32.484   9.073
  691POPC   C1A13815  14.015  32.100   8.687
  691POPC   D2A13816  13.830  32.016   8.323
  691POPC   C3A13817  13.852  32.206   7.948
  691POPC   C4A13818  13.487  32.284   7.771
  691POPC   C1B13819  13.544  32.333   8.674
  691POPC   C2B13820  13.325  32.194   8.297
  691POPC   C3B13821  13.063  32.425   7.992
  691POPC   C4B13822  13.167  32.681   7.602
  692POPC   NC313823   4.597   8.285   9.518
  692POPC   PO413824   3.963   8.050   9.744
  692POPC   GL113825   4.132   8.344   9.330
  692POPC   GL213826   4.358   8.091   9.132
  692POPC   C1A13827   4.141   8.433   8.829
  692POPC   D2A13828   4.198   8.199   8.371
  692POPC   C3A13829   4.106   8.267   7.880
  692POPC   C4A13830   4.371   8.356   7.462
  692POPC   C1B13831   4.369   7.867   8.763
  692POPC   C2B13832   4.500   7.771   8.356
  692POPC   C3B13833   4.338   7.815   7.918
  692POPC   C4B13834   4.251   7.857   7.480
  693POPC   NC313835  15.713  42.703   9.377
  693POPC   PO413836  15.283  43.202   9.529
  693POPC   GL113837  15.350  43.031   9.129
  693POPC   GL213838  15.475  43.384   9.072
  693POPC   C1A13839  15.097  42.805   8.762
  693POPC   D2A13840  14.870  42.615   8.393
  693POPC   C3A13841  15.030  42.798   7.994
  693POPC   C4A13842  15.397  42.994   7.750
  693POPC   C1B13843  15.203  43.307   8.724
  693POPC   C2B13844  15.294  43.159   8.286
  693POPC   C3B13845  15.163  43.398   7.894
  693POPC   C4B13846  15.278  43.391   7.406
  694POPC   NC313847   2.335  18.794   9.516
  694POPC   PO413848   1.767  19.109   9.461
  694POPC   GL113849   2.024  18.986   9.126
  694POPC   GL213850   2.283  19.218   9.121
  694POPC   C1A13851   1.857  18.984   8.715
  694POPC   D2A13852   2.012  18.928   8.332
  694POPC   C3A13853   1.753  18.975   7.988
  694POPC   C4A13854   1.893  18.864   7.611
  694POPC   C1B13855   2.351  19.119   8.716
  694POPC   C2B13856   2.377  19.289   8.303
  694POPC   C3B13857   2.256  19.134   7.899
  694POPC   C4B13858   2.272  19.351   7.490
  695POPC   NC313859  39.622  12.132   9.585
  695POPC   PO413860  40.273  11.909   9.451
  695POPC   GL113861  39.967  12.155   9.198
  695POPC   GL213862  39.612  11.973   9.105
  695POPC   C1A13863  39.776  12.381   8.852
  695POPC   D2A13864  39.737  12.342   8.391
  695POPC   C3A13865  40.027  12.232   8.047
  695POPC   C4A13866  40.120  12.152   7.589
  695POPC   C1B13867  39.560  11.883   8.662
  695POPC   C2B13868  39.639  11.877   8.195
  695POPC   C3B13869  39.896  11.747   7.846
  695POPC   C4B13870  39.745  11.755   7.411
  696POPC   NC313871  12.764  21.360   9.641
  696POPC   PO413872  13.279  21.665   9.448
  696POPC   GL113873  13.000  21.319   9.190
  696POPC   GL213874  12.613  21.382   9.153
  696POPC   C1A13875  12.800  21.012   8.863
  696POPC   D2A13876  12.539  20.996   8.473
  696POPC   C3A13877  12.781  21.111   8.087
  696POPC   C4A13878  12.913  21.359   7.730
  696POPC   C1B13879  12.782  21.513   8.732
  696POPC   C2B13880  13.047  21.446   8.360
  696POPC   C3B13881  13.237  21.659   8.002
  696POPC   C4B13882  13.307  21.633   7.566
  697POPC   NC313883  33.815  42.591   9.554
  697POPC   PO413884  33.543  42.065   9.481
  697POPC   GL113885  33.739  42.275   9.140
  697POPC   GL213886  34.016  42.520   9.073
  697POPC   C1A13887  33.887  42.098   8.779
  697POPC   D2A13888  34.150  41.901   8.489
  697POPC   C3A13889  34.091  42.072   8.065
  697POPC   C4A13890  33.690  42.015   7.876
  697POPC   C1B13891  33.853  42.619   8.688
  697POPC   C2B13892  33.734  42.380   8.339
  697POPC   C3B13893  33.794  42.516   7.945
  697POPC   C4B13894  33.989  42.847   7.836
  698POPC   NC313895  37.250   9.277   9.567
  698POPC   PO413896  36.651   8.973   9.398
  698POPC   GL113897  36.907   8.786   9.080
  698POPC   GL213898  37.124   9.059   9.115
  698POPC   C1A13899  36.839   8.792   8.656
  698POPC   D2A13900  36.857   9.097   8.440
  698POPC   C3A13901  36.887   8.978   8.071
  698POPC   C4A13902  36.531   8.845   7.844
  698POPC   C1B13903  37.270   9.322   8.778
  698POPC   C2B13904  37.340   9.216   8.329
  698POPC   C3B13905  37.200   9.346   7.918
  698POPC   C4B13906  37.263   9.410   7.441
  699POPC   NC313907  31.680  20.313   9.326
  699POPC   PO413908  31.287  20.745   9.705
  699POPC   GL113909  31.350  20.689   9.266
  699POPC   GL213910  31.687  20.765   9.117
  699POPC   C1A13911  31.191  20.648   8.846
  699POPC   D2A13912  30.973  20.809   8.480
  699POPC   C3A13913  31.143  20.825   8.055
  699POPC   C4A13914  31.261  20.548   7.733
  699POPC   C1B13915  31.703  20.676   8.708
  699POPC   C2B13916  31.473  20.613   8.377
  699POPC   C3B13917  31.684  20.599   8.006
  699POPC   C4B13918  31.635  20.947   7.741
  700POPC   NC313919  23.458  41.622   9.472
  700POPC   PO413920  24.050  41.215   9.518
  700POPC   GL113921  23.825  41.462   9.157
  700POPC   GL213922  24.008  41.727   9.025
  700POPC   C1A13923  23.601  41.622   8.748
  700POPC   D2A13924  23.446  41.497   8.311
  700POPC   C3A13925  23.500  41.725   7.907
  700POPC   C4A13926  23.574  41.536   7.500
  700POPC   C1B13927  23.986  41.970   8.644
  700POPC   C2B13928  23.928  41.831   8.207
  700POPC   C3B13929  23.982  41.614   7.786
  700POPC   C4B13930  23.930  41.872   7.352
  701POPC   NC313931  41.443  37.279   9.603
  701POPC   PO413932  41.776  36.675   9.487
  701POPC   GL113933  41.709  36.998   9.204
  701POPC   GL213934  41.364  37.085   9.125
  701POPC   C1A13935  41.734  37.104   8.782
  701POPC   D2A13936  41.536  36.965   8.405
  701POPC   C3A13937  41.813  37.018   8.065
  701POPC   C4A13938  41.725  36.822   7.683
  701POPC   C1B13939  41.266  37.314   8.742
  701POPC   C2B13940  41.111  37.231   8.315
  701POPC   C3B13941  41.296  37.047   7.911
  701POPC   C4B13942  41.300  37.031   7.412
  702POPC   NC313943   3.120  34.493   9.290
  702POPC   PO413944   2.619  34.800   9.665
  702POPC   GL113945   2.684  34.805   9.245
  702POPC   GL213946   2.368  34.693   9.099
  702POPC   C1A13947   2.715  34.854   8.782
  702POPC   D2A13948   2.453  34.727   8.440
  702POPC   C3A13949   2.656  34.670   8.052
  702POPC   C4A13950   2.750  34.848   7.666
  702POPC   C1B13951   2.519  34.355   8.797
  702POPC   C2B13952   2.642  34.230   8.352
  702POPC   C3B13953   2.524  34.188   7.887
  702POPC   C4B13954   2.641  34.363   7.459
  703POPC   NC313955   7.779   2.114   9.314
  703POPC   PO413956   8.452   2.185   9.459
  703POPC   GL113957   8.258   2.026   9.106
  703POPC   GL213958   8.151   1.706   9.172
  703POPC   C1A13959   8.292   2.173   8.695
  703POPC   D2A13960   8.545   2.151   8.324
  703POPC   C3A13961   8.315   2.283   7.990
  703POPC   C4A13962   8.275   2.108   7.595
  703POPC   C1B13963   7.989   1.760   8.713
  703POPC   C2B13964   8.149   1.821   8.309
  703POPC   C3B13965   7.950   1.890   7.921
  703POPC   C4B13966   7.699   1.701   7.578
  704POPC   NC313967  40.784  43.441   9.550
  704POPC   PO413968  40.591  42.785   9.564
  704POPC   GL113969  40.792  42.926   9.162
  704POPC   GL213970  40.908  43.285   9.091
  704POPC   C1A13971  40.903  42.962   8.718
  704POPC   D2A13972  40.714  43.237   8.411
  704POPC   C3A13973  40.712  42.943   8.099
  704POPC   C4A13974  40.920  42.852   7.707
  704POPC   C1B13975  41.053  43.521   8.719
  704POPC   C2B13976  41.164  43.639   8.278
  704POPC   C3B13977  41.069  43.353   7.929
  704POPC   C4B13978  40.660  43.293   7.738
  705POPC   NC313979   4.485  20.050   9.477
  705POPC   PO413980   4.060  19.444   9.432
  705POPC   GL113981   4.063  19.743   9.118
  705POPC   GL213982   4.410  19.740   9.084
  705POPC   C1A13983   4.061  20.007   8.746
  705POPC   D2A13984   4.159  19.832   8.360
  705POPC   C3A13985   4.019  20.086   8.050
  705POPC   C4A13986   4.143  19.863   7.725
  705POPC   C1B13987   4.564  19.868   8.685
  705POPC   C2B13988   4.690  19.960   8.251
  705POPC   C3B13989   4.644  19.951   7.794
  705POPC   C4B13990   4.506  19.743   7.388
  706POPC   NC313991  41.921  38.198   9.795
  706POPC   PO413992  41.478  37.751   9.553
  706POPC   GL113993  41.525  37.571   9.173
  706POPC   GL213994  41.179  37.560   9.188
  706POPC   C1A13995  41.711  37.624   8.756
  706POPC   D2A13996  41.677  37.445   8.363
  706POPC   C3A13997  41.828  37.561   7.957
  706POPC   C4A13998  41.615  37.324   7.665
  706POPC   C1B13999  41.260  37.838   8.838
  706POPC   C2B14000  41.237  37.721   8.427
  706POPC   C3B14001  41.305  37.595   8.011
  706POPC   C4B14002  41.427  37.790   7.660
  707POPC   NC314003   1.740  35.615   9.365
  707POPC   PO414004   2.218  35.182   9.502
  707POPC   GL114005   2.185  35.413   9.141
  707POPC   GL214006   2.440  35.207   9.049
  707POPC   C1A14007   2.005  35.559   8.739
  707POPC   D2A14008   1.704  35.701   8.426
  707POPC   C3A14009   1.649  35.471   8.059
  707POPC   C4A14010   1.951  35.326   7.807
  707POPC   C1B14011   2.246  35.115   8.695
  707POPC   C2B14012   2.228  35.310   8.285
  707POPC   C3B14013   2.382  35.095   7.920
  707POPC   C4B14014   2.258  35.077   7.489
  708POPC   NC314015   7.320   5.282   9.443
  708POPC   PO414016   7.474   4.719   9.511
  708POPC   GL114017   7.422   4.914   9.133
  708POPC   GL214018   7.752   4.724   9.073
  708POPC   C1A14019   7.238   5.176   8.775
  708POPC   D2A14020   7.206   5.049   8.376
  708POPC   C3A14021   7.123   5.291   8.050
  708POPC   C4A14022   7.180   4.940   7.763
  708POPC   C1B14023   7.733   5.109   8.810
  708POPC   C2B14024   7.641   5.295   8.438
  708POPC   C3B14025   7.597   5.115   8.035
  708POPC   C4B14026   7.600   5.369   7.681
  709POPC   NC314027   0.243   0.230   9.542
  709POPC   PO414028   0.786   0.666   9.563
  709POPC   GL114029   0.589   0.459   9.204
  709POPC   GL214030   0.778   0.201   9.039
  709POPC   C1A14031   0.331   0.373   8.836
  709POPC   D2A14032   0.348   0.102   8.476
  709POPC   C3A14033   0.256   0.253   8.091
  709POPC   C4A14034   0.327   0.476   7.710
  709POPC   C1B14035   0.766  44.929   8.685
  709POPC   C2B14036   0.778  44.997   8.205
  709POPC   C3B14037   0.627   0.048   7.776
  709POPC   C4B14038   0.506   0.175   7.355
  710POPC   NC314039  11.036  19.886   9.478
  710POPC   PO414040  11.609  19.574   9.685
  710POPC   GL114041  11.659  19.620   9.211
  710POPC   GL214042  11.297  19.645   9.112
  710POPC   C1A14043  11.619  19.843   8.778
  710POPC   D2A14044  11.458  19.671   8.374
  710POPC   C3A14045  11.285  19.966   8.082
  710POPC   C4A14046  11.528  20.173   7.789
  710POPC   C1B14047  11.112  19.956   8.792
  710POPC   C2B14048  10.844  20.103   8.429
  710POPC   C3B14049  10.800  20.309   8.052
  710POPC   C4B14050  10.960  20.219   7.678
  711POPC   NC314051  38.925  39.792   9.718
  711POPC   PO414052  39.273  40.331   9.566
  711POPC   GL114053  39.172  40.025   9.278
  711POPC   GL214054  39.459  39.841   9.286
  711POPC   C1A14055  39.200  39.998   8.814
  711POPC   D2A14056  39.543  40.082   8.502
  711POPC   C3A14057  39.465  40.222   8.082
  711POPC   C4A14058  39.229  40.416   7.732
  711POPC   C1B14059  39.603  39.670   8.910
  711POPC   C2B14060  39.606  39.559   8.473
  711POPC   C3B14061  39.326  39.719   8.154
  711POPC   C4B14062  39.341  39.898   7.723
  712POPC   NC314063  41.555   8.195   9.536
  712POPC   PO414064  40.947   7.961   9.372
  712POPC   GL114065  41.245   8.232   9.113
  712POPC   GL214066  41.651   8.198   9.052
  712POPC   C1A14067  41.328   8.101   8.685
  712POPC   D2A14068  41.578   7.940   8.393
  712POPC   C3A14069  41.407   7.919   8.021
  712POPC   C4A14070  41.363   8.227   7.716
  712POPC   C1B14071  41.932   7.965   8.788
  712POPC   C2B14072  42.073   8.110   8.393
  712POPC   C3B14073  41.838   8.256   8.031
  712POPC   C4B14074  41.809   8.066   7.590
  713POPC   NC314075  32.184   5.308   9.469
  713POPC   PO414076  32.357   4.699   9.571
  713POPC   GL114077  32.588   4.851   9.251
  713POPC   GL214078  32.589   5.210   9.168
  713POPC   C1A14079  32.515   4.822   8.786
  713POPC   D2A14080  32.174   4.988   8.520
  713POPC   C3A14081  32.165   4.971   8.039
  713POPC   C4A14082  32.221   5.016   7.562
  713POPC   C1B14083  32.579   5.336   8.735
  713POPC   C2B14084  32.550   5.250   8.281
  713POPC   C3B14085  32.541   5.281   7.833
  713POPC   C4B14086  32.389   5.496   7.446
  714POPC   NC314087   4.161  15.004   9.412
  714POPC   PO414088   3.531  15.289   9.488
  714POPC   GL114089   3.615  15.128   9.128
  714POPC   GL214090   3.891  15.289   9.073
  714POPC   C1A14091   3.458  15.080   8.702
  714POPC   D2A14092   3.704  15.184   8.337
  714POPC   C3A14093   3.602  15.084   7.912
  714POPC   C4A14094   3.546  15.378   7.597
  714POPC   C1B14095   3.934  14.903   8.806
  714POPC   C2B14096   4.078  14.793   8.414
  714POPC   C3B14097   4.053  14.844   7.964
  714POPC   C4B14098   4.034  15.223   7.696
  715POPC   NC314099  12.526  37.750   9.446
  715POPC   PO414100  13.217  37.820   9.382
  715POPC   GL114101  12.962  37.748   9.093
  715POPC   GL214102  12.871  37.442   9.213
  715POPC   C1A14103  12.688  37.883   8.800
  715POPC   D2A14104  12.348  37.788   8.534
  715POPC   C3A14105  12.567  37.670   8.173
  715POPC   C4A14106  12.595  37.651   7.743
  715POPC   C1B14107  13.106  37.345   8.796
  715POPC   C2B14108  13.181  37.526   8.340
  715POPC   C3B14109  13.076  37.498   7.867
  715POPC   C4B14110  13.156  37.464   7.394
  716POPC   NC314111  30.358   2.810   9.551
  716POPC   PO414112  30.807   2.296   9.356
  716POPC   GL114113  30.887   2.719   9.193
  716POPC   GL214114  30.595   2.950   9.151
  716POPC   C1A14115  30.793   2.729   8.751
  716POPC   D2A14116  30.941   2.897   8.400
  716POPC   C3A14117  30.695   2.689   8.114
  716POPC   C4A14118  30.860   2.500   7.781
  716POPC   C1B14119  30.585   3.214   8.833
  716POPC   C2B14120  30.588   3.408   8.451
  716POPC   C3B14121  30.699   3.216   8.078
  716POPC   C4B14122  30.818   3.002   7.732
  717POPC   NC314123   7.184  20.322   9.855
  717POPC   PO414124   7.618  20.725   9.456
  717POPC   GL114125   7.611  20.691   9.064
  717POPC   GL214126   7.720  20.354   9.072
  717POPC   C1A14127   7.440  20.856   8.722
  717POPC   D2A14128   7.408  20.702   8.331
  717POPC   C3A14129   7.098  20.455   8.213
  717POPC   C4A14130   7.127  20.711   7.861
  717POPC   C1B14131   7.525  20.332   8.688
  717POPC   C2B14132   7.550  20.164   8.285
  717POPC   C3B14133   7.553  20.406   7.925
  717POPC   C4B14134   7.430  20.515   7.511
  718POPC   NC314135   9.229  37.233   9.501
  718POPC   PO414136   8.954  37.893   9.433
  718POPC   GL114137   8.851  37.584   9.102
  718POPC   GL214138   8.984  37.226   9.038
  718POPC   C1A14139   8.906  37.615   8.660
  718POPC   D2A14140   8.810  37.679   8.234
  718POPC   C3A14141   9.068  37.918   7.993
  718POPC   C4A14142   9.097  37.906   7.557
  718POPC   C1B14143   9.304  37.287   8.681
  718POPC   C2B14144   9.323  37.547   8.287
  718POPC   C3B14145   9.143  37.434   7.857
  718POPC   C4B14146   9.178  37.416   7.394
  719POPC   NC314147  23.020  14.281   9.415
  719POPC   PO414148  22.616  14.829   9.349
  719POPC   GL114149  22.850  14.589   9.053
  719POPC   GL214150  22.665  14.277   9.035
  719POPC   C1A14151  22.865  14.528   8.605
  719POPC   D2A14152  22.609  14.251   8.336
  719POPC   C3A14153  22.692  14.369   7.960
  719POPC   C4A14154  23.002  14.625   7.787
  719POPC   C1B14155  22.849  14.050   8.754
  719POPC   C2B14156  23.094  14.085   8.359
  719POPC   C3B14157  23.022  13.987   7.964
  719POPC   C4B14158  23.294  13.958   7.631
  720POPC   NC314159  13.747  36.729   9.555
  720POPC   PO414160  13.979  37.374   9.406
  720POPC   GL114161  13.815  37.042   9.167
  720POPC   GL214162  13.521  37.116   9.046
  720POPC   C1A14163  13.835  36.751   8.809
  720POPC   D2A14164  13.551  36.569   8.435
  720POPC   C3A14165  13.589  36.695   8.013
  720POPC   C4A14166  13.766  36.806   7.620
  720POPC   C1B14167  13.334  36.838   8.807
  720POPC   C2B14168  13.243  36.998   8.416
  720POPC   C3B14169  13.429  37.166   8.072
  720POPC   C4B14170  13.274  37.004   7.669
  721POPC   NC314171   6.521   6.357   9.506
  721POPC   PO414172   6.389   7.073   9.458
  721POPC   GL114173   6.444   6.744   9.164
  721POPC   GL214174   6.754   6.696   9.091
  721POPC   C1A14175   6.483   6.561   8.706
  721POPC   D2A14176   6.657   6.344   8.384
  721POPC   C3A14177   6.554   6.566   8.028
  721POPC   C4A14178   6.833   6.630   7.706
  721POPC   C1B14179   6.572   7.047   8.789
  721POPC   C2B14180   6.670   6.929   8.390
  721POPC   C3B14181   6.575   7.113   8.030
  721POPC   C4B14182   6.487   6.995   7.646
  722POPC   NC314183  36.316  31.955   9.631
  722POPC   PO414184  36.424  31.301   9.537
  722POPC   GL114185  36.179  31.591   9.265
  722POPC   GL214186  36.332  31.903   9.122
  722POPC   C1A14187  36.122  31.475   8.845
  722POPC   D2A14188  35.989  31.589   8.451
  722POPC   C3A14189  36.114  31.350   8.124
  722POPC   C4A14190  36.104  31.561   7.743
  722POPC   C1B14191  36.615  31.621   8.877
  722POPC   C2B14192  36.523  31.399   8.494
  722POPC   C3B14193  36.498  31.660   8.150
  722POPC   C4B14194  36.608  31.618   7.773
  723POPC   NC314195  14.514  15.543   9.547
  723POPC   PO414196  14.061  16.142   9.607
  723POPC   GL114197  14.283  16.115   9.211
  723POPC   GL214198  14.119  16.434   9.146
  723POPC   C1A14199  14.606  16.011   8.893
  723POPC   D2A14200  14.566  15.806   8.483
  723POPC   C3A14201  14.612  16.015   8.090
  723POPC   C4A14202  14.428  15.799   7.730
  723POPC   C1B14203  14.284  16.378   8.734
  723POPC   C2B14204  14.201  16.172   8.360
  723POPC   C3B14205  14.246  16.321   7.927
  723POPC   C4B14206  14.415  16.252   7.503
  724POPC   NC314207  43.744  27.579   9.488
  724POPC   PO414208  44.293  27.301   9.505
  724POPC   GL114209  44.007  27.313   9.139
  724POPC   GL214210  43.632  27.370   9.028
  724POPC   C1A14211  44.068  27.373   8.724
  724POPC   D2A14212  44.117  27.600   8.389
  724POPC   C3A14213  43.833  27.539   8.057
  724POPC   C4A14214  43.715  27.160   7.794
  724POPC   C1B14215  43.705  27.754   8.742
  724POPC   C2B14216  43.847  28.036   8.377
  724POPC   C3B14217  43.767  28.094   7.936
  724POPC   C4B14218  43.793  27.768   7.614
  725POPC   NC314219  32.981  40.303   9.894
  725POPC   PO414220  32.963  40.755   9.409
  725POPC   GL114221  33.102  40.884   9.020
  725POPC   GL214222  33.291  40.577   9.026
  725POPC   C1A14223  33.283  40.799   8.578
  725POPC   D2A14224  32.991  40.710   8.227
  725POPC   C3A14225  33.063  41.030   7.911
  725POPC   C4A14226  33.017  40.956   7.476
  725POPC   C1B14227  32.880  40.518   8.742
  725POPC   C2B14228  32.581  40.362   8.430
  725POPC   C3B14229  32.572  40.309   7.964
  725POPC   C4B14230  32.798  40.491   7.589
  726POPC   NC314231  38.810  22.218   9.537
  726POPC   PO414232  38.156  22.177   9.539
  726POPC   GL114233  38.437  22.234   9.178
  726POPC   GL214234  38.615  21.893   9.157
  726POPC   C1A14235  38.461  22.170   8.738
  726POPC   D2A14236  38.306  21.953   8.387
  726POPC   C3A14237  38.405  22.177   8.006
  726POPC   C4A14238  38.596  22.144   7.597
  726POPC   C1B14239  38.885  21.873   8.765
  726POPC   C2B14240  38.814  21.999   8.351
  726POPC   C3B14241  38.784  21.830   7.942
  726POPC   C4B14242  39.064  21.903   7.594
  727POPC   NC314243  21.528  10.882   9.581
  727POPC   PO414244  21.107  10.454   9.888
  727POPC   GL114245  21.401  10.433   9.402
  727POPC   GL214246  21.724  10.226   9.352
  727POPC   C1A14247  21.532  10.639   8.989
  727POPC   D2A14248  21.408  10.847   8.631
  727POPC   C3A14249  21.671  10.787   8.281
  727POPC   C4A14250  21.618  10.761   7.859
  727POPC   C1B14251  21.545  10.144   8.941
  727POPC   C2B14252  21.596  10.351   8.547
  727POPC   C3B14253  21.543  10.279   8.085
  727POPC   C4B14254  21.567  10.012   7.710
  728POPC   NC314255  11.149  31.231   9.733
  728POPC   PO414256  11.422  31.813   9.611
  728POPC   GL114257  11.438  31.574   9.222
  728POPC   GL214258  11.110  31.409   9.234
  728POPC   C1A14259  11.337  31.634   8.774
  728POPC   D2A14260  11.219  31.705   8.347
  728POPC   C3A14261  11.528  31.553   8.060
  728POPC   C4A14262  11.408  31.747   7.681
  728POPC   C1B14263  11.280  31.150   8.912
  728POPC   C2B14264  11.309  31.190   8.449
  728POPC   C3B14265  11.072  31.294   8.030
  728POPC   C4B14266  10.744  31.182   7.713
  729POPC   NC314267  42.452  20.217   9.375
  729POPC   PO414268  42.039  19.735   9.315
  729POPC   GL114269  42.420  19.769   9.114
  729POPC   GL214270  42.600  19.455   9.140
  729POPC   C1A14271  42.381  20.005   8.742
  729POPC   D2A14272  42.141  20.076   8.395
  729POPC   C3A14273  42.494  20.114   8.148
  729POPC   C4A14274  42.377  19.895   7.841
  729POPC   C1B14275  42.422  19.477   8.697
  729POPC   C2B14276  42.331  19.608   8.270
  729POPC   C3B14277  42.336  19.385   7.884
  729POPC   C4B14278  42.756  19.264   7.793
  730POPC   NC314279  33.555  38.976   9.515
  730POPC   PO414280  34.270  38.769   9.488
  730POPC   GL114281  33.963  39.016   9.187
  730POPC   GL214282  34.065  39.354   9.047
  730POPC   C1A14283  33.679  39.147   8.791
  730POPC   D2A14284  33.552  39.368   8.376
  730POPC   C3A14285  33.658  39.102   7.968
  730POPC   C4A14286  33.886  38.718   7.792
  730POPC   C1B14287  34.037  39.485   8.638
  730POPC   C2B14288  34.015  39.487   8.217
  730POPC   C3B14289  33.884  39.543   7.857
  730POPC   C4B14290  34.212  39.555   7.601
  731POPC   NC314291  11.927  41.643   9.500
  731POPC   PO414292  12.454  41.243   9.539
  731POPC   GL114293  12.261  41.339   9.171
  731POPC   GL214294  11.922  41.245   9.177
  731POPC   C1A14295  12.218  41.585   8.798
  731POPC   D2A14296  12.239  41.913   8.491
  731POPC   C3A14297  12.304  41.706   8.086
  731POPC   C4A14298  12.111  41.843   7.712
  731POPC   C1B14299  11.747  41.410   8.810
  731POPC   C2B14300  11.925  41.434   8.375
  731POPC   C3B14301  11.848  41.412   7.923
  731POPC   C4B14302  12.064  41.365   7.544
  732POPC   NC314303   9.408  44.293   9.285
  732POPC   PO414304   8.983  44.740   9.613
  732POPC   GL114305   8.788  44.777   9.226
  732POPC   GL214306   8.929  44.454   9.121
  732POPC   C1A14307   8.803  44.819   8.796
  732POPC   D2A14308   8.705  44.994   8.431
  732POPC   C3A14309   8.846  44.716   8.102
  732POPC   C4A14310   8.900  44.870   7.695
  732POPC   C1B14311   9.213  44.526   8.735
  732POPC   C2B14312   9.250  44.437   8.297
  732POPC   C3B14313   9.017  44.220   8.007
  732POPC   C4B14314   8.800  44.393   7.663
  733POPC   NC314315  31.081   7.518   9.414
  733POPC   PO414316  30.500   7.193   9.467
  733POPC   GL114317  30.640   7.446   9.081
  733POPC   GL214318  30.991   7.350   8.939
  733POPC   C1A14319  30.637   7.458   8.606
  733POPC   D2A14320  30.886   7.289   8.315
  733POPC   C3A14321  30.783   7.468   7.973
  733POPC   C4A14322  30.537   7.386   7.659
  733POPC   C1B14323  30.932   7.812   8.776
  733POPC   C2B14324  30.812   7.897   8.404
  733POPC   C3B14325  31.085   7.833   8.139
  733POPC   C4B14326  31.107   7.791   7.734
  734POPC   NC314327   1.811   3.240   9.433
  734POPC   PO414328   2.176   3.737   9.672
  734POPC   GL114329   1.958   3.763   9.250
  734POPC   GL214330   1.603   3.656   9.195
  734POPC   C1A14331   2.016   3.563   8.840
  734POPC   D2A14332   1.902   3.423   8.421
  734POPC   C3A14333   2.253   3.477   8.136
  734POPC   C4A14334   2.233   3.516   7.704
  734POPC   C1B14335   1.622   3.912   8.812
  734POPC   C2B14336   1.819   3.948   8.396
  734POPC   C3B14337   1.852   3.745   7.963
  734POPC   C4B14338   1.945   3.914   7.551
  735POPC   NC314339  28.915  38.950   9.622
  735POPC   PO414340  29.041  38.276   9.629
  735POPC   GL114341  29.173  38.317   9.242
  735POPC   GL214342  29.187  38.678   9.182
  735POPC   C1A14343  29.356  38.293   8.853
  735POPC   D2A14344  29.315  38.442   8.436
  735POPC   C3A14345  29.358  38.210   8.069
  735POPC   C4A14346  29.414  38.318   7.637
  735POPC   C1B14347  29.148  38.866   8.775
  735POPC   C2B14348  29.037  38.858   8.348
  735POPC   C3B14349  29.278  38.717   7.993
  735POPC   C4B14350  29.256  38.780   7.547
  736POPC   NC314351  36.521  24.776   9.797
  736POPC   PO414352  37.038  24.399   9.574
  736POPC   GL114353  37.150  24.360   9.162
  736POPC   GL214354  37.360  24.625   9.098
  736POPC   C1A14355  36.984  24.465   8.763
  736POPC   D2A14356  36.768  24.328   8.405
  736POPC   C3A14357  36.802  24.488   7.988
  736POPC   C4A14358  36.528  24.479   7.614
  736POPC   C1B14359  37.483  24.486   8.698
  736POPC   C2B14360  37.241  24.600   8.321
  736POPC   C3B14361  37.439  24.742   7.931
  736POPC   C4B14362  37.166  24.614   7.629
  737POPC   NC314363  33.973  29.584   9.650
  737POPC   PO414364  34.110  30.210   9.561
  737POPC   GL114365  34.019  29.894   9.217
  737POPC   GL214366  33.670  29.751   9.250
  737POPC   C1A14367  33.847  29.956   8.793
  737POPC   D2A14368  33.650  30.116   8.396
  737POPC   C3A14369  33.932  30.017   8.077
  737POPC   C4A14370  34.275  30.213   7.870
  737POPC   C1B14371  33.547  29.545   8.840
  737POPC   C2B14372  33.715  29.618   8.427
  737POPC   C3B14373  33.555  29.676   8.013
  737POPC   C4B14374  33.401  30.080   7.889
  738POPC   NC314375   7.037   2.769   9.428
  738POPC   PO414376   6.513   2.469   9.745
  738POPC   GL114377   6.561   2.520   9.260
  738POPC   GL214378   6.898   2.457   9.053
  738POPC   C1A14379   6.527   2.709   8.823
  738POPC   D2A14380   6.636   2.636   8.408
  738POPC   C3A14381   6.387   2.824   8.108
  738POPC   C4A14382   6.421   2.751   7.702
  738POPC   C1B14383   7.012   2.858   8.779
  738POPC   C2B14384   7.083   2.932   8.334
  738POPC   C3B14385   6.900   2.735   7.949
  738POPC   C4B14386   6.907   2.568   7.515
  739POPC   NC314387  44.768  31.065   9.371
  739POPC   PO414388  44.225  31.409   9.514
  739POPC   GL114389  44.512  31.704   9.270
  739POPC   GL214390  44.888  31.631   9.327
  739POPC   C1A14391  44.593  31.622   8.817
  739POPC   D2A14392  44.625  31.256   8.503
  739POPC   C3A14393  44.702  31.345   8.060
  739POPC   C4A14394  44.728  31.160   7.656
  739POPC   C1B14395   0.093  31.728   8.920
  739POPC   C2B14396   0.091  31.825   8.447
  739POPC   C3B14397  44.989  31.774   8.009
  739POPC   C4B14398  44.685  31.730   7.697
  740POPC   NC314399   5.483  15.736   9.729
  740POPC   PO414400   5.220  15.094   9.710
  740POPC   GL114401   5.090  15.091   9.255
  740POPC   GL214402   5.092  15.451   9.192
  740POPC   C1A14403   5.300  15.087   8.817
  740POPC   D2A14404   5.219  15.314   8.478
  740POPC   C3A14405   4.917  15.176   8.186
  740POPC   C4A14406   4.991  15.067   7.763
  740POPC   C1B14407   4.982  15.695   8.808
  740POPC   C2B14408   5.017  15.797   8.370
  740POPC   C3B14409   5.211  15.561   8.040
  740POPC   C4B14410   5.377  15.367   7.673
  741POPC   NC314411  36.606   6.834   9.589
  741POPC   PO414412  37.135   6.462   9.554
  741POPC   GL114413  37.050   6.551   9.082
  741POPC   GL214414  36.692   6.460   9.111
  741POPC   C1A14415  37.160   6.695   8.607
  741POPC   D2A14416  37.074   6.387   8.216
  741POPC   C3A14417  36.849   6.507   7.876
  741POPC   C4A14418  36.924   6.813   7.625
  741POPC   C1B14419  36.777   6.362   8.667
  741POPC   C2B14420  36.714   6.695   8.349
  741POPC   C3B14421  36.584   6.909   8.012
  741POPC   C4B14422  36.415   6.836   7.621
  742POPC   NC314423  42.879  32.976   9.343
  742POPC   PO414424  42.249  33.230   9.517
  742POPC   GL114425  42.460  33.237   9.142
  742POPC   GL214426  42.413  32.870   9.154
  742POPC   C1A14427  42.341  33.136   8.707
  742POPC   D2A14428  42.362  32.850   8.341
  742POPC   C3A14429  42.165  33.068   8.002
  742POPC   C4A14430  42.449  33.328   7.781
  742POPC   C1B14431  42.544  32.658   8.794
  742POPC   C2B14432  42.636  32.423   8.441
  742POPC   C3B14433  42.610  32.457   8.000
  742POPC   C4B14434  42.524  32.821   7.729
  743POPC   NC314435  11.535  30.385   9.709
  743POPC   PO414436  11.526  29.812   9.674
  743POPC   GL114437  11.301  29.895   9.276
  743POPC   GL214438  11.325  30.241   9.245
  743POPC   C1A14439  11.257  29.865   8.790
  743POPC   D2A14440  11.088  29.837   8.330
  743POPC   C3A14441  11.354  29.928   7.942
  743POPC   C4A14442  11.494  29.870   7.477
  743POPC   C1B14443  11.517  30.320   8.853
  743POPC   C2B14444  11.439  30.231   8.413
  743POPC   C3B14445  11.477  30.410   7.993
  743POPC   C4B14446  11.322  30.323   7.599
  744POPC   NC314447  27.684  10.736   9.518
  744POPC   PO414448  27.533  11.363   9.563
  744POPC   GL114449  27.641  11.183   9.181
  744POPC   GL214450  27.394  10.902   9.131
  744POPC   C1A14451  27.598  11.444   8.777
  744POPC   D2A14452  27.861  11.551   8.382
  744POPC   C3A14453  27.626  11.422   8.029
  744POPC   C4A14454  27.621  11.129   7.703
  744POPC   C1B14455  27.148  11.003   8.767
  744POPC   C2B14456  27.276  11.205   8.386
  744POPC   C3B14457  27.289  10.939   8.042
  744POPC   C4B14458  27.139  11.000   7.636
  745POPC   NC314459  42.166  31.215   9.418
  745POPC   PO414460  42.040  30.584   9.428
  745POPC   GL114461  42.237  30.808   9.117
  745POPC   GL214462  42.580  30.858   9.250
  745POPC   C1A14463  42.187  30.790   8.683
  745POPC   D2A14464  42.331  30.812   8.251
  745POPC   C3A14465  42.120  30.648   7.892
  745POPC   C4A14466  42.293  30.764   7.495
  745POPC   C1B14467  42.598  30.508   8.924
  745POPC   C2B14468  42.545  30.423   8.503
  745POPC   C3B14469  42.486  30.207   8.134
  745POPC   C4B14470  42.545  30.298   7.706
  746POPC   NC314471   5.439  12.780   9.424
  746POPC   PO414472   4.778  12.727   9.402
  746POPC   GL114473   5.078  12.770   9.069
  746POPC   GL214474   5.227  13.103   9.067
  746POPC   C1A14475   5.264  12.736   8.668
  746POPC   D2A14476   5.030  12.618   8.302
  746POPC   C3A14477   5.152  12.795   7.934
  746POPC   C4A14478   5.557  12.868   7.806
  746POPC   C1B14479   5.089  13.227   8.689
  746POPC   C2B14480   5.003  13.141   8.281
  746POPC   C3B14481   5.050  13.381   7.917
  746POPC   C4B14482   4.725  13.515   7.663
  747POPC   NC314483  32.417  11.337   9.483
  747POPC   PO414484  31.806  11.691   9.500
  747POPC   GL114485  32.039  11.436   9.128
  747POPC   GL214486  32.286  11.139   9.051
  747POPC   C1A14487  32.080  11.314   8.649
  747POPC   D2A14488  32.290  11.009   8.426
  747POPC   C3A14489  32.393  11.191   8.083
  747POPC   C4A14490  32.212  11.116   7.691
  747POPC   C1B14491  32.572  11.331   8.758
  747POPC   C2B14492  32.528  11.614   8.414
  747POPC   C3B14493  32.637  11.633   7.957
  747POPC   C4B14494  32.274  11.602   7.629
  748POPC   NC314495  19.273   8.341  10.022
  748POPC   PO414496  18.853   8.246   9.524
  748POPC   GL114497  18.827   8.049   9.110
  748POPC   GL214498  18.532   7.823   9.058
  748POPC   C1A14499  18.967   8.048   8.690
  748POPC   D2A14500  19.082   8.314   8.353
  748POPC   C3A14501  19.067   8.111   7.958
  748POPC   C4A14502  19.210   8.186   7.553
  748POPC   C1B14503  18.462   8.120   8.721
  748POPC   C2B14504  18.614   8.087   8.295
  748POPC   C3B14505  18.566   8.209   7.872
  748POPC   C4B14506  18.716   7.956   7.521
  749POPC   NC314507  16.192  37.576   9.526
  749POPC   PO414508  15.425  37.688   9.549
  749POPC   GL114509  15.773  37.534   9.213
  749POPC   GL214510  16.062  37.748   9.078
  749POPC   C1A14511  15.946  37.363   8.792
  749POPC   D2A14512  15.739  37.320   8.379
  749POPC   C3A14513  15.986  37.308   8.003
  749POPC   C4A14514  16.299  37.586   7.820
  749POPC   C1B14515  15.977  37.882   8.688
  749POPC   C2B14516  16.068  37.754   8.301
  749POPC   C3B14517  16.091  38.026   7.956
  749POPC   C4B14518  16.425  38.076   7.668
  750POPC   NC314519  17.399  38.221   9.622
  750POPC   PO414520  17.715  38.797   9.497
  750POPC   GL114521  17.610  38.471   9.204
  750POPC   GL214522  17.785  38.148   9.287
  750POPC   C1A14523  17.348  38.444   8.840
  750POPC   D2A14524  17.249  38.606   8.416
  750POPC   C3A14525  17.452  38.445   8.048
  750POPC   C4A14526  17.393  38.370   7.607
  750POPC   C1B14527  17.670  38.044   8.885
  750POPC   C2B14528  17.700  38.274   8.499
  750POPC   C3B14529  17.747  38.060   8.126
  750POPC   C4B14530  17.740  38.032   7.717
  751POPC   NC314531  31.101  29.683   9.339
  751POPC   PO414532  31.351  29.119   9.387
  751POPC   GL114533  31.534  29.217   9.016
  751POPC   GL214534  31.473  29.561   9.005
  751POPC   C1A14535  31.324  29.222   8.636
  751POPC   D2A14536  31.464  29.177   8.245
  751POPC   C3A14537  31.217  29.082   7.916
  751POPC   C4A14538  31.350  29.249   7.530
  751POPC   C1B14539  31.254  29.752   8.653
  751POPC   C2B14540  31.437  29.849   8.256
  751POPC   C3B14541  31.454  29.597   7.898
  751POPC   C4B14542  31.361  29.761   7.495
  752POPC   NC314543   7.333  30.841   9.770
  752POPC   PO414544   7.508  31.101   9.158
  752POPC   GL114545   7.273  30.765   8.992
  752POPC   GL214546   7.482  30.500   9.050
  752POPC   C1A14547   7.249  30.565   8.602
  752POPC   D2A14548   7.476  30.566   8.252
  752POPC   C3A14549   7.417  30.879   8.003
  752POPC   C4A14550   7.255  30.738   7.628
  752POPC   C1B14551   7.718  30.756   8.671
  752POPC   C2B14552   7.924  30.818   8.288
  752POPC   C3B14553   7.886  30.607   7.916
  752POPC   C4B14554   7.729  30.628   7.525
  753POPC   NC314555  41.232  39.781   9.470
  753POPC   PO414556  41.645  40.326   9.597
  753POPC   GL114557  41.570  40.105   9.228
  753POPC   GL214558  41.790  39.838   9.187
  753POPC   C1A14559  41.520  40.223   8.800
  753POPC   D2A14560  41.698  40.170   8.395
  753POPC   C3A14561  41.362  40.178   8.079
  753POPC   C4A14562  41.262  40.454   7.722
  753POPC   C1B14563  41.501  39.706   8.862
  753POPC   C2B14564  41.423  39.748   8.437
  753POPC   C3B14565  41.654  39.764   8.064
  753POPC   C4B14566  41.742  39.606   7.689
  754POPC   NC314567   7.227  11.844   9.583
  754POPC   PO414568   7.091  12.284   9.120
  754POPC   GL114569   7.367  11.970   8.995
  754POPC   GL214570   7.229  11.647   9.111
  754POPC   C1A14571   7.361  12.017   8.546
  754POPC   D2A14572   7.002  12.278   8.352
  754POPC   C3A14573   7.087  12.356   7.922
  754POPC   C4A14574   7.397  12.197   7.625
  754POPC   C1B14575   7.515  11.527   8.780
  754POPC   C2B14576   7.754  11.685   8.443
  754POPC   C3B14577   7.654  11.541   8.025
  754POPC   C4B14578   7.499  11.668   7.608
  755POPC   NC314579   3.693  17.812   9.471
  755POPC   PO414580   3.803  18.478   9.444
  755POPC   GL114581   3.485  18.401   9.141
  755POPC   GL214582   3.466  18.046   9.076
  755POPC   C1A14583   3.362  18.400   8.715
  755POPC   D2A14584   3.200  18.691   8.436
  755POPC   C3A14585   3.385  18.527   8.061
  755POPC   C4A14586   3.675  18.727   7.790
  755POPC   C1B14587   3.768  17.856   8.792
  755POPC   C2B14588   3.707  17.771   8.360
  755POPC   C3B14589   3.877  17.857   7.956
  755POPC   C4B14590   3.723  18.153   7.654
  756POPC   NC314591  33.848  14.425   9.455
  756POPC   PO414592  33.454  13.910   9.533
  756POPC   GL114593  33.475  14.214   9.158
  756POPC   GL214594  33.532  14.610   9.101
  756POPC   C1A14595  33.663  14.196   8.738
  756POPC   D2A14596  33.528  14.417   8.337
  756POPC   C3A14597  33.650  14.222   7.929
  756POPC   C4A14598  33.963  14.153   7.583
  756POPC   C1B14599  33.929  14.604   8.805
  756POPC   C2B14600  34.041  14.387   8.383
  756POPC   C3B14601  34.091  14.532   7.937
  756POPC   C4B14602  34.271  14.546   7.497
  757POPC   NC314603  28.394  10.657   9.558
  757POPC   PO414604  28.657  10.038   9.478
  757POPC   GL114605  28.484  10.354   9.162
  757POPC   GL214606  28.117  10.563   9.165
  757POPC   C1A14607  28.449  10.583   8.789
  757POPC   D2A14608  28.124  10.649   8.509
  757POPC   C3A14609  28.315  10.819   8.140
  757POPC   C4A14610  28.517  10.635   7.787
  757POPC   C1B14611  28.045  10.237   8.882
  757POPC   C2B14612  28.030  10.107   8.479
  757POPC   C3B14613  28.192  10.301   8.130
  757POPC   C4B14614  28.177  10.265   7.728
  758POPC   NC314615  44.721   9.559   9.635
  758POPC   PO414616   0.120   9.223   9.544
  758POPC   GL114617  44.999   9.490   9.166
  758POPC   GL214618  44.846   9.833   9.169
  758POPC   C1A14619  44.844   9.544   8.720
  758POPC   D2A14620  44.856   9.788   8.318
  758POPC   C3A14621  44.538   9.717   7.965
  758POPC   C4A14622  44.238   9.827   7.600
  758POPC   C1B14623  44.672  10.027   8.757
  758POPC   C2B14624  44.492  10.143   8.325
  758POPC   C3B14625  44.489  10.218   7.853
  758POPC   C4B14626  44.463  10.215   7.371
  759POPC   NC314627   3.960  41.588   9.677
  759POPC   PO414628   3.578  41.146   9.338
  759POPC   GL114629   3.774  41.538   9.133
  759POPC   GL214630   3.580  41.852   9.179
  759POPC   C1A14631   3.863  41.430   8.677
  759POPC   D2A14632   3.636  41.133   8.391
  759POPC   C3A14633   3.587  41.342   7.996
  759POPC   C4A14634   3.953  41.528   7.832
  759POPC   C1B14635   3.757  41.919   8.768
  759POPC   C2B14636   3.617  41.780   8.355
  759POPC   C3B14637   3.638  41.926   7.938
  759POPC   C4B14638   3.433  41.772   7.597
  760POPC   NC314639  13.584  41.097   9.448
  760POPC   PO414640  13.808  41.790   9.483
  760POPC   GL114641  13.605  41.674   9.129
  760POPC   GL214642  13.809  41.383   9.070
  760POPC   C1A14643  13.659  41.677   8.668
  760POPC   D2A14644  13.636  41.360   8.358
  760POPC   C3A14645  13.803  41.415   7.984
  760POPC   C4A14646  13.699  41.709   7.713
  760POPC   C1B14647  13.416  41.235   8.832
  760POPC   C2B14648  13.265  41.035   8.448
  760POPC   C3B14649  13.191  41.177   8.025
  760POPC   C4B14650  13.449  41.222   7.654
  761POPC   NC314651   4.987  26.442   9.930
  761POPC   PO414652   5.124  25.897   9.664
  761POPC   GL114653   4.986  25.808   9.232
  761POPC   GL214654   5.267  25.943   9.054
  761POPC   C1A14655   4.914  25.749   8.750
  761POPC   D2A14656   4.847  25.906   8.302
  761POPC   C3A14657   5.089  25.806   7.944
  761POPC   C4A14658   5.385  25.881   7.643
  761POPC   C1B14659   5.299  26.050   8.581
  761POPC   C2B14660   5.499  26.045   8.142
  761POPC   C3B14661   5.595  26.318   7.772
  761POPC   C4B14662   5.460  26.638   7.469
  762POPC   NC314663  36.289  15.156   9.327
  762POPC   PO414664  35.804  14.754   9.450
  762POPC   GL114665  35.939  14.966   9.032
  762POPC   GL214666  36.018  15.351   8.959
  762POPC   C1A14667  36.170  14.974   8.635
  762POPC   D2A14668  36.525  14.909   8.350
  762POPC   C3A14669  36.402  15.196   8.040
  762POPC   C4A14670  36.152  15.203   7.675
  762POPC   C1B14671  35.768  15.296   8.630
  762POPC   C2B14672  35.909  15.269   8.221
  762POPC   C3B14673  35.700  15.318   7.874
  762POPC   C4B14674  35.818  15.562   7.533
  763POPC   NC314675  29.493  22.657   9.478
  763POPC   PO414676  28.912  23.087   9.566
  763POPC   GL114677  28.805  22.884   9.210
  763POPC   GL214678  29.170  22.907   9.152
  763POPC   C1A14679  28.826  22.978   8.793
  763POPC   D2A14680  28.998  23.150   8.447
  763POPC   C3A14681  28.856  22.986   8.072
  763POPC   C4A14682  29.098  22.953   7.732
  763POPC   C1B14683  29.383  22.897   8.773
  763POPC   C2B14684  29.529  22.703   8.422
  763POPC   C3B14685  29.518  22.843   8.019
  763POPC   C4B14686  29.515  22.494   7.757
  764POPC   NC314687  29.108  12.650   9.513
  764POPC   PO414688  29.529  13.053   9.668
  764POPC   GL114689  29.437  12.942   9.223
  764POPC   GL214690  29.062  13.005   9.160
  764POPC   C1A14691  29.399  12.838   8.768
  764POPC   D2A14692  29.197  12.561   8.455
  764POPC   C3A14693  29.101  12.653   8.010
  764POPC   C4A14694  29.055  12.438   7.579
  764POPC   C1B14695  28.869  12.854   8.774
  764POPC   C2B14696  28.716  12.739   8.363
  764POPC   C3B14697  28.596  12.734   7.942
  764POPC   C4B14698  28.835  12.885   7.562
  765POPC   NC314699  17.941  24.267   9.337
  765POPC   PO414700  17.488  24.682   9.593
  765POPC   GL114701  17.524  24.620   9.135
  765POPC   GL214702  17.294  24.360   9.069
  765POPC   C1A14703  17.483  24.891   8.732
  765POPC   D2A14704  17.683  24.740   8.365
  765POPC   C3A14705  17.529  24.778   7.962
  765POPC   C4A14706  17.493  24.457   7.718
  765POPC   C1B14707  17.252  24.451   8.621
  765POPC   C2B14708  17.243  24.353   8.177
  765POPC   C3B14709  17.252  24.006   7.873
  765POPC   C4B14710  17.288  24.090   7.430
  766POPC   NC314711  34.586  30.267   9.528
  766POPC   PO414712  34.977  29.775   9.318
  766POPC   GL114713  34.679  30.001   9.105
  766POPC   GL214714  34.793  30.366   9.084
  766POPC   C1A14715  34.354  29.886   8.808
  766POPC   D2A14716  34.206  29.708   8.425
  766POPC   C3A14717  34.372  29.747   8.028
  766POPC   C4A14718  34.698  29.678   7.740
  766POPC   C1B14719  34.626  30.303   8.703
  766POPC   C2B14720  34.571  30.120   8.313
  766POPC   C3B14721  34.782  30.149   7.926
  766POPC   C4B14722  34.606  30.117   7.506
  767POPC   NC314723  16.146   5.518   9.953
  767POPC   PO414724  15.842   6.051   9.576
  767POPC   GL114725  16.044   5.974   9.174
  767POPC   GL214726  16.075   5.604   9.237
  767POPC   C1A14727  16.116   6.103   8.686
  767POPC   D2A14728  15.949   6.267   8.285
  767POPC   C3A14729  16.057   5.965   7.977
  767POPC   C4A14730  15.906   5.589   7.780
  767POPC   C1B14731  15.986   5.583   8.782
  767POPC   C2B14732  16.249   5.654   8.376
  767POPC   C3B14733  16.351   5.418   7.935
  767POPC   C4B14734  16.210   5.373   7.441
  768POPC   NC314735   4.870  18.474   9.495
  768POPC   PO414736   5.491  18.226   9.458
  768POPC   GL114737   5.233  18.421   9.142
  768POPC   GL214738   4.912  18.258   9.049
  768POPC   C1A14739   5.153  18.587   8.750
  768POPC   D2A14740   5.227  18.386   8.359
  768POPC   C3A14741   5.071  18.589   8.013
  768POPC   C4A14742   5.108  18.429   7.569
  768POPC   C1B14743   5.020  18.045   8.706
  768POPC   C2B14744   4.816  17.988   8.328
  768POPC   C3B14745   4.935  18.102   7.942
  768POPC   C4B14746   5.149  17.896   7.639
  769POPC   NC314747   5.716   1.699   9.299
  769POPC   PO414748   5.547   1.157   9.602
  769POPC   GL114749   5.749   0.970   9.239
  769POPC   GL214750   5.532   0.676   9.199
  769POPC   C1A14751   5.862   1.166   8.824
  769POPC   D2A14752   5.847   1.429   8.451
  769POPC   C3A14753   6.019   1.327   8.024
  769POPC   C4A14754   5.724   1.360   7.671
  769POPC   C1B14755   5.599   0.732   8.780
  769POPC   C2B14756   5.863   0.871   8.404
  769POPC   C3B14757   5.761   0.905   7.956
  769POPC   C4B14758   5.593   0.896   7.520
  770POPC   NC314759  38.474   4.841   9.512
  770POPC   PO414760  38.385   4.218   9.622
  770POPC   GL114761  38.465   4.266   9.172
  770POPC   GL214762  38.365   4.597   9.043
  770POPC   C1A14763  38.451   4.203   8.708
  770POPC   D2A14764  38.590   4.416   8.311
  770POPC   C3A14765  38.644   4.241   7.925
  770POPC   C4A14766  38.290   4.061   7.775
  770POPC   C1B14767  38.540   4.778   8.648
  770POPC   C2B14768  38.367   4.879   8.240
  770POPC   C3B14769  38.232   4.551   7.929
  770POPC   C4B14770  38.233   4.469   7.459
  771POPC   NC314771  19.728  23.987   9.474
  771POPC   PO414772  20.178  23.424   9.549
  771POPC   GL114773  19.950  23.569   9.196
  771POPC   GL214774  19.611  23.513   9.330
  771POPC   C1A14775  19.947  23.908   8.850
  771POPC   D2A14776  19.903  24.142   8.444
  771POPC   C3A14777  19.836  23.950   8.029
  771POPC   C4A14778  20.064  23.695   7.731
  771POPC   C1B14779  19.530  23.601   8.885
  771POPC   C2B14780  19.669  23.674   8.440
  771POPC   C3B14781  19.594  23.512   7.999
  771POPC   C4B14782  19.563  23.173   7.692
  772POPC   NC314783  26.130  32.713   9.316
  772POPC   PO414784  26.147  32.064   9.462
  772POPC   GL114785  25.983  32.262   9.098
  772POPC   GL214786  26.205  32.480   8.883
  772POPC   C1A14787  25.872  32.134   8.698
  772POPC   D2A14788  26.148  32.296   8.398
  772POPC   C3A14789  25.999  32.176   8.023
  772POPC   C4A14790  26.175  32.397   7.701
  772POPC   C1B14791  26.379  32.053   8.809
  772POPC   C2B14792  26.633  31.975   8.468
  772POPC   C3B14793  26.509  32.097   8.063
  772POPC   C4B14794  26.448  31.925   7.685
  773POPC   NC314795  31.045  12.538   9.442
  773POPC   PO414796  30.447  12.713   9.737
  773POPC   GL114797  30.547  12.652   9.231
  773POPC   GL214798  30.401  12.902   8.938
  773POPC   C1A14799  30.818  12.662   8.811
  773POPC   D2A14800  30.907  12.958   8.425
  773POPC   C3A14801  30.826  12.821   7.978
  773POPC   C4A14802  30.751  12.569   7.629
  773POPC   C1B14803  30.380  13.068   8.562
  773POPC   C2B14804  30.474  13.133   8.149
  773POPC   C3B14805  30.402  13.053   7.707
  773POPC   C4B14806  30.136  13.128   7.324
  774POPC   NC314807  10.884  18.395   9.352
  774POPC   PO414808  11.235  18.023   9.761
  774POPC   GL114809  11.350  18.089   9.261
  774POPC   GL214810  11.089  18.134   8.986
  774POPC   C1A14811  11.528  18.310   8.857
  774POPC   D2A14812  11.693  18.268   8.410
  774POPC   C3A14813  11.519  18.444   7.989
  774POPC   C4A14814  11.681  18.370   7.550
  774POPC   C1B14815  10.935  17.898   8.680
  774POPC   C2B14816  11.183  18.100   8.394
  774POPC   C3B14817  11.290  17.995   8.006
  774POPC   C4B14818  11.215  18.184   7.623
  775POPC   NC314819  30.360  34.197   9.263
  775POPC   PO414820  30.825  34.593   9.591
  775POPC   GL114821  30.801  34.416   9.186
  775POPC   GL214822  30.580  34.666   9.109
  775POPC   C1A14823  30.790  34.342   8.722
  775POPC   D2A14824  31.014  34.549   8.381
  775POPC   C3A14825  30.889  34.425   7.974
  775POPC   C4A14826  30.529  34.274   7.795
  775POPC   C1B14827  30.794  34.838   8.746
  775POPC   C2B14828  30.531  34.680   8.415
  775POPC   C3B14829  30.449  34.725   8.024
  775POPC   C4B14830  30.701  34.884   7.724
  776POPC   NC314831  24.051  44.889   9.541
  776POPC   PO414832  23.561  44.456   9.631
  776POPC   GL114833  23.789  44.456   9.279
  776POPC   GL214834  23.721  44.789   9.168
  776POPC   C1A14835  23.887  44.417   8.838
  776POPC   D2A14836  23.863  44.658   8.463
  776POPC   C3A14837  23.705  44.476   8.100
  776POPC   C4A14838  23.922  44.464   7.714
  776POPC   C1B14839  23.442  44.665   8.843
  776POPC   C2B14840  23.361  44.751   8.416
  776POPC   C3B14841  23.574  44.988   8.119
  776POPC   C4B14842  23.588  44.843   7.732
  777POPC   NC314843  31.752   7.331   9.698
  777POPC   PO414844  31.418   7.837   9.514
  777POPC   GL114845  31.580   7.514   9.222
  777POPC   GL214846  31.346   7.712   9.022
  777POPC   C1A14847  31.511   7.292   8.821
  777POPC   D2A14848  31.275   7.528   8.501
  777POPC   C3A14849  31.383   7.439   8.059
  777POPC   C4A14850  31.568   7.066   7.878
  777POPC   C1B14851  31.638   7.780   8.730
  777POPC   C2B14852  31.581   7.942   8.356
  777POPC   C3B14853  31.778   7.822   8.030
  777POPC   C4B14854  31.621   7.760   7.665
  778POPC   NC314855  21.798  41.630   9.311
  778POPC   PO414856  21.169  41.791   9.659
  778POPC   GL114857  21.212  41.556   9.167
  778POPC   GL214858  21.540  41.521   8.906
  778POPC   C1A14859  21.116  41.461   8.678
  778POPC   D2A14860  21.271  41.708   8.282
  778POPC   C3A14861  21.479  41.505   7.903
  778POPC   C4A14862  21.773  41.240   7.666
  778POPC   C1B14863  21.551  41.897   8.653
  778POPC   C2B14864  21.813  42.066   8.373
  778POPC   C3B14865  21.731  41.957   8.013
  778POPC   C4B14866  21.801  41.810   7.626
  779POPC   NC314867  35.703  39.830   9.945
  779POPC   PO414868  35.522  39.440   9.429
  779POPC   GL114869  35.529  39.260   9.045
  779POPC   GL214870  35.265  39.035   9.013
  779POPC   C1A14871  35.518  39.290   8.619
  779POPC   D2A14872  35.405  39.064   8.286
  779POPC   C3A14873  35.468  39.363   8.012
  779POPC   C4A14874  35.706  39.363   7.661
  779POPC   C1B14875  35.028  39.118   8.684
  779POPC   C2B14876  34.942  39.299   8.343
  779POPC   C3B14877  34.973  39.166   7.973
  779POPC   C4B14878  35.111  39.309   7.628
  780POPC   NC314879  14.848  25.692   9.379
  780POPC   PO414880  14.829  24.980   9.490
  780POPC   GL114881  15.031  25.181   9.170
  780POPC   GL214882  15.375  25.175   9.242
  780POPC   C1A14883  15.106  25.392   8.781
  780POPC   D2A14884  15.345  25.535   8.414
  780POPC   C3A14885  15.143  25.352   8.057
  780POPC   C4A14886  14.809  25.361   7.742
  780POPC   C1B14887  15.342  24.895   8.877
  780POPC   C2B14888  15.317  25.018   8.474
  780POPC   C3B14889  15.366  24.892   8.082
  780POPC   C4B14890  15.078  24.925   7.746
  781POPC   NC314891  37.517  43.769   9.710
  781POPC   PO414892  37.871  43.364   9.543
  781POPC   GL114893  37.724  43.650   9.213
  781POPC   GL214894  37.421  43.522   9.079
  781POPC   C1A14895  37.693  43.866   8.783
  781POPC   D2A14896  37.428  44.019   8.429
  781POPC   C3A14897  37.543  43.961   7.979
  781POPC   C4A14898  37.300  43.738   7.642
  781POPC   C1B14899  37.623  43.365   8.686
  781POPC   C2B14900  37.730  43.588   8.307
  781POPC   C3B14901  37.673  43.469   7.879
  781POPC   C4B14902  37.652  43.349   7.439
  782POPC   NC314903  14.230  29.414   9.589
  782POPC   PO414904  14.597  28.808   9.445
  782POPC   GL114905  14.551  29.099   9.149
  782POPC   GL214906  14.841  29.013   8.975
  782POPC   C1A14907  14.413  29.233   8.739
  782POPC   D2A14908  14.398  29.462   8.355
  782POPC   C3A14909  14.071  29.392   8.098
  782POPC   C4A14910  14.218  29.236   7.723
  782POPC   C1B14911  14.808  28.685   8.661
  782POPC   C2B14912  14.726  28.709   8.197
  782POPC   C3B14913  14.673  29.116   7.959
  782POPC   C4B14914  14.753  29.545   7.944
  783POPC   NC314915  30.291  12.285   9.622
  783POPC   PO414916  30.868  12.026   9.414
  783POPC   GL114917  30.750  12.209   9.098
  783POPC   GL214918  30.425  12.105   9.145
  783POPC   C1A14919  30.704  12.178   8.691
  783POPC   D2A14920  30.672  11.959   8.351
  783POPC   C3A14921  30.721  12.264   8.053
  783POPC   C4A14922  30.750  12.032   7.704
  783POPC   C1B14923  30.263  11.953   8.740
  783POPC   C2B14924  30.222  12.192   8.366
  783POPC   C3B14925  30.267  12.046   7.974
  783POPC   C4B14926  30.323  12.293   7.638
  784POPC   NC314927  37.076  37.014   9.434
  784POPC   PO414928  36.996  36.379   9.482
  784POPC   GL114929  36.991  36.623   9.089
  784POPC   GL214930  36.845  36.979   8.999
  784POPC   C1A14931  37.149  36.698   8.695
  784POPC   D2A14932  37.198  37.037   8.420
  784POPC   C3A14933  37.157  36.835   8.040
  784POPC   C4A14934  36.917  36.867   7.702
  784POPC   C1B14935  36.673  37.315   8.767
  784POPC   C2B14936  36.797  37.386   8.352
  784POPC   C3B14937  36.620  37.153   8.001
  784POPC   C4B14938  36.391  37.194   7.609
  785POPC   NC314939   2.440  36.314   9.513
  785POPC   PO414940   1.779  36.077   9.420
  785POPC   GL114941   2.047  35.997   9.097
  785POPC   GL214942   2.192  36.313   9.076
  785POPC   C1A14943   1.998  36.073   8.664
  785POPC   D2A14944   2.198  35.860   8.349
  785POPC   C3A14945   1.991  35.853   7.988
  785POPC   C4A14946   2.202  36.029   7.685
  785POPC   C1B14947   2.293  36.570   8.733
  785POPC   C2B14948   2.248  36.387   8.328
  785POPC   C3B14949   2.376  36.517   7.950
  785POPC   C4B14950   2.215  36.513   7.489
  786POPC   NC314951  22.672   9.694   9.627
  786POPC   PO414952  23.240   9.974   9.600
  786POPC   GL114953  22.878  10.000   9.250
  786POPC   GL214954  22.604   9.714   9.133
  786POPC   C1A14955  22.883   9.946   8.795
  786POPC   D2A14956  23.207   9.977   8.510
  786POPC   C3A14957  23.095  10.052   8.127
  786POPC   C4A14958  22.866   9.839   7.828
  786POPC   C1B14959  22.449   9.678   8.687
  786POPC   C2B14960  22.541   9.400   8.295
  786POPC   C3B14961  22.596   9.263   7.858
  786POPC   C4B14962  22.494   9.372   7.430
  787POPC   NC314963   5.734  33.117   9.622
  787POPC   PO414964   5.446  32.564   9.376
  787POPC   GL114965   5.655  32.907   9.135
  787POPC   GL214966   5.605  33.297   9.129
  787POPC   C1A14967   5.657  33.005   8.700
  787POPC   D2A14968   5.996  33.104   8.459
  787POPC   C3A14969   6.025  32.852   8.083
  787POPC   C4A14970   5.799  32.779   7.678
  787POPC   C1B14971   5.696  33.517   8.713
  787POPC   C2B14972   5.871  33.597   8.309
  787POPC   C3B14973   6.185  33.372   8.072
  787POPC   C4B14974   6.175  33.144   7.673
  788POPC   NC314975  40.571  27.303   9.507
  788POPC   PO414976  41.133  27.661   9.568
  788POPC   GL114977  41.003  27.557   9.118
  788POPC   GL214978  40.711  27.338   9.023
  788POPC   C1A14979  40.800  27.735   8.720
  788POPC   D2A14980  40.649  27.570   8.334
  788POPC   C3A14981  40.617  27.802   7.958
  788POPC   C4A14982  40.765  27.674   7.563
  788POPC   C1B14983  40.383  27.210   8.737
  788POPC   C2B14984  40.227  27.284   8.284
  788POPC   C3B14985  40.488  27.300   7.872
  788POPC   C4B14986  40.690  27.194   7.447
  789POPC   NC314987  13.751  21.744   9.587
  789POPC   PO414988  13.756  21.085   9.537
  789POPC   GL114989  13.539  21.281   9.192
  789POPC   GL214990  13.806  21.499   9.134
  789POPC   C1A14991  13.305  21.283   8.787
  789POPC   D2A14992  13.510  21.196   8.397
  789POPC   C3A14993  13.331  21.142   8.002
  789POPC   C4A14994  13.720  21.278   7.789
  789POPC   C1B14995  13.545  21.740   8.868
  789POPC   C2B14996  13.466  21.734   8.468
  789POPC   C3B14997  13.726  21.731   8.119
  789POPC   C4B14998  13.745  21.805   7.698
  790POPC   NC314999  18.004  37.163   9.616
  790POPC   PO415000  17.682  37.810   9.654
  790POPC   GL115001  17.408  37.753   9.268
  790POPC   GL215002  17.225  38.062   9.171
  790POPC   C1A15003  17.458  37.528   8.855
  790POPC   D2A15004  17.618  37.726   8.474
  790POPC   C3A15005  17.583  37.573   8.033
  790POPC   C4A15006  17.830  37.542   7.679
  790POPC   C1B15007  17.198  37.949   8.737
  790POPC   C2B15008  17.234  38.079   8.351
  790POPC   C3B15009  17.249  37.965   7.935
  790POPC   C4B15010  17.307  37.823   7.540
  791POPC   NC315011   3.085  39.191   9.579
  791POPC   PO415012   2.483  39.069   9.438
  791POPC   GL115013   2.816  39.193   9.164
  791POPC   GL215014   3.097  38.967   9.125
  791POPC   C1A15015   2.816  39.433   8.842
  791POPC   D2A15016   2.598  39.263   8.538
  791POPC   C3A15017   2.819  39.260   8.191
  791POPC   C4A15018   2.594  39.434   7.871
  791POPC   C1B15019   2.896  38.897   8.730
  791POPC   C2B15020   2.671  38.771   8.347
  791POPC   C3B15021   2.828  38.736   7.931
  791POPC   C4B15022   2.995  39.088   7.742
  792POPC   NC315023  26.954  41.359   9.566
  792POPC   PO415024  26.450  41.818   9.482
  792POPC   GL115025  26.751  41.689   9.199
  792POPC   GL215026  26.639  41.367   9.104
  792POPC   C1A15027  26.773  41.729   8.743
  792POPC   D2A15028  26.659  41.549   8.354
  792POPC   C3A15029  26.857  41.716   7.986
  792POPC   C4A15030  27.032  41.768   7.570
  792POPC   C1B15031  27.088  41.380   8.934
  792POPC   C2B15032  27.125  41.400   8.516
  792POPC   C3B15033  27.045  41.270   8.102
  792POPC   C4B15034  27.259  41.258   7.746
  793POPC   NC315035  42.953  42.411   9.473
  793POPC   PO415036  43.499  42.126   9.402
  793POPC   GL115037  43.253  42.278   9.072
  793POPC   GL215038  42.995  42.023   9.113
  793POPC   C1A15039  43.021  42.570   8.797
  793POPC   D2A15040  42.727  42.635   8.461
  793POPC   C3A15041  42.980  42.611   8.085
  793POPC   C4A15042  43.052  42.410   7.719
  793POPC   C1B15043  42.983  42.088   8.656
  793POPC   C2B15044  42.803  42.153   8.237
  793POPC   C3B15045  42.839  41.984   7.808
  793POPC   C4B15046  42.859  41.782   7.384
  794POPC   NC315047  35.071  37.137   9.410
  794POPC   PO415048  35.769  36.893   9.522
  794POPC   GL115049  35.516  36.992   9.139
  794POPC   GL215050  35.266  36.758   9.052
  794POPC   C1A15051  35.245  37.177   8.769
  794POPC   D2A15052  34.998  37.125   8.369
  794POPC   C3A15053  35.120  37.200   7.919
  794POPC   C4A15054  35.523  37.082   7.702
  794POPC   C1B15055  35.421  36.697   8.613
  794POPC   C2B15056  35.382  36.762   8.145
  794POPC   C3B15057  35.413  36.588   7.716
  794POPC   C4B15058  35.320  36.299   7.380
  795POPC   NC315059  42.103  43.687   9.447
  795POPC   PO415060  42.716  43.753   9.672
  795POPC   GL115061  42.534  43.891   9.225
  795POPC   GL215062  42.197  44.114   9.173
  795POPC   C1A15063  42.436  43.921   8.749
  795POPC   D2A15064  42.606  44.185   8.391
  795POPC   C3A15065  42.553  44.079   7.965
  795POPC   C4A15066  42.174  44.083   7.702
  795POPC   C1B15067  42.065  44.324   8.760
  795POPC   C2B15068  42.112  44.203   8.322
  795POPC   C3B15069  42.188  43.792   8.173
  795POPC   C4B15070  42.003  43.600   7.839
  796POPC   NC315071  20.566  13.727   9.544
  796POPC   PO415072  20.915  13.216   9.204
  796POPC   GL115073  20.805  13.648   9.114
  796POPC   GL215074  20.408  13.717   9.079
  796POPC   C1A15075  20.789  13.881   8.774
  796POPC   D2A15076  20.703  13.672   8.408
  796POPC   C3A15077  20.684  13.874   8.027
  796POPC   C4A15078  20.849  13.603   7.676
  796POPC   C1B15079  20.265  13.605   8.707
  796POPC   C2B15080  20.223  13.843   8.368
  796POPC   C3B15081  20.138  13.943   7.967
  796POPC   C4B15082  20.317  13.595   7.804
  797POPC   NC315083  20.107  42.135   9.411
  797POPC   PO415084  20.662  42.467   9.561
  797POPC   GL115085  20.521  42.325   9.170
  797POPC   GL215086  20.822  42.365   9.047
  797POPC   C1A15087  20.484  42.062   8.768
  797POPC   D2A15088  20.450  42.206   8.320
  797POPC   C3A15089  20.447  42.168   7.871
  797POPC   C4A15090  20.220  42.498   7.649
  797POPC   C1B15091  20.721  42.498   8.660
  797POPC   C2B15092  20.876  42.502   8.266
  797POPC   C3B15093  20.581  42.644   8.013
  797POPC   C4B15094  20.588  42.850   7.658
  798POPC   NC315095   6.340   0.951   9.523
  798POPC   PO415096   6.569   1.555   9.536
  798POPC   GL115097   6.597   1.240   9.179
  798POPC   GL215098   6.255   1.267   9.127
  798POPC   C1A15099   6.820   1.210   8.769
  798POPC   D2A15100   6.954   1.039   8.361
  798POPC   C3A15101   6.844   1.245   7.955
  798POPC   C4A15102   6.990   1.110   7.545
  798POPC   C1B15103   6.352   1.010   8.769
  798POPC   C2B15104   6.396   0.847   8.346
  798POPC   C3B15105   6.402   0.925   7.894
  798POPC   C4B15106   6.101   1.023   7.570
  799POPC   NC315107  24.406  43.959   9.503
  799POPC   PO415108  24.737  44.443   9.278
  799POPC   GL115109  24.567  44.099   9.036
  799POPC   GL215110  24.188  44.073   9.042
  799POPC   C1A15111  24.446  43.787   8.693
  799POPC   D2A15112  24.201  43.881   8.308
  799POPC   C3A15113  24.423  43.703   7.962
  799POPC   C4A15114  24.864  43.681   7.932
  799POPC   C1B15115  24.331  44.276   8.624
  799POPC   C2B15116  24.760  44.336   8.413
  799POPC   C3B15117  24.728  44.413   7.962
  799POPC   C4B15118  24.368  44.208   7.748
  800POPC   NC315119   8.498  32.135   9.846
  800POPC   PO415120   8.327  32.506   9.366
  800POPC   GL115121   8.390  32.253   9.032
  800POPC   GL215122   8.572  31.979   9.190
  800POPC   C1A15123   8.162  32.283   8.655
  800POPC   D2A15124   8.323  32.403   8.267
  800POPC   C3A15125   8.207  32.310   7.881
  800POPC   C4A15126   8.247  32.537   7.568
  800POPC   C1B15127   8.510  31.862   8.740
  800POPC   C2B15128   8.286  31.892   8.350
  800POPC   C3B15129   8.481  31.891   7.959
  800POPC   C4B15130   8.289  31.879   7.573
  801POPC   NC315131  18.151  41.081   9.861
  801POPC   PO415132  18.164  41.689   9.530
  801POPC   GL115133  18.312  41.449   9.165
  801POPC   GL215134  18.458  41.130   9.246
  801POPC   C1A15135  18.421  41.574   8.734
  801POPC   D2A15136  18.632  41.817   8.411
  801POPC   C3A15137  18.392  41.789   8.038
  801POPC   C4A15138  18.063  41.758   7.741
  801POPC   C1B15139  18.481  41.022   8.833
  801POPC   C2B15140  18.336  41.117   8.436
  801POPC   C3B15141  18.561  41.287   8.106
  801POPC   C4B15142  18.505  41.445   7.705
  802POPC   NC315143  41.532  42.834   9.386
  802POPC   PO415144  41.260  43.444   9.451
  802POPC   GL115145  41.620  43.293   9.162
  802POPC   GL215146  41.395  43.067   8.971
  802POPC   C1A15147  41.918  43.112   8.799
  802POPC   D2A15148  41.741  42.981   8.359
  802POPC   C3A15149  41.856  43.122   7.925
  802POPC   C4A15150  41.688  43.336   7.507
  802POPC   C1B15151  41.486  43.312   8.658
  802POPC   C2B15152  41.236  43.154   8.377
  802POPC   C3B15153  41.219  42.859   8.116
  802POPC   C4B15154  41.402  43.002   7.765
  803POPC   NC315155  22.261  31.815   9.399
  803POPC   PO415156  22.254  31.103   9.359
  803POPC   GL115157  22.291  31.421   9.078
  803POPC   GL215158  21.962  31.561   9.050
  803POPC   C1A15159  22.251  31.343   8.658
  803POPC   D2A15160  22.567  31.174   8.377
  803POPC   C3A15161  22.414  31.394   8.021
  803POPC   C4A15162  22.126  31.319   7.730
  803POPC   C1B15163  21.720  31.779   8.718
  803POPC   C2B15164  21.857  31.947   8.323
  803POPC   C3B15165  21.920  31.732   7.938
  803POPC   C4B15166  21.898  31.702   7.458
  804POPC   NC315167  26.368  40.738   9.769
  804POPC   PO415168  25.910  41.001   9.406
  804POPC   GL115169  26.233  41.006   9.122
  804POPC   GL215170  26.102  40.728   8.974
  804POPC   C1A15171  26.255  41.199   8.716
  804POPC   D2A15172  26.211  40.905   8.370
  804POPC   C3A15173  26.058  40.977   7.986
  804POPC   C4A15174  26.255  40.954   7.610
  804POPC   C1B15175  26.018  40.505   8.611
  804POPC   C2B15176  26.008  40.373   8.186
  804POPC   C3B15177  26.106  40.501   7.792
  804POPC   C4B15178  25.845  40.444   7.462
  805POPC   NC315179  33.859  34.799   9.637
  805POPC   PO415180  34.048  34.173   9.656
  805POPC   GL115181  34.019  34.473   9.263
  805POPC   GL215182  33.740  34.382   9.091
  805POPC   C1A15183  34.155  34.554   8.794
  805POPC   D2A15184  33.938  34.456   8.351
  805POPC   C3A15185  33.999  34.544   7.880
  805POPC   C4A15186  34.085  34.382   7.445
  805POPC   C1B15187  33.664  34.588   8.754
  805POPC   C2B15188  33.646  34.915   8.496
  805POPC   C3B15189  33.651  34.894   8.077
  805POPC   C4B15190  33.684  34.894   7.649
  806POPC   NC315191  34.144  37.490   9.532
  806POPC   PO415192  33.384  37.475   9.582
  806POPC   GL115193  33.625  37.725   9.253
  806POPC   GL215194  34.004  37.823   9.180
  806POPC   C1A15195  33.720  37.574   8.847
  806POPC   D2A15196  33.622  37.701   8.468
  806POPC   C3A15197  33.703  37.495   8.102
  806POPC   C4A15198  33.868  37.742   7.798
  806POPC   C1B15199  34.218  37.479   8.888
  806POPC   C2B15200  34.060  37.441   8.482
  806POPC   C3B15201  34.202  37.448   8.083
  806POPC   C4B15202  34.215  37.309   7.691
  807POPC   NC315203  40.311  38.344   9.485
  807POPC   PO415204  40.922  38.736   9.438
  807POPC   GL115205  40.700  38.540   9.109
  807POPC   GL215206  40.391  38.691   9.126
  807POPC   C1A15207  40.753  38.653   8.669
  807POPC   D2A15208  41.091  38.923   8.512
  807POPC   C3A15209  41.187  38.767   8.105
  807POPC   C4A15210  40.895  38.661   7.787
  807POPC   C1B15211  40.312  38.416   8.759
  807POPC   C2B15212  40.532  38.304   8.349
  807POPC   C3B15213  40.581  38.255   7.901
  807POPC   C4B15214  40.398  38.397   7.534
  808POPC   NC315215   8.274   8.376   9.570
  808POPC   PO415216   7.752   8.105   9.460
  808POPC   GL115217   8.104   8.070   9.179
  808POPC   GL215218   8.172   8.412   9.058
  808POPC   C1A15219   8.247   8.001   8.757
  808POPC   D2A15220   8.388   8.130   8.372
  808POPC   C3A15221   8.234   7.999   8.018
  808POPC   C4A15222   8.351   8.375   7.847
  808POPC   C1B15223   7.805   8.265   8.809
  808POPC   C2B15224   7.886   8.175   8.393
  808POPC   C3B15225   7.866   8.397   8.035
  808POPC   C4B15226   7.839   8.122   7.725
  809POPC   NC315227  12.146   0.990   9.580
  809POPC   PO415228  11.562   1.354   9.577
  809POPC   GL115229  11.809   1.164   9.229
  809POPC   GL215230  12.073   1.373   9.172
  809POPC   C1A15231  11.921   1.001   8.800
  809POPC   D2A15232  12.143   0.850   8.413
  809POPC   C3A15233  11.916   0.968   8.064
  809POPC   C4A15234  12.025   1.062   7.652
  809POPC   C1B15235  12.164   1.481   8.764
  809POPC   C2B15236  11.972   1.379   8.391
  809POPC   C3B15237  12.104   1.473   7.992
  809POPC   C4B15238  11.888   1.714   7.736
  810POPC   NC315239   1.498   6.784   9.515
  810POPC   PO415240   0.866   6.801   9.720
  810POPC   GL115241   1.044   6.837   9.299
  810POPC   GL215242   0.917   6.583   9.196
  810POPC   C1A15243   1.301   6.762   8.885
  810POPC   D2A15244   1.455   6.507   8.520
  810POPC   C3A15245   1.356   6.678   8.103
  810POPC   C4A15246   1.362   6.576   7.669
  810POPC   C1B15247   0.868   6.519   8.780
  810POPC   C2B15248   0.915   6.627   8.365
  810POPC   C3B15249   0.927   6.397   7.965
  810POPC   C4B15250   0.960   6.307   7.526
  811POPC   NC315251  24.787  33.489   9.479
  811POPC   PO415252  24.862  32.858   9.403
  811POPC   GL115253  24.684  32.756   9.004
  811POPC   GL215254  24.361  32.837   9.080
  811POPC   C1A15255  24.655  32.694   8.544
  811POPC   D2A15256  24.720  32.711   8.102
  811POPC   C3A15257  24.494  33.048   7.904
  811POPC   C4A15258  24.630  33.370   7.598
  811POPC   C1B15259  24.154  32.816   8.672
  811POPC   C2B15260  24.202  32.725   8.239
  811POPC   C3B15261  24.042  32.728   7.796
  811POPC   C4B15262  23.793  33.003   7.509
  812POPC   NC315263  15.506  33.687   9.415
  812POPC   PO415264  15.032  34.061   9.672
  812POPC   GL115265  15.087  33.932   9.235
  812POPC   GL215266  14.760  33.827   9.141
  812POPC   C1A15267  15.397  33.989   8.862
  812POPC   D2A15268  15.333  34.086   8.441
  812POPC   C3A15269  15.350  33.743   8.162
  812POPC   C4A15270  15.391  33.598   7.764
  812POPC   C1B15271  14.912  33.809   8.744
  812POPC   C2B15272  14.905  33.575   8.382
  812POPC   C3B15273  14.912  33.581   7.929
  812POPC   C4B15274  14.992  33.848   7.547
  813POPC   NC315275  36.433  20.320   9.469
  813POPC   PO415276  37.040  20.726   9.428
  813POPC   GL115277  36.703  20.611   9.127
  813POPC   GL215278  36.487  20.837   8.947
  813POPC   C1A15279  36.524  20.312   8.840
  813POPC   D2A15280  36.538  20.132   8.448
  813POPC   C3A15281  36.842  20.294   8.166
  813POPC   C4A15282  36.718  20.457   7.758
  813POPC   C1B15283  36.802  20.681   8.602
  813POPC   C2B15284  37.122  20.760   8.263
  813POPC   C3B15285  37.114  20.806   7.801
  813POPC   C4B15286  37.230  21.089   7.452
  814POPC   NC315287  41.583   2.833   9.785
  814POPC   PO415288  41.742   2.189   9.728
  814POPC   GL115289  41.707   2.456   9.320
  814POPC   GL215290  41.644   2.839   9.248
  814POPC   C1A15291  41.536   2.530   8.859
  814POPC   D2A15292  41.451   2.843   8.514
  814POPC   C3A15293  41.568   2.729   8.117
  814POPC   C4A15294  41.356   2.551   7.795
  814POPC   C1B15295  41.822   2.972   8.819
  814POPC   C2B15296  41.891   3.074   8.334
  814POPC   C3B15297  41.639   3.166   7.906
  814POPC   C4B15298  41.483   2.981   7.525
  815POPC   NC315299   8.768  38.339   9.416
  815POPC   PO415300   9.315  38.825   9.476
  815POPC   GL115301   9.068  38.671   9.151
  815POPC   GL215302   8.725  38.767   9.112
  815POPC   C1A15303   9.074  38.345   8.825
  815POPC   D2A15304   8.890  38.135   8.485
  815POPC   C3A15305   8.999  38.392   8.163
  815POPC   C4A15306   9.071  38.374   7.747
  815POPC   C1B15307   8.579  38.516   8.755
  815POPC   C2B15308   8.505  38.544   8.307
  815POPC   C3B15309   8.640  38.601   7.861
  815POPC   C4B15310   8.847  38.737   7.460
  816POPC   NC315311   9.326  31.684   9.511
  816POPC   PO415312   8.981  31.115   9.638
  816POPC   GL115313   8.945  31.397   9.287
  816POPC   GL215314   9.278  31.339   9.131
  816POPC   C1A15315   8.971  31.705   8.936
  816POPC   D2A15316   9.061  31.766   8.503
  816POPC   C3A15317   8.951  31.737   8.089
  816POPC   C4A15318   9.161  31.511   7.804
  816POPC   C1B15319   9.130  31.261   8.692
  816POPC   C2B15320   9.004  31.259   8.258
  816POPC   C3B15321   8.965  31.019   7.903
  816POPC   C4B15322   8.717  30.677   7.729
  817POPC   NC315323  10.532  38.721   9.681
  817POPC   PO415324  10.161  38.161   9.840
  817POPC   GL115325  10.436  38.261   9.384
  817POPC   GL215326  10.644  38.577   9.220
  817POPC   C1A15327  10.460  38.266   8.878
  817POPC   D2A15328  10.502  38.412   8.433
  817POPC   C3A15329  10.569  38.244   8.032
  817POPC   C4A15330  10.450  38.485   7.714
  817POPC   C1B15331  10.629  38.752   8.801
  817POPC   C2B15332  10.821  38.819   8.359
  817POPC   C3B15333  10.846  38.724   7.906
  817POPC   C4B15334  10.757  38.748   7.417
  818POPC   NC315335  33.415  10.310   9.416
  818POPC   PO415336  33.013  10.738   9.744
  818POPC   GL115337  33.098  10.696   9.261
  818POPC   GL215338  32.919  10.407   9.142
  818POPC   C1A15339  32.969  10.778   8.797
  818POPC   D2A15340  32.809  10.997   8.418
  818POPC   C3A15341  32.651  10.731   8.078
  818POPC   C4A15342  32.873  10.434   7.804
  818POPC   C1B15343  33.090  10.288   8.702
  818POPC   C2B15344  33.017  10.312   8.259
  818POPC   C3B15345  33.293  10.147   7.874
  818POPC   C4B15346  33.297  10.265   7.386
  819POPC   NC315347   0.862   6.339   9.647
  819POPC   PO415348   0.294   6.677   9.487
  819POPC   GL115349   0.411   6.715   9.087
  819POPC   GL215350   0.624   6.985   9.041
  819POPC   C1A15351   0.425   6.750   8.657
  819POPC   D2A15352   0.545   6.988   8.347
  819POPC   C3A15353   0.455   6.688   8.080
  819POPC   C4A15354   0.313   6.635   7.700
  819POPC   C1B15355   0.908   7.064   8.713
  819POPC   C2B15356   1.050   7.102   8.275
  819POPC   C3B15357   0.885   6.897   7.903
  819POPC   C4B15358   0.948   6.816   7.445
  820POPC   NC315359  17.821   0.921   9.883
  820POPC   PO415360  17.493   1.281   9.412
  820POPC   GL115361  17.395   1.377   9.052
  820POPC   GL215362  17.295   1.699   9.081
  820POPC   C1A15363  17.586   1.214   8.699
  820POPC   D2A15364  17.513   0.963   8.388
  820POPC   C3A15365  17.435   1.241   8.075
  820POPC   C4A15366  17.391   1.119   7.678
  820POPC   C1B15367  17.622   1.724   8.740
  820POPC   C2B15368  17.882   1.673   8.355
  820POPC   C3B15369  17.828   1.659   7.905
  820POPC   C4B15370  17.788   1.506   7.493
  821POPC   NC315371  16.132   9.338   9.731
  821POPC   PO415372  15.860   8.645   9.581
  821POPC   GL115373  16.062   8.900   9.214
  821POPC   GL215374  16.087   9.236   9.236
  821POPC   C1A15375  16.091   8.943   8.748
  821POPC   D2A15376  16.179   8.850   8.300
  821POPC   C3A15377  15.894   8.926   7.952
  821POPC   C4A15378  15.934   8.743   7.544
  821POPC   C1B15379  16.193   9.427   8.848
  821POPC   C2B15380  16.326   9.330   8.416
  821POPC   C3B15381  16.135   9.390   8.018
  821POPC   C4B15382  16.087   9.250   7.574
  822POPC   NC315383   2.879  20.316   9.508
  822POPC   PO415384   2.966  20.902   9.161
  822POPC   GL115385   2.831  20.512   9.024
  822POPC   GL215386   3.144  20.344   9.079
  822POPC   C1A15387   2.650  20.567   8.620
  822POPC   D2A15388   2.802  20.748   8.250
  822POPC   C3A15389   2.611  20.798   7.879
  822POPC   C4A15390   2.552  20.606   7.472
  822POPC   C1B15391   3.134  20.250   8.660
  822POPC   C2B15392   3.180  20.420   8.259
  822POPC   C3B15393   2.979  20.440   7.839
  822POPC   C4B15394   3.004  20.311   7.404
  823POPC   NC315395  25.202  32.747   9.686
  823POPC   PO415396  25.331  33.407   9.599
  823POPC   GL115397  25.285  33.119   9.201
  823POPC   GL215398  25.332  32.753   9.205
  823POPC   C1A15399  25.429  33.047   8.729
  823POPC   D2A15400  25.561  33.015   8.265
  823POPC   C3A15401  25.237  33.149   7.980
  823POPC   C4A15402  25.161  33.457   7.664
  823POPC   C1B15403  25.142  32.644   8.834
  823POPC   C2B15404  25.169  32.656   8.398
  823POPC   C3B15405  25.209  32.641   7.955
  823POPC   C4B15406  25.414  32.855   7.597
  824POPC   NC315407  33.153  13.250   9.291
  824POPC   PO415408  33.065  12.571   9.500
  824POPC   GL115409  33.080  12.767   9.110
  824POPC   GL215410  32.797  12.944   9.098
  824POPC   C1A15411  33.065  12.943   8.674
  824POPC   D2A15412  33.329  13.126   8.359
  824POPC   C3A15413  33.170  13.047   7.951
  824POPC   C4A15414  33.438  13.086   7.599
  824POPC   C1B15415  32.631  12.614   8.886
  824POPC   C2B15416  32.775  12.496   8.519
  824POPC   C3B15417  32.782  12.815   8.212
  824POPC   C4B15418  32.613  12.841   7.803
  825POPC   NC315419  34.091  17.883   9.460
  825POPC   PO415420  33.676  18.349   9.614
  825POPC   GL115421  33.793  18.368   9.197
  825POPC   GL215422  34.020  18.671   9.203
  825POPC   C1A15423  33.657  18.254   8.777
  825POPC   D2A15424  33.667  18.129   8.354
  825POPC   C3A15425  33.524  18.289   7.929
  825POPC   C4A15426  33.550  18.021   7.579
  825POPC   C1B15427  34.099  18.496   8.779
  825POPC   C2B15428  34.057  18.445   8.309
  825POPC   C3B15429  33.965  18.553   7.851
  825POPC   C4B15430  34.144  18.689   7.436
  826POPC   NC315431  24.821   0.608   9.488
  826POPC   PO415432  24.288   0.253   9.374
  826POPC   GL115433  24.421   0.462   9.070
  826POPC   GL215434  24.736   0.358   9.055
  826POPC   C1A15435  24.348   0.366   8.663
  826POPC   D2A15436  24.411   0.567   8.305
  826POPC   C3A15437  24.432   0.343   7.932
  826POPC   C4A15438  24.470   0.629   7.573
  826POPC   C1B15439  24.781   0.631   8.702
  826POPC   C2B15440  24.981   0.718   8.341
  826POPC   C3B15441  24.815   0.682   7.960
  826POPC   C4B15442  24.935   0.415   7.650
  827POPC   NC315443  39.715   7.385   9.426
  827POPC   PO415444  40.414   7.159   9.366
  827POPC   GL115445  40.165   7.531   9.160
  827POPC   GL215446  39.828   7.514   8.944
  827POPC   C1A15447  40.269   7.643   8.734
  827POPC   D2A15448  40.549   7.584   8.376
  827POPC   C3A15449  40.310   7.573   7.991
  827POPC   C4A15450  39.936   7.640   7.756
  827POPC   C1B15451  40.073   7.192   8.786
  827POPC   C2B15452  40.198   7.190   8.379
  827POPC   C3B15453  40.036   7.118   7.988
  827POPC   C4B15454  39.739   7.168   7.698
  828POPC   NC315455   3.665  38.792   9.584
  828POPC   PO415456   3.437  39.484   9.570
  828POPC   GL115457   3.450  39.363   9.184
  828POPC   GL215458   3.705  39.119   9.209
  828POPC   C1A15459   3.320  39.295   8.783
  828POPC   D2A15460   3.539  39.361   8.428
  828POPC   C3A15461   3.338  39.331   8.075
  828POPC   C4A15462   3.474  39.232   7.688
  828POPC   C1B15463   3.936  38.841   8.891
  828POPC   C2B15464   3.873  38.903   8.445
  828POPC   C3B15465   4.036  38.783   8.038
  828POPC   C4B15466   3.833  38.861   7.671
  829POPC   NC315467  28.208  21.414   9.894
  829POPC   PO415468  28.739  21.372   9.559
  829POPC   GL115469  28.629  21.363   9.132
  829POPC   GL215470  28.929  21.259   9.042
  829POPC   C1A15471  28.519  21.255   8.674
  829POPC   D2A15472  28.289  21.466   8.318
  829POPC   C3A15473  28.374  21.412   7.875
  829POPC   C4A15474  28.059  21.400   7.505
  829POPC   C1B15475  28.820  21.649   8.747
  829POPC   C2B15476  28.761  21.650   8.274
  829POPC   C3B15477  28.819  21.656   7.839
  829POPC   C4B15478  28.847  21.315   7.528
  830POPC   NC315479  27.520  15.663   9.666
  830POPC   PO415480  27.755  16.189   9.688
  830POPC   GL115481  27.714  15.900   9.250
  830POPC   GL215482  27.364  15.758   9.163
  830POPC   C1A15483  27.646  15.897   8.755
  830POPC   D2A15484  27.846  15.834   8.323
  830POPC   C3A15485  27.699  15.845   7.870
  830POPC   C4A15486  27.702  16.006   7.431
  830POPC   C1B15487  27.193  15.664   8.711
  830POPC   C2B15488  27.338  15.752   8.255
  830POPC   C3B15489  27.197  15.945   7.829
  830POPC   C4B15490  27.149  15.996   7.360
  831POPC   NC315491  35.430  40.941   9.445
  831POPC   PO415492  35.356  40.339   9.325
  831POPC   GL115493  35.350  40.648   9.035
  831POPC   GL215494  35.121  40.921   9.062
  831POPC   C1A15495  35.590  40.617   8.701
  831POPC   D2A15496  35.519  40.394   8.383
  831POPC   C3A15497  35.606  40.609   8.055
  831POPC   C4A15498  35.403  40.582   7.654
  831POPC   C1B15499  35.287  41.025   8.686
  831POPC   C2B15500  35.241  40.883   8.293
  831POPC   C3B15501  35.377  41.035   7.919
  831POPC   C4B15502  35.548  41.312   7.653
  832POPC   NC315503  11.900  19.971   9.545
  832POPC   PO415504  12.532  19.775   9.539
  832POPC   GL115505  12.193  19.697   9.227
  832POPC   GL215506  12.075  20.013   9.079
  832POPC   C1A15507  11.999  19.524   8.853
  832POPC   D2A15508  11.977  19.671   8.442
  832POPC   C3A15509  12.050  19.458   8.077
  832POPC   C4A15510  12.119  19.620   7.680
  832POPC   C1B15511  12.002  20.182   8.684
  832POPC   C2B15512  11.742  20.109   8.324
  832POPC   C3B15513  11.970  20.002   7.993
  832POPC   C4B15514  12.017  20.191   7.614
  833POPC   NC315515  38.006  14.612   9.457
  833POPC   PO415516  37.464  14.326   9.499
  833POPC   GL115517  37.527  14.673   9.239
  833POPC   GL215518  37.711  14.464   9.052
  833POPC   C1A15519  37.446  14.821   8.830
  833POPC   D2A15520  37.423  14.636   8.423
  833POPC   C3A15521  37.734  14.517   8.113
  833POPC   C4A15522  37.497  14.810   7.872
  833POPC   C1B15523  37.802  14.350   8.635
  833POPC   C2B15524  38.034  14.101   8.357
  833POPC   C3B15525  37.847  13.989   7.972
  833POPC   C4B15526  38.081  14.208   7.668
  834POPC   NC315527  37.191  25.837   9.642
  834POPC   PO415528  36.674  26.137   9.498
  834POPC   GL115529  36.935  25.967   9.186
  834POPC   GL215530  36.846  26.261   9.015
  834POPC   C1A15531  37.174  25.929   8.776
  834POPC   D2A15532  37.305  25.906   8.324
  834POPC   C3A15533  36.939  25.884   8.044
  834POPC   C4A15534  36.741  25.823   7.646
  834POPC   C1B15535  36.655  25.949   8.742
  834POPC   C2B15536  36.519  25.938   8.320
  834POPC   C3B15537  36.531  26.174   7.929
  834POPC   C4B15538  36.665  26.360   7.507
  835POPC   NC315539  44.291  30.111   9.690
  835POPC   PO415540  44.678  30.644   9.520
  835POPC   GL115541  44.483  30.682   9.140
  835POPC   GL215542  44.851  30.651   9.012
  835POPC   C1A15543  44.443  30.499   8.743
  835POPC   D2A15544  44.837  30.614   8.499
  835POPC   C3A15545  44.775  30.844   8.153
  835POPC   C4A15546  44.641  30.645   7.775
  835POPC   C1B15547   0.202  30.396   8.795
  835POPC   C2B15548   0.254  30.319   8.343
  835POPC   C3B15549   0.075  30.469   7.967
  835POPC   C4B15550   0.111  30.590   7.544
  836POPC   NC315551  38.714   5.425   9.302
  836POPC   PO415552  38.145   5.167   9.421
  836POPC   GL115553  38.381   5.123   9.037
  836POPC   GL215554  38.713   4.983   9.055
  836POPC   C1A15555  38.403   5.269   8.618
  836POPC   D2A15556  38.169   5.513   8.339
  836POPC   C3A15557  38.288   5.400   7.940
  836POPC   C4A15558  38.311   5.009   7.741
  836POPC   C1B15559  38.899   5.173   8.703
  836POPC   C2B15560  38.837   5.116   8.281
  836POPC   C3B15561  38.775   5.282   7.889
  836POPC   C4B15562  38.658   5.252   7.466
  837POPC   NC315563  10.921  17.405   9.486
  837POPC   PO415564  10.742  16.621   9.432
  837POPC   GL115565  10.449  16.590   9.078
  837POPC   GL215566  10.222  16.883   9.000
  837POPC   C1A15567  10.620  16.758   8.689
  837POPC   D2A15568  10.888  17.036   8.455
  837POPC   C3A15569  10.667  16.990   8.093
  837POPC   C4A15570  10.614  16.655   7.762
  837POPC   C1B15571  10.096  16.591   8.644
  837POPC   C2B15572  10.071  16.453   8.204
  837POPC   C3B15573  10.190  16.785   7.969
  837POPC   C4B15574  10.126  16.903   7.560
  838POPC   NC315575   2.082  30.062   9.522
  838POPC   PO415576   2.656  29.943   9.386
  838POPC   GL115577   2.299  30.085   9.075
  838POPC   GL215578   2.415  30.131   8.742
  838POPC   C1A15579   1.906  30.202   8.808
  838POPC   D2A15580   2.073  30.304   8.389
  838POPC   C3A15581   1.866  30.285   8.009
  838POPC   C4A15582   1.728  30.063   7.654
  838POPC   C1B15583   2.117  29.802   8.587
  838POPC   C2B15584   1.769  29.760   8.266
  838POPC   C3B15585   1.768  29.585   7.834
  838POPC   C4B15586   1.740  29.638   7.380
  839POPC   NC315587  39.700   9.062   9.523
  839POPC   PO415588  40.282   8.692   9.524
  839POPC   GL115589  40.080   8.958   9.220
  839POPC   GL215590  40.203   8.905   8.943
  839POPC   C1A15591  39.741   9.057   8.864
  839POPC   D2A15592  39.962   9.016   8.454
  839POPC   C3A15593  39.826   9.176   8.038
  839POPC   C4A15594  40.017   9.087   7.633
  839POPC   C1B15595  40.395   8.568   8.737
  839POPC   C2B15596  40.345   8.657   8.331
  839POPC   C3B15597  40.027   8.718   8.030
  839POPC   C4B15598  40.050   8.563   7.680
  840POPC   NC315599  22.375  44.547   9.535
  840POPC   PO415600  21.710  44.665   9.486
  840POPC   GL115601  21.975  44.635   9.176
  840POPC   GL215602  22.201  44.917   9.215
  840POPC   C1A15603  22.216  44.442   8.864
  840POPC   D2A15604  22.344  44.472   8.439
  840POPC   C3A15605  22.133  44.468   8.042
  840POPC   C4A15606  22.232  44.202   7.697
  840POPC   C1B15607  22.072  44.942   8.782
  840POPC   C2B15608  22.191  44.952   8.354
  840POPC   C3B15609  22.250   0.017   7.932
  840POPC   C4B15610  22.518  44.940   7.619
  841POPC   NC315611  20.216   0.915   9.505
  841POPC   PO415612  20.743   1.350   9.492
  841POPC   GL115613  20.524   1.433   9.102
  841POPC   GL215614  20.399   1.113   9.084
  841POPC   C1A15615  20.570   1.306   8.642
  841POPC   D2A15616  20.726   0.938   8.423
  841POPC   C3A15617  20.676   1.134   8.041
  841POPC   C4A15618  20.687   1.044   7.644
  841POPC   C1B15619  20.245   0.922   8.713
  841POPC   C2B15620  20.248   1.040   8.291
  841POPC   C3B15621  20.272   0.851   7.863
  841POPC   C4B15622  20.295   0.693   7.420
  842POPC   NC315623  25.576  30.177   9.493
  842POPC   PO415624  25.028  29.849   9.433
  842POPC   GL115625  25.314  29.950   9.112
  842POPC   GL215626  25.227  30.312   9.130
  842POPC   C1A15627  25.436  29.846   8.689
  842POPC   D2A15628  25.270  29.662   8.301
  842POPC   C3A15629  25.326  29.920   7.955
  842POPC   C4A15630  25.614  30.259   8.030
  842POPC   C1B15631  25.075  30.227   8.706
  842POPC   C2B15632  25.021  30.197   8.264
  842POPC   C3B15633  25.159  30.406   7.880
  842POPC   C4B15634  25.218  30.222   7.480
  843POPC   NC315635   2.315   4.731   9.451
  843POPC   PO415636   2.641   5.250   9.623
  843POPC   GL115637   2.610   5.132   9.236
  843POPC   GL215638   2.742   5.443   9.152
  843POPC   C1A15639   2.805   5.048   8.826
  843POPC   D2A15640   2.654   4.781   8.506
  843POPC   C3A15641   2.796   4.894   8.099
  843POPC   C4A15642   2.958   5.152   7.765
  843POPC   C1B15643   2.420   5.423   8.875
  843POPC   C2B15644   2.487   5.277   8.467
  843POPC   C3B15645   2.599   5.427   8.080
  843POPC   C4B15646   2.366   5.578   7.720
  844POPC   NC315647  25.926  40.534   9.418
  844POPC   PO415648  25.711  39.919   9.748
  844POPC   GL115649  25.946  40.046   9.283
  844POPC   GL215650  26.210  40.236   9.127
  844POPC   C1A15651  25.918  40.040   8.787
  844POPC   D2A15652  25.834  39.930   8.370
  844POPC   C3A15653  26.167  39.833   8.130
  844POPC   C4A15654  26.098  40.003   7.737
  844POPC   C1B15655  26.441  40.272   8.746
  844POPC   C2B15656  26.486  40.465   8.333
  844POPC   C3B15657  26.482  40.206   7.988
  844POPC   C4B15658  26.544  40.128   7.551
  845POPC   NC315659  33.713  22.309   9.537
  845POPC   PO415660  34.130  21.811   9.567
  845POPC   GL115661  33.973  22.034   9.170
  845POPC   GL215662  33.621  22.129   9.057
  845POPC   C1A15663  34.093  22.298   8.811
  845POPC   D2A15664  33.863  22.448   8.418
  845POPC   C3A15665  34.036  22.392   7.988
  845POPC   C4A15666  33.943  22.196   7.609
  845POPC   C1B15667  33.812  21.910   8.679
  845POPC   C2B15668  33.822  21.982   8.245
  845POPC   C3B15669  33.564  22.141   7.966
  845POPC   C4B15670  33.250  21.982   7.746
  846POPC   NC315671  17.051   6.062   9.895
  846POPC   PO415672  17.430   5.652   9.538
  846POPC   GL115673  17.406   5.973   9.225
  846POPC   GL215674  17.312   5.724   8.995
  846POPC   C1A15675  17.468   6.171   8.804
  846POPC   D2A15676  17.548   6.008   8.380
  846POPC   C3A15677  17.555   6.194   7.948
  846POPC   C4A15678  17.347   6.057   7.565
  846POPC   C1B15679  17.578   5.557   8.669
  846POPC   C2B15680  17.716   5.543   8.248
  846POPC   C3B15681  17.632   5.673   7.827
  846POPC   C4B15682  17.395   5.503   7.545
  847POPC   NC315683  34.060  38.355   9.560
  847POPC   PO415684  33.443  38.473   9.589
  847POPC   GL115685  33.680  38.566   9.196
  847POPC   GL215686  33.982  38.375   9.073
  847POPC   C1A15687  33.716  38.634   8.735
  847POPC   D2A15688  34.022  38.471   8.455
  847POPC   C3A15689  33.881  38.303   8.074
  847POPC   C4A15690  34.004  38.216   7.670
  847POPC   C1B15691  33.754  38.109   8.817
  847POPC   C2B15692  33.543  38.200   8.459
  847POPC   C3B15693  33.494  37.996   8.084
  847POPC   C4B15694  33.455  38.214   7.733
  848POPC   NC315695  29.120  44.925   9.399
  848POPC   PO415696  28.977  44.227   9.378
  848POPC   GL115697  29.090  44.513   9.092
  848POPC   GL215698  29.409  44.387   9.119
  848POPC   C1A15699  29.135  44.735   8.703
  848POPC   D2A15700  29.122  44.443   8.357
  848POPC   C3A15701  28.932  44.554   7.951
  848POPC   C4A15702  28.954  44.980   7.771
  848POPC   C1B15703  29.562  44.441   8.729
  848POPC   C2B15704  29.602  44.720   8.392
  848POPC   C3B15705  29.410  44.735   8.009
  848POPC   C4B15706  29.387  44.625   7.600
  849POPC   NC315707  10.257  12.842   9.559
  849POPC   PO415708  10.859  12.881   9.462
  849POPC   GL115709  10.572  12.875   9.136
  849POPC   GL215710  10.398  12.545   9.160
  849POPC   C1A15711  10.395  13.135   8.774
  849POPC   D2A15712  10.509  13.376   8.372
  849POPC   C3A15713  10.598  13.115   8.027
  849POPC   C4A15714  10.207  12.987   7.899
  849POPC   C1B15715  10.493  12.612   8.719
  849POPC   C2B15716  10.366  12.759   8.345
  849POPC   C3B15717  10.535  12.609   7.961
  849POPC   C4B15718  10.681  12.430   7.581
  850POPC   NC315719  33.619  34.055   9.463
  850POPC   PO415720  33.867  33.407   9.370
  850POPC   GL115721  34.132  33.678   9.166
  850POPC   GL215722  34.083  33.993   9.153
  850POPC   C1A15723  34.204  33.676   8.749
  850POPC   D2A15724  33.918  33.535   8.455
  850POPC   C3A15725  34.057  33.572   8.059
  850POPC   C4A15726  33.889  33.614   7.697
  850POPC   C1B15727  33.906  34.092   8.730
  850POPC   C2B15728  33.653  33.983   8.381
  850POPC   C3B15729  33.693  34.148   8.014
  850POPC   C4B15730  33.498  34.461   7.800
  851POPC   NC315731  10.313  19.836   9.481
  851POPC   PO415732  10.798  20.309   9.568
  851POPC   GL115733  10.633  20.101   9.188
  851POPC   GL215734  10.229  20.120   9.068
  851POPC   C1A15735  10.596  19.843   8.812
  851POPC   D2A15736  10.384  19.742   8.418
  851POPC   C3A15737  10.487  19.901   8.055
  851POPC   C4A15738  10.856  19.779   7.879
  851POPC   C1B15739  10.082  19.712   8.816
  851POPC   C2B15740   9.878  19.629   8.385
  851POPC   C3B15741  10.065  19.607   7.933
  851POPC   C4B15742  10.356  19.803   7.573
  852POPC   NC315743  29.308  18.342   9.476
  852POPC   PO415744  28.719  17.928   9.491
  852POPC   GL115745  28.998  18.069   9.128
  852POPC   GL215746  29.032  18.424   9.045
  852POPC   C1A15747  29.352  18.079   8.810
  852POPC   D2A15748  29.457  18.221   8.383
  852POPC   C3A15749  29.135  18.259   8.080
  852POPC   C4A15750  29.082  18.133   7.666
  852POPC   C1B15751  29.369  18.578   8.756
  852POPC   C2B15752  29.379  18.726   8.324
  852POPC   C3B15753  29.400  18.638   7.886
  852POPC   C4B15754  29.151  18.613   7.551
  853POPC   NC315755   4.499  38.692   9.645
  853POPC   PO415756   3.813  38.346   9.632
  853POPC   GL115757   3.984  38.482   9.250
  853POPC   GL215758   4.349  38.491   9.221
  853POPC   C1A15759   4.109  38.350   8.823
  853POPC   D2A15760   4.189  38.508   8.439
  853POPC   C3A15761   4.252  38.276   8.089
  853POPC   C4A15762   4.091  38.251   7.694
  853POPC   C1B15763   4.527  38.642   8.805
  853POPC   C2B15764   4.697  38.437   8.438
  853POPC   C3B15765   4.641  38.611   8.061
  853POPC   C4B15766   4.417  38.642   7.694
  854POPC   NC315767  22.810  27.798   9.602
  854POPC   PO415768  23.101  27.152   9.483
  854POPC   GL115769  23.009  27.410   9.174
  854POPC   GL215770  22.758  27.596   9.154
  854POPC   C1A15771  22.913  27.275   8.773
  854POPC   D2A15772  23.241  27.394   8.513
  854POPC   C3A15773  23.212  27.344   8.072
  854POPC   C4A15774  22.919  27.462   7.754
  854POPC   C1B15775  22.895  27.773   8.774
  854POPC   C2B15776  22.788  27.633   8.382
  854POPC   C3B15777  22.830  27.879   8.022
  854POPC   C4B15778  22.573  27.930   7.705
  855POPC   NC315779  19.035  12.528   9.509
  855POPC   PO415780  19.302  13.070   9.259
  855POPC   GL115781  19.041  13.002   8.989
  855POPC   GL215782  18.966  12.662   9.036
  855POPC   C1A15783  19.055  13.083   8.585
  855POPC   D2A15784  18.921  13.248   8.224
  855POPC   C3A15785  19.218  13.032   7.986
  855POPC   C4A15786  19.211  12.587   7.874
  855POPC   C1B15787  18.751  12.693   8.682
  855POPC   C2B15788  18.868  12.733   8.262
  855POPC   C3B15789  18.768  12.843   7.859
  855POPC   C4B15790  18.805  12.559   7.514
  856POPC   NC315791   4.457  35.757   9.461
  856POPC   PO415792   4.083  35.226   9.409
  856POPC   GL115793   4.350  35.230   9.082
  856POPC   GL215794   4.254  35.577   9.054
  856POPC   C1A15795   4.299  34.984   8.697
  856POPC   D2A15796   3.971  34.833   8.397
  856POPC   C3A15797   3.953  35.050   7.993
  856POPC   C4A15798   4.283  35.252   7.732
  856POPC   C1B15799   4.415  35.558   8.700
  856POPC   C2B15800   4.202  35.669   8.394
  856POPC   C3B15801   4.395  35.672   8.063
  856POPC   C4B15802   4.427  35.752   7.676
  857POPC   NC315803  37.343  21.459   9.523
  857POPC   PO415804  37.910  21.208   9.531
  857POPC   GL115805  37.686  21.233   9.158
  857POPC   GL215806  37.671  21.558   9.077
  857POPC   C1A15807  37.792  21.192   8.722
  857POPC   D2A15808  37.598  21.225   8.297
  857POPC   C3A15809  37.845  21.280   7.936
  857POPC   C4A15810  37.725  21.272   7.513
  857POPC   C1B15811  37.398  21.520   8.678
  857POPC   C2B15812  37.098  21.311   8.392
  857POPC   C3B15813  37.192  21.293   7.964
  857POPC   C4B15814  37.325  21.580   7.646
  858POPC   NC315815  23.835  14.313   9.494
  858POPC   PO415816  23.251  14.686   9.472
  858POPC   GL115817  23.420  14.393   9.127
  858POPC   GL215818  23.760  14.256   9.017
  858POPC   C1A15819  23.378  14.304   8.705
  858POPC   D2A15820  23.323  14.534   8.333
  858POPC   C3A15821  23.425  14.328   7.966
  858POPC   C4A15822  23.458  14.504   7.582
  858POPC   C1B15823  23.902  14.268   8.629
  858POPC   C2B15824  23.825  14.452   8.263
  858POPC   C3B15825  23.951  14.506   7.870
  858POPC   C4B15826  24.209  14.313   7.635
  859POPC   NC315827  15.011  26.251   9.653
  859POPC   PO415828  15.364  25.808   9.319
  859POPC   GL115829  15.262  26.217   9.176
  859POPC   GL215830  14.959  26.210   9.074
  859POPC   C1A15831  15.310  26.324   8.731
  859POPC   D2A15832  15.324  26.051   8.335
  859POPC   C3A15833  15.268  26.280   7.957
  859POPC   C4A15834  15.175  26.199   7.535
  859POPC   C1B15835  14.961  25.923   8.713
  859POPC   C2B15836  14.883  25.743   8.301
  859POPC   C3B15837  15.057  25.810   7.874
  859POPC   C4B15838  14.894  25.766   7.428
  860POPC   NC315839  17.954  24.743   9.805
  860POPC   PO415840  18.366  24.352   9.456
  860POPC   GL115841  18.300  24.631   9.204
  860POPC   GL215842  18.007  24.788   9.288
  860POPC   C1A15843  18.422  24.705   8.802
  860POPC   D2A15844  18.241  24.893   8.444
  860POPC   C3A15845  18.271  24.626   8.073
  860POPC   C4A15846  18.327  24.209   7.919
  860POPC   C1B15847  17.926  24.655   8.828
  860POPC   C2B15848  18.067  24.400   8.476
  860POPC   C3B15849  17.835  24.318   8.077
  860POPC   C4B15850  17.823  24.076   7.661
  861POPC   NC315851  42.331  30.229   9.441
  861POPC   PO415852  42.646  29.657   9.360
  861POPC   GL115853  42.552  29.930   9.054
  861POPC   GL215854  42.234  29.814   9.004
  861POPC   C1A15855  42.578  29.919   8.611
  861POPC   D2A15856  42.185  29.737   8.493
  861POPC   C3A15857  42.041  29.643   8.087
  861POPC   C4A15858  42.304  29.753   7.754
  861POPC   C1B15859  42.148  30.225   8.780
  861POPC   C2B15860  42.032  30.390   8.371
  861POPC   C3B15861  41.997  30.144   7.989
  861POPC   C4B15862  42.074  30.198   7.569
  862POPC   NC315863  27.284  39.541   9.415
  862POPC   PO415864  27.678  39.069   9.578
  862POPC   GL115865  27.653  39.238   9.175
  862POPC   GL215866  27.804  39.543   9.283
  862POPC   C1A15867  27.355  39.278   8.803
  862POPC   D2A15868  27.222  39.184   8.371
  862POPC   C3A15869  27.522  38.906   8.205
  862POPC   C4A15870  27.694  38.894   7.825
  862POPC   C1B15871  27.742  39.624   8.838
  862POPC   C2B15872  27.538  39.612   8.430
  862POPC   C3B15873  27.643  39.442   8.022
  862POPC   C4B15874  27.371  39.294   7.697
  863POPC   NC315875   5.180   9.762   9.575
  863POPC   PO415876   5.636  10.227   9.351
  863POPC   GL115877   5.220   9.976   9.109
  863POPC   GL215878   5.049   9.591   9.129
  863POPC   C1A15879   4.936   9.810   8.723
  863POPC   D2A15880   5.084   9.522   8.416
  863POPC   C3A15881   5.228   9.702   8.064
  863POPC   C4A15882   5.106   9.895   7.657
  863POPC   C1B15883   4.825   9.297   8.798
  863POPC   C2B15884   4.732   9.157   8.366
  863POPC   C3B15885   4.839   9.389   7.966
  863POPC   C4B15886   4.647   9.582   7.586
  864POPC   NC315887  19.556  39.941   9.508
  864POPC   PO415888  20.246  40.003   9.582
  864POPC   GL115889  19.919  39.992   9.172
  864POPC   GL215890  19.758  39.716   9.079
  864POPC   C1A15891  19.614  40.162   8.813
  864POPC   D2A15892  19.608  40.358   8.348
  864POPC   C3A15893  20.015  40.255   8.161
  864POPC   C4A15894  20.064  40.209   7.723
  864POPC   C1B15895  19.961  39.765   8.697
  864POPC   C2B15896  19.678  39.860   8.379
  864POPC   C3B15897  19.726  39.895   7.958
  864POPC   C4B15898  19.778  39.578   7.721
  865POPC   NC315899   6.035  27.477   9.582
  865POPC   PO415900   5.583  27.862   9.521
  865POPC   GL115901   5.811  27.687   9.150
  865POPC   GL215902   6.142  27.819   9.154
  865POPC   C1A15903   5.728  27.602   8.692
  865POPC   D2A15904   5.534  27.717   8.265
  865POPC   C3A15905   5.717  27.585   7.865
  865POPC   C4A15906   5.613  27.506   7.435
  865POPC   C1B15907   6.212  27.774   8.685
  865POPC   C2B15908   6.043  27.602   8.279
  865POPC   C3B15909   6.235  27.672   7.857
  865POPC   C4B15910   6.394  27.949   7.520
  866POPC   NC315911  35.066  43.326   9.417
  866POPC   PO415912  35.685  43.130   9.509
  866POPC   GL115913  35.389  43.029   9.139
  866POPC   GL215914  35.187  42.725   9.094
  866POPC   C1A15915  35.230  43.055   8.686
  866POPC   D2A15916  35.217  43.303   8.280
  866POPC   C3A15917  35.547  43.185   8.003
  866POPC   C4A15918  35.838  43.078   7.670
  866POPC   C1B15919  34.852  42.724   8.758
  866POPC   C2B15920  34.842  42.959   8.327
  866POPC   C3B15921  35.085  42.965   7.911
  866POPC   C4B15922  35.233  43.340   7.636
  867POPC   NC315923   9.268  21.508   9.515
  867POPC   PO415924   8.689  21.653   9.427
  867POPC   GL115925   8.878  21.608   9.048
  867POPC   GL215926   9.236  21.651   9.021
  867POPC   C1A15927   8.901  21.461   8.634
  867POPC   D2A15928   9.004  21.578   8.224
  867POPC   C3A15929   8.708  21.362   7.983
  867POPC   C4A15930   8.821  21.033   7.675
  867POPC   C1B15931   9.302  21.239   8.859
  867POPC   C2B15932   9.315  21.210   8.417
  867POPC   C3B15933   9.214  21.211   7.975
  867POPC   C4B15934   9.319  21.084   7.558
  868POPC   NC315935  40.795  35.018   9.473
  868POPC   PO415936  40.526  35.634   9.537
  868POPC   GL115937  40.773  35.480   9.225
  868POPC   GL215938  40.975  35.738   9.184
  868POPC   C1A15939  40.692  35.317   8.828
  868POPC   D2A15940  40.476  35.078   8.535
  868POPC   C3A15941  40.577  35.325   8.206
  868POPC   C4A15942  40.743  35.320   7.844
  868POPC   C1B15943  41.058  35.838   8.804
  868POPC   C2B15944  40.930  35.617   8.476
  868POPC   C3B15945  41.088  35.583   8.101
  868POPC   C4B15946  41.015  35.726   7.709
  869POPC   NC315947   5.728   8.271   9.543
  869POPC   PO415948   6.129   7.774   9.491
  869POPC   GL115949   5.908   8.058   9.119
  869POPC   GL215950   5.535   7.982   9.044
  869POPC   C1A15951   5.814   8.318   8.718
  869POPC   D2A15952   6.015   8.250   8.300
  869POPC   C3A15953   5.895   8.261   7.854
  869POPC   C4A15954   5.736   8.377   7.433
  869POPC   C1B15955   5.802   7.805   8.671
  869POPC   C2B15956   5.759   7.822   8.184
  869POPC   C3B15957   5.493   7.979   7.834
  869POPC   C4B15958   5.525   7.872   7.382
  870POPC   NC315959   4.049  16.685   9.600
  870POPC   PO415960   4.673  16.828   9.598
  870POPC   GL115961   4.384  16.802   9.212
  870POPC   GL215962   4.117  17.077   9.297
  870POPC   C1A15963   4.384  16.653   8.752
  870POPC   D2A15964   4.235  16.438   8.356
  870POPC   C3A15965   4.379  16.530   7.921
  870POPC   C4A15966   4.602  16.927   7.736
  870POPC   C1B15967   4.046  17.029   8.875
  870POPC   C2B15968   4.287  17.117   8.511
  870POPC   C3B15969   4.277  16.959   8.136
  870POPC   C4B15970   4.087  16.967   7.744
  871POPC   NC315971   6.507  42.987   9.683
  871POPC   PO415972   7.018  43.389   9.599
  871POPC   GL115973   6.734  43.264   9.273
  871POPC   GL215974   6.371  43.260   9.261
  871POPC   C1A15975   6.757  43.068   8.883
  871POPC   D2A15976   6.872  43.202   8.497
  871POPC   C3A15977   6.897  43.044   8.086
  871POPC   C4A15978   6.802  43.326   7.747
  871POPC   C1B15979   6.256  42.967   8.928
  871POPC   C2B15980   6.345  43.021   8.506
  871POPC   C3B15981   6.388  42.768   8.142
  871POPC   C4B15982   6.538  42.888   7.746
  872POPC   NC315983   8.248  16.341   9.542
  872POPC   PO415984   7.766  15.926   9.900
  872POPC   GL115985   8.033  15.895   9.458
  872POPC   GL215986   7.897  16.145   9.236
  872POPC   C1A15987   8.152  15.801   8.955
  872POPC   D2A15988   8.030  15.914   8.531
  872POPC   C3A15989   8.283  15.757   8.178
  872POPC   C4A15990   8.317  15.776   7.724
  872POPC   C1B15991   8.040  16.314   8.852
  872POPC   C2B15992   7.977  16.411   8.407
  872POPC   C3B15993   7.972  16.148   8.052
  872POPC   C4B15994   8.030  16.207   7.633
  873POPC   NC315995  19.259  36.210   9.533
  873POPC   PO415996  18.620  35.952   9.631
  873POPC   GL115997  18.855  36.049   9.259
  873POPC   GL215998  18.936  36.437   9.204
  873POPC   C1A15999  18.796  36.134   8.818
  873POPC   D2A16000  18.885  36.421   8.472
  873POPC   C3A16001  19.072  36.127   8.168
  873POPC   C4A16002  19.219  35.963   7.775
  873POPC   C1B16003  19.219  36.532   8.846
  873POPC   C2B16004  19.376  36.502   8.372
  873POPC   C3B16005  19.224  36.536   7.913
  873POPC   C4B16006  19.374  36.373   7.505
  874POPC   NC316007  31.245  13.730   9.458
  874POPC   PO416008  31.798  13.403   9.731
  874POPC   GL116009  31.734  13.264   9.248
  874POPC   GL216010  31.444  13.455   9.036
  874POPC   C1A16011  31.694  13.077   8.813
  874POPC   D2A16012  31.429  13.132   8.436
  874POPC   C3A16013  31.505  13.508   8.151
  874POPC   C4A16014  31.625  13.909   7.898
  874POPC   C1B16015  31.274  13.802   8.710
  874POPC   C2B16016  31.209  13.918   8.252
  874POPC   C3B16017  31.132  13.757   7.850
  874POPC   C4B16018  31.391  13.450   7.663
  875POPC   NC316019  22.047  43.607   9.447
  875POPC   PO416020  21.783  44.091   9.744
  875POPC   GL116021  22.016  44.125   9.301
  875POPC   GL216022  22.326  43.972   9.188
  875POPC   C1A16023  21.872  44.058   8.854
  875POPC   D2A16024  21.888  43.771   8.523
  875POPC   C3A16025  22.071  43.939   8.167
  875POPC   C4A16026  21.821  43.915   7.818
  875POPC   C1B16027  22.290  43.659   8.827
  875POPC   C2B16028  22.583  43.665   8.457
  875POPC   C3B16029  22.541  43.768   8.012
  875POPC   C4B16030  22.195  43.562   7.812
  876POPC   NC316031   3.297  44.734   9.369
  876POPC   PO416032   3.870  44.857   9.451
  876POPC   GL116033   3.726  44.571   9.099
  876POPC   GL216034   3.383  44.399   9.022
  876POPC   C1A16035   3.734  44.669   8.661
  876POPC   D2A16036   3.567  44.775   8.250
  876POPC   C3A16037   3.792  44.619   7.880
  876POPC   C4A16038   3.961  44.551   7.473
  876POPC   C1B16039   3.207  44.626   8.690
  876POPC   C2B16040   3.188  44.435   8.302
  876POPC   C3B16041   3.321  44.424   7.894
  876POPC   C4B16042   3.125  44.563   7.525
  877POPC   NC316043   4.981   5.514   9.585
  877POPC   PO416044   5.474   5.951   9.427
  877POPC   GL116045   5.178   5.727   9.154
  877POPC   GL216046   5.367   5.478   8.959
  877POPC   C1A16047   4.942   5.658   8.752
  877POPC   D2A16048   4.993   5.519   8.314
  877POPC   C3A16049   4.774   5.818   8.020
  877POPC   C4A16050   4.833   5.950   7.594
  877POPC   C1B16051   5.446   5.819   8.705
  877POPC   C2B16052   5.588   5.985   8.294
  877POPC   C3B16053   5.465   5.835   7.902
  877POPC   C4B16054   5.343   6.070   7.560
  878POPC   NC316055   9.649  41.690   9.943
  878POPC   PO416056   9.147  41.448   9.560
  878POPC   GL116057   8.926  41.438   9.189
  878POPC   GL216058   8.729  41.705   9.220
  878POPC   C1A16059   9.020  41.495   8.757
  878POPC   D2A16060   8.877  41.387   8.346
  878POPC   C3A16061   9.077  41.253   7.971
  878POPC   C4A16062   9.146  41.380   7.511
  878POPC   C1B16063   8.622  41.815   8.817
  878POPC   C2B16064   8.639  41.903   8.389
  878POPC   C3B16065   8.833  41.781   8.021
  878POPC   C4B16066   8.686  41.504   7.732
  879POPC   NC316067  38.098  39.689   9.581
  879POPC   PO416068  38.623  40.152   9.761
  879POPC   GL116069  38.467  40.170   9.322
  879POPC   GL216070  38.718  40.203   9.129
  879POPC   C1A16071  38.299  39.990   8.912
  879POPC   D2A16072  38.147  40.120   8.510
  879POPC   C3A16073  38.360  40.167   8.103
  879POPC   C4A16074  38.206  40.156   7.626
  879POPC   C1B16075  38.726  40.200   8.673
  879POPC   C2B16076  38.888  39.885   8.373
  879POPC   C3B16077  38.860  39.868   7.926
  879POPC   C4B16078  38.712  40.246   7.750
  880POPC   NC316079   5.355  24.734   9.677
  880POPC   PO416080   5.556  24.211   9.708
  880POPC   GL116081   5.644  24.268   9.250
  880POPC   GL216082   5.499  24.610   9.174
  880POPC   C1A16083   5.868  24.185   8.822
  880POPC   D2A16084   6.118  24.217   8.415
  880POPC   C3A16085   5.832  24.240   8.035
  880POPC   C4A16086   5.471  24.111   7.769
  880POPC   C1B16087   5.588  24.685   8.720
  880POPC   C2B16088   5.820  24.685   8.307
  880POPC   C3B16089   5.800  24.714   7.837
  880POPC   C4B16090   5.443  24.584   7.534
  881POPC   NC316091  37.759  30.931   9.525
  881POPC   PO416092  38.075  30.381   9.620
  881POPC   GL116093  37.838  30.526   9.208
  881POPC   GL216094  37.479  30.624   9.197
  881POPC   C1A16095  37.800  30.790   8.812
  881POPC   D2A16096  37.961  30.798   8.370
  881POPC   C3A16097  37.908  31.115   8.062
  881POPC   C4A16098  37.829  30.961   7.658
  881POPC   C1B16099  37.335  30.607   8.750
  881POPC   C2B16100  37.466  30.900   8.426
  881POPC   C3B16101  37.520  30.784   8.038
  881POPC   C4B16102  37.270  30.825   7.714
  882POPC   NC316103  18.336   9.565   9.533
  882POPC   PO416104  18.021  10.070   9.433
  882POPC   GL116105  18.259   9.900   9.136
  882POPC   GL216106  18.548  10.089   9.067
  882POPC   C1A16107  18.072   9.886   8.740
  882POPC   D2A16108  18.224  10.022   8.339
  882POPC   C3A16109  18.022   9.877   7.965
  882POPC   C4A16110  18.194   9.645   7.625
  882POPC   C1B16111  18.559   9.750   8.740
  882POPC   C2B16112  18.524   9.473   8.372
  882POPC   C3B16113  18.642   9.536   7.930
  882POPC   C4B16114  18.678   9.508   7.469
  883POPC   NC316115   0.988  21.681   9.363
  883POPC   PO416116   1.182  21.090   9.606
  883POPC   GL116117   1.176  21.200   9.207
  883POPC   GL216118   1.526  21.170   9.123
  883POPC   C1A16119   1.166  21.057   8.780
  883POPC   D2A16120   1.333  21.265   8.415
  883POPC   C3A16121   1.190  21.167   7.997
  883POPC   C4A16122   1.324  21.070   7.579
  883POPC   C1B16123   1.683  21.374   8.790
  883POPC   C2B16124   1.762  21.576   8.402
  883POPC   C3B16125   1.600  21.492   8.019
  883POPC   C4B16126   1.530  21.770   7.673
  884POPC   NC316127  26.714   0.320   9.884
  884POPC   PO416128  27.130   0.712   9.534
  884POPC   GL116129  26.941   0.531   9.136
  884POPC   GL216130  26.635   0.441   9.136
  884POPC   C1A16131  26.869   0.461   8.677
  884POPC   D2A16132  26.994   0.736   8.363
  884POPC   C3A16133  27.202   0.596   8.006
  884POPC   C4A16134  27.119   0.250   7.797
  884POPC   C1B16135  26.481   0.171   8.804
  884POPC   C2B16136  26.536   0.062   8.358
  884POPC   C3B16137  26.684   0.333   8.035
  884POPC   C4B16138  26.729   0.779   7.941
  885POPC   NC316139  38.282  11.105   9.495
  885POPC   PO416140  38.683  11.539   9.371
  885POPC   GL116141  38.446  11.461   9.060
  885POPC   GL216142  38.545  11.138   9.061
  885POPC   C1A16143  38.517  11.385   8.630
  885POPC   D2A16144  38.345  11.305   8.251
  885POPC   C3A16145  38.614  11.300   7.919
  885POPC   C4A16146  38.399  11.601   7.768
  885POPC   C1B16147  38.211  11.024   8.841
  885POPC   C2B16148  38.168  10.874   8.460
  885POPC   C3B16149  37.975  10.992   8.083
  885POPC   C4B16150  38.156  11.153   7.735
  886POPC   NC316151  23.102  25.937   9.802
  886POPC   PO416152  22.484  25.722   9.491
  886POPC   GL116153  22.712  25.996   9.115
  886POPC   GL216154  23.076  26.013   9.218
  886POPC   C1A16155  22.571  26.352   8.789
  886POPC   D2A16156  22.637  26.594   8.405
  886POPC   C3A16157  22.611  26.363   8.019
  886POPC   C4A16158  22.767  25.954   7.922
  886POPC   C1B16159  23.043  26.131   8.756
  886POPC   C2B16160  23.022  26.266   8.320
  886POPC   C3B16161  23.256  26.091   7.961
  886POPC   C4B16162  23.132  25.835   7.578
  887POPC   NC316163  30.607  16.672   9.561
  887POPC   PO416164  30.825  16.000   9.554
  887POPC   GL116165  30.889  16.131   9.120
  887POPC   GL216166  30.894  15.791   9.067
  887POPC   C1A16167  30.749  16.095   8.676
  887POPC   D2A16168  30.447  15.895   8.383
  887POPC   C3A16169  30.648  15.928   8.000
  887POPC   C4A16170  31.047  15.984   7.868
  887POPC   C1B16171  31.064  15.677   8.706
  887POPC   C2B16172  30.913  15.609   8.311
  887POPC   C3B16173  31.002  15.495   7.903
  887POPC   C4B16174  30.699  15.574   7.612
  888POPC   NC316175  37.515  10.687   9.894
  888POPC   PO416176  37.542  10.240   9.350
  888POPC   GL116177  37.542  10.612   9.087
  888POPC   GL216178  37.885  10.613   8.919
  888POPC   C1A16179  37.381  10.688   8.659
  888POPC   D2A16180  37.721  10.661   8.378
  888POPC   C3A16181  37.780  10.518   7.976
  888POPC   C4A16182  37.885  10.740   7.634
  888POPC   C1B16183  37.667  10.260   8.699
  888POPC   C2B16184  37.500  10.209   8.280
  888POPC   C3B16185  37.325  10.347   7.888
  888POPC   C4B16186  37.543  10.386   7.485
  889POPC   NC316187  16.017  17.433   9.472
  889POPC   PO416188  15.724  17.897   9.369
  889POPC   GL116189  15.929  17.647   9.017
  889POPC   GL216190  15.852  17.268   9.007
  889POPC   C1A16191  15.917  17.557   8.567
  889POPC   D2A16192  15.673  17.291   8.297
  889POPC   C3A16193  15.886  17.245   7.895
  889POPC   C4A16194  16.211  17.523   7.693
  889POPC   C1B16195  16.155  17.129   8.690
  889POPC   C2B16196  16.253  17.259   8.253
  889POPC   C3B16197  16.398  17.095   7.848
  889POPC   C4B16198  16.571  17.158   7.422
  890POPC   NC316199  20.705   1.774   9.660
  890POPC   PO416200  20.259   2.225   9.491
  890POPC   GL116201  20.473   1.964   9.145
  890POPC   GL216202  20.821   1.846   9.177
  890POPC   C1A16203  20.341   1.860   8.713
  890POPC   D2A16204  20.135   2.024   8.308
  890POPC   C3A16205  20.329   1.886   7.891
  890POPC   C4A16206  20.431   2.026   7.435
  890POPC   C1B16207  20.847   1.707   8.766
  890POPC   C2B16208  20.696   1.736   8.331
  890POPC   C3B16209  20.831   1.645   7.903
  890POPC   C4B16210  20.584   1.541   7.563
  891POPC   NC316211  26.577   9.461   9.853
  891POPC   PO416212  26.762  10.019   9.439
  891POPC   GL116213  26.924   9.938   9.055
  891POPC   GL216214  27.217   9.875   9.114
  891POPC   C1A16215  26.720   9.699   8.689
  891POPC   D2A16216  26.597   9.647   8.279
  891POPC   C3A16217  26.690   9.662   7.848
  891POPC   C4A16218  26.526  10.016   7.586
  891POPC   C1B16219  27.214   9.739   8.664
  891POPC   C2B16220  27.112   9.660   8.236
  891POPC   C3B16221  27.172   9.852   7.858
  891POPC   C4B16222  26.988   9.825   7.426
  892POPC   NC316223  43.522  35.643   9.431
  892POPC   PO416224  43.850  35.053   9.566
  892POPC   GL116225  43.887  35.290   9.157
  892POPC   GL216226  43.813  35.650   9.019
  892POPC   C1A16227  44.033  35.299   8.723
  892POPC   D2A16228  43.845  35.299   8.340
  892POPC   C3A16229  44.066  35.302   7.971
  892POPC   C4A16230  44.065  35.125   7.569
  892POPC   C1B16231  43.535  35.447   8.760
  892POPC   C2B16232  43.387  35.527   8.330
  892POPC   C3B16233  43.561  35.428   7.914
  892POPC   C4B16234  43.836  35.595   7.598
  893POPC   NC316235   4.296  20.805   9.531
  893POPC   PO416236   4.039  20.173   9.386
  893POPC   GL116237   4.397  20.293   9.059
  893POPC   GL216238   4.489  20.642   9.063
  893POPC   C1A16239   4.611  20.377   8.664
  893POPC   D2A16240   4.320  20.317   8.389
  893POPC   C3A16241   4.436  20.373   7.994
  893POPC   C4A16242   4.500  20.698   7.732
  893POPC   C1B16243   4.502  20.904   8.675
  893POPC   C2B16244   4.540  20.933   8.216
  893POPC   C3B16245   4.721  21.111   7.863
  893POPC   C4B16246   4.646  21.110   7.407
  894POPC   NC316247  28.451  43.520   9.305
  894POPC   PO416248  27.999  44.049   9.491
  894POPC   GL116249  28.218  43.919   9.110
  894POPC   GL216250  28.570  44.011   9.108
  894POPC   C1A16251  28.395  43.797   8.688
  894POPC   D2A16252  28.759  43.698   8.431
  894POPC   C3A16253  28.545  43.545   8.099
  894POPC   C4A16254  28.312  43.746   7.765
  894POPC   C1B16255  28.801  44.113   8.746
  894POPC   C2B16256  28.622  44.210   8.360
  894POPC   C3B16257  28.598  44.162   7.909
  894POPC   C4B16258  28.655  44.170   7.450
  895POPC   NC316259  27.634  38.611   9.528
  895POPC   PO416260  26.965  38.473   9.457
  895POPC   GL116261  27.339  38.399   9.147
  895POPC   GL216262  27.701  38.287   9.151
  895POPC   C1A16263  27.512  38.556   8.737
  895POPC   D2A16264  27.498  38.355   8.331
  895POPC   C3A16265  27.372  38.493   7.913
  895POPC   C4A16266  27.497  38.333   7.523
  895POPC   C1B16267  27.998  38.397   8.799
  895POPC   C2B16268  27.933  38.627   8.385
  895POPC   C3B16269  27.892  38.446   7.956
  895POPC   C4B16270  27.995  38.092   7.686
  896POPC   NC316271   6.701  21.737   9.306
  896POPC   PO416272   6.924  22.389   9.493
  896POPC   GL116273   6.712  22.335   9.130
  896POPC   GL216274   6.426  22.160   9.215
  896POPC   C1A16275   6.714  22.111   8.753
  896POPC   D2A16276   6.747  21.949   8.342
  896POPC   C3A16277   6.693  22.283   8.065
  896POPC   C4A16278   6.482  22.170   7.725
  896POPC   C1B16279   6.247  21.904   8.853
  896POPC   C2B16280   6.311  21.697   8.469
  896POPC   C3B16281   6.271  21.826   8.044
  896POPC   C4B16282   6.247  21.704   7.591
  897POPC   NC316283   1.035  40.233   9.260
  897POPC   PO416284   1.177  40.758   9.688
  897POPC   GL116285   1.104  40.776   9.247
  897POPC   GL216286   0.800  41.000   9.190
  897POPC   C1A16287   1.358  40.817   8.842
  897POPC   D2A16288   1.278  40.705   8.395
  897POPC   C3A16289   1.121  40.948   8.032
  897POPC   C4A16290   0.972  41.158   7.656
  897POPC   C1B16291   0.851  40.775   8.789
  897POPC   C2B16292   0.758  40.680   8.358
  897POPC   C3B16293   0.700  40.439   7.974
  897POPC   C4B16294   0.848  40.656   7.626
  898POPC   NC316295  39.303  26.429   9.347
  898POPC   PO416296  38.884  25.965   9.470
  898POPC   GL116297  39.097  25.992   9.104
  898POPC   GL216298  39.435  25.937   9.187
  898POPC   C1A16299  39.243  26.085   8.705
  898POPC   D2A16300  39.029  26.116   8.320
  898POPC   C3A16301  38.908  25.760   8.067
  898POPC   C4A16302  38.976  25.971   7.692
  898POPC   C1B16303  39.574  25.706   8.808
  898POPC   C2B16304  39.335  25.698   8.396
  898POPC   C3B16305  39.405  25.905   7.996
  898POPC   C4B16306  39.665  25.739   7.657
  899POPC   NC316307  33.396  40.961   9.447
  899POPC   PO416308  34.022  40.550   9.449
  899POPC   GL116309  33.854  40.851   9.154
  899POPC   GL216310  33.589  41.018   8.991
  899POPC   C1A16311  33.915  40.677   8.772
  899POPC   D2A16312  34.017  40.324   8.520
  899POPC   C3A16313  33.895  40.419   8.112
  899POPC   C4A16314  33.959  40.772   7.844
  899POPC   C1B16315  33.750  41.173   8.647
  899POPC   C2B16316  33.813  40.908   8.322
  899POPC   C3B16317  33.489  40.732   8.088
  899POPC   C4B16318  33.301  40.584   7.724
  900POPC   NC316319   3.492  40.739   9.581
  900POPC   PO416320   4.074  41.028   9.682
  900POPC   GL116321   3.849  40.708   9.224
  900POPC   GL216322   3.568  40.519   9.154
  900POPC   C1A16323   3.827  40.653   8.749
  900POPC   D2A16324   4.008  40.732   8.344
  900POPC   C3A16325   3.722  40.792   7.991
  900POPC   C4A16326   3.652  40.982   7.587
  900POPC   C1B16327   3.283  40.684   8.878
  900POPC   C2B16328   3.320  40.689   8.442
  900POPC   C3B16329   3.106  40.770   8.079
  900POPC   C4B16330   3.192  40.747   7.656
  901POPC   NC316331   5.267  40.820   9.418
  901POPC   PO416332   4.621  40.620   9.685
  901POPC   GL116333   4.831  40.607   9.237
  901POPC   GL216334   4.862  40.944   9.113
  901POPC   C1A16335   4.932  40.520   8.772
  901POPC   D2A16336   4.950  40.661   8.309
  901POPC   C3A16337   5.290  40.731   7.993
  901POPC   C4A16338   5.299  40.578   7.561
  901POPC   C1B16339   4.812  41.025   8.657
  901POPC   C2B16340   4.933  41.196   8.238
  901POPC   C3B16341   4.847  40.962   7.835
  901POPC   C4B16342   4.807  40.665   7.475
  902POPC   NC316343  41.345  29.742   9.459
  902POPC   PO416344  42.012  29.890   9.480
  902POPC   GL116345  41.829  30.104   9.167
  902POPC   GL216346  41.465  30.123   9.127
  902POPC   C1A16347  41.766  29.867   8.801
  902POPC   D2A16348  41.754  29.976   8.403
  902POPC   C3A16349  41.518  29.910   8.096
  902POPC   C4A16350  41.657  29.769   7.722
  902POPC   C1B16351  41.266  29.930   8.791
  902POPC   C2B16352  41.124  30.107   8.439
  902POPC   C3B16353  41.023  30.023   8.039
  902POPC   C4B16354  41.249  30.087   7.695
  903POPC   NC316355  44.634  29.123   9.719
  903POPC   PO416356  44.208  29.506   9.369
  903POPC   GL116357  44.526  29.274   9.176
  903POPC   GL216358  44.632  28.941   9.246
  903POPC   C1A16359  44.669  29.209   8.758
  903POPC   D2A16360  44.499  29.211   8.327
  903POPC   C3A16361  44.768  29.351   8.013
  903POPC   C4A16362  44.675  29.155   7.679
  903POPC   C1B16363  44.894  28.784   8.920
  903POPC   C2B16364  44.760  28.771   8.485
  903POPC   C3B16365  44.828  28.836   8.044
  903POPC   C4B16366  44.946  28.722   7.606
  904POPC   NC316367  24.011  33.998   9.851
  904POPC   PO416368  24.388  33.721   9.493
  904POPC   GL116369  24.039  33.691   9.135
  904POPC   GL216370  24.012  34.002   8.952
  904POPC   C1A16371  23.686  33.661   8.774
  904POPC   D2A16372  23.710  33.926   8.383
  904POPC   C3A16373  23.643  33.747   7.951
  904POPC   C4A16374  23.501  33.967   7.568
  904POPC   C1B16375  24.154  33.733   8.587
  904POPC   C2B16376  24.136  33.769   8.110
  904POPC   C3B16377  24.036  33.877   7.645
  904POPC   C4B16378  23.893  33.913   7.193
  905POPC   NC316379  42.055  40.100   9.546
  905POPC   PO416380  42.583  39.725   9.442
  905POPC   GL116381  42.383  39.963   9.116
  905POPC   GL216382  42.124  40.234   9.069
  905POPC   C1A16383  42.368  39.916   8.685
  905POPC   D2A16384  42.123  39.853   8.355
  905POPC   C3A16385  42.413  39.909   8.035
  905POPC   C4A16386  42.547  39.622   7.783
  905POPC   C1B16387  42.404  40.417   8.754
  905POPC   C2B16388  42.207  40.343   8.344
  905POPC   C3B16389  41.999  40.163   7.961
  905POPC   C4B16390  42.341  40.294   7.715
  906POPC   NC316391  41.019   0.066   9.573
  906POPC   PO416392  40.902  44.377   9.497
  906POPC   GL116393  41.141  44.558   9.121
  906POPC   GL216394  41.134  44.908   9.058
  906POPC   C1A16395  41.008  44.533   8.699
  906POPC   D2A16396  40.641  44.341   8.444
  906POPC   C3A16397  40.673  44.517   8.028
  906POPC   C4A16398  41.070  44.567   7.866
  906POPC   C1B16399  40.922   0.039   8.687
  906POPC   C2B16400  40.988   0.236   8.288
  906POPC   C3B16401  40.873   0.109   7.864
  906POPC   C4B16402  40.569   0.240   7.515
  907POPC   NC316403  19.265  40.740   9.528
  907POPC   PO416404  19.920  40.943   9.475
  907POPC   GL116405  19.622  40.867   9.161
  907POPC   GL216406  19.436  41.141   9.244
  907POPC   C1A16407  19.658  40.678   8.752
  907POPC   D2A16408  19.966  40.720   8.381
  907POPC   C3A16409  19.945  40.700   7.920
  907POPC   C4A16410  19.726  40.584   7.554
  907POPC   C1B16411  19.370  41.136   8.784
  907POPC   C2B16412  19.354  40.857   8.392
  907POPC   C3B16413  19.446  40.801   7.946
  907POPC   C4B16414  19.317  40.888   7.501
  908POPC   NC316415  24.683  28.135   9.636
  908POPC   PO416416  24.162  28.564   9.737
  908POPC   GL116417  24.401  28.414   9.314
  908POPC   GL216418  24.426  28.059   9.200
  908POPC   C1A16419  24.392  28.457   8.841
  908POPC   D2A16420  24.164  28.345   8.438
  908POPC   C3A16421  24.151  28.610   8.111
  908POPC   C4A16422  24.374  28.720   7.774
  908POPC   C1B16423  24.695  28.054   8.823
  908POPC   C2B16424  24.610  28.101   8.385
  908POPC   C3B16425  24.407  28.101   7.969
  908POPC   C4B16426  24.766  28.071   7.704
  909POPC   NC316427  15.029  14.736   9.302
  909POPC   PO416428  15.312  14.254   9.657
  909POPC   GL116429  15.215  14.298   9.159
  909POPC   GL216430  15.007  14.121   9.063
  909POPC   C1A16431  15.350  14.592   8.742
  909POPC   D2A16432  15.349  14.817   8.348
  909POPC   C3A16433  15.246  14.652   7.956
  909POPC   C4A16434  15.399  14.596   7.539
  909POPC   C1B16435  15.302  14.093   8.714
  909POPC   C2B16436  15.288  14.256   8.300
  909POPC   C3B16437  15.056  14.182   7.914
  909POPC   C4B16438  14.851  13.840   7.656
  910POPC   NC316439   6.579   5.377   9.316
  910POPC   PO416440   6.406   5.948   9.696
  910POPC   GL116441   6.565   5.893   9.241
  910POPC   GL216442   6.543   6.180   9.031
  910POPC   C1A16443   6.602   5.717   8.777
  910POPC   D2A16444   6.783   5.453   8.435
  910POPC   C3A16445   6.715   5.656   8.009
  910POPC   C4A16446   6.797   6.119   7.889
  910POPC   C1B16447   6.285   6.099   8.655
  910POPC   C2B16448   6.304   5.979   8.201
  910POPC   C3B16449   6.330   6.027   7.731
  910POPC   C4B16450   6.217   5.967   7.271
  911POPC   NC316451  34.795  42.440   9.423
  911POPC   PO416452  34.152  42.288   9.492
  911POPC   GL116453  34.412  42.149   9.113
  911POPC   GL216454  34.514  42.447   9.014
  911POPC   C1A16455  34.729  42.120   8.709
  911POPC   D2A16456  34.570  42.035   8.259
  911POPC   C3A16457  34.752  42.081   7.867
  911POPC   C4A16458  34.752  42.226   7.460
  911POPC   C1B16459  34.311  42.393   8.624
  911POPC   C2B16460  34.629  42.515   8.355
  911POPC   C3B16461  34.749  42.575   7.966
  911POPC   C4B16462  34.379  42.490   7.755
  912POPC   NC316463  19.012  32.288   9.490
  912POPC   PO416464  18.692  31.734   9.306
  912POPC   GL116465  18.909  32.020   9.064
  912POPC   GL216466  19.237  31.944   9.168
  912POPC   C1A16467  18.954  32.322   8.725
  912POPC   D2A16468  19.106  32.209   8.296
  912POPC   C3A16469  18.863  32.241   7.915
  912POPC   C4A16470  18.840  32.650   7.724
  912POPC   C1B16471  19.363  32.007   8.723
  912POPC   C2B16472  19.539  31.971   8.302
  912POPC   C3B16473  19.556  32.258   7.978
  912POPC   C4B16474  19.292  32.407   7.681
  913POPC   NC316475  17.124  33.859   9.478
  913POPC   PO416476  17.614  33.413   9.461
  913POPC   GL116477  17.531  33.701   9.132
  913POPC   GL216478  17.199  33.614   9.021
  913POPC   C1A16479  17.709  33.950   8.799
  913POPC   D2A16480  17.824  33.837   8.393
  913POPC   C3A16481  17.732  34.128   8.072
  913POPC   C4A16482  17.609  33.837   7.747
  913POPC   C1B16483  17.224  34.042   8.851
  913POPC   C2B16484  17.352  34.174   8.464
  913POPC   C3B16485  17.224  34.038   8.071
  913POPC   C4B16486  17.330  34.229   7.669
  914POPC   NC316487   9.909  16.246   9.160
  914POPC   PO416488   9.435  16.407   9.575
  914POPC   GL116489   9.422  16.694   9.103
  914POPC   GL216490   9.737  16.728   9.072
  914POPC   C1A16491   9.454  16.650   8.622
  914POPC   D2A16492   9.645  16.295   8.452
  914POPC   C3A16493   9.527  16.367   8.043
  914POPC   C4A16494   9.774  16.578   7.765
  914POPC   C1B16495   9.780  17.001   8.741
  914POPC   C2B16496   9.816  16.900   8.306
  914POPC   C3B16497   9.774  17.079   7.909
  914POPC   C4B16498   9.775  17.313   7.558
  915POPC   NC316499   4.629  34.233   9.514
  915POPC   PO416500   4.637  33.538   9.598
  915POPC   GL116501   4.408  33.816   9.298
  915POPC   GL216502   4.057  33.764   9.374
  915POPC   C1A16503   4.455  33.982   8.861
  915POPC   D2A16504   4.616  33.821   8.478
  915POPC   C3A16505   4.520  33.894   8.056
  915POPC   C4A16506   4.285  33.806   7.673
  915POPC   C1B16507   3.982  33.831   8.961
  915POPC   C2B16508   4.091  33.726   8.548
  915POPC   C3B16509   4.005  33.803   8.125
  915POPC   C4B16510   3.886  34.115   7.825
  916POPC   NC316511  21.644  24.957   9.632
  916POPC   PO416512  21.501  25.586   9.610
  916POPC   GL116513  21.351  25.456   9.192
  916POPC   GL216514  21.041  25.540   9.076
  916POPC   C1A16515  21.391  25.586   8.730
  916POPC   D2A16516  21.234  25.478   8.317
  916POPC   C3A16517  21.580  25.281   8.091
  916POPC   C4A16518  21.817  25.352   7.709
  916POPC   C1B16519  20.992  25.205   8.796
  916POPC   C2B16520  20.825  25.175   8.402
  916POPC   C3B16521  21.031  25.107   8.009
  916POPC   C4B16522  21.236  25.470   7.769
  917POPC   NC316523  27.101  38.021   9.438
  917POPC   PO416524  26.977  37.407   9.566
  917POPC   GL116525  27.239  37.546   9.222
  917POPC   GL216526  26.996  37.354   9.032
  917POPC   C1A16527  27.241  37.731   8.806
  917POPC   D2A16528  26.910  37.879   8.527
  917POPC   C3A16529  26.958  37.757   8.112
  917POPC   C4A16530  27.264  37.547   7.880
  917POPC   C1B16531  26.798  37.386   8.624
  917POPC   C2B16532  26.540  37.513   8.273
  917POPC   C3B16533  26.606  37.482   7.830
  917POPC   C4B16534  26.693  37.213   7.456
  918POPC   NC316535  23.456  25.041   9.534
  918POPC   PO416536  24.127  25.251   9.397
  918POPC   GL116537  23.778  25.152   9.155
  918POPC   GL216538  23.596  25.468   9.215
  918POPC   C1A16539  23.481  25.238   8.792
  918POPC   D2A16540  23.531  25.549   8.459
  918POPC   C3A16541  23.542  25.395   8.060
  918POPC   C4A16542  23.662  24.997   7.876
  918POPC   C1B16543  23.889  25.576   8.845
  918POPC   C2B16544  24.173  25.602   8.513
  918POPC   C3B16545  24.110  25.365   8.152
  918POPC   C4B16546  23.945  25.452   7.766
  919POPC   NC316547   1.172  28.209   9.558
  919POPC   PO416548   1.080  28.826   9.666
  919POPC   GL116549   1.217  28.667   9.261
  919POPC   GL216550   0.959  28.431   9.124
  919POPC   C1A16551   1.362  28.542   8.833
  919POPC   D2A16552   1.057  28.475   8.516
  919POPC   C3A16553   1.111  28.587   8.094
  919POPC   C4A16554   0.932  28.513   7.702
  919POPC   C1B16555   1.095  28.082   8.835
  919POPC   C2B16556   1.255  28.013   8.385
  919POPC   C3B16557   1.347  28.151   7.935
  919POPC   C4B16558   1.276  28.199   7.460
  920POPC   NC316559  25.833   9.410   9.592
  920POPC   PO416560  26.339   9.923   9.774
  920POPC   GL116561  26.267   9.953   9.305
  920POPC   GL216562  25.947   9.813   9.252
  920POPC   C1A16563  26.245   9.864   8.851
  920POPC   D2A16564  26.118   9.625   8.481
  920POPC   C3A16565  26.169   9.786   8.048
  920POPC   C4A16566  26.209   9.637   7.660
  920POPC   C1B16567  25.735  10.051   8.888
  920POPC   C2B16568  25.813  10.081   8.475
  920POPC   C3B16569  25.709  10.007   8.062
  920POPC   C4B16570  25.943  10.071   7.667
  921POPC   NC316571  18.272   0.112   9.505
  921POPC   PO416572  18.616  44.508   9.412
  921POPC   GL116573  18.264  44.652   9.146
  921POPC   GL216574  18.024  44.365   9.036
  921POPC   C1A16575  18.330  44.692   8.729
  921POPC   D2A16576  18.605  44.569   8.429
  921POPC   C3A16577  18.382  44.721   8.120
  921POPC   C4A16578  18.115  44.672   7.802
  921POPC   C1B16579  17.884  44.218   8.679
  921POPC   C2B16580  18.061  44.391   8.346
  921POPC   C3B16581  18.119  44.204   7.999
  921POPC   C4B16582  17.921  44.223   7.656
  922POPC   NC316583  25.746  29.290   9.632
  922POPC   PO416584  26.392  29.340   9.401
  922POPC   GL116585  26.094  29.180   9.135
  922POPC   GL216586  25.718  29.153   9.160
  922POPC   C1A16587  26.001  29.151   8.730
  922POPC   D2A16588  26.014  29.201   8.322
  922POPC   C3A16589  26.051  28.847   8.075
  922POPC   C4A16590  26.087  29.168   7.806
  922POPC   C1B16591  25.669  28.807   8.925
  922POPC   C2B16592  25.740  28.764   8.516
  922POPC   C3B16593  25.534  28.884   8.169
  922POPC   C4B16594  25.593  29.007   7.766
  923POPC   NC316595   9.594  42.597   9.524
  923POPC   PO416596   9.844  41.971   9.625
  923POPC   GL116597   9.740  42.211   9.224
  923POPC   GL216598   9.492  42.450   9.046
  923POPC   C1A16599   9.821  42.115   8.801
  923POPC   D2A16600   9.834  42.334   8.424
  923POPC   C3A16601   9.587  42.204   8.066
  923POPC   C4A16602   9.658  42.196   7.604
  923POPC   C1B16603   9.896  42.625   8.898
  923POPC   C2B16604  10.048  42.786   8.501
  923POPC   C3B16605   9.970  42.702   8.062
  923POPC   C4B16606   9.929  42.633   7.633
  924POPC   NC316607   1.510  12.116   9.725
  924POPC   PO416608   2.061  12.018   9.692
  924POPC   GL116609   2.139  12.026   9.234
  924POPC   GL216610   1.913  12.298   9.212
  924POPC   C1A16611   2.299  12.045   8.765
  924POPC   D2A16612   2.275  12.356   8.389
  924POPC   C3A16613   2.288  12.211   7.946
  924POPC   C4A16614   2.167  11.918   7.599
  924POPC   C1B16615   1.825  12.234   8.756
  924POPC   C2B16616   1.766  12.290   8.298
  924POPC   C3B16617   1.786  12.184   7.868
  924POPC   C4B16618   1.967  12.392   7.520
  925POPC   NC316619  16.337  35.844   9.416
  925POPC   PO416620  15.821  36.176   9.641
  925POPC   GL116621  15.982  36.146   9.214
  925POPC   GL216622  15.707  35.937   9.136
  925POPC   C1A16623  16.090  35.982   8.776
  925POPC   D2A16624  15.808  35.951   8.399
  925POPC   C3A16625  15.910  36.116   7.984
  925POPC   C4A16626  16.234  36.109   7.632
  925POPC   C1B16627  15.669  36.264   8.810
  925POPC   C2B16628  15.714  36.468   8.434
  925POPC   C3B16629  15.491  36.438   8.050
  925POPC   C4B16630  15.664  36.474   7.656
  926POPC   NC316631  16.161  33.595   9.539
  926POPC   PO416632  15.724  34.119   9.468
  926POPC   GL116633  15.933  33.884   9.163
  926POPC   GL216634  16.275  33.937   9.188
  926POPC   C1A16635  15.919  33.716   8.767
  926POPC   D2A16636  15.785  33.865   8.388
  926POPC   C3A16637  15.852  33.613   8.026
  926POPC   C4A16638  15.857  33.577   7.569
  926POPC   C1B16639  16.375  34.019   8.787
  926POPC   C2B16640  16.290  33.838   8.391
  926POPC   C3B16641  16.124  34.036   8.025
  926POPC   C4B16642  16.059  34.282   7.656
  927POPC   NC316643  35.645  28.844   9.289
  927POPC   PO416644  35.315  29.357   9.721
  927POPC   GL116645  35.336  29.391   9.210
  927POPC   GL216646  35.614  29.319   9.128
  927POPC   C1A16647  35.122  29.404   8.796
  927POPC   D2A16648  35.282  29.464   8.388
  927POPC   C3A16649  35.464  29.079   8.230
  927POPC   C4A16650  35.431  28.904   7.821
  927POPC   C1B16651  35.635  29.287   8.700
  927POPC   C2B16652  35.842  29.397   8.314
  927POPC   C3B16653  35.774  29.288   7.872
  927POPC   C4B16654  35.612  29.483   7.453
  928POPC   NC316655   9.698  35.016   9.440
  928POPC   PO416656   9.640  34.448   9.744
  928POPC   GL116657   9.907  34.515   9.351
  928POPC   GL216658   9.930  34.223   9.164
  928POPC   C1A16659   9.945  34.673   8.909
  928POPC   D2A16660   9.584  34.805   8.610
  928POPC   C3A16661   9.626  34.772   8.136
  928POPC   C4A16662   9.482  34.635   7.732
  928POPC   C1B16663   9.658  34.280   8.830
  928POPC   C2B16664   9.835  34.396   8.428
  928POPC   C3B16665   9.787  34.257   8.003
  928POPC   C4B16666   9.523  34.136   7.678
  929POPC   NC316667  32.687   0.387   9.633
  929POPC   PO416668  32.022   0.436   9.565
  929POPC   GL116669  32.137   0.280   9.162
  929POPC   GL216670  32.479   0.116   9.184
  929POPC   C1A16671  31.914   0.387   8.792
  929POPC   D2A16672  31.758   0.235   8.423
  929POPC   C3A16673  31.896   0.466   8.095
  929POPC   C4A16674  32.041   0.453   7.722
  929POPC   C1B16675  32.307   0.009   8.747
  929POPC   C2B16676  32.268   0.212   8.350
  929POPC   C3B16677  32.437   0.207   7.925
  929POPC   C4B16678  32.554   0.135   7.481
  930POPC   NC316679  21.875  27.442   9.580
  930POPC   PO416680  22.501  27.450   9.595
  930POPC   GL116681  22.286  27.426   9.205
  930POPC   GL216682  21.965  27.629   9.141
  930POPC   C1A16683  22.400  27.567   8.803
  930POPC   D2A16684  22.213  27.475   8.452
  930POPC   C3A16685  22.399  27.573   8.049
  930POPC   C4A16686  22.409  27.433   7.627
  930POPC   C1B16687  21.696  27.668   8.819
  930POPC   C2B16688  21.752  27.837   8.449
  930POPC   C3B16689  21.896  27.631   8.096
  930POPC   C4B16690  21.918  27.597   7.663
  931POPC   NC316691  25.979  39.590   9.520
  931POPC   PO416692  26.159  38.950   9.642
  931POPC   GL116693  26.168  39.121   9.207
  931POPC   GL216694  25.887  39.308   9.094
  931POPC   C1A16695  26.316  39.264   8.757
  931POPC   D2A16696  26.299  39.061   8.326
  931POPC   C3A16697  26.210  39.238   7.894
  931POPC   C4A16698  26.024  39.075   7.469
  931POPC   C1B16699  25.868  39.522   8.691
  931POPC   C2B16700  25.867  39.425   8.249
  931POPC   C3B16701  25.816  39.589   7.829
  931POPC   C4B16702  26.096  39.582   7.449
  932POPC   NC316703  36.297  12.389   9.469
  932POPC   PO416704  36.183  13.103   9.541
  932POPC   GL116705  35.999  12.810   9.272
  932POPC   GL216706  36.331  12.785   9.162
  932POPC   C1A16707  35.937  12.827   8.827
  932POPC   D2A16708  36.087  12.630   8.481
  932POPC   C3A16709  35.864  12.676   8.078
  932POPC   C4A16710  35.916  12.968   7.720
  932POPC   C1B16711  36.350  13.126   8.874
  932POPC   C2B16712  36.347  13.102   8.418
  932POPC   C3B16713  36.357  12.957   7.979
  932POPC   C4B16714  36.374  13.146   7.524
  933POPC   NC316715   0.004  20.376   9.425
  933POPC   PO416716  44.546  20.849   9.196
  933POPC   GL116717  44.696  20.501   9.035
  933POPC   GL216718  44.444  20.282   9.119
  933POPC   C1A16719  44.905  20.350   8.675
  933POPC   D2A16720   0.016  20.432   8.228
  933POPC   C3A16721  44.881  20.643   7.914
  933POPC   C4A16722  44.530  20.681   7.656
  933POPC   C1B16723  44.367  20.401   8.659
  933POPC   C2B16724  44.514  20.393   8.225
  933POPC   C3B16725  44.661  20.193   7.861
  933POPC   C4B16726  44.531  20.204   7.388
  934POPC   NC316727  11.447  34.620   9.527
  934POPC   PO416728  10.800  34.895   9.583
  934POPC   GL116729  11.030  34.726   9.225
  934POPC   GL216730  11.024  34.391   9.178
  934POPC   C1A16731  11.380  34.617   8.875
  934POPC   D2A16732  11.560  34.303   8.557
  934POPC   C3A16733  11.583  34.444   8.116
  934POPC   C4A16734  11.478  34.807   7.866
  934POPC   C1B16735  10.828  34.604   8.792
  934POPC   C2B16736  11.097  34.657   8.423
  934POPC   C3B16737  10.989  34.561   8.013
  934POPC   C4B16738  11.209  34.405   7.695
  935POPC   NC316739  13.130  11.753   9.582
  935POPC   PO416740  12.891  12.371   9.794
  935POPC   GL116741  12.789  12.066   9.339
  935POPC   GL216742  13.115  12.064   9.155
  935POPC   C1A16743  12.698  12.116   8.809
  935POPC   D2A16744  12.930  12.259   8.382
  935POPC   C3A16745  12.795  12.063   8.013
  935POPC   C4A16746  12.876  12.122   7.583
  935POPC   C1B16747  13.172  11.978   8.714
  935POPC   C2B16748  13.170  11.795   8.262
  935POPC   C3B16749  13.162  11.754   7.791
  935POPC   C4B16750  13.172  11.804   7.314
  936POPC   NC316751  42.363  28.012   9.517
  936POPC   PO416752  42.015  27.487   9.511
  936POPC   GL116753  42.014  27.567   9.114
  936POPC   GL216754  41.965  27.932   9.157
  936POPC   C1A16755  42.345  27.530   8.798
  936POPC   D2A16756  42.449  27.817   8.451
  936POPC   C3A16757  42.504  27.518   8.134
  936POPC   C4A16758  42.565  27.567   7.721
  936POPC   C1B16759  41.990  27.874   8.696
  936POPC   C2B16760  42.015  27.584   8.323
  936POPC   C3B16761  42.075  27.658   7.857
  936POPC   C4B16762  42.159  27.419   7.445
  937POPC   NC316763   0.622  34.161   9.417
  937POPC   PO416764   0.058  34.537   9.345
  937POPC   GL116765   0.169  34.675   8.950
  937POPC   GL216766   0.164  34.315   8.862
  937POPC   C1A16767   0.362  34.969   8.640
  937POPC   D2A16768   0.706  34.913   8.330
  937POPC   C3A16769   0.496  34.661   8.012
  937POPC   C4A16770   0.180  34.816   7.709
  937POPC   C1B16771   0.480  34.471   8.558
  937POPC   C2B16772   0.815  34.332   8.285
  937POPC   C3B16773   0.781  34.230   7.844
  937POPC   C4B16774   0.436  34.382   7.571
  938POPC   NC316775  44.113  43.396   9.599
  938POPC   PO416776  43.591  42.943   9.502
  938POPC   GL116777  43.872  43.114   9.232
  938POPC   GL216778  43.902  42.801   9.108
  938POPC   C1A16779  44.104  43.187   8.847
  938POPC   D2A16780  44.283  43.177   8.455
  938POPC   C3A16781  44.033  43.248   8.115
  938POPC   C4A16782  44.177  43.302   7.729
  938POPC   C1B16783  43.995  42.704   8.757
  938POPC   C2B16784  43.890  42.850   8.411
  938POPC   C3B16785  43.945  42.736   8.025
  938POPC   C4B16786  43.834  42.916   7.645
  939POPC   NC316787  16.299   2.547   9.360
  939POPC   PO416788  16.249   3.224   9.515
  939POPC   GL116789  16.101   2.999   9.171
  939POPC   GL216790  16.416   3.088   9.056
  939POPC   C1A16791  15.866   2.816   8.793
  939POPC   D2A16792  15.625   2.792   8.395
  939POPC   C3A16793  15.800   2.670   7.976
  939POPC   C4A16794  15.806   2.874   7.588
  939POPC   C1B16795  16.370   2.833   8.699
  939POPC   C2B16796  16.158   2.704   8.342
  939POPC   C3B16797  16.319   2.710   7.927
  939POPC   C4B16798  16.130   2.465   7.590
  940POPC   NC316799  15.362  16.211   9.429
  940POPC   PO416800  14.952  15.716   9.600
  940POPC   GL116801  15.071  15.754   9.180
  940POPC   GL216802  15.008  15.416   9.119
  940POPC   C1A16803  15.120  16.006   8.780
  940POPC   D2A16804  15.453  15.977   8.466
  940POPC   C3A16805  15.353  15.978   8.047
  940POPC   C4A16806  15.537  15.839   7.688
  940POPC   C1B16807  14.880  15.526   8.757
  940POPC   C2B16808  15.083  15.614   8.390
  940POPC   C3B16809  14.950  15.666   7.989
  940POPC   C4B16810  14.957  16.008   7.686
  941POPC   NC316811  39.534   5.110   9.779
  941POPC   PO416812  38.899   5.067   9.501
  941POPC   GL116813  39.209   5.285   9.220
  941POPC   GL216814  39.521   5.075   9.218
  941POPC   C1A16815  39.351   5.374   8.792
  941POPC   D2A16816  39.347   5.110   8.398
  941POPC   C3A16817  39.275   5.162   7.943
  941POPC   C4A16818  39.090   4.997   7.546
  941POPC   C1B16819  39.497   4.830   8.801
  941POPC   C2B16820  39.562   4.659   8.312
  941POPC   C3B16821  39.385   4.670   7.850
  941POPC   C4B16822  39.515   4.739   7.368
  942POPC   NC316823  22.424  14.431   9.448
  942POPC   PO416824  21.878  14.089   9.362
  942POPC   GL116825  22.128  14.311   9.055
  942POPC   GL216826  22.096  14.683   9.133
  942POPC   C1A16827  22.355  14.520   8.718
  942POPC   D2A16828  22.261  14.659   8.310
  942POPC   C3A16829  22.177  14.305   8.000
  942POPC   C4A16830  22.086  14.175   7.572
  942POPC   C1B16831  21.816  14.583   8.742
  942POPC   C2B16832  21.772  14.475   8.276
  942POPC   C3B16833  21.925  14.751   7.900
  942POPC   C4B16834  21.992  14.698   7.421
  943POPC   NC316835  43.525   7.105   9.556
  943POPC   PO416836  43.940   7.618   9.414
  943POPC   GL116837  43.946   7.332   9.090
  943POPC   GL216838  43.708   7.068   9.094
  943POPC   C1A16839  44.147   7.350   8.686
  943POPC   D2A16840  44.056   7.554   8.317
  943POPC   C3A16841  44.266   7.424   7.968
  943POPC   C4A16842  44.116   7.525   7.571
  943POPC   C1B16843  43.631   7.263   8.695
  943POPC   C2B16844  43.725   7.174   8.289
  943POPC   C3B16845  43.728   7.419   7.916
  943POPC   C4B16846  43.650   7.307   7.495
  944POPC   NC316847  27.518   9.215   9.623
  944POPC   PO416848  26.985   9.194   9.281
  944POPC   GL116849  27.365   8.979   9.134
  944POPC   GL216850  27.723   9.059   9.190
  944POPC   C1A16851  27.547   8.823   8.753
  944POPC   D2A16852  27.594   8.583   8.375
  944POPC   C3A16853  27.429   8.824   8.034
  944POPC   C4A16854  27.365   8.980   7.635
  944POPC   C1B16855  27.955   9.135   8.839
  944POPC   C2B16856  27.955   8.952   8.451
  944POPC   C3B16857  27.955   8.828   8.039
  944POPC   C4B16858  27.811   9.164   7.791
  945POPC   NC316859  21.184  15.291   9.629
  945POPC   PO416860  21.647  14.827   9.361
  945POPC   GL116861  21.443  15.052   9.106
  945POPC   GL216862  21.145  15.036   9.199
  945POPC   C1A16863  21.518  15.052   8.710
  945POPC   D2A16864  21.757  14.951   8.381
  945POPC   C3A16865  21.498  15.051   8.048
  945POPC   C4A16866  21.478  15.462   7.835
  945POPC   C1B16867  21.047  15.233   8.806
  945POPC   C2B16868  21.213  15.334   8.400
  945POPC   C3B16869  21.025  15.362   8.026
  945POPC   C4B16870  21.097  15.168   7.623
  946POPC   NC316871  25.571  23.795   9.597
  946POPC   PO416872  26.190  23.845   9.608
  946POPC   GL116873  25.969  23.748   9.233
  946POPC   GL216874  25.796  23.427   9.277
  946POPC   C1A16875  25.903  23.995   8.859
  946POPC   D2A16876  25.702  24.032   8.482
  946POPC   C3A16877  25.909  24.076   8.102
  946POPC   C4A16878  25.771  24.011   7.715
  946POPC   C1B16879  25.964  23.374   8.851
  946POPC   C2B16880  25.909  23.555   8.444
  946POPC   C3B16881  25.747  23.539   8.016
  946POPC   C4B16882  25.846  23.536   7.572
  947POPC   NC316883   6.892  17.890   9.793
  947POPC   PO416884   7.487  17.494   9.872
  947POPC   GL116885   7.362  17.453   9.374
  947POPC   GL216886   7.694  17.354   9.204
  947POPC   C1A16887   7.286  17.319   8.908
  947POPC   D2A16888   7.489  17.187   8.497
  947POPC   C3A16889   7.288  17.340   8.086
  947POPC   C4A16890   7.367  17.735   7.843
  947POPC   C1B16891   7.724  17.599   8.792
  947POPC   C2B16892   7.947  17.503   8.430
  947POPC   C3B16893   7.787  17.462   8.052
  947POPC   C4B16894   7.896  17.788   7.795
  948POPC   NC316895  40.238   6.731   9.442
  948POPC   PO416896  39.555   6.839   9.365
  948POPC   GL116897  39.897   6.791   9.050
  948POPC   GL216898  39.828   6.495   8.828
  948POPC   C1A16899  40.292   6.746   8.752
  948POPC   D2A16900  40.138   6.671   8.361
  948POPC   C3A16901  40.387   6.743   8.019
  948POPC   C4A16902  40.306   6.874   7.600
  948POPC   C1B16903  40.051   6.164   8.585
  948POPC   C2B16904  40.011   6.212   8.174
  948POPC   C3B16905  39.930   6.546   7.864
  948POPC   C4B16906  40.033   6.440   7.457
  949POPC   NC316907  25.072  28.619   9.518
  949POPC   PO416908  25.527  28.174   9.552
  949POPC   GL116909  25.322  28.341   9.183
  949POPC   GL216910  24.946  28.246   9.209
  949POPC   C1A16911  25.388  28.391   8.756
  949POPC   D2A16912  25.113  28.169   8.496
  949POPC   C3A16913  25.175  28.219   8.051
  949POPC   C4A16914  25.265  28.160   7.616
  949POPC   C1B16915  24.907  28.547   8.883
  949POPC   C2B16916  24.878  28.607   8.447
  949POPC   C3B16917  24.743  28.488   8.037
  949POPC   C4B16918  24.861  28.572   7.602
  950POPC   NC316919   2.888   3.954   9.213
  950POPC   PO416920   2.436   4.279   9.495
  950POPC   GL116921   2.619   4.424   9.096
  950POPC   GL216922   2.873   4.680   9.201
  950POPC   C1A16923   2.707   4.212   8.671
  950POPC   D2A16924   2.992   3.949   8.449
  950POPC   C3A16925   2.968   4.051   7.997
  950POPC   C4A16926   2.724   4.386   7.808
  950POPC   C1B16927   3.051   4.575   8.792
  950POPC   C2B16928   3.014   4.455   8.333
  950POPC   C3B16929   3.182   4.574   7.940
  950POPC   C4B16930   3.137   4.407   7.500
  951POPC   NC316931  12.965  44.457   9.639
  951POPC   PO416932  12.391  44.761   9.579
  951POPC   GL116933  12.667  44.529   9.209
  951POPC   GL216934  13.055  44.398   9.145
  951POPC   C1A16935  12.695  44.619   8.751
  951POPC   D2A16936  12.548  44.852   8.364
  951POPC   C3A16937  12.543  44.624   7.982
  951POPC   C4A16938  12.888  44.533   7.691
  951POPC   C1B16939  13.111  44.815   8.975
  951POPC   C2B16940  13.061  44.920   8.538
  951POPC   C3B16941  13.046  44.774   8.123
  951POPC   C4B16942  13.262  44.900   7.729
  952POPC   NC316943  34.835  13.214   9.434
  952POPC   PO416944  34.442  13.792   9.431
  952POPC   GL116945  34.515  13.497   9.118
  952POPC   GL216946  34.848  13.491   9.000
  952POPC   C1A16947  34.456  13.390   8.686
  952POPC   D2A16948  34.312  13.559   8.321
  952POPC   C3A16949  34.594  13.396   8.030
  952POPC   C4A16950  34.606  13.307   7.613
  952POPC   C1B16951  34.665  13.881   8.788
  952POPC   C2B16952  34.501  14.092   8.395
  952POPC   C3B16953  34.472  13.927   7.971
  952POPC   C4B16954  34.274  13.718   7.619
  953POPC   NC316955   6.681  42.058   9.357
  953POPC   PO416956   6.352  42.621   9.471
  953POPC   GL116957   6.642  42.618   9.101
  953POPC   GL216958   6.964  42.419   9.076
  953POPC   C1A16959   6.707  42.616   8.637
  953POPC   D2A16960   6.578  42.322   8.327
  953POPC   C3A16961   6.744  42.447   7.937
  953POPC   C4A16962   6.374  42.422   7.711
  953POPC   C1B16963   6.847  42.119   8.734
  953POPC   C2B16964   6.829  41.860   8.362
  953POPC   C3B16965   6.675  41.951   7.956
  953POPC   C4B16966   6.677  42.067   7.535
  954POPC   NC316967  33.792  27.887   9.413
  954POPC   PO416968  33.911  28.403   9.560
  954POPC   GL116969  33.820  28.561   9.159
  954POPC   GL216970  33.690  28.259   9.055
  954POPC   C1A16971  33.824  28.607   8.681
  954POPC   D2A16972  33.738  28.401   8.263
  954POPC   C3A16973  33.969  28.379   7.857
  954POPC   C4A16974  33.894  28.153   7.441
  954POPC   C1B16975  33.515  28.135   8.666
  954POPC   C2B16976  33.637  27.903   8.304
  954POPC   C3B16977  33.595  28.021   7.868
  954POPC   C4B16978  33.396  28.276   7.539
  955POPC   NC316979   8.230  40.453   9.695
  955POPC   PO416980   7.806  40.012   9.280
  955POPC   GL116981   8.021  39.877   8.960
  955POPC   GL216982   8.110  40.163   8.786
  955POPC   C1A16983   7.796  39.739   8.643
  955POPC   D2A16984   7.884  40.026   8.360
  955POPC   C3A16985   8.126  39.960   8.019
  955POPC   C4A16986   8.148  40.273   7.715
  955POPC   C1B16987   8.347  39.885   8.550
  955POPC   C2B16988   8.653  39.893   8.255
  955POPC   C3B16989   8.592  40.174   7.945
  955POPC   C4B16990   8.535  40.033   7.505
  956POPC   NC316991  16.506  35.024   9.759
  956POPC   PO416992  16.707  35.569   9.319
  956POPC   GL116993  16.733  35.404   8.936
  956POPC   GL216994  16.381  35.512   8.902
  956POPC   C1A16995  16.832  35.378   8.537
  956POPC   D2A16996  16.893  35.670   8.234
  956POPC   C3A16997  16.884  35.413   7.890
  956POPC   C4A16998  16.939  35.064   7.652
  956POPC   C1B16999  16.353  35.142   8.636
  956POPC   C2B17000  16.446  35.246   8.213
  956POPC   C3B17001  16.439  35.131   7.812
  956POPC   C4B17002  16.528  35.455   7.486
  957POPC   NC317003   7.878   4.433   9.537
  957POPC   PO417004   8.492   4.002   9.396
  957POPC   GL117005   8.115   4.139   9.171
  957POPC   GL217006   8.212   4.467   9.140
  957POPC   C1A17007   7.922   4.320   8.772
  957POPC   D2A17008   8.122   4.413   8.400
  957POPC   C3A17009   7.983   4.214   8.044
  957POPC   C4A17010   7.983   4.415   7.664
  957POPC   C1B17011   8.490   4.352   8.775
  957POPC   C2B17012   8.645   4.434   8.350
  957POPC   C3B17013   8.428   4.471   7.945
  957POPC   C4B17014   8.455   4.463   7.482
  958POPC   NC317015  43.373   3.585   9.595
  958POPC   PO417016  42.705   3.672   9.464
  958POPC   GL117017  42.956   3.612   9.114
  958POPC   GL217018  43.298   3.721   9.105
  958POPC   C1A17019  42.960   3.678   8.673
  958POPC   D2A17020  42.655   3.718   8.337
  958POPC   C3A17021  42.929   3.591   8.055
  958POPC   C4A17022  43.099   3.190   7.914
  958POPC   C1B17023  43.496   3.692   8.711
  958POPC   C2B17024  43.402   3.749   8.278
  958POPC   C3B17025  43.396   3.602   7.872
  958POPC   C4B17026  43.389   3.800   7.508
  959POPC   NC317027  21.042  26.972   9.285
  959POPC   PO417028  21.568  27.091   9.618
  959POPC   GL117029  21.523  26.922   9.163
  959POPC   GL217030  21.676  26.616   9.010
  959POPC   C1A17031  21.519  27.000   8.740
  959POPC   D2A17032  21.256  26.925   8.423
  959POPC   C3A17033  21.448  27.012   8.040
  959POPC   C4A17034  21.293  27.063   7.643
  959POPC   C1B17035  21.289  26.537   8.804
  959POPC   C2B17036  21.126  26.423   8.416
  959POPC   C3B17037  21.203  26.544   8.011
  959POPC   C4B17038  21.516  26.592   7.704
  960POPC   NC317039   3.252   9.329   9.551
  960POPC   PO417040   3.185  10.027   9.597
  960POPC   GL117041   2.873   9.835   9.322
  960POPC   GL217042   3.022   9.565   9.175
  960POPC   C1A17043   2.762   9.838   8.834
  960POPC   D2A17044   2.662   9.959   8.363
  960POPC   C3A17045   2.984   9.960   8.027
  960POPC   C4A17046   3.224   9.934   7.661
  960POPC   C1B17047   3.037   9.380   8.775
  960POPC   C2B17048   3.004   9.582   8.381
  960POPC   C3B17049   2.956   9.427   7.952
  960POPC   C4B17050   2.937   9.427   7.509
  961POPC   NC317051  17.935  33.853   9.467
  961POPC   PO417052  18.549  33.641   9.188
  961POPC   GL117053  18.232  33.826   9.046
  961POPC   GL217054  18.381  34.145   9.201
  961POPC   C1A17055  18.004  33.543   8.797
  961POPC   D2A17056  18.086  33.333   8.412
  961POPC   C3A17057  18.088  33.586   8.023
  961POPC   C4A17058  18.466  33.697   7.787
  961POPC   C1B17059  18.070  34.279   8.929
  961POPC   C2B17060  18.063  34.281   8.481
  961POPC   C3B17061  18.258  34.060   8.123
  961POPC   C4B17062  18.071  34.021   7.691
  962POPC   NC317063  29.384  11.736   9.806
  962POPC   PO417064  29.487  12.350   9.510
  962POPC   GL117065  29.161  12.309   9.130
  962POPC   GL217066  29.069  11.943   9.064
  962POPC   C1A17067  28.853  12.296   8.747
  962POPC   D2A17068  28.844  12.003   8.377
  962POPC   C3A17069  28.904  12.166   7.994
  962POPC   C4A17070  28.880  11.940   7.626
  962POPC   C1B17071  29.338  12.059   8.695
  962POPC   C2B17072  29.334  12.108   8.269
  962POPC   C3B17073  29.411  12.230   7.895
  962POPC   C4B17074  29.387  11.949   7.605
  963POPC   NC317075   0.807   8.224   9.561
  963POPC   PO417076   1.462   8.152   9.421
  963POPC   GL117077   1.343   8.142   8.991
  963POPC   GL217078   0.999   8.147   9.047
  963POPC   C1A17079   1.348   8.448   8.650
  963POPC   D2A17080   1.442   8.448   8.190
  963POPC   C3A17081   1.243   8.158   7.944
  963POPC   C4A17082   0.908   8.253   7.709
  963POPC   C1B17083   1.024   8.044   8.591
  963POPC   C2B17084   0.808   8.037   8.193
  963POPC   C3B17085   0.660   7.819   7.836
  963POPC   C4B17086   0.849   7.799   7.457
  964POPC   NC317087  19.573   4.304   9.500
  964POPC   PO417088  18.932   4.497   9.608
  964POPC   GL117089  19.037   4.367   9.171
  964POPC   GL217090  19.125   4.058   8.967
  964POPC   C1A17091  19.260   4.504   8.778
  964POPC   D2A17092  19.181   4.314   8.316
  964POPC   C3A17093  19.380   4.559   7.966
  964POPC   C4A17094  19.464   4.434   7.509
  964POPC   C1B17095  18.827   4.255   8.702
  964POPC   C2B17096  18.597   4.349   8.369
  964POPC   C3B17097  18.742   4.206   8.021
  964POPC   C4B17098  19.086   4.194   7.787
  965POPC   NC317099  22.509   0.330   9.419
  965POPC   PO417100  21.900   0.331   9.343
  965POPC   GL117101  22.112   0.406   8.988
  965POPC   GL217102  22.437   0.287   8.921
  965POPC   C1A17103  22.011   0.397   8.559
  965POPC   D2A17104  22.204   0.471   8.178
  965POPC   C3A17105  22.008   0.493   7.806
  965POPC   C4A17106  22.097   0.720   7.445
  965POPC   C1B17107  22.427   0.689   8.680
  965POPC   C2B17108  22.544   0.841   8.267
  965POPC   C3B17109  22.484   0.754   7.818
  965POPC   C4B17110  22.530   0.430   7.485
  966POPC   NC317111  35.540  30.412   9.451
  966POPC   PO417112  35.449  31.076   9.508
  966POPC   GL117113  35.341  30.975   9.083
  966POPC   GL217114  35.257  30.632   9.088
  966POPC   C1A17115  35.547  30.827   8.704
  966POPC   D2A17116  35.658  30.523   8.382
  966POPC   C3A17117  35.685  30.766   8.001
  966POPC   C4A17118  35.400  30.955   7.721
  966POPC   C1B17119  35.088  30.559   8.697
  966POPC   C2B17120  35.072  30.223   8.375
  966POPC   C3B17121  35.329  30.218   8.035
  966POPC   C4B17122  35.467  30.439   7.688
  967POPC   NC317123  33.088   7.755   9.503
  967POPC   PO417124  33.157   7.057   9.530
  967POPC   GL117125  33.040   7.295   9.175
  967POPC   GL217126  32.809   7.044   9.035
  967POPC   C1A17127  32.923   7.538   8.799
  967POPC   D2A17128  32.776   7.644   8.363
  967POPC   C3A17129  33.037   7.553   7.973
  967POPC   C4A17130  33.160   7.851   7.626
  967POPC   C1B17131  33.174   7.087   8.704
  967POPC   C2B17132  33.341   7.088   8.259
  967POPC   C3B17133  33.232   7.103   7.839
  967POPC   C4B17134  32.829   7.169   7.639
  968POPC   NC317135  40.041  14.567   9.468
  968POPC   PO417136  39.529  14.229   9.357
  968POPC   GL117137  39.761  14.411   9.045
  968POPC   GL217138  40.121  14.375   8.983
  968POPC   C1A17139  39.761  14.517   8.636
  968POPC   D2A17140  39.466  14.647   8.373
  968POPC   C3A17141  39.627  14.698   7.960
  968POPC   C4A17142  39.922  14.400   7.720
  968POPC   C1B17143  40.086  14.112   8.576
  968POPC   C2B17144  40.092  14.086   8.104
  968POPC   C3B17145  40.320  14.047   7.707
  968POPC   C4B17146  40.523  14.353   7.403
  969POPC   NC317147  22.567  41.984   9.747
  969POPC   PO417148  23.000  42.460   9.470
  969POPC   GL117149  23.117  42.352   9.083
  969POPC   GL217150  23.214  42.011   9.181
  969POPC   C1A17151  22.947  42.289   8.678
  969POPC   D2A17152  22.759  42.069   8.352
  969POPC   C3A17153  22.669  42.287   7.965
  969POPC   C4A17154  22.656  42.394   7.508
  969POPC   C1B17155  23.131  41.845   8.769
  969POPC   C2B17156  23.256  41.961   8.358
  969POPC   C3B17157  23.048  41.928   7.971
  969POPC   C4B17158  23.086  42.186   7.657
  970POPC   NC317159   8.806  22.395   9.495
  970POPC   PO417160   9.369  22.381   9.506
  970POPC   GL117161   9.073  22.119   9.158
  970POPC   GL217162   8.706  22.114   9.091
  970POPC   C1A17163   8.970  21.963   8.687
  970POPC   D2A17164   9.008  22.096   8.256
  970POPC   C3A17165   9.197  21.911   7.889
  970POPC   C4A17166   9.037  21.557   7.646
  970POPC   C1B17167   8.517  22.274   8.690
  970POPC   C2B17168   8.528  22.283   8.262
  970POPC   C3B17169   8.718  22.400   7.907
  970POPC   C4B17170   8.896  22.405   7.504
  971POPC   NC317171  16.464  42.977   9.556
  971POPC   PO417172  17.038  43.335   9.422
  971POPC   GL117173  16.927  43.087   9.089
  971POPC   GL217174  16.603  42.979   9.055
  971POPC   C1A17175  16.830  43.290   8.701
  971POPC   D2A17176  16.909  43.120   8.304
  971POPC   C3A17177  16.716  43.333   7.982
  971POPC   C4A17178  16.905  43.642   7.730
  971POPC   C1B17179  16.803  42.771   8.684
  971POPC   C2B17180  16.786  42.563   8.273
  971POPC   C3B17181  16.747  42.825   7.915
  971POPC   C4B17182  16.374  42.975   7.716
  972POPC   NC317183  15.384  36.132   9.514
  972POPC   PO417184  14.798  35.989   9.249
  972POPC   GL117185  15.185  35.915   9.106
  972POPC   GL217186  15.236  36.248   9.037
  972POPC   C1A17187  15.398  35.828   8.741
  972POPC   D2A17188  15.320  36.136   8.451
  972POPC   C3A17189  15.237  35.981   8.072
  972POPC   C4A17190  15.310  36.104   7.683
  972POPC   C1B17191  14.924  36.359   8.703
  972POPC   C2B17192  15.031  36.538   8.288
  972POPC   C3B17193  14.956  36.414   7.879
  972POPC   C4B17194  15.109  36.556   7.468
  973POPC   NC317195  39.082  24.163   9.998
  973POPC   PO417196  39.472  24.688   9.769
  973POPC   GL117197  39.378  24.481   9.326
  973POPC   GL217198  39.378  24.112   9.278
  973POPC   C1A17199  39.152  24.457   8.893
  973POPC   D2A17200  39.127  24.684   8.495
  973POPC   C3A17201  39.257  24.478   8.101
  973POPC   C4A17202  38.926  24.354   7.814
  973POPC   C1B17203  39.607  24.271   8.909
  973POPC   C2B17204  39.615  24.268   8.473
  973POPC   C3B17205  39.563  23.995   8.129
  973POPC   C4B17206  39.373  24.098   7.754
  974POPC   NC317207   2.441  44.670   9.410
  974POPC   PO417208   3.034  44.311   9.397
  974POPC   GL117209   2.787  44.406   9.057
  974POPC   GL217210   2.741  44.765   8.983
  974POPC   C1A17211   2.735  44.421   8.627
  974POPC   D2A17212   2.768  44.779   8.392
  974POPC   C3A17213   2.885  44.727   7.976
  974POPC   C4A17214   2.872   0.002   7.632
  974POPC   C1B17215   2.375  44.772   8.728
  974POPC   C2B17216   2.280  44.950   8.325
  974POPC   C3B17217   2.379  44.887   7.889
  974POPC   C4B17218   2.382   0.014   7.458
  975POPC   NC317219  24.296  27.237   9.445
  975POPC   PO417220  24.838  27.748   9.442
  975POPC   GL117221  24.704  27.585   9.091
  975POPC   GL217222  24.365  27.570   9.068
  975POPC   C1A17223  24.671  27.239   8.808
  975POPC   D2A17224  24.770  27.306   8.384
  975POPC   C3A17225  24.607  27.635   8.142
  975POPC   C4A17226  24.556  27.602   7.704
  975POPC   C1B17227  24.410  27.668   8.651
  975POPC   C2B17228  24.164  27.812   8.340
  975POPC   C3B17229  24.122  27.652   7.957
  975POPC   C4B17230  24.119  27.821   7.546
  976POPC   NC317231  18.369  26.229   9.519
  976POPC   PO417232  17.900  25.784   9.466
  976POPC   GL117233  18.147  25.967   9.162
  976POPC   GL217234  18.496  25.847   9.211
  976POPC   C1A17235  18.052  26.288   8.840
  976POPC   D2A17236  18.181  26.556   8.513
  976POPC   C3A17237  18.273  26.257   8.166
  976POPC   C4A17238  18.328  26.128   7.744
  976POPC   C1B17239  18.452  25.983   8.777
  976POPC   C2B17240  18.584  25.958   8.420
  976POPC   C3B17241  18.531  25.783   8.040
  976POPC   C4B17242  18.697  25.793   7.623
  977POPC   NC317243  22.048  15.787   9.719
  977POPC   PO417244  21.683  16.256   9.486
  977POPC   GL117245  21.840  15.910   9.259
  977POPC   GL217246  22.201  15.916   9.244
  977POPC   C1A17247  21.904  15.884   8.817
  977POPC   D2A17248  22.098  15.752   8.400
  977POPC   C3A17249  21.933  15.762   7.957
  977POPC   C4A17250  22.306  15.565   7.746
  977POPC   C1B17251  22.298  16.201   8.901
  977POPC   C2B17252  22.271  16.229   8.438
  977POPC   C3B17253  22.333  16.068   7.998
  977POPC   C4B17254  22.411  16.230   7.569
  978POPC   NC317255  15.813  44.091   9.606
  978POPC   PO417256  16.248  43.457   9.602
  978POPC   GL117257  16.194  43.770   9.210
  978POPC   GL217258  15.986  44.095   9.136
  978POPC   C1A17259  15.972  43.733   8.807
  978POPC   D2A17260  16.057  43.977   8.484
  978POPC   C3A17261  15.949  43.826   8.135
  978POPC   C4A17262  16.046  43.806   7.741
  978POPC   C1B17263  15.715  44.226   8.787
  978POPC   C2B17264  15.615  44.224   8.326
  978POPC   C3B17265  15.713  44.177   7.868
  978POPC   C4B17266  15.810  44.118   7.397
  979POPC   NC317267   6.383  37.465   9.712
  979POPC   PO417268   6.735  37.990   9.823
  979POPC   GL117269   6.527  37.941   9.411
  979POPC   GL217270   6.620  37.601   9.281
  979POPC   C1A17271   6.393  37.894   8.952
  979POPC   D2A17272   6.551  37.646   8.613
  979POPC   C3A17273   6.345  37.761   8.239
  979POPC   C4A17274   6.529  37.750   7.854
  979POPC   C1B17275   6.894  37.841   8.978
  979POPC   C2B17276   7.128  37.790   8.612
  979POPC   C3B17277   6.932  37.763   8.211
  979POPC   C4B17278   7.051  37.609   7.831
  980POPC   NC317279  44.884  29.564   9.388
  980POPC   PO417280  44.395  29.687   9.840
  980POPC   GL117281  44.515  29.880   9.316
  980POPC   GL217282  44.618  30.204   9.266
  980POPC   C1A17283  44.536  29.706   8.860
  980POPC   D2A17284  44.754  29.629   8.478
  980POPC   C3A17285  44.464  29.721   8.161
  980POPC   C4A17286  44.584  29.726   7.743
  980POPC   C1B17287  44.773  30.142   8.856
  980POPC   C2B17288  44.693  30.128   8.435
  980POPC   C3B17289  44.882  30.012   8.060
  980POPC   C4B17290  44.801  30.172   7.631
  981POPC   NC317291  22.537  18.956   9.773
  981POPC   PO417292  23.033  18.833   9.609
  981POPC   GL117293  22.920  19.126   9.227
  981POPC   GL217294  23.161  19.359   9.053
  981POPC   C1A17295  22.803  19.156   8.756
  981POPC   D2A17296  22.680  18.902   8.395
  981POPC   C3A17297  22.764  19.003   7.958
  981POPC   C4A17298  22.816  19.172   7.546
  981POPC   C1B17299  23.331  19.183   8.655
  981POPC   C2B17300  23.203  19.015   8.239
  981POPC   C3B17301  23.281  19.022   7.774
  981POPC   C4B17302  23.296  18.867   7.321
  982POPC   NC317303  31.746  15.190   9.433
  982POPC   PO417304  31.062  15.103   9.624
  982POPC   GL117305  31.257  15.132   9.162
  982POPC   GL217306  31.524  14.914   9.053
  982POPC   C1A17307  31.428  15.298   8.719
  982POPC   D2A17308  31.235  15.205   8.288
  982POPC   C3A17309  31.389  15.163   7.870
  982POPC   C4A17310  31.607  15.194   7.489
  982POPC   C1B17311  31.376  14.797   8.622
  982POPC   C2B17312  31.344  14.692   8.189
  982POPC   C3B17313  31.103  14.739   7.846
  982POPC   C4B17314  31.208  14.884   7.397
  983POPC   NC317315  16.974   6.952   9.444
  983POPC   PO417316  16.350   6.717   9.435
  983POPC   GL117317  16.600   6.850   9.114
  983POPC   GL217318  16.736   6.512   9.129
  983POPC   C1A17319  16.830   6.845   8.741
  983POPC   D2A17320  16.644   6.860   8.365
  983POPC   C3A17321  16.849   6.808   8.000
  983POPC   C4A17322  16.775   6.688   7.573
  983POPC   C1B17323  16.457   6.488   8.754
  983POPC   C2B17324  16.437   6.397   8.307
  983POPC   C3B17325  16.536   6.372   7.888
  983POPC   C4B17326  16.378   6.391   7.448
  984POPC   NC317327  30.104  23.030   9.491
  984POPC   PO417328  29.517  23.130   9.468
  984POPC   GL117329  29.743  22.930   9.135
  984POPC   GL217330  29.963  23.160   9.001
  984POPC   C1A17331  29.873  22.685   8.811
  984POPC   D2A17332  30.091  22.683   8.482
  984POPC   C3A17333  29.941  22.569   8.110
  984POPC   C4A17334  29.950  22.747   7.730
  984POPC   C1B17335  29.849  23.126   8.560
  984POPC   C2B17336  30.014  23.080   8.139
  984POPC   C3B17337  29.900  23.251   7.725
  984POPC   C4B17338  29.979  23.051   7.295
  985POPC   NC317339  42.084  34.489   9.399
  985POPC   PO417340  42.496  34.853   9.713
  985POPC   GL117341  42.560  34.484   9.209
  985POPC   GL217342  42.231  34.557   8.925
  985POPC   C1A17343  42.611  34.322   8.731
  985POPC   D2A17344  42.453  34.659   8.409
  985POPC   C3A17345  42.416  34.684   7.926
  985POPC   C4A17346  42.559  34.310   7.746
  985POPC   C1B17347  42.064  34.917   8.646
  985POPC   C2B17348  42.016  34.875   8.231
  985POPC   C3B17349  42.133  35.112   7.914
  985POPC   C4B17350  42.279  34.966   7.513
  986POPC   NC317351  32.687  37.292   9.392
  986POPC   PO417352  33.084  36.827   9.751
  986POPC   GL117353  33.136  36.822   9.243
  986POPC   GL217354  33.158  37.168   9.219
  986POPC   C1A17355  33.272  36.650   8.797
  986POPC   D2A17356  32.976  36.582   8.436
  986POPC   C3A17357  32.922  36.723   8.010
  986POPC   C4A17358  32.879  36.810   7.537
  986POPC   C1B17359  32.973  37.071   8.786
  986POPC   C2B17360  33.080  37.093   8.329
  986POPC   C3B17361  32.890  37.231   7.924
  986POPC   C4B17362  33.029  37.297   7.465
  987POPC   NC317363  15.980  30.362   9.322
  987POPC   PO417364  15.686  30.975   9.503
  987POPC   GL117365  16.090  30.847   9.245
  987POPC   GL217366  15.876  30.899   9.019
  987POPC   C1A17367  16.273  30.619   8.817
  987POPC   D2A17368  16.339  30.757   8.412
  987POPC   C3A17369  16.147  30.637   8.077
  987POPC   C4A17370  15.806  30.851   7.927
  987POPC   C1B17371  15.796  30.703   8.641
  987POPC   C2B17372  15.925  30.336   8.447
  987POPC   C3B17373  15.834  30.242   8.030
  987POPC   C4B17374  15.652  30.427   7.684
  988POPC   NC317375  13.801  34.154   9.362
  988POPC   PO417376  13.737  34.864   9.430
  988POPC   GL117377  13.713  34.847   9.031
  988POPC   GL217378  13.674  34.481   9.009
  988POPC   C1A17379  13.477  34.784   8.666
  988POPC   D2A17380  13.525  34.465   8.378
  988POPC   C3A17381  13.399  34.604   7.980
  988POPC   C4A17382  13.631  34.785   7.639
  988POPC   C1B17383  13.996  34.271   8.764
  988POPC   C2B17384  13.948  34.157   8.368
  988POPC   C3B17385  13.881  34.410   8.001
  988POPC   C4B17386  14.052  34.208   7.654
  989POPC   NC317387  10.113  23.238   9.295
  989POPC   PO417388  10.779  23.550   9.425
  989POPC   GL117389  10.492  23.571   9.125
  989POPC   GL217390  10.460  23.914   9.082
  989POPC   C1A17391  10.394  23.567   8.692
  989POPC   D2A17392  10.369  23.405   8.269
  989POPC   C3A17393  10.542  23.716   8.011
  989POPC   C4A17394  10.849  23.736   7.729
  989POPC   C1B17395  10.737  23.961   8.716
  989POPC   C2B17396  10.839  24.068   8.273
  989POPC   C3B17397  10.675  24.197   7.848
  989POPC   C4B17398  10.522  24.003   7.443
  990POPC   NC317399  39.756  41.929   9.504
  990POPC   PO417400  40.216  42.381   9.365
  990POPC   GL117401  39.900  42.249   9.128
  990POPC   GL217402  40.000  41.887   9.068
  990POPC   C1A17403  39.838  42.510   8.763
  990POPC   D2A17404  40.215  42.558   8.500
  990POPC   C3A17405  40.095  42.600   8.085
  990POPC   C4A17406  39.771  42.405   7.836
  990POPC   C1B17407  40.124  42.088   8.704
  990POPC   C2B17408  39.904  42.175   8.347
  990POPC   C3B17409  39.997  41.968   8.007
  990POPC   C4B17410  39.778  41.925   7.629
  991POPC   NC317411   5.040  31.782   9.579
  991POPC   PO417412   5.456  31.378   9.358
  991POPC   GL117413   5.350  31.678   9.105
  991POPC   GL217414   5.001  31.603   9.066
  991POPC   C1A17415   5.329  31.584   8.662
  991POPC   D2A17416   5.230  31.390   8.288
  991POPC   C3A17417   5.170  31.663   7.965
  991POPC   C4A17418   5.061  31.710   7.533
  991POPC   C1B17419   4.808  31.566   8.656
  991POPC   C2B17420   4.710  31.351   8.275
  991POPC   C3B17421   4.780  31.371   7.832
  991POPC   C4B17422   4.629  31.467   7.455
  992POPC   NC317423  22.486  26.210   9.481
  992POPC   PO417424  21.870  26.138   9.613
  992POPC   GL117425  22.026  26.265   9.227
  992POPC   GL217426  22.178  25.955   9.153
  992POPC   C1A17427  22.024  26.266   8.782
  992POPC   D2A17428  22.175  26.369   8.363
  992POPC   C3A17429  21.974  26.227   7.985
  992POPC   C4A17430  22.263  26.162   7.688
  992POPC   C1B17431  22.370  25.890   8.759
  992POPC   C2B17432  22.560  25.983   8.399
  992POPC   C3B17433  22.308  25.831   8.075
  992POPC   C4B17434  22.242  25.661   7.677
  993POPC   NC317435  29.231   1.495   9.526
  993POPC   PO417436  29.000   2.145   9.398
  993POPC   GL117437  28.871   1.855   9.128
  993POPC   GL217438  29.212   1.738   9.074
  993POPC   C1A17439  28.906   2.063   8.745
  993POPC   D2A17440  29.225   1.999   8.434
  993POPC   C3A17441  29.067   2.011   8.035
  993POPC   C4A17442  29.053   2.320   7.728
  993POPC   C1B17443  29.001   1.556   8.725
  993POPC   C2B17444  29.029   1.446   8.276
  993POPC   C3B17445  29.339   1.545   7.943
  993POPC   C4B17446  29.458   1.929   7.704
  994POPC   NC317447  32.451  33.046   9.549
  994POPC   PO417448  31.892  33.340   9.256
  994POPC   GL117449  32.229  33.149   9.087
  994POPC   GL217450  32.190  32.792   9.166
  994POPC   C1A17451  32.185  32.967   8.678
  994POPC   D2A17452  31.949  32.795   8.377
  994POPC   C3A17453  32.057  33.109   8.085
  994POPC   C4A17454  32.178  32.985   7.712
  994POPC   C1B17455  32.359  32.498   8.854
  994POPC   C2B17456  32.463  32.589   8.447
  994POPC   C3B17457  32.402  32.698   8.070
  994POPC   C4B17458  32.336  32.467   7.720
  995POPC   NC317459  29.793  12.674   9.592
  995POPC   PO417460  30.223  13.021   9.385
  995POPC   GL117461  29.946  12.799   9.131
  995POPC   GL217462  30.064  12.480   9.178
  995POPC   C1A17463  29.924  12.823   8.722
  995POPC   D2A17464  30.026  12.789   8.330
  995POPC   C3A17465  29.628  12.847   8.112
  995POPC   C4A17466  29.513  12.719   7.727
  995POPC   C1B17467  30.306  12.461   8.790
  995POPC   C2B17468  30.521  12.600   8.399
  995POPC   C3B17469  30.354  12.631   7.993
  995POPC   C4B17470  30.030  12.709   7.667
  996POPC   NC317471   5.689   5.505   9.347
  996POPC   PO417472   6.174   5.002   9.580
  996POPC   GL117473   6.002   5.099   9.148
  996POPC   GL217474   5.634   5.052   9.070
  996POPC   C1A17475   5.923   5.258   8.733
  996POPC   D2A17476   5.946   5.047   8.334
  996POPC   C3A17477   5.745   5.166   7.962
  996POPC   C4A17478   5.960   5.125   7.608
  996POPC   C1B17479   5.607   4.838   8.695
  996POPC   C2B17480   5.767   4.571   8.393
  996POPC   C3B17481   5.682   4.658   7.970
  996POPC   C4B17482   5.526   4.862   7.559
  997POPC   NC317483  38.178  16.974   9.416
  997POPC   PO417484  38.768  16.600   9.592
  997POPC   GL117485  38.651  16.824   9.229
  997POPC   GL217486  38.404  16.552   9.172
  997POPC   C1A17487  38.419  16.887   8.813
  997POPC   D2A17488  38.246  16.723   8.452
  997POPC   C3A17489  38.451  16.895   8.087
  997POPC   C4A17490  38.264  17.062   7.724
  997POPC   C1B17491  38.735  16.486   8.839
  997POPC   C2B17492  38.778  16.656   8.428
  997POPC   C3B17493  38.783  16.511   7.992
  997POPC   C4B17494  38.690  16.802   7.615
  998POPC   NC317495  32.015   8.652   9.559
  998POPC   PO417496  32.622   8.907   9.464
  998POPC   GL117497  32.302   8.899   9.167
  998POPC   GL217498  32.237   9.261   9.152
  998POPC   C1A17499  32.384   8.926   8.734
  998POPC   D2A17500  32.288   9.106   8.362
  998POPC   C3A17501  32.376   8.937   8.009
  998POPC   C4A17502  32.199   8.613   7.808
  998POPC   C1B17503  32.046   9.347   8.754
  998POPC   C2B17504  31.914   9.461   8.337
  998POPC   C3B17505  31.997   9.368   7.878
  998POPC   C4B17506  31.959   9.349   7.407
  999POPC   NC317507  14.869  14.247   9.582
  999POPC   PO417508  14.268  14.437   9.487
  999POPC   GL117509  14.286  14.432   9.097
  999POPC   GL217510  14.647  14.470   9.109
  999POPC   C1A17511  14.375  14.591   8.711
  999POPC   D2A17512  14.384  14.382   8.340
  999POPC   C3A17513  14.239  14.569   7.984
  999POPC   C4A17514  14.300  14.467   7.581
  999POPC   C1B17515  14.870  14.446   8.693
  999POPC   C2B17516  14.852  14.616   8.287
  999POPC   C3B17517  14.744  14.583   7.867
  999POPC   C4B17518  14.791  14.343   7.504
 1000POPC   NC317519  18.424  36.322   9.809
 1000POPC   PO417520  18.066  35.930   9.391
 1000POPC   GL117521  18.331  36.064   9.108
 1000POPC   GL217522  18.440  36.338   9.267
 1000POPC   C1A17523  18.288  35.924   8.700
 1000POPC   D2A17524  17.959  35.838   8.385
 1000POPC   C3A17525  18.174  35.906   8.010
 1000POPC   C4A17526  18.231  36.209   7.735
 1000POPC   C1B17527  18.422  36.468   8.808
 1000POPC   C2B17528  18.418  36.306   8.365
 1000POPC   C3B17529  18.662  36.361   7.962
 1000POPC   C4B17530  18.677  35.954   7.745
 1001POPC   NC317531  33.675  19.348   9.935
 1001POPC   PO417532  34.243  19.281   9.568
 1001POPC   GL117533  33.963  19.205   9.236
 1001POPC   GL217534  33.678  19.411   9.267
 1001POPC   C1A17535  33.999  19.036   8.820
 1001POPC   D2A17536  34.273  18.887   8.499
 1001POPC   C3A17537  34.004  18.976   8.167
 1001POPC   C4A17538  33.918  19.057   7.756
 1001POPC   C1B17539  33.555  19.299   8.854
 1001POPC   C2B17540  33.534  19.226   8.417
 1001POPC   C3B17541  33.467  19.165   7.975
 1001POPC   C4B17542  33.411  18.782   7.765
 1002POPC   NC317543  39.565  37.166   9.425
 1002POPC   PO417544  39.091  37.551   9.738
 1002POPC   GL117545  39.334  37.606   9.327
 1002POPC   GL217546  39.249  37.315   9.060
 1002POPC   C1A17547  39.377  37.769   8.888
 1002POPC   D2A17548  39.365  37.518   8.490
 1002POPC   C3A17549  39.222  37.780   8.122
 1002POPC   C4A17550  39.044  37.917   7.714
 1002POPC   C1B17551  39.563  37.111   8.767
 1002POPC   C2B17552  39.839  37.226   8.431
 1002POPC   C3B17553  39.748  37.563   8.134
 1002POPC   C4B17554  39.530  37.647   7.737
 1003POPC   NC317555  26.609  32.039   9.745
 1003POPC   PO417556  27.110  32.335   9.445
 1003POPC   GL117557  26.709  32.322   9.204
 1003POPC   GL217558  26.627  31.957   9.234
 1003POPC   C1A17559  26.714  32.444   8.751
 1003POPC   D2A17560  27.024  32.337   8.433
 1003POPC   C3A17561  26.901  32.406   8.015
 1003POPC   C4A17562  26.674  32.506   7.670
 1003POPC   C1B17563  26.953  31.983   8.889
 1003POPC   C2B17564  27.158  31.850   8.503
 1003POPC   C3B17565  27.131  31.933   8.056
 1003POPC   C4B17566  26.963  32.077   7.654
 1004POPC   NC317567  28.681  19.090   9.695
 1004POPC   PO417568  29.235  18.776   9.632
 1004POPC   GL117569  29.296  18.875   9.166
 1004POPC   GL217570  28.956  18.934   9.035
 1004POPC   C1A17571  29.350  19.084   8.721
 1004POPC   D2A17572  29.455  19.228   8.269
 1004POPC   C3A17573  29.207  19.104   7.893
 1004POPC   C4A17574  29.101  19.096   7.454
 1004POPC   C1B17575  28.889  18.717   8.620
 1004POPC   C2B17576  28.788  18.647   8.176
 1004POPC   C3B17577  28.753  18.836   7.761
 1004POPC   C4B17578  28.684  18.857   7.283
 1005POPC   NC317579  41.360  44.253   9.454
 1005POPC   PO417580  41.428  44.900   9.479
 1005POPC   GL117581  41.633  44.772   9.120
 1005POPC   GL217582  41.736  44.421   9.146
 1005POPC   C1A17583  41.573  44.854   8.700
 1005POPC   D2A17584  41.291  44.823   8.343
 1005POPC   C3A17585  41.513  44.827   7.942
 1005POPC   C4A17586  41.891  44.833   7.665
 1005POPC   C1B17587  41.522  44.348   8.741
 1005POPC   C2B17588  41.698  44.498   8.333
 1005POPC   C3B17589  41.790  44.378   7.897
 1005POPC   C4B17590  41.520  44.480   7.534
 1006POPC   NC317591  27.097   4.543   9.537
 1006POPC   PO417592  27.672   4.884   9.608
 1006POPC   GL117593  27.547   4.874   9.187
 1006POPC   GL217594  27.209   4.876   9.143
 1006POPC   C1A17595  27.626   4.949   8.750
 1006POPC   D2A17596  27.581   4.835   8.299
 1006POPC   C3A17597  27.837   5.004   7.940
 1006POPC   C4A17598  27.852   5.253   7.565
 1006POPC   C1B17599  27.245   5.266   8.878
 1006POPC   C2B17600  27.471   5.384   8.515
 1006POPC   C3B17601  27.571   5.426   8.105
 1006POPC   C4B17602  27.379   5.314   7.744
 1007POPC   NC317603  37.662  19.430   9.623
 1007POPC   PO417604  37.498  19.995   9.423
 1007POPC   GL117605  37.708  19.758   9.167
 1007POPC   GL217606  37.581  19.437   9.126
 1007POPC   C1A17607  37.646  19.807   8.739
 1007POPC   D2A17608  37.921  19.882   8.424
 1007POPC   C3A17609  37.695  19.944   8.067
 1007POPC   C4A17610  37.564  19.990   7.644
 1007POPC   C1B17611  37.958  19.413   8.868
 1007POPC   C2B17612  38.150  19.378   8.456
 1007POPC   C3B17613  38.109  19.575   8.050
 1007POPC   C4B17614  37.804  19.555   7.729
 1008POPC   NC317615  39.588  18.641   9.287
 1008POPC   PO417616  39.045  18.170   9.469
 1008POPC   GL117617  39.201  18.351   9.127
 1008POPC   GL217618  39.513  18.196   9.042
 1008POPC   C1A17619  39.071  18.294   8.719
 1008POPC   D2A17620  38.824  18.072   8.418
 1008POPC   C3A17621  38.824  18.247   8.004
 1008POPC   C4A17622  39.000  18.390   7.579
 1008POPC   C1B17623  39.565  18.453   8.684
 1008POPC   C2B17624  39.331  18.560   8.356
 1008POPC   C3B17625  39.279  18.473   7.990
 1008POPC   C4B17626  39.495  18.585   7.674
 1009POPC   NC317627  39.853  36.563   9.569
 1009POPC   PO417628  39.165  36.813   9.433
 1009POPC   GL117629  39.342  36.737   9.073
 1009POPC   GL217630  39.485  36.417   9.131
 1009POPC   C1A17631  39.119  36.837   8.713
 1009POPC   D2A17632  39.231  37.019   8.360
 1009POPC   C3A17633  38.961  36.947   7.996
 1009POPC   C4A17634  39.102  37.285   7.738
 1009POPC   C1B17635  39.261  36.345   8.708
 1009POPC   C2B17636  39.214  36.514   8.260
 1009POPC   C3B17637  39.443  36.786   7.952
 1009POPC   C4B17638  39.705  36.786   7.597
 1010POPC   NC317639  35.350  15.464   9.477
 1010POPC   PO417640  35.279  16.094   9.683
 1010POPC   GL117641  35.155  15.902   9.289
 1010POPC   GL217642  35.473  16.036   9.184
 1010POPC   C1A17643  35.087  15.874   8.847
 1010POPC   D2A17644  35.180  16.084   8.458
 1010POPC   C3A17645  35.186  15.827   8.081
 1010POPC   C4A17646  35.007  15.879   7.661
 1010POPC   C1B17647  35.591  15.988   8.765
 1010POPC   C2B17648  35.589  15.739   8.418
 1010POPC   C3B17649  35.699  15.809   8.010
 1010POPC   C4B17650  35.494  15.937   7.652
 1011POPC   NC317651  11.145  13.246   9.360
 1011POPC   PO417652  11.407  12.711   9.639
 1011POPC   GL117653  11.409  12.823   9.187
 1011POPC   GL217654  11.118  12.834   9.053
 1011POPC   C1A17655  11.408  12.883   8.672
 1011POPC   D2A17656  11.505  13.142   8.325
 1011POPC   C3A17657  11.381  12.895   8.023
 1011POPC   C4A17658  11.509  12.675   7.654
 1011POPC   C1B17659  10.883  12.954   8.724
 1011POPC   C2B17660  10.891  12.749   8.329
 1011POPC   C3B17661  11.027  12.524   7.967
 1011POPC   C4B17662  11.024  12.820   7.660
 1012POPC   NC317663  31.054   8.493   9.331
 1012POPC   PO417664  30.784   7.873   9.377
 1012POPC   GL117665  30.701   8.190   9.095
 1012POPC   GL217666  30.406   8.374   9.158
 1012POPC   C1A17667  30.805   8.351   8.704
 1012POPC   D2A17668  30.590   8.339   8.327
 1012POPC   C3A17669  30.777   8.199   7.953
 1012POPC   C4A17670  30.593   7.882   7.740
 1012POPC   C1B17671  30.283   8.488   8.742
 1012POPC   C2B17672  30.206   8.651   8.320
 1012POPC   C3B17673  30.368   8.518   7.906
 1012POPC   C4B17674  30.504   8.348   7.465
 1013POPC   NC317675  14.851  30.011   9.479
 1013POPC   PO417676  15.580  30.115   9.430
 1013POPC   GL117677  15.301  30.052   9.113
 1013POPC   GL217678  15.031  30.261   9.074
 1013POPC   C1A17679  15.220  29.885   8.729
 1013POPC   D2A17680  15.196  30.058   8.337
 1013POPC   C3A17681  15.221  29.788   8.017
 1013POPC   C4A17682  15.126  29.697   7.610
 1013POPC   C1B17683  14.724  30.019   8.823
 1013POPC   C2B17684  14.773  29.805   8.432
 1013POPC   C3B17685  14.752  30.034   8.043
 1013POPC   C4B17686  14.718  30.027   7.612
 1014POPC   NC317687   8.399  34.934   9.812
 1014POPC   PO417688   7.963  34.467   9.678
 1014POPC   GL117689   8.165  34.297   9.268
 1014POPC   GL217690   7.833  34.224   9.153
 1014POPC   C1A17691   8.407  34.448   8.866
 1014POPC   D2A17692   8.324  34.710   8.530
 1014POPC   C3A17693   8.451  34.592   8.131
 1014POPC   C4A17694   8.578  34.554   7.705
 1014POPC   C1B17695   7.906  34.410   8.775
 1014POPC   C2B17696   7.874  34.486   8.358
 1014POPC   C3B17697   8.003  34.840   8.125
 1014POPC   C4B17698   8.085  34.621   7.753
 1015POPC   NC317699  32.574  42.483   9.640
 1015POPC   PO417700  32.049  42.197   9.464
 1015POPC   GL117701  32.111  42.359   9.079
 1015POPC   GL217702  32.459  42.316   9.157
 1015POPC   C1A17703  32.053  42.301   8.619
 1015POPC   D2A17704  32.117  42.028   8.250
 1015POPC   C3A17705  32.042  42.138   7.838
 1015POPC   C4A17706  31.869  42.526   7.866
 1015POPC   C1B17707  32.469  42.525   8.771
 1015POPC   C2B17708  32.516  42.370   8.356
 1015POPC   C3B17709  32.399  42.477   7.929
 1015POPC   C4B17710  32.483  42.211   7.550
 1016POPC   NC317711  28.635   9.590   9.368
 1016POPC   PO417712  27.984   9.308   9.548
 1016POPC   GL117713  28.103   9.548   9.168
 1016POPC   GL217714  28.248   9.884   9.183
 1016POPC   C1A17715  27.948   9.674   8.780
 1016POPC   D2A17716  27.967   9.483   8.392
 1016POPC   C3A17717  28.064   9.786   8.078
 1016POPC   C4A17718  28.351   9.789   7.745
 1016POPC   C1B17719  28.421   9.871   8.751
 1016POPC   C2B17720  28.537   9.942   8.295
 1016POPC   C3B17721  28.655  10.160   7.896
 1016POPC   C4B17722  28.591  10.267   7.413
 1017POPC   NC317723  21.703   1.836   9.627
 1017POPC   PO417724  21.135   1.844   9.787
 1017POPC   GL117725  21.301   1.734   9.324
 1017POPC   GL217726  21.298   2.046   9.114
 1017POPC   C1A17727  21.354   1.635   8.829
 1017POPC   D2A17728  21.227   1.836   8.437
 1017POPC   C3A17729  21.371   1.669   8.046
 1017POPC   C4A17730  21.328   1.720   7.609
 1017POPC   C1B17731  21.591   2.078   8.737
 1017POPC   C2B17732  21.721   1.989   8.287
 1017POPC   C3B17733  21.649   2.061   7.822
 1017POPC   C4B17734  21.606   2.102   7.354
 1018POPC   NC317735   6.223  38.777   9.509
 1018POPC   PO417736   5.851  39.451   9.539
 1018POPC   GL117737   5.662  39.307   9.174
 1018POPC   GL217738   5.646  38.938   9.073
 1018POPC   C1A17739   5.822  39.308   8.766
 1018POPC   D2A17740   5.960  39.172   8.391
 1018POPC   C3A17741   5.784  39.526   8.186
 1018POPC   C4A17742   5.679  39.581   7.765
 1018POPC   C1B17743   6.027  38.825   8.798
 1018POPC   C2B17744   6.191  38.655   8.375
 1018POPC   C3B17745   6.069  38.844   8.005
 1018POPC   C4B17746   5.709  39.082   7.925
 1019POPC   NC317747  23.949  11.155   9.419
 1019POPC   PO417748  23.752  11.769   9.396
 1019POPC   GL117749  23.499  11.507   9.109
 1019POPC   GL217750  23.831  11.373   8.984
 1019POPC   C1A17751  23.459  11.335   8.656
 1019POPC   D2A17752  23.824  11.423   8.408
 1019POPC   C3A17753  23.676  11.419   8.023
 1019POPC   C4A17754  23.410  11.123   7.843
 1019POPC   C1B17755  23.861  10.987   8.720
 1019POPC   C2B17756  23.624  10.926   8.330
 1019POPC   C3B17757  23.852  10.879   7.968
 1019POPC   C4B17758  23.920  11.158   7.658
 1020POPC   NC317759  44.750  41.253   9.878
 1020POPC   PO417760  44.723  40.757   9.505
 1020POPC   GL117761  44.662  40.906   9.145
 1020POPC   GL217762  44.574  41.281   9.194
 1020POPC   C1A17763  44.773  40.708   8.776
 1020POPC   D2A17764  44.829  40.490   8.421
 1020POPC   C3A17765  44.564  40.593   8.110
 1020POPC   C4A17766  44.573  40.569   7.707
 1020POPC   C1B17767  44.527  41.168   8.753
 1020POPC   C2B17768  44.571  41.049   8.334
 1020POPC   C3B17769  44.377  41.035   7.914
 1020POPC   C4B17770  44.529  41.028   7.491
 1021POPC   NC317771  39.696   3.326   9.498
 1021POPC   PO417772  39.873   3.843   9.470
 1021POPC   GL117773  39.997   3.808   9.058
 1021POPC   GL217774  39.855   3.485   9.020
 1021POPC   C1A17775  40.111   4.013   8.645
 1021POPC   D2A17776  40.045   3.952   8.183
 1021POPC   C3A17777  40.209   3.602   7.911
 1021POPC   C4A17778  40.342   3.626   7.475
 1021POPC   C1B17779  39.755   3.640   8.603
 1021POPC   C2B17780  39.750   3.525   8.158
 1021POPC   C3B17781  39.745   3.366   7.736
 1021POPC   C4B17782  39.883   3.385   7.304
 1022POPC   NC317783  41.319  35.478   9.486
 1022POPC   PO417784  41.894  35.650   9.696
 1022POPC   GL117785  41.796  35.557   9.235
 1022POPC   GL217786  41.499  35.705   9.057
 1022POPC   C1A17787  41.684  35.288   8.826
 1022POPC   D2A17788  41.446  35.526   8.468
 1022POPC   C3A17789  41.561  35.447   8.014
 1022POPC   C4A17790  41.770  35.311   7.609
 1022POPC   C1B17791  41.189  35.361   8.870
 1022POPC   C2B17792  41.068  35.129   8.505
 1022POPC   C3B17793  41.123  35.069   8.077
 1022POPC   C4B17794  41.231  35.233   7.673
 1023POPC   NC317795  39.407  16.144   9.591
 1023POPC   PO417796  39.122  15.675   9.459
 1023POPC   GL117797  39.412  15.877   9.130
 1023POPC   GL217798  39.640  16.221   9.158
 1023POPC   C1A17799  39.302  16.112   8.757
 1023POPC   D2A17800  39.087  16.271   8.402
 1023POPC   C3A17801  39.069  16.042   8.005
 1023POPC   C4A17802  39.242  15.706   7.733
 1023POPC   C1B17803  39.762  16.413   8.808
 1023POPC   C2B17804  39.588  16.439   8.460
 1023POPC   C3B17805  39.532  16.093   8.189
 1023POPC   C4B17806  39.489  16.166   7.760
 1024POPC   NC317807  29.626   8.268   9.433
 1024POPC   PO417808  29.068   8.182   9.567
 1024POPC   GL117809  29.094   8.176   9.181
 1024POPC   GL217810  28.893   7.902   9.148
 1024POPC   C1A17811  29.313   7.991   8.832
 1024POPC   D2A17812  29.467   8.111   8.425
 1024POPC   C3A17813  29.276   8.209   8.048
 1024POPC   C4A17814  29.293   8.068   7.638
 1024POPC   C1B17815  28.826   8.164   8.758
 1024POPC   C2B17816  28.959   7.956   8.404
 1024POPC   C3B17817  28.745   8.019   8.053
 1024POPC   C4B17818  28.854   8.344   7.795
 1025POPC   NC317819  11.796  43.000   9.279
 1025POPC   PO417820  12.204  43.448   9.493
 1025POPC   GL117821  12.260  43.228   9.116
 1025POPC   GL217822  12.295  42.867   9.037
 1025POPC   C1A17823  12.229  43.370   8.714
 1025POPC   D2A17824  11.997  43.307   8.344
 1025POPC   C3A17825  12.188  43.050   8.055
 1025POPC   C4A17826  12.002  43.271   7.715
 1025POPC   C1B17827  12.069  42.883   8.664
 1025POPC   C2B17828  11.773  42.805   8.344
 1025POPC   C3B17829  11.704  42.927   7.929
 1025POPC   C4B17830  11.981  42.770   7.620
 1026POPC   NC317831   8.609  42.019   9.617
 1026POPC   PO417832   9.212  42.289   9.465
 1026POPC   GL117833   9.002  42.250   9.080
 1026POPC   GL217834   8.637  42.210   9.154
 1026POPC   C1A17835   9.043  42.597   8.760
 1026POPC   D2A17836   9.003  42.775   8.336
 1026POPC   C3A17837   9.101  42.383   8.121
 1026POPC   C4A17838   9.163  42.085   7.783
 1026POPC   C1B17839   8.617  42.315   8.753
 1026POPC   C2B17840   8.638  42.438   8.369
 1026POPC   C3B17841   8.594  42.282   7.991
 1026POPC   C4B17842   8.446  41.965   7.746
 1027POPC   NC317843  35.781  43.571   9.590
 1027POPC   PO417844  35.198  43.753   9.503
 1027POPC   GL117845  35.416  43.620   9.152
 1027POPC   GL217846  35.441  43.968   9.034
 1027POPC   C1A17847  35.322  43.556   8.717
 1027POPC   D2A17848  35.104  43.807   8.394
 1027POPC   C3A17849  35.175  43.728   7.950
 1027POPC   C4A17850  35.313  43.835   7.509
 1027POPC   C1B17851  35.565  43.984   8.593
 1027POPC   C2B17852  35.596  43.669   8.256
 1027POPC   C3B17853  35.684  43.654   7.821
 1027POPC   C4B17854  36.081  43.629   7.591
 1028POPC   NC317855  44.052  17.073   9.612
 1028POPC   PO417856  43.653  16.599   9.476
 1028POPC   GL117857  43.963  16.742   9.186
 1028POPC   GL217858  43.818  17.043   9.072
 1028POPC   C1A17859  44.089  16.778   8.733
 1028POPC   D2A17860  44.121  16.927   8.283
 1028POPC   C3A17861  44.180  16.587   7.967
 1028POPC   C4A17862  44.027  16.243   7.703
 1028POPC   C1B17863  43.590  16.672   8.798
 1028POPC   C2B17864  43.484  16.426   8.387
 1028POPC   C3B17865  43.557  16.350   7.922
 1028POPC   C4B17866  43.639  16.492   7.481
 1029POPC   NC317867  35.285  19.663   9.556
 1029POPC   PO417868  35.208  20.249   9.359
 1029POPC   GL117869  35.355  19.961   9.069
 1029POPC   GL217870  35.153  19.633   9.070
 1029POPC   C1A17871  35.481  20.094   8.660
 1029POPC   D2A17872  35.305  19.944   8.290
 1029POPC   C3A17873  35.234  20.149   7.929
 1029POPC   C4A17874  35.363  19.929   7.587
 1029POPC   C1B17875  34.943  19.513   8.695
 1029POPC   C2B17876  34.905  19.621   8.270
 1029POPC   C3B17877  35.119  19.553   7.909
 1029POPC   C4B17878  35.108  19.159   7.687
 1030POPC   NC317879  13.525  24.730   9.277
 1030POPC   PO417880  13.875  25.251   9.621
 1030POPC   GL117881  13.804  25.139   9.178
 1030POPC   GL217882  14.053  25.013   9.022
 1030POPC   C1A17883  13.618  25.141   8.747
 1030POPC   D2A17884  13.795  25.122   8.317
 1030POPC   C3A17885  13.514  25.196   7.926
 1030POPC   C4A17886  13.346  24.979   7.538
 1030POPC   C1B17887  14.074  25.388   8.767
 1030POPC   C2B17888  14.077  25.566   8.331
 1030POPC   C3B17889  13.965  25.457   7.897
 1030POPC   C4B17890  13.959  25.427   7.427
 1031POPC   NC317891  42.154   5.089   9.567
 1031POPC   PO417892  42.730   5.296   9.641
 1031POPC   GL117893  42.536   5.108   9.215
 1031POPC   GL217894  42.210   4.884   9.125
 1031POPC   C1A17895  42.358   5.358   8.840
 1031POPC   D2A17896  42.156   5.330   8.404
 1031POPC   C3A17897  42.386   5.331   8.063
 1031POPC   C4A17898  42.455   5.251   7.668
 1031POPC   C1B17899  42.423   4.869   8.738
 1031POPC   C2B17900  42.532   4.897   8.311
 1031POPC   C3B17901  42.659   4.816   7.882
 1031POPC   C4B17902  42.446   4.508   7.667
 1032POPC   NC317903   0.445  43.436   9.773
 1032POPC   PO417904   0.585  44.057   9.475
 1032POPC   GL117905   0.537  43.897   9.089
 1032POPC   GL217906   0.229  43.746   9.186
 1032POPC   C1A17907   0.380  44.087   8.741
 1032POPC   D2A17908   0.268  43.934   8.363
 1032POPC   C3A17909   0.312  44.168   8.033
 1032POPC   C4A17910   0.469  43.981   7.687
 1032POPC   C1B17911   0.206  43.597   8.770
 1032POPC   C2B17912   0.013  43.511   8.394
 1032POPC   C3B17913   0.132  43.609   7.961
 1032POPC   C4B17914  44.979  43.894   7.639
 1033POPC   NC317915   5.762  18.531   9.658
 1033POPC   PO417916   5.886  17.916   9.717
 1033POPC   GL117917   5.938  18.165   9.245
 1033POPC   GL217918   5.752  18.494   9.121
 1033POPC   C1A17919   6.013  18.239   8.781
 1033POPC   D2A17920   5.738  18.169   8.412
 1033POPC   C3A17921   5.941  18.168   7.986
 1033POPC   C4A17922   5.984  18.568   7.754
 1033POPC   C1B17923   5.658  18.635   8.670
 1033POPC   C2B17924   5.661  18.620   8.197
 1033POPC   C3B17925   5.496  18.340   7.869
 1033POPC   C4B17926   5.593  18.446   7.423
 1034POPC   NC317927  17.410   3.424   9.486
 1034POPC   PO417928  18.066   3.183   9.439
 1034POPC   GL117929  17.740   3.231   9.120
 1034POPC   GL217930  17.692   3.601   9.080
 1034POPC   C1A17931  17.708   3.331   8.655
 1034POPC   D2A17932  17.562   3.594   8.305
 1034POPC   C3A17933  17.529   3.322   7.950
 1034POPC   C4A17934  17.602   3.402   7.489
 1034POPC   C1B17935  17.487   3.847   8.757
 1034POPC   C2B17936  17.604   4.133   8.441
 1034POPC   C3B17937  17.813   4.008   8.073
 1034POPC   C4B17938  17.518   3.795   7.784
 1035POPC   NC317939  18.817  37.228   9.965
 1035POPC   PO417940  19.148  36.796   9.535
 1035POPC   GL117941  19.185  37.006   9.137
 1035POPC   GL217942  18.853  36.907   8.989
 1035POPC   C1A17943  19.273  37.011   8.699
 1035POPC   D2A17944  19.078  36.884   8.309
 1035POPC   C3A17945  19.305  37.031   7.938
 1035POPC   C4A17946  19.446  36.891   7.549
 1035POPC   C1B17947  18.621  36.926   8.622
 1035POPC   C2B17948  18.684  37.185   8.264
 1035POPC   C3B17949  18.791  36.991   7.891
 1035POPC   C4B17950  18.608  36.992   7.536
 1036POPC   NC317951  12.670  20.207   9.456
 1036POPC   PO417952  12.807  20.916   9.510
 1036POPC   GL117953  12.914  20.610   9.218
 1036POPC   GL217954  12.559  20.604   9.133
 1036POPC   C1A17955  13.118  20.597   8.818
 1036POPC   D2A17956  13.099  20.887   8.459
 1036POPC   C3A17957  13.058  20.671   8.067
 1036POPC   C4A17958  12.973  20.854   7.662
 1036POPC   C1B17959  12.631  20.337   8.814
 1036POPC   C2B17960  12.879  20.241   8.488
 1036POPC   C3B17961  12.764  20.215   8.071
 1036POPC   C4B17962  12.709  20.431   7.671
 1037POPC   NC317963  20.900  28.739   9.312
 1037POPC   PO417964  20.459  29.203   9.677
 1037POPC   GL117965  20.458  28.980   9.231
 1037POPC   GL217966  20.188  29.092   9.044
 1037POPC   C1A17967  20.665  29.048   8.775
 1037POPC   D2A17968  20.887  29.273   8.433
 1037POPC   C3A17969  20.818  29.062   8.039
 1037POPC   C4A17970  20.849  29.154   7.599
 1037POPC   C1B17971  20.273  29.360   8.676
 1037POPC   C2B17972  20.394  29.291   8.246
 1037POPC   C3B17973  20.562  29.485   7.879
 1037POPC   C4B17974  20.498  29.456   7.408
 1038POPC   NC317975  13.106  17.184   9.717
 1038POPC   PO417976  12.743  17.710   9.609
 1038POPC   GL117977  12.768  17.701   9.155
 1038POPC   GL217978  12.710  17.353   9.156
 1038POPC   C1A17979  12.943  17.846   8.737
 1038POPC   D2A17980  13.106  17.635   8.350
 1038POPC   C3A17981  12.907  17.818   8.019
 1038POPC   C4A17982  12.726  17.783   7.663
 1038POPC   C1B17983  12.819  17.349   8.734
 1038POPC   C2B17984  13.117  17.134   8.507
 1038POPC   C3B17985  12.981  17.132   8.138
 1038POPC   C4B17986  12.987  17.343   7.762
 1039POPC   NC317987   7.447  13.984   9.321
 1039POPC   PO417988   7.573  13.341   9.529
 1039POPC   GL117989   7.606  13.510   9.154
 1039POPC   GL217990   7.217  13.525   9.181
 1039POPC   C1A17991   7.533  13.682   8.745
 1039POPC   D2A17992   7.485  13.876   8.367
 1039POPC   C3A17993   7.556  13.634   8.042
 1039POPC   C4A17994   7.673  13.445   7.696
 1039POPC   C1B17995   7.031  13.799   8.866
 1039POPC   C2B17996   6.992  13.985   8.491
 1039POPC   C3B17997   7.035  13.739   8.110
 1039POPC   C4B17998   7.188  13.678   7.677
 1040POPC   NC317999  34.712  14.206   9.404
 1040POPC   PO418000  34.189  14.730   9.456
 1040POPC   GL118001  34.424  14.733   9.071
 1040POPC   GL218002  34.792  14.692   9.095
 1040POPC   C1A18003  34.450  14.542   8.672
 1040POPC   D2A18004  34.712  14.603   8.298
 1040POPC   C3A18005  34.637  14.528   7.842
 1040POPC   C4A18006  34.603  14.148   7.530
 1040POPC   C1B18007  34.930  14.381   8.768
 1040POPC   C2B18008  35.006  14.066   8.456
 1040POPC   C3B18009  34.926  14.175   8.066
 1040POPC   C4B18010  35.090  14.186   7.685
 1041POPC   NC318011  17.001  35.928   9.419
 1041POPC   PO418012  16.503  36.301   9.357
 1041POPC   GL118013  16.611  35.990   9.011
 1041POPC   GL218014  16.949  35.865   8.918
 1041POPC   C1A18015  16.559  35.903   8.574
 1041POPC   D2A18016  16.302  35.831   8.210
 1041POPC   C3A18017  16.562  35.823   7.879
 1041POPC   C4A18018  16.727  36.235   7.851
 1041POPC   C1B18019  16.984  36.290   8.742
 1041POPC   C2B18020  17.129  36.516   8.356
 1041POPC   C3B18021  17.152  36.566   7.888
 1041POPC   C4B18022  17.017  36.382   7.472
 1042POPC   NC318023  29.560  40.270   9.251
 1042POPC   PO418024  29.059  39.973   9.637
 1042POPC   GL118025  28.941  39.965   9.216
 1042POPC   GL218026  28.911  40.268   9.067
 1042POPC   C1A18027  28.771  39.843   8.833
 1042POPC   D2A18028  28.790  40.064   8.453
 1042POPC   C3A18029  29.029  40.057   8.094
 1042POPC   C4A18030  28.855  40.026   7.670
 1042POPC   C1B18031  29.224  40.093   8.728
 1042POPC   C2B18032  29.552  40.317   8.463
 1042POPC   C3B18033  29.458  40.385   8.052
 1042POPC   C4B18034  29.356  40.122   7.700
 1043POPC   NC318035  20.979  29.676   9.482
 1043POPC   PO418036  21.579  29.758   9.487
 1043POPC   GL118037  21.342  29.736   9.110
 1043POPC   GL218038  21.119  30.025   9.122
 1043POPC   C1A18039  21.269  29.596   8.685
 1043POPC   D2A18040  21.371  29.824   8.306
 1043POPC   C3A18041  21.459  29.686   7.880
 1043POPC   C4A18042  21.241  29.842   7.532
 1043POPC   C1B18043  21.284  30.124   8.735
 1043POPC   C2B18044  21.307  30.344   8.358
 1043POPC   C3B18045  21.323  30.191   7.942
 1043POPC   C4B18046  21.710  30.119   7.710
 1044POPC   NC318047  29.902   3.933   9.551
 1044POPC   PO418048  30.199   3.265   9.498
 1044POPC   GL118049  30.166   3.461   9.113
 1044POPC   GL218050  30.143   3.825   9.128
 1044POPC   C1A18051  30.069   3.299   8.709
 1044POPC   D2A18052  29.797   3.452   8.399
 1044POPC   C3A18053  29.673   3.207   8.041
 1044POPC   C4A18054  29.889   3.379   7.720
 1044POPC   C1B18055  29.849   3.797   8.784
 1044POPC   C2B18056  29.729   3.974   8.356
 1044POPC   C3B18057  29.862   3.870   7.917
 1044POPC   C4B18058  29.834   3.812   7.445
 1045POPC   NC318059  14.057  25.959   9.598
 1045POPC   PO418060  14.718  25.918   9.767
 1045POPC   GL118061  14.549  26.190   9.364
 1045POPC   GL218062  14.208  26.287   9.238
 1045POPC   C1A18063  14.516  26.155   8.855
 1045POPC   D2A18064  14.306  26.031   8.435
 1045POPC   C3A18065  14.473  25.916   8.035
 1045POPC   C4A18066  14.710  26.148   7.744
 1045POPC   C1B18067  14.024  26.238   8.800
 1045POPC   C2B18068  13.965  26.407   8.365
 1045POPC   C3B18069  14.122  26.292   7.917
 1045POPC   C4B18070  13.997  26.519   7.575
 1046POPC   NC318071  22.885  32.317   9.480
 1046POPC   PO418072  22.370  31.982   9.821
 1046POPC   GL118073  22.751  31.847   9.454
 1046POPC   GL218074  23.124  31.867   9.326
 1046POPC   C1A18075  22.816  31.838   8.936
 1046POPC   D2A18076  23.014  31.948   8.501
 1046POPC   C3A18077  22.820  32.177   8.150
 1046POPC   C4A18078  22.882  32.081   7.700
 1046POPC   C1B18079  23.210  32.180   8.912
 1046POPC   C2B18080  23.393  32.296   8.455
 1046POPC   C3B18081  23.300  32.297   7.991
 1046POPC   C4B18082  23.245  32.398   7.532
 1047POPC   NC318083  24.950  23.787   9.708
 1047POPC   PO418084  25.359  23.365   9.618
 1047POPC   GL118085  25.290  23.535   9.229
 1047POPC   GL218086  25.232  23.839   9.213
 1047POPC   C1A18087  25.536  23.637   8.852
 1047POPC   D2A18088  25.389  23.640   8.435
 1047POPC   C3A18089  25.389  23.925   8.094
 1047POPC   C4A18090  25.325  23.700   7.724
 1047POPC   C1B18091  25.054  23.779   8.829
 1047POPC   C2B18092  24.941  23.876   8.426
 1047POPC   C3B18093  24.915  23.740   8.026
 1047POPC   C4B18094  24.767  23.785   7.670
 1048POPC   NC318095  28.615  27.554   9.618
 1048POPC   PO418096  28.045  27.843   9.684
 1048POPC   GL118097  28.195  27.662   9.267
 1048POPC   GL218098  28.478  27.861   9.166
 1048POPC   C1A18099  28.240  27.614   8.781
 1048POPC   D2A18100  28.373  27.742   8.336
 1048POPC   C3A18101  28.420  27.500   7.928
 1048POPC   C4A18102  28.205  27.188   7.618
 1048POPC   C1B18103  28.489  28.096   8.757
 1048POPC   C2B18104  28.542  28.233   8.321
 1048POPC   C3B18105  28.557  28.031   7.912
 1048POPC   C4B18106  28.216  27.913   7.645
 1049POPC   NC318107  29.438  38.575   9.608
 1049POPC   PO418108  29.964  38.242   9.343
 1049POPC   GL118109  29.989  38.499   9.020
 1049POPC   GL218110  29.694  38.698   9.160
 1049POPC   C1A18111  29.833  38.245   8.670
 1049POPC   D2A18112  29.951  38.035   8.343
 1049POPC   C3A18113  29.867  38.182   7.947
 1049POPC   C4A18114  29.747  37.936   7.635
 1049POPC   C1B18115  29.632  38.698   8.724
 1049POPC   C2B18116  29.793  38.600   8.275
 1049POPC   C3B18117  29.748  38.664   7.808
 1049POPC   C4B18118  29.755  38.900   7.385
 1050POPC   NC318119  15.293  12.671  10.030
 1050POPC   PO418120  14.926  12.804   9.509
 1050POPC   GL118121  15.200  12.804   9.154
 1050POPC   GL218122  15.503  12.963   9.244
 1050POPC   C1A18123  15.122  12.719   8.729
 1050POPC   D2A18124  14.885  12.747   8.357
 1050POPC   C3A18125  15.123  12.775   8.004
 1050POPC   C4A18126  15.267  12.768   7.578
 1050POPC   C1B18127  15.556  12.998   8.789
 1050POPC   C2B18128  15.400  13.045   8.349
 1050POPC   C3B18129  15.581  12.991   7.927
 1050POPC   C4B18130  15.489  13.276   7.569
 1051POPC   NC318131  11.130  39.886   9.558
 1051POPC   PO418132  11.779  39.770   9.267
 1051POPC   GL118133  11.600  39.913   8.965
 1051POPC   GL218134  11.365  40.075   9.139
 1051POPC   C1A18135  11.288  39.838   8.676
 1051POPC   D2A18136  11.109  39.812   8.276
 1051POPC   C3A18137  11.443  39.891   8.015
 1051POPC   C4A18138  11.674  40.052   7.697
 1051POPC   C1B18139  11.064  40.272   8.870
 1051POPC   C2B18140  11.021  40.290   8.443
 1051POPC   C3B18141  10.929  40.237   8.015
 1051POPC   C4B18142  11.192  40.223   7.674
 1052POPC   NC318143  36.385  40.046   9.716
 1052POPC   PO418144  36.990  40.019   9.488
 1052POPC   GL118145  36.943  40.104   9.084
 1052POPC   GL218146  36.563  40.234   9.233
 1052POPC   C1A18147  37.241  39.896   8.761
 1052POPC   D2A18148  37.220  39.694   8.367
 1052POPC   C3A18149  37.245  39.975   8.030
 1052POPC   C4A18150  37.005  39.822   7.704
 1052POPC   C1B18151  36.501  39.971   8.898
 1052POPC   C2B18152  36.777  39.955   8.563
 1052POPC   C3B18153  36.745  39.883   8.146
 1052POPC   C4B18154  36.520  40.106   7.819
 1053POPC   NC318155  10.463  41.496   9.847
 1053POPC   PO418156  10.807  41.933   9.363
 1053POPC   GL118157  10.609  41.752   9.117
 1053POPC   GL218158  10.440  41.555   9.334
 1053POPC   C1A18159  10.772  41.550   8.738
 1053POPC   D2A18160  10.846  41.393   8.288
 1053POPC   C3A18161  10.787  41.640   7.873
 1053POPC   C4A18162  10.766  41.424   7.442
 1053POPC   C1B18163  10.310  41.386   8.945
 1053POPC   C2B18164  10.329  41.445   8.510
 1053POPC   C3B18165  10.352  41.521   8.104
 1053POPC   C4B18166  10.478  41.223   7.820
 1054POPC   NC318167  19.728  14.731   9.484
 1054POPC   PO418168  19.604  14.147   9.187
 1054POPC   GL118169  19.933  14.431   9.059
 1054POPC   GL218170  19.991  14.807   9.061
 1054POPC   C1A18171  19.971  14.541   8.630
 1054POPC   D2A18172  19.885  14.239   8.367
 1054POPC   C3A18173  19.873  14.426   7.989
 1054POPC   C4A18174  19.788  14.206   7.655
 1054POPC   C1B18175  19.695  14.948   8.739
 1054POPC   C2B18176  19.771  15.063   8.324
 1054POPC   C3B18177  19.639  14.974   7.904
 1054POPC   C4B18178  19.781  14.738   7.544
 1055POPC   NC318179  10.179  37.807   9.526
 1055POPC   PO418180  10.553  37.298   9.390
 1055POPC   GL118181  10.385  37.492   9.023
 1055POPC   GL218182  10.428  37.824   9.099
 1055POPC   C1A18183  10.250  37.366   8.603
 1055POPC   D2A18184  10.560  37.450   8.298
 1055POPC   C3A18185  10.515  37.648   7.906
 1055POPC   C4A18186  10.791  37.808   7.580
 1055POPC   C1B18187  10.197  37.863   8.717
 1055POPC   C2B18188  10.317  37.911   8.331
 1055POPC   C3B18189  10.115  37.973   7.962
 1055POPC   C4B18190  10.321  38.027   7.610
 1056POPC   NC318191  37.863  11.664   9.607
 1056POPC   PO418192  37.735  11.024   9.647
 1056POPC   GL118193  37.827  11.058   9.193
 1056POPC   GL218194  37.947  11.393   9.173
 1056POPC   C1A18195  37.716  11.063   8.724
 1056POPC   D2A18196  37.421  11.084   8.352
 1056POPC   C3A18197  37.470  10.920   7.940
 1056POPC   C4A18198  37.656  11.237   7.714
 1056POPC   C1B18199  37.999  11.486   8.746
 1056POPC   C2B18200  37.796  11.437   8.338
 1056POPC   C3B18201  37.915  11.611   7.944
 1056POPC   C4B18202  37.977  11.592   7.502
 1057POPC   NC318203  20.356   9.895   9.444
 1057POPC   PO418204  19.839   9.568   9.573
 1057POPC   GL118205  19.859   9.859   9.215
 1057POPC   GL218206  20.154   9.892   8.984
 1057POPC   C1A18207  19.642   9.946   8.817
 1057POPC   D2A18208  19.372   9.829   8.441
 1057POPC   C3A18209  19.558   9.936   8.019
 1057POPC   C4A18210  19.670   9.759   7.587
 1057POPC   C1B18211  20.072   9.469   8.921
 1057POPC   C2B18212  20.043   9.324   8.501
 1057POPC   C3B18213  19.787   9.429   8.130
 1057POPC   C4B18214  19.952   9.385   7.740
 1058POPC   NC318215  38.718  31.407   9.681
 1058POPC   PO418216  38.152  31.689   9.775
 1058POPC   GL118217  38.393  31.405   9.311
 1058POPC   GL218218  38.758  31.458   9.185
 1058POPC   C1A18219  38.422  31.306   8.845
 1058POPC   D2A18220  38.268  31.219   8.427
 1058POPC   C3A18221  38.354  31.437   8.033
 1058POPC   C4A18222  38.139  31.383   7.645
 1058POPC   C1B18223  38.773  31.691   8.802
 1058POPC   C2B18224  38.631  31.618   8.429
 1058POPC   C3B18225  38.833  31.627   8.049
 1058POPC   C4B18226  38.658  31.600   7.643
 1059POPC   NC318227   9.202   3.880   9.448
 1059POPC   PO418228   9.150   3.312   9.697
 1059POPC   GL118229   9.004   3.461   9.262
 1059POPC   GL218230   8.715   3.611   9.137
 1059POPC   C1A18231   9.066   3.468   8.800
 1059POPC   D2A18232   9.122   3.268   8.402
 1059POPC   C3A18233   9.274   3.522   8.116
 1059POPC   C4A18234   9.031   3.708   7.813
 1059POPC   C1B18235   8.573   3.482   8.730
 1059POPC   C2B18236   8.708   3.554   8.313
 1059POPC   C3B18237   8.677   3.359   7.928
 1059POPC   C4B18238   8.567   3.602   7.598
 1060POPC   NC318239  11.652  37.452   9.521
 1060POPC   PO418240  12.390  37.273   9.517
 1060POPC   GL118241  12.227  37.381   9.161
 1060POPC   GL218242  12.033  37.675   9.213
 1060POPC   C1A18243  12.081  37.392   8.752
 1060POPC   D2A18244  12.248  37.279   8.355
 1060POPC   C3A18245  12.156  37.451   7.935
 1060POPC   C4A18246  12.276  37.239   7.538
 1060POPC   C1B18247  11.839  37.828   8.825
 1060POPC   C2B18248  11.939  38.151   8.527
 1060POPC   C3B18249  11.903  38.115   8.113
 1060POPC   C4B18250  11.811  37.866   7.792
 1061POPC   NC318251  27.392  36.239   9.465
 1061POPC   PO418252  27.758  35.757   9.309
 1061POPC   GL118253  27.663  36.082   9.019
 1061POPC   GL218254  27.778  36.417   9.145
 1061POPC   C1A18255  27.771  36.101   8.559
 1061POPC   D2A18256  27.575  36.203   8.152
 1061POPC   C3A18257  27.465  35.919   7.798
 1061POPC   C4A18258  27.207  36.042   7.426
 1061POPC   C1B18259  28.070  36.535   8.798
 1061POPC   C2B18260  28.248  36.388   8.380
 1061POPC   C3B18261  28.009  36.425   7.983
 1061POPC   C4B18262  27.818  36.196   7.565
 1062POPC   NC318263  42.233  41.807   9.489
 1062POPC   PO418264  42.574  41.257   9.361
 1062POPC   GL118265  42.398  41.490   9.099
 1062POPC   GL218266  42.073  41.411   9.188
 1062POPC   C1A18267  42.405  41.418   8.686
 1062POPC   D2A18268  42.207  41.362   8.314
 1062POPC   C3A18269  42.511  41.217   8.052
 1062POPC   C4A18270  42.669  41.521   7.795
 1062POPC   C1B18271  41.979  41.665   8.833
 1062POPC   C2B18272  41.751  41.648   8.458
 1062POPC   C3B18273  41.880  41.710   8.062
 1062POPC   C4B18274  42.149  41.474   7.799
 1063POPC   NC318275   2.546  43.103   9.468
 1063POPC   PO418276   2.897  42.500   9.485
 1063POPC   GL118277   2.785  42.804   9.128
 1063POPC   GL218278   3.053  43.057   9.076
 1063POPC   C1A18279   2.609  42.738   8.699
 1063POPC   D2A18280   2.645  42.741   8.225
 1063POPC   C3A18281   2.546  43.096   7.960
 1063POPC   C4A18282   2.545  43.160   7.541
 1063POPC   C1B18283   2.979  43.118   8.638
 1063POPC   C2B18284   2.997  43.168   8.197
 1063POPC   C3B18285   3.065  43.155   7.770
 1063POPC   C4B18286   2.984  42.923   7.391
 1064POPC   NC318287   3.521   7.858   9.533
 1064POPC   PO418288   3.508   7.179   9.557
 1064POPC   GL118289   3.491   7.284   9.138
 1064POPC   GL218290   3.490   7.639   9.095
 1064POPC   C1A18291   3.388   7.351   8.696
 1064POPC   D2A18292   3.553   7.229   8.305
 1064POPC   C3A18293   3.201   7.121   8.019
 1064POPC   C4A18294   3.268   7.071   7.595
 1064POPC   C1B18295   3.456   7.886   8.745
 1064POPC   C2B18296   3.450   7.736   8.347
 1064POPC   C3B18297   3.461   7.566   7.934
 1064POPC   C4B18298   3.394   7.577   7.481
 1065POPC   NC318299   8.878  39.074   9.509
 1065POPC   PO418300   9.215  39.654   9.406
 1065POPC   GL118301   9.137  39.274   9.117
 1065POPC   GL218302   8.775  39.272   9.062
 1065POPC   C1A18303   9.131  38.976   8.764
 1065POPC   D2A18304   8.935  38.865   8.348
 1065POPC   C3A18305   9.075  39.085   7.989
 1065POPC   C4A18306   9.062  39.200   7.554
 1065POPC   C1B18307   8.634  39.081   8.691
 1065POPC   C2B18308   8.599  39.293   8.272
 1065POPC   C3B18309   8.595  39.125   7.863
 1065POPC   C4B18310   8.569  39.184   7.448
 1066POPC   NC318311  30.300   7.884   9.369
 1066POPC   PO418312  30.021   8.475   9.488
 1066POPC   GL118313  29.897   8.534   9.089
 1066POPC   GL218314  29.950   8.156   9.030
 1066POPC   C1A18315  29.759   8.481   8.683
 1066POPC   D2A18316  29.963   8.216   8.408
 1066POPC   C3A18317  29.858   8.323   8.016
 1066POPC   C4A18318  30.138   8.109   7.750
 1066POPC   C1B18319  29.810   7.845   8.722
 1066POPC   C2B18320  29.768   7.736   8.270
 1066POPC   C3B18321  29.720   7.849   7.829
 1066POPC   C4B18322  29.677   7.837   7.359
 1067POPC   NC318323  34.412  36.819   9.544
 1067POPC   PO418324  35.038  36.660   9.514
 1067POPC   GL118325  34.767  36.773   9.176
 1067POPC   GL218326  34.768  36.456   9.030
 1067POPC   C1A18327  34.546  37.016   8.854
 1067POPC   D2A18328  34.495  37.195   8.469
 1067POPC   C3A18329  34.578  37.033   8.079
 1067POPC   C4A18330  34.329  36.809   7.803
 1067POPC   C1B18331  34.902  36.692   8.674
 1067POPC   C2B18332  34.876  36.630   8.245
 1067POPC   C3B18333  34.929  36.727   7.835
 1067POPC   C4B18334  34.874  36.475   7.469
 1068POPC   NC318335  17.678   7.002   9.635
 1068POPC   PO418336  17.292   7.621   9.656
 1068POPC   GL118337  17.554   7.476   9.350
 1068POPC   GL218338  17.402   7.173   9.221
 1068POPC   C1A18339  17.646   7.527   8.923
 1068POPC   D2A18340  17.811   7.478   8.518
 1068POPC   C3A18341  17.550   7.588   8.158
 1068POPC   C4A18342  17.566   7.728   7.745
 1068POPC   C1B18343  17.216   7.186   8.803
 1068POPC   C2B18344  17.068   7.162   8.365
 1068POPC   C3B18345  17.306   7.068   8.013
 1068POPC   C4B18346  17.599   7.206   7.686
 1069POPC   NC318347  20.513  38.907   9.628
 1069POPC   PO418348  20.655  39.479   9.481
 1069POPC   GL118349  20.693  39.481   9.074
 1069POPC   GL218350  20.569  39.145   9.069
 1069POPC   C1A18351  20.955  39.597   8.734
 1069POPC   D2A18352  20.768  39.526   8.331
 1069POPC   C3A18353  20.607  39.176   8.171
 1069POPC   C4A18354  20.644  39.358   7.790
 1069POPC   C1B18355  20.801  39.116   8.664
 1069POPC   C2B18356  21.107  39.143   8.308
 1069POPC   C3B18357  21.040  39.041   7.857
 1069POPC   C4B18358  20.985  39.247   7.418
 1070POPC   NC318359  29.780  17.512   9.473
 1070POPC   PO418360  30.369  17.851   9.339
 1070POPC   GL118361  30.205  17.496   9.073
 1070POPC   GL218362  29.870  17.479   8.989
 1070POPC   C1A18363  30.201  17.297   8.645
 1070POPC   D2A18364  29.915  17.427   8.293
 1070POPC   C3A18365  29.966  17.205   7.919
 1070POPC   C4A18366  30.079  17.314   7.490
 1070POPC   C1B18367  29.596  17.637   8.695
 1070POPC   C2B18368  29.370  17.465   8.373
 1070POPC   C3B18369  29.474  17.363   7.972
 1070POPC   C4B18370  29.591  17.283   7.580
 1071POPC   NC318371  43.342   6.334   9.424
 1071POPC   PO418372  43.030   7.043   9.515
 1071POPC   GL118373  42.953   6.689   9.236
 1071POPC   GL218374  43.278   6.743   9.120
 1071POPC   C1A18375  43.018   6.425   8.831
 1071POPC   D2A18376  42.974   6.573   8.406
 1071POPC   C3A18377  43.282   6.577   8.063
 1071POPC   C4A18378  43.073   6.471   7.696
 1071POPC   C1B18379  43.401   6.797   8.712
 1071POPC   C2B18380  43.245   7.023   8.347
 1071POPC   C3B18381  43.391   7.036   7.887
 1071POPC   C4B18382  43.355   6.836   7.498
 1072POPC   NC318383  27.595   0.693   9.592
 1072POPC   PO418384  27.611   1.310   9.752
 1072POPC   GL118385  27.646   1.279   9.297
 1072POPC   GL218386  27.839   1.035   9.165
 1072POPC   C1A18387  27.580   1.349   8.859
 1072POPC   D2A18388  27.770   1.233   8.482
 1072POPC   C3A18389  27.539   1.298   8.156
 1072POPC   C4A18390  27.454   1.373   7.768
 1072POPC   C1B18391  27.781   0.820   8.761
 1072POPC   C2B18392  27.563   0.790   8.331
 1072POPC   C3B18393  27.612   0.873   7.868
 1072POPC   C4B18394  27.564   0.789   7.404
 1073POPC   NC318395  29.063  33.529   9.357
 1073POPC   PO418396  29.283  34.184   9.535
 1073POPC   GL118397  29.072  34.014   9.188
 1073POPC   GL218398  29.408  33.847   9.148
 1073POPC   C1A18399  28.878  33.860   8.794
 1073POPC   D2A18400  28.960  33.623   8.414
 1073POPC   C3A18401  29.116  33.802   8.026
 1073POPC   C4A18402  29.006  33.830   7.574
 1073POPC   C1B18403  29.345  33.638   8.786
 1073POPC   C2B18404  29.576  33.643   8.469
 1073POPC   C3B18405  29.548  33.506   8.104
 1073POPC   C4B18406  29.418  33.531   7.725
 1074POPC   NC318407   6.473  14.926   9.677
 1074POPC   PO418408   6.270  14.324   9.600
 1074POPC   GL118409   6.486  14.454   9.216
 1074POPC   GL218410   6.778  14.629   9.282
 1074POPC   C1A18411   6.719  14.337   8.838
 1074POPC   D2A18412   6.571  14.354   8.432
 1074POPC   C3A18413   6.841  14.264   8.102
 1074POPC   C4A18414   6.642  14.277   7.735
 1074POPC   C1B18415   6.945  14.807   8.888
 1074POPC   C2B18416   6.998  14.696   8.470
 1074POPC   C3B18417   7.019  14.740   8.024
 1074POPC   C4B18418   7.111  14.459   7.703
 1075POPC   NC318419   3.699  17.310   9.959
 1075POPC   PO418420   3.266  17.649   9.598
 1075POPC   GL118421   3.382  17.537   9.182
 1075POPC   GL218422   3.672  17.339   9.278
 1075POPC   C1A18423   3.336  17.594   8.751
 1075POPC   D2A18424   3.202  17.740   8.359
 1075POPC   C3A18425   3.391  17.502   8.020
 1075POPC   C4A18426   3.370  17.660   7.603
 1075POPC   C1B18427   3.562  17.163   8.888
 1075POPC   C2B18428   3.700  17.278   8.513
 1075POPC   C3B18429   3.853  17.244   8.129
 1075POPC   C4B18430   3.821  17.397   7.738
 1076POPC   NC318431   1.966  31.037   9.332
 1076POPC   PO418432   2.264  30.477   9.507
 1076POPC   GL118433   2.038  30.541   9.160
 1076POPC   GL218434   1.694  30.604   9.196
 1076POPC   C1A18435   2.089  30.675   8.752
 1076POPC   D2A18436   2.273  30.795   8.383
 1076POPC   C3A18437   2.140  30.743   7.970
 1076POPC   C4A18438   2.297  30.418   7.704
 1076POPC   C1B18439   1.575  30.618   8.748
 1076POPC   C2B18440   1.729  30.677   8.342
 1076POPC   C3B18441   1.625  30.785   7.922
 1076POPC   C4B18442   1.825  30.563   7.569
 1077POPC   NC318443   6.813  16.468   9.312
 1077POPC   PO418444   6.279  16.830   9.434
 1077POPC   GL118445   6.510  16.836   9.083
 1077POPC   GL218446   6.374  16.491   9.046
 1077POPC   C1A18447   6.671  16.716   8.669
 1077POPC   D2A18448   6.661  16.501   8.260
 1077POPC   C3A18449   6.761  16.669   7.837
 1077POPC   C4A18450   6.818  17.126   7.733
 1077POPC   C1B18451   6.193  16.394   8.688
 1077POPC   C2B18452   6.148  16.608   8.328
 1077POPC   C3B18453   6.251  16.445   7.967
 1077POPC   C4B18454   6.388  16.433   7.572
 1078POPC   NC318455  42.423  21.854   9.496
 1078POPC   PO418456  42.142  21.253   9.458
 1078POPC   GL118457  42.245  21.245   9.050
 1078POPC   GL218458  42.539  21.471   9.130
 1078POPC   C1A18459  42.049  21.406   8.669
 1078POPC   D2A18460  41.904  21.663   8.340
 1078POPC   C3A18461  42.049  21.537   7.937
 1078POPC   C4A18462  42.173  21.271   7.562
 1078POPC   C1B18463  42.566  21.424   8.694
 1078POPC   C2B18464  42.415  21.509   8.282
 1078POPC   C3B18465  42.561  21.391   7.883
 1078POPC   C4B18466  42.974  21.325   7.747
 1079POPC   NC318467   4.804   2.347   9.510
 1079POPC   PO418468   5.296   1.895   9.424
 1079POPC   GL118469   5.109   2.215   9.126
 1079POPC   GL218470   4.738   2.178   9.045
 1079POPC   C1A18471   5.188   2.224   8.692
 1079POPC   D2A18472   5.373   1.910   8.474
 1079POPC   C3A18473   5.254   1.940   8.060
 1079POPC   C4A18474   5.384   1.744   7.682
 1079POPC   C1B18475   4.834   1.831   8.795
 1079POPC   C2B18476   4.830   1.953   8.394
 1079POPC   C3B18477   4.662   2.049   8.042
 1079POPC   C4B18478   4.899   2.038   7.705
 1080POPC   NC318479  42.944   0.892   9.462
 1080POPC   PO418480  42.893   0.245   9.572
 1080POPC   GL118481  43.115   0.469   9.200
 1080POPC   GL218482  43.381   0.716   9.232
 1080POPC   C1A18483  43.141   0.681   8.790
 1080POPC   D2A18484  43.224   0.434   8.418
 1080POPC   C3A18485  42.969   0.517   8.093
 1080POPC   C4A18486  42.961   0.424   7.682
 1080POPC   C1B18487  43.568   0.940   8.906
 1080POPC   C2B18488  43.528   0.929   8.465
 1080POPC   C3B18489  43.452   0.746   8.069
 1080POPC   C4B18490  43.290   0.835   7.676
 1081POPC   NC318491   8.024  20.828   9.660
 1081POPC   PO418492   8.474  20.391   9.442
 1081POPC   GL118493   8.418  20.786   9.245
 1081POPC   GL218494   8.103  20.723   9.166
 1081POPC   C1A18495   8.510  20.831   8.804
 1081POPC   D2A18496   8.563  20.572   8.421
 1081POPC   C3A18497   8.301  20.578   8.009
 1081POPC   C4A18498   8.378  20.809   7.608
 1081POPC   C1B18499   8.097  20.522   8.759
 1081POPC   C2B18500   7.882  20.560   8.372
 1081POPC   C3B18501   7.829  20.824   7.996
 1081POPC   C4B18502   7.895  20.674   7.596
 1082POPC   NC318503  15.668  28.721   9.462
 1082POPC   PO418504  15.991  28.140   9.433
 1082POPC   GL118505  16.004  28.128   9.024
 1082POPC   GL218506  16.252  27.879   9.033
 1082POPC   C1A18507  15.843  28.311   8.613
 1082POPC   D2A18508  16.001  28.204   8.183
 1082POPC   C3A18509  15.874  28.453   7.835
 1082POPC   C4A18510  15.589  28.837   7.816
 1082POPC   C1B18511  16.313  28.111   8.628
 1082POPC   C2B18512  16.507  28.197   8.235
 1082POPC   C3B18513  16.358  28.132   7.808
 1082POPC   C4B18514  16.111  28.257   7.414
 1083POPC   NC318515  39.189  20.335   9.340
 1083POPC   PO418516  38.835  20.913   9.420
 1083POPC   GL118517  38.992  20.761   9.081
 1083POPC   GL218518  39.325  20.782   9.143
 1083POPC   C1A18519  39.145  20.808   8.673
 1083POPC   D2A18520  39.244  20.513   8.387
 1083POPC   C3A18521  39.123  20.680   8.034
 1083POPC   C4A18522  39.091  20.475   7.668
 1083POPC   C1B18523  39.553  20.521   8.812
 1083POPC   C2B18524  39.703  20.274   8.462
 1083POPC   C3B18525  39.591  20.325   8.015
 1083POPC   C4B18526  39.583  20.675   7.736
 1084POPC   NC318527  19.923  31.876   9.503
 1084POPC   PO418528  19.489  32.329   9.414
 1084POPC   GL118529  19.714  32.232   9.087
 1084POPC   GL218530  19.725  31.907   9.049
 1084POPC   C1A18531  19.937  32.373   8.737
 1084POPC   D2A18532  19.810  32.505   8.349
 1084POPC   C3A18533  19.996  32.517   7.934
 1084POPC   C4A18534  19.765  32.538   7.527
 1084POPC   C1B18535  19.890  31.858   8.658
 1084POPC   C2B18536  20.032  31.913   8.241
 1084POPC   C3B18537  19.837  31.858   7.837
 1084POPC   C4B18538  19.611  32.055   7.466
 1085POPC   NC318539  20.585  23.637   9.548
 1085POPC   PO418540  20.793  24.261   9.572
 1085POPC   GL118541  20.831  23.966   9.217
 1085POPC   GL218542  20.459  23.845   9.084
 1085POPC   C1A18543  20.888  23.877   8.782
 1085POPC   D2A18544  20.871  23.909   8.307
 1085POPC   C3A18545  20.783  23.517   8.068
 1085POPC   C4A18546  20.479  23.350   7.794
 1085POPC   C1B18547  20.400  23.911   8.606
 1085POPC   C2B18548  20.341  23.820   8.159
 1085POPC   C3B18549  20.556  23.857   7.750
 1085POPC   C4B18550  20.702  23.984   7.338
 1086POPC   NC318551  13.076  23.894   9.447
 1086POPC   PO418552  12.418  23.907   9.397
 1086POPC   GL118553  12.709  23.739   9.112
 1086POPC   GL218554  12.901  23.426   9.191
 1086POPC   C1A18555  12.811  23.865   8.715
 1086POPC   D2A18556  12.615  23.857   8.325
 1086POPC   C3A18557  12.813  23.865   7.939
 1086POPC   C4A18558  12.601  23.552   7.667
 1086POPC   C1B18559  12.834  23.374   8.758
 1086POPC   C2B18560  13.008  23.515   8.379
 1086POPC   C3B18561  12.973  23.393   7.978
 1086POPC   C4B18562  13.107  23.578   7.579
 1087POPC   NC318563  38.331  24.614   9.343
 1087POPC   PO418564  38.962  24.285   9.551
 1087POPC   GL118565  38.745  24.390   9.163
 1087POPC   GL218566  38.748  24.758   9.061
 1087POPC   C1A18567  38.546  24.385   8.724
 1087POPC   D2A18568  38.371  24.129   8.372
 1087POPC   C3A18569  38.121  24.278   8.014
 1087POPC   C4A18570  38.315  24.446   7.676
 1087POPC   C1B18571  38.446  24.895   8.684
 1087POPC   C2B18572  38.455  24.841   8.192
 1087POPC   C3B18573  38.681  24.813   7.766
 1087POPC   C4B18574  38.676  24.989   7.313
 1088POPC   NC318575  18.453   7.969   9.540
 1088POPC   PO418576  17.973   8.339   9.509
 1088POPC   GL118577  18.146   8.147   9.174
 1088POPC   GL218578  18.456   8.378   9.200
 1088POPC   C1A18579  18.047   7.860   8.837
 1088POPC   D2A18580  18.200   7.786   8.406
 1088POPC   C3A18581  17.979   7.939   8.036
 1088POPC   C4A18582  18.201   7.907   7.653
 1088POPC   C1B18583  18.209   8.570   8.893
 1088POPC   C2B18584  17.999   8.567   8.506
 1088POPC   C3B18585  18.131   8.566   8.101
 1088POPC   C4B18586  18.027   8.375   7.720
 1089POPC   NC318587  32.418  38.951   9.520
 1089POPC   PO418588  31.981  38.455   9.649
 1089POPC   GL118589  32.197  38.426   9.211
 1089POPC   GL218590  32.505  38.631   9.135
 1089POPC   C1A18591  32.255  38.375   8.748
 1089POPC   D2A18592  32.144  38.382   8.305
 1089POPC   C3A18593  32.237  38.714   8.002
 1089POPC   C4A18594  32.092  38.427   7.684
 1089POPC   C1B18595  32.733  38.563   8.730
 1089POPC   C2B18596  32.655  38.304   8.353
 1089POPC   C3B18597  32.541  38.308   7.908
 1089POPC   C4B18598  32.571  38.478   7.457
 1090POPC   NC318599   5.884   7.108   9.362
 1090POPC   PO418600   6.108   6.562   9.516
 1090POPC   GL118601   5.834   6.520   9.174
 1090POPC   GL218602   6.093   6.424   8.999
 1090POPC   C1A18603   5.607   6.709   8.796
 1090POPC   D2A18604   5.728   6.836   8.352
 1090POPC   C3A18605   5.736   6.675   7.848
 1090POPC   C4A18606   5.855   6.763   7.391
 1090POPC   C1B18607   6.086   6.863   8.798
 1090POPC   C2B18608   6.192   7.076   8.426
 1090POPC   C3B18609   6.121   6.930   8.032
 1090POPC   C4B18610   5.964   7.137   7.693
 1091POPC   NC318611  13.565  18.061   9.576
 1091POPC   PO418612  13.718  18.667   9.362
 1091POPC   GL118613  13.528  18.342   9.148
 1091POPC   GL218614  13.748  18.040   9.112
 1091POPC   C1A18615  13.446  18.213   8.747
 1091POPC   D2A18616  13.577  18.467   8.410
 1091POPC   C3A18617  13.491  18.351   7.998
 1091POPC   C4A18618  13.434  18.384   7.560
 1091POPC   C1B18619  13.939  18.298   8.766
 1091POPC   C2B18620  13.997  18.187   8.309
 1091POPC   C3B18621  13.962  18.235   7.849
 1091POPC   C4B18622  13.857  18.641   7.654
 1092POPC   NC318623   8.767  10.949   9.564
 1092POPC   PO418624   9.210  11.450   9.469
 1092POPC   GL118625   9.033  11.483   9.051
 1092POPC   GL218626   8.722  11.366   9.126
 1092POPC   C1A18627   8.737  11.646   8.696
 1092POPC   D2A18628   8.681  11.451   8.273
 1092POPC   C3A18629   9.058  11.469   8.010
 1092POPC   C4A18630   9.347  11.172   7.842
 1092POPC   C1B18631   8.629  11.152   8.715
 1092POPC   C2B18632   8.787  10.912   8.357
 1092POPC   C3B18633   8.863  10.968   7.943
 1092POPC   C4B18634   8.525  11.198   7.836
 1093POPC   NC318635  36.965  23.935   9.486
 1093POPC   PO418636  36.743  23.267   9.571
 1093POPC   GL118637  36.834  23.486   9.214
 1093POPC   GL218638  37.123  23.532   9.135
 1093POPC   C1A18639  36.775  23.588   8.772
 1093POPC   D2A18640  37.007  23.606   8.386
 1093POPC   C3A18641  36.783  23.548   7.990
 1093POPC   C4A18642  36.838  23.663   7.578
 1093POPC   C1B18643  37.190  23.923   8.853
 1093POPC   C2B18644  37.215  24.085   8.450
 1093POPC   C3B18645  37.002  24.009   8.037
 1093POPC   C4B18646  36.942  24.165   7.611
 1094POPC   NC318647   7.037  38.197   9.550
 1094POPC   PO418648   6.312  38.340   9.683
 1094POPC   GL118649   6.634  38.455   9.337
 1094POPC   GL218650   7.010  38.579   9.228
 1094POPC   C1A18651   6.677  38.336   8.920
 1094POPC   D2A18652   6.668  38.446   8.483
 1094POPC   C3A18653   6.615  38.199   8.134
 1094POPC   C4A18654   6.632  38.432   7.779
 1094POPC   C1B18655   7.107  38.824   8.859
 1094POPC   C2B18656   6.968  38.869   8.440
 1094POPC   C3B18657   7.029  38.653   8.060
 1094POPC   C4B18658   6.958  38.809   7.640
 1095POPC   NC318659  43.620  34.658   9.578
 1095POPC   PO418660  43.794  34.022   9.574
 1095POPC   GL118661  43.931  34.416   9.256
 1095POPC   GL218662  44.131  34.758   9.247
 1095POPC   C1A18663  44.009  34.396   8.816
 1095POPC   D2A18664  44.152  34.308   8.418
 1095POPC   C3A18665  43.860  34.402   8.082
 1095POPC   C4A18666  43.944  34.370   7.651
 1095POPC   C1B18667  43.838  34.861   8.895
 1095POPC   C2B18668  43.885  34.794   8.443
 1095POPC   C3B18669  43.718  34.925   8.032
 1095POPC   C4B18670  43.630  34.764   7.654
 1096POPC   NC318671  13.615  30.913   9.442
 1096POPC   PO418672  13.411  30.309   9.672
 1096POPC   GL118673  13.508  30.419   9.213
 1096POPC   GL218674  13.287  30.667   9.124
 1096POPC   C1A18675  13.726  30.585   8.799
 1096POPC   D2A18676  13.840  30.754   8.393
 1096POPC   C3A18677  13.807  30.479   8.046
 1096POPC   C4A18678  13.909  30.567   7.629
 1096POPC   C1B18679  13.152  30.912   8.778
 1096POPC   C2B18680  13.313  31.052   8.414
 1096POPC   C3B18681  13.407  30.809   8.082
 1096POPC   C4B18682  13.357  30.897   7.676
 1097POPC   NC318683   9.403  44.622   9.781
 1097POPC   PO418684   9.857  44.393   9.272
 1097POPC   GL118685   9.665  44.675   9.069
 1097POPC   GL218686   9.349  44.809   9.251
 1097POPC   C1A18687   9.826  44.875   8.706
 1097POPC   D2A18688   9.958  44.913   8.297
 1097POPC   C3A18689   9.778  44.572   8.049
 1097POPC   C4A18690   9.872  44.502   7.625
 1097POPC   C1B18691   9.358  44.998   8.864
 1097POPC   C2B18692   9.217  44.941   8.433
 1097POPC   C3B18693   9.344  44.868   7.997
 1097POPC   C4B18694   9.352  44.513   7.730
 1098POPC   NC318695   6.881  44.429   9.401
 1098POPC   PO418696   6.512  44.898   9.544
 1098POPC   GL118697   6.464  44.736   9.143
 1098POPC   GL218698   6.238  44.493   9.110
 1098POPC   C1A18699   6.554  44.622   8.708
 1098POPC   D2A18700   6.730  44.551   8.301
 1098POPC   C3A18701   6.731  44.902   8.018
 1098POPC   C4A18702   6.884  44.880   7.596
 1098POPC   C1B18703   6.178  44.274   8.751
 1098POPC   C2B18704   6.156  44.458   8.365
 1098POPC   C3B18705   6.305  44.604   7.992
 1098POPC   C4B18706   6.330  44.388   7.604
 1099POPC   NC318707   8.306  14.655   9.486
 1099POPC   PO418708   7.873  14.130   9.431
 1099POPC   GL118709   8.234  14.301   9.126
 1099POPC   GL218710   8.375  14.668   8.991
 1099POPC   C1A18711   8.445  14.247   8.737
 1099POPC   D2A18712   8.366  14.454   8.345
 1099POPC   C3A18713   8.345  14.205   7.975
 1099POPC   C4A18714   8.085  14.193   7.572
 1099POPC   C1B18715   8.016  14.601   8.719
 1099POPC   C2B18716   7.895  14.652   8.283
 1099POPC   C3B18717   8.055  14.623   7.865
 1099POPC   C4B18718   7.956  14.831   7.488
 1100POPC   NC318719  24.934  31.076   9.354
 1100POPC   PO418720  25.304  30.639   9.630
 1100POPC   GL118721  25.448  30.811   9.189
 1100POPC   GL218722  25.140  30.804   8.979
 1100POPC   C1A18723  25.568  30.771   8.723
 1100POPC   D2A18724  25.360  30.588   8.356
 1100POPC   C3A18725  25.503  30.775   7.961
 1100POPC   C4A18726  25.352  30.748   7.496
 1100POPC   C1B18727  24.866  30.687   8.637
 1100POPC   C2B18728  24.855  30.707   8.194
 1100POPC   C3B18729  25.041  30.973   7.884
 1100POPC   C4B18730  25.329  31.219   7.668
 1101POPC   NC318731  17.888   5.547   9.588
 1101POPC   PO418732  18.205   6.048   9.288
 1101POPC   GL118733  18.176   5.681   9.131
 1101POPC   GL218734  17.827   5.668   9.102
 1101POPC   C1A18735  18.425   5.726   8.764
 1101POPC   D2A18736  18.548   6.149   8.613
 1101POPC   C3A18737  18.455   6.164   8.179
 1101POPC   C4A18738  18.404   5.828   7.901
 1101POPC   C1B18739  17.910   5.927   8.752
 1101POPC   C2B18740  18.094   5.906   8.424
 1101POPC   C3B18741  17.969   5.956   8.060
 1101POPC   C4B18742  17.999   6.094   7.632
 1102POPC   NC318743  26.339  22.878   9.648
 1102POPC   PO418744  25.752  22.610   9.638
 1102POPC   GL118745  25.928  22.914   9.288
 1102POPC   GL218746  26.243  23.138   9.212
 1102POPC   C1A18747  26.077  22.827   8.856
 1102POPC   D2A18748  25.997  22.993   8.460
 1102POPC   C3A18749  26.125  22.839   8.062
 1102POPC   C4A18750  25.935  22.986   7.665
 1102POPC   C1B18751  26.436  23.204   8.787
 1102POPC   C2B18752  26.347  23.313   8.326
 1102POPC   C3B18753  26.232  23.308   7.892
 1102POPC   C4B18754  26.224  23.292   7.363
 1103POPC   NC318755  12.756  36.824   9.644
 1103POPC   PO418756  13.345  36.975   9.502
 1103POPC   GL118757  13.001  36.961   9.172
 1103POPC   GL218758  12.616  36.985   9.165
 1103POPC   C1A18759  12.840  36.879   8.735
 1103POPC   D2A18760  12.925  36.571   8.410
 1103POPC   C3A18761  12.894  36.755   7.974
 1103POPC   C4A18762  12.933  36.659   7.507
 1103POPC   C1B18763  12.597  37.329   8.808
 1103POPC   C2B18764  12.760  37.247   8.390
 1103POPC   C3B18765  12.611  37.185   7.975
 1103POPC   C4B18766  12.780  37.141   7.574
 1104POPC   NC318767  10.401  32.773   9.887
 1104POPC   PO418768  10.509  32.196   9.469
 1104POPC   GL118769  10.558  32.071   9.063
 1104POPC   GL218770  10.748  31.786   9.123
 1104POPC   C1A18771  10.499  32.257   8.656
 1104POPC   D2A18772  10.669  32.575   8.412
 1104POPC   C3A18773  10.564  32.444   8.028
 1104POPC   C4A18774  10.478  32.063   7.777
 1104POPC   C1B18775  10.882  31.913   8.688
 1104POPC   C2B18776  10.753  31.959   8.233
 1104POPC   C3B18777  10.928  31.772   7.855
 1104POPC   C4B18778  10.987  31.977   7.433
 1105POPC   NC318779  34.458  33.999   9.601
 1105POPC   PO418780  34.622  33.358   9.580
 1105POPC   GL118781  34.637  33.694   9.213
 1105POPC   GL218782  34.590  34.066   9.103
 1105POPC   C1A18783  34.709  33.751   8.735
 1105POPC   D2A18784  34.535  33.615   8.359
 1105POPC   C3A18785  34.581  33.818   8.005
 1105POPC   C4A18786  34.412  33.587   7.669
 1105POPC   C1B18787  34.413  34.143   8.658
 1105POPC   C2B18788  34.170  33.998   8.297
 1105POPC   C3B18789  34.164  34.044   7.833
 1105POPC   C4B18790  34.526  34.075   7.547
 1106POPC   NC318791  31.885   6.769   9.509
 1106POPC   PO418792  32.464   6.369   9.470
 1106POPC   GL118793  32.328   6.726   9.238
 1106POPC   GL218794  32.086   6.521   9.111
 1106POPC   C1A18795  32.337   6.894   8.838
 1106POPC   D2A18796  32.680   6.922   8.540
 1106POPC   C3A18797  32.660   6.722   8.131
 1106POPC   C4A18798  32.550   6.757   7.706
 1106POPC   C1B18799  32.082   6.454   8.710
 1106POPC   C2B18800  32.181   6.707   8.383
 1106POPC   C3B18801  32.124   6.801   7.980
 1106POPC   C4B18802  32.199   6.406   7.774
 1107POPC   NC318803   4.107  31.421   9.582
 1107POPC   PO418804   4.803  31.398   9.473
 1107POPC   GL118805   4.480  31.450   9.144
 1107POPC   GL218806   4.224  31.185   9.119
 1107POPC   C1A18807   4.283  31.548   8.741
 1107POPC   D2A18808   4.410  31.766   8.365
 1107POPC   C3A18809   4.324  31.591   7.977
 1107POPC   C4A18810   3.920  31.433   7.869
 1107POPC   C1B18811   4.403  31.049   8.686
 1107POPC   C2B18812   4.244  31.147   8.244
 1107POPC   C3B18813   4.310  31.135   7.771
 1107POPC   C4B18814   4.276  31.136   7.296
 1108POPC   NC318815  18.711   0.611   9.773
 1108POPC   PO418816  18.096   0.643   9.587
 1108POPC   GL118817  18.332   0.496   9.152
 1108POPC   GL218818  18.478   0.144   9.043
 1108POPC   C1A18819  18.355   0.611   8.684
 1108POPC   D2A18820  18.271   0.497   8.245
 1108POPC   C3A18821  18.235   0.678   7.828
 1108POPC   C4A18822  18.433   0.910   7.474
 1108POPC   C1B18823  18.113   0.159   8.750
 1108POPC   C2B18824  18.022   0.045   8.300
 1108POPC   C3B18825  18.177   0.164   7.874
 1108POPC   C4B18826  18.075   0.103   7.441
 1109POPC   NC318827  40.945   4.245   9.955
 1109POPC   PO418828  40.515   4.460   9.379
 1109POPC   GL118829  40.780   4.413   9.047
 1109POPC   GL218830  41.063   4.611   8.921
 1109POPC   C1A18831  40.906   4.204   8.681
 1109POPC   D2A18832  40.992   4.461   8.370
 1109POPC   C3A18833  40.967   4.247   7.986
 1109POPC   C4A18834  40.904   4.237   7.555
 1109POPC   C1B18835  40.762   4.804   8.675
 1109POPC   C2B18836  40.592   4.773   8.262
 1109POPC   C3B18837  40.548   4.568   7.833
 1109POPC   C4B18838  40.577   4.557   7.364
 1110POPC   NC318839  28.848  43.263   9.668
 1110POPC   PO418840  28.220  43.109   9.403
 1110POPC   GL118841  28.298  42.988   9.052
 1110POPC   GL218842  28.394  43.295   8.850
 1110POPC   C1A18843  28.086  42.933   8.678
 1110POPC   D2A18844  28.181  42.945   8.280
 1110POPC   C3A18845  28.158  43.202   7.948
 1110POPC   C4A18846  28.146  42.996   7.525
 1110POPC   C1B18847  28.634  42.925   8.698
 1110POPC   C2B18848  28.695  42.735   8.319
 1110POPC   C3B18849  28.626  42.929   7.904
 1110POPC   C4B18850  28.541  43.296   7.657
 1111POPC   NC318851   4.235  33.314   9.540
 1111POPC   PO418852   4.451  32.640   9.439
 1111POPC   GL118853   4.288  32.982   9.142
 1111POPC   GL218854   4.475  33.343   9.104
 1111POPC   C1A18855   4.200  33.127   8.722
 1111POPC   D2A18856   4.289  32.903   8.325
 1111POPC   C3A18857   4.028  32.917   7.971
 1111POPC   C4A18858   4.367  32.825   7.736
 1111POPC   C1B18859   4.671  33.372   8.710
 1111POPC   C2B18860   4.441  33.386   8.309
 1111POPC   C3B18861   4.303  33.353   7.900
 1111POPC   C4B18862   4.505  33.248   7.509
 1112POPC   NC318863  26.990  14.938   9.494
 1112POPC   PO418864  26.389  15.229   9.681
 1112POPC   GL118865  26.630  15.158   9.220
 1112POPC   GL218866  26.923  15.343   9.089
 1112POPC   C1A18867  26.637  15.082   8.766
 1112POPC   D2A18868  26.836  14.819   8.460
 1112POPC   C3A18869  26.796  15.022   8.071
 1112POPC   C4A18870  26.448  15.213   7.862
 1112POPC   C1B18871  27.140  15.156   8.717
 1112POPC   C2B18872  27.202  15.261   8.314
 1112POPC   C3B18873  27.082  15.435   7.926
 1112POPC   C4B18874  27.119  15.148   7.627
 1113POPC   NC318875  31.076  36.968   9.348
 1113POPC   PO418876  30.355  37.012   9.448
 1113POPC   GL118877  30.613  37.152   9.147
 1113POPC   GL218878  30.679  36.812   9.056
 1113POPC   C1A18879  30.908  37.279   8.810
 1113POPC   D2A18880  31.051  37.090   8.410
 1113POPC   C3A18881  30.783  37.094   8.018
 1113POPC   C4A18882  30.638  36.689   7.825
 1113POPC   C1B18883  30.571  36.946   8.664
 1113POPC   C2B18884  30.381  37.063   8.328
 1113POPC   C3B18885  30.193  36.950   7.951
 1113POPC   C4B18886  30.309  36.914   7.497
 1114POPC   NC318887   9.187  36.406   9.828
 1114POPC   PO418888   8.806  35.904   9.459
 1114POPC   GL118889   8.862  36.100   9.057
 1114POPC   GL218890   8.523  36.002   9.005
 1114POPC   C1A18891   9.157  36.290   8.699
 1114POPC   D2A18892   9.457  36.151   8.399
 1114POPC   C3A18893   9.273  36.268   8.035
 1114POPC   C4A18894   9.076  36.468   7.729
 1114POPC   C1B18895   8.746  35.830   8.660
 1114POPC   C2B18896   8.933  36.006   8.328
 1114POPC   C3B18897   8.837  36.018   7.913
 1114POPC   C4B18898   8.845  35.593   7.733
 1115POPC   NC318899  24.497  14.670   9.474
 1115POPC   PO418900  24.197  13.994   9.472
 1115POPC   GL118901  24.469  14.245   9.198
 1115POPC   GL218902  24.231  14.460   9.048
 1115POPC   C1A18903  24.676  14.198   8.773
 1115POPC   D2A18904  24.797  14.328   8.347
 1115POPC   C3A18905  24.490  14.494   8.050
 1115POPC   C4A18906  24.669  14.519   7.654
 1115POPC   C1B18907  24.292  14.588   8.604
 1115POPC   C2B18908  24.130  14.848   8.254
 1115POPC   C3B18909  24.252  14.919   7.821
 1115POPC   C4B18910  24.288  14.758   7.405
 1116POPC   NC318911  17.325  34.715   9.618
 1116POPC   PO418912  17.523  34.103   9.464
 1116POPC   GL118913  17.367  34.387   9.212
 1116POPC   GL218914  17.653  34.596   9.200
 1116POPC   C1A18915  17.213  34.632   8.901
 1116POPC   D2A18916  17.176  34.705   8.463
 1116POPC   C3A18917  17.344  34.540   8.086
 1116POPC   C4A18918  17.333  34.733   7.680
 1116POPC   C1B18919  17.651  34.477   8.747
 1116POPC   C2B18920  17.716  34.710   8.386
 1116POPC   C3B18921  17.758  34.830   7.947
 1116POPC   C4B18922  17.781  34.447   7.651
 1117POPC   NC318923  43.330  30.227   9.439
 1117POPC   PO418924  43.453  29.581   9.355
 1117POPC   GL118925  43.109  29.820   9.130
 1117POPC   GL218926  42.982  30.188   9.080
 1117POPC   C1A18927  43.115  29.885   8.685
 1117POPC   D2A18928  43.046  29.654   8.313
 1117POPC   C3A18929  42.782  29.800   7.988
 1117POPC   C4A18930  42.876  29.773   7.551
 1117POPC   C1B18931  43.032  30.401   8.659
 1117POPC   C2B18932  43.016  30.210   8.236
 1117POPC   C3B18933  43.063  30.339   7.791
 1117POPC   C4B18934  43.224  30.553   7.396
 1118POPC   NC318935  35.785  34.916   9.446
 1118POPC   PO418936  35.842  34.246   9.356
 1118POPC   GL118937  36.203  34.303   9.091
 1118POPC   GL218938  36.132  34.661   9.127
 1118POPC   C1A18939  36.372  34.379   8.645
 1118POPC   D2A18940  36.276  34.664   8.293
 1118POPC   C3A18941  36.261  34.536   7.864
 1118POPC   C4A18942  35.895  34.300   7.815
 1118POPC   C1B18943  35.914  34.587   8.738
 1118POPC   C2B18944  35.750  34.640   8.322
 1118POPC   C3B18945  35.909  34.899   8.002
 1118POPC   C4B18946  35.895  35.321   7.881
 1119POPC   NC318947  30.222  19.299   9.416
 1119POPC   PO418948  30.910  19.284   9.456
 1119POPC   GL118949  30.631  19.120   9.131
 1119POPC   GL218950  30.566  18.758   9.038
 1119POPC   C1A18951  30.761  19.110   8.718
 1119POPC   D2A18952  30.923  19.411   8.428
 1119POPC   C3A18953  30.861  19.250   8.021
 1119POPC   C4A18954  30.595  18.938   7.828
 1119POPC   C1B18955  30.304  18.701   8.672
 1119POPC   C2B18956  30.319  18.776   8.231
 1119POPC   C3B18957  30.244  18.558   7.841
 1119POPC   C4B18958  30.339  18.609   7.396
 1120POPC   NC318959  17.218  40.562   9.300
 1120POPC   PO418960  16.740  40.895   9.596
 1120POPC   GL118961  16.685  40.964   9.138
 1120POPC   GL218962  17.040  40.980   9.049
 1120POPC   C1A18963  16.572  40.715   8.723
 1120POPC   D2A18964  16.698  40.592   8.284
 1120POPC   C3A18965  16.490  40.769   7.922
 1120POPC   C4A18966  16.675  41.125   7.727
 1120POPC   C1B18967  17.070  40.867   8.607
 1120POPC   C2B18968  17.105  40.926   8.162
 1120POPC   C3B18969  16.999  40.730   7.770
 1120POPC   C4B18970  16.695  40.681   7.433
 1121POPC   NC318971  38.982  41.729   9.523
 1121POPC   PO418972  39.240  42.346   9.582
 1121POPC   GL118973  39.044  42.184   9.229
 1121POPC   GL218974  39.317  41.976   9.174
 1121POPC   C1A18975  38.968  42.069   8.801
 1121POPC   D2A18976  38.880  42.279   8.413
 1121POPC   C3A18977  38.893  42.102   8.010
 1121POPC   C4A18978  39.011  42.363   7.653
 1121POPC   C1B18979  39.503  42.129   8.839
 1121POPC   C2B18980  39.408  42.280   8.458
 1121POPC   C3B18981  39.430  42.113   8.061
 1121POPC   C4B18982  39.280  41.939   7.715
 1122POPC   NC318983  29.335  43.951   9.477
 1122POPC   PO418984  28.712  43.744   9.599
 1122POPC   GL118985  28.987  43.718   9.172
 1122POPC   GL218986  29.324  43.574   9.124
 1122POPC   C1A18987  29.279  43.952   8.812
 1122POPC   D2A18988  29.437  44.046   8.391
 1122POPC   C3A18989  29.048  44.004   8.113
 1122POPC   C4A18990  28.852  43.764   7.749
 1122POPC   C1B18991  29.427  43.424   8.704
 1122POPC   C2B18992  29.314  43.566   8.283
 1122POPC   C3B18993  29.375  43.723   7.861
 1122POPC   C4B18994  29.399  43.530   7.491
 1123POPC   NC318995  25.773  10.992   9.591
 1123POPC   PO418996  25.089  11.191   9.467
 1123POPC   GL118997  25.181  11.317   9.096
 1123POPC   GL218998  25.482  11.205   9.152
 1123POPC   C1A18999  25.202  11.518   8.723
 1123POPC   D2A19000  25.127  11.296   8.350
 1123POPC   C3A19001  25.135  11.462   7.958
 1123POPC   C4A19002  25.282  11.268   7.546
 1123POPC   C1B19003  25.581  11.079   8.750
 1123POPC   C2B19004  25.476  10.931   8.344
 1123POPC   C3B19005  25.553  11.133   7.971
 1123POPC   C4B19006  25.725  11.019   7.585
 1124POPC   NC319007  16.638  43.578   9.401
 1124POPC   PO419008  16.936  44.170   9.471
 1124POPC   GL119009  16.691  44.008   9.149
 1124POPC   GL219010  16.449  44.218   9.252
 1124POPC   C1A19011  16.626  43.779   8.759
 1124POPC   D2A19012  16.800  43.690   8.346
 1124POPC   C3A19013  16.517  43.811   8.005
 1124POPC   C4A19014  16.662  44.132   7.712
 1124POPC   C1B19015  16.378  44.240   8.816
 1124POPC   C2B19016  16.531  44.164   8.418
 1124POPC   C3B19017  16.300  44.250   8.080
 1124POPC   C4B19018  16.179  44.310   7.696
 1125POPC   NC319019  41.366   0.951   9.884
 1125POPC   PO419020  40.977   1.339   9.525
 1125POPC   GL119021  40.919   1.371   9.076
 1125POPC   GL219022  41.085   1.689   9.015
 1125POPC   C1A19023  40.695   1.310   8.659
 1125POPC   D2A19024  40.590   1.014   8.321
 1125POPC   C3A19025  40.718   1.140   7.897
 1125POPC   C4A19026  40.734   1.232   7.461
 1125POPC   C1B19027  41.209   1.566   8.574
 1125POPC   C2B19028  40.991   1.479   8.192
 1125POPC   C3B19029  41.000   1.558   7.747
 1125POPC   C4B19030  41.188   1.405   7.393
 1126POPC   NC319031   7.210  15.560   9.445
 1126POPC   PO419032   7.597  15.040   9.467
 1126POPC   GL119033   7.309  15.169   9.102
 1126POPC   GL219034   7.258  15.546   8.945
 1126POPC   C1A19035   7.218  15.174   8.641
 1126POPC   D2A19036   7.329  15.412   8.271
 1126POPC   C3A19037   7.303  15.166   7.914
 1126POPC   C4A19038   7.551  15.115   7.558
 1126POPC   C1B19039   7.578  15.689   8.617
 1126POPC   C2B19040   7.745  15.702   8.175
 1126POPC   C3B19041   7.622  15.548   7.797
 1126POPC   C4B19042   7.404  15.578   7.379
 1127POPC   NC319043  40.659  26.237  10.088
 1127POPC   PO419044  40.654  26.784   9.598
 1127POPC   GL119045  40.848  26.864   9.193
 1127POPC   GL219046  41.130  27.027   9.085
 1127POPC   C1A19047  40.743  26.841   8.763
 1127POPC   D2A19048  40.708  27.046   8.372
 1127POPC   C3A19049  40.473  26.817   8.086
 1127POPC   C4A19050  40.670  26.763   7.698
 1127POPC   C1B19051  41.173  26.592   8.866
 1127POPC   C2B19052  41.144  26.451   8.451
 1127POPC   C3B19053  41.098  26.760   8.118
 1127POPC   C4B19054  41.154  26.653   7.695
 1128POPC   NC319055  32.694  19.292   9.751
 1128POPC   PO419056  33.345  19.210   9.635
 1128POPC   GL119057  33.220  19.120   9.200
 1128POPC   GL219058  33.127  19.431   9.120
 1128POPC   C1A19059  33.087  19.055   8.718
 1128POPC   D2A19060  33.169  18.867   8.270
 1128POPC   C3A19061  32.930  18.945   7.902
 1128POPC   C4A19062  32.790  18.689   7.525
 1128POPC   C1B19063  33.141  19.538   8.674
 1128POPC   C2B19064  33.036  19.367   8.264
 1128POPC   C3B19065  33.044  19.446   7.814
 1128POPC   C4B19066  32.882  19.182   7.453
 1129POPC   NC319067   3.656  35.024   9.349
 1129POPC   PO419068   3.131  35.344   9.691
 1129POPC   GL119069   3.375  35.427   9.246
 1129POPC   GL219070   3.729  35.554   9.183
 1129POPC   C1A19071   3.391  35.286   8.759
 1129POPC   D2A19072   3.255  35.433   8.315
 1129POPC   C3A19073   3.464  35.327   7.908
 1129POPC   C4A19074   3.510  35.494   7.467
 1129POPC   C1B19075   3.900  35.368   8.765
 1129POPC   C2B19076   3.776  35.386   8.328
 1129POPC   C3B19077   3.916  35.575   7.903
 1129POPC   C4B19078   4.009  35.560   7.437
 1130POPC   NC319079   5.762  18.957   9.307
 1130POPC   PO419080   5.502  19.532   9.468
 1130POPC   GL119081   5.653  19.397   9.086
 1130POPC   GL219082   6.017  19.404   9.116
 1130POPC   C1A19083   5.655  19.148   8.709
 1130POPC   D2A19084   5.906  19.076   8.361
 1130POPC   C3A19085   5.679  19.111   8.013
 1130POPC   C4A19086   5.500  18.829   7.743
 1130POPC   C1B19087   5.985  19.520   8.671
 1130POPC   C2B19088   5.913  19.582   8.231
 1130POPC   C3B19089   6.170  19.369   7.926
 1130POPC   C4B19090   6.078  19.059   7.636
 1131POPC   NC319091  30.708  11.614   9.262
 1131POPC   PO419092  30.432  11.006   9.351
 1131POPC   GL119093  30.597  11.152   9.004
 1131POPC   GL219094  30.913  11.082   9.157
 1131POPC   C1A19095  30.509  11.445   8.644
 1131POPC   D2A19096  30.269  11.638   8.304
 1131POPC   C3A19097  30.564  11.627   7.966
 1131POPC   C4A19098  30.550  11.479   7.555
 1131POPC   C1B19099  30.948  10.885   8.766
 1131POPC   C2B19100  30.753  11.020   8.384
 1131POPC   C3B19101  30.828  11.174   7.950
 1131POPC   C4B19102  30.832  10.994   7.526
 1132POPC   NC319103  19.777  44.404   9.586
 1132POPC   PO419104  19.470   0.028   9.438
 1132POPC   GL119105  19.770  44.737   9.180
 1132POPC   GL219106  20.039  44.473   9.173
 1132POPC   C1A19107  19.686  44.486   8.796
 1132POPC   D2A19108  19.665  44.523   8.337
 1132POPC   C3A19109  19.965  44.765   8.146
 1132POPC   C4A19110  19.973  44.778   7.720
 1132POPC   C1B19111  20.209  44.354   8.795
 1132POPC   C2B19112  20.298  44.385   8.367
 1132POPC   C3B19113  20.047  44.270   8.025
 1132POPC   C4B19114  20.098  44.250   7.619
 1133POPC   NC319115  13.558  10.378   9.552
 1133POPC   PO419116  13.842  10.853   9.505
 1133POPC   GL119117  13.555  10.738   9.138
 1133POPC   GL219118  13.223  10.581   9.222
 1133POPC   C1A19119  13.586  10.575   8.684
 1133POPC   D2A19120  13.450  10.379   8.261
 1133POPC   C3A19121  13.635  10.484   7.848
 1133POPC   C4A19122  13.985  10.775   7.746
 1133POPC   C1B19123  13.093  10.511   8.780
 1133POPC   C2B19124  13.119  10.736   8.382
 1133POPC   C3B19125  13.093  10.743   7.918
 1133POPC   C4B19126  13.198  10.527   7.516
 1134POPC   NC319127  32.738   6.820   9.540
 1134POPC   PO419128  33.293   6.352   9.541
 1134POPC   GL119129  33.163   6.627   9.249
 1134POPC   GL219130  32.843   6.518   9.150
 1134POPC   C1A19131  33.231   6.592   8.832
 1134POPC   D2A19132  33.000   6.518   8.479
 1134POPC   C3A19133  33.206   6.573   8.103
 1134POPC   C4A19134  33.046   6.622   7.726
 1134POPC   C1B19135  32.590   6.449   8.811
 1134POPC   C2B19136  32.513   6.289   8.422
 1134POPC   C3B19137  32.677   6.225   8.016
 1134POPC   C4B19138  32.678   6.285   7.603
 1135POPC   NC319139  11.867  32.866   9.388
 1135POPC   PO419140  11.673  33.460   9.687
 1135POPC   GL119141  12.082  33.473   9.272
 1135POPC   GL219142  12.162  33.155   9.058
 1135POPC   C1A19143  12.188  33.540   8.755
 1135POPC   D2A19144  12.121  33.333   8.287
 1135POPC   C3A19145  11.999  33.028   7.936
 1135POPC   C4A19146  11.951  32.930   7.471
 1135POPC   C1B19147  12.222  32.774   8.774
 1135POPC   C2B19148  12.270  32.832   8.366
 1135POPC   C3B19149  12.451  32.853   8.019
 1135POPC   C4B19150  12.186  32.585   7.749
 1136POPC   NC319151   1.031   0.231   9.489
 1136POPC   PO419152   1.507   0.691   9.437
 1136POPC   GL119153   1.340   0.449   9.127
 1136POPC   GL219154   1.076   0.638   9.152
 1136POPC   C1A19155   1.359   0.400   8.689
 1136POPC   D2A19156   1.206   0.643   8.327
 1136POPC   C3A19157   1.160   0.355   7.988
 1136POPC   C4A19158   1.463   0.134   7.761
 1136POPC   C1B19159   0.939   0.691   8.783
 1136POPC   C2B19160   0.745   0.444   8.488
 1136POPC   C3B19161   0.689   0.531   8.057
 1136POPC   C4B19162   0.824   0.514   7.610
 1137POPC   NC319163  31.794  43.061   9.407
 1137POPC   PO419164  32.513  42.927   9.537
 1137POPC   GL119165  32.247  42.856   9.217
 1137POPC   GL219166  32.231  43.237   9.200
 1137POPC   C1A19167  32.071  42.845   8.806
 1137POPC   D2A19168  32.152  42.728   8.369
 1137POPC   C3A19169  32.105  42.985   8.030
 1137POPC   C4A19170  32.233  42.886   7.658
 1137POPC   C1B19171  32.122  43.357   8.792
 1137POPC   C2B19172  32.328  43.232   8.414
 1137POPC   C3B19173  32.376  43.433   7.994
 1137POPC   C4B19174  32.042  43.391   7.667
 1138POPC   NC319175  15.774  36.626   9.681
 1138POPC   PO419176  16.118  37.109   9.435
 1138POPC   GL119177  15.742  36.966   9.211
 1138POPC   GL219178  15.742  36.599   9.172
 1138POPC   C1A19179  15.742  36.901   8.759
 1138POPC   D2A19180  16.046  36.878   8.433
 1138POPC   C3A19181  15.885  36.782   8.048
 1138POPC   C4A19182  15.687  36.984   7.725
 1138POPC   C1B19183  16.096  36.527   8.842
 1138POPC   C2B19184  16.216  36.346   8.419
 1138POPC   C3B19185  16.280  36.466   7.987
 1138POPC   C4B19186  16.135  36.717   7.601
 1139POPC   NC319187   9.152  34.506   9.570
 1139POPC   PO419188   8.501  34.699   9.439
 1139POPC   GL119189   8.937  34.750   9.174
 1139POPC   GL219190   9.353  34.693   9.155
 1139POPC   C1A19191   9.070  34.860   8.760
 1139POPC   D2A19192   8.815  34.927   8.409
 1139POPC   C3A19193   8.954  34.705   8.073
 1139POPC   C4A19194   8.981  34.859   7.672
 1139POPC   C1B19195   9.152  34.364   8.880
 1139POPC   C2B19196   9.305  34.345   8.471
 1139POPC   C3B19197   9.265  34.290   8.075
 1139POPC   C4B19198   9.048  34.358   7.704
 1140POPC   NC319199  30.968   4.435   9.613
 1140POPC   PO419200  30.354   4.118   9.534
 1140POPC   GL119201  30.575   4.167   9.159
 1140POPC   GL219202  30.590   4.516   9.187
 1140POPC   C1A19203  30.768   4.337   8.759
 1140POPC   D2A19204  30.809   4.612   8.410
 1140POPC   C3A19205  30.790   4.411   8.004
 1140POPC   C4A19206  30.658   4.036   7.815
 1140POPC   C1B19207  30.373   4.660   8.785
 1140POPC   C2B19208  30.307   4.839   8.359
 1140POPC   C3B19209  30.403   4.756   7.917
 1140POPC   C4B19210  30.525   4.470   7.567
 1141POPC   NC319211  43.579  40.283   9.467
 1141POPC   PO419212  43.503  39.698   9.052
 1141POPC   GL119213  43.911  39.816   8.960
 1141POPC   GL219214  43.910  40.075   9.140
 1141POPC   C1A19215  44.206  39.831   8.646
 1141POPC   D2A19216  44.027  39.959   8.248
 1141POPC   C3A19217  43.841  39.823   7.871
 1141POPC   C4A19218  43.447  39.894   7.673
 1141POPC   C1B19219  43.864  40.368   8.817
 1141POPC   C2B19220  43.817  40.410   8.395
 1141POPC   C3B19221  43.627  40.259   8.018
 1141POPC   C4B19222  43.832  40.250   7.609
 1142POPC   NC319223  15.562  35.315   9.607
 1142POPC   PO419224  16.240  35.383   9.572
 1142POPC   GL119225  15.969  35.290   9.194
 1142POPC   GL219226  15.666  35.076   9.048
 1142POPC   C1A19227  15.838  35.530   8.840
 1142POPC   D2A19228  16.035  35.488   8.455
 1142POPC   C3A19229  15.940  35.291   8.061
 1142POPC   C4A19230  16.120  35.585   7.780
 1142POPC   C1B19231  15.656  35.147   8.569
 1142POPC   C2B19232  15.528  35.520   8.320
 1142POPC   C3B19233  15.619  35.685   7.903
 1142POPC   C4B19234  15.707  35.495   7.492
 1143POPC   NC319235  12.061  14.003   9.524
 1143POPC   PO419236  12.322  14.671   9.509
 1143POPC   GL119237  12.203  14.366   9.167
 1143POPC   GL219238  12.241  14.012   9.042
 1143POPC   C1A19239  12.272  14.458   8.732
 1143POPC   D2A19240  12.123  14.500   8.324
 1143POPC   C3A19241  12.233  14.155   8.077
 1143POPC   C4A19242  12.144  14.058   7.644
 1143POPC   C1B19243  11.852  14.184   8.795
 1143POPC   C2B19244  11.720  14.170   8.359
 1143POPC   C3B19245  11.696  14.381   7.979
 1143POPC   C4B19246  11.632  14.061   7.687
 1144POPC   NC319247   6.761  18.869   9.638
 1144POPC   PO419248   6.126  18.750   9.476
 1144POPC   GL119249   6.323  18.939   9.153
 1144POPC   GL219250   6.507  19.230   9.211
 1144POPC   C1A19251   6.230  19.090   8.765
 1144POPC   D2A19252   6.375  19.314   8.415
 1144POPC   C3A19253   6.597  19.061   8.168
 1144POPC   C4A19254   6.542  18.916   7.775
 1144POPC   C1B19255   6.751  19.122   8.826
 1144POPC   C2B19256   7.102  18.944   8.595
 1144POPC   C3B19257   7.079  18.893   8.142
 1144POPC   C4B19258   6.992  19.173   7.776
 1145POPC   NC319259  24.971  12.429   9.579
 1145POPC   PO419260  25.468  12.111   9.369
 1145POPC   GL119261  25.241  11.853   9.125
 1145POPC   GL219262  25.580  11.688   9.084
 1145POPC   C1A19263  25.030  12.059   8.767
 1145POPC   D2A19264  25.110  12.283   8.384
 1145POPC   C3A19265  25.244  12.076   8.010
 1145POPC   C4A19266  25.436  12.278   7.612
 1145POPC   C1B19267  25.536  11.923   8.706
 1145POPC   C2B19268  25.468  11.730   8.325
 1145POPC   C3B19269  25.598  11.668   7.924
 1145POPC   C4B19270  25.324  11.781   7.587
 1146POPC   NC319271  18.681  40.422   9.558
 1146POPC   PO419272  18.930  41.048   9.569
 1146POPC   GL119273  18.974  40.957   9.146
 1146POPC   GL219274  18.773  40.716   9.159
 1146POPC   C1A19275  18.944  40.854   8.702
 1146POPC   D2A19276  18.726  40.795   8.348
 1146POPC   C3A19277  18.982  40.998   8.058
 1146POPC   C4A19278  18.928  41.167   7.669
 1146POPC   C1B19279  19.082  40.447   8.945
 1146POPC   C2B19280  19.153  40.314   8.560
 1146POPC   C3B19281  19.080  40.475   8.173
 1146POPC   C4B19282  19.005  40.586   7.756
 1147POPC   NC319283   7.317  16.202   9.580
 1147POPC   PO419284   7.597  15.728   9.267
 1147POPC   GL119285   7.418  16.043   9.075
 1147POPC   GL219286   7.121  16.192   9.023
 1147POPC   C1A19287   7.549  16.227   8.722
 1147POPC   D2A19288   7.534  16.160   8.326
 1147POPC   C3A19289   7.303  15.941   8.057
 1147POPC   C4A19290   7.558  16.036   7.709
 1147POPC   C1B19291   7.126  15.932   8.634
 1147POPC   C2B19292   6.889  15.709   8.332
 1147POPC   C3B19293   6.982  15.576   7.910
 1147POPC   C4B19294   6.966  15.788   7.547
 1148POPC   NC319295  11.926  39.528   9.620
 1148POPC   PO419296  12.018  38.838   9.538
 1148POPC   GL119297  12.288  39.196   9.331
 1148POPC   GL219298  12.079  39.386   9.147
 1148POPC   C1A19299  12.464  39.208   8.893
 1148POPC   D2A19300  12.294  39.011   8.519
 1148POPC   C3A19301  12.124  39.316   8.251
 1148POPC   C4A19302  12.087  39.263   7.809
 1148POPC   C1B19303  11.952  39.042   8.911
 1148POPC   C2B19304  11.775  38.994   8.501
 1148POPC   C3B19305  11.778  38.930   8.092
 1148POPC   C4B19306  11.648  39.015   7.702
 1149POPC   NC319307  24.026  23.879   9.507
 1149POPC   PO419308  24.590  23.951   9.906
 1149POPC   GL119309  24.555  23.838   9.384
 1149POPC   GL219310  24.772  23.579   9.206
 1149POPC   C1A19311  24.550  23.943   8.874
 1149POPC   D2A19312  24.528  24.158   8.429
 1149POPC   C3A19313  24.436  24.025   7.988
 1149POPC   C4A19314  24.170  23.753   7.715
 1149POPC   C1B19315  24.665  23.473   8.730
 1149POPC   C2B19316  24.510  23.589   8.291
 1149POPC   C3B19317  24.523  23.388   7.857
 1149POPC   C4B19318  24.647  23.133   7.483
 1150POPC   NC319319  30.029   0.122   9.687
 1150POPC   PO419320  29.509  44.663   9.532
 1150POPC   GL119321  29.733  44.794   9.187
 1150POPC   GL219322  29.945  44.526   9.061
 1150POPC   C1A19323  29.860  44.941   8.784
 1150POPC   D2A19324  30.230  44.952   8.513
 1150POPC   C3A19325  30.088  44.979   8.088
 1150POPC   C4A19326  29.747   0.067   7.801
 1150POPC   C1B19327  30.299  44.537   8.815
 1150POPC   C2B19328  30.374  44.436   8.397
 1150POPC   C3B19329  30.282  44.500   7.974
 1150POPC   C4B19330  30.331  44.297   7.586
 1151POPC   NC319331  13.240   2.597   9.432
 1151POPC   PO419332  12.697   2.939   9.493
 1151POPC   GL119333  12.900   2.822   9.094
 1151POPC   GL219334  12.967   2.475   9.034
 1151POPC   C1A19335  13.191   2.810   8.722
 1151POPC   D2A19336  13.152   2.932   8.300
 1151POPC   C3A19337  12.912   2.733   7.979
 1151POPC   C4A19338  12.618   2.871   7.641
 1151POPC   C1B19339  13.286   2.305   8.755
 1151POPC   C2B19340  13.130   2.403   8.360
 1151POPC   C3B19341  13.211   2.319   7.959
 1151POPC   C4B19342  13.101   2.491   7.546
 1152POPC   NC319343  14.193  31.721   9.495
 1152POPC   PO419344  14.733  31.275   9.459
 1152POPC   GL119345  14.452  31.443   9.139
 1152POPC   GL219346  14.149  31.232   9.112
 1152POPC   C1A19347  14.462  31.348   8.697
 1152POPC   D2A19348  14.669  31.541   8.347
 1152POPC   C3A19349  14.507  31.514   7.917
 1152POPC   C4A19350  14.564  31.199   7.589
 1152POPC   C1B19351  14.018  31.581   8.840
 1152POPC   C2B19352  14.152  31.640   8.411
 1152POPC   C3B19353  14.015  31.615   7.981
 1152POPC   C4B19354  14.114  31.443   7.539
 1153POPC   NC319355   3.172   5.246   9.460
 1153POPC   PO419356   3.777   5.617   9.561
 1153POPC   GL119357   3.629   5.284   9.211
 1153POPC   GL219358   3.855   4.968   9.187
 1153POPC   C1A19359   3.383   5.058   8.844
 1153POPC   D2A19360   3.268   4.878   8.434
 1153POPC   C3A19361   3.364   5.079   8.059
 1153POPC   C4A19362   3.457   5.374   7.727
 1153POPC   C1B19363   3.886   5.101   8.799
 1153POPC   C2B19364   3.792   4.901   8.438
 1153POPC   C3B19365   3.669   4.654   8.109
 1153POPC   C4B19366   3.775   4.932   7.771
 1154POPC   NC319367   2.851  16.295   9.426
 1154POPC   PO419368   2.594  15.637   9.523
 1154POPC   GL119369   2.803  15.830   9.165
 1154POPC   GL219370   2.571  15.687   9.002
 1154POPC   C1A19371   3.045  16.016   8.799
 1154POPC   D2A19372   3.221  16.058   8.371
 1154POPC   C3A19373   2.890  16.261   8.114
 1154POPC   C4A19374   2.719  16.277   7.704
 1154POPC   C1B19375   2.697  15.671   8.584
 1154POPC   C2B19376   2.837  15.755   8.157
 1154POPC   C3B19377   2.788  15.753   7.714
 1154POPC   C4B19378   2.677  15.539   7.328
 1155POPC   NC319379  44.391  17.783   9.528
 1155POPC   PO419380  43.781  17.473   9.561
 1155POPC   GL119381  43.729  17.733   9.204
 1155POPC   GL219382  43.553  17.495   9.077
 1155POPC   C1A19383  43.976  17.716   8.778
 1155POPC   D2A19384  43.876  17.467   8.406
 1155POPC   C3A19385  43.758  17.747   8.064
 1155POPC   C4A19386  44.050  17.902   7.730
 1155POPC   C1B19387  43.498  17.669   8.678
 1155POPC   C2B19388  43.376  17.450   8.331
 1155POPC   C3B19389  43.461  17.287   7.947
 1155POPC   C4B19390  43.797  17.397   7.680
 1156POPC   NC319391  41.240  19.333   9.268
 1156POPC   PO419392  40.737  19.137   9.687
 1156POPC   GL119393  40.766  19.147   9.197
 1156POPC   GL219394  40.935  18.876   9.030
 1156POPC   C1A19395  40.652  19.177   8.713
 1156POPC   D2A19396  40.698  19.372   8.257
 1156POPC   C3A19397  40.460  19.204   7.899
 1156POPC   C4A19398  40.576  19.089   7.445
 1156POPC   C1B19399  41.190  19.009   8.681
 1156POPC   C2B19400  41.039  19.005   8.266
 1156POPC   C3B19401  40.860  18.898   7.871
 1156POPC   C4B19402  41.039  18.857   7.447
 1157POPC   NC319403   0.047  38.696   9.627
 1157POPC   PO419404  44.823  38.162   9.358
 1157POPC   GL119405  44.516  38.296   9.136
 1157POPC   GL219406  44.530  38.605   9.309
 1157POPC   C1A19407  44.606  38.256   8.729
 1157POPC   D2A19408  44.430  38.367   8.371
 1157POPC   C3A19409  44.729  38.277   8.097
 1157POPC   C4A19410  44.803  38.209   7.715
 1157POPC   C1B19411  44.738  38.722   8.937
 1157POPC   C2B19412  44.835  38.655   8.516
 1157POPC   C3B19413  44.694  38.765   8.109
 1157POPC   C4B19414  44.791  38.709   7.688
 1158POPC   NC319415  13.880  14.187   9.439
 1158POPC   PO419416  13.269  14.419   9.535
 1158POPC   GL119417  13.512  14.496   9.164
 1158POPC   GL219418  13.811  14.671   9.298
 1158POPC   C1A19419  13.506  14.410   8.696
 1158POPC   D2A19420  13.239  14.441   8.322
 1158POPC   C3A19421  13.357  14.268   7.911
 1158POPC   C4A19422  13.336  14.378   7.448
 1158POPC   C1B19423  13.901  14.722   8.873
 1158POPC   C2B19424  13.933  14.624   8.436
 1158POPC   C3B19425  13.825  14.307   8.140
 1158POPC   C4B19426  13.806  14.408   7.696
 1159POPC   NC319427  29.236  42.156   9.380
 1159POPC   PO419428  28.851  42.800   9.543
 1159POPC   GL119429  29.000  42.603   9.194
 1159POPC   GL219430  29.341  42.609   9.138
 1159POPC   C1A19431  28.866  42.450   8.791
 1159POPC   D2A19432  28.905  42.190   8.419
 1159POPC   C3A19433  28.854  42.365   7.995
 1159POPC   C4A19434  29.148  42.497   7.636
 1159POPC   C1B19435  29.391  42.300   8.775
 1159POPC   C2B19436  29.388  42.040   8.385
 1159POPC   C3B19437  29.275  42.081   7.966
 1159POPC   C4B19438  29.534  42.036   7.620
 1160POPC   NC319439  17.310  13.477   9.411
 1160POPC   PO419440  17.749  13.929   9.273
 1160POPC   GL119441  17.628  13.626   8.985
 1160POPC   GL219442  17.607  13.249   9.024
 1160POPC   C1A19443  17.543  13.699   8.581
 1160POPC   D2A19444  17.758  13.645   8.237
 1160POPC   C3A19445  17.598  13.905   7.922
 1160POPC   C4A19446  17.487  13.822   7.531
 1160POPC   C1B19447  17.225  13.344   8.760
 1160POPC   C2B19448  17.097  13.535   8.363
 1160POPC   C3B19449  17.274  13.541   7.974
 1160POPC   C4B19450  17.668  13.412   7.792
 1161POPC   NC319451  20.719  39.937   9.504
 1161POPC   PO419452  20.297  40.286   9.083
 1161POPC   GL119453  20.497  39.951   9.028
 1161POPC   GL219454  20.847  40.067   9.012
 1161POPC   C1A19455  20.553  39.882   8.621
 1161POPC   D2A19456  20.789  40.029   8.299
 1161POPC   C3A19457  20.489  40.084   7.997
 1161POPC   C4A19458  20.288  39.750   7.794
 1161POPC   C1B19459  20.806  40.402   8.656
 1161POPC   C2B19460  20.927  40.522   8.204
 1161POPC   C3B19461  20.957  40.195   7.836
 1161POPC   C4B19462  20.990  39.853   7.486
 1162POPC   NC319463  20.626  28.810   9.836
 1162POPC   PO419464  20.733  28.252   9.487
 1162POPC   GL119465  20.473  28.422   9.180
 1162POPC   GL219466  20.432  28.101   9.028
 1162POPC   C1A19467  20.489  28.569   8.747
 1162POPC   D2A19468  20.482  28.796   8.359
 1162POPC   C3A19469  20.666  28.547   8.059
 1162POPC   C4A19470  20.788  28.646   7.684
 1162POPC   C1B19471  20.846  28.220   8.859
 1162POPC   C2B19472  20.844  28.238   8.450
 1162POPC   C3B19473  20.649  27.989   8.130
 1162POPC   C4B19474  20.677  28.142   7.733
 1163POPC   NC319475  36.468  17.351   9.326
 1163POPC   PO419476  37.078  17.606   9.574
 1163POPC   GL119477  37.005  17.379   9.172
 1163POPC   GL219478  36.879  17.019   9.162
 1163POPC   C1A19479  36.861  17.474   8.742
 1163POPC   D2A19480  36.780  17.809   8.426
 1163POPC   C3A19481  37.029  17.838   8.029
 1163POPC   C4A19482  36.993  17.580   7.647
 1163POPC   C1B19483  36.597  17.033   8.786
 1163POPC   C2B19484  36.473  17.317   8.448
 1163POPC   C3B19485  36.667  17.445   8.070
 1163POPC   C4B19486  36.587  17.223   7.696
 1164POPC   NC319487   2.105  38.812   9.333
 1164POPC   PO419488   1.794  39.358   9.551
 1164POPC   GL119489   1.794  39.516   9.146
 1164POPC   GL219490   2.013  39.222   9.026
 1164POPC   C1A19491   1.912  39.615   8.727
 1164POPC   D2A19492   2.167  39.488   8.394
 1164POPC   C3A19493   2.034  39.390   7.986
 1164POPC   C4A19494   2.109  39.255   7.545
 1164POPC   C1B19495   1.818  38.874   8.747
 1164POPC   C2B19496   1.695  38.852   8.327
 1164POPC   C3B19497   1.781  38.944   7.892
 1164POPC   C4B19498   1.398  38.874   7.668
 1165POPC   NC319499   5.463   8.684   9.215
 1165POPC   PO419500   5.276   9.305   9.496
 1165POPC   GL119501   5.308   9.164   9.103
 1165POPC   GL219502   5.052   8.954   9.084
 1165POPC   C1A19503   5.308   9.126   8.666
 1165POPC   D2A19504   5.553   9.042   8.307
 1165POPC   C3A19505   5.305   9.155   8.025
 1165POPC   C4A19506   5.323   8.825   7.724
 1165POPC   C1B19507   4.948   8.759   8.727
 1165POPC   C2B19508   5.116   8.759   8.332
 1165POPC   C3B19509   4.889   8.865   7.979
 1165POPC   C4B19510   4.839   8.638   7.644
 1166POPC   NC319511  25.528  13.244   9.421
 1166POPC   PO419512  25.147  13.782   9.476
 1166POPC   GL119513  25.172  13.499   9.162
 1166POPC   GL219514  24.838  13.372   9.146
 1166POPC   C1A19515  25.386  13.513   8.772
 1166POPC   D2A19516  25.315  13.787   8.422
 1166POPC   C3A19517  25.455  13.550   8.087
 1166POPC   C4A19518  25.246  13.608   7.737
 1166POPC   C1B19519  24.912  13.667   8.770
 1166POPC   C2B19520  24.776  13.817   8.403
 1166POPC   C3B19521  24.831  13.596   8.052
 1166POPC   C4B19522  24.736  13.574   7.655
 1167POPC   NC319523  31.861  40.476   9.559
 1167POPC   PO419524  31.311  40.901   9.521
 1167POPC   GL119525  31.494  40.914   9.128
 1167POPC   GL219526  31.649  40.600   9.104
 1167POPC   C1A19527  31.434  40.891   8.692
 1167POPC   D2A19528  31.606  40.834   8.263
 1167POPC   C3A19529  31.348  40.962   7.920
 1167POPC   C4A19530  31.068  40.740   7.614
 1167POPC   C1B19531  31.276  40.445   8.911
 1167POPC   C2B19532  31.390  40.416   8.499
 1167POPC   C3B19533  31.262  40.449   8.098
 1167POPC   C4B19534  31.477  40.485   7.777
 1168POPC   NC319535  31.478  31.177   9.418
 1168POPC   PO419536  31.232  31.801   9.540
 1168POPC   GL119537  31.380  31.651   9.185
 1168POPC   GL219538  31.724  31.631   9.308
 1168POPC   C1A19539  31.330  31.445   8.790
 1168POPC   D2A19540  31.593  31.376   8.448
 1168POPC   C3A19541  31.430  31.266   8.079
 1168POPC   C4A19542  31.234  31.524   7.807
 1168POPC   C1B19543  31.820  31.576   8.888
 1168POPC   C2B19544  31.869  31.797   8.512
 1168POPC   C3B19545  31.665  31.799   8.142
 1168POPC   C4B19546  31.742  31.625   7.772
 1169POPC   NC319547   1.933  16.688   9.686
 1169POPC   PO419548   2.483  16.581   9.442
 1169POPC   GL119549   2.217  16.632   9.078
 1169POPC   GL219550   1.896  16.510   9.162
 1169POPC   C1A19551   1.987  16.829   8.709
 1169POPC   D2A19552   1.820  16.904   8.278
 1169POPC   C3A19553   2.047  16.863   7.873
 1169POPC   C4A19554   1.721  16.794   7.593
 1169POPC   C1B19555   2.004  16.292   8.785
 1169POPC   C2B19556   2.250  16.469   8.455
 1169POPC   C3B19557   2.042  16.416   8.105
 1169POPC   C4B19558   2.008  16.368   7.688
 1170POPC   NC319559  17.573  26.787   9.537
 1170POPC   PO419560  17.036  26.859   9.138
 1170POPC   GL119561  17.477  26.826   9.018
 1170POPC   GL219562  17.740  26.613   9.082
 1170POPC   C1A19563  17.729  26.918   8.654
 1170POPC   D2A19564  17.479  26.816   8.282
 1170POPC   C3A19565  17.430  27.123   7.936
 1170POPC   C4A19566  17.862  27.104   7.719
 1170POPC   C1B19567  17.566  26.407   8.712
 1170POPC   C2B19568  17.775  26.282   8.341
 1170POPC   C3B19569  17.916  26.602   8.051
 1170POPC   C4B19570  17.580  26.666   7.796
 1171POPC   NC319571   5.850  14.174   9.459
 1171POPC   PO419572   5.465  14.719   9.295
 1171POPC   GL119573   5.683  14.410   9.029
 1171POPC   GL219574   5.620  14.034   9.021
 1171POPC   C1A19575   6.089  14.407   8.810
 1171POPC   D2A19576   6.086  14.645   8.432
 1171POPC   C3A19577   5.820  14.503   8.115
 1171POPC   C4A19578   5.849  14.549   7.680
 1171POPC   C1B19579   5.703  14.165   8.567
 1171POPC   C2B19580   6.113  14.130   8.328
 1171POPC   C3B19581   6.164  14.164   7.885
 1171POPC   C4B19582   5.746  14.071   7.836
 1172POPC   NC319583  12.274  34.883   9.489
 1172POPC   PO419584  11.805  34.328   9.593
 1172POPC   GL119585  12.001  34.506   9.275
 1172POPC   GL219586  11.820  34.770   9.190
 1172POPC   C1A19587  12.024  34.398   8.871
 1172POPC   D2A19588  12.011  34.518   8.454
 1172POPC   C3A19589  12.156  34.268   8.122
 1172POPC   C4A19590  12.343  34.342   7.723
 1172POPC   C1B19591  11.921  34.897   8.799
 1172POPC   C2B19592  12.146  35.037   8.453
 1172POPC   C3B19593  12.037  34.852   8.071
 1172POPC   C4B19594  11.961  34.702   7.692
 1173POPC   NC319595  21.329  11.481   9.519
 1173POPC   PO419596  21.081  10.863   9.443
 1173POPC   GL119597  21.334  11.112   9.150
 1173POPC   GL219598  21.052  11.291   9.083
 1173POPC   C1A19599  21.593  11.362   8.845
 1173POPC   D2A19600  21.647  11.279   8.441
 1173POPC   C3A19601  21.790  11.505   8.114
 1173POPC   C4A19602  21.620  11.258   7.764
 1173POPC   C1B19603  21.142  11.291   8.655
 1173POPC   C2B19604  21.273  11.639   8.367
 1173POPC   C3B19605  21.292  11.606   7.935
 1173POPC   C4B19606  21.073  11.229   7.831
 1174POPC   NC319607  34.773  20.379   9.444
 1174POPC   PO419608  35.176  20.878   9.700
 1174POPC   GL119609  35.185  20.737   9.180
 1174POPC   GL219610  35.032  20.465   8.960
 1174POPC   C1A19611  35.450  20.634   8.742
 1174POPC   D2A19612  35.675  20.738   8.323
 1174POPC   C3A19613  35.661  20.514   7.916
 1174POPC   C4A19614  35.413  20.435   7.532
 1174POPC   C1B19615  34.946  20.763   8.675
 1174POPC   C2B19616  35.034  20.576   8.314
 1174POPC   C3B19617  35.174  20.665   7.932
 1174POPC   C4B19618  34.982  20.920   7.674
 1175POPC   NC319619  38.290  41.396   9.601
 1175POPC   PO419620  38.931  41.271   9.564
 1175POPC   GL119621  38.690  41.455   9.216
 1175POPC   GL219622  38.504  41.203   9.158
 1175POPC   C1A19623  38.566  41.713   8.851
 1175POPC   D2A19624  38.762  41.762   8.429
 1175POPC   C3A19625  38.574  41.544   8.070
 1175POPC   C4A19626  38.561  41.801   7.723
 1175POPC   C1B19627  38.624  41.215   8.739
 1175POPC   C2B19628  38.351  41.214   8.412
 1175POPC   C3B19629  38.027  41.377   8.121
 1175POPC   C4B19630  38.190  41.446   7.711
 1176POPC   NC319631  37.139  14.688   9.569
 1176POPC   PO419632  36.616  14.343   9.677
 1176POPC   GL119633  36.804  14.469   9.243
 1176POPC   GL219634  37.100  14.327   9.156
 1176POPC   C1A19635  36.911  14.668   8.826
 1176POPC   D2A19636  36.930  14.486   8.406
 1176POPC   C3A19637  36.918  14.663   7.992
 1176POPC   C4A19638  36.759  14.486   7.602
 1176POPC   C1B19639  37.296  14.250   8.757
 1176POPC   C2B19640  37.415  14.137   8.312
 1176POPC   C3B19641  37.304  14.296   7.880
 1176POPC   C4B19642  37.172  14.229   7.425
 1177POPC   NC319643   2.624   8.004   9.521
 1177POPC   PO419644   3.223   8.246   9.720
 1177POPC   GL119645   2.924   8.305   9.276
 1177POPC   GL219646   2.870   8.011   9.045
 1177POPC   C1A19647   2.757   8.468   8.895
 1177POPC   D2A19648   2.729   8.159   8.553
 1177POPC   C3A19649   2.785   8.247   8.127
 1177POPC   C4A19650   2.606   8.389   7.758
 1177POPC   C1B19651   2.523   7.793   8.845
 1177POPC   C2B19652   2.481   7.673   8.386
 1177POPC   C3B19653   2.541   7.836   7.913
 1177POPC   C4B19654   2.502   7.995   7.464
 1178POPC   NC319655   5.397  16.109   9.281
 1178POPC   PO419656   5.911  15.788   9.507
 1178POPC   GL119657   6.028  15.932   9.099
 1178POPC   GL219658   5.905  16.250   9.162
 1178POPC   C1A19659   5.939  15.767   8.687
 1178POPC   D2A19660   5.583  15.692   8.409
 1178POPC   C3A19661   5.735  15.610   7.982
 1178POPC   C4A19662   5.757  15.669   7.511
 1178POPC   C1B19663   5.711  16.254   8.742
 1178POPC   C2B19664   5.846  16.178   8.349
 1178POPC   C3B19665   5.819  16.146   7.944
 1178POPC   C4B19666   6.067  16.054   7.653
 1179POPC   NC319667  26.186  43.635   9.478
 1179POPC   PO419668  25.632  43.990   9.364
 1179POPC   GL119669  25.954  44.085   9.129
 1179POPC   GL219670  25.981  43.743   9.020
 1179POPC   C1A19671  25.788  44.135   8.719
 1179POPC   D2A19672  25.969  44.143   8.350
 1179POPC   C3A19673  25.835  43.823   8.098
 1179POPC   C4A19674  25.892  44.012   7.745
 1179POPC   C1B19675  26.256  43.884   8.688
 1179POPC   C2B19676  26.376  43.789   8.266
 1179POPC   C3B19677  26.377  43.923   7.841
 1179POPC   C4B19678  26.254  43.783   7.414
 1180POPC   NC319679  35.147  35.549   9.501
 1180POPC   PO419680  35.748  35.389   9.439
 1180POPC   GL119681  35.493  35.467   9.095
 1180POPC   GL219682  35.311  35.777   9.015
 1180POPC   C1A19683  35.354  35.344   8.709
 1180POPC   D2A19684  35.514  35.063   8.435
 1180POPC   C3A19685  35.423  35.109   8.030
 1180POPC   C4A19686  35.087  35.159   7.758
 1180POPC   C1B19687  35.608  35.798   8.671
 1180POPC   C2B19688  35.608  35.578   8.264
 1180POPC   C3B19689  35.448  35.581   7.824
 1180POPC   C4B19690  35.768  35.619   7.490
 1181POPC   NC319691  13.401  42.013   9.516
 1181POPC   PO419692  13.318  42.680   9.472
 1181POPC   GL119693  13.534  42.601   9.113
 1181POPC   GL219694  13.752  42.316   9.200
 1181POPC   C1A19695  13.803  42.597   8.744
 1181POPC   D2A19696  13.787  42.296   8.398
 1181POPC   C3A19697  13.422  42.441   8.173
 1181POPC   C4A19698  13.361  42.637   7.774
 1181POPC   C1B19699  13.449  42.163   8.874
 1181POPC   C2B19700  13.335  42.028   8.490
 1181POPC   C3B19701  13.492  41.916   8.122
 1181POPC   C4B19702  13.236  42.140   7.796
 1182POPC   NC319703  23.333  10.440   9.547
 1182POPC   PO419704  22.767  10.854   9.543
 1182POPC   GL119705  22.769  10.582   9.168
 1182POPC   GL219706  22.504  10.342   9.080
 1182POPC   C1A19707  22.943  10.441   8.782
 1182POPC   D2A19708  23.250  10.505   8.457
 1182POPC   C3A19709  23.074  10.547   8.045
 1182POPC   C4A19710  23.124  10.289   7.679
 1182POPC   C1B19711  22.453  10.228   8.650
 1182POPC   C2B19712  22.526  10.044   8.237
 1182POPC   C3B19713  22.617  10.290   7.863
 1182POPC   C4B19714  22.762  10.651   7.625
 1183POPC   NC319715  15.886  39.389   9.627
 1183POPC   PO419716  16.107  38.768   9.543
 1183POPC   GL119717  16.096  39.168   9.210
 1183POPC   GL219718  15.805  39.453   9.129
 1183POPC   C1A19719  16.060  39.251   8.747
 1183POPC   D2A19720  15.760  39.165   8.423
 1183POPC   C3A19721  16.017  39.127   8.074
 1183POPC   C4A19722  16.065  39.348   7.729
 1183POPC   C1B19723  15.604  39.602   8.720
 1183POPC   C2B19724  15.626  39.662   8.259
 1183POPC   C3B19725  15.567  39.334   7.937
 1183POPC   C4B19726  15.579  38.893   7.793
 1184POPC   NC319727   5.122   7.624   9.406
 1184POPC   PO419728   5.288   8.309   9.408
 1184POPC   GL119729   5.083   8.363   9.060
 1184POPC   GL219730   4.880   8.103   9.121
 1184POPC   C1A19731   5.259   8.328   8.668
 1184POPC   D2A19732   5.470   8.290   8.281
 1184POPC   C3A19733   5.166   8.377   7.968
 1184POPC   C4A19734   5.236   8.323   7.543
 1184POPC   C1B19735   4.889   7.941   8.742
 1184POPC   C2B19736   4.929   8.096   8.358
 1184POPC   C3B19737   4.830   7.969   8.005
 1184POPC   C4B19738   4.761   8.100   7.626
 1185POPC   NC319739  20.041   1.832   9.373
 1185POPC   PO419740  19.566   2.267   9.467
 1185POPC   GL119741  19.864   2.260   9.155
 1185POPC   GL219742  19.677   1.988   9.016
 1185POPC   C1A19743  19.998   2.277   8.752
 1185POPC   D2A19744  19.658   2.244   8.480
 1185POPC   C3A19745  19.730   2.229   8.066
 1185POPC   C4A19746  19.453   2.053   7.799
 1185POPC   C1B19747  19.799   1.784   8.647
 1185POPC   C2B19748  19.668   1.749   8.240
 1185POPC   C3B19749  19.841   1.692   7.870
 1185POPC   C4B19750  20.070   1.672   7.478
 1186POPC   NC319751  18.743  41.451   9.492
 1186POPC   PO419752  19.387  41.606   9.464
 1186POPC   GL119753  19.140  41.522   9.083
 1186POPC   GL219754  18.817  41.405   8.988
 1186POPC   C1A19755  19.124  41.728   8.690
 1186POPC   D2A19756  19.126  41.876   8.266
 1186POPC   C3A19757  18.928  41.615   7.955
 1186POPC   C4A19758  18.936  41.652   7.490
 1186POPC   C1B19759  18.841  41.323   8.542
 1186POPC   C2B19760  19.220  41.359   8.317
 1186POPC   C3B19761  19.383  41.324   7.910
 1186POPC   C4B19762  19.361  41.391   7.484
 1187POPC   NC319763  15.762  32.746   9.193
 1187POPC   PO419764  15.978  32.417   9.797
 1187POPC   GL119765  15.997  32.280   9.269
 1187POPC   GL219766  16.330  32.235   9.080
 1187POPC   C1A19767  15.946  32.095   8.798
 1187POPC   D2A19768  16.069  31.874   8.387
 1187POPC   C3A19769  16.027  32.126   8.034
 1187POPC   C4A19770  15.699  32.330   7.825
 1187POPC   C1B19771  16.251  32.544   8.690
 1187POPC   C2B19772  16.328  32.793   8.290
 1187POPC   C3B19773  16.368  32.590   7.905
 1187POPC   C4B19774  16.145  32.558   7.509
 1188POPC   NC319775  30.294  11.353   9.646
 1188POPC   PO419776  29.565  11.357   9.601
 1188POPC   GL119777  29.591  11.219   9.186
 1188POPC   GL219778  29.881  10.977   9.227
 1188POPC   C1A19779  29.585  11.310   8.751
 1188POPC   D2A19780  29.842  11.369   8.373
 1188POPC   C3A19781  29.769  11.201   7.951
 1188POPC   C4A19782  29.542  11.467   7.647
 1188POPC   C1B19783  30.073  11.146   8.825
 1188POPC   C2B19784  30.240  11.059   8.413
 1188POPC   C3B19785  30.303  11.168   7.988
 1188POPC   C4B19786  30.142  11.139   7.567
 1189POPC   NC319787  41.038  33.133   9.441
 1189POPC   PO419788  40.589  32.623   9.434
 1189POPC   GL119789  40.789  32.808   9.114
 1189POPC   GL219790  40.594  33.094   9.057
 1189POPC   C1A19791  40.961  32.731   8.737
 1189POPC   D2A19792  41.035  33.010   8.421
 1189POPC   C3A19793  40.928  32.947   7.989
 1189POPC   C4A19794  41.007  33.171   7.610
 1189POPC   C1B19795  40.534  32.989   8.596
 1189POPC   C2B19796  40.506  33.252   8.199
 1189POPC   C3B19797  40.501  33.292   7.723
 1189POPC   C4B19798  40.479  33.354   7.265
 1190POPC   NC319799  29.208  19.938   9.655
 1190POPC   PO419800  29.661  20.485   9.555
 1190POPC   GL119801  29.391  20.535   9.174
 1190POPC   GL219802  29.064  20.729   9.164
 1190POPC   C1A19803  29.357  20.645   8.730
 1190POPC   D2A19804  29.406  20.904   8.352
 1190POPC   C3A19805  29.381  20.613   8.047
 1190POPC   C4A19806  29.238  20.441   7.682
 1190POPC   C1B19807  28.870  20.831   8.772
 1190POPC   C2B19808  28.923  20.721   8.338
 1190POPC   C3B19809  28.816  20.621   7.918
 1190POPC   C4B19810  28.833  20.739   7.495
 1191POPC   NC319811  23.025  11.263   9.505
 1191POPC   PO419812  22.492  11.758   9.403
 1191POPC   GL119813  22.678  11.451   9.175
 1191POPC   GL219814  22.679  11.111   9.129
 1191POPC   C1A19815  23.007  11.434   8.867
 1191POPC   D2A19816  23.000  11.559   8.463
 1191POPC   C3A19817  23.149  11.451   8.116
 1191POPC   C4A19818  22.910  11.475   7.779
 1191POPC   C1B19819  22.960  10.948   8.786
 1191POPC   C2B19820  23.116  10.998   8.365
 1191POPC   C3B19821  22.928  11.011   7.954
 1191POPC   C4B19822  23.029  11.060   7.482
 1192POPC   NC319823  11.271  14.033   9.471
 1192POPC   PO419824  11.550  13.432   9.259
 1192POPC   GL119825  11.518  13.801   9.085
 1192POPC   GL219826  11.168  13.711   9.045
 1192POPC   C1A19827  11.455  13.854   8.662
 1192POPC   D2A19828  11.260  13.661   8.299
 1192POPC   C3A19829  11.462  13.605   7.945
 1192POPC   C4A19830  11.302  13.685   7.568
 1192POPC   C1B19831  11.238  13.368   8.709
 1192POPC   C2B19832  11.005  13.241   8.328
 1192POPC   C3B19833  11.062  13.299   7.896
 1192POPC   C4B19834  11.009  13.284   7.456
 1193POPC   NC319835  10.122  14.398   9.640
 1193POPC   PO419836   9.493  14.539   9.469
 1193POPC   GL119837   9.840  14.501   9.220
 1193POPC   GL219838   9.707  14.178   9.114
 1193POPC   C1A19839   9.856  14.595   8.802
 1193POPC   D2A19840   9.791  14.316   8.436
 1193POPC   C3A19841   9.699  14.495   8.044
 1193POPC   C4A19842  10.036  14.493   7.746
 1193POPC   C1B19843   9.414  14.147   8.736
 1193POPC   C2B19844   9.299  14.123   8.275
 1193POPC   C3B19845   9.372  14.168   7.835
 1193POPC   C4B19846   9.384  13.881   7.531
 1194POPC   NC319847   3.815  32.096   9.756
 1194POPC   PO419848   3.482  32.435   9.302
 1194POPC   GL119849   3.512  31.998   9.145
 1194POPC   GL219850   3.867  31.953   9.222
 1194POPC   C1A19851   3.465  31.980   8.673
 1194POPC   D2A19852   3.416  32.300   8.332
 1194POPC   C3A19853   3.354  32.157   7.914
 1194POPC   C4A19854   3.191  32.286   7.536
 1194POPC   C1B19855   4.043  32.021   8.814
 1194POPC   C2B19856   3.912  32.120   8.416
 1194POPC   C3B19857   4.023  31.982   8.042
 1194POPC   C4B19858   3.812  31.929   7.686
 1195POPC   NC319859  11.718  22.985   9.592
 1195POPC   PO419860  11.088  22.649   9.577
 1195POPC   GL119861  11.131  22.810   9.185
 1195POPC   GL219862  11.426  22.925   9.193
 1195POPC   C1A19863  11.093  22.979   8.778
 1195POPC   D2A19864  11.243  23.208   8.454
 1195POPC   C3A19865  11.293  22.949   8.094
 1195POPC   C4A19866  10.993  22.842   7.799
 1195POPC   C1B19867  11.581  22.620   8.920
 1195POPC   C2B19868  11.521  22.448   8.509
 1195POPC   C3B19869  11.700  22.534   8.126
 1195POPC   C4B19870  11.546  22.636   7.752
 1196POPC   NC319871  38.431  37.416   9.725
 1196POPC   PO419872  38.839  37.662   9.271
 1196POPC   GL119873  38.397  37.630   9.159
 1196POPC   GL219874  38.548  37.454   8.913
 1196POPC   C1A19875  38.179  37.796   8.760
 1196POPC   D2A19876  38.353  37.883   8.333
 1196POPC   C3A19877  38.186  37.722   7.936
 1196POPC   C4A19878  38.227  37.827   7.474
 1196POPC   C1B19879  38.912  37.339   8.678
 1196POPC   C2B19880  38.908  37.395   8.258
 1196POPC   C3B19881  38.712  37.665   8.020
 1196POPC   C4B19882  38.629  37.568   7.626
 1197POPC   NC319883   5.116  19.280   9.511
 1197POPC   PO419884   5.391  18.766   9.502
 1197POPC   GL119885   5.272  18.969   9.136
 1197POPC   GL219886   4.946  18.874   9.197
 1197POPC   C1A19887   5.152  19.113   8.749
 1197POPC   D2A19888   5.288  18.918   8.378
 1197POPC   C3A19889   5.149  19.105   8.035
 1197POPC   C4A19890   5.236  19.243   7.636
 1197POPC   C1B19891   4.722  18.855   8.842
 1197POPC   C2B19892   4.748  18.970   8.433
 1197POPC   C3B19893   4.661  18.944   8.021
 1197POPC   C4B19894   4.884  18.875   7.647
 1198POPC   NC319895  43.852  31.683   9.583
 1198POPC   PO419896  43.498  31.072   9.517
 1198POPC   GL119897  43.691  31.360   9.202
 1198POPC   GL219898  43.766  31.729   9.093
 1198POPC   C1A19899  43.531  31.408   8.782
 1198POPC   D2A19900  43.359  31.274   8.404
 1198POPC   C3A19901  43.687  31.378   8.153
 1198POPC   C4A19902  43.873  31.151   7.837
 1198POPC   C1B19903  44.065  31.452   8.872
 1198POPC   C2B19904  44.094  31.312   8.461
 1198POPC   C3B19905  44.192  31.498   8.083
 1198POPC   C4B19906  44.285  31.408   7.673
 1199POPC   NC319907  16.227   6.302   9.584
 1199POPC   PO419908  15.731   6.859   9.612
 1199POPC   GL119909  15.887   6.671   9.213
 1199POPC   GL219910  16.078   6.931   9.066
 1199POPC   C1A19911  15.906   6.569   8.740
 1199POPC   D2A19912  15.627   6.656   8.354
 1199POPC   C3A19913  15.796   6.791   7.949
 1199POPC   C4A19914  16.008   6.443   7.785
 1199POPC   C1B19915  16.263   6.971   8.715
 1199POPC   C2B19916  16.137   6.814   8.333
 1199POPC   C3B19917  16.323   6.840   7.937
 1199POPC   C4B19918  16.145   7.155   7.737
 1200POPC   NC319919  41.045  31.288   9.310
 1200POPC   PO419920  40.915  31.861   9.643
 1200POPC   GL119921  40.665  31.622   9.144
 1200POPC   GL219922  40.727  31.263   8.950
 1200POPC   C1A19923  40.794  31.674   8.658
 1200POPC   D2A19924  41.052  31.498   8.308
 1200POPC   C3A19925  40.884  31.634   7.921
 1200POPC   C4A19926  40.497  31.595   7.695
 1200POPC   C1B19927  41.086  31.134   8.682
 1200POPC   C2B19928  41.155  30.991   8.272
 1200POPC   C3B19929  40.842  31.021   7.985
 1200POPC   C4B19930  40.964  31.198   7.636
 1201POPC   NC319931   4.344   0.926   9.746
 1201POPC   PO419932   3.800   1.333   9.590
 1201POPC   GL119933   4.111   1.189   9.256
 1201POPC   GL219934   4.362   0.895   9.245
 1201POPC   C1A19935   4.123   1.046   8.818
 1201POPC   D2A19936   4.068   1.278   8.453
 1201POPC   C3A19937   4.125   1.075   8.069
 1201POPC   C4A19938   4.171   1.288   7.693
 1201POPC   C1B19939   4.585   0.826   8.867
 1201POPC   C2B19940   4.519   0.973   8.444
 1201POPC   C3B19941   4.525   0.755   8.062
 1201POPC   C4B19942   4.480   0.852   7.636
 1202POPC   NC319943  36.183  19.573   9.478
 1202POPC   PO419944  35.971  20.216   9.496
 1202POPC   GL119945  36.163  19.986   9.145
 1202POPC   GL219946  35.840  19.794   9.166
 1202POPC   C1A19947  36.445  19.784   8.812
 1202POPC   D2A19948  36.347  19.612   8.407
 1202POPC   C3A19949  36.265  19.908   8.083
 1202POPC   C4A19950  36.252  19.954   7.670
 1202POPC   C1B19951  35.960  19.715   8.744
 1202POPC   C2B19952  35.819  19.851   8.339
 1202POPC   C3B19953  35.770  19.983   7.903
 1202POPC   C4B19954  35.825  19.779   7.466
 1203POPC   NC319955  16.364  32.251   9.611
 1203POPC   PO419956  16.929  32.108   9.831
 1203POPC   GL119957  16.876  32.202   9.341
 1203POPC   GL219958  16.691  32.527   9.269
 1203POPC   C1A19959  16.775  32.001   8.920
 1203POPC   D2A19960  16.489  32.093   8.572
 1203POPC   C3A19961  16.573  32.100   8.111
 1203POPC   C4A19962  16.409  32.114   7.694
 1203POPC   C1B19963  16.745  32.502   8.817
 1203POPC   C2B19964  16.751  32.524   8.367
 1203POPC   C3B19965  16.896  32.518   7.934
 1203POPC   C4B19966  16.691  32.494   7.513
 1204POPC   NC319967  31.662  11.242   9.438
 1204POPC   PO419968  31.041  11.426   9.516
 1204POPC   GL119969  31.255  11.459   9.166
 1204POPC   GL219970  31.451  11.704   9.138
 1204POPC   C1A19971  31.179  11.364   8.753
 1204POPC   D2A19972  31.092  11.640   8.416
 1204POPC   C3A19973  31.283  11.544   8.039
 1204POPC   C4A19974  31.032  11.596   7.685
 1204POPC   C1B19975  31.656  11.539   8.815
 1204POPC   C2B19976  31.617  11.388   8.420
 1204POPC   C3B19977  31.914  11.371   8.114
 1204POPC   C4B19978  31.789  11.482   7.734
 1205POPC   NC319979   8.226  19.208   9.541
 1205POPC   PO419980   7.595  19.101   9.479
 1205POPC   GL119981   7.901  18.950   9.163
 1205POPC   GL219982   8.303  18.925   9.137
 1205POPC   C1A19983   8.001  19.113   8.763
 1205POPC   D2A19984   8.156  18.965   8.387
 1205POPC   C3A19985   8.042  19.166   8.039
 1205POPC   C4A19986   8.078  19.298   7.666
 1205POPC   C1B19987   8.536  19.051   8.752
 1205POPC   C2B19988   8.527  19.319   8.361
 1205POPC   C3B19989   8.541  19.233   7.911
 1205POPC   C4B19990   8.569  19.133   7.454
 1206POPC   NC319991  27.097  32.766   9.262
 1206POPC   PO419992  27.013  33.303   9.676
 1206POPC   GL119993  26.767  33.157   9.186
 1206POPC   GL219994  26.591  32.833   9.095
 1206POPC   C1A19995  26.914  33.005   8.684
 1206POPC   D2A19996  26.800  32.785   8.306
 1206POPC   C3A19997  26.952  32.917   7.875
 1206POPC   C4A19998  26.802  33.343   7.884
 1206POPC   C1B19999  26.432  32.903   8.673
 1206POPC   C2B20000  26.446  33.143   8.278
 1206POPC   C3B20001  26.437  32.919   7.868
 1206POPC   C4B20002  26.596  33.085   7.500
 1207POPC   NC320003   7.006  41.572   9.477
 1207POPC   PO420004   7.700  41.757   9.614
 1207POPC   GL120005   7.696  41.585   9.204
 1207POPC   GL220006   7.358  41.573   9.115
 1207POPC   C1A20007   7.713  41.556   8.763
 1207POPC   D2A20008   7.690  41.256   8.457
 1207POPC   C3A20009   7.547  41.343   8.048
 1207POPC   C4A20010   7.522  41.547   7.655
 1207POPC   C1B20011   7.286  41.821   8.724
 1207POPC   C2B20012   7.325  41.688   8.332
 1207POPC   C3B20013   7.127  41.711   7.942
 1207POPC   C4B20014   7.062  41.739   7.499
 1208POPC   NC320015  44.880   6.518   9.605
 1208POPC   PO420016  44.310   6.828   9.578
 1208POPC   GL120017  44.549   6.619   9.236
 1208POPC   GL220018  44.857   6.837   9.197
 1208POPC   C1A20019  44.432   6.483   8.811
 1208POPC   D2A20020  44.616   6.610   8.407
 1208POPC   C3A20021  44.397   6.479   8.066
 1208POPC   C4A20022  44.276   6.597   7.673
 1208POPC   C1B20023  44.949   6.559   8.857
 1208POPC   C2B20024   0.095   6.405   8.479
 1208POPC   C3B20025   0.002   6.418   8.066
 1208POPC   C4B20026  44.783   6.579   7.717
 1209POPC   NC320027  38.070  40.508   9.316
 1209POPC   PO420028  37.399  40.684   9.395
 1209POPC   GL120029  37.682  40.887   9.105
 1209POPC   GL220030  38.007  41.024   9.297
 1209POPC   C1A20031  37.532  40.709   8.697
 1209POPC   D2A20032  37.302  40.372   8.472
 1209POPC   C3A20033  37.358  40.500   8.057
 1209POPC   C4A20034  37.596  40.629   7.699
 1209POPC   C1B20035  38.116  41.039   8.861
 1209POPC   C2B20036  37.869  41.036   8.476
 1209POPC   C3B20037  37.706  40.954   8.076
 1209POPC   C4B20038  37.916  41.008   7.668
 1210POPC   NC320039  29.965  32.737   9.521
 1210POPC   PO420040  29.457  33.236   9.491
 1210POPC   GL120041  29.667  32.960   9.207
 1210POPC   GL220042  29.996  33.166   9.212
 1210POPC   C1A20043  29.956  32.796   8.859
 1210POPC   D2A20044  29.861  32.612   8.476
 1210POPC   C3A20045  29.957  32.759   8.102
 1210POPC   C4A20046  29.983  32.958   7.721
 1210POPC   C1B20047  29.729  33.286   8.847
 1210POPC   C2B20048  29.761  33.132   8.446
 1210POPC   C3B20049  29.994  33.270   8.146
 1210POPC   C4B20050  29.944  33.443   7.782
 1211POPC   NC320051  38.891  29.586   9.496
 1211POPC   PO420052  39.512  29.740   9.763
 1211POPC   GL120053  39.380  29.804   9.319
 1211POPC   GL220054  39.102  30.024   9.275
 1211POPC   C1A20055  39.293  29.718   8.873
 1211POPC   D2A20056  39.499  29.680   8.494
 1211POPC   C3A20057  39.239  29.680   8.138
 1211POPC   C4A20058  39.325  29.859   7.746
 1211POPC   C1B20059  39.188  30.222   8.893
 1211POPC   C2B20060  39.208  30.123   8.455
 1211POPC   C3B20061  39.147  30.227   8.032
 1211POPC   C4B20062  38.985  30.254   7.596
 1212POPC   NC320063  34.109  21.435   9.819
 1212POPC   PO420064  33.710  21.014   9.450
 1212POPC   GL120065  33.705  21.319   9.093
 1212POPC   GL220066  33.451  21.601   9.118
 1212POPC   C1A20067  33.999  21.434   8.736
 1212POPC   D2A20068  34.150  21.191   8.385
 1212POPC   C3A20069  34.129  21.359   7.945
 1212POPC   C4A20070  33.909  21.528   7.555
 1212POPC   C1B20071  33.498  21.518   8.677
 1212POPC   C2B20072  33.710  21.491   8.305
 1212POPC   C3B20073  33.582  21.624   7.923
 1212POPC   C4B20074  33.347  21.505   7.560
 1213POPC   NC320075  28.812  36.148   9.657
 1213POPC   PO420076  28.177  36.393   9.803
 1213POPC   GL120077  28.211  36.208   9.352
 1213POPC   GL220078  28.513  36.312   9.201
 1213POPC   C1A20079  28.160  36.060   8.891
 1213POPC   D2A20080  28.288  35.870   8.496
 1213POPC   C3A20081  28.057  35.930   8.125
 1213POPC   C4A20082  28.259  36.067   7.741
 1213POPC   C1B20083  28.591  36.298   8.775
 1213POPC   C2B20084  28.767  36.086   8.444
 1213POPC   C3B20085  28.666  36.119   8.049
 1213POPC   C4B20086  28.704  35.877   7.714
 1214POPC   NC320087  24.654   9.723   9.443
 1214POPC   PO420088  24.050   9.474   9.625
 1214POPC   GL120089  24.277   9.578   9.145
 1214POPC   GL220090  24.420   9.974   9.072
 1214POPC   C1A20091  24.350   9.661   8.671
 1214POPC   D2A20092  24.237   9.580   8.244
 1214POPC   C3A20093  24.397   9.687   7.815
 1214POPC   C4A20094  24.236   9.378   7.494
 1214POPC   C1B20095  24.716  10.015   8.673
 1214POPC   C2B20096  24.768   9.880   8.205
 1214POPC   C3B20097  24.843   9.963   7.714
 1214POPC   C4B20098  24.757  10.138   7.272
 1215POPC   NC320099  31.612  41.257   9.501
 1215POPC   PO420100  31.309  41.895   9.525
 1215POPC   GL120101  31.531  41.712   9.183
 1215POPC   GL220102  31.314  41.433   9.130
 1215POPC   C1A20103  31.733  41.448   8.847
 1215POPC   D2A20104  31.569  41.313   8.450
 1215POPC   C3A20105  31.791  41.304   8.070
 1215POPC   C4A20106  31.881  41.658   7.810
 1215POPC   C1B20107  31.282  41.674   8.709
 1215POPC   C2B20108  31.179  41.592   8.258
 1215POPC   C3B20109  31.369  41.498   7.862
 1215POPC   C4B20110  31.202  41.224   7.499
 1216POPC   NC320111  22.004  42.742   9.693
 1216POPC   PO420112  22.406  43.272   9.535
 1216POPC   GL120113  22.225  42.997   9.241
 1216POPC   GL220114  22.476  42.813   9.121
 1216POPC   C1A20115  22.142  43.032   8.774
 1216POPC   D2A20116  22.193  43.322   8.431
 1216POPC   C3A20117  22.095  43.111   8.061
 1216POPC   C4A20118  22.003  43.006   7.674
 1216POPC   C1B20119  22.609  43.185   8.885
 1216POPC   C2B20120  22.732  43.151   8.474
 1216POPC   C3B20121  22.607  43.271   8.115
 1216POPC   C4B20122  22.498  43.165   7.739
 1217POPC   NC320123   3.063  18.770   9.432
 1217POPC   PO420124   2.542  19.236   9.537
 1217POPC   GL120125   2.794  19.147   9.183
 1217POPC   GL220126   2.653  18.846   9.110
 1217POPC   C1A20127   2.866  19.291   8.785
 1217POPC   D2A20128   2.925  19.177   8.366
 1217POPC   C3A20129   2.962  19.403   7.957
 1217POPC   C4A20130   2.730  19.176   7.645
 1217POPC   C1B20131   2.755  18.804   8.700
 1217POPC   C2B20132   2.547  18.833   8.335
 1217POPC   C3B20133   2.642  18.780   7.941
 1217POPC   C4B20134   2.423  18.801   7.556
 1218POPC   NC320135  39.686  29.397   9.524
 1218POPC   PO420136  40.224  29.062   9.577
 1218POPC   GL120137  40.045  29.017   9.119
 1218POPC   GL220138  39.678  29.056   9.116
 1218POPC   C1A20139  40.116  29.053   8.638
 1218POPC   D2A20140  40.338  29.188   8.216
 1218POPC   C3A20141  40.043  29.220   7.840
 1218POPC   C4A20142  39.687  29.105   7.505
 1218POPC   C1B20143  39.795  29.406   8.845
 1218POPC   C2B20144  39.978  29.499   8.431
 1218POPC   C3B20145  39.746  29.571   8.060
 1218POPC   C4B20146  39.744  29.595   7.640
 1219POPC   NC320147   4.673   0.086  10.178
 1219POPC   PO420148   5.110   0.372   9.736
 1219POPC   GL120149   5.072   0.449   9.288
 1219POPC   GL220150   5.261   0.203   9.101
 1219POPC   C1A20151   5.090   0.731   8.924
 1219POPC   D2A20152   4.962   0.734   8.514
 1219POPC   C3A20153   5.024   0.883   8.117
 1219POPC   C4A20154   4.905   0.625   7.746
 1219POPC   C1B20155   5.261   0.344   8.659
 1219POPC   C2B20156   5.425   0.602   8.312
 1219POPC   C3B20157   5.380   0.587   7.866
 1219POPC   C4B20158   5.405   0.378   7.440
 1220POPC   NC320159  32.145  16.497   9.602
 1220POPC   PO420160  32.358  17.113   9.581
 1220POPC   GL120161  32.277  16.832   9.216
 1220POPC   GL220162  32.046  16.527   9.122
 1220POPC   C1A20163  32.082  16.943   8.835
 1220POPC   D2A20164  32.035  16.801   8.406
 1220POPC   C3A20165  32.151  16.998   8.046
 1220POPC   C4A20166  32.285  16.816   7.661
 1220POPC   C1B20167  32.323  16.512   8.807
 1220POPC   C2B20168  32.313  16.357   8.397
 1220POPC   C3B20169  32.213  16.411   7.979
 1220POPC   C4B20170  32.551  16.315   7.692
 1221POPC   NC320171  44.305  40.970   9.503
 1221POPC   PO420172  44.032  40.452   9.442
 1221POPC   GL120173  43.866  40.786   9.164
 1221POPC   GL220174  44.118  41.040   9.043
 1221POPC   C1A20175  43.645  40.853   8.771
 1221POPC   D2A20176  43.368  40.669   8.448
 1221POPC   C3A20177  43.598  40.759   8.060
 1221POPC   C4A20178  43.865  41.052   7.854
 1221POPC   C1B20179  44.191  40.776   8.713
 1221POPC   C2B20180  44.088  40.829   8.297
 1221POPC   C3B20181  44.069  40.570   7.955
 1221POPC   C4B20182  44.107  40.686   7.557
 1222POPC   NC320183  37.281  42.230   9.401
 1222POPC   PO420184  36.741  42.557   9.364
 1222POPC   GL120185  36.915  42.324   9.045
 1222POPC   GL220186  36.677  42.135   8.907
 1222POPC   C1A20187  37.018  42.457   8.623
 1222POPC   D2A20188  36.975  42.545   8.183
 1222POPC   C3A20189  36.837  42.246   7.886
 1222POPC   C4A20190  36.625  42.453   7.534
 1222POPC   C1B20191  37.091  41.964   8.704
 1222POPC   C2B20192  37.160  41.869   8.254
 1222POPC   C3B20193  37.291  41.981   7.827
 1222POPC   C4B20194  37.043  42.024   7.429
 1223POPC   NC320195  39.648  39.469   9.585
 1223POPC   PO420196  40.071  38.872   9.521
 1223POPC   GL120197  40.030  39.207   9.192
 1223POPC   GL220198  40.372  39.325   9.112
 1223POPC   C1A20199  40.013  39.400   8.759
 1223POPC   D2A20200  40.072  39.214   8.357
 1223POPC   C3A20201  40.233  39.323   7.962
 1223POPC   C4A20202  39.893  39.269   7.695
 1223POPC   C1B20203  40.292  38.983   8.758
 1223POPC   C2B20204  40.332  38.773   8.344
 1223POPC   C3B20205  40.391  38.784   7.877
 1223POPC   C4B20206  40.289  39.022   7.489
 1224POPC   NC320207  31.582  28.738   9.343
 1224POPC   PO420208  31.026  28.514   9.618
 1224POPC   GL120209  31.101  28.558   9.164
 1224POPC   GL220210  31.214  28.826   8.989
 1224POPC   C1A20211  31.101  28.434   8.697
 1224POPC   D2A20212  31.194  28.599   8.253
 1224POPC   C3A20213  31.380  28.378   7.898
 1224POPC   C4A20214  31.233  28.188   7.483
 1224POPC   C1B20215  31.514  28.742   8.633
 1224POPC   C2B20216  31.681  28.720   8.177
 1224POPC   C3B20217  31.674  28.907   7.747
 1224POPC   C4B20218  31.637  28.935   7.264
 1225POPC   NC320219   4.710  40.197   9.518
 1225POPC   PO420220   5.357  40.299   9.417
 1225POPC   GL120221   5.021  40.123   9.112
 1225POPC   GL220222   4.759  39.839   9.129
 1225POPC   C1A20223   5.085  40.012   8.688
 1225POPC   D2A20224   5.278  40.265   8.368
 1225POPC   C3A20225   5.085  40.273   7.962
 1225POPC   C4A20226   4.912  40.192   7.574
 1225POPC   C1B20227   4.737  39.605   8.720
 1225POPC   C2B20228   4.867  39.604   8.281
 1225POPC   C3B20229   4.801  39.812   7.881
 1225POPC   C4B20230   4.771  39.756   7.372
 1226POPC   NC320231  37.452  20.468   9.447
 1226POPC   PO420232  38.097  20.493   9.559
 1226POPC   GL120233  37.892  20.389   9.141
 1226POPC   GL220234  37.678  20.708   9.037
 1226POPC   C1A20235  37.786  20.354   8.681
 1226POPC   D2A20236  37.646  20.745   8.457
 1226POPC   C3A20237  37.607  20.755   8.007
 1226POPC   C4A20238  37.819  20.387   7.836
 1226POPC   C1B20239  37.309  20.531   8.776
 1226POPC   C2B20240  37.369  20.307   8.360
 1226POPC   C3B20241  37.305  20.336   7.926
 1226POPC   C4B20242  37.420  20.461   7.492
 1227POPC   NC320243  18.574  28.878   9.341
 1227POPC   PO420244  19.312  29.006   9.342
 1227POPC   GL120245  18.968  29.113   9.065
 1227POPC   GL220246  18.864  29.446   9.100
 1227POPC   C1A20247  18.808  29.038   8.641
 1227POPC   D2A20248  18.917  28.802   8.272
 1227POPC   C3A20249  19.201  28.934   7.971
 1227POPC   C4A20250  19.185  28.983   7.543
 1227POPC   C1B20251  19.027  29.497   8.679
 1227POPC   C2B20252  19.131  29.329   8.282
 1227POPC   C3B20253  18.917  29.352   7.889
 1227POPC   C4B20254  18.837  29.383   7.461
 1228POPC   NC320255   4.239  22.342   9.366
 1228POPC   PO420256   4.673  21.828   9.431
 1228POPC   GL120257   4.345  21.870   9.104
 1228POPC   GL220258   4.398  22.156   8.906
 1228POPC   C1A20259   4.007  21.864   8.756
 1228POPC   D2A20260   4.090  22.148   8.399
 1228POPC   C3A20261   4.362  22.077   8.037
 1228POPC   C4A20262   4.258  22.093   7.583
 1228POPC   C1B20263   4.520  22.538   8.714
 1228POPC   C2B20264   4.596  22.728   8.311
 1228POPC   C3B20265   4.522  22.557   7.904
 1228POPC   C4B20266   4.705  22.309   7.597
 1229POPC   NC320267   8.402   3.461   9.505
 1229POPC   PO420268   7.736   3.533   9.469
 1229POPC   GL120269   7.922   3.349   9.136
 1229POPC   GL220270   8.188   3.590   9.069
 1229POPC   C1A20271   7.898   3.392   8.691
 1229POPC   D2A20272   8.181   3.506   8.390
 1229POPC   C3A20273   8.124   3.314   7.991
 1229POPC   C4A20274   8.054   3.456   7.547
 1229POPC   C1B20275   8.267   3.892   8.755
 1229POPC   C2B20276   8.390   3.981   8.360
 1229POPC   C3B20277   8.323   3.801   7.995
 1229POPC   C4B20278   8.226   3.964   7.615
 1230POPC   NC320279  21.277  31.989   9.441
 1230POPC   PO420280  21.578  32.509   9.682
 1230POPC   GL120281  21.465  32.410   9.232
 1230POPC   GL220282  21.076  32.372   9.161
 1230POPC   C1A20283  21.428  32.229   8.813
 1230POPC   D2A20284  21.381  32.457   8.427
 1230POPC   C3A20285  21.465  32.166   8.063
 1230POPC   C4A20286  21.619  32.050   7.673
 1230POPC   C1B20287  20.919  32.147   8.791
 1230POPC   C2B20288  21.017  32.126   8.354
 1230POPC   C3B20289  21.044  32.432   8.006
 1230POPC   C4B20290  21.251  32.418   7.598
 1231POPC   NC320291  17.333  32.188   9.607
 1231POPC   PO420292  17.861  32.482   9.729
 1231POPC   GL120293  17.540  32.479   9.260
 1231POPC   GL220294  17.589  32.140   9.136
 1231POPC   C1A20295  17.620  32.484   8.751
 1231POPC   D2A20296  17.786  32.433   8.338
 1231POPC   C3A20297  17.490  32.389   8.024
 1231POPC   C4A20298  17.485  32.105   7.721
 1231POPC   C1B20299  17.203  32.278   8.910
 1231POPC   C2B20300  17.212  32.339   8.457
 1231POPC   C3B20301  17.106  32.054   8.096
 1231POPC   C4B20302  16.925  32.053   7.682
 1232POPC   NC320303  24.008  25.696   9.454
 1232POPC   PO420304  23.603  26.288   9.491
 1232POPC   GL120305  23.671  25.983   9.200
 1232POPC   GL220306  24.013  26.031   9.056
 1232POPC   C1A20307  23.481  25.885   8.838
 1232POPC   D2A20308  23.478  26.063   8.426
 1232POPC   C3A20309  23.783  25.867   8.130
 1232POPC   C4A20310  23.631  25.834   7.730
 1232POPC   C1B20311  23.944  26.085   8.598
 1232POPC   C2B20312  23.878  26.363   8.198
 1232POPC   C3B20313  23.813  26.360   7.727
 1232POPC   C4B20314  23.907  26.330   7.253
 1233POPC   NC320315  40.698  22.800   9.752
 1233POPC   PO420316  41.203  23.066   9.655
 1233POPC   GL120317  40.858  23.117   9.351
 1233POPC   GL220318  40.651  22.822   9.226
 1233POPC   C1A20319  40.839  23.179   8.915
 1233POPC   D2A20320  40.892  23.071   8.490
 1233POPC   C3A20321  40.596  23.243   8.190
 1233POPC   C4A20322  40.591  23.192   7.745
 1233POPC   C1B20323  40.566  22.736   8.779
 1233POPC   C2B20324  40.536  22.745   8.313
 1233POPC   C3B20325  40.607  22.693   7.871
 1233POPC   C4B20326  40.533  22.764   7.403
 1234POPC   NC320327  42.921   1.626   9.696
 1234POPC   PO420328  43.344   1.135   9.515
 1234POPC   GL120329  43.206   1.209   9.139
 1234POPC   GL220330  42.928   1.342   9.227
 1234POPC   C1A20331  43.249   1.294   8.713
 1234POPC   D2A20332  42.987   1.416   8.409
 1234POPC   C3A20333  43.117   1.217   8.032
 1234POPC   C4A20334  43.406   1.354   7.732
 1234POPC   C1B20335  42.803   1.084   8.821
 1234POPC   C2B20336  42.546   1.169   8.436
 1234POPC   C3B20337  42.582   1.238   7.997
 1234POPC   C4B20338  42.790   0.904   7.767
 1235POPC   NC320339   6.416   2.005   9.603
 1235POPC   PO420340   6.984   1.973   9.283
 1235POPC   GL120341   6.674   1.725   9.020
 1235POPC   GL220342   6.341   1.780   9.133
 1235POPC   C1A20343   6.387   1.528   8.693
 1235POPC   D2A20344   6.269   1.700   8.285
 1235POPC   C3A20345   6.648   1.896   8.141
 1235POPC   C4A20346   6.939   1.933   7.820
 1235POPC   C1B20347   6.423   2.160   8.889
 1235POPC   C2B20348   6.259   2.272   8.493
 1235POPC   C3B20349   6.236   2.169   8.051
 1235POPC   C4B20350   6.549   2.267   7.762
 1236POPC   NC320351   0.252  44.403   9.448
 1236POPC   PO420352   0.715  44.891   9.454
 1236POPC   GL120353   0.539  44.707   9.138
 1236POPC   GL220354   0.292  44.941   9.136
 1236POPC   C1A20355   0.356  44.629   8.753
 1236POPC   D2A20356   0.523  44.566   8.367
 1236POPC   C3A20357   0.313  44.707   8.030
 1236POPC   C4A20358   0.487  44.508   7.665
 1236POPC   C1B20359  44.988  44.991   8.828
 1236POPC   C2B20360  44.913  44.863   8.401
 1236POPC   C3B20361  44.835  44.972   7.983
 1236POPC   C4B20362   0.113   0.015   7.649
 1237POPC   NC320363  15.290  15.375   9.550
 1237POPC   PO420364  15.480  14.662   9.364
 1237POPC   GL120365  15.404  15.048   9.121
 1237POPC   GL220366  15.531  15.394   9.112
 1237POPC   C1A20367  15.214  15.133   8.729
 1237POPC   D2A20368  14.877  15.122   8.420
 1237POPC   C3A20369  15.057  15.128   8.022
 1237POPC   C4A20370  15.045  14.956   7.613
 1237POPC   C1B20371  15.427  15.593   8.791
 1237POPC   C2B20372  15.634  15.500   8.402
 1237POPC   C3B20373  15.430  15.472   8.031
 1237POPC   C4B20374  15.216  15.442   7.630
 1238POPC   NC320375  15.055  29.000   9.436
 1238POPC   PO420376  15.035  29.631   9.307
 1238POPC   GL120377  15.291  29.303   9.069
 1238POPC   GL220378  15.411  28.951   9.056
 1238POPC   C1A20379  15.544  29.380   8.719
 1238POPC   D2A20380  15.230  29.480   8.413
 1238POPC   C3A20381  15.189  29.278   8.034
 1238POPC   C4A20382  15.408  29.288   7.672
 1238POPC   C1B20383  15.224  28.993   8.637
 1238POPC   C2B20384  15.246  28.797   8.226
 1238POPC   C3B20385  15.074  28.842   7.806
 1238POPC   C4B20386  14.903  28.716   7.411
 1239POPC   NC320387  41.332  43.719   9.806
 1239POPC   PO420388  41.764  44.006   9.492
 1239POPC   GL120389  41.553  43.818   9.168
 1239POPC   GL220390  41.876  43.722   9.001
 1239POPC   C1A20391  41.470  43.823   8.721
 1239POPC   D2A20392  41.641  43.982   8.340
 1239POPC   C3A20393  41.361  44.182   8.071
 1239POPC   C4A20394  41.209  44.114   7.684
 1239POPC   C1B20395  41.923  43.601   8.586
 1239POPC   C2B20396  41.670  43.486   8.224
 1239POPC   C3B20397  41.498  43.706   7.881
 1239POPC   C4B20398  41.685  43.981   7.555
 1240POPC   NC320399  32.635  14.735   9.487
 1240POPC   PO420400  32.230  15.276   9.397
 1240POPC   GL120401  32.091  14.928   9.120
 1240POPC   GL220402  32.440  14.872   9.046
 1240POPC   C1A20403  31.893  14.875   8.686
 1240POPC   D2A20404  31.718  15.021   8.270
 1240POPC   C3A20405  31.946  15.078   7.869
 1240POPC   C4A20406  32.139  15.451   7.689
 1240POPC   C1B20407  32.702  15.119   8.767
 1240POPC   C2B20408  32.798  15.201   8.359
 1240POPC   C3B20409  32.513  15.156   8.011
 1240POPC   C4B20410  32.427  14.974   7.623
 1241POPC   NC320411  39.068   6.859   9.317
 1241POPC   PO420412  39.254   7.424   9.585
 1241POPC   GL120413  39.296   7.509   9.164
 1241POPC   GL220414  39.365   7.206   9.076
 1241POPC   C1A20415  39.144   7.535   8.765
 1241POPC   D2A20416  39.277   7.750   8.418
 1241POPC   C3A20417  39.035   7.753   8.078
 1241POPC   C4A20418  38.880   7.701   7.701
 1241POPC   C1B20419  39.585   7.142   8.709
 1241POPC   C2B20420  39.734   7.440   8.388
 1241POPC   C3B20421  39.508   7.533   8.004
 1241POPC   C4B20422  39.246   7.335   7.691
 1242POPC   NC320423  44.451   0.832   9.480
 1242POPC   PO420424  44.781   0.245   9.513
 1242POPC   GL120425  44.616   0.449   9.191
 1242POPC   GL220426  44.290   0.343   9.245
 1242POPC   C1A20427  44.759   0.629   8.808
 1242POPC   D2A20428  44.888   0.374   8.480
 1242POPC   C3A20429  44.857   0.572   8.105
 1242POPC   C4A20430  44.827   0.438   7.719
 1242POPC   C1B20431  44.307   0.368   8.780
 1242POPC   C2B20432  44.415   0.626   8.395
 1242POPC   C3B20433  44.367   0.529   7.934
 1242POPC   C4B20434  44.189   0.291   7.545
 1243POPC   NC320435  22.168  13.725   9.461
 1243POPC   PO420436  22.536  13.154   9.455
 1243POPC   GL120437  22.316  13.417   9.096
 1243POPC   GL220438  22.362  13.838   9.026
 1243POPC   C1A20439  22.032  13.541   8.765
 1243POPC   D2A20440  21.771  13.545   8.405
 1243POPC   C3A20441  21.953  13.409   8.030
 1243POPC   C4A20442  22.053  13.621   7.645
 1243POPC   C1B20443  22.344  13.933   8.622
 1243POPC   C2B20444  22.296  13.774   8.199
 1243POPC   C3B20445  22.473  13.909   7.811
 1243POPC   C4B20446  22.478  13.858   7.359
 1244POPC   NC320447   4.191   7.707   9.500
 1244POPC   PO420448   4.505   7.164   9.635
 1244POPC   GL120449   4.328   7.297   9.213
 1244POPC   GL220450   3.991   7.414   9.124
 1244POPC   C1A20451   4.423   7.338   8.754
 1244POPC   D2A20452   4.761   7.311   8.410
 1244POPC   C3A20453   4.691   7.461   7.992
 1244POPC   C4A20454   4.386   7.314   7.685
 1244POPC   C1B20455   3.876   7.573   8.700
 1244POPC   C2B20456   3.969   7.714   8.286
 1244POPC   C3B20457   3.970   7.404   7.968
 1244POPC   C4B20458   3.771   7.271   7.584
 1245POPC   NC320459  26.381   0.186   9.463
 1245POPC   PO420460  25.841   0.477   9.885
 1245POPC   GL120461  25.939   0.452   9.388
 1245POPC   GL220462  26.158   0.727   9.256
 1245POPC   C1A20463  26.018   0.394   8.903
 1245POPC   D2A20464  25.953   0.448   8.443
 1245POPC   C3A20465  25.766   0.387   7.993
 1245POPC   C4A20466  25.925   0.621   7.591
 1245POPC   C1B20467  26.386   0.739   8.826
 1245POPC   C2B20468  26.446   0.592   8.419
 1245POPC   C3B20469  26.243   0.600   8.028
 1245POPC   C4B20470  26.207   0.241   7.769
 1246POPC   NC320471  11.181  23.832   9.359
 1246POPC   PO420472  11.669  23.427   9.486
 1246POPC   GL120473  11.420  23.444   9.135
 1246POPC   GL220474  11.129  23.335   9.138
 1246POPC   C1A20475  11.407  23.604   8.724
 1246POPC   D2A20476  11.754  23.498   8.420
 1246POPC   C3A20477  11.594  23.500   8.010
 1246POPC   C4A20478  11.374  23.782   7.715
 1246POPC   C1B20479  10.911  23.485   8.800
 1246POPC   C2B20480  10.855  23.554   8.388
 1246POPC   C3B20481  11.086  23.436   8.035
 1246POPC   C4B20482  11.282  23.265   7.686
 1247POPC   NC320483  15.039  32.042   9.408
 1247POPC   PO420484  15.334  32.690   9.386
 1247POPC   GL120485  15.072  32.548   9.011
 1247POPC   GL220486  14.820  32.237   8.991
 1247POPC   C1A20487  15.231  32.298   8.642
 1247POPC   D2A20488  15.487  32.175   8.272
 1247POPC   C3A20489  15.148  32.300   8.000
 1247POPC   C4A20490  14.706  32.340   8.058
 1247POPC   C1B20491  14.977  31.847   8.771
 1247POPC   C2B20492  15.103  31.839   8.348
 1247POPC   C3B20493  14.895  31.852   7.978
 1247POPC   C4B20494  14.944  31.957   7.532
 1248POPC   NC320495  42.991   7.413   9.824
 1248POPC   PO420496  42.912   7.948   9.416
 1248POPC   GL120497  43.048   7.921   9.079
 1248POPC   GL220498  43.359   8.083   9.066
 1248POPC   C1A20499  42.916   8.071   8.722
 1248POPC   D2A20500  43.015   8.191   8.317
 1248POPC   C3A20501  42.948   7.925   7.983
 1248POPC   C4A20502  42.785   8.250   7.746
 1248POPC   C1B20503  43.429   8.130   8.631
 1248POPC   C2B20504  43.386   7.832   8.279
 1248POPC   C3B20505  43.462   7.875   7.847
 1248POPC   C4B20506  43.516   8.231   7.579
 1249POPC   NC320507  40.077  35.599   9.429
 1249POPC   PO420508  40.330  34.931   9.364
 1249POPC   GL120509  40.288  35.271   9.114
 1249POPC   GL220510  39.947  35.244   9.113
 1249POPC   C1A20511  40.211  35.466   8.713
 1249POPC   D2A20512  40.079  35.315   8.291
 1249POPC   C3A20513  40.108  35.554   7.953
 1249POPC   C4A20514  40.270  35.268   7.642
 1249POPC   C1B20515  39.756  35.598   8.848
 1249POPC   C2B20516  39.689  35.603   8.398
 1249POPC   C3B20517  39.632  35.366   7.999
 1249POPC   C4B20518  39.771  35.408   7.553
 1250POPC   NC320519  29.647  14.182   9.546
 1250POPC   PO420520  30.226  14.511   9.649
 1250POPC   GL120521  29.978  14.497   9.284
 1250POPC   GL220522  30.031  14.151   9.195
 1250POPC   C1A20523  30.077  14.627   8.860
 1250POPC   D2A20524  29.959  14.454   8.453
 1250POPC   C3A20525  30.103  14.548   8.020
 1250POPC   C4A20526  29.926  14.458   7.603
 1250POPC   C1B20527  29.700  14.248   8.875
 1250POPC   C2B20528  29.574  14.103   8.431
 1250POPC   C3B20529  29.752  14.187   8.019
 1250POPC   C4B20530  30.070  13.995   7.746
 1251POPC   NC320531  37.941  39.005   9.523
 1251POPC   PO420532  37.556  39.580   9.548
 1251POPC   GL120533  37.581  39.383   9.169
 1251POPC   GL220534  37.903  39.438   9.179
 1251POPC   C1A20535  37.407  39.338   8.744
 1251POPC   D2A20536  37.555  38.988   8.490
 1251POPC   C3A20537  37.626  39.007   8.076
 1251POPC   C4A20538  37.693  39.114   7.665
 1251POPC   C1B20539  37.887  39.109   8.851
 1251POPC   C2B20540  38.046  39.111   8.411
 1251POPC   C3B20541  38.054  39.311   8.016
 1251POPC   C4B20542  38.191  39.175   7.634
 1252POPC   NC320543  41.805   0.154   9.469
 1252POPC   PO420544  41.323   0.614   9.568
 1252POPC   GL120545  41.416   0.327   9.173
 1252POPC   GL220546  41.762   0.272   8.986
 1252POPC   C1A20547  41.340   0.322   8.710
 1252POPC   D2A20548  41.421   0.591   8.344
 1252POPC   C3A20549  41.334   0.399   7.944
 1252POPC   C4A20550  41.550   0.223   7.619
 1252POPC   C1B20551  41.822   0.269   8.521
 1252POPC   C2B20552  41.842   0.410   8.096
 1252POPC   C3B20553  41.755   0.689   7.746
 1252POPC   C4B20554  41.969   0.780   7.323
 1253POPC   NC320555  19.376   9.708   9.521
 1253POPC   PO420556  18.664   9.890   9.539
 1253POPC   GL120557  18.931   9.760   9.177
 1253POPC   GL220558  19.202  10.022   9.120
 1253POPC   C1A20559  19.042   9.545   8.763
 1253POPC   D2A20560  19.023   9.343   8.336
 1253POPC   C3A20561  19.248   9.525   7.991
 1253POPC   C4A20562  19.156   9.633   7.570
 1253POPC   C1B20563  18.963  10.054   8.745
 1253POPC   C2B20564  18.869   9.861   8.330
 1253POPC   C3B20565  19.015   9.985   7.929
 1253POPC   C4B20566  19.324  10.113   7.600
 1254POPC   NC320567  35.593  23.150   9.465
 1254POPC   PO420568  36.157  22.825   9.604
 1254POPC   GL120569  36.223  22.910   9.180
 1254POPC   GL220570  36.494  23.117   9.153
 1254POPC   C1A20571  36.004  22.890   8.765
 1254POPC   D2A20572  36.018  22.624   8.378
 1254POPC   C3A20573  36.022  22.911   7.981
 1254POPC   C4A20574  36.248  23.057   7.571
 1254POPC   C1B20575  36.511  22.953   8.758
 1254POPC   C2B20576  36.337  23.008   8.360
 1254POPC   C3B20577  36.548  23.053   7.974
 1254POPC   C4B20578  36.732  22.757   7.680
 1255POPC   NC320579   5.176  44.222   9.469
 1255POPC   PO420580   4.729  43.708   9.490
 1255POPC   GL120581   4.882  43.928   9.142
 1255POPC   GL220582   5.226  43.901   9.086
 1255POPC   C1A20583   4.796  43.832   8.726
 1255POPC   D2A20584   5.102  43.665   8.436
 1255POPC   C3A20585   5.089  43.835   8.003
 1255POPC   C4A20586   4.690  44.093   7.866
 1255POPC   C1B20587   5.276  44.096   8.727
 1255POPC   C2B20588   5.452  44.046   8.351
 1255POPC   C3B20589   5.573  44.161   7.990
 1255POPC   C4B20590   5.342  44.155   7.673
 1256POPC   NC320591  19.823  16.513   9.517
 1256POPC   PO420592  20.116  15.843   9.578
 1256POPC   GL120593  20.046  16.055   9.213
 1256POPC   GL220594  19.757  16.237   9.110
 1256POPC   C1A20595  19.870  15.784   8.894
 1256POPC   D2A20596  20.050  15.832   8.496
 1256POPC   C3A20597  20.013  15.546   8.229
 1256POPC   C4A20598  20.085  15.604   7.833
 1256POPC   C1B20599  19.853  16.247   8.723
 1256POPC   C2B20600  19.684  16.152   8.325
 1256POPC   C3B20601  19.786  16.039   7.907
 1256POPC   C4B20602  19.531  16.075   7.534
 1257POPC   NC320603  33.616  16.583   9.635
 1257POPC   PO420604  34.141  17.034   9.430
 1257POPC   GL120605  33.980  16.837   9.068
 1257POPC   GL220606  33.664  16.709   9.141
 1257POPC   C1A20607  33.911  16.509   8.755
 1257POPC   D2A20608  33.975  16.370   8.357
 1257POPC   C3A20609  33.920  16.721   8.061
 1257POPC   C4A20610  33.606  17.064   7.989
 1257POPC   C1B20611  33.497  16.872   8.788
 1257POPC   C2B20612  33.342  16.809   8.406
 1257POPC   C3B20613  33.099  16.915   8.075
 1257POPC   C4B20614  33.283  16.801   7.694
 1258POPC   NC320615   1.710  44.411   9.458
 1258POPC   PO420616   2.073  44.947   9.369
 1258POPC   GL120617   1.752  44.785   9.111
 1258POPC   GL220618   2.017  44.525   9.059
 1258POPC   C1A20619   1.654  44.567   8.726
 1258POPC   D2A20620   1.994  44.537   8.440
 1258POPC   C3A20621   1.915  44.530   8.010
 1258POPC   C4A20622   1.934  44.810   7.617
 1258POPC   C1B20623   2.270  44.270   8.809
 1258POPC   C2B20624   2.348  44.167   8.414
 1258POPC   C3B20625   2.465  44.420   8.110
 1258POPC   C4B20626   2.289  44.403   7.700
 1259POPC   NC320627  24.473  41.027   9.517
 1259POPC   PO420628  24.152  40.463   9.632
 1259POPC   GL120629  24.460  40.573   9.240
 1259POPC   GL220630  24.686  40.870   9.096
 1259POPC   C1A20631  24.596  40.467   8.800
 1259POPC   D2A20632  24.390  40.535   8.405
 1259POPC   C3A20633  24.599  40.759   8.103
 1259POPC   C4A20634  24.732  40.626   7.721
 1259POPC   C1B20635  24.319  40.882   8.790
 1259POPC   C2B20636  24.252  41.037   8.372
 1259POPC   C3B20637  24.136  41.086   7.926
 1259POPC   C4B20638  24.293  40.942   7.501
 1260POPC   NC320639  41.804  16.192   9.530
 1260POPC   PO420640  41.321  15.854   9.781
 1260POPC   GL120641  41.434  15.824   9.302
 1260POPC   GL220642  41.816  15.746   9.278
 1260POPC   C1A20643  41.319  15.917   8.822
 1260POPC   D2A20644  41.304  16.207   8.439
 1260POPC   C3A20645  41.407  16.014   8.023
 1260POPC   C4A20646  41.317  16.087   7.580
 1260POPC   C1B20647  41.817  15.926   8.881
 1260POPC   C2B20648  41.722  15.866   8.424
 1260POPC   C3B20649  41.742  15.607   8.034
 1260POPC   C4B20650  41.428  15.571   7.684
 1261POPC   NC320651  28.967  17.467   9.498
 1261POPC   PO420652  29.492  17.878   9.513
 1261POPC   GL120653  29.355  17.692   9.156
 1261POPC   GL220654  29.372  17.384   9.164
 1261POPC   C1A20655  29.084  17.639   8.791
 1261POPC   D2A20656  29.052  17.881   8.410
 1261POPC   C3A20657  29.105  17.730   7.980
 1261POPC   C4A20658  29.303  17.687   7.576
 1261POPC   C1B20659  29.241  17.143   8.817
 1261POPC   C2B20660  29.032  17.077   8.450
 1261POPC   C3B20661  28.980  17.233   8.050
 1261POPC   C4B20662  29.111  17.156   7.654
 1262POPC   NC320663  42.666  28.549   9.516
 1262POPC   PO420664  41.998  28.313   9.580
 1262POPC   GL120665  42.228  28.394   9.147
 1262POPC   GL220666  42.499  28.652   9.053
 1262POPC   C1A20667  42.382  28.269   8.700
 1262POPC   D2A20668  42.528  28.361   8.278
 1262POPC   C3A20669  42.498  28.036   7.977
 1262POPC   C4A20670  42.383  28.001   7.537
 1262POPC   C1B20671  42.383  28.784   8.643
 1262POPC   C2B20672  42.230  28.753   8.231
 1262POPC   C3B20673  42.302  28.702   7.804
 1262POPC   C4B20674  42.558  28.917   7.471
 1263POPC   NC320675  34.539   8.253   9.578
 1263POPC   PO420676  35.016   8.626   9.391
 1263POPC   GL120677  34.726   8.389   9.134
 1263POPC   GL220678  34.336   8.402   9.141
 1263POPC   C1A20679  34.839   8.105   8.811
 1263POPC   D2A20680  35.011   8.292   8.452
 1263POPC   C3A20681  34.798   8.113   8.078
 1263POPC   C4A20682  34.641   8.138   7.670
 1263POPC   C1B20683  34.338   8.056   8.825
 1263POPC   C2B20684  34.430   7.949   8.409
 1263POPC   C3B20685  34.285   8.178   8.049
 1263POPC   C4B20686  34.086   8.302   7.695
 1264POPC   NC320687   1.100   5.653   9.389
 1264POPC   PO420688   1.345   6.302   9.476
 1264POPC   GL120689   1.099   6.113   9.205
 1264POPC   GL220690   1.408   5.943   9.105
 1264POPC   C1A20691   0.972   5.993   8.815
 1264POPC   D2A20692   1.083   6.139   8.406
 1264POPC   C3A20693   1.044   5.896   8.013
 1264POPC   C4A20694   1.369   6.045   7.723
 1264POPC   C1B20695   1.504   5.858   8.700
 1264POPC   C2B20696   1.280   5.646   8.409
 1264POPC   C3B20697   1.283   5.402   8.073
 1264POPC   C4B20698   1.288   5.535   7.724
 1265POPC   NC320699   7.925  13.099   9.370
 1265POPC   PO420700   8.056  12.508   9.253
 1265POPC   GL120701   8.269  12.856   9.061
 1265POPC   GL220702   8.604  12.995   9.179
 1265POPC   C1A20703   8.091  12.980   8.688
 1265POPC   D2A20704   7.727  13.046   8.434
 1265POPC   C3A20705   7.920  12.781   8.117
 1265POPC   C4A20706   8.218  12.836   7.760
 1265POPC   C1B20707   8.568  13.165   8.786
 1265POPC   C2B20708   8.392  13.331   8.417
 1265POPC   C3B20709   8.509  13.184   8.012
 1265POPC   C4B20710   8.710  13.405   7.678
 1266POPC   NC320711  34.463  17.103   9.746
 1266POPC   PO420712  34.781  16.543   9.779
 1266POPC   GL120713  34.771  16.740   9.355
 1266POPC   GL220714  34.490  16.733   9.123
 1266POPC   C1A20715  34.966  16.796   8.924
 1266POPC   D2A20716  34.802  16.715   8.553
 1266POPC   C3A20717  34.959  16.664   8.138
 1266POPC   C4A20718  34.689  16.723   7.776
 1266POPC   C1B20719  34.327  16.861   8.693
 1266POPC   C2B20720  34.396  16.767   8.260
 1266POPC   C3B20721  34.359  16.418   8.034
 1266POPC   C4B20722  34.159  16.420   7.642
 1267POPC   NC320723   0.279  38.027   9.428
 1267POPC   PO420724   0.560  38.645   9.578
 1267POPC   GL120725   0.505  38.449   9.206
 1267POPC   GL220726   0.156  38.507   9.143
 1267POPC   C1A20727   0.662  38.199   8.861
 1267POPC   D2A20728   0.519  38.170   8.431
 1267POPC   C3A20729   0.684  38.330   8.061
 1267POPC   C4A20730   0.840  38.206   7.663
 1267POPC   C1B20731   0.375  38.597   8.732
 1267POPC   C2B20732   0.291  38.707   8.317
 1267POPC   C3B20733   0.199  38.544   7.935
 1267POPC   C4B20734   0.505  38.587   7.639
 1268POPC   NC320735  37.312  10.932   9.429
 1268POPC   PO420736  36.823  11.365   9.418
 1268POPC   GL120737  37.064  11.305   9.075
 1268POPC   GL220738  37.415  11.379   9.176
 1268POPC   C1A20739  36.872  11.564   8.761
 1268POPC   D2A20740  36.639  11.591   8.381
 1268POPC   C3A20741  36.692  11.263   8.105
 1268POPC   C4A20742  36.754  11.254   7.689
 1268POPC   C1B20743  37.417  11.486   8.734
 1268POPC   C2B20744  37.165  11.522   8.355
 1268POPC   C3B20745  37.191  11.368   7.946
 1268POPC   C4B20746  37.143  11.606   7.580
 1269POPC   NC320747  39.914  20.214   9.480
 1269POPC   PO420748  40.087  19.611   9.677
 1269POPC   GL120749  40.037  19.768   9.232
 1269POPC   GL220750  40.309  20.044   9.171
 1269POPC   C1A20751  39.968  19.926   8.799
 1269POPC   D2A20752  40.173  20.008   8.465
 1269POPC   C3A20753  39.874  19.870   8.183
 1269POPC   C4A20754  39.913  19.958   7.790
 1269POPC   C1B20755  40.412  19.692   8.871
 1269POPC   C2B20756  40.267  19.511   8.486
 1269POPC   C3B20757  40.337  19.692   8.066
 1269POPC   C4B20758  40.283  19.596   7.633
 1270POPC   NC320759  40.668  42.337   9.470
 1270POPC   PO420760  41.287  42.465   9.251
 1270POPC   GL120761  40.984  42.138   9.108
 1270POPC   GL220762  40.587  42.056   9.053
 1270POPC   C1A20763  40.980  42.140   8.696
 1270POPC   D2A20764  40.815  41.971   8.369
 1270POPC   C3A20765  40.990  42.173   8.025
 1270POPC   C4A20766  40.769  42.372   7.717
 1270POPC   C1B20767  40.633  42.492   8.833
 1270POPC   C2B20768  40.722  42.506   8.389
 1270POPC   C3B20769  40.460  42.241   8.122
 1270POPC   C4B20770  40.277  42.278   7.729
 1271POPC   NC320771  38.151   7.222   9.478
 1271POPC   PO420772  37.515   7.021   9.408
 1271POPC   GL120773  37.768   7.321   9.155
 1271POPC   GL220774  38.037   7.102   8.988
 1271POPC   C1A20775  37.696   7.562   8.775
 1271POPC   D2A20776  37.421   7.478   8.404
 1271POPC   C3A20777  37.622   7.333   8.019
 1271POPC   C4A20778  37.892   7.607   7.787
 1271POPC   C1B20779  37.646   7.028   8.759
 1271POPC   C2B20780  37.535   6.949   8.371
 1271POPC   C3B20781  37.254   6.850   8.073
 1271POPC   C4B20782  37.383   7.007   7.681
 1272POPC   NC320783  36.559  37.744   9.510
 1272POPC   PO420784  37.150  37.399   9.673
 1272POPC   GL120785  37.031  37.481   9.218
 1272POPC   GL220786  36.943  37.829   9.159
 1272POPC   C1A20787  37.152  37.525   8.768
 1272POPC   D2A20788  37.365  37.534   8.349
 1272POPC   C3A20789  37.140  37.344   7.974
 1272POPC   C4A20790  36.804  37.480   7.651
 1272POPC   C1B20791  36.608  37.840   8.844
 1272POPC   C2B20792  36.484  37.822   8.404
 1272POPC   C3B20793  36.773  37.824   8.055
 1272POPC   C4B20794  36.762  37.994   7.657
 1273POPC   NC320795  17.251  39.802   9.829
 1273POPC   PO420796  17.570  40.270   9.345
 1273POPC   GL120797  17.417  40.179   8.993
 1273POPC   GL220798  17.364  39.827   9.001
 1273POPC   C1A20799  17.460  40.122   8.571
 1273POPC   D2A20800  17.189  39.913   8.308
 1273POPC   C3A20801  17.413  39.988   7.982
 1273POPC   C4A20802  17.660  39.945   7.681
 1273POPC   C1B20803  17.782  39.794   8.757
 1273POPC   C2B20804  17.676  39.683   8.360
 1273POPC   C3B20805  17.856  39.581   8.009
 1273POPC   C4B20806  18.116  39.696   7.697
 1274POPC   NC320807  43.521  37.869   9.565
 1274POPC   PO420808  44.121  37.596   9.484
 1274POPC   GL120809  43.878  37.726   9.163
 1274POPC   GL220810  44.070  38.005   9.133
 1274POPC   C1A20811  43.798  37.739   8.714
 1274POPC   D2A20812  43.738  37.595   8.308
 1274POPC   C3A20813  43.936  37.652   7.915
 1274POPC   C4A20814  43.722  37.728   7.510
 1274POPC   C1B20815  44.127  38.116   8.736
 1274POPC   C2B20816  44.028  38.017   8.321
 1274POPC   C3B20817  44.320  37.997   7.981
 1274POPC   C4B20818  44.361  38.056   7.518
 1275POPC   NC320819   7.963  11.171   9.518
 1275POPC   PO420820   8.592  11.385   9.654
 1275POPC   GL120821   8.272  11.528   9.309
 1275POPC   GL220822   8.240  11.209   9.084
 1275POPC   C1A20823   8.025  11.613   8.906
 1275POPC   D2A20824   8.251  11.477   8.574
 1275POPC   C3A20825   8.175  11.573   8.161
 1275POPC   C4A20826   8.102  11.511   7.761
 1275POPC   C1B20827   8.147  10.997   8.713
 1275POPC   C2B20828   8.279  11.066   8.292
 1275POPC   C3B20829   8.066  11.015   7.931
 1275POPC   C4B20830   8.127  11.071   7.494
 1276POPC   NC320831   5.491  25.705   9.480
 1276POPC   PO420832   5.191  25.151   9.603
 1276POPC   GL120833   5.101  25.315   9.183
 1276POPC   GL220834   5.360  25.122   9.035
 1276POPC   C1A20835   4.972  25.246   8.710
 1276POPC   D2A20836   5.164  25.126   8.289
 1276POPC   C3A20837   5.004  25.288   7.876
 1276POPC   C4A20838   4.752  25.296   7.472
 1276POPC   C1B20839   5.385  25.523   8.788
 1276POPC   C2B20840   5.306  25.603   8.347
 1276POPC   C3B20841   5.475  25.464   7.923
 1276POPC   C4B20842   5.486  25.088   7.629
 1277POPC   NC320843  37.131  30.368   9.484
 1277POPC   PO420844  36.787  29.741   9.471
 1277POPC   GL120845  36.827  29.922   9.088
 1277POPC   GL220846  37.140  29.975   9.111
 1277POPC   C1A20847  36.731  29.732   8.685
 1277POPC   D2A20848  36.941  29.796   8.299
 1277POPC   C3A20849  36.791  29.710   7.899
 1277POPC   C4A20850  36.888  29.941   7.500
 1277POPC   C1B20851  37.345  30.046   8.726
 1277POPC   C2B20852  37.429  29.920   8.305
 1277POPC   C3B20853  37.247  30.004   7.885
 1277POPC   C4B20854  37.411  29.885   7.466
 1278POPC   NC320855  16.927  30.739   9.528
 1278POPC   PO420856  16.425  30.373   9.415
 1278POPC   GL120857  16.691  30.569   9.116
 1278POPC   GL220858  17.008  30.377   9.174
 1278POPC   C1A20859  16.729  30.875   8.774
 1278POPC   D2A20860  16.676  31.118   8.392
 1278POPC   C3A20861  16.691  30.824   8.012
 1278POPC   C4A20862  16.410  30.775   7.669
 1278POPC   C1B20863  16.777  30.186   8.823
 1278POPC   C2B20864  16.659  30.361   8.468
 1278POPC   C3B20865  16.840  30.284   8.096
 1278POPC   C4B20866  16.679  30.358   7.719
 1279POPC   NC320867   9.082   8.225  10.139
 1279POPC   PO420868   8.669   8.341   9.781
 1279POPC   GL120869   8.696   8.255   9.285
 1279POPC   GL220870   9.055   8.164   9.150
 1279POPC   C1A20871   8.697   8.214   8.804
 1279POPC   D2A20872   8.808   7.892   8.468
 1279POPC   C3A20873   8.770   8.027   8.009
 1279POPC   C4A20874   8.759   8.213   7.585
 1279POPC   C1B20875   9.200   8.165   8.674
 1279POPC   C2B20876   9.249   7.985   8.233
 1279POPC   C3B20877   9.252   8.137   7.798
 1279POPC   C4B20878   9.456   7.993   7.413
 1280POPC   NC320879   5.715   3.787   9.461
 1280POPC   PO420880   6.158   3.368   9.657
 1280POPC   GL120881   5.975   3.406   9.238
 1280POPC   GL220882   5.621   3.297   9.264
 1280POPC   C1A20883   5.887   3.630   8.823
 1280POPC   D2A20884   5.999   3.799   8.411
 1280POPC   C3A20885   5.765   3.706   8.058
 1280POPC   C4A20886   5.851   3.556   7.659
 1280POPC   C1B20887   5.449   3.352   8.823
 1280POPC   C2B20888   5.518   3.380   8.361
 1280POPC   C3B20889   5.516   3.241   7.896
 1280POPC   C4B20890   5.709   3.115   7.474
 1281POPC   NC320891  40.483  44.217   9.629
 1281POPC   PO420892  40.931  43.810  10.010
 1281POPC   GL120893  40.987  43.888   9.465
 1281POPC   GL220894  40.676  43.873   9.293
 1281POPC   C1A20895  41.021  43.989   8.952
 1281POPC   D2A20896  41.102  44.090   8.496
 1281POPC   C3A20897  40.859  44.037   8.091
 1281POPC   C4A20898  40.866  43.771   7.754
 1281POPC   C1B20899  40.617  43.659   8.900
 1281POPC   C2B20900  40.680  43.762   8.484
 1281POPC   C3B20901  40.504  43.619   8.111
 1281POPC   C4B20902  40.376  43.747   7.711
 1282POPC   NC320903   5.553  39.129   9.656
 1282POPC   PO420904   4.907  38.978   9.585
 1282POPC   GL120905   5.187  39.099   9.259
 1282POPC   GL220906   5.053  39.421   9.219
 1282POPC   C1A20907   5.306  39.253   8.816
 1282POPC   D2A20908   5.449  39.108   8.427
 1282POPC   C3A20909   5.284  39.319   8.090
 1282POPC   C4A20910   5.253  39.173   7.700
 1282POPC   C1B20911   4.819  39.141   8.910
 1282POPC   C2B20912   4.916  39.081   8.470
 1282POPC   C3B20913   4.836  39.084   8.031
 1282POPC   C4B20914   4.775  39.349   7.679
 1283POPC   NC320915  18.553  29.792   9.594
 1283POPC   PO420916  18.081  30.250   9.593
 1283POPC   GL120917  18.190  29.964   9.224
 1283POPC   GL220918  18.469  29.768   9.094
 1283POPC   C1A20919  18.089  29.841   8.770
 1283POPC   D2A20920  18.293  29.811   8.384
 1283POPC   C3A20921  18.245  30.050   8.011
 1283POPC   C4A20922  18.498  29.948   7.677
 1283POPC   C1B20923  18.502  29.481   8.732
 1283POPC   C2B20924  18.630  29.408   8.317
 1283POPC   C3B20925  18.407  29.536   7.952
 1283POPC   C4B20926  18.017  29.660   7.731
 1284POPC   NC320927  20.773  17.889  10.050
 1284POPC   PO420928  20.682  17.351   9.699
 1284POPC   GL120929  20.626  17.139   9.256
 1284POPC   GL220930  20.288  17.185   9.109
 1284POPC   C1A20931  20.726  17.174   8.805
 1284POPC   D2A20932  20.800  17.354   8.378
 1284POPC   C3A20933  20.518  17.263   8.029
 1284POPC   C4A20934  20.109  17.478   7.957
 1284POPC   C1B20935  20.304  17.412   8.661
 1284POPC   C2B20936  20.424  17.706   8.302
 1284POPC   C3B20937  20.382  17.893   7.869
 1284POPC   C4B20938  20.200  17.704   7.481
 1285POPC   NC320939   7.292  40.656   9.413
 1285POPC   PO420940   6.901  41.187   9.257
 1285POPC   GL120941   7.237  41.048   9.046
 1285POPC   GL220942   7.566  41.072   9.182
 1285POPC   C1A20943   7.274  41.001   8.628
 1285POPC   D2A20944   7.513  40.798   8.338
 1285POPC   C3A20945   7.418  40.836   7.936
 1285POPC   C4A20946   7.338  40.439   7.811
 1285POPC   C1B20947   7.699  40.792   8.816
 1285POPC   C2B20948   7.926  40.545   8.496
 1285POPC   C3B20949   7.801  40.449   8.065
 1285POPC   C4B20950   7.827  40.669   7.671
 1286POPC   NC320951   1.800   6.078   9.423
 1286POPC   PO420952   2.217   5.811   9.789
 1286POPC   GL120953   2.136   5.702   9.211
 1286POPC   GL220954   1.840   5.651   9.064
 1286POPC   C1A20955   2.147   5.847   8.722
 1286POPC   D2A20956   2.197   5.688   8.289
 1286POPC   C3A20957   2.146   5.978   7.937
 1286POPC   C4A20958   2.147   5.980   7.473
 1286POPC   C1B20959   1.934   5.382   8.723
 1286POPC   C2B20960   1.753   5.405   8.340
 1286POPC   C3B20961   1.686   5.725   8.043
 1286POPC   C4B20962   1.761   5.708   7.619
 1287POPC   NC320963  20.210  26.137   9.421
 1287POPC   PO420964  19.636  25.839   9.504
 1287POPC   GL120965  19.818  25.905   9.122
 1287POPC   GL220966  20.084  25.699   9.169
 1287POPC   C1A20967  19.760  25.884   8.683
 1287POPC   D2A20968  19.606  26.106   8.356
 1287POPC   C3A20969  19.839  26.080   7.981
 1287POPC   C4A20970  19.751  26.338   7.614
 1287POPC   C1B20971  20.253  25.836   8.788
 1287POPC   C2B20972  20.202  26.031   8.394
 1287POPC   C3B20973  20.388  25.986   7.994
 1287POPC   C4B20974  20.192  26.091   7.590
 1288POPC   NC320975  30.165  43.525   9.491
 1288POPC   PO420976  30.749  43.235   9.656
 1288POPC   GL120977  30.647  43.328   9.206
 1288POPC   GL220978  30.446  43.646   9.102
 1288POPC   C1A20979  30.707  43.044   8.801
 1288POPC   D2A20980  30.755  42.788   8.408
 1288POPC   C3A20981  30.866  42.964   7.989
 1288POPC   C4A20982  30.524  42.864   7.686
 1288POPC   C1B20983  30.648  43.538   8.741
 1288POPC   C2B20984  30.725  43.314   8.351
 1288POPC   C3B20985  30.530  43.348   7.921
 1288POPC   C4B20986  30.690  43.298   7.478
 1289POPC   NC320987  28.755   0.853   9.466
 1289POPC   PO420988  29.345   1.043   9.664
 1289POPC   GL120989  29.109   1.085   9.172
 1289POPC   GL220990  28.815   1.078   9.016
 1289POPC   C1A20991  29.224   1.095   8.692
 1289POPC   D2A20992  29.490   1.018   8.321
 1289POPC   C3A20993  29.297   0.918   7.917
 1289POPC   C4A20994  29.057   0.957   7.542
 1289POPC   C1B20995  28.721   1.147   8.615
 1289POPC   C2B20996  28.927   0.933   8.286
 1289POPC   C3B20997  28.772   1.096   7.929
 1289POPC   C4B20998  28.543   1.167   7.556
 1290POPC   NC320999  34.941  40.305   9.540
 1290POPC   PO421000  34.577  39.719   9.421
 1290POPC   GL121001  34.607  40.020   9.174
 1290POPC   GL221002  34.427  40.267   9.316
 1290POPC   C1A21003  34.727  39.975   8.783
 1290POPC   D2A21004  34.762  39.769   8.406
 1290POPC   C3A21005  34.658  39.977   8.031
 1290POPC   C4A21006  34.698  39.779   7.633
 1290POPC   C1B21007  34.394  40.406   8.886
 1290POPC   C2B21008  34.536  40.320   8.475
 1290POPC   C3B21009  34.396  40.423   8.075
 1290POPC   C4B21010  34.519  40.330   7.672
 1291POPC   NC321011   3.863  39.666   9.519
 1291POPC   PO421012   3.595  40.282   9.600
 1291POPC   GL121013   3.484  40.006   9.244
 1291POPC   GL221014   3.183  40.208   9.084
 1291POPC   C1A21015   3.698  39.786   8.895
 1291POPC   D2A21016   3.804  39.826   8.467
 1291POPC   C3A21017   3.522  39.837   8.132
 1291POPC   C4A21018   3.614  39.728   7.714
 1291POPC   C1B21019   3.503  40.224   8.743
 1291POPC   C2B21020   3.666  40.325   8.340
 1291POPC   C3B21021   3.449  40.361   7.967
 1291POPC   C4B21022   3.250  40.088   7.709
 1292POPC   NC321023  24.190  41.655   9.482
 1292POPC   PO421024  24.792  41.331   9.445
 1292POPC   GL121025  24.516  41.515   9.111
 1292POPC   GL221026  24.315  41.275   9.083
 1292POPC   C1A21027  24.281  41.521   8.655
 1292POPC   D2A21028  24.322  41.500   8.196
 1292POPC   C3A21029  24.681  41.663   8.049
 1292POPC   C4A21030  24.678  41.868   7.708
 1292POPC   C1B21031  24.689  41.228   8.732
 1292POPC   C2B21032  24.782  41.216   8.286
 1292POPC   C3B21033  24.632  41.189   7.852
 1292POPC   C4B21034  24.410  41.437   7.584
 1293POPC   NC321035  11.839   1.742   9.510
 1293POPC   PO421036  12.020   2.350   9.686
 1293POPC   GL121037  12.109   2.247   9.219
 1293POPC   GL221038  12.024   1.896   9.075
 1293POPC   C1A21039  11.919   2.283   8.775
 1293POPC   D2A21040  11.886   1.914   8.479
 1293POPC   C3A21041  11.689   2.039   8.095
 1293POPC   C4A21042  11.704   2.181   7.661
 1293POPC   C1B21043  12.319   1.998   8.766
 1293POPC   C2B21044  12.304   2.215   8.373
 1293POPC   C3B21045  12.255   2.001   7.972
 1293POPC   C4B21046  12.379   1.823   7.577
 1294POPC   NC321047  29.788  39.376   9.489
 1294POPC   PO421048  30.421  39.112   9.526
 1294POPC   GL121049  30.227  39.350   9.202
 1294POPC   GL221050  30.039  39.068   9.110
 1294POPC   C1A21051  30.011  39.497   8.825
 1294POPC   D2A21052  29.882  39.408   8.380
 1294POPC   C3A21053  29.807  39.485   7.925
 1294POPC   C4A21054  29.535  39.155   7.749
 1294POPC   C1B21055  30.024  39.000   8.671
 1294POPC   C2B21056  30.202  38.957   8.285
 1294POPC   C3B21057  30.063  39.037   7.878
 1294POPC   C4B21058  30.070  39.304   7.510
 1295POPC   NC321059  32.657  20.268   9.535
 1295POPC   PO421060  33.333  20.472   9.569
 1295POPC   GL121061  33.003  20.599   9.214
 1295POPC   GL221062  32.813  20.359   9.064
 1295POPC   C1A21063  32.977  20.721   8.741
 1295POPC   D2A21064  33.381  20.666   8.480
 1295POPC   C3A21065  33.274  20.704   8.039
 1295POPC   C4A21066  32.859  20.855   7.896
 1295POPC   C1B21067  33.138  20.247   8.743
 1295POPC   C2B21068  32.975  20.395   8.338
 1295POPC   C3B21069  32.777  20.364   7.938
 1295POPC   C4B21070  33.004  20.467   7.567
 1296POPC   NC321071  22.310  11.291   9.513
 1296POPC   PO421072  21.749  11.615   9.425
 1296POPC   GL121073  21.879  11.203   9.210
 1296POPC   GL221074  22.185  11.294   9.034
 1296POPC   C1A21075  21.912  10.963   8.786
 1296POPC   D2A21076  22.137  11.135   8.421
 1296POPC   C3A21077  22.034  11.052   7.996
 1296POPC   C4A21078  22.104  11.357   7.658
 1296POPC   C1B21079  22.501  11.333   8.724
 1296POPC   C2B21080  22.647  11.191   8.372
 1296POPC   C3B21081  22.486  11.306   8.007
 1296POPC   C4B21082  22.559  11.144   7.621
 1297POPC   NC321083  27.719  15.017   9.465
 1297POPC   PO421084  27.185  15.386   9.514
 1297POPC   GL121085  27.438  15.264   9.126
 1297POPC   GL221086  27.506  14.930   9.006
 1297POPC   C1A21087  27.598  15.363   8.702
 1297POPC   D2A21088  27.705  15.151   8.336
 1297POPC   C3A21089  27.597  15.337   7.956
 1297POPC   C4A21090  27.863  15.407   7.621
 1297POPC   C1B21091  27.908  14.961   8.788
 1297POPC   C2B21092  28.172  14.937   8.398
 1297POPC   C3B21093  28.068  15.065   7.970
 1297POPC   C4B21094  28.021  14.930   7.546
 1298POPC   NC321095  23.660   2.770   9.911
 1298POPC   PO421096  23.368   2.841   9.552
 1298POPC   GL121097  23.639   2.971   9.188
 1298POPC   GL221098  23.973   2.837   9.077
 1298POPC   C1A21099  23.647   3.115   8.747
 1298POPC   D2A21100  23.789   3.082   8.315
 1298POPC   C3A21101  23.627   2.963   7.918
 1298POPC   C4A21102  23.852   2.782   7.573
 1298POPC   C1B21103  23.910   2.684   8.644
 1298POPC   C2B21104  23.585   2.603   8.306
 1298POPC   C3B21105  23.525   2.453   7.871
 1298POPC   C4B21106  23.649   2.338   7.435
 1299POPC   NC321107  32.532  18.114   9.355
 1299POPC   PO421108  31.950  18.322   9.615
 1299POPC   GL121109  32.127  18.418   9.188
 1299POPC   GL221110  32.492  18.557   9.112
 1299POPC   C1A21111  32.172  18.333   8.740
 1299POPC   D2A21112  32.163  18.512   8.330
 1299POPC   C3A21113  32.148  18.182   8.037
 1299POPC   C4A21114  31.977  18.207   7.652
 1299POPC   C1B21115  32.698  18.319   8.757
 1299POPC   C2B21116  32.659  18.345   8.318
 1299POPC   C3B21117  32.521  18.516   7.941
 1299POPC   C4B21118  32.586  18.201   7.662
 1300POPC   NC321119  41.797  20.945   9.573
 1300POPC   PO421120  41.214  20.607   9.464
 1300POPC   GL121121  41.516  20.530   9.144
 1300POPC   GL221122  41.783  20.784   9.088
 1300POPC   C1A21123  41.568  20.479   8.698
 1300POPC   D2A21124  41.774  20.604   8.302
 1300POPC   C3A21125  41.577  20.534   7.919
 1300POPC   C4A21126  41.471  20.726   7.541
 1300POPC   C1B21127  41.837  20.957   8.664
 1300POPC   C2B21128  41.866  21.120   8.220
 1300POPC   C3B21129  41.803  21.017   7.790
 1300POPC   C4B21130  41.768  21.040   7.293
 1301POPC   NC321131  37.133  39.558   9.356
 1301POPC   PO421132  36.712  39.058   9.425
 1301POPC   GL121133  36.878  39.224   9.058
 1301POPC   GL221134  37.187  39.054   9.096
 1301POPC   C1A21135  36.879  39.425   8.658
 1301POPC   D2A21136  36.594  39.310   8.308
 1301POPC   C3A21137  36.732  39.412   7.892
 1301POPC   C4A21138  36.689  39.485   7.452
 1301POPC   C1B21139  37.095  38.932   8.681
 1301POPC   C2B21140  37.135  39.189   8.290
 1301POPC   C3B21141  37.195  39.178   7.864
 1301POPC   C4B21142  37.265  39.412   7.521
 1302POPC   NC321143   8.335   5.198   9.991
 1302POPC   PO421144   8.325   4.710   9.612
 1302POPC   GL121145   8.165   4.957   9.256
 1302POPC   GL221146   7.853   5.170   9.315
 1302POPC   C1A21147   8.164   4.841   8.783
 1302POPC   D2A21148   7.905   4.872   8.393
 1302POPC   C3A21149   8.048   4.844   7.972
 1302POPC   C4A21150   8.284   4.933   7.597
 1302POPC   C1B21151   8.116   5.379   8.971
 1302POPC   C2B21152   8.145   5.318   8.510
 1302POPC   C3B21153   8.011   5.395   8.063
 1302POPC   C4B21154   8.128   5.417   7.619
 1303POPC   NC321155   8.499  37.783   9.474
 1303POPC   PO421156   7.980  37.422   9.516
 1303POPC   GL121157   7.953  37.619   9.123
 1303POPC   GL221158   8.326  37.562   9.047
 1303POPC   C1A21159   8.044  37.784   8.710
 1303POPC   D2A21160   8.398  37.541   8.509
 1303POPC   C3A21161   8.341  37.576   8.058
 1303POPC   C4A21162   8.037  37.846   7.892
 1303POPC   C1B21163   8.512  37.949   8.817
 1303POPC   C2B21164   8.375  38.057   8.388
 1303POPC   C3B21165   8.561  38.064   7.976
 1303POPC   C4B21166   8.628  37.725   7.655
 1304POPC   NC321167  29.359  10.919   9.540
 1304POPC   PO421168  29.104  11.590   9.458
 1304POPC   GL121169  28.970  11.416   9.072
 1304POPC   GL221170  29.069  11.098   9.157
 1304POPC   C1A21171  29.082  11.400   8.641
 1304POPC   D2A21172  29.384  11.607   8.376
 1304POPC   C3A21173  29.188  11.696   7.994
 1304POPC   C4A21174  28.789  11.533   7.908
 1304POPC   C1B21175  29.267  10.919   8.812
 1304POPC   C2B21176  29.458  10.959   8.386
 1304POPC   C3B21177  29.272  11.190   8.057
 1304POPC   C4B21178  29.112  11.171   7.639
 1305POPC   NC321179   4.421  30.499   9.808
 1305POPC   PO421180   3.957  30.937   9.610
 1305POPC   GL121181   4.211  30.680   9.260
 1305POPC   GL221182   4.465  30.390   9.299
 1305POPC   C1A21183   4.096  30.592   8.801
 1305POPC   D2A21184   3.964  30.489   8.360
 1305POPC   C3A21185   4.263  30.670   8.043
 1305POPC   C4A21186   4.217  30.689   7.573
 1305POPC   C1B21187   4.599  30.485   8.861
 1305POPC   C2B21188   4.618  30.625   8.443
 1305POPC   C3B21189   4.712  30.405   8.066
 1305POPC   C4B21190   4.523  30.287   7.660
 1306POPC   NC321191  38.759  14.601   9.538
 1306POPC   PO421192  38.212  14.192   9.495
 1306POPC   GL121193  38.429  14.438   9.188
 1306POPC   GL221194  38.182  14.299   8.972
 1306POPC   C1A21195  38.444  14.679   8.788
 1306POPC   D2A21196  38.193  14.597   8.377
 1306POPC   C3A21197  38.325  14.624   7.925
 1306POPC   C4A21198  38.547  14.639   7.510
 1306POPC   C1B21199  38.570  14.184   8.761
 1306POPC   C2B21200  38.621  14.020   8.385
 1306POPC   C3B21201  38.452  14.120   8.008
 1306POPC   C4B21202  38.605  14.156   7.580
 1307POPC   NC321203  24.687  13.790   9.513
 1307POPC   PO421204  24.274  13.268   9.468
 1307POPC   GL121205  24.331  13.518   9.117
 1307POPC   GL221206  24.521  13.774   9.052
 1307POPC   C1A21207  24.475  13.446   8.670
 1307POPC   D2A21208  24.302  13.636   8.319
 1307POPC   C3A21209  24.325  13.444   7.951
 1307POPC   C4A21210  24.230  13.479   7.542
 1307POPC   C1B21211  24.246  13.920   8.760
 1307POPC   C2B21212  24.307  14.131   8.353
 1307POPC   C3B21213  24.474  13.975   7.944
 1307POPC   C4B21214  24.589  14.037   7.495
 1308POPC   NC321215  26.627  23.714   9.504
 1308POPC   PO421216  27.271  23.823   9.578
 1308POPC   GL121217  27.020  23.803   9.165
 1308POPC   GL221218  26.765  23.511   9.051
 1308POPC   C1A21219  26.853  23.916   8.745
 1308POPC   D2A21220  26.653  23.671   8.458
 1308POPC   C3A21221  26.744  23.508   8.037
 1308POPC   C4A21222  26.853  23.803   7.726
 1308POPC   C1B21223  26.358  23.719   8.868
 1308POPC   C2B21224  26.260  24.003   8.491
 1308POPC   C3B21225  26.390  23.888   8.059
 1308POPC   C4B21226  26.329  23.714   7.656
 1309POPC   NC321227  13.873  24.090   9.384
 1309POPC   PO421228  13.935  24.742   9.490
 1309POPC   GL121229  14.218  24.572   9.202
 1309POPC   GL221230  13.924  24.492   9.041
 1309POPC   C1A21231  14.346  24.672   8.763
 1309POPC   D2A21232  14.571  24.595   8.383
 1309POPC   C3A21233  14.384  24.436   8.001
 1309POPC   C4A21234  14.266  24.613   7.573
 1309POPC   C1B21235  13.824  24.673   8.674
 1309POPC   C2B21236  14.049  24.644   8.328
 1309POPC   C3B21237  14.113  24.887   7.990
 1309POPC   C4B21238  13.862  24.949   7.626
 1310POPC   NC321239  37.292  32.419   9.584
 1310POPC   PO421240  36.660  32.260   9.690
 1310POPC   GL121241  36.708  32.377   9.208
 1310POPC   GL221242  37.065  32.402   9.111
 1310POPC   C1A21243  36.754  32.232   8.741
 1310POPC   D2A21244  36.564  32.117   8.345
 1310POPC   C3A21245  36.645  32.225   7.892
 1310POPC   C4A21246  36.648  32.017   7.476
 1310POPC   C1B21247  37.279  32.272   8.748
 1310POPC   C2B21248  37.154  32.191   8.357
 1310POPC   C3B21249  37.171  32.353   7.961
 1310POPC   C4B21250  37.104  32.181   7.580
 1311POPC   NC321251  35.385  29.770   9.528
 1311POPC   PO421252  35.078  30.401   9.506
 1311POPC   GL121253  35.301  30.107   9.144
 1311POPC   GL221254  35.137  30.082   8.860
 1311POPC   C1A21255  35.496  29.751   8.863
 1311POPC   D2A21256  35.508  29.926   8.444
 1311POPC   C3A21257  35.607  29.750   8.044
 1311POPC   C4A21258  35.466  29.908   7.657
 1311POPC   C1B21259  34.849  29.825   8.657
 1311POPC   C2B21260  34.792  29.653   8.291
 1311POPC   C3B21261  35.102  29.752   8.012
 1311POPC   C4B21262  35.268  29.395   7.837
 1312POPC   NC321263  32.443   9.556   9.529
 1312POPC   PO421264  32.185  10.177   9.721
 1312POPC   GL121265  32.062   9.953   9.305
 1312POPC   GL221266  32.355   9.819   9.123
 1312POPC   C1A21267  31.958   9.855   8.834
 1312POPC   D2A21268  32.224   9.963   8.477
 1312POPC   C3A21269  32.145   9.831   8.058
 1312POPC   C4A21270  32.167   9.780   7.611
 1312POPC   C1B21271  32.491   9.578   8.763
 1312POPC   C2B21272  32.497   9.549   8.310
 1312POPC   C3B21273  32.503   9.467   7.871
 1312POPC   C4B21274  32.497   9.443   7.417
 1313POPC   NC321275  27.480  29.167   9.662
 1313POPC   PO421276  27.994  29.377   9.283
 1313POPC   GL121277  27.634  29.329   9.134
 1313POPC   GL221278  27.560  29.043   9.189
 1313POPC   C1A21279  27.435  29.395   8.796
 1313POPC   D2A21280  27.379  29.227   8.385
 1313POPC   C3A21281  27.682  29.340   8.078
 1313POPC   C4A21282  27.503  29.218   7.705
 1313POPC   C1B21283  27.577  28.917   8.779
 1313POPC   C2B21284  27.362  28.707   8.448
 1313POPC   C3B21285  27.352  28.838   8.035
 1313POPC   C4B21286  27.337  28.717   7.614
 1314POPC   NC321287  27.065  22.051   9.801
 1314POPC   PO421288  26.541  22.461   9.696
 1314POPC   GL121289  26.765  22.290   9.329
 1314POPC   GL221290  27.037  22.472   9.145
 1314POPC   C1A21291  26.739  22.131   8.887
 1314POPC   D2A21292  26.878  21.997   8.474
 1314POPC   C3A21293  26.669  22.079   8.084
 1314POPC   C4A21294  26.786  22.087   7.622
 1314POPC   C1B21295  27.035  22.525   8.686
 1314POPC   C2B21296  26.888  22.573   8.269
 1314POPC   C3B21297  26.646  22.523   7.862
 1314POPC   C4B21298  26.215  22.485   7.689
 1315POPC   NC321299   1.319   4.677   9.386
 1315POPC   PO421300   1.485   4.056   9.503
 1315POPC   GL121301   1.281   4.158   9.129
 1315POPC   GL221302   0.991   3.991   9.221
 1315POPC   C1A21303   1.236   4.429   8.750
 1315POPC   D2A21304   1.424   4.319   8.370
 1315POPC   C3A21305   1.495   4.494   7.979
 1315POPC   C4A21306   1.531   4.183   7.702
 1315POPC   C1B21307   0.843   4.099   8.814
 1315POPC   C2B21308   0.870   4.265   8.407
 1315POPC   C3B21309   1.049   4.211   8.038
 1315POPC   C4B21310   1.047   4.463   7.722
 1316POPC   NC321311   5.099  42.603   9.387
 1316POPC   PO421312   5.300  41.979   9.380
 1316POPC   GL121313   5.307  42.179   9.028
 1316POPC   GL221314   5.092  42.446   8.920
 1316POPC   C1A21315   5.185  42.010   8.659
 1316POPC   D2A21316   5.028  42.246   8.358
 1316POPC   C3A21317   5.189  42.120   7.995
 1316POPC   C4A21318   5.301  41.841   7.686
 1316POPC   C1B21319   4.750  42.558   8.704
 1316POPC   C2B21320   4.800  42.708   8.341
 1316POPC   C3B21321   4.979  42.601   7.967
 1316POPC   C4B21322   4.716  42.616   7.609
 1317POPC   NC321323  44.916  17.253   9.835
 1317POPC   PO421324   0.526  17.736   9.856
 1317POPC   GL121325   0.485  17.699   9.382
 1317POPC   GL221326   0.146  17.604   9.272
 1317POPC   C1A21327   0.561  17.681   8.914
 1317POPC   D2A21328   0.667  17.524   8.472
 1317POPC   C3A21329   0.678  17.679   8.032
 1317POPC   C4A21330   0.512  17.296   7.776
 1317POPC   C1B21331   0.063  17.842   8.888
 1317POPC   C2B21332   0.279  17.847   8.485
 1317POPC   C3B21333   0.199  17.588   8.113
 1317POPC   C4B21334   0.067  17.749   7.728
 1318POPC   NC321335  40.580  29.810   9.513
 1318POPC   PO421336  41.164  30.214   9.539
 1318POPC   GL121337  40.935  29.982   9.201
 1318POPC   GL221338  40.596  30.152   9.167
 1318POPC   C1A21339  40.769  29.842   8.779
 1318POPC   D2A21340  40.943  29.639   8.400
 1318POPC   C3A21341  40.727  29.576   7.998
 1318POPC   C4A21342  40.917  29.546   7.547
 1318POPC   C1B21343  40.431  30.223   8.806
 1318POPC   C2B21344  40.620  30.271   8.466
 1318POPC   C3B21345  40.543  30.156   8.075
 1318POPC   C4B21346  40.648  29.963   7.680
 1319POPC   NC321347  36.401  16.673   9.742
 1319POPC   PO421348  36.999  16.613   9.488
 1319POPC   GL121349  36.911  16.481   9.085
 1319POPC   GL221350  37.151  16.235   9.118
 1319POPC   C1A21351  37.043  16.668   8.702
 1319POPC   D2A21352  36.959  17.033   8.423
 1319POPC   C3A21353  36.883  16.948   7.993
 1319POPC   C4A21354  36.711  16.729   7.623
 1319POPC   C1B21355  37.202  16.179   8.711
 1319POPC   C2B21356  36.968  16.146   8.349
 1319POPC   C3B21357  36.919  16.439   8.035
 1319POPC   C4B21358  37.187  16.632   7.700
 1320POPC   NC321359   2.558  42.173   9.459
 1320POPC   PO421360   3.139  41.811   9.429
 1320POPC   GL121361   2.951  42.095   9.138
 1320POPC   GL221362   3.059  42.401   9.021
 1320POPC   C1A21363   2.684  42.177   8.792
 1320POPC   D2A21364   2.899  42.377   8.468
 1320POPC   C3A21365   2.819  42.259   8.065
 1320POPC   C4A21366   2.729  42.099   7.689
 1320POPC   C1B21367   3.222  42.666   8.736
 1320POPC   C2B21368   3.264  42.742   8.300
 1320POPC   C3B21369   3.066  42.675   7.908
 1320POPC   C4B21370   2.660  42.645   7.694
 1321POPC   NC321371  44.642   5.464   9.587
 1321POPC   PO421372  44.699   6.112   9.469
 1321POPC   GL121373  44.687   5.749   9.140
 1321POPC   GL221374  44.991   5.607   8.972
 1321POPC   C1A21375  44.544   5.785   8.702
 1321POPC   D2A21376  44.677   6.104   8.382
 1321POPC   C3A21377  44.692   6.022   7.948
 1321POPC   C4A21378  44.369   6.100   7.701
 1321POPC   C1B21379   0.050   5.935   8.698
 1321POPC   C2B21380   0.180   5.944   8.282
 1321POPC   C3B21381   0.124   5.751   7.899
 1321POPC   C4B21382  44.778   5.512   7.764
 1322POPC   NC321383  42.340   9.301   9.406
 1322POPC   PO421384  42.675   8.807   9.202
 1322POPC   GL121385  42.243   8.736   9.036
 1322POPC   GL221386  42.099   9.064   9.005
 1322POPC   C1A21387  41.956   8.684   8.657
 1322POPC   D2A21388  41.849   8.783   8.204
 1322POPC   C3A21389  42.174   8.736   7.903
 1322POPC   C4A21390  42.649   8.759   7.906
 1322POPC   C1B21391  42.378   9.075   8.648
 1322POPC   C2B21392  42.278   9.126   8.222
 1322POPC   C3B21393  42.485   9.263   7.859
 1322POPC   C4B21394  42.743   9.279   7.504
 1323POPC   NC321395  30.649   1.879   9.514
 1323POPC   PO421396  31.366   1.974   9.700
 1323POPC   GL121397  31.152   1.939   9.218
 1323POPC   GL221398  30.911   1.748   9.097
 1323POPC   C1A21399  31.077   2.073   8.762
 1323POPC   D2A21400  31.037   2.339   8.376
 1323POPC   C3A21401  30.732   2.140   8.111
 1323POPC   C4A21402  30.802   2.005   7.699
 1323POPC   C1B21403  30.875   1.536   8.748
 1323POPC   C2B21404  30.679   1.724   8.434
 1323POPC   C3B21405  30.674   1.623   8.018
 1323POPC   C4B21406  30.783   1.488   7.615
 1324POPC   NC321407  24.133  30.873   9.413
 1324POPC   PO421408  23.423  30.918   9.396
 1324POPC   GL121409  23.528  30.704   8.988
 1324POPC   GL221410  23.888  30.651   9.013
 1324POPC   C1A21411  23.520  30.383   8.647
 1324POPC   D2A21412  23.451  30.348   8.176
 1324POPC   C3A21413  23.667  30.602   7.906
 1324POPC   C4A21414  23.537  30.601   7.493
 1324POPC   C1B21415  23.865  30.739   8.564
 1324POPC   C2B21416  23.980  30.386   8.307
 1324POPC   C3B21417  24.174  30.501   7.935
 1324POPC   C4B21418  24.066  30.906   7.717
 1325POPC   NC321419   7.580   7.659   9.504
 1325POPC   PO421420   8.025   7.144   9.419
 1325POPC   GL121421   7.875   7.446   9.092
 1325POPC   GL221422   7.677   7.791   9.035
 1325POPC   C1A21423   7.971   7.263   8.684
 1325POPC   D2A21424   8.040   7.151   8.270
 1325POPC   C3A21425   8.297   7.416   7.984
 1325POPC   C4A21426   8.301   7.322   7.531
 1325POPC   C1B21427   7.844   7.738   8.638
 1325POPC   C2B21428   7.886   7.666   8.206
 1325POPC   C3B21429   7.885   7.615   7.773
 1325POPC   C4B21430   8.054   7.782   7.397
 1326POPC   NC321431  40.490  19.482   9.843
 1326POPC   PO421432  41.048  19.816   9.491
 1326POPC   GL121433  40.877  19.671   9.116
 1326POPC   GL221434  40.807  19.999   9.008
 1326POPC   C1A21435  40.888  19.631   8.663
 1326POPC   D2A21436  40.725  19.889   8.341
 1326POPC   C3A21437  40.841  19.767   7.908
 1326POPC   C4A21438  40.952  19.375   7.716
 1326POPC   C1B21439  40.559  20.216   8.727
 1326POPC   C2B21440  40.560  20.366   8.306
 1326POPC   C3B21441  40.726  20.268   7.948
 1326POPC   C4B21442  40.408  20.087   7.749
 1327POPC   NC321443  14.908   4.586   9.504
 1327POPC   PO421444  15.418   4.370   9.682
 1327POPC   GL121445  15.151   4.305   9.177
 1327POPC   GL221446  15.022   4.611   9.025
 1327POPC   C1A21447  15.209   4.195   8.729
 1327POPC   D2A21448  15.346   4.078   8.315
 1327POPC   C3A21449  15.225   4.197   7.898
 1327POPC   C4A21450  15.089   4.025   7.486
 1327POPC   C1B21451  15.111   4.719   8.636
 1327POPC   C2B21452  15.194   4.569   8.273
 1327POPC   C3B21453  14.927   4.611   7.961
 1327POPC   C4B21454  14.919   4.725   7.532
 1328POPC   NC321455  26.811  12.522   9.768
 1328POPC   PO421456  26.832  13.107   9.418
 1328POPC   GL121457  26.756  12.876   9.075
 1328POPC   GL221458  26.759  12.565   9.241
 1328POPC   C1A21459  26.817  12.950   8.646
 1328POPC   D2A21460  26.703  13.134   8.254
 1328POPC   C3A21461  26.804  12.978   7.850
 1328POPC   C4A21462  26.707  13.161   7.430
 1328POPC   C1B21463  26.985  12.506   8.822
 1328POPC   C2B21464  26.963  12.560   8.342
 1328POPC   C3B21465  27.041  12.498   7.883
 1328POPC   C4B21466  26.855  12.366   7.484
 1329POPC   NC321467  11.561   3.290   9.471
 1329POPC   PO421468  11.224   3.805   9.632
 1329POPC   GL121469  11.114   3.507   9.267
 1329POPC   GL221470  10.897   3.211   9.171
 1329POPC   C1A21471  11.222   3.594   8.827
 1329POPC   D2A21472  11.144   3.464   8.380
 1329POPC   C3A21473  11.244   3.676   7.991
 1329POPC   C4A21474  11.628   3.731   7.719
 1329POPC   C1B21475  11.109   3.107   8.775
 1329POPC   C2B21476  11.318   2.977   8.382
 1329POPC   C3B21477  11.412   3.177   7.980
 1329POPC   C4B21478  11.293   3.381   7.561
 1330POPC   NC321479  28.336  29.693   9.352
 1330POPC   PO421480  28.582  30.333   9.485
 1330POPC   GL121481  28.474  30.194   9.078
 1330POPC   GL221482  28.120  30.105   9.105
 1330POPC   C1A21483  28.415  30.028   8.648
 1330POPC   D2A21484  28.422  29.621   8.409
 1330POPC   C3A21485  28.512  29.565   7.983
 1330POPC   C4A21486  28.271  29.624   7.645
 1330POPC   C1B21487  28.124  30.438   8.771
 1330POPC   C2B21488  28.092  30.349   8.336
 1330POPC   C3B21489  28.264  30.023   8.088
 1330POPC   C4B21490  28.539  30.071   7.750
 1331POPC   NC321491  14.782  11.320  10.047
 1331POPC   PO421492  14.283  11.555   9.728
 1331POPC   GL121493  14.311  11.371   9.304
 1331POPC   GL221494  14.622  11.317   9.169
 1331POPC   C1A21495  14.282  11.471   8.830
 1331POPC   D2A21496  14.490  11.486   8.416
 1331POPC   C3A21497  14.242  11.459   8.029
 1331POPC   C4A21498  14.270  11.266   7.625
 1331POPC   C1B21499  14.837  11.144   8.767
 1331POPC   C2B21500  14.813  11.082   8.296
 1331POPC   C3B21501  14.758  11.344   7.925
 1331POPC   C4B21502  14.754  11.337   7.471
 1332POPC   NC321503  28.555  35.079   9.586
 1332POPC   PO421504  28.221  34.473   9.597
 1332POPC   GL121505  28.459  34.492   9.242
 1332POPC   GL221506  28.553  34.165   9.186
 1332POPC   C1A21507  28.471  34.734   8.861
 1332POPC   D2A21508  28.230  34.774   8.483
 1332POPC   C3A21509  28.457  34.601   8.139
 1332POPC   C4A21510  28.495  34.713   7.716
 1332POPC   C1B21511  28.806  34.352   8.865
 1332POPC   C2B21512  28.747  34.232   8.445
 1332POPC   C3B21513  28.695  34.098   8.052
 1332POPC   C4B21514  28.669  34.231   7.674
 1333POPC   NC321515   4.914  37.822   9.507
 1333POPC   PO421516   5.566  37.801   9.447
 1333POPC   GL121517   5.300  37.533   9.154
 1333POPC   GL221518   4.942  37.422   9.182
 1333POPC   C1A21519   5.157  37.626   8.711
 1333POPC   D2A21520   5.242  37.563   8.242
 1333POPC   C3A21521   5.132  37.834   7.861
 1333POPC   C4A21522   5.003  37.945   7.392
 1333POPC   C1B21523   4.652  37.591   8.845
 1333POPC   C2B21524   4.747  37.554   8.408
 1333POPC   C3B21525   4.834  37.388   7.983
 1333POPC   C4B21526   4.664  37.678   7.671
 1334POPC   NC321527  29.596  27.743   9.672
 1334POPC   PO421528  29.058  27.592   9.633
 1334POPC   GL121529  28.902  27.567   9.182
 1334POPC   GL221530  28.620  27.346   9.129
 1334POPC   C1A21531  28.761  27.662   8.720
 1334POPC   D2A21532  28.873  27.827   8.291
 1334POPC   C3A21533  28.917  27.626   7.875
 1334POPC   C4A21534  29.205  27.364   7.586
 1334POPC   C1B21535  28.964  27.213   8.819
 1334POPC   C2B21536  29.111  27.345   8.397
 1334POPC   C3B21537  29.000  27.141   8.006
 1334POPC   C4B21538  28.721  27.176   7.647
 1335POPC   NC321539  32.051  31.079   9.829
 1335POPC   PO421540  32.608  30.743   9.593
 1335POPC   GL121541  32.369  30.869   9.197
 1335POPC   GL221542  32.027  30.716   9.075
 1335POPC   C1A21543  32.424  30.786   8.760
 1335POPC   D2A21544  32.294  30.884   8.375
 1335POPC   C3A21545  32.110  30.611   8.124
 1335POPC   C4A21546  32.153  30.743   7.721
 1335POPC   C1B21547  31.974  30.532   8.667
 1335POPC   C2B21548  31.685  30.397   8.341
 1335POPC   C3B21549  31.721  30.324   7.881
 1335POPC   C4B21550  31.752  30.552   7.486
 1336POPC   NC321551  28.162   0.187   9.509
 1336POPC   PO421552  28.378   0.794   9.718
 1336POPC   GL121553  28.464   0.504   9.257
 1336POPC   GL221554  28.670   0.189   9.230
 1336POPC   C1A21555  28.261   0.379   8.828
 1336POPC   D2A21556  28.030   0.513   8.438
 1336POPC   C3A21557  28.238   0.499   8.015
 1336POPC   C4A21558  28.401   0.680   7.604
 1336POPC   C1B21559  28.684   0.112   8.763
 1336POPC   C2B21560  28.344   0.087   8.403
 1336POPC   C3B21561  28.473   0.064   7.956
 1336POPC   C4B21562  28.546   0.196   7.541
 1337POPC   NC321563   2.379   8.971   9.449
 1337POPC   PO421564   1.796   9.093   9.475
 1337POPC   GL121565   1.929   8.849   9.104
 1337POPC   GL221566   2.277   8.702   9.031
 1337POPC   C1A21567   1.922   8.794   8.649
 1337POPC   D2A21568   1.929   8.548   8.267
 1337POPC   C3A21569   1.752   8.867   7.968
 1337POPC   C4A21570   2.031   9.195   7.769
 1337POPC   C1B21571   2.376   8.565   8.594
 1337POPC   C2B21572   2.431   8.633   8.180
 1337POPC   C3B21573   2.221   8.726   7.797
 1337POPC   C4B21574   2.255   8.917   7.355
 1338POPC   NC321575  23.956  26.563   9.411
 1338POPC   PO421576  24.498  26.809   9.506
 1338POPC   GL121577  24.544  26.699   9.089
 1338POPC   GL221578  24.203  26.827   9.056
 1338POPC   C1A21579  24.494  26.764   8.639
 1338POPC   D2A21580  24.348  26.553   8.291
 1338POPC   C3A21581  24.520  26.598   7.897
 1338POPC   C4A21582  24.296  26.472   7.559
 1338POPC   C1B21583  24.154  27.133   8.744
 1338POPC   C2B21584  24.241  27.292   8.324
 1338POPC   C3B21585  24.472  27.153   7.950
 1338POPC   C4B21586  24.438  26.961   7.526
 1339POPC   NC321587   1.716   1.788   9.389
 1339POPC   PO421588   1.165   2.242   9.426
 1339POPC   GL121589   1.257   1.921   9.150
 1339POPC   GL221590   1.544   2.134   9.062
 1339POPC   C1A21591   1.084   1.786   8.747
 1339POPC   D2A21592   1.174   1.607   8.342
 1339POPC   C3A21593   1.267   1.816   7.963
 1339POPC   C4A21594   1.217   2.109   7.647
 1339POPC   C1B21595   1.260   2.275   8.770
 1339POPC   C2B21596   1.334   2.109   8.380
 1339POPC   C3B21597   1.477   2.312   8.027
 1339POPC   C4B21598   1.671   2.326   7.636
 1340POPC   NC321599  30.103  41.085   9.455
 1340POPC   PO421600  29.795  40.464   9.597
 1340POPC   GL121601  29.833  40.713   9.159
 1340POPC   GL221602  30.115  40.928   8.976
 1340POPC   C1A21603  29.759  40.760   8.679
 1340POPC   D2A21604  30.029  40.926   8.314
 1340POPC   C3A21605  29.839  40.941   7.876
 1340POPC   C4A21606  29.464  40.726   7.685
 1340POPC   C1B21607  30.368  40.638   8.701
 1340POPC   C2B21608  30.403  40.550   8.272
 1340POPC   C3B21609  30.134  40.544   7.936
 1340POPC   C4B21610  30.175  40.746   7.516
 1341POPC   NC321611  19.471  30.432   9.577
 1341POPC   PO421612  20.063  30.692   9.550
 1341POPC   GL121613  20.089  30.837   9.120
 1341POPC   GL221614  19.743  30.710   9.050
 1341POPC   C1A21615  20.145  30.701   8.692
 1341POPC   D2A21616  19.757  30.626   8.464
 1341POPC   C3A21617  19.567  30.877   8.139
 1341POPC   C4A21618  19.876  30.782   7.847
 1341POPC   C1B21619  19.438  30.442   8.828
 1341POPC   C2B21620  19.498  30.192   8.438
 1341POPC   C3B21621  19.571  30.379   8.041
 1341POPC   C4B21622  19.479  30.578   7.614
 1342POPC   NC321623  19.393  27.275   9.427
 1342POPC   PO421624  20.040  27.534   9.554
 1342POPC   GL121625  19.926  27.818   9.223
 1342POPC   GL221626  19.581  27.761   9.172
 1342POPC   C1A21627  19.998  27.817   8.779
 1342POPC   D2A21628  19.831  27.450   8.560
 1342POPC   C3A21629  19.819  27.352   8.120
 1342POPC   C4A21630  19.996  27.095   7.792
 1342POPC   C1B21631  19.495  27.896   8.760
 1342POPC   C2B21632  19.535  27.845   8.328
 1342POPC   C3B21633  19.654  27.789   7.917
 1342POPC   C4B21634  19.561  27.439   7.688
 1343POPC   NC321635  34.007  28.848   9.590
 1343POPC   PO421636  33.594  29.348   9.641
 1343POPC   GL121637  33.899  29.298   9.241
 1343POPC   GL221638  34.070  29.007   9.114
 1343POPC   C1A21639  34.037  29.413   8.821
 1343POPC   D2A21640  33.863  29.144   8.486
 1343POPC   C3A21641  33.952  29.329   8.093
 1343POPC   C4A21642  33.977  29.587   7.748
 1343POPC   C1B21643  34.274  28.933   8.712
 1343POPC   C2B21644  34.133  28.759   8.296
 1343POPC   C3B21645  33.809  28.850   7.999
 1343POPC   C4B21646  33.967  29.059   7.652
 1344POPC   NC321647  18.786   4.042   9.534
 1344POPC   PO421648  18.070   4.109   9.449
 1344POPC   GL121649  18.409   4.222   9.203
 1344POPC   GL221650  18.628   3.982   9.066
 1344POPC   C1A21651  18.344   4.391   8.826
 1344POPC   D2A21652  18.084   4.291   8.484
 1344POPC   C3A21653  18.173   4.546   8.147
 1344POPC   C4A21654  18.436   4.563   7.766
 1344POPC   C1B21655  18.447   3.918   8.659
 1344POPC   C2B21656  18.331   3.903   8.232
 1344POPC   C3B21657  18.290   4.096   7.860
 1344POPC   C4B21658  18.642   4.088   7.542
 1345POPC   NC321659  34.793  41.290   9.781
 1345POPC   PO421660  35.359  41.400   9.452
 1345POPC   GL121661  35.349  41.405   9.040
 1345POPC   GL221662  35.409  41.776   9.066
 1345POPC   C1A21663  35.339  41.532   8.614
 1345POPC   D2A21664  35.237  41.423   8.219
 1345POPC   C3A21665  35.200  41.797   8.006
 1345POPC   C4A21666  35.377  41.807   7.639
 1345POPC   C1B21667  35.617  42.015   8.754
 1345POPC   C2B21668  35.491  42.004   8.369
 1345POPC   C3B21669  35.620  42.140   7.988
 1345POPC   C4B21670  35.859  41.986   7.691
 1346POPC   NC321671   1.824  43.694   9.513
 1346POPC   PO421672   2.202  44.248   9.453
 1346POPC   GL121673   2.132  43.913   9.139
 1346POPC   GL221674   1.781  43.952   9.065
 1346POPC   C1A21675   2.064  43.807   8.664
 1346POPC   D2A21676   1.834  44.048   8.320
 1346POPC   C3A21677   1.966  44.021   7.872
 1346POPC   C4A21678   1.802  44.309   7.529
 1346POPC   C1B21679   1.545  43.776   8.712
 1346POPC   C2B21680   1.676  43.562   8.324
 1346POPC   C3B21681   2.090  43.576   8.145
 1346POPC   C4B21682   2.277  43.556   7.711
 1347POPC   NC321683  15.885  41.791   9.543
 1347POPC   PO421684  16.294  41.337   9.484
 1347POPC   GL121685  16.040  41.494   9.156
 1347POPC   GL221686  16.218  41.784   9.116
 1347POPC   C1A21687  15.767  41.327   8.807
 1347POPC   D2A21688  15.908  41.334   8.379
 1347POPC   C3A21689  15.701  41.260   7.999
 1347POPC   C4A21690  15.760  41.385   7.560
 1347POPC   C1B21691  16.203  41.618   8.689
 1347POPC   C2B21692  16.172  41.774   8.276
 1347POPC   C3B21693  16.060  41.721   7.849
 1347POPC   C4B21694  16.269  42.058   7.612
 1348POPC   NC321695  28.169  30.521   9.437
 1348POPC   PO421696  27.958  31.093   9.666
 1348POPC   GL121697  28.169  31.003   9.272
 1348POPC   GL221698  28.547  30.919   9.223
 1348POPC   C1A21699  28.200  30.981   8.814
 1348POPC   D2A21700  27.992  30.850   8.430
 1348POPC   C3A21701  28.210  30.873   8.065
 1348POPC   C4A21702  28.193  30.485   7.840
 1348POPC   C1B21703  28.589  30.659   8.878
 1348POPC   C2B21704  28.522  30.646   8.432
 1348POPC   C3B21705  28.653  30.619   7.985
 1348POPC   C4B21706  28.777  30.664   7.579
 1349POPC   NC321707  12.909  27.409   9.593
 1349POPC   PO421708  13.036  26.744   9.635
 1349POPC   GL121709  13.034  26.587   9.227
 1349POPC   GL221710  12.683  26.556   9.164
 1349POPC   C1A21711  13.201  26.680   8.819
 1349POPC   D2A21712  13.097  26.936   8.435
 1349POPC   C3A21713  13.135  26.795   7.988
 1349POPC   C4A21714  12.836  26.901   7.636
 1349POPC   C1B21715  12.748  26.515   8.694
 1349POPC   C2B21716  13.040  26.424   8.332
 1349POPC   C3B21717  12.928  26.340   7.870
 1349POPC   C4B21718  12.567  26.434   7.574
 1350POPC   NC321719  15.442  13.844   9.793
 1350POPC   PO421720  15.979  13.527   9.543
 1350POPC   GL121721  15.779  13.718   9.194
 1350POPC   GL221722  15.774  13.375   9.049
 1350POPC   C1A21723  15.723  13.786   8.746
 1350POPC   D2A21724  15.750  13.407   8.487
 1350POPC   C3A21725  15.666  13.555   8.076
 1350POPC   C4A21726  15.762  13.982   7.855
 1350POPC   C1B21727  16.155  13.528   8.837
 1350POPC   C2B21728  16.225  13.811   8.476
 1350POPC   C3B21729  16.246  13.841   8.021
 1350POPC   C4B21730  16.032  13.579   7.699
 1351POPC   NC321731   0.874  44.455   9.497
 1351POPC   PO421732   1.405  44.884   9.487
 1351POPC   GL121733   1.231  44.943   9.092
 1351POPC   GL221734   1.045  44.655   9.050
 1351POPC   C1A21735   1.258  44.882   8.641
 1351POPC   D2A21736   1.048  44.578   8.364
 1351POPC   C3A21737   1.349  44.376   8.107
 1351POPC   C4A21738   1.480  44.628   7.758
 1351POPC   C1B21739   0.805  44.374   8.780
 1351POPC   C2B21740   0.775  44.120   8.392
 1351POPC   C3B21741   0.845  44.249   7.968
 1351POPC   C4B21742   0.966  44.655   7.788
 1352POPC   NC321743  33.708  17.166   9.344
 1352POPC   PO421744  33.669  17.852   9.282
 1352POPC   GL121745  33.687  17.531   8.976
 1352POPC   GL221746  34.030  17.595   8.994
 1352POPC   C1A21747  33.908  17.193   8.699
 1352POPC   D2A21748  34.079  17.194   8.265
 1352POPC   C3A21749  33.841  17.536   8.048
 1352POPC   C4A21750  33.498  17.526   7.731
 1352POPC   C1B21751  34.130  17.972   8.748
 1352POPC   C2B21752  34.146  17.932   8.299
 1352POPC   C3B21753  33.961  18.030   7.923
 1352POPC   C4B21754  33.971  17.742   7.591
 1353POPC   NC321755  34.489  31.765   9.788
 1353POPC   PO421756  34.663  31.297   9.349
 1353POPC   GL121757  34.568  31.614   9.058
 1353POPC   GL221758  34.220  31.676   8.973
 1353POPC   C1A21759  34.611  31.501   8.641
 1353POPC   D2A21760  34.844  31.656   8.296
 1353POPC   C3A21761  34.726  31.467   7.917
 1353POPC   C4A21762  34.522  31.346   7.553
 1353POPC   C1B21763  34.191  31.768   8.552
 1353POPC   C2B21764  34.042  31.844   8.173
 1353POPC   C3B21765  34.246  31.684   7.850
 1353POPC   C4B21766  34.285  31.779   7.447
 1354POPC   NC321767  27.917  26.646   9.486
 1354POPC   PO421768  27.505  27.160   9.622
 1354POPC   GL121769  27.562  26.948   9.210
 1354POPC   GL221770  27.246  26.830   9.041
 1354POPC   C1A21771  27.671  27.042   8.798
 1354POPC   D2A21772  27.578  27.215   8.401
 1354POPC   C3A21773  27.409  26.998   8.071
 1354POPC   C4A21774  27.702  27.131   7.746
 1354POPC   C1B21775  27.490  26.545   8.764
 1354POPC   C2B21776  27.687  26.547   8.355
 1354POPC   C3B21777  27.628  26.568   7.914
 1354POPC   C4B21778  27.557  26.348   7.499
 1355POPC   NC321779  41.968  39.107   9.521
 1355POPC   PO421780  42.661  38.996   9.567
 1355POPC   GL121781  42.449  39.263   9.236
 1355POPC   GL221782  42.172  39.492   9.234
 1355POPC   C1A21783  42.517  39.443   8.837
 1355POPC   D2A21784  42.357  39.399   8.448
 1355POPC   C3A21785  42.523  39.197   8.080
 1355POPC   C4A21786  42.628  39.164   7.624
 1355POPC   C1B21787  42.005  39.569   8.806
 1355POPC   C2B21788  41.852  39.429   8.407
 1355POPC   C3B21789  42.091  39.472   8.015
 1355POPC   C4B21790  42.158  39.341   7.586
 1356POPC   NC321791  23.999  29.762   9.370
 1356POPC   PO421792  24.296  30.430   9.396
 1356POPC   GL121793  24.103  30.176   9.071
 1356POPC   GL221794  23.702  30.137   9.058
 1356POPC   C1A21795  23.986  29.944   8.713
 1356POPC   D2A21796  23.683  29.958   8.383
 1356POPC   C3A21797  23.830  30.035   7.958
 1356POPC   C4A21798  23.885  29.793   7.589
 1356POPC   C1B21799  23.570  29.684   8.816
 1356POPC   C2B21800  23.366  29.567   8.372
 1356POPC   C3B21801  23.378  29.747   7.957
 1356POPC   C4B21802  23.401  29.624   7.497
 1357POPC   NC321803  11.383  17.574   9.669
 1357POPC   PO421804  10.895  17.869   9.353
 1357POPC   GL121805  11.127  17.616   9.085
 1357POPC   GL221806  11.448  17.555   9.155
 1357POPC   C1A21807  11.180  17.390   8.715
 1357POPC   D2A21808  11.127  17.584   8.317
 1357POPC   C3A21809  11.106  17.381   7.946
 1357POPC   C4A21810  11.128  17.680   7.635
 1357POPC   C1B21811  11.469  17.815   8.768
 1357POPC   C2B21812  11.621  17.768   8.358
 1357POPC   C3B21813  11.590  17.595   7.959
 1357POPC   C4B21814  11.607  17.849   7.594
 1358POPC   NC321815  35.249  18.873   9.333
 1358POPC   PO421816  35.671  19.381   9.538
 1358POPC   GL121817  35.502  19.274   9.159
 1358POPC   GL221818  35.754  19.328   8.989
 1358POPC   C1A21819  35.338  19.104   8.738
 1358POPC   D2A21820  35.460  18.831   8.388
 1358POPC   C3A21821  35.288  18.776   7.974
 1358POPC   C4A21822  35.546  18.907   7.609
 1358POPC   C1B21823  35.490  19.582   8.715
 1358POPC   C2B21824  35.397  19.451   8.348
 1358POPC   C3B21825  35.527  19.230   8.020
 1358POPC   C4B21826  35.531  19.425   7.634
 1359POPC   NC321827  44.074   3.462   9.697
 1359POPC   PO421828  43.685   3.870   9.423
 1359POPC   GL121829  43.815   3.521   9.154
 1359POPC   GL221830  44.183   3.404   9.174
 1359POPC   C1A21831  44.026   3.617   8.729
 1359POPC   D2A21832  44.127   3.741   8.303
 1359POPC   C3A21833  43.846   3.794   7.968
 1359POPC   C4A21834  43.825   3.563   7.569
 1359POPC   C1B21835  44.228   3.151   8.768
 1359POPC   C2B21836  44.314   3.248   8.328
 1359POPC   C3B21837  44.137   3.362   7.932
 1359POPC   C4B21838  44.214   3.246   7.504
 1360POPC   NC321839  29.448  34.641   9.485
 1360POPC   PO421840  30.180  34.620   9.461
 1360POPC   GL121841  30.063  34.765   9.082
 1360POPC   GL221842  29.744  34.894   9.154
 1360POPC   C1A21843  30.153  34.521   8.705
 1360POPC   D2A21844  30.287  34.212   8.374
 1360POPC   C3A21845  30.059  34.330   8.006
 1360POPC   C4A21846  29.953  34.755   7.878
 1360POPC   C1B21847  29.664  34.658   8.763
 1360POPC   C2B21848  29.574  34.759   8.316
 1360POPC   C3B21849  29.452  34.697   7.894
 1360POPC   C4B21850  29.685  34.382   7.655
 1361POPC   NC321851  30.554  29.827   9.810
 1361POPC   PO421852  31.121  30.087   9.552
 1361POPC   GL121853  30.767  30.079   9.246
 1361POPC   GL221854  30.545  30.382   9.233
 1361POPC   C1A21855  30.716  30.014   8.782
 1361POPC   D2A21856  30.688  29.868   8.330
 1361POPC   C3A21857  30.994  29.994   8.004
 1361POPC   C4A21858  31.202  30.204   7.666
 1361POPC   C1B21859  30.416  30.469   8.793
 1361POPC   C2B21860  30.401  30.335   8.347
 1361POPC   C3B21861  30.471  30.127   7.917
 1361POPC   C4B21862  30.363  30.204   7.425
 1362POPC   NC321863  18.019  16.298   9.423
 1362POPC   PO421864  18.256  15.683   9.506
 1362POPC   GL121865  18.459  15.940   9.142
 1362POPC   GL221866  18.336  16.288   9.035
 1362POPC   C1A21867  18.284  15.914   8.716
 1362POPC   D2A21868  18.052  15.813   8.379
 1362POPC   C3A21869  18.227  15.892   7.975
 1362POPC   C4A21870  18.113  15.912   7.523
 1362POPC   C1B21871  18.633  16.280   8.725
 1362POPC   C2B21872  18.504  16.178   8.346
 1362POPC   C3B21873  18.434  16.376   8.003
 1362POPC   C4B21874  18.527  16.181   7.658
 1363POPC   NC321875  18.995  44.815   9.414
 1363POPC   PO421876  19.318  44.262   9.555
 1363POPC   GL121877  19.269  44.442   9.148
 1363POPC   GL221878  19.303  44.805   9.009
 1363POPC   C1A21879  18.965  44.506   8.798
 1363POPC   D2A21880  19.177  44.635   8.432
 1363POPC   C3A21881  18.949  44.802   8.097
 1363POPC   C4A21882  18.693  44.698   7.746
 1363POPC   C1B21883  19.245   0.081   8.676
 1363POPC   C2B21884  19.449   0.134   8.274
 1363POPC   C3B21885  19.477  44.860   7.932
 1363POPC   C4B21886  19.181  44.740   7.612
 1364POPC   NC321887   0.084  14.485   9.713
 1364POPC   PO421888   0.501  14.685   9.595
 1364POPC   GL121889   0.365  14.432   9.214
 1364POPC   GL221890   0.006  14.416   9.169
 1364POPC   C1A21891   0.430  14.204   8.796
 1364POPC   D2A21892   0.627  14.056   8.390
 1364POPC   C3A21893   0.584  14.293   7.970
 1364POPC   C4A21894   0.490  14.711   7.786
 1364POPC   C1B21895   0.073  14.570   8.735
 1364POPC   C2B21896   0.225  14.410   8.328
 1364POPC   C3B21897   0.080  14.408   7.885
 1364POPC   C4B21898  44.851  14.196   7.529
 1365POPC   NC321899  25.919  10.104   9.666
 1365POPC   PO421900  26.179  10.714   9.509
 1365POPC   GL121901  26.216  10.488   9.154
 1365POPC   GL221902  25.921  10.360   9.204
 1365POPC   C1A21903  26.185  10.386   8.728
 1365POPC   D2A21904  26.319  10.108   8.405
 1365POPC   C3A21905  26.152  10.304   8.082
 1365POPC   C4A21906  26.405  10.463   7.812
 1365POPC   C1B21907  25.706  10.555   8.827
 1365POPC   C2B21908  25.829  10.579   8.394
 1365POPC   C3B21909  25.667  10.513   7.968
 1365POPC   C4B21910  25.676  10.500   7.508
 1366POPC   NC321911   6.084  44.989   9.427
 1366POPC   PO421912   5.586  44.525   9.502
 1366POPC   GL121913   5.706  44.376   9.107
 1366POPC   GL221914   5.797  44.717   9.081
 1366POPC   C1A21915   5.680  44.411   8.681
 1366POPC   D2A21916   5.377  44.564   8.414
 1366POPC   C3A21917   5.686  44.642   8.116
 1366POPC   C4A21918   5.852  44.530   7.750
 1366POPC   C1B21919   6.067  44.824   8.738
 1366POPC   C2B21920   6.026  44.955   8.308
 1366POPC   C3B21921   6.033   0.013   7.872
 1366POPC   C4B21922   6.386  44.980   7.644
 1367POPC   NC321923  37.493  28.814   9.643
 1367POPC   PO421924  37.743  29.450   9.472
 1367POPC   GL121925  37.563  29.301   9.098
 1367POPC   GL221926  37.622  28.998   9.174
 1367POPC   C1A21927  37.503  29.102   8.695
 1367POPC   D2A21928  37.743  29.173   8.305
 1367POPC   C3A21929  37.545  29.065   7.917
 1367POPC   C4A21930  37.591  29.319   7.532
 1367POPC   C1B21931  37.957  28.903   8.855
 1367POPC   C2B21932  37.911  28.715   8.454
 1367POPC   C3B21933  38.042  28.808   8.032
 1367POPC   C4B21934  37.917  28.907   7.611
 1368POPC   NC321935  31.842  18.754   9.497
 1368POPC   PO421936  32.242  19.271   9.730
 1368POPC   GL121937  32.348  19.002   9.337
 1368POPC   GL221938  32.684  19.099   9.195
 1368POPC   C1A21939  32.234  18.938   8.863
 1368POPC   D2A21940  31.852  18.862   8.562
 1368POPC   C3A21941  31.840  19.012   8.111
 1368POPC   C4A21942  32.020  18.700   7.842
 1368POPC   C1B21943  32.677  19.389   8.822
 1368POPC   C2B21944  32.579  19.577   8.409
 1368POPC   C3B21945  32.572  19.377   7.993
 1368POPC   C4B21946  32.438  18.996   7.768
 1369POPC   NC321947  20.112  19.931   9.504
 1369POPC   PO421948  19.814  19.511   9.789
 1369POPC   GL121949  19.837  19.555   9.276
 1369POPC   GL221950  20.159  19.637   9.085
 1369POPC   C1A21951  19.692  19.577   8.795
 1369POPC   D2A21952  19.773  19.553   8.290
 1369POPC   C3A21953  19.651  19.886   7.967
 1369POPC   C4A21954  19.622  20.206   7.603
 1369POPC   C1B21955  20.146  19.711   8.633
 1369POPC   C2B21956  20.062  19.986   8.283
 1369POPC   C3B21957  20.174  19.880   7.882
 1369POPC   C4B21958  20.364  19.714   7.513
 1370POPC   NC321959  13.608  19.942   9.499
 1370POPC   PO421960  13.340  19.262   9.516
 1370POPC   GL121961  13.376  19.595   9.147
 1370POPC   GL221962  13.658  19.804   9.019
 1370POPC   C1A21963  13.228  19.852   8.750
 1370POPC   D2A21964  13.357  20.083   8.374
 1370POPC   C3A21965  13.380  19.850   8.005
 1370POPC   C4A21966  13.536  19.972   7.604
 1370POPC   C1B21967  13.688  19.716   8.571
 1370POPC   C2B21968  13.862  19.785   8.145
 1370POPC   C3B21969  14.032  19.888   7.725
 1370POPC   C4B21970  14.171  19.619   7.358
 1371POPC   NC321971   7.619  44.534   9.670
 1371POPC   PO421972   7.452   0.145   9.489
 1371POPC   GL121973   7.411  44.734   9.223
 1371POPC   GL221974   7.495  44.354   9.212
 1371POPC   C1A21975   7.276  44.570   8.811
 1371POPC   D2A21976   7.415  44.672   8.406
 1371POPC   C3A21977   7.190  44.651   8.045
 1371POPC   C4A21978   7.319  44.604   7.643
 1371POPC   C1B21979   7.710  44.274   8.853
 1371POPC   C2B21980   7.769  44.290   8.409
 1371POPC   C3B21981   7.605  44.330   8.003
 1371POPC   C4B21982   7.726  44.110   7.577
 1372POPC   NC321983  33.225  41.730   9.557
 1372POPC   PO421984  32.691  41.452   9.285
 1372POPC   GL121985  33.020  41.614   9.102
 1372POPC   GL221986  33.262  41.382   9.152
 1372POPC   C1A21987  33.027  41.775   8.720
 1372POPC   D2A21988  33.164  41.672   8.335
 1372POPC   C3A21989  32.873  41.569   8.000
 1372POPC   C4A21990  32.837  41.815   7.598
 1372POPC   C1B21991  33.232  41.290   8.712
 1372POPC   C2B21992  33.391  41.221   8.278
 1372POPC   C3B21993  33.391  41.503   7.918
 1372POPC   C4B21994  33.172  41.423   7.581
 1373POPC   NC321995  39.039  21.260   9.632
 1373POPC   PO421996  39.101  21.892   9.376
 1373POPC   GL121997  39.038  21.497   9.148
 1373POPC   GL221998  39.344  21.308   9.192
 1373POPC   C1A21999  39.031  21.332   8.707
 1373POPC   D2A22000  38.873  21.477   8.311
 1373POPC   C3A22001  39.133  21.448   7.944
 1373POPC   C4A22002  39.380  21.500   7.576
 1373POPC   C1B22003  39.499  21.196   8.774
 1373POPC   C2B22004  39.357  21.137   8.338
 1373POPC   C3B22005  39.531  21.134   7.934
 1373POPC   C4B22006  39.198  21.000   7.639
 1374POPC   NC322007  30.399  37.469   9.551
 1374POPC   PO422008  31.070  37.489   9.419
 1374POPC   GL122009  30.708  37.660   9.177
 1374POPC   GL222010  30.600  38.008   9.198
 1374POPC   C1A22011  30.693  37.738   8.745
 1374POPC   D2A22012  30.703  37.472   8.381
 1374POPC   C3A22013  30.788  37.663   8.004
 1374POPC   C4A22014  30.765  37.626   7.562
 1374POPC   C1B22015  30.315  38.069   8.828
 1374POPC   C2B22016  30.452  38.032   8.406
 1374POPC   C3B22017  30.320  37.938   8.002
 1374POPC   C4B22018  30.223  37.794   7.602
 1375POPC   NC322019  13.020   0.711   9.960
 1375POPC   PO422020  12.540   0.738   9.430
 1375POPC   GL122021  12.893   0.561   9.188
 1375POPC   GL222022  12.998   0.843   8.975
 1375POPC   C1A22023  13.070   0.336   8.844
 1375POPC   D2A22024  13.210   0.467   8.421
 1375POPC   C3A22025  13.018   0.288   8.054
 1375POPC   C4A22026  12.739   0.056   7.789
 1375POPC   C1B22027  12.683   0.631   8.694
 1375POPC   C2B22028  12.630   0.683   8.252
 1375POPC   C3B22029  12.729   0.679   7.811
 1375POPC   C4B22030  12.447   0.788   7.441
 1376POPC   NC322031  29.672  21.878   9.540
 1376POPC   PO422032  29.984  22.577   9.455
 1376POPC   GL122033  29.718  22.314   9.215
 1376POPC   GL222034  29.880  22.097   9.070
 1376POPC   C1A22035  29.526  22.356   8.834
 1376POPC   D2A22036  29.815  22.232   8.507
 1376POPC   C3A22037  29.719  22.123   8.069
 1376POPC   C4A22038  29.914  22.217   7.633
 1376POPC   C1B22039  30.148  21.796   8.811
 1376POPC   C2B22040  30.108  21.738   8.391
 1376POPC   C3B22041  30.157  21.887   7.965
 1376POPC   C4B22042  30.343  21.959   7.568
 1377POPC   NC322043  10.339  43.018   9.657
 1377POPC   PO422044  10.678  43.580   9.656
 1377POPC   GL122045  10.557  43.302   9.296
 1377POPC   GL222046  10.771  43.053   9.264
 1377POPC   C1A22047  10.334  43.066   8.948
 1377POPC   D2A22048  10.447  43.096   8.508
 1377POPC   C3A22049  10.482  42.871   8.140
 1377POPC   C4A22050  10.669  43.028   7.754
 1377POPC   C1B22051  10.845  42.959   8.824
 1377POPC   C2B22052  10.932  43.008   8.363
 1377POPC   C3B22053  10.796  43.362   8.126
 1377POPC   C4B22054  10.945  43.499   7.715
 1378POPC   NC322055   7.079  31.113   9.325
 1378POPC   PO422056   6.949  30.543   9.717
 1378POPC   GL122057   6.849  30.665   9.273
 1378POPC   GL222058   6.628  30.410   9.226
 1378POPC   C1A22059   6.789  30.877   8.829
 1378POPC   D2A22060   6.462  31.041   8.583
 1378POPC   C3A22061   6.468  30.806   8.207
 1378POPC   C4A22062   6.517  30.701   7.776
 1378POPC   C1B22063   6.860  30.380   8.854
 1378POPC   C2B22064   6.790  30.426   8.414
 1378POPC   C3B22065   6.954  30.510   8.000
 1378POPC   C4B22066   6.865  30.408   7.540
 1379POPC   NC322067   4.469  19.396   9.621
 1379POPC   PO422068   4.459  18.734   9.511
 1379POPC   GL122069   4.422  19.074   9.183
 1379POPC   GL222070   4.712  19.324   9.163
 1379POPC   C1A22071   4.218  18.948   8.752
 1379POPC   D2A22072   4.266  18.732   8.344
 1379POPC   C3A22073   4.169  18.924   7.903
 1379POPC   C4A22074   4.073  19.362   7.697
 1379POPC   C1B22075   4.543  19.345   8.759
 1379POPC   C2B22076   4.326  19.304   8.372
 1379POPC   C3B22077   4.424  19.526   8.020
 1379POPC   C4B22078   4.590  19.316   7.670
 1380POPC   NC322079  13.812  38.319   9.719
 1380POPC   PO422080  13.347  38.699   9.430
 1380POPC   GL122081  13.560  38.448   9.125
 1380POPC   GL222082  13.857  38.328   9.203
 1380POPC   C1A22083  13.498  38.310   8.731
 1380POPC   D2A22084  13.381  38.476   8.330
 1380POPC   C3A22085  13.388  38.210   7.951
 1380POPC   C4A22086  13.246  38.333   7.536
 1380POPC   C1B22087  13.978  38.521   8.809
 1380POPC   C2B22088  14.087  38.393   8.395
 1380POPC   C3B22089  13.832  38.451   8.030
 1380POPC   C4B22090  13.804  38.246   7.623
 1381POPC   NC322091  35.409  32.149   9.855
 1381POPC   PO422092  35.334  32.771   9.576
 1381POPC   GL122093  35.505  32.458   9.314
 1381POPC   GL222094  35.294  32.161   9.284
 1381POPC   C1A22095  35.612  32.368   8.892
 1381POPC   D2A22096  35.437  32.399   8.484
 1381POPC   C3A22097  35.654  32.456   8.112
 1381POPC   C4A22098  35.465  32.351   7.733
 1381POPC   C1B22099  35.105  32.201   8.835
 1381POPC   C2B22100  34.993  32.180   8.379
 1381POPC   C3B22101  35.098  32.080   7.972
 1381POPC   C4B22102  34.972  32.282   7.567
 1382POPC   NC322103  15.740  40.040   9.448
 1382POPC   PO422104  16.247  39.638   9.497
 1382POPC   GL122105  16.188  39.817   9.102
 1382POPC   GL222106  15.864  39.961   8.970
 1382POPC   C1A22107  16.212  39.752   8.669
 1382POPC   D2A22108  16.030  40.006   8.371
 1382POPC   C3A22109  16.071  39.819   8.004
 1382POPC   C4A22110  15.779  39.756   7.748
 1382POPC   C1B22111  16.145  40.293   8.797
 1382POPC   C2B22112  16.188  40.528   8.399
 1382POPC   C3B22113  16.181  40.358   8.001
 1382POPC   C4B22114  15.812  40.270   7.796
 1383POPC   NC322115  24.623  12.973   9.407
 1383POPC   PO422116  24.147  12.589   9.260
 1383POPC   GL122117  24.467  12.676   9.000
 1383POPC   GL222118  24.380  13.029   8.973
 1383POPC   C1A22119  24.742  12.555   8.648
 1383POPC   D2A22120  24.719  12.629   8.218
 1383POPC   C3A22121  24.365  12.769   8.056
 1383POPC   C4A22122  24.462  12.701   7.606
 1383POPC   C1B22123  24.404  12.936   8.556
 1383POPC   C2B22124  24.628  13.160   8.257
 1383POPC   C3B22125  24.704  13.096   7.832
 1383POPC   C4B22126  24.597  13.166   7.383
 1384POPC   NC322127  23.327  11.974   9.543
 1384POPC   PO422128  23.817  12.381   9.743
 1384POPC   GL122129  23.646  12.365   9.235
 1384POPC   GL222130  23.486  12.071   9.082
 1384POPC   C1A22131  23.856  12.209   8.778
 1384POPC   D2A22132  24.064  12.253   8.338
 1384POPC   C3A22133  23.810  12.117   8.003
 1384POPC   C4A22134  23.657  12.274   7.591
 1384POPC   C1B22135  23.349  11.841   8.727
 1384POPC   C2B22136  23.406  11.856   8.284
 1384POPC   C3B22137  23.389  11.834   7.843
 1384POPC   C4B22138  23.766  11.750   7.648
 1385POPC   NC322139  35.521  17.410   9.643
 1385POPC   PO422140  34.887  17.697   9.491
 1385POPC   GL122141  35.223  17.572   9.195
 1385POPC   GL222142  35.490  17.310   9.155
 1385POPC   C1A22143  35.208  17.409   8.762
 1385POPC   D2A22144  35.462  17.424   8.387
 1385POPC   C3A22145  35.253  17.702   8.099
 1385POPC   C4A22146  35.079  17.472   7.755
 1385POPC   C1B22147  35.691  17.596   8.827
 1385POPC   C2B22148  35.626  17.891   8.467
 1385POPC   C3B22149  35.712  17.930   8.011
 1385POPC   C4B22150  35.816  17.675   7.633
 1386POPC   NC322151  18.036  42.158   9.504
 1386POPC   PO422152  18.424  42.633   9.326
 1386POPC   GL122153  18.313  42.337   9.077
 1386POPC   GL222154  17.959  42.401   9.052
 1386POPC   C1A22155  18.464  42.329   8.665
 1386POPC   D2A22156  18.315  42.569   8.309
 1386POPC   C3A22157  18.490  42.459   7.943
 1386POPC   C4A22158  18.736  42.093   7.833
 1386POPC   C1B22159  18.038  41.999   8.805
 1386POPC   C2B22160  18.143  42.044   8.384
 1386POPC   C3B22161  18.048  42.212   7.973
 1386POPC   C4B22162  18.007  42.536   7.662
 1387POPC   NC322163  13.381  26.458   9.593
 1387POPC   PO422164  13.997  26.602   9.875
 1387POPC   GL122165  13.875  26.678   9.353
 1387POPC   GL222166  13.534  26.827   9.208
 1387POPC   C1A22167  13.848  26.706   8.836
 1387POPC   D2A22168  13.543  26.662   8.445
 1387POPC   C3A22169  13.680  26.734   8.017
 1387POPC   C4A22170  13.759  26.955   7.632
 1387POPC   C1B22171  13.513  27.075   8.766
 1387POPC   C2B22172  13.532  27.159   8.300
 1387POPC   C3B22173  13.389  27.202   7.870
 1387POPC   C4B22174  13.290  27.029   7.453
 1388POPC   NC322175  33.888  40.104   9.522
 1388POPC   PO422176  33.672  39.428   9.403
 1388POPC   GL122177  33.752  39.802   9.102
 1388POPC   GL222178  33.887  40.190   9.031
 1388POPC   C1A22179  33.683  39.872   8.669
 1388POPC   D2A22180  33.791  39.939   8.257
 1388POPC   C3A22181  33.584  40.044   7.901
 1388POPC   C4A22182  33.373  39.680   7.792
 1388POPC   C1B22183  34.204  39.933   8.818
 1388POPC   C2B22184  34.279  39.890   8.365
 1388POPC   C3B22185  34.160  39.984   7.904
 1388POPC   C4B22186  33.992  40.311   7.616
 1389POPC   NC322187  22.887   1.076   9.668
 1389POPC   PO422188  22.735   1.613   9.591
 1389POPC   GL122189  22.767   1.257   9.197
 1389POPC   GL222190  22.990   0.923   9.135
 1389POPC   C1A22191  22.729   1.128   8.723
 1389POPC   D2A22192  22.888   1.218   8.290
 1389POPC   C3A22193  22.587   1.252   7.929
 1389POPC   C4A22194  22.547   1.303   7.460
 1389POPC   C1B22195  23.164   0.848   8.686
 1389POPC   C2B22196  23.038   0.713   8.243
 1389POPC   C3B22197  23.030   0.986   7.846
 1389POPC   C4B22198  23.232   1.063   7.420
 1390POPC   NC322199  42.982  19.257   9.494
 1390POPC   PO422200  43.399  18.763   9.564
 1390POPC   GL122201  43.286  18.902   9.162
 1390POPC   GL222202  43.308  19.244   9.095
 1390POPC   C1A22203  43.326  18.929   8.708
 1390POPC   D2A22204  43.082  19.095   8.380
 1390POPC   C3A22205  42.945  18.843   8.036
 1390POPC   C4A22206  43.083  18.903   7.611
 1390POPC   C1B22207  43.444  19.423   8.663
 1390POPC   C2B22208  43.278  19.540   8.254
 1390POPC   C3B22209  43.278  19.260   7.909
 1390POPC   C4B22210  43.445  19.234   7.444
 1391POPC   NC322211  18.905  30.581   9.445
 1391POPC   PO422212  19.452  30.881   9.449
 1391POPC   GL122213  19.330  31.036   9.060
 1391POPC   GL222214  19.111  30.782   9.039
 1391POPC   C1A22215  19.375  30.922   8.634
 1391POPC   D2A22216  19.200  30.588   8.392
 1391POPC   C3A22217  19.119  30.626   7.985
 1391POPC   C4A22218  19.188  30.983   7.765
 1391POPC   C1B22219  18.890  30.499   8.797
 1391POPC   C2B22220  18.731  30.745   8.509
 1391POPC   C3B22221  18.664  30.789   8.152
 1391POPC   C4B22222  18.680  30.828   7.759
 1392POPC   NC322223   4.181  40.562   9.551
 1392POPC   PO422224   4.399  39.835   9.498
 1392POPC   GL122225   4.140  39.886   9.141
 1392POPC   GL222226   3.956  40.199   9.078
 1392POPC   C1A22227   4.222  39.717   8.764
 1392POPC   D2A22228   4.352  39.804   8.358
 1392POPC   C3A22229   4.074  39.756   8.009
 1392POPC   C4A22230   4.333  39.801   7.660
 1392POPC   C1B22231   4.090  40.216   8.619
 1392POPC   C2B22232   4.141  40.257   8.134
 1392POPC   C3B22233   3.934  40.168   7.689
 1392POPC   C4B22234   3.961  40.299   7.208
 1393POPC   NC322235  16.855  31.736   9.567
 1393POPC   PO422236  17.074  31.118   9.745
 1393POPC   GL122237  17.055  31.313   9.254
 1393POPC   GL222238  16.751  31.528   9.127
 1393POPC   C1A22239  16.992  31.325   8.740
 1393POPC   D2A22240  17.146  31.312   8.267
 1393POPC   C3A22241  16.795  31.334   7.944
 1393POPC   C4A22242  16.704  31.604   7.632
 1393POPC   C1B22243  16.521  31.571   8.721
 1393POPC   C2B22244  16.489  31.595   8.273
 1393POPC   C3B22245  16.265  31.676   7.891
 1393POPC   C4B22246  16.270  31.718   7.385
 1394POPC   NC322247  18.833  25.140  10.071
 1394POPC   PO422248  19.156  24.962   9.521
 1394POPC   GL122249  19.075  25.200   9.125
 1394POPC   GL222250  18.856  25.460   9.207
 1394POPC   C1A22251  19.161  25.268   8.673
 1394POPC   D2A22252  19.255  25.277   8.219
 1394POPC   C3A22253  18.970  25.176   7.925
 1394POPC   C4A22254  18.843  24.863   7.619
 1394POPC   C1B22255  18.787  25.608   8.796
 1394POPC   C2B22256  18.850  25.546   8.362
 1394POPC   C3B22257  19.034  25.718   8.004
 1394POPC   C4B22258  19.126  25.544   7.595
 1395POPC   NC322259  19.697  13.241   9.436
 1395POPC   PO422260  19.471  12.591   9.607
 1395POPC   GL122261  19.580  12.638   9.143
 1395POPC   GL222262  19.896  12.866   9.125
 1395POPC   C1A22263  19.534  12.819   8.699
 1395POPC   D2A22264  19.626  13.005   8.291
 1395POPC   C3A22265  19.685  12.802   7.887
 1395POPC   C4A22266  19.860  12.882   7.476
 1395POPC   C1B22267  20.057  12.835   8.690
 1395POPC   C2B22268  20.047  12.685   8.271
 1395POPC   C3B22269  20.211  12.809   7.880
 1395POPC   C4B22270  20.278  13.141   7.606
 1396POPC   NC322271  25.186  10.118   9.678
 1396POPC   PO422272  25.684  10.515   9.623
 1396POPC   GL122273  25.400  10.415   9.249
 1396POPC   GL222274  25.298  10.738   9.122
 1396POPC   C1A22275  25.223  10.347   8.797
 1396POPC   D2A22276  25.150  10.519   8.343
 1396POPC   C3A22277  25.186  10.278   7.953
 1396POPC   C4A22278  25.422  10.062   7.638
 1396POPC   C1B22279  25.108  10.876   8.722
 1396POPC   C2B22280  24.800  10.905   8.341
 1396POPC   C3B22281  24.946  10.954   7.930
 1396POPC   C4B22282  25.283  10.758   7.731
 1397POPC   NC322283  22.770  43.565   9.529
 1397POPC   PO422284  22.710  44.221   9.454
 1397POPC   GL122285  22.944  43.953   9.152
 1397POPC   GL222286  22.747  43.672   9.029
 1397POPC   C1A22287  23.138  43.793   8.738
 1397POPC   D2A22288  23.077  43.551   8.356
 1397POPC   C3A22289  23.055  43.878   8.086
 1397POPC   C4A22290  23.159  43.950   7.685
 1397POPC   C1B22291  22.613  44.066   8.767
 1397POPC   C2B22292  22.731  44.174   8.330
 1397POPC   C3B22293  22.728  44.230   7.867
 1397POPC   C4B22294  22.653  43.965   7.495
 1398POPC   NC322295  24.966  44.495   9.673
 1398POPC   PO422296  25.018   0.178   9.482
 1398POPC   GL122297  25.178  44.811   9.282
 1398POPC   GL222298  25.547  44.742   9.321
 1398POPC   C1A22299  25.219  44.823   8.840
 1398POPC   D2A22300  25.070  44.775   8.414
 1398POPC   C3A22301  25.271  44.689   8.066
 1398POPC   C4A22302  25.110  44.592   7.673
 1398POPC   C1B22303  25.691  44.605   8.892
 1398POPC   C2B22304  25.704  44.586   8.418
 1398POPC   C3B22305  25.651  44.375   7.994
 1398POPC   C4B22306  25.488  44.287   7.558
 1399POPC   NC322307  36.586  10.100   9.690
 1399POPC   PO422308  37.116  10.587   9.674
 1399POPC   GL122309  36.990  10.671   9.160
 1399POPC   GL222310  37.106  10.383   8.925
 1399POPC   C1A22311  36.742  10.911   8.865
 1399POPC   D2A22312  36.940  11.096   8.529
 1399POPC   C3A22313  36.994  10.831   8.156
 1399POPC   C4A22314  36.699  10.761   7.832
 1399POPC   C1B22315  36.867  10.515   8.558
 1399POPC   C2B22316  36.626  10.352   8.179
 1399POPC   C3B22317  36.838  10.267   7.778
 1399POPC   C4B22318  37.079  10.627   7.523
 1400POPC   NC322319  15.267   1.272   9.426
 1400POPC   PO422320  14.864   0.775   9.451
 1400POPC   GL122321  15.114   0.948   9.080
 1400POPC   GL222322  15.492   0.941   9.109
 1400POPC   C1A22323  15.201   1.180   8.685
 1400POPC   D2A22324  15.025   1.486   8.346
 1400POPC   C3A22325  15.080   1.318   7.901
 1400POPC   C4A22326  14.922   0.858   7.789
 1400POPC   C1B22327  15.501   0.613   8.797
 1400POPC   C2B22328  15.403   0.773   8.398
 1400POPC   C3B22329  15.461   0.997   8.021
 1400POPC   C4B22330  15.389   0.854   7.590
 1401POPC   NC322331  26.570  42.277   9.463
 1401POPC   PO422332  27.212  42.540   9.471
 1401POPC   GL122333  26.930  42.360   9.099
 1401POPC   GL222334  26.602  42.143   8.989
 1401POPC   C1A22335  26.996  42.194   8.677
 1401POPC   D2A22336  26.757  42.068   8.339
 1401POPC   C3A22337  26.844  42.226   7.942
 1401POPC   C4A22338  26.692  42.155   7.535
 1401POPC   C1B22339  26.401  42.295   8.606
 1401POPC   C2B22340  26.431  42.598   8.278
 1401POPC   C3B22341  26.465  42.552   7.837
 1401POPC   C4B22342  26.334  42.523   7.436
 1402POPC   NC322343  17.530   0.039   9.535
 1402POPC   PO422344  17.501   0.700   9.630
 1402POPC   GL122345  17.518   0.500   9.239
 1402POPC   GL222346  17.846   0.306   9.202
 1402POPC   C1A22347  17.550   0.668   8.812
 1402POPC   D2A22348  17.808   0.503   8.480
 1402POPC   C3A22349  17.779   0.669   8.069
 1402POPC   C4A22350  17.618   0.630   7.679
 1402POPC   C1B22351  17.590   0.159   8.832
 1402POPC   C2B22352  17.514   0.057   8.405
 1402POPC   C3B22353  17.391   0.293   8.071
 1402POPC   C4B22354  17.211   0.327   7.666
 1403POPC   NC322355  35.760  25.256   9.488
 1403POPC   PO422356  36.429  25.192   9.607
 1403POPC   GL122357  36.350  25.326   9.126
 1403POPC   GL222358  35.994  25.321   9.015
 1403POPC   C1A22359  36.362  25.521   8.670
 1403POPC   D2A22360  36.067  25.493   8.326
 1403POPC   C3A22361  36.215  25.351   7.919
 1403POPC   C4A22362  36.317  25.533   7.511
 1403POPC   C1B22363  36.116  25.075   8.667
 1403POPC   C2B22364  36.416  25.064   8.348
 1403POPC   C3B22365  36.480  24.907   7.947
 1403POPC   C4B22366  36.169  24.881   7.636
 1404POPC   NC322367  10.395  13.833   9.580
 1404POPC   PO422368  10.993  13.653   9.521
 1404POPC   GL122369  10.702  13.562   9.214
 1404POPC   GL222370  10.664  13.915   9.110
 1404POPC   C1A22371  10.772  13.530   8.773
 1404POPC   D2A22372  10.719  13.874   8.466
 1404POPC   C3A22373  10.787  13.746   8.032
 1404POPC   C4A22374  10.619  13.502   7.682
 1404POPC   C1B22375  10.314  13.714   8.847
 1404POPC   C2B22376  10.136  13.745   8.403
 1404POPC   C3B22377  10.182  13.648   7.923
 1404POPC   C4B22378  10.250  13.756   7.444
 1405POPC   NC322379  20.837  41.463   9.528
 1405POPC   PO422380  20.163  41.711   9.619
 1405POPC   GL122381  20.462  41.785   9.236
 1405POPC   GL222382  20.817  41.912   9.286
 1405POPC   C1A22383  20.614  41.566   8.840
 1405POPC   D2A22384  20.717  41.594   8.379
 1405POPC   C3A22385  20.463  41.391   8.068
 1405POPC   C4A22386  20.308  41.042   7.825
 1405POPC   C1B22387  20.989  41.921   8.870
 1405POPC   C2B22388  20.920  42.049   8.481
 1405POPC   C3B22389  20.907  41.975   8.040
 1405POPC   C4B22390  20.962  41.524   7.917
 1406POPC   NC322391  36.779  18.796   9.682
 1406POPC   PO422392  37.290  19.197   9.478
 1406POPC   GL122393  36.995  19.204   9.154
 1406POPC   GL222394  36.642  19.224   9.276
 1406POPC   C1A22395  36.987  19.075   8.728
 1406POPC   D2A22396  37.107  18.901   8.325
 1406POPC   C3A22397  36.921  19.163   7.998
 1406POPC   C4A22398  36.982  19.208   7.561
 1406POPC   C1B22399  36.602  18.873   8.978
 1406POPC   C2B22400  36.698  18.675   8.564
 1406POPC   C3B22401  36.647  18.723   8.110
 1406POPC   C4B22402  36.887  18.716   7.729
 1407POPC   NC322403  14.694  11.692   9.540
 1407POPC   PO422404  14.372  12.248   9.313
 1407POPC   GL122405  14.416  11.870   9.126
 1407POPC   GL222406  14.047  11.792   9.208
 1407POPC   C1A22407  14.521  11.928   8.683
 1407POPC   D2A22408  14.502  12.165   8.321
 1407POPC   C3A22409  14.605  11.862   8.064
 1407POPC   C4A22410  14.505  11.738   7.679
 1407POPC   C1B22411  14.037  11.920   8.780
 1407POPC   C2B22412  14.097  11.823   8.355
 1407POPC   C3B22413  14.100  11.984   7.943
 1407POPC   C4B22414  14.337  12.340   7.813
 1408POPC   NC322415  17.096  15.913   9.456
 1408POPC   PO422416  16.504  16.104   9.479
 1408POPC   GL122417  16.596  15.891   9.077
 1408POPC   GL222418  16.921  15.725   9.017
 1408POPC   C1A22419  16.462  15.915   8.623
 1408POPC   D2A22420  16.327  15.675   8.222
 1408POPC   C3A22421  16.468  15.845   7.831
 1408POPC   C4A22422  16.647  16.254   7.762
 1408POPC   C1B22423  17.026  15.808   8.609
 1408POPC   C2B22424  16.830  15.772   8.220
 1408POPC   C3B22425  16.980  15.850   7.828
 1408POPC   C4B22426  17.078  15.621   7.485
 1409POPC   NC322427  14.769  27.482   9.347
 1409POPC   PO422428  14.167  27.320   9.416
 1409POPC   GL122429  14.337  27.450   9.075
 1409POPC   GL222430  14.314  27.764   9.147
 1409POPC   C1A22431  14.503  27.570   8.677
 1409POPC   D2A22432  14.328  27.387   8.323
 1409POPC   C3A22433  14.369  27.532   7.918
 1409POPC   C4A22434  14.541  27.453   7.488
 1409POPC   C1B22435  14.049  27.780   8.790
 1409POPC   C2B22436  14.192  27.900   8.395
 1409POPC   C3B22437  14.057  27.934   7.982
 1409POPC   C4B22438  14.220  27.837   7.545
 1410POPC   NC322439   7.285  22.700   9.513
 1410POPC   PO422440   7.788  23.053   9.291
 1410POPC   GL122441   7.405  22.890   9.059
 1410POPC   GL222442   7.213  22.518   9.057
 1410POPC   C1A22443   7.188  22.854   8.676
 1410POPC   D2A22444   6.900  23.060   8.381
 1410POPC   C3A22445   7.128  23.005   7.952
 1410POPC   C4A22446   7.530  23.108   7.716
 1410POPC   C1B22447   7.618  22.481   8.848
 1410POPC   C2B22448   7.695  22.776   8.534
 1410POPC   C3B22449   7.628  22.759   8.086
 1410POPC   C4B22450   7.319  22.512   7.807
 1411POPC   NC322451  32.305  19.510   9.327
 1411POPC   PO422452  32.005  20.081   9.550
 1411POPC   GL122453  32.048  19.918   9.148
 1411POPC   GL222454  32.407  20.008   9.151
 1411POPC   C1A22455  32.225  19.784   8.733
 1411POPC   D2A22456  32.087  19.902   8.336
 1411POPC   C3A22457  32.136  19.713   7.955
 1411POPC   C4A22458  32.207  19.431   7.636
 1411POPC   C1B22459  32.446  20.261   8.754
 1411POPC   C2B22460  32.540  20.135   8.358
 1411POPC   C3B22461  32.601  19.896   8.010
 1411POPC   C4B22462  32.436  20.048   7.637
 1412POPC   NC322463  16.433  34.345   9.507
 1412POPC   PO422464  16.622  33.670   9.450
 1412POPC   GL122465  16.777  33.906   9.081
 1412POPC   GL222466  16.869  34.230   9.215
 1412POPC   C1A22467  16.820  33.814   8.613
 1412POPC   D2A22468  16.658  33.488   8.326
 1412POPC   C3A22469  16.752  33.542   7.899
 1412POPC   C4A22470  17.073  33.755   7.680
 1412POPC   C1B22471  16.825  34.340   8.775
 1412POPC   C2B22472  16.863  34.309   8.359
 1412POPC   C3B22473  16.693  34.007   8.117
 1412POPC   C4B22474  16.527  34.025   7.719
 1413POPC   NC322475  28.275  36.706   9.479
 1413POPC   PO422476  27.883  37.213   9.603
 1413POPC   GL122477  28.209  37.204   9.277
 1413POPC   GL222478  28.564  37.070   9.222
 1413POPC   C1A22479  28.241  37.246   8.838
 1413POPC   D2A22480  28.509  37.154   8.477
 1413POPC   C3A22481  28.396  36.929   8.110
 1413POPC   C4A22482  28.341  37.037   7.684
 1413POPC   C1B22483  28.499  36.801   8.841
 1413POPC   C2B22484  28.764  36.682   8.470
 1413POPC   C3B22485  28.810  36.632   8.024
 1413POPC   C4B22486  28.470  36.531   7.779
 1414POPC   NC322487  42.121   1.487   9.316
 1414POPC   PO422488  42.620   1.146   9.685
 1414POPC   GL122489  42.477   1.101   9.219
 1414POPC   GL222490  42.493   1.429   8.998
 1414POPC   C1A22491  42.297   0.919   8.814
 1414POPC   D2A22492  41.996   0.774   8.466
 1414POPC   C3A22493  42.137   0.852   8.080
 1414POPC   C4A22494  42.242   0.973   7.707
 1414POPC   C1B22495  42.221   1.471   8.675
 1414POPC   C2B22496  42.075   1.328   8.290
 1414POPC   C3B22497  42.113   1.454   7.852
 1414POPC   C4B22498  42.392   1.633   7.516
 1415POPC   NC322499  31.938  10.471   9.453
 1415POPC   PO422500  31.241  10.446   9.533
 1415POPC   GL122501  31.332  10.612   9.103
 1415POPC   GL222502  31.402  10.965   9.078
 1415POPC   C1A22503  31.367  10.642   8.629
 1415POPC   D2A22504  31.331  10.488   8.213
 1415POPC   C3A22505  31.682  10.467   7.989
 1415POPC   C4A22506  31.990  10.242   7.814
 1415POPC   C1B22507  31.717  10.992   8.763
 1415POPC   C2B22508  31.794  10.895   8.308
 1415POPC   C3B22509  31.692  10.973   7.850
 1415POPC   C4B22510  31.300  11.159   7.695
 1416POPC   NC322511  26.603   6.922   9.537
 1416POPC   PO422512  27.240   6.781   9.598
 1416POPC   GL122513  27.005   6.759   9.216
 1416POPC   GL222514  26.951   6.420   9.106
 1416POPC   C1A22515  27.118   6.816   8.770
 1416POPC   D2A22516  26.852   6.907   8.393
 1416POPC   C3A22517  27.024   6.799   7.983
 1416POPC   C4A22518  27.091   6.589   7.612
 1416POPC   C1B22519  26.684   6.544   8.740
 1416POPC   C2B22520  26.566   6.483   8.294
 1416POPC   C3B22521  26.691   6.381   7.868
 1416POPC   C4B22522  26.669   6.285   7.416
 1417POPC   NC322523  33.668   6.062   9.528
 1417POPC   PO422524  34.136   5.514   9.597
 1417POPC   GL122525  33.907   5.677   9.261
 1417POPC   GL222526  33.967   6.011   9.137
 1417POPC   C1A22527  33.804   5.651   8.808
 1417POPC   D2A22528  33.761   5.834   8.388
 1417POPC   C3A22529  33.503   5.636   8.050
 1417POPC   C4A22530  33.597   5.385   7.666
 1417POPC   C1B22531  34.107   6.244   8.784
 1417POPC   C2B22532  33.976   6.326   8.369
 1417POPC   C3B22533  34.027   6.071   8.016
 1417POPC   C4B22534  33.870   5.804   7.730
 1418POPC   NC322535  17.099  24.815   9.827
 1418POPC   PO422536  17.444  25.334   9.599
 1418POPC   GL122537  17.352  25.245   9.192
 1418POPC   GL222538  17.647  25.107   9.153
 1418POPC   C1A22539  17.491  25.428   8.789
 1418POPC   D2A22540  17.340  25.314   8.403
 1418POPC   C3A22541  17.423  25.467   7.974
 1418POPC   C4A22542  17.319  25.157   7.650
 1418POPC   C1B22543  17.940  25.155   8.830
 1418POPC   C2B22544  17.848  25.217   8.422
 1418POPC   C3B22545  17.961  25.020   8.022
 1418POPC   C4B22546  17.846  25.284   7.742
 1419POPC   NC322547   2.918  10.396   9.583
 1419POPC   PO422548   2.347  10.556   9.459
 1419POPC   GL122549   2.662  10.298   9.153
 1419POPC   GL222550   3.064  10.223   9.068
 1419POPC   C1A22551   2.675  10.345   8.707
 1419POPC   D2A22552   2.453  10.429   8.314
 1419POPC   C3A22553   2.598  10.276   7.911
 1419POPC   C4A22554   2.603  10.518   7.531
 1419POPC   C1B22555   3.110  10.113   8.585
 1419POPC   C2B22556   2.988  10.400   8.272
 1419POPC   C3B22557   3.073  10.490   7.860
 1419POPC   C4B22558   3.059  10.813   7.558
 1420POPC   NC322559  18.196  12.211   9.413
 1420POPC   PO422560  18.568  11.695   9.531
 1420POPC   GL122561  18.490  11.877   9.126
 1420POPC   GL222562  18.150  11.811   9.137
 1420POPC   C1A22563  18.327  12.183   8.799
 1420POPC   D2A22564  18.060  12.295   8.459
 1420POPC   C3A22565  18.179  12.184   8.074
 1420POPC   C4A22566  18.352  12.223   7.705
 1420POPC   C1B22567  18.168  11.699   8.727
 1420POPC   C2B22568  18.030  11.557   8.348
 1420POPC   C3B22569  18.096  11.682   7.949
 1420POPC   C4B22570  18.023  11.566   7.541
 1421POPC   NC322571  19.927   2.530   9.582
 1421POPC   PO422572  19.688   3.108   9.701
 1421POPC   GL122573  19.651   2.832   9.294
 1421POPC   GL222574  19.969   2.801   9.123
 1421POPC   C1A22575  19.582   2.592   8.890
 1421POPC   D2A22576  19.816   2.717   8.521
 1421POPC   C3A22577  19.625   2.722   8.125
 1421POPC   C4A22578  19.864   2.714   7.760
 1421POPC   C1B22579  19.674   3.092   8.844
 1421POPC   C2B22580  19.593   3.171   8.371
 1421POPC   C3B22581  19.881   3.215   7.968
 1421POPC   C4B22582  20.011   3.132   7.495
 1422POPC   NC322583  16.492  29.991   9.676
 1422POPC   PO422584  17.182  30.061   9.765
 1422POPC   GL122585  17.154  29.909   9.328
 1422POPC   GL222586  16.779  29.915   9.262
 1422POPC   C1A22587  17.129  29.819   8.862
 1422POPC   D2A22588  17.174  30.043   8.456
 1422POPC   C3A22589  17.050  29.799   8.082
 1422POPC   C4A22590  16.768  29.867   7.745
 1422POPC   C1B22591  16.625  29.697   8.886
 1422POPC   C2B22592  16.674  29.825   8.445
 1422POPC   C3B22593  16.468  29.635   8.086
 1422POPC   C4B22594  16.388  29.413   7.725
 1423POPC   NC322595  35.455  36.580   9.696
 1423POPC   PO422596  35.303  35.981   9.473
 1423POPC   GL122597  35.286  36.276   9.194
 1423POPC   GL222598  35.577  36.398   9.256
 1423POPC   C1A22599  35.179  36.260   8.773
 1423POPC   D2A22600  35.244  36.041   8.392
 1423POPC   C3A22601  35.169  36.263   8.019
 1423POPC   C4A22602  35.101  35.970   7.719
 1423POPC   C1B22603  35.678  36.303   8.854
 1423POPC   C2B22604  35.722  36.253   8.442
 1423POPC   C3B22605  35.677  36.299   8.044
 1423POPC   C4B22606  35.605  36.053   7.696
 1424POPC   NC322607  22.710  42.865   9.542
 1424POPC   PO422608  23.170  43.340   9.565
 1424POPC   GL122609  23.007  43.209   9.205
 1424POPC   GL222610  23.131  42.881   9.205
 1424POPC   C1A22611  23.130  43.250   8.783
 1424POPC   D2A22612  23.237  42.992   8.419
 1424POPC   C3A22613  23.123  43.139   8.002
 1424POPC   C4A22614  22.915  43.492   7.765
 1424POPC   C1B22615  22.926  42.777   8.808
 1424POPC   C2B22616  22.863  42.655   8.356
 1424POPC   C3B22617  22.738  42.787   7.982
 1424POPC   C4B22618  22.356  42.675   7.783
 1425POPC   NC322619  31.039  14.706   9.384
 1425POPC   PO422620  31.758  14.677   9.456
 1425POPC   GL122621  31.559  14.413   9.143
 1425POPC   GL222622  31.251  14.472   8.980
 1425POPC   C1A22623  31.702  14.387   8.736
 1425POPC   D2A22624  31.564  14.253   8.351
 1425POPC   C3A22625  31.733  14.426   7.986
 1425POPC   C4A22626  31.580  14.717   7.704
 1425POPC   C1B22627  31.022  14.315   8.610
 1425POPC   C2B22628  30.956  14.359   8.174
 1425POPC   C3B22629  31.229  14.258   7.810
 1425POPC   C4B22630  30.959  14.102   7.489
 1426POPC   NC322631   4.841  30.033   9.618
 1426POPC   PO422632   5.512  29.814   9.517
 1426POPC   GL122633   5.194  30.020   9.234
 1426POPC   GL222634   4.891  29.829   9.165
 1426POPC   C1A22635   5.042  30.115   8.793
 1426POPC   D2A22636   4.837  29.995   8.423
 1426POPC   C3A22637   5.078  30.014   8.038
 1426POPC   C4A22638   5.024  30.261   7.672
 1426POPC   C1B22639   4.889  29.614   8.795
 1426POPC   C2B22640   5.115  29.583   8.425
 1426POPC   C3B22641   5.008  29.488   8.029
 1426POPC   C4B22642   5.244  29.547   7.667
 1427POPC   NC322643  36.793  16.164   9.484
 1427POPC   PO422644  36.518  15.502   9.519
 1427POPC   GL122645  36.765  15.625   9.139
 1427POPC   GL222646  36.742  15.948   9.058
 1427POPC   C1A22647  36.956  15.715   8.702
 1427POPC   D2A22648  37.179  15.613   8.359
 1427POPC   C3A22649  37.068  15.795   7.995
 1427POPC   C4A22650  37.278  16.149   7.823
 1427POPC   C1B22651  36.631  16.189   8.741
 1427POPC   C2B22652  36.422  16.138   8.356
 1427POPC   C3B22653  36.576  16.012   7.947
 1427POPC   C4B22654  36.654  15.604   7.730
 1428POPC   NC322655   2.887  33.522   9.511
 1428POPC   PO422656   3.201  34.067   9.439
 1428POPC   GL122657   2.902  34.053   9.109
 1428POPC   GL222658   2.694  33.752   9.083
 1428POPC   C1A22659   2.949  33.938   8.688
 1428POPC   D2A22660   3.124  33.913   8.301
 1428POPC   C3A22661   2.893  33.790   7.930
 1428POPC   C4A22662   2.875  33.932   7.510
 1428POPC   C1B22663   2.438  33.849   8.687
 1428POPC   C2B22664   2.488  33.754   8.252
 1428POPC   C3B22665   2.432  33.464   7.920
 1428POPC   C4B22666   2.735  33.402   7.572
 1429POPC   NC322667  38.021  17.672   9.361
 1429POPC   PO422668  37.761  17.096   9.253
 1429POPC   GL122669  37.533  17.515   9.156
 1429POPC   GL222670  37.679  17.866   9.062
 1429POPC   C1A22671  37.351  17.623   8.746
 1429POPC   D2A22672  37.197  17.484   8.335
 1429POPC   C3A22673  37.485  17.590   7.995
 1429POPC   C4A22674  37.820  17.347   7.794
 1429POPC   C1B22675  37.863  18.008   8.645
 1429POPC   C2B22676  37.915  17.831   8.225
 1429POPC   C3B22677  37.899  17.848   7.799
 1429POPC   C4B22678  37.869  17.689   7.368
 1430POPC   NC322679  22.200  24.579   9.621
 1430POPC   PO422680  21.670  24.154   9.376
 1430POPC   GL122681  22.040  24.422   9.170
 1430POPC   GL222682  22.270  24.739   9.164
 1430POPC   C1A22683  21.983  24.591   8.766
 1430POPC   D2A22684  22.094  24.315   8.451
 1430POPC   C3A22685  21.975  24.428   8.077
 1430POPC   C4A22686  22.075  24.195   7.720
 1430POPC   C1B22687  22.445  24.885   8.822
 1430POPC   C2B22688  22.345  24.964   8.421
 1430POPC   C3B22689  22.397  24.769   8.040
 1430POPC   C4B22690  22.272  24.649   7.675
 1431POPC   NC322691  19.337   3.323   9.494
 1431POPC   PO422692  19.256   3.975   9.452
 1431POPC   GL122693  18.987   3.630   9.199
 1431POPC   GL222694  18.873   3.262   9.146
 1431POPC   C1A22695  18.843   3.611   8.759
 1431POPC   D2A22696  18.850   3.848   8.358
 1431POPC   C3A22697  18.928   3.722   7.921
 1431POPC   C4A22698  19.249   3.761   7.603
 1431POPC   C1B22699  19.067   3.150   8.723
 1431POPC   C2B22700  19.022   3.328   8.293
 1431POPC   C3B22701  19.357   3.418   7.979
 1431POPC   C4B22702  19.463   3.057   7.764
 1432POPC   NC322703  27.437  42.853   9.744
 1432POPC   PO422704  27.916  42.453   9.468
 1432POPC   GL122705  27.809  42.390   9.056
 1432POPC   GL222706  27.430  42.384   9.000
 1432POPC   C1A22707  27.804  42.084   8.744
 1432POPC   D2A22708  27.565  42.228   8.399
 1432POPC   C3A22709  27.808  42.298   8.023
 1432POPC   C4A22710  27.679  42.378   7.561
 1432POPC   C1B22711  27.119  42.671   8.718
 1432POPC   C2B22712  27.129  42.579   8.279
 1432POPC   C3B22713  27.324  42.388   7.930
 1432POPC   C4B22714  27.176  42.278   7.503
 1433POPC   NC322715  17.761  35.614   9.566
 1433POPC   PO422716  17.570  35.033   9.829
 1433POPC   GL122717  17.511  35.089   9.329
 1433POPC   GL222718  17.487  35.422   9.170
 1433POPC   C1A22719  17.582  34.997   8.872
 1433POPC   D2A22720  17.461  35.143   8.466
 1433POPC   C3A22721  17.268  35.068   8.090
 1433POPC   C4A22722  17.453  35.233   7.735
 1433POPC   C1B22723  17.287  35.500   8.765
 1433POPC   C2B22724  17.410  35.633   8.300
 1433POPC   C3B22725  17.666  35.831   7.945
 1433POPC   C4B22726  17.916  35.883   7.536
 1434POPC   NC322727  38.073  34.068   9.435
 1434POPC   PO422728  37.417  33.834   9.424
 1434POPC   GL122729  37.763  33.714   9.192
 1434POPC   GL222730  37.498  33.573   8.965
 1434POPC   C1A22731  37.975  33.681   8.826
 1434POPC   D2A22732  37.718  33.645   8.462
 1434POPC   C3A22733  37.856  33.720   8.054
 1434POPC   C4A22734  37.741  33.651   7.630
 1434POPC   C1B22735  37.592  34.029   8.792
 1434POPC   C2B22736  37.617  34.142   8.326
 1434POPC   C3B22737  37.496  34.045   7.866
 1434POPC   C4B22738  37.368  33.951   7.394
 1435POPC   NC322739  33.705   4.481   9.605
 1435POPC   PO422740  33.643   3.897   9.328
 1435POPC   GL122741  33.710   4.335   9.084
 1435POPC   GL222742  33.777   4.702   9.136
 1435POPC   C1A22743  33.681   4.561   8.645
 1435POPC   D2A22744  33.549   4.713   8.222
 1435POPC   C3A22745  33.635   4.449   7.819
 1435POPC   C4A22746  33.534   4.594   7.382
 1435POPC   C1B22747  34.147   4.589   8.856
 1435POPC   C2B22748  34.318   4.469   8.407
 1435POPC   C3B22749  34.230   4.452   7.924
 1435POPC   C4B22750  34.290   4.163   7.533
 1436POPC   NC322751   8.854   1.009   9.534
 1436POPC   PO422752   9.226   1.638   9.437
 1436POPC   GL122753   8.983   1.370   9.181
 1436POPC   GL222754   9.149   1.038   9.111
 1436POPC   C1A22755   8.878   1.307   8.757
 1436POPC   D2A22756   9.096   1.290   8.378
 1436POPC   C3A22757   8.871   1.246   8.024
 1436POPC   C4A22758   8.634   1.384   7.723
 1436POPC   C1B22759   9.342   0.746   8.778
 1436POPC   C2B22760   9.314   0.789   8.314
 1436POPC   C3B22761   9.313   1.004   7.930
 1436POPC   C4B22762   9.099   1.116   7.561
 1437POPC   NC322763  34.425  42.836   9.995
 1437POPC   PO422764  34.975  42.854   9.537
 1437POPC   GL122765  34.703  42.936   9.195
 1437POPC   GL222766  34.359  42.824   9.317
 1437POPC   C1A22767  34.718  43.212   8.799
 1437POPC   D2A22768  34.482  43.312   8.402
 1437POPC   C3A22769  34.763  43.387   8.030
 1437POPC   C4A22770  34.739  43.200   7.632
 1437POPC   C1B22771  34.320  42.872   8.827
 1437POPC   C2B22772  34.217  42.859   8.359
 1437POPC   C3B22773  34.442  42.977   7.961
 1437POPC   C4B22774  34.305  42.967   7.459
 1438POPC   NC322775  26.320  29.842   9.348
 1438POPC   PO422776  25.687  29.723   9.515
 1438POPC   GL122777  25.870  29.656   9.122
 1438POPC   GL222778  25.876  30.003   9.017
 1438POPC   C1A22779  25.912  29.640   8.669
 1438POPC   D2A22780  25.880  29.986   8.399
 1438POPC   C3A22781  25.952  29.872   8.004
 1438POPC   C4A22782  25.723  29.908   7.640
 1438POPC   C1B22783  26.275  30.015   8.722
 1438POPC   C2B22784  26.462  30.074   8.288
 1438POPC   C3B22785  26.344  30.175   7.831
 1438POPC   C4B22786  26.126  30.123   7.416
 1439POPC   NC322787  38.834   9.488   9.783
 1439POPC   PO422788  39.096  10.057   9.570
 1439POPC   GL122789  39.179   9.836   9.180
 1439POPC   GL222790  39.435   9.579   9.122
 1439POPC   C1A22791  39.091   9.729   8.738
 1439POPC   D2A22792  39.369   9.609   8.435
 1439POPC   C3A22793  39.197   9.685   8.057
 1439POPC   C4A22794  39.146   9.455   7.681
 1439POPC   C1B22795  39.566   9.883   8.833
 1439POPC   C2B22796  39.647  10.035   8.436
 1439POPC   C3B22797  39.516  10.104   8.028
 1439POPC   C4B22798  39.258  10.037   7.699
 1440POPC   NC322799   3.704  28.930   9.437
 1440POPC   PO422800   3.106  29.199   9.641
 1440POPC   GL122801   3.234  29.006   9.250
 1440POPC   GL222802   3.451  29.280   9.161
 1440POPC   C1A22803   3.316  28.989   8.778
 1440POPC   D2A22804   3.499  29.194   8.418
 1440POPC   C3A22805   3.452  29.050   7.979
 1440POPC   C4A22806   3.762  28.950   7.637
 1440POPC   C1B22807   3.794  29.299   8.846
 1440POPC   C2B22808   3.945  29.448   8.471
 1440POPC   C3B22809   3.887  29.286   8.067
 1440POPC   C4B22810   3.996  29.397   7.687
 1441POPC   NC322811   9.208  36.347   9.318
 1441POPC   PO422812   8.834  36.903   9.503
 1441POPC   GL122813   8.872  36.709   9.099
 1441POPC   GL222814   8.556  36.536   9.058
 1441POPC   C1A22815   8.839  36.868   8.674
 1441POPC   D2A22816   8.923  37.173   8.347
 1441POPC   C3A22817   8.946  36.953   7.961
 1441POPC   C4A22818   9.131  36.944   7.554
 1441POPC   C1B22819   8.668  36.371   8.636
 1441POPC   C2B22820   8.778  36.490   8.195
 1441POPC   C3B22821   8.586  36.621   7.793
 1441POPC   C4B22822   8.758  36.636   7.372
 1442POPC   NC322823  35.986  18.214   9.481
 1442POPC   PO422824  36.541  17.790   9.433
 1442POPC   GL122825  36.375  18.124   9.182
 1442POPC   GL222826  36.301  18.509   9.201
 1442POPC   C1A22827  36.070  18.132   8.856
 1442POPC   D2A22828  36.088  18.073   8.451
 1442POPC   C3A22829  36.116  18.260   8.061
 1442POPC   C4A22830  36.064  18.123   7.664
 1442POPC   C1B22831  36.230  18.606   8.758
 1442POPC   C2B22832  36.172  18.700   8.319
 1442POPC   C3B22833  36.187  18.723   7.849
 1442POPC   C4B22834  35.965  18.622   7.448
 1443POPC   NC322835  10.348  21.505   9.699
 1443POPC   PO422836   9.716  21.480   9.462
 1443POPC   GL122837   9.721  21.480   9.093
 1443POPC   GL222838   9.861  21.199   9.035
 1443POPC   C1A22839   9.672  21.550   8.696
 1443POPC   D2A22840   9.400  21.740   8.482
 1443POPC   C3A22841   9.550  21.601   8.131
 1443POPC   C4A22842   9.552  21.508   7.739
 1443POPC   C1B22843   9.747  21.014   8.713
 1443POPC   C2B22844   9.820  21.191   8.336
 1443POPC   C3B22845   9.687  21.069   7.968
 1443POPC   C4B22846   9.823  21.095   7.562
 1444POPC   NC322847  40.790  18.709   9.506
 1444POPC   PO422848  40.695  18.139   9.739
 1444POPC   GL122849  40.694  18.212   9.307
 1444POPC   GL222850  40.852  17.964   9.108
 1444POPC   C1A22851  40.648  18.447   8.896
 1444POPC   D2A22852  40.795  18.571   8.451
 1444POPC   C3A22853  40.740  18.305   8.070
 1444POPC   C4A22854  40.745  18.460   7.640
 1444POPC   C1B22855  40.837  18.044   8.647
 1444POPC   C2B22856  41.139  18.144   8.352
 1444POPC   C3B22857  41.302  18.033   7.973
 1444POPC   C4B22858  41.011  18.012   7.690
 1445POPC   NC322859  31.196  30.544   9.537
 1445POPC   PO422860  31.785  30.834   9.546
 1445POPC   GL122861  31.522  30.717   9.187
 1445POPC   GL222862  31.296  30.949   8.992
 1445POPC   C1A22863  31.464  30.498   8.805
 1445POPC   D2A22864  31.291  30.727   8.464
 1445POPC   C3A22865  31.283  30.526   8.071
 1445POPC   C4A22866  31.314  30.692   7.688
 1445POPC   C1B22867  31.672  30.986   8.779
 1445POPC   C2B22868  31.783  30.911   8.374
 1445POPC   C3B22869  31.699  30.844   7.956
 1445POPC   C4B22870  31.636  31.146   7.622
 1446POPC   NC322871   4.285  44.412   9.409
 1446POPC   PO422872   4.671  44.865   9.720
 1446POPC   GL122873   4.613  44.813   9.121
 1446POPC   GL222874   4.286  44.970   8.975
 1446POPC   C1A22875   4.345  44.494   8.762
 1446POPC   D2A22876   4.124  44.570   8.318
 1446POPC   C3A22877   4.225  44.347   7.900
 1446POPC   C4A22878   4.428  44.341   7.463
 1446POPC   C1B22879   4.555  44.912   8.608
 1446POPC   C2B22880   4.646  44.604   8.281
 1446POPC   C3B22881   4.627  44.656   7.867
 1446POPC   C4B22882   4.253  44.892   7.712
 1447POPC   NC322883  28.607  38.189   9.440
 1447POPC   PO422884  28.099  38.595   9.525
 1447POPC   GL122885  28.349  38.581   9.167
 1447POPC   GL222886  28.686  38.668   9.232
 1447POPC   C1A22887  28.427  38.669   8.742
 1447POPC   D2A22888  28.386  38.408   8.390
 1447POPC   C3A22889  28.374  38.640   8.019
 1447POPC   C4A22890  28.384  38.528   7.587
 1447POPC   C1B22891  28.856  38.436   8.871
 1447POPC   C2B22892  28.856  38.227   8.502
 1447POPC   C3B22893  28.853  38.423   8.144
 1447POPC   C4B22894  28.928  38.360   7.763
 1448POPC   NC322895  33.083  38.151   9.494
 1448POPC   PO422896  32.877  38.851   9.587
 1448POPC   GL122897  33.011  38.560   9.207
 1448POPC   GL222898  32.789  38.212   9.101
 1448POPC   C1A22899  33.222  38.384   8.823
 1448POPC   D2A22900  33.139  38.541   8.383
 1448POPC   C3A22901  33.355  38.652   7.970
 1448POPC   C4A22902  33.152  38.612   7.538
 1448POPC   C1B22903  32.814  37.979   8.729
 1448POPC   C2B22904  33.072  37.991   8.388
 1448POPC   C3B22905  33.035  38.207   8.000
 1448POPC   C4B22906  32.932  38.142   7.573
 1449POPC   NC322907  38.559  27.097   9.331
 1449POPC   PO422908  38.187  26.548   9.451
 1449POPC   GL122909  38.501  26.591   9.151
 1449POPC   GL222910  38.806  26.426   9.207
 1449POPC   C1A22911  38.474  26.791   8.751
 1449POPC   D2A22912  38.147  26.931   8.462
 1449POPC   C3A22913  38.348  27.058   8.086
 1449POPC   C4A22914  38.311  26.883   7.688
 1449POPC   C1B22915  38.823  26.377   8.779
 1449POPC   C2B22916  38.885  26.601   8.407
 1449POPC   C3B22917  38.714  26.712   8.024
 1449POPC   C4B22918  38.690  26.547   7.641
 1450POPC   NC322919  12.326   0.185   9.390
 1450POPC   PO422920  11.859   0.607   9.613
 1450POPC   GL122921  12.016   0.645   9.210
 1450POPC   GL222922  11.675   0.662   9.123
 1450POPC   C1A22923  12.158   0.515   8.797
 1450POPC   D2A22924  12.038   0.311   8.383
 1450POPC   C3A22925  12.354   0.268   8.078
 1450POPC   C4A22926  12.233   0.622   7.876
 1450POPC   C1B22927  11.680   0.338   8.806
 1450POPC   C2B22928  11.707  44.971   8.542
 1450POPC   C3B22929  11.603   0.025   8.107
 1450POPC   C4B22930  11.903   0.230   7.830
 1451POPC   NC322931  38.818  32.345   9.350
 1451POPC   PO422932  39.451  32.343   9.579
 1451POPC   GL122933  39.396  32.170   9.220
 1451POPC   GL222934  39.258  32.460   9.100
 1451POPC   C1A22935  39.278  31.918   8.889
 1451POPC   D2A22936  39.047  32.048   8.547
 1451POPC   C3A22937  39.213  31.996   8.134
 1451POPC   C4A22938  38.992  32.005   7.747
 1451POPC   C1B22939  39.428  32.377   8.700
 1451POPC   C2B22940  39.658  32.538   8.371
 1451POPC   C3B22941  39.520  32.695   8.014
 1451POPC   C4B22942  39.354  32.385   7.741
 1452POPC   NC322943  17.869  10.834   9.385
 1452POPC   PO422944  17.651  11.482   9.614
 1452POPC   GL122945  17.408  11.383   9.230
 1452POPC   GL222946  17.147  11.131   9.218
 1452POPC   C1A22947  17.438  11.305   8.783
 1452POPC   D2A22948  17.601  11.260   8.366
 1452POPC   C3A22949  17.743  11.290   7.959
 1452POPC   C4A22950  17.532  11.385   7.582
 1452POPC   C1B22951  17.056  10.970   8.800
 1452POPC   C2B22952  17.075  11.159   8.405
 1452POPC   C3B22953  17.228  11.206   8.002
 1452POPC   C4B22954  17.030  11.237   7.619
 1453POPC   NC322955  36.168  27.320   9.719
 1453POPC   PO422956  36.419  27.889   9.520
 1453POPC   GL122957  36.270  27.830   9.128
 1453POPC   GL222958  36.247  27.464   9.021
 1453POPC   C1A22959  36.449  27.844   8.737
 1453POPC   D2A22960  36.562  27.814   8.321
 1453POPC   C3A22961  36.358  27.936   7.920
 1453POPC   C4A22962  36.106  27.656   7.625
 1453POPC   C1B22963  36.364  27.381   8.557
 1453POPC   C2B22964  36.232  27.444   8.100
 1453POPC   C3B22965  35.932  27.207   7.819
 1453POPC   C4B22966  35.963  26.842   7.544
 1454POPC   NC322967  18.133  15.232   9.460
 1454POPC   PO422968  18.636  14.875   9.630
 1454POPC   GL122969  18.576  15.108   9.224
 1454POPC   GL222970  18.655  15.476   9.285
 1454POPC   C1A22971  18.393  14.978   8.795
 1454POPC   D2A22972  18.381  14.895   8.323
 1454POPC   C3A22973  18.094  15.020   7.961
 1454POPC   C4A22974  17.991  14.881   7.500
 1454POPC   C1B22975  18.423  15.479   8.898
 1454POPC   C2B22976  18.306  15.392   8.495
 1454POPC   C3B22977  18.448  15.426   8.089
 1454POPC   C4B22978  18.212  15.449   7.715
 1455POPC   NC322979  19.560  33.684   9.620
 1455POPC   PO422980  20.152  33.678   9.673
 1455POPC   GL122981  20.051  33.560   9.200
 1455POPC   GL222982  19.692  33.632   9.063
 1455POPC   C1A22983  20.218  33.416   8.752
 1455POPC   D2A22984  20.125  33.383   8.273
 1455POPC   C3A22985  20.026  33.800   8.044
 1455POPC   C4A22986  19.684  34.145   7.919
 1455POPC   C1B22987  19.730  33.511   8.593
 1455POPC   C2B22988  19.539  33.658   8.186
 1455POPC   C3B22989  19.663  33.673   7.725
 1455POPC   C4B22990  19.675  33.430   7.341
 1456POPC   NC322991  23.468  27.436   9.443
 1456POPC   PO422992  24.073  27.714   9.530
 1456POPC   GL122993  23.878  27.564   9.172
 1456POPC   GL222994  23.660  27.814   9.138
 1456POPC   C1A22995  23.881  27.550   8.720
 1456POPC   D2A22996  23.676  27.579   8.339
 1456POPC   C3A22997  23.757  27.316   8.037
 1456POPC   C4A22998  23.659  27.599   7.679
 1456POPC   C1B22999  23.438  27.831   8.758
 1456POPC   C2B23000  23.227  27.916   8.382
 1456POPC   C3B23001  23.337  27.890   7.954
 1456POPC   C4B23002  23.199  27.868   7.531
 1457POPC   NC323003   6.786  12.338   9.457
 1457POPC   PO423004   6.162  11.992   9.640
 1457POPC   GL123005   6.401  12.065   9.255
 1457POPC   GL223006   6.753  11.848   9.188
 1457POPC   C1A23007   6.508  12.073   8.820
 1457POPC   D2A23008   6.531  11.928   8.386
 1457POPC   C3A23009   6.668  12.070   7.983
 1457POPC   C4A23010   6.543  11.937   7.567
 1457POPC   C1B23011   6.932  11.780   8.705
 1457POPC   C2B23012   7.030  11.783   8.208
 1457POPC   C3B23013   7.017  11.803   7.724
 1457POPC   C4B23014   7.141  11.919   7.285
 1458POPC   NC323015  10.711  11.641   9.571
 1458POPC   PO423016  10.804  11.016   9.473
 1458POPC   GL123017  10.684  11.305   9.141
 1458POPC   GL223018  10.946  11.596   9.125
 1458POPC   C1A23019  10.437  11.206   8.736
 1458POPC   D2A23020  10.212  11.342   8.330
 1458POPC   C3A23021  10.374  11.185   7.927
 1458POPC   C4A23022  10.304  10.959   7.518
 1458POPC   C1B23023  10.767  11.602   8.729
 1458POPC   C2B23024  10.730  11.406   8.310
 1458POPC   C3B23025  10.694  11.578   7.889
 1458POPC   C4B23026  10.919  11.652   7.487
 1459POPC   NC323027  32.860  31.217   9.648
 1459POPC   PO423028  32.141  31.504   9.688
 1459POPC   GL123029  32.231  31.440   9.256
 1459POPC   GL223030  31.965  31.194   9.227
 1459POPC   C1A23031  32.324  31.653   8.838
 1459POPC   D2A23032  32.501  31.676   8.408
 1459POPC   C3A23033  32.181  31.733   8.080
 1459POPC   C4A23034  32.203  31.772   7.635
 1459POPC   C1B23035  32.134  31.177   8.822
 1459POPC   C2B23036  32.098  31.350   8.435
 1459POPC   C3B23037  32.007  31.242   8.019
 1459POPC   C4B23038  32.261  31.245   7.656
 1460POPC   NC323039  18.767  34.244   9.861
 1460POPC   PO423040  19.017  34.633   9.369
 1460POPC   GL123041  18.910  34.412   9.004
 1460POPC   GL223042  18.908  34.729   8.851
 1460POPC   C1A23043  19.070  34.341   8.563
 1460POPC   D2A23044  19.206  34.582   8.209
 1460POPC   C3A23045  19.164  34.430   7.804
 1460POPC   C4A23046  18.935  34.181   7.514
 1460POPC   C1B23047  18.969  34.969   8.490
 1460POPC   C2B23048  18.947  34.995   8.047
 1460POPC   C3B23049  19.055  34.893   7.623
 1460POPC   C4B23050  18.893  35.074   7.237
 1461POPC   NC323051  34.769   9.951   9.571
 1461POPC   PO423052  34.452   9.369   9.531
 1461POPC   GL123053  34.543   9.671   9.161
 1461POPC   GL223054  34.789   9.972   9.057
 1461POPC   C1A23055  34.742   9.574   8.755
 1461POPC   D2A23056  34.477   9.572   8.421
 1461POPC   C3A23057  34.667   9.449   8.061
 1461POPC   C4A23058  34.664   9.629   7.649
 1461POPC   C1B23059  34.595  10.045   8.609
 1461POPC   C2B23060  34.541  10.131   8.144
 1461POPC   C3B23061  34.297  10.128   7.725
 1461POPC   C4B23062  34.134  10.080   7.272
 1462POPC   NC323063  40.911  20.264   9.427
 1462POPC   PO423064  40.295  20.585   9.517
 1462POPC   GL123065  40.554  20.553   9.122
 1462POPC   GL223066  40.831  20.790   9.173
 1462POPC   C1A23067  40.605  20.726   8.673
 1462POPC   D2A23068  40.441  20.878   8.260
 1462POPC   C3A23069  40.490  20.743   7.805
 1462POPC   C4A23070  40.350  20.763   7.339
 1462POPC   C1B23071  41.051  20.541   8.846
 1462POPC   C2B23072  41.022  20.456   8.444
 1462POPC   C3B23073  40.913  20.710   8.136
 1462POPC   C4B23074  41.027  20.646   7.755
 1463POPC   NC323075  17.215  37.238   9.604
 1463POPC   PO423076  16.706  37.631   9.529
 1463POPC   GL123077  16.557  37.579   9.131
 1463POPC   GL223078  16.780  37.839   9.005
 1463POPC   C1A23079  16.436  37.652   8.697
 1463POPC   D2A23080  16.718  37.936   8.458
 1463POPC   C3A23081  16.744  37.835   8.019
 1463POPC   C4A23082  16.748  37.720   7.583
 1463POPC   C1B23083  16.945  37.508   8.718
 1463POPC   C2B23084  17.140  37.547   8.302
 1463POPC   C3B23085  17.098  37.458   7.844
 1463POPC   C4B23086  17.064  37.407   7.360
 1464POPC   NC323087   9.282  17.839   9.391
 1464POPC   PO423088   8.776  18.206   9.627
 1464POPC   GL123089   8.737  18.322   9.206
 1464POPC   GL223090   9.054  18.227   9.057
 1464POPC   C1A23091   8.682  18.464   8.794
 1464POPC   D2A23092   8.988  18.499   8.472
 1464POPC   C3A23093   8.818  18.417   8.056
 1464POPC   C4A23094   9.034  18.582   7.720
 1464POPC   C1B23095   9.207  17.951   8.686
 1464POPC   C2B23096   9.192  17.855   8.235
 1464POPC   C3B23097   9.207  18.101   7.882
 1464POPC   C4B23098   9.480  18.382   7.802
 1465POPC   NC323099  11.148  42.913   9.683
 1465POPC   PO423100  11.480  43.335   9.328
 1465POPC   GL123101  11.232  43.177   9.083
 1465POPC   GL223102  11.244  42.853   9.183
 1465POPC   C1A23103  11.188  43.313   8.683
 1465POPC   D2A23104  11.430  43.165   8.379
 1465POPC   C3A23105  11.281  43.217   8.015
 1465POPC   C4A23106  11.529  43.465   7.786
 1465POPC   C1B23107  11.396  42.799   8.760
 1465POPC   C2B23108  11.261  42.611   8.390
 1465POPC   C3B23109  11.277  42.682   7.962
 1465POPC   C4B23110  11.464  42.664   7.527
 1466POPC   NC323111  37.699  31.609   9.840
 1466POPC   PO423112  37.895  31.314   9.307
 1466POPC   GL123113  37.891  31.285   8.902
 1466POPC   GL223114  37.795  31.617   8.928
 1466POPC   C1A23115  37.736  31.388   8.488
 1466POPC   D2A23116  37.384  31.561   8.277
 1466POPC   C3A23117  37.394  31.313   7.914
 1466POPC   C4A23118  37.627  31.468   7.601
 1466POPC   C1B23119  38.143  31.689   8.677
 1466POPC   C2B23120  38.119  31.793   8.309
 1466POPC   C3B23121  37.868  31.633   8.027
 1466POPC   C4B23122  37.947  31.889   7.699
 1467POPC   NC323123  26.677  21.172   9.523
 1467POPC   PO423124  27.080  21.620   9.645
 1467POPC   GL123125  26.940  21.524   9.254
 1467POPC   GL223126  26.670  21.723   9.179
 1467POPC   C1A23127  27.050  21.626   8.841
 1467POPC   D2A23128  27.028  21.485   8.424
 1467POPC   C3A23129  27.058  21.749   8.046
 1467POPC   C4A23130  27.107  21.642   7.612
 1467POPC   C1B23131  26.558  21.649   8.715
 1467POPC   C2B23132  26.568  21.600   8.245
 1467POPC   C3B23133  26.611  21.633   7.785
 1467POPC   C4B23134  26.457  21.756   7.355
 1468POPC   NC323135  38.229  32.196   9.837
 1468POPC   PO423136  38.530  31.982   9.300
 1468POPC   GL123137  38.338  32.063   8.952
 1468POPC   GL223138  38.355  32.403   8.935
 1468POPC   C1A23139  38.475  32.090   8.550
 1468POPC   D2A23140  38.695  32.085   8.195
 1468POPC   C3A23141  38.434  32.000   7.886
 1468POPC   C4A23142  38.214  32.349   7.691
 1468POPC   C1B23143  38.787  32.480   8.713
 1468POPC   C2B23144  38.952  32.551   8.279
 1468POPC   C3B23145  38.748  32.469   7.867
 1468POPC   C4B23146  38.607  32.716   7.529
 1469POPC   NC323147  29.041  30.144   9.487
 1469POPC   PO423148  29.330  30.795   9.461
 1469POPC   GL123149  29.054  30.714   9.130
 1469POPC   GL223150  29.011  30.390   9.053
 1469POPC   C1A23151  29.045  30.803   8.683
 1469POPC   D2A23152  29.043  30.652   8.291
 1469POPC   C3A23153  29.243  30.921   8.030
 1469POPC   C4A23154  29.151  31.010   7.626
 1469POPC   C1B23155  28.872  30.304   8.648
 1469POPC   C2B23156  28.730  30.180   8.253
 1469POPC   C3B23157  28.990  30.210   7.913
 1469POPC   C4B23158  29.239  30.499   7.724
 1470POPC   NC323159  41.140   4.526   9.410
 1470POPC   PO423160  41.752   4.889   9.478
 1470POPC   GL123161  41.811   5.186   9.180
 1470POPC   GL223162  41.528   5.247   9.021
 1470POPC   C1A23163  41.914   5.120   8.766
 1470POPC   D2A23164  41.628   5.157   8.411
 1470POPC   C3A23165  41.833   5.220   8.019
 1470POPC   C4A23166  41.842   5.160   7.570
 1470POPC   C1B23167  41.483   4.846   8.801
 1470POPC   C2B23168  41.508   4.632   8.421
 1470POPC   C3B23169  41.548   4.807   8.034
 1470POPC   C4B23170  41.370   5.057   7.714
 1471POPC   NC323171  12.638  41.689   9.570
 1471POPC   PO423172  13.127  41.144   9.457
 1471POPC   GL123173  12.887  41.396   9.249
 1471POPC   GL223174  13.058  41.705   9.266
 1471POPC   C1A23175  12.712  41.489   8.887
 1471POPC   D2A23176  12.662  41.650   8.497
 1471POPC   C3A23177  12.731  41.354   8.198
 1471POPC   C4A23178  12.705  41.486   7.787
 1471POPC   C1B23179  13.176  41.704   8.864
 1471POPC   C2B23180  13.158  41.548   8.464
 1471POPC   C3B23181  13.002  41.782   8.120
 1471POPC   C4B23182  13.197  41.631   7.776
 1472POPC   NC323183  34.705   8.974   9.365
 1472POPC   PO423184  35.154   9.216   9.795
 1472POPC   GL123185  35.218   9.165   9.320
 1472POPC   GL223186  34.971   9.395   9.204
 1472POPC   C1A23187  35.494   9.125   8.918
 1472POPC   D2A23188  35.563   8.957   8.473
 1472POPC   C3A23189  35.539   9.175   8.063
 1472POPC   C4A23190  35.585   9.013   7.649
 1472POPC   C1B23191  35.000   9.139   8.816
 1472POPC   C2B23192  35.085   9.204   8.374
 1472POPC   C3B23193  35.032   9.052   7.958
 1472POPC   C4B23194  35.090   9.000   7.519
 1473POPC   NC323195  33.505   8.155   9.254
 1473POPC   PO423196  34.163   8.023   9.461
 1473POPC   GL123197  33.917   7.896   9.091
 1473POPC   GL223198  33.891   8.249   8.963
 1473POPC   C1A23199  33.694   7.907   8.680
 1473POPC   D2A23200  33.962   8.190   8.462
 1473POPC   C3A23201  33.772   8.232   8.083
 1473POPC   C4A23202  33.611   8.097   7.692
 1473POPC   C1B23203  33.562   8.447   8.660
 1473POPC   C2B23204  33.532   8.651   8.231
 1473POPC   C3B23205  33.602   8.611   7.749
 1473POPC   C4B23206  33.567   8.641   7.250
 1474POPC   NC323207  32.942  14.120   9.736
 1474POPC   PO423208  33.118  14.716   9.527
 1474POPC   GL123209  33.022  14.466   9.165
 1474POPC   GL223210  32.692  14.347   9.101
 1474POPC   C1A23211  33.198  14.388   8.733
 1474POPC   D2A23212  32.993  14.375   8.313
 1474POPC   C3A23213  33.226  14.515   7.924
 1474POPC   C4A23214  33.279  14.473   7.464
 1474POPC   C1B23215  32.734  14.590   8.734
 1474POPC   C2B23216  32.597  14.716   8.344
 1474POPC   C3B23217  32.732  14.671   7.925
 1474POPC   C4B23218  32.511  14.448   7.596
 1475POPC   NC323219  10.727  16.117   9.522
 1475POPC   PO423220  10.076  15.876   9.445
 1475POPC   GL123221  10.397  15.928   9.147
 1475POPC   GL223222  10.705  15.711   9.174
 1475POPC   C1A23223  10.375  15.998   8.713
 1475POPC   D2A23224  10.516  16.321   8.428
 1475POPC   C3A23225  10.519  16.196   7.999
 1475POPC   C4A23226  10.364  15.830   7.732
 1475POPC   C1B23227  10.868  15.858   8.767
 1475POPC   C2B23228  10.734  15.857   8.335
 1475POPC   C3B23229  10.912  15.868   7.931
 1475POPC   C4B23230  10.937  15.741   7.496
 1476POPC   NC323231  32.116   6.044   9.434
 1476POPC   PO423232  32.601   5.630   9.516
 1476POPC   GL123233  32.396   5.700   9.132
 1476POPC   GL223234  32.039   5.624   9.072
 1476POPC   C1A23235  32.289   6.005   8.823
 1476POPC   D2A23236  32.010   6.002   8.474
 1476POPC   C3A23237  32.200   6.029   8.117
 1476POPC   C4A23238  32.221   5.887   7.730
 1476POPC   C1B23239  32.079   5.505   8.634
 1476POPC   C2B23240  32.122   5.512   8.187
 1476POPC   C3B23241  32.004   5.415   7.779
 1476POPC   C4B23242  31.907   5.647   7.390
 1477POPC   NC323243   6.163   9.975   9.377
 1477POPC   PO423244   5.677   9.727   9.797
 1477POPC   GL123245   5.594   9.661   9.301
 1477POPC   GL223246   5.799   9.838   9.074
 1477POPC   C1A23247   5.443   9.606   8.832
 1477POPC   D2A23248   5.597   9.504   8.453
 1477POPC   C3A23249   5.730   9.579   8.075
 1477POPC   C4A23250   5.614   9.889   7.783
 1477POPC   C1B23251   5.976   9.723   8.698
 1477POPC   C2B23252   6.195   9.803   8.327
 1477POPC   C3B23253   6.100   9.914   7.936
 1477POPC   C4B23254   6.050   9.570   7.678
 1478POPC   NC323255   7.280   2.013   9.626
 1478POPC   PO423256   7.654   1.679   9.231
 1478POPC   GL123257   7.392   1.871   9.015
 1478POPC   GL223258   7.371   2.224   9.029
 1478POPC   C1A23259   7.314   1.922   8.611
 1478POPC   D2A23260   7.622   1.895   8.317
 1478POPC   C3A23261   7.433   1.908   7.948
 1478POPC   C4A23262   7.255   1.526   7.770
 1478POPC   C1B23263   7.741   2.208   8.704
 1478POPC   C2B23264   7.918   2.305   8.314
 1478POPC   C3B23265   7.746   2.355   7.901
 1478POPC   C4B23266   7.779   2.189   7.468
 1479POPC   NC323267  44.270   7.307   9.520
 1479POPC   PO423268  44.916   7.529   9.519
 1479POPC   GL123269  44.683   7.331   9.154
 1479POPC   GL223270  44.400   7.090   9.100
 1479POPC   C1A23271  44.641   7.487   8.747
 1479POPC   D2A23272  44.547   7.677   8.343
 1479POPC   C3A23273  44.787   7.477   8.011
 1479POPC   C4A23274  44.776   7.499   7.586
 1479POPC   C1B23275  44.523   6.980   8.741
 1479POPC   C2B23276  44.595   7.152   8.354
 1479POPC   C3B23277  44.565   6.982   7.958
 1479POPC   C4B23278  44.388   7.081   7.566
 1480POPC   NC323279  32.208  13.471   9.533
 1480POPC   PO423280  31.694  13.785   9.331
 1480POPC   GL123281  32.046  13.638   9.070
 1480POPC   GL223282  32.380  13.790   9.143
 1480POPC   C1A23283  32.095  13.394   8.702
 1480POPC   D2A23284  31.944  13.276   8.286
 1480POPC   C3A23285  32.026  13.583   7.901
 1480POPC   C4A23286  32.028  13.772   7.441
 1480POPC   C1B23287  32.523  13.676   8.708
 1480POPC   C2B23288  32.395  13.697   8.271
 1480POPC   C3B23289  32.553  13.752   7.825
 1480POPC   C4B23290  32.528  13.942   7.428
 1481POPC   NC323291   0.960  35.620   9.457
 1481POPC   PO423292   1.494  35.213   9.405
 1481POPC   GL123293   1.150  35.182   9.169
 1481POPC   GL223294   1.250  35.484   9.040
 1481POPC   C1A23295   1.129  35.081   8.736
 1481POPC   D2A23296   1.377  35.216   8.404
 1481POPC   C3A23297   1.200  35.173   7.998
 1481POPC   C4A23298   1.448  35.216   7.627
 1481POPC   C1B23299   1.259  35.665   8.654
 1481POPC   C2B23300   1.200  35.802   8.217
 1481POPC   C3B23301   1.239  35.655   7.809
 1481POPC   C4B23302   0.966  35.488   7.516
 1482POPC   NC323303  12.622  13.477   9.601
 1482POPC   PO423304  11.970  13.536   9.701
 1482POPC   GL123305  12.036  13.569   9.231
 1482POPC   GL223306  12.344  13.439   9.168
 1482POPC   C1A23307  11.927  13.686   8.780
 1482POPC   D2A23308  11.775  13.587   8.365
 1482POPC   C3A23309  11.942  13.736   7.974
 1482POPC   C4A23310  11.815  13.608   7.528
 1482POPC   C1B23311  12.289  13.358   8.743
 1482POPC   C2B23312  12.310  13.581   8.352
 1482POPC   C3B23313  12.313  13.399   7.947
 1482POPC   C4B23314  12.320  13.597   7.546
 1483POPC   NC323315  33.864  15.790   9.654
 1483POPC   PO423316  33.554  16.256   9.319
 1483POPC   GL123317  33.803  15.915   9.113
 1483POPC   GL223318  34.043  15.603   9.178
 1483POPC   C1A23319  34.041  15.941   8.714
 1483POPC   D2A23320  34.286  15.938   8.323
 1483POPC   C3A23321  34.014  16.021   7.976
 1483POPC   C4A23322  34.090  15.900   7.567
 1483POPC   C1B23323  33.783  15.498   8.808
 1483POPC   C2B23324  33.624  15.723   8.461
 1483POPC   C3B23325  33.664  15.605   8.025
 1483POPC   C4B23326  33.603  15.858   7.689
 1484POPC   NC323327  27.429  35.436   9.425
 1484POPC   PO423328  28.088  35.198   9.553
 1484POPC   GL123329  27.999  35.339   9.136
 1484POPC   GL223330  27.706  35.203   9.019
 1484POPC   C1A23331  27.950  35.575   8.735
 1484POPC   D2A23332  27.712  35.589   8.358
 1484POPC   C3A23333  27.868  35.445   7.969
 1484POPC   C4A23334  27.947  35.690   7.652
 1484POPC   C1B23335  27.800  35.076   8.560
 1484POPC   C2B23336  27.558  35.088   8.142
 1484POPC   C3B23337  27.263  35.137   7.746
 1484POPC   C4B23338  27.303  34.984   7.290
 1485POPC   NC323339  30.252  14.919   9.456
 1485POPC   PO423340  29.844  15.447   9.550
 1485POPC   GL123341  29.934  15.223   9.199
 1485POPC   GL223342  29.729  14.922   9.109
 1485POPC   C1A23343  30.121  15.165   8.822
 1485POPC   D2A23344  29.910  14.975   8.509
 1485POPC   C3A23345  30.031  15.117   8.137
 1485POPC   C4A23346  29.909  14.953   7.765
 1485POPC   C1B23347  29.549  15.235   8.854
 1485POPC   C2B23348  29.596  15.378   8.452
 1485POPC   C3B23349  29.530  15.278   8.048
 1485POPC   C4B23350  29.492  15.224   7.643
 1486POPC   NC323351   6.288  15.756   9.779
 1486POPC   PO423352   6.875  16.027   9.459
 1486POPC   GL123353   6.614  16.030   9.104
 1486POPC   GL223354   6.783  15.777   8.973
 1486POPC   C1A23355   6.655  16.176   8.668
 1486POPC   D2A23356   6.428  16.048   8.271
 1486POPC   C3A23357   6.655  16.102   7.866
 1486POPC   C4A23358   6.501  15.961   7.431
 1486POPC   C1B23359   6.464  15.701   8.653
 1486POPC   C2B23360   6.412  15.483   8.264
 1486POPC   C3B23361   6.471  15.612   7.837
 1486POPC   C4B23362   6.560  15.449   7.432
 1487POPC   NC323363  27.270  33.581   9.412
 1487POPC   PO423364  27.963  33.582   9.540
 1487POPC   GL123365  27.704  33.880   9.230
 1487POPC   GL223366  27.414  33.775   8.994
 1487POPC   C1A23367  27.820  33.980   8.789
 1487POPC   D2A23368  27.996  33.719   8.488
 1487POPC   C3A23369  27.896  33.857   8.079
 1487POPC   C4A23370  27.793  33.627   7.719
 1487POPC   C1B23371  27.295  33.926   8.620
 1487POPC   C2B23372  27.462  34.078   8.250
 1487POPC   C3B23373  27.204  34.173   7.923
 1487POPC   C4B23374  27.269  34.149   7.505
 1488POPC   NC323375  42.793  43.325   9.512
 1488POPC   PO423376  42.101  43.209   9.474
 1488POPC   GL123377  42.381  43.356   9.161
 1488POPC   GL223378  42.522  43.037   9.146
 1488POPC   C1A23379  42.388  43.347   8.705
 1488POPC   D2A23380  42.183  43.275   8.295
 1488POPC   C3A23381  42.462  43.362   7.965
 1488POPC   C4A23382  42.486  43.672   7.643
 1488POPC   C1B23383  42.337  42.781   8.823
 1488POPC   C2B23384  42.207  42.772   8.382
 1488POPC   C3B23385  42.291  42.859   7.906
 1488POPC   C4B23386  42.391  42.715   7.447
 1489POPC   NC323387  25.404  14.211   9.461
 1489POPC   PO423388  24.943  14.613   9.506
 1489POPC   GL123389  25.007  14.349   9.126
 1489POPC   GL223390  25.168  14.017   9.028
 1489POPC   C1A23391  25.193  14.396   8.699
 1489POPC   D2A23392  25.334  14.406   8.278
 1489POPC   C3A23393  25.240  14.541   7.851
 1489POPC   C4A23394  25.480  14.695   7.484
 1489POPC   C1B23395  25.593  14.024   8.792
 1489POPC   C2B23396  25.733  14.106   8.343
 1489POPC   C3B23397  25.462  14.037   7.961
 1489POPC   C4B23398  24.993  14.067   7.860
 1490POPC   NC323399   1.303  19.174   9.425
 1490POPC   PO423400   0.968  18.546   9.472
 1490POPC   GL123401   1.208  18.650   9.074
 1490POPC   GL223402   1.519  18.853   9.086
 1490POPC   C1A23403   1.265  18.820   8.656
 1490POPC   D2A23404   1.053  19.115   8.410
 1490POPC   C3A23405   1.126  18.949   8.035
 1490POPC   C4A23406   0.892  18.838   7.691
 1490POPC   C1B23407   1.454  19.276   8.808
 1490POPC   C2B23408   1.547  19.259   8.372
 1490POPC   C3B23409   1.410  19.385   7.970
 1490POPC   C4B23410   1.365  19.116   7.614
 1491POPC   NC323411   5.615  17.557   9.829
 1491POPC   PO423412   6.375  17.618   9.787
 1491POPC   GL123413   5.949  17.499   9.461
 1491POPC   GL223414   5.937  17.195   9.259
 1491POPC   C1A23415   5.797  17.666   9.046
 1491POPC   D2A23416   5.984  17.760   8.636
 1491POPC   C3A23417   5.803  17.709   8.231
 1491POPC   C4A23418   5.910  17.609   7.841
 1491POPC   C1B23419   5.719  17.188   8.870
 1491POPC   C2B23420   5.887  17.279   8.493
 1491POPC   C3B23421   5.963  17.112   8.126
 1491POPC   C4B23422   5.782  17.082   7.770
 1492POPC   NC323423   1.937  37.174   9.424
 1492POPC   PO423424   2.300  36.738   9.655
 1492POPC   GL123425   2.273  36.804   9.215
 1492POPC   GL223426   1.906  36.740   9.136
 1492POPC   C1A23427   2.331  37.098   8.871
 1492POPC   D2A23428   2.236  37.160   8.440
 1492POPC   C3A23429   2.046  36.845   8.201
 1492POPC   C4A23430   2.082  36.906   7.795
 1492POPC   C1B23431   1.887  36.869   8.703
 1492POPC   C2B23432   1.686  37.152   8.405
 1492POPC   C3B23433   1.633  37.138   7.944
 1492POPC   C4B23434   1.804  37.243   7.527
 1493POPC   NC323435   8.722  19.597   9.630
 1493POPC   PO423436   9.183  20.027   9.611
 1493POPC   GL123437   9.001  20.009   9.210
 1493POPC   GL223438   9.299  20.189   9.128
 1493POPC   C1A23439   8.807  19.771   8.856
 1493POPC   D2A23440   8.952  19.624   8.448
 1493POPC   C3A23441   8.763  19.680   8.051
 1493POPC   C4A23442   8.935  19.577   7.665
 1493POPC   C1B23443   9.087  20.221   8.742
 1493POPC   C2B23444   9.131  20.397   8.376
 1493POPC   C3B23445   9.289  20.240   8.042
 1493POPC   C4B23446   9.057  20.090   7.694
 1494POPC   NC323447   0.492  31.648   9.453
 1494POPC   PO423448   0.227  31.016   9.365
 1494POPC   GL123449   0.496  31.290   9.091
 1494POPC   GL223450   0.730  31.610   8.988
 1494POPC   C1A23451   0.369  31.372   8.697
 1494POPC   D2A23452   0.139  31.314   8.362
 1494POPC   C3A23453   0.404  31.507   8.116
 1494POPC   C4A23454   0.322  31.452   7.714
 1494POPC   C1B23455   0.808  31.541   8.528
 1494POPC   C2B23456   0.699  31.138   8.342
 1494POPC   C3B23457   0.731  31.171   7.929
 1494POPC   C4B23458   0.825  31.601   7.744
 1495POPC   NC323459  30.438   6.072   9.440
 1495POPC   PO423460  31.016   5.570   9.462
 1495POPC   GL123461  30.781   5.821   9.143
 1495POPC   GL223462  30.453   5.796   9.025
 1495POPC   C1A23463  30.914   6.081   8.793
 1495POPC   D2A23464  30.786   6.163   8.371
 1495POPC   C3A23465  30.719   5.783   8.091
 1495POPC   C4A23466  30.794   5.776   7.640
 1495POPC   C1B23467  30.420   6.110   8.731
 1495POPC   C2B23468  30.284   6.087   8.311
 1495POPC   C3B23469  30.409   6.112   7.866
 1495POPC   C4B23470  30.273   6.128   7.422
 1496POPC   NC323471  16.892   7.870   9.519
 1496POPC   PO423472  16.628   7.266   9.439
 1496POPC   GL123473  16.800   7.366   9.076
 1496POPC   GL223474  17.078   7.574   9.127
 1496POPC   C1A23475  16.675   7.309   8.671
 1496POPC   D2A23476  16.385   7.306   8.356
 1496POPC   C3A23477  16.631   7.272   8.024
 1496POPC   C4A23478  16.681   7.220   7.616
 1496POPC   C1B23479  16.972   7.734   8.692
 1496POPC   C2B23480  16.853   7.952   8.291
 1496POPC   C3B23481  16.770   7.769   7.894
 1496POPC   C4B23482  17.094   7.479   7.807
 1497POPC   NC323483  26.875   1.183   9.579
 1497POPC   PO423484  26.485   0.621   9.629
 1497POPC   GL123485  26.623   0.947   9.218
 1497POPC   GL223486  26.742   1.324   9.114
 1497POPC   C1A23487  26.930   0.951   8.837
 1497POPC   D2A23488  27.219   1.154   8.526
 1497POPC   C3A23489  27.029   1.203   8.099
 1497POPC   C4A23490  26.941   1.439   7.709
 1497POPC   C1B23491  26.498   1.232   8.759
 1497POPC   C2B23492  26.542   1.078   8.329
 1497POPC   C3B23493  26.523   1.229   7.895
 1497POPC   C4B23494  26.445   1.533   7.564
 1498POPC   NC323495   4.362  34.846   9.443
 1498POPC   PO423496   4.152  34.241   9.492
 1498POPC   GL123497   4.273  34.392   9.096
 1498POPC   GL223498   4.570  34.537   9.081
 1498POPC   C1A23499   4.320  34.443   8.626
 1498POPC   D2A23500   4.113  34.364   8.223
 1498POPC   C3A23501   4.357  34.337   7.859
 1498POPC   C4A23502   4.242  34.299   7.439
 1498POPC   C1B23503   4.759  34.697   8.746
 1498POPC   C2B23504   4.662  34.742   8.326
 1498POPC   C3B23505   4.422  34.830   7.980
 1498POPC   C4B23506   4.373  34.781   7.529
 1499POPC   NC323507  28.484  23.258   9.494
 1499POPC   PO423508  28.377  22.560   9.639
 1499POPC   GL123509  28.290  22.824   9.292
 1499POPC   GL223510  28.083  22.609   9.126
 1499POPC   C1A23511  28.299  23.063   8.870
 1499POPC   D2A23512  28.476  22.984   8.432
 1499POPC   C3A23513  28.353  23.106   7.995
 1499POPC   C4A23514  28.288  23.017   7.534
 1499POPC   C1B23515  28.483  22.598   8.878
 1499POPC   C2B23516  28.481  22.456   8.477
 1499POPC   C3B23517  28.486  22.594   8.069
 1499POPC   C4B23518  28.257  22.389   7.760
 1500POPC   NC323519  26.012  26.080   9.887
 1500POPC   PO423520  25.268  26.179   9.603
 1500POPC   GL123521  25.284  26.113   9.177
 1500POPC   GL223522  25.558  25.929   9.163
 1500POPC   C1A23523  25.183  25.914   8.762
 1500POPC   D2A23524  25.354  26.044   8.346
 1500POPC   C3A23525  25.295  25.906   7.954
 1500POPC   C4A23526  25.120  25.905   7.559
 1500POPC   C1B23527  25.670  26.060   8.771
 1500POPC   C2B23528  25.828  26.211   8.376
 1500POPC   C3B23529  25.792  26.037   7.981
 1500POPC   C4B23530  25.645  26.114   7.555
 1501POPC   NC323531  35.263   7.764   9.450
 1501POPC   PO423532  35.554   7.173   9.498
 1501POPC   GL123533  35.392   7.391   9.091
 1501POPC   GL223534  35.052   7.259   8.898
 1501POPC   C1A23535  35.571   7.428   8.679
 1501POPC   D2A23536  35.373   7.443   8.306
 1501POPC   C3A23537  35.524   7.681   7.989
 1501POPC   C4A23538  35.617   7.325   7.750
 1501POPC   C1B23539  35.120   7.660   8.762
 1501POPC   C2B23540  35.003   7.797   8.397
 1501POPC   C3B23541  35.006   7.657   7.990
 1501POPC   C4B23542  35.048   7.266   7.800
 1502POPC   NC323543  16.389   0.166   9.555
 1502POPC   PO423544  15.857   0.666   9.417
 1502POPC   GL123545  16.034   0.416   9.116
 1502POPC   GL223546  16.355   0.542   9.050
 1502POPC   C1A23547  15.995   0.412   8.671
 1502POPC   D2A23548  16.238   0.473   8.295
 1502POPC   C3A23549  16.000   0.338   7.953
 1502POPC   C4A23550  15.707   0.022   7.929
 1502POPC   C1B23551  16.292   0.823   8.685
 1502POPC   C2B23552  16.471   0.933   8.266
 1502POPC   C3B23553  16.297   0.755   7.872
 1502POPC   C4B23554  15.851   0.780   7.777
 1503POPC   NC323555  31.289  34.428   9.554
 1503POPC   PO423556  31.923  34.338   9.305
 1503POPC   GL123557  31.621  34.522   9.056
 1503POPC   GL223558  31.251  34.624   9.080
 1503POPC   C1A23559  31.717  34.479   8.612
 1503POPC   D2A23560  31.492  34.540   8.249
 1503POPC   C3A23561  31.596  34.591   7.837
 1503POPC   C4A23562  31.615  34.466   7.433
 1503POPC   C1B23563  31.382  34.865   8.751
 1503POPC   C2B23564  31.262  34.999   8.349
 1503POPC   C3B23565  31.164  34.857   7.947
 1503POPC   C4B23566  31.181  34.793   7.500
 1504POPC   NC323567  31.567   8.269   9.584
 1504POPC   PO423568  31.737   8.782   9.219
 1504POPC   GL123569  31.515   8.403   9.091
 1504POPC   GL223570  31.689   8.075   9.125
 1504POPC   C1A23571  31.303   8.181   8.739
 1504POPC   D2A23572  31.166   8.299   8.309
 1504POPC   C3A23573  31.392   8.167   7.928
 1504POPC   C4A23574  31.399   8.250   7.472
 1504POPC   C1B23575  31.820   8.266   8.691
 1504POPC   C2B23576  31.655   8.485   8.291
 1504POPC   C3B23577  31.699   8.536   7.821
 1504POPC   C4B23578  31.892   8.190   7.638
 1505POPC   NC323579  44.859  43.483   9.436
 1505POPC   PO423580  44.320  43.808   9.618
 1505POPC   GL123581  44.503  43.782   9.248
 1505POPC   GL223582  44.393  43.446   9.179
 1505POPC   C1A23583  44.786  43.895   8.879
 1505POPC   D2A23584  44.626  44.112   8.515
 1505POPC   C3A23585  44.777  43.952   8.125
 1505POPC   C4A23586  44.558  44.149   7.786
 1505POPC   C1B23587  44.357  43.626   8.807
 1505POPC   C2B23588  44.517  43.620   8.445
 1505POPC   C3B23589  44.336  43.671   8.083
 1505POPC   C4B23590  44.544  43.665   7.708
 1506POPC   NC323591  37.478   8.373   9.501
 1506POPC   PO423592  38.152   8.465   9.526
 1506POPC   GL123593  37.897   8.444   9.188
 1506POPC   GL223594  37.742   8.107   9.173
 1506POPC   C1A23595  37.815   8.491   8.767
 1506POPC   D2A23596  38.056   8.436   8.407
 1506POPC   C3A23597  37.770   8.518   8.129
 1506POPC   C4A23598  37.506   8.327   7.870
 1506POPC   C1B23599  37.512   8.056   8.796
 1506POPC   C2B23600  37.485   8.143   8.367
 1506POPC   C3B23601  37.480   7.840   8.010
 1506POPC   C4B23602  37.533   7.898   7.567
 1507POPC   NC323603  14.123  34.843   9.700
 1507POPC   PO423604  14.136  34.149   9.689
 1507POPC   GL123605  14.216  34.482   9.321
 1507POPC   GL223606  14.581  34.608   9.284
 1507POPC   C1A23607  14.192  34.713   8.907
 1507POPC   D2A23608  14.001  34.713   8.461
 1507POPC   C3A23609  14.299  34.771   8.074
 1507POPC   C4A23610  14.139  34.714   7.647
 1507POPC   C1B23611  14.703  34.736   8.853
 1507POPC   C2B23612  14.849  34.717   8.421
 1507POPC   C3B23613  14.784  34.543   8.012
 1507POPC   C4B23614  14.651  34.681   7.609
 1508POPC   NC323615  10.116  19.030   9.458
 1508POPC   PO423616   9.513  18.644   9.372
 1508POPC   GL123617   9.780  18.814   9.120
 1508POPC   GL223618   9.659  19.158   9.216
 1508POPC   C1A23619   9.891  18.784   8.703
 1508POPC   D2A23620   9.812  19.085   8.436
 1508POPC   C3A23621   9.912  18.996   8.052
 1508POPC   C4A23622  10.280  18.925   7.861
 1508POPC   C1B23623   9.627  19.356   8.826
 1508POPC   C2B23624   9.417  19.393   8.432
 1508POPC   C3B23625   9.592  19.371   8.017
 1508POPC   C4B23626   9.399  19.358   7.634
 1509POPC   NC323627  15.008  37.893   9.419
 1509POPC   PO423628  15.120  38.636   9.458
 1509POPC   GL123629  15.413  38.549   9.138
 1509POPC   GL223630  15.210  38.255   9.096
 1509POPC   C1A23631  15.430  38.659   8.712
 1509POPC   D2A23632  15.093  38.511   8.470
 1509POPC   C3A23633  15.194  38.397   8.081
 1509POPC   C4A23634  15.155  38.600   7.694
 1509POPC   C1B23635  15.096  38.061   8.724
 1509POPC   C2B23636  14.906  38.030   8.337
 1509POPC   C3B23637  15.168  37.868   8.023
 1509POPC   C4B23638  15.280  38.007   7.618
 1510POPC   NC323639  27.557  12.420   9.426
 1510POPC   PO423640  27.738  13.102   9.530
 1510POPC   GL123641  27.650  12.881   9.178
 1510POPC   GL223642  27.280  12.802   9.145
 1510POPC   C1A23643  27.883  12.854   8.794
 1510POPC   D2A23644  27.818  12.627   8.402
 1510POPC   C3A23645  27.531  12.910   8.177
 1510POPC   C4A23646  27.632  13.185   7.828
 1510POPC   C1B23647  27.492  12.514   8.812
 1510POPC   C2B23648  27.426  12.276   8.461
 1510POPC   C3B23649  27.506  12.398   8.065
 1510POPC   C4B23650  27.482  12.698   7.713
 1511POPC   NC323651  13.471  37.422   9.439
 1511POPC   PO423652  13.768  37.873   9.792
 1511POPC   GL123653  13.716  37.842   9.254
 1511POPC   GL223654  13.493  37.649   8.994
 1511POPC   C1A23655  13.865  37.944   8.805
 1511POPC   D2A23656  13.701  38.036   8.360
 1511POPC   C3A23657  13.978  37.963   8.020
 1511POPC   C4A23658  13.959  37.737   7.617
 1511POPC   C1B23659  13.592  37.403   8.634
 1511POPC   C2B23660  13.833  37.541   8.304
 1511POPC   C3B23661  13.570  37.669   7.982
 1511POPC   C4B23662  13.573  37.405   7.653
 1512POPC   NC323663  19.893  23.058   9.546
 1512POPC   PO423664  19.416  22.851   9.350
 1512POPC   GL123665  19.714  23.094   9.064
 1512POPC   GL223666  20.046  22.975   9.066
 1512POPC   C1A23667  19.927  23.321   8.722
 1512POPC   D2A23668  19.791  23.180   8.321
 1512POPC   C3A23669  20.019  23.210   7.936
 1512POPC   C4A23670  20.042  23.252   7.483
 1512POPC   C1B23671  19.932  22.792   8.645
 1512POPC   C2B23672  19.980  22.734   8.154
 1512POPC   C3B23673  19.884  22.769   7.681
 1512POPC   C4B23674  19.787  22.507   7.308
 1513POPC   NC323675  44.640  34.344   9.454
 1513POPC   PO423676  44.606  34.978   9.462
 1513POPC   GL123677  44.670  34.731   9.086
 1513POPC   GL223678  44.468  34.436   8.995
 1513POPC   C1A23679  44.784  34.573   8.636
 1513POPC   D2A23680  44.988  34.790   8.284
 1513POPC   C3A23681  44.743  34.684   7.916
 1513POPC   C4A23682  44.914  34.344   7.653
 1513POPC   C1B23683  44.325  34.831   8.754
 1513POPC   C2B23684  44.335  35.042   8.376
 1513POPC   C3B23685  44.228  34.823   7.994
 1513POPC   C4B23686  44.329  34.687   7.588
 1514POPC   NC323687  40.679  11.715   9.431
 1514POPC   PO423688  40.938  12.285   9.686
 1514POPC   GL123689  40.904  12.131   9.225
 1514POPC   GL223690  40.553  12.139   9.100
 1514POPC   C1A23691  40.891  12.005   8.738
 1514POPC   D2A23692  40.748  11.860   8.291
 1514POPC   C3A23693  40.961  12.030   7.885
 1514POPC   C4A23694  41.068  12.262   7.471
 1514POPC   C1B23695  40.246  12.091   8.745
 1514POPC   C2B23696  40.175  11.839   8.342
 1514POPC   C3B23697  40.387  11.862   7.933
 1514POPC   C4B23698  40.517  12.280   7.882
 1515POPC   NC323699  27.209  26.811   9.551
 1515POPC   PO423700  26.646  27.058   9.540
 1515POPC   GL123701  26.743  26.727   9.220
 1515POPC   GL223702  26.955  26.439   9.264
 1515POPC   C1A23703  26.577  26.685   8.794
 1515POPC   D2A23704  26.756  26.613   8.405
 1515POPC   C3A23705  26.618  26.606   8.010
 1515POPC   C4A23706  26.854  26.897   7.732
 1515POPC   C1B23707  26.971  26.350   8.802
 1515POPC   C2B23708  27.187  26.378   8.385
 1515POPC   C3B23709  27.125  26.508   7.957
 1515POPC   C4B23710  27.042  26.391   7.506
 1516POPC   NC323711  18.840  42.752   9.539
 1516POPC   PO423712  19.393  42.413   9.435
 1516POPC   GL123713  19.174  42.276   9.078
 1516POPC   GL223714  18.840  42.395   9.121
 1516POPC   C1A23715  19.079  42.248   8.656
 1516POPC   D2A23716  18.844  42.351   8.306
 1516POPC   C3A23717  19.153  42.323   8.007
 1516POPC   C4A23718  19.233  41.975   7.758
 1516POPC   C1B23719  18.850  42.695   8.787
 1516POPC   C2B23720  18.750  42.855   8.399
 1516POPC   C3B23721  18.910  42.794   7.993
 1516POPC   C4B23722  18.889  42.550   7.642
 1517POPC   NC323723   5.044  33.605   9.793
 1517POPC   PO423724   5.083  34.228   9.632
 1517POPC   GL123725   4.942  33.891   9.317
 1517POPC   GL223726   5.071  33.551   9.250
 1517POPC   C1A23727   4.957  33.884   8.862
 1517POPC   D2A23728   5.149  33.831   8.450
 1517POPC   C3A23729   4.931  33.550   8.163
 1517POPC   C4A23730   4.807  33.597   7.735
 1517POPC   C1B23731   5.192  33.419   8.793
 1517POPC   C2B23732   5.380  33.369   8.346
 1517POPC   C3B23733   5.472  33.647   7.961
 1517POPC   C4B23734   5.337  33.645   7.500
 1518POPC   NC323735   4.600  39.383   9.488
 1518POPC   PO423736   4.118  38.930   9.538
 1518POPC   GL123737   4.337  39.032   9.191
 1518POPC   GL223738   4.164  39.366   9.183
 1518POPC   C1A23739   4.346  39.136   8.750
 1518POPC   D2A23740   4.412  39.003   8.352
 1518POPC   C3A23741   4.419  39.360   8.068
 1518POPC   C4A23742   4.329  39.128   7.736
 1518POPC   C1B23743   3.888  39.337   8.806
 1518POPC   C2B23744   4.041  39.381   8.399
 1518POPC   C3B23745   3.879  39.279   8.005
 1518POPC   C4B23746   3.942  39.375   7.563
 1519POPC   NC323747  30.970  15.542   9.500
 1519POPC   PO423748  30.652  14.937   9.256
 1519POPC   GL123749  30.767  15.282   9.097
 1519POPC   GL223750  30.500  15.488   9.273
 1519POPC   C1A23751  30.936  15.169   8.705
 1519POPC   D2A23752  30.906  14.843   8.395
 1519POPC   C3A23753  30.772  15.083   8.077
 1519POPC   C4A23754  30.812  15.076   7.650
 1519POPC   C1B23755  30.468  15.588   8.831
 1519POPC   C2B23756  30.499  15.337   8.465
 1519POPC   C3B23757  30.435  15.467   8.057
 1519POPC   C4B23758  30.347  15.214   7.732
 1520POPC   NC323759  13.041   4.125   9.448
 1520POPC   PO423760  12.537   3.783   9.201
 1520POPC   GL123761  12.838   4.085   8.975
 1520POPC   GL223762  13.234   4.177   8.970
 1520POPC   C1A23763  12.946   4.206   8.543
 1520POPC   D2A23764  13.202   4.351   8.189
 1520POPC   C3A23765  12.908   4.282   7.881
 1520POPC   C4A23766  12.476   4.171   7.777
 1520POPC   C1B23767  13.420   4.039   8.563
 1520POPC   C2B23768  13.284   3.856   8.148
 1520POPC   C3B23769  13.308   3.976   7.730
 1520POPC   C4B23770  13.266   4.378   7.536
 1521POPC   NC323771   4.885  21.439   9.549
 1521POPC   PO423772   5.438  21.109   9.525
 1521POPC   GL123773   5.265  21.352   9.172
 1521POPC   GL223774   5.130  21.712   9.151
 1521POPC   C1A23775   5.241  21.192   8.734
 1521POPC   D2A23776   5.480  21.091   8.356
 1521POPC   C3A23777   5.261  21.019   7.962
 1521POPC   C4A23778   5.125  21.313   7.642
 1521POPC   C1B23779   4.837  21.488   8.877
 1521POPC   C2B23780   4.806  21.330   8.465
 1521POPC   C3B23781   4.944  21.497   8.079
 1521POPC   C4B23782   4.686  21.595   7.694
 1522POPC   NC323783   7.049   6.137   9.765
 1522POPC   PO423784   6.978   5.586   9.465
 1522POPC   GL123785   7.194   5.853   9.204
 1522POPC   GL223786   7.024   6.204   9.226
 1522POPC   C1A23787   7.442   5.662   8.855
 1522POPC   D2A23788   7.256   5.612   8.462
 1522POPC   C3A23789   7.484   5.662   8.097
 1522POPC   C4A23790   7.191   5.788   7.813
 1522POPC   C1B23791   6.983   6.092   8.764
 1522POPC   C2B23792   7.113   6.109   8.307
 1522POPC   C3B23793   7.291   6.302   7.922
 1522POPC   C4B23794   7.559   6.133   7.587
 1523POPC   NC323795   2.793   6.165   9.347
 1523POPC   PO423796   2.608   6.892   9.518
 1523POPC   GL123797   2.825   6.705   9.216
 1523POPC   GL223798   2.565   6.523   9.091
 1523POPC   C1A23799   2.848   6.792   8.766
 1523POPC   D2A23800   2.580   6.669   8.426
 1523POPC   C3A23801   2.699   6.828   8.041
 1523POPC   C4A23802   2.931   6.637   7.726
 1523POPC   C1B23803   2.360   6.338   8.756
 1523POPC   C2B23804   2.324   6.197   8.376
 1523POPC   C3B23805   2.496   6.352   8.025
 1523POPC   C4B23806   2.545   6.273   7.638
 1524POPC   NC323807  42.818  34.934   9.381
 1524POPC   PO423808  43.047  35.641   9.476
 1524POPC   GL123809  43.127  35.350   9.163
 1524POPC   GL223810  43.392  35.125   9.308
 1524POPC   C1A23811  43.042  35.387   8.712
 1524POPC   D2A23812  42.855  35.589   8.336
 1524POPC   C3A23813  43.042  35.578   7.922
 1524POPC   C4A23814  42.832  35.518   7.537
 1524POPC   C1B23815  43.346  34.977   8.892
 1524POPC   C2B23816  43.416  35.023   8.467
 1524POPC   C3B23817  43.206  35.112   8.104
 1524POPC   C4B23818  43.245  35.087   7.687
 1525POPC   NC323819  26.199  31.614   9.357
 1525POPC   PO423820  26.355  30.966   9.504
 1525POPC   GL123821  26.359  31.180   9.084
 1525POPC   GL223822  26.012  31.225   9.077
 1525POPC   C1A23823  26.219  31.412   8.661
 1525POPC   D2A23824  26.128  31.778   8.389
 1525POPC   C3A23825  26.128  31.651   7.964
 1525POPC   C4A23826  26.395  31.399   7.681
 1525POPC   C1B23827  25.696  31.278   8.776
 1525POPC   C2B23828  25.730  31.405   8.376
 1525POPC   C3B23829  25.723  31.318   7.960
 1525POPC   C4B23830  25.893  31.442   7.549
 1526POPC   NC323831  13.086  13.833   9.528
 1526POPC   PO423832  12.872  13.095   9.609
 1526POPC   GL123833  12.851  13.357   9.146
 1526POPC   GL223834  12.810  13.702   9.125
 1526POPC   C1A23835  12.764  13.528   8.666
 1526POPC   D2A23836  12.774  13.842   8.345
 1526POPC   C3A23837  12.629  13.796   7.905
 1526POPC   C4A23838  12.820  13.573   7.540
 1526POPC   C1B23839  13.142  13.847   8.803
 1526POPC   C2B23840  13.294  13.917   8.358
 1526POPC   C3B23841  13.142  13.779   7.944
 1526POPC   C4B23842  13.017  14.030   7.607
 1527POPC   NC323843   4.118  12.369   9.492
 1527POPC   PO423844   4.674  11.901   9.477
 1527POPC   GL123845   4.421  11.991   9.180
 1527POPC   GL223846   4.541  12.326   9.156
 1527POPC   C1A23847   4.228  11.782   8.833
 1527POPC   D2A23848   4.274  11.870   8.413
 1527POPC   C3A23849   4.153  11.906   7.994
 1527POPC   C4A23850   4.530  11.919   7.750
 1527POPC   C1B23851   4.373  12.296   8.734
 1527POPC   C2B23852   4.182  12.377   8.309
 1527POPC   C3B23853   4.349  12.390   7.875
 1527POPC   C4B23854   4.297  12.616   7.475
 1528POPC   NC323855  38.718  25.551   9.396
 1528POPC   PO423856  38.534  24.975   9.552
 1528POPC   GL123857  38.450  25.165   9.162
 1528POPC   GL223858  38.129  25.092   9.166
 1528POPC   C1A23859  38.575  25.393   8.784
 1528POPC   D2A23860  38.434  25.507   8.368
 1528POPC   C3A23861  38.633  25.297   8.050
 1528POPC   C4A23862  38.795  25.301   7.673
 1528POPC   C1B23863  38.084  25.304   8.780
 1528POPC   C2B23864  38.072  25.144   8.393
 1528POPC   C3B23865  38.120  25.312   7.989
 1528POPC   C4B23866  38.287  25.114   7.648
 1529POPC   NC323867  18.786  37.087   9.451
 1529POPC   PO423868  18.184  36.701   9.645
 1529POPC   GL123869  18.353  36.834   9.251
 1529POPC   GL223870  18.366  37.162   9.197
 1529POPC   C1A23871  18.123  36.886   8.863
 1529POPC   D2A23872  18.127  36.745   8.485
 1529POPC   C3A23873  18.404  36.777   8.174
 1529POPC   C4A23874  18.295  36.699   7.788
 1529POPC   C1B23875  18.360  37.345   8.792
 1529POPC   C2B23876  18.185  37.249   8.373
 1529POPC   C3B23877  18.289  37.231   7.919
 1529POPC   C4B23878  18.206  37.299   7.479
 1530POPC   NC323879  18.857  27.929   9.480
 1530POPC   PO423880  18.273  27.690   9.459
 1530POPC   GL123881  18.305  27.528   9.084
 1530POPC   GL223882  18.621  27.710   9.050
 1530POPC   C1A23883  18.161  27.236   8.780
 1530POPC   D2A23884  18.143  27.522   8.421
 1530POPC   C3A23885  18.190  27.402   8.013
 1530POPC   C4A23886  18.190  27.495   7.607
 1530POPC   C1B23887  18.605  27.453   8.663
 1530POPC   C2B23888  18.674  27.484   8.228
 1530POPC   C3B23889  18.660  27.619   7.798
 1530POPC   C4B23890  18.682  27.493   7.368
 1531POPC   NC323891   1.244   3.671   9.564
 1531POPC   PO423892   0.580   3.440   9.630
 1531POPC   GL123893   0.872   3.494   9.286
 1531POPC   GL223894   0.912   3.259   9.141
 1531POPC   C1A23895   1.174   3.641   8.903
 1531POPC   D2A23896   1.187   3.883   8.517
 1531POPC   C3A23897   1.390   3.848   8.120
 1531POPC   C4A23898   1.396   3.706   7.665
 1531POPC   C1B23899   1.065   3.160   8.766
 1531POPC   C2B23900   1.308   3.369   8.455
 1531POPC   C3B23901   1.301   3.357   8.031
 1531POPC   C4B23902   1.455   3.204   7.675
 1532POPC   NC323903   3.052   7.101   9.480
 1532POPC   PO423904   3.043   7.789   9.450
 1532POPC   GL123905   2.754   7.524   9.218
 1532POPC   GL223906   3.018   7.439   9.046
 1532POPC   C1A23907   2.636   7.306   8.778
 1532POPC   D2A23908   2.817   7.263   8.372
 1532POPC   C3A23909   2.564   7.318   8.001
 1532POPC   C4A23910   2.769   7.150   7.621
 1532POPC   C1B23911   2.987   7.693   8.656
 1532POPC   C2B23912   2.961   7.768   8.218
 1532POPC   C3B23913   2.974   7.580   7.811
 1532POPC   C4B23914   2.904   7.659   7.380
 1533POPC   NC323915   6.662  21.151   9.653
 1533POPC   PO423916   6.262  21.704   9.483
 1533POPC   GL123917   6.426  21.367   9.161
 1533POPC   GL223918   6.783  21.246   9.189
 1533POPC   C1A23919   6.601  21.374   8.744
 1533POPC   D2A23920   6.447  21.123   8.475
 1533POPC   C3A23921   6.310  21.318   8.133
 1533POPC   C4A23922   6.472  21.244   7.768
 1533POPC   C1B23923   7.086  21.221   8.874
 1533POPC   C2B23924   7.137  21.317   8.429
 1533POPC   C3B23925   6.805  21.461   8.171
 1533POPC   C4B23926   6.719  21.719   7.816
 1534POPC   NC323927  27.856  18.809   9.410
 1534POPC   PO423928  27.827  18.157   9.556
 1534POPC   GL123929  27.933  18.328   9.181
 1534POPC   GL223930  27.582  18.277   9.074
 1534POPC   C1A23931  27.978  18.228   8.744
 1534POPC   D2A23932  27.603  18.209   8.472
 1534POPC   C3A23933  27.676  18.117   8.038
 1534POPC   C4A23934  28.082  18.078   7.814
 1534POPC   C1B23935  27.669  18.625   8.777
 1534POPC   C2B23936  27.775  18.686   8.320
 1534POPC   C3B23937  27.837  18.561   7.883
 1534POPC   C4B23938  27.724  18.743   7.510
 1535POPC   NC323939  20.937   0.224   9.551
 1535POPC   PO423940  20.316   0.448   9.437
 1535POPC   GL123941  20.473   0.583   9.082
 1535POPC   GL223942  20.714   0.327   9.107
 1535POPC   C1A23943  20.426   0.437   8.674
 1535POPC   D2A23944  20.363   0.557   8.282
 1535POPC   C3A23945  20.703   0.601   7.996
 1535POPC   C4A23946  20.434   0.348   7.768
 1535POPC   C1B23947  20.949   0.450   8.767
 1535POPC   C2B23948  20.853   0.282   8.402
 1535POPC   C3B23949  20.923  44.992   8.112
 1535POPC   C4B23950  20.996   0.220   7.747
 1536POPC   NC323951  20.605  11.958   9.523
 1536POPC   PO423952  20.245  12.585   9.457
 1536POPC   GL123953  20.537  12.346   9.211
 1536POPC   GL223954  20.276  12.108   9.146
 1536POPC   C1A23955  20.662  12.189   8.806
 1536POPC   D2A23956  20.504  12.362   8.425
 1536POPC   C3A23957  20.547  12.157   8.044
 1536POPC   C4A23958  20.361  12.346   7.726
 1536POPC   C1B23959  20.360  11.784   8.848
 1536POPC   C2B23960  20.395  11.834   8.428
 1536POPC   C3B23961  20.265  11.702   8.027
 1536POPC   C4B23962  20.415  11.840   7.607
 1537POPC   NC323963  32.730  33.673   9.713
 1537POPC   PO423964  33.142  34.096   9.391
 1537POPC   GL123965  33.245  33.797   9.074
 1537POPC   GL223966  33.613  33.799   9.008
 1537POPC   C1A23967  33.263  33.686   8.602
 1537POPC   D2A23968  32.981  33.467   8.296
 1537POPC   C3A23969  32.974  33.512   7.843
 1537POPC   C4A23970  32.845  33.893   7.685
 1537POPC   C1B23971  33.387  34.164   8.771
 1537POPC   C2B23972  33.054  34.180   8.466
 1537POPC   C3B23973  33.165  34.100   8.036
 1537POPC   C4B23974  33.397  33.793   7.805
 1538POPC   NC323975  11.501  36.382   9.431
 1538POPC   PO423976  11.260  35.778   9.673
 1538POPC   GL123977  11.328  35.931   9.209
 1538POPC   GL223978  11.631  35.754   9.029
 1538POPC   C1A23979  11.097  36.116   8.835
 1538POPC   D2A23980  10.950  35.959   8.445
 1538POPC   C3A23981  11.045  36.151   8.045
 1538POPC   C4A23982  11.184  35.981   7.676
 1538POPC   C1B23983  11.587  36.030   8.713
 1538POPC   C2B23984  11.463  36.150   8.329
 1538POPC   C3B23985  11.601  35.959   7.979
 1538POPC   C4B23986  11.700  36.068   7.590
 1539POPC   NC323987  16.285  27.280   9.443
 1539POPC   PO423988  15.679  27.146   9.546
 1539POPC   GL123989  15.856  27.501   9.211
 1539POPC   GL223990  16.119  27.333   8.978
 1539POPC   C1A23991  15.873  27.709   8.757
 1539POPC   D2A23992  15.930  27.407   8.416
 1539POPC   C3A23993  15.860  27.607   8.039
 1539POPC   C4A23994  15.923  27.891   7.727
 1539POPC   C1B23995  16.364  27.553   8.652
 1539POPC   C2B23996  16.298  27.747   8.256
 1539POPC   C3B23997  16.377  27.625   7.841
 1539POPC   C4B23998  16.489  27.343   7.453
 1540POPC   NC323999  17.422  11.060   9.663
 1540POPC   PO424000  16.794  11.301   9.551
 1540POPC   GL124001  16.695  11.385   9.138
 1540POPC   GL224002  16.962  11.657   9.169
 1540POPC   C1A24003  16.559  11.187   8.709
 1540POPC   D2A24004  16.609  10.994   8.279
 1540POPC   C3A24005  16.571  11.231   7.899
 1540POPC   C4A24006  16.286  11.092   7.592
 1540POPC   C1B24007  16.940  11.522   8.745
 1540POPC   C2B24008  16.729  11.533   8.339
 1540POPC   C3B24009  16.925  11.633   7.960
 1540POPC   C4B24010  16.809  11.682   7.536
 1541POPC   NC324011  27.397  17.976   9.574
 1541POPC   PO424012  26.845  17.970   9.576
 1541POPC   GL124013  27.060  18.123   9.155
 1541POPC   GL224014  27.113  18.492   9.083
 1541POPC   C1A24015  26.977  18.200   8.675
 1541POPC   D2A24016  26.781  18.500   8.344
 1541POPC   C3A24017  26.793  18.403   7.895
 1541POPC   C4A24018  26.829  18.669   7.516
 1541POPC   C1B24019  27.178  18.665   8.645
 1541POPC   C2B24020  27.292  18.530   8.226
 1541POPC   C3B24021  27.303  18.418   7.808
 1541POPC   C4B24022  27.050  18.134   7.534
 1542POPC   NC324023  14.089  22.474   9.572
 1542POPC   PO424024  13.548  22.124   9.754
 1542POPC   GL124025  13.607  22.150   9.299
 1542POPC   GL224026  13.865  22.014   9.128
 1542POPC   C1A24027  13.461  22.282   8.899
 1542POPC   D2A24028  13.676  22.229   8.532
 1542POPC   C3A24029  13.416  22.170   8.197
 1542POPC   C4A24030  13.349  22.145   7.801
 1542POPC   C1B24031  14.021  21.869   8.708
 1542POPC   C2B24032  14.088  22.059   8.297
 1542POPC   C3B24033  13.864  22.222   7.950
 1542POPC   C4B24034  13.916  22.218   7.462
 1543POPC   NC324035  29.199  32.751   9.457
 1543POPC   PO424036  28.762  33.209   9.250
 1543POPC   GL124037  28.940  32.906   9.028
 1543POPC   GL224038  29.233  33.148   9.008
 1543POPC   C1A24039  28.993  32.905   8.601
 1543POPC   D2A24040  29.248  33.214   8.413
 1543POPC   C3A24041  29.071  33.266   8.003
 1543POPC   C4A24042  29.114  32.978   7.657
 1543POPC   C1B24043  29.458  32.846   8.753
 1543POPC   C2B24044  29.410  32.745   8.299
 1543POPC   C3B24045  29.534  33.016   7.942
 1543POPC   C4B24046  29.575  33.118   7.471
 1544POPC   NC324047  32.193  30.489   9.491
 1544POPC   PO424048  32.105  29.896   9.421
 1544POPC   GL124049  32.087  30.186   9.070
 1544POPC   GL224050  32.413  30.359   9.030
 1544POPC   C1A24051  32.206  30.071   8.644
 1544POPC   D2A24052  32.062  30.094   8.227
 1544POPC   C3A24053  31.908  29.824   7.866
 1544POPC   C4A24054  31.827  29.545   7.471
 1544POPC   C1B24055  32.626  30.360   8.594
 1544POPC   C2B24056  32.541  30.367   8.143
 1544POPC   C3B24057  32.242  30.236   7.786
 1544POPC   C4B24058  32.257  29.916   7.474
 1545POPC   NC324059  21.396  24.182   9.758
 1545POPC   PO424060  21.371  23.609   9.516
 1545POPC   GL124061  21.421  23.783   9.063
 1545POPC   GL224062  21.327  24.112   8.984
 1545POPC   C1A24063  21.337  23.793   8.570
 1545POPC   D2A24064  21.276  23.551   8.196
 1545POPC   C3A24065  21.404  23.689   7.796
 1545POPC   C4A24066  21.387  23.708   7.338
 1545POPC   C1B24067  21.676  24.149   8.691
 1545POPC   C2B24068  21.714  24.000   8.246
 1545POPC   C3B24069  21.583  24.160   7.824
 1545POPC   C4B24070  21.667  24.127   7.346
 1546POPC   NC324071  16.663   2.035   9.576
 1546POPC   PO424072  16.548   1.389   9.392
 1546POPC   GL124073  16.622   1.775   9.129
 1546POPC   GL224074  16.416   2.096   9.144
 1546POPC   C1A24075  16.703   2.023   8.744
 1546POPC   D2A24076  16.835   1.862   8.368
 1546POPC   C3A24077  16.972   2.069   8.000
 1546POPC   C4A24078  16.938   2.073   7.559
 1546POPC   C1B24079  16.263   2.306   8.747
 1546POPC   C2B24080  16.568   2.409   8.411
 1546POPC   C3B24081  16.507   2.247   7.988
 1546POPC   C4B24082  16.451   2.030   7.641
 1547POPC   NC324083  16.891  26.420   9.160
 1547POPC   PO424084  16.471  26.868   9.566
 1547POPC   GL124085  16.543  27.018   9.119
 1547POPC   GL224086  16.536  26.727   9.025
 1547POPC   C1A24087  16.623  27.075   8.656
 1547POPC   D2A24088  17.036  27.064   8.387
 1547POPC   C3A24089  16.992  26.792   8.039
 1547POPC   C4A24090  16.623  26.792   7.761
 1547POPC   C1B24091  16.410  26.598   8.647
 1547POPC   C2B24092  16.551  26.539   8.236
 1547POPC   C3B24093  16.311  26.362   7.912
 1547POPC   C4B24094  16.357  26.453   7.474
 1548POPC   NC324095  39.524  13.757   9.324
 1548POPC   PO424096  38.916  13.503   9.667
 1548POPC   GL124097  38.973  13.756   9.232
 1548POPC   GL224098  39.193  13.558   9.005
 1548POPC   C1A24099  39.024  13.933   8.761
 1548POPC   D2A24100  39.295  13.703   8.442
 1548POPC   C3A24101  39.201  13.820   8.050
 1548POPC   C4A24102  38.814  13.778   7.846
 1548POPC   C1B24103  39.449  13.305   8.743
 1548POPC   C2B24104  39.595  13.259   8.359
 1548POPC   C3B24105  39.576  13.431   7.943
 1548POPC   C4B24106  39.455  13.191   7.586
 1549POPC   NC324107  27.774  41.173   9.446
 1549POPC   PO424108  27.272  40.718   9.608
 1549POPC   GL124109  27.384  40.796   9.197
 1549POPC   GL224110  27.396  40.453   9.138
 1549POPC   C1A24111  27.536  41.058   8.831
 1549POPC   D2A24112  27.825  40.996   8.455
 1549POPC   C3A24113  27.657  41.143   8.050
 1549POPC   C4A24114  27.664  41.006   7.587
 1549POPC   C1B24115  27.432  40.544   8.718
 1549POPC   C2B24116  27.594  40.545   8.325
 1549POPC   C3B24117  27.554  40.394   7.938
 1549POPC   C4B24118  27.663  40.497   7.501
 1550POPC   NC324119  29.495  26.245   9.993
 1550POPC   PO424120  29.010  26.014   9.827
 1550POPC   GL124121  29.051  26.087   9.355
 1550POPC   GL224122  28.963  25.785   9.198
 1550POPC   C1A24123  28.908  26.187   8.890
 1550POPC   D2A24124  29.023  26.076   8.429
 1550POPC   C3A24125  28.947  26.238   7.992
 1550POPC   C4A24126  28.846  26.430   7.590
 1550POPC   C1B24127  28.861  25.688   8.745
 1550POPC   C2B24128  29.020  25.580   8.293
 1550POPC   C3B24129  29.097  25.761   7.867
 1550POPC   C4B24130  28.757  25.836   7.576
 1551POPC   NC324131  43.995  32.567   9.590
 1551POPC   PO424132  43.568  32.061   9.588
 1551POPC   GL124133  43.801  32.217   9.254
 1551POPC   GL224134  44.123  32.080   9.339
 1551POPC   C1A24135  43.751  32.260   8.803
 1551POPC   D2A24136  43.631  32.331   8.352
 1551POPC   C3A24137  43.916  32.529   8.086
 1551POPC   C4A24138  44.118  32.404   7.701
 1551POPC   C1B24139  44.170  31.963   8.897
 1551POPC   C2B24140  43.872  31.815   8.540
 1551POPC   C3B24141  43.826  31.888   8.074
 1551POPC   C4B24142  44.197  31.919   7.774
 1552POPC   NC324143  39.810  24.228   9.555
 1552POPC   PO424144  39.318  23.709   9.638
 1552POPC   GL124145  39.332  23.605   9.192
 1552POPC   GL224146  39.609  23.452   9.099
 1552POPC   C1A24147  39.342  23.834   8.778
 1552POPC   D2A24148  39.124  24.099   8.444
 1552POPC   C3A24149  38.993  23.892   8.037
 1552POPC   C4A24150  39.062  23.735   7.574
 1552POPC   C1B24151  39.296  23.310   8.769
 1552POPC   C2B24152  39.159  23.411   8.323
 1552POPC   C3B24153  39.370  23.550   7.948
 1552POPC   C4B24154  39.573  23.646   7.557
 1553POPC   NC324155   8.529  31.191   9.705
 1553POPC   PO424156   8.232  31.777   9.623
 1553POPC   GL124157   8.197  31.618   9.196
 1553POPC   GL224158   8.415  31.320   9.194
 1553POPC   C1A24159   8.134  31.501   8.750
 1553POPC   D2A24160   8.103  31.297   8.333
 1553POPC   C3A24161   8.089  31.545   7.987
 1553POPC   C4A24162   8.181  31.402   7.590
 1553POPC   C1B24163   8.625  31.346   8.784
 1553POPC   C2B24164   8.579  31.497   8.365
 1553POPC   C3B24165   8.589  31.376   7.927
 1553POPC   C4B24166   8.623  31.139   7.511
 1554POPC   NC324167   0.546   7.089   9.532
 1554POPC   PO424168   0.824   7.751   9.412
 1554POPC   GL124169   0.491   7.515   9.145
 1554POPC   GL224170   0.204   7.245   9.173
 1554POPC   C1A24171   0.444   7.353   8.721
 1554POPC   D2A24172   0.186   7.367   8.362
 1554POPC   C3A24173   0.465   7.378   8.023
 1554POPC   C4A24174   0.326   7.386   7.628
 1554POPC   C1B24175   0.022   7.071   8.771
 1554POPC   C2B24176   0.032   6.889   8.340
 1554POPC   C3B24177   0.075   7.034   7.919
 1554POPC   C4B24178  44.912   7.021   7.484
 1555POPC   NC324179   9.480  37.958   9.396
 1555POPC   PO424180   9.726  37.320   9.518
 1555POPC   GL124181   9.734  37.546   9.161
 1555POPC   GL224182   9.377  37.572   9.088
 1555POPC   C1A24183   9.763  37.542   8.725
 1555POPC   D2A24184   9.809  37.777   8.358
 1555POPC   C3A24185   9.878  37.526   7.985
 1555POPC   C4A24186  10.056  37.593   7.558
 1555POPC   C1B24187   9.353  37.882   8.733
 1555POPC   C2B24188   9.411  38.115   8.350
 1555POPC   C3B24189   9.586  38.015   7.947
 1555POPC   C4B24190   9.559  37.697   7.624
 1556POPC   NC324191   2.456  40.565   9.361
 1556POPC   PO424192   3.044  40.655   9.551
 1556POPC   GL124193   2.861  40.888   9.206
 1556POPC   GL224194   2.524  41.058   9.178
 1556POPC   C1A24195   2.765  40.766   8.804
 1556POPC   D2A24196   2.809  40.539   8.460
 1556POPC   C3A24197   2.558  40.686   8.148
 1556POPC   C4A24198   2.684  40.792   7.761
 1556POPC   C1B24199   2.666  41.270   8.803
 1556POPC   C2B24200   2.784  41.102   8.392
 1556POPC   C3B24201   2.865  41.232   7.977
 1556POPC   C4B24202   2.602  41.280   7.609
 1557POPC   NC324203  44.956  16.984   9.323
 1557POPC   PO424204  44.478  17.043   9.827
 1557POPC   GL124205  44.477  16.799   9.411
 1557POPC   GL224206  44.409  17.008   9.156
 1557POPC   C1A24207  44.494  16.541   8.973
 1557POPC   D2A24208  44.424  16.515   8.467
 1557POPC   C3A24209  44.691  16.519   8.082
 1557POPC   C4A24210  44.967  16.806   7.882
 1557POPC   C1B24211  44.593  16.965   8.719
 1557POPC   C2B24212  44.713  16.992   8.295
 1557POPC   C3B24213  44.498  17.020   7.917
 1557POPC   C4B24214  44.123  17.025   7.724
 1558POPC   NC324215  35.370   8.806   9.640
 1558POPC   PO424216  35.400   8.141   9.699
 1558POPC   GL124217  35.340   8.244   9.259
 1558POPC   GL224218  35.519   8.548   9.224
 1558POPC   C1A24219  35.359   8.109   8.831
 1558POPC   D2A24220  35.501   7.929   8.452
 1558POPC   C3A24221  35.340   8.154   8.094
 1558POPC   C4A24222  35.143   8.100   7.710
 1558POPC   C1B24223  35.602   8.552   8.792
 1558POPC   C2B24224  35.782   8.476   8.373
 1558POPC   C3B24225  35.693   8.643   7.985
 1558POPC   C4B24226  35.324   8.581   7.730
 1559POPC   NC324227  44.000  44.139   9.590
 1559POPC   PO424228  43.672  43.610   9.518
 1559POPC   GL124229  43.967  43.755   9.220
 1559POPC   GL224230  43.814  43.567   8.997
 1559POPC   C1A24231  44.001  44.031   8.831
 1559POPC   D2A24232  43.828  44.217   8.422
 1559POPC   C3A24233  44.107  44.139   8.057
 1559POPC   C4A24234  44.081  43.881   7.697
 1559POPC   C1B24235  43.930  43.580   8.564
 1559POPC   C2B24236  43.832  43.736   8.203
 1559POPC   C3B24237  43.709  43.576   7.854
 1559POPC   C4B24238  43.783  43.479   7.439
 1560POPC   NC324239  40.933  12.987   9.401
 1560POPC   PO424240  41.474  13.072   9.359
 1560POPC   GL124241  41.230  12.888   9.010
 1560POPC   GL224242  41.299  12.538   9.078
 1560POPC   C1A24243  41.076  12.677   8.649
 1560POPC   D2A24244  41.294  12.579   8.257
 1560POPC   C3A24245  41.289  12.899   7.951
 1560POPC   C4A24246  41.521  13.084   7.646
 1560POPC   C1B24247  41.583  12.678   8.696
 1560POPC   C2B24248  41.810  12.530   8.317
 1560POPC   C3B24249  41.842  12.651   7.880
 1560POPC   C4B24250  41.911  12.817   7.457
 1561POPC   NC324251  41.658  22.555   9.612
 1561POPC   PO424252  41.269  22.100   9.405
 1561POPC   GL124253  41.664  22.204   9.188
 1561POPC   GL224254  41.539  22.537   9.136
 1561POPC   C1A24255  41.749  21.984   8.774
 1561POPC   D2A24256  41.445  21.825   8.467
 1561POPC   C3A24257  41.555  21.994   8.039
 1561POPC   C4A24258  41.635  21.965   7.594
 1561POPC   C1B24259  41.455  22.418   8.766
 1561POPC   C2B24260  41.485  22.331   8.414
 1561POPC   C3B24261  41.538  22.529   8.085
 1561POPC   C4B24262  41.573  22.449   7.685
 1562POPC   NC324263  40.650  28.900   9.708
 1562POPC   PO424264  40.948  29.492   9.426
 1562POPC   GL124265  40.623  29.457   9.107
 1562POPC   GL224266  40.548  29.103   9.058
 1562POPC   C1A24267  40.578  29.366   8.649
 1562POPC   D2A24268  40.908  29.135   8.494
 1562POPC   C3A24269  41.086  29.218   8.108
 1562POPC   C4A24270  40.825  29.106   7.784
 1562POPC   C1B24271  40.556  28.815   8.661
 1562POPC   C2B24272  40.678  28.780   8.199
 1562POPC   C3B24273  40.398  28.814   7.822
 1562POPC   C4B24274  40.163  28.977   7.403
 1563POPC   NC324275  10.970  12.453   9.610
 1563POPC   PO424276  10.356  12.159   9.836
 1563POPC   GL124277  10.550  12.090   9.321
 1563POPC   GL224278  10.461  11.774   9.150
 1563POPC   C1A24279  10.535  12.120   8.811
 1563POPC   D2A24280  10.735  12.278   8.406
 1563POPC   C3A24281  10.674  12.091   7.983
 1563POPC   C4A24282  10.484  11.944   7.572
 1563POPC   C1B24283  10.273  11.679   8.770
 1563POPC   C2B24284  10.441  11.815   8.380
 1563POPC   C3B24285  10.237  11.793   8.001
 1563POPC   C4B24286  10.045  11.507   7.750
 1564POPC   NC324287   2.179  15.815   9.616
 1564POPC   PO424288   1.712  16.277   9.595
 1564POPC   GL124289   1.954  16.012   9.228
 1564POPC   GL224290   2.323  16.120   9.198
 1564POPC   C1A24291   2.097  15.795   8.824
 1564POPC   D2A24292   1.850  15.764   8.440
 1564POPC   C3A24293   1.874  15.924   8.024
 1564POPC   C4A24294   1.890  15.905   7.570
 1564POPC   C1B24295   2.501  16.128   8.755
 1564POPC   C2B24296   2.339  15.964   8.320
 1564POPC   C3B24297   2.317  15.754   7.876
 1564POPC   C4B24298   2.383  15.970   7.439
 1565POPC   NC324299  33.235   1.204   9.813
 1565POPC   PO424300  32.659   0.844   9.594
 1565POPC   GL124301  32.583   1.017   9.184
 1565POPC   GL224302  32.517   1.339   9.371
 1565POPC   C1A24303  32.842   1.090   8.742
 1565POPC   D2A24304  33.172   1.327   8.431
 1565POPC   C3A24305  33.234   1.229   7.934
 1565POPC   C4A24306  33.320   1.208   7.444
 1565POPC   C1B24307  32.535   1.444   8.925
 1565POPC   C2B24308  32.698   1.528   8.500
 1565POPC   C3B24309  32.889   1.580   8.086
 1565POPC   C4B24310  32.640   1.313   7.843
 1566POPC   NC324311  38.376  20.884   9.539
 1566POPC   PO424312  38.732  20.281   9.235
 1566POPC   GL124313  38.387  20.584   9.118
 1566POPC   GL224314  38.497  20.949   9.039
 1566POPC   C1A24315  38.126  20.749   8.752
 1566POPC   D2A24316  38.084  20.996   8.359
 1566POPC   C3A24317  38.117  20.734   8.052
 1566POPC   C4A24318  38.319  20.523   7.738
 1566POPC   C1B24319  38.648  20.680   8.707
 1566POPC   C2B24320  38.557  20.696   8.320
 1566POPC   C3B24321  38.621  20.893   7.986
 1566POPC   C4B24322  38.716  20.853   7.591
 1567POPC   NC324323  21.158  24.428   9.335
 1567POPC   PO424324  21.714  24.518   9.762
 1567POPC   GL124325  21.597  24.637   9.248
 1567POPC   GL224326  21.786  24.884   9.149
 1567POPC   C1A24327  21.435  24.588   8.774
 1567POPC   D2A24328  21.416  24.399   8.341
 1567POPC   C3A24329  21.118  24.366   7.995
 1567POPC   C4A24330  21.061  24.680   7.675
 1567POPC   C1B24331  21.483  25.079   8.873
 1567POPC   C2B24332  21.330  24.980   8.444
 1567POPC   C3B24333  21.428  24.794   8.026
 1567POPC   C4B24334  21.445  25.010   7.615
 1568POPC   NC324335  14.547  16.398   9.546
 1568POPC   PO424336  14.475  17.052   9.631
 1568POPC   GL124337  14.344  16.905   9.212
 1568POPC   GL224338  14.594  16.668   9.096
 1568POPC   C1A24339  14.272  16.878   8.742
 1568POPC   D2A24340  14.076  16.668   8.339
 1568POPC   C3A24341  14.250  16.830   7.934
 1568POPC   C4A24342  14.323  16.768   7.472
 1568POPC   C1B24343  14.781  16.487   8.716
 1568POPC   C2B24344  14.600  16.504   8.276
 1568POPC   C3B24345  14.693  16.550   7.816
 1568POPC   C4B24346  14.876  16.432   7.399
 1569POPC   NC324347  20.485  29.487   9.305
 1569POPC   PO424348  20.785  30.130   9.493
 1569POPC   GL124349  20.600  29.971   9.166
 1569POPC   GL224350  20.271  30.172   9.147
 1569POPC   C1A24351  20.801  29.830   8.764
 1569POPC   D2A24352  20.879  30.068   8.380
 1569POPC   C3A24353  20.935  29.849   7.993
 1569POPC   C4A24354  20.740  29.869   7.593
 1569POPC   C1B24355  20.292  29.897   8.779
 1569POPC   C2B24356  20.440  29.779   8.375
 1569POPC   C3B24357  20.419  29.986   7.985
 1569POPC   C4B24358  20.233  29.925   7.582
 1570POPC   NC324359  15.634  30.504   9.686
 1570POPC   PO424360  14.953  30.661   9.532
 1570POPC   GL124361  15.233  30.722   9.144
 1570POPC   GL224362  15.526  30.536   9.130
 1570POPC   C1A24363  15.260  30.865   8.721
 1570POPC   D2A24364  15.034  30.815   8.337
 1570POPC   C3A24365  15.238  30.789   7.919
 1570POPC   C4A24366  15.247  30.645   7.495
 1570POPC   C1B24367  15.403  30.375   8.708
 1570POPC   C2B24368  15.441  30.482   8.255
 1570POPC   C3B24369  15.196  30.275   7.854
 1570POPC   C4B24370  15.291  30.134   7.388
 1571POPC   NC324371   9.640  20.010   9.560
 1571POPC   PO424372  10.013  19.480   9.457
 1571POPC   GL124373   9.725  19.717   9.166
 1571POPC   GL224374   9.374  19.636   9.257
 1571POPC   C1A24375   9.726  20.072   8.841
 1571POPC   D2A24376   9.750  20.287   8.442
 1571POPC   C3A24377   9.796  20.046   8.060
 1571POPC   C4A24378   9.961  20.091   7.636
 1571POPC   C1B24379   9.320  19.766   8.832
 1571POPC   C2B24380   9.389  19.911   8.431
 1571POPC   C3B24381   9.273  19.746   8.037
 1571POPC   C4B24382   9.497  19.856   7.669
 1572POPC   NC324383  25.245   9.067   9.715
 1572POPC   PO424384  25.503   9.768   9.702
 1572POPC   GL124385  25.431   9.889   9.276
 1572POPC   GL224386  25.504   9.573   9.224
 1572POPC   C1A24387  25.267   9.821   8.826
 1572POPC   D2A24388  25.290  10.016   8.397
 1572POPC   C3A24389  25.256   9.748   8.031
 1572POPC   C4A24390  24.899   9.480   7.908
 1572POPC   C1B24391  25.725   9.569   8.860
 1572POPC   C2B24392  25.613   9.616   8.439
 1572POPC   C3B24393  25.790   9.453   8.098
 1572POPC   C4B24394  25.687   9.627   7.710
 1573POPC   NC324395   6.981   7.371   9.950
 1573POPC   PO424396   7.382   7.177   9.502
 1573POPC   GL124397   7.357   7.381   9.159
 1573POPC   GL224398   7.167   7.623   9.188
 1573POPC   C1A24399   7.487   7.393   8.769
 1573POPC   D2A24400   7.434   7.527   8.382
 1573POPC   C3A24401   7.555   7.239   8.119
 1573POPC   C4A24402   7.462   7.317   7.716
 1573POPC   C1B24403   7.056   7.638   8.747
 1573POPC   C2B24404   7.019   7.812   8.331
 1573POPC   C3B24405   7.166   7.670   7.930
 1573POPC   C4B24406   6.953   7.741   7.545
 1574POPC   NC324407   4.819   9.257   9.444
 1574POPC   PO424408   4.399   8.757   9.504
 1574POPC   GL124409   4.549   8.880   9.132
 1574POPC   GL224410   4.611   8.552   9.076
 1574POPC   C1A24411   4.439   8.863   8.692
 1574POPC   D2A24412   4.152   8.709   8.384
 1574POPC   C3A24413   4.139   9.006   8.064
 1574POPC   C4A24414   4.468   9.100   7.736
 1574POPC   C1B24415   4.625   8.360   8.701
 1574POPC   C2B24416   4.651   8.531   8.307
 1574POPC   C3B24417   4.440   8.621   7.939
 1574POPC   C4B24418   4.114   8.742   7.630
 1575POPC   NC324419   9.315  12.519   9.476
 1575POPC   PO424420   9.853  13.017   9.478
 1575POPC   GL124421   9.587  12.857   9.192
 1575POPC   GL224422   9.772  12.539   9.236
 1575POPC   C1A24423   9.532  12.781   8.770
 1575POPC   D2A24424   9.695  12.989   8.409
 1575POPC   C3A24425   9.490  12.923   8.025
 1575POPC   C4A24426   9.725  12.972   7.722
 1575POPC   C1B24427   9.996  12.590   8.860
 1575POPC   C2B24428   9.863  12.521   8.463
 1575POPC   C3B24429   9.914  12.621   8.088
 1575POPC   C4B24430   9.679  12.449   7.840
 1576POPC   NC324431   0.137  37.352   9.630
 1576POPC   PO424432   0.697  37.733   9.386
 1576POPC   GL124433   0.379  37.564   9.172
 1576POPC   GL224434   0.278  37.822   8.975
 1576POPC   C1A24435   0.469  37.421   8.744
 1576POPC   D2A24436   0.410  37.670   8.371
 1576POPC   C3A24437   0.474  37.429   8.016
 1576POPC   C4A24438   0.434  37.479   7.563
 1576POPC   C1B24439   0.123  38.153   8.778
 1576POPC   C2B24440   0.000  38.046   8.430
 1576POPC   C3B24441   0.184  38.049   8.046
 1576POPC   C4B24442   0.483  37.903   7.841
 1577POPC   NC324443  17.532  31.243   9.777
 1577POPC   PO424444  17.314  30.812   9.284
 1577POPC   GL124445  17.691  30.683   9.155
 1577POPC   GL224446  17.486  30.415   8.973
 1577POPC   C1A24447  17.816  30.752   8.745
 1577POPC   D2A24448  17.571  30.557   8.422
 1577POPC   C3A24449  17.714  30.631   8.005
 1577POPC   C4A24450  17.557  30.760   7.598
 1577POPC   C1B24451  17.134  30.547   8.707
 1577POPC   C2B24452  17.079  30.779   8.350
 1577POPC   C3B24453  17.190  30.641   7.951
 1577POPC   C4B24454  17.076  30.624   7.515
 1578POPC   NC324455  26.297  34.314  10.045
 1578POPC   PO424456  26.153  33.812   9.729
 1578POPC   GL124457  26.124  33.595   9.264
 1578POPC   GL224458  25.784  33.516   9.131
 1578POPC   C1A24459  26.234  33.630   8.787
 1578POPC   D2A24460  26.343  33.944   8.425
 1578POPC   C3A24461  26.268  33.796   7.998
 1578POPC   C4A24462  26.301  33.399   7.828
 1578POPC   C1B24463  25.776  33.426   8.688
 1578POPC   C2B24464  25.974  33.366   8.271
 1578POPC   C3B24465  25.802  33.545   7.894
 1578POPC   C4B24466  25.585  33.817   7.578
 1579POPC   NC324467   1.015  42.621   9.878
 1579POPC   PO424468   0.830  43.244   9.604
 1579POPC   GL124469   1.073  43.217   9.260
 1579POPC   GL224470   1.312  42.965   9.333
 1579POPC   C1A24471   1.323  43.362   8.944
 1579POPC   D2A24472   1.210  43.425   8.533
 1579POPC   C3A24473   1.327  43.197   8.174
 1579POPC   C4A24474   1.299  43.417   7.801
 1579POPC   C1B24475   1.201  42.859   8.903
 1579POPC   C2B24476   1.073  42.769   8.521
 1579POPC   C3B24477   1.059  42.762   8.082
 1579POPC   C4B24478   1.199  42.909   7.687
 1580POPC   NC324479  31.148   9.147   9.620
 1580POPC   PO424480  30.671   8.744   9.378
 1580POPC   GL124481  30.590   9.017   9.077
 1580POPC   GL224482  30.801   9.244   9.248
 1580POPC   C1A24483  30.645   8.858   8.670
 1580POPC   D2A24484  30.903   8.725   8.346
 1580POPC   C3A24485  30.741   8.869   8.003
 1580POPC   C4A24486  30.642   8.820   7.606
 1580POPC   C1B24487  30.907   9.313   8.795
 1580POPC   C2B24488  30.842   9.224   8.364
 1580POPC   C3B24489  30.940   9.338   7.935
 1580POPC   C4B24490  30.643   9.329   7.531
 1581POPC   NC324491  36.229  39.139   9.440
 1581POPC   PO424492  36.031  39.766   9.614
 1581POPC   GL124493  35.994  39.504   9.201
 1581POPC   GL224494  36.382  39.581   9.233
 1581POPC   C1A24495  35.984  39.197   8.809
 1581POPC   D2A24496  36.030  39.297   8.348
 1581POPC   C3A24497  35.867  39.027   8.006
 1581POPC   C4A24498  35.871  38.902   7.526
 1581POPC   C1B24499  36.403  39.470   8.813
 1581POPC   C2B24500  36.328  39.720   8.462
 1581POPC   C3B24501  36.279  39.692   8.046
 1581POPC   C4B24502  36.209  39.350   7.805
 1582POPC   NC324503  12.482  38.748   9.491
 1582POPC   PO424504  12.919  39.225   9.732
 1582POPC   GL124505  12.834  39.246   9.271
 1582POPC   GL224506  12.699  39.588   9.204
 1582POPC   C1A24507  12.980  39.222   8.817
 1582POPC   D2A24508  12.716  39.257   8.419
 1582POPC   C3A24509  12.788  39.100   8.012
 1582POPC   C4A24510  13.143  39.174   7.788
 1582POPC   C1B24511  12.698  39.661   8.738
 1582POPC   C2B24512  12.483  39.726   8.302
 1582POPC   C3B24513  12.503  39.543   7.884
 1582POPC   C4B24514  12.816  39.466   7.531
 1583POPC   NC324515  10.685  30.839   9.488
 1583POPC   PO424516  11.384  30.814   9.641
 1583POPC   GL124517  11.458  30.748   9.223
 1583POPC   GL224518  11.111  30.717   9.164
 1583POPC   C1A24519  11.669  30.824   8.827
 1583POPC   D2A24520  11.619  30.716   8.399
 1583POPC   C3A24521  11.412  30.905   8.046
 1583POPC   C4A24522  11.076  30.762   7.774
 1583POPC   C1B24523  11.190  30.686   8.704
 1583POPC   C2B24524  11.084  30.583   8.280
 1583POPC   C3B24525  10.958  30.275   7.962
 1583POPC   C4B24526  10.825  30.333   7.509
 1584POPC   NC324527  31.447   1.601   9.421
 1584POPC   PO424528  31.791   2.123   9.385
 1584POPC   GL124529  31.574   2.152   9.032
 1584POPC   GL224530  31.598   1.790   8.977
 1584POPC   C1A24531  31.538   2.119   8.586
 1584POPC   D2A24532  31.479   1.960   8.188
 1584POPC   C3A24533  31.284   2.215   7.920
 1584POPC   C4A24534  31.678   2.383   7.849
 1584POPC   C1B24535  31.363   1.630   8.637
 1584POPC   C2B24536  31.143   1.603   8.254
 1584POPC   C3B24537  31.204   1.706   7.818
 1584POPC   C4B24538  31.200   1.671   7.369
 1585POPC   NC324539  40.752  36.046   9.536
 1585POPC   PO424540  40.872  36.712   9.413
 1585POPC   GL124541  40.825  36.386   9.131
 1585POPC   GL224542  40.507  36.240   9.150
 1585POPC   C1A24543  40.774  36.245   8.713
 1585POPC   D2A24544  41.011  36.116   8.366
 1585POPC   C3A24545  40.822  36.305   8.050
 1585POPC   C4A24546  40.865  36.192   7.682
 1585POPC   C1B24547  40.551  35.830   8.895
 1585POPC   C2B24548  40.464  35.806   8.457
 1585POPC   C3B24549  40.646  35.828   8.077
 1585POPC   C4B24550  40.498  35.732   7.700
 1586POPC   NC324551  39.404  14.678   9.336
 1586POPC   PO424552  38.973  14.150   9.597
 1586POPC   GL124553  39.043  14.308   9.162
 1586POPC   GL224554  38.935  14.649   9.051
 1586POPC   C1A24555  39.284  14.359   8.760
 1586POPC   D2A24556  39.111  14.243   8.352
 1586POPC   C3A24557  39.285  14.321   7.948
 1586POPC   C4A24558  39.115  14.143   7.565
 1586POPC   C1B24559  38.930  14.680   8.610
 1586POPC   C2B24560  38.691  14.522   8.298
 1586POPC   C3B24561  38.814  14.474   7.913
 1586POPC   C4B24562  39.046  14.707   7.636
 1587POPC   NC324563  36.632  29.000   9.326
 1587POPC   PO424564  37.206  29.128   9.478
 1587POPC   GL124565  37.087  29.110   9.071
 1587POPC   GL224566  36.876  29.407   9.087
 1587POPC   C1A24567  36.903  29.107   8.657
 1587POPC   D2A24568  36.733  29.323   8.320
 1587POPC   C3A24569  36.875  29.179   7.939
 1587POPC   C4A24570  36.623  29.269   7.598
 1587POPC   C1B24571  37.183  29.537   8.784
 1587POPC   C2B24572  37.262  29.401   8.371
 1587POPC   C3B24573  37.313  29.512   7.974
 1587POPC   C4B24574  37.122  29.491   7.595
 1588POPC   NC324575  18.000  42.857   9.365
 1588POPC   PO424576  18.506  42.968   9.769
 1588POPC   GL124577  18.500  43.123   9.268
 1588POPC   GL224578  18.190  43.317   9.142
 1588POPC   C1A24579  18.478  43.072   8.798
 1588POPC   D2A24580  18.286  43.107   8.386
 1588POPC   C3A24581  18.451  42.997   7.994
 1588POPC   C4A24582  18.478  42.840   7.588
 1588POPC   C1B24583  17.922  43.201   8.756
 1588POPC   C2B24584  17.822  43.320   8.310
 1588POPC   C3B24585  18.082  43.333   7.917
 1588POPC   C4B24586  18.051  43.072   7.542
 1589POPC   NC324587   1.456  15.873   9.563
 1589POPC   PO424588   0.858  15.911   9.546
 1589POPC   GL124589   1.108  16.076   9.168
 1589POPC   GL224590   1.475  16.185   9.153
 1589POPC   C1A24591   1.192  16.147   8.709
 1589POPC   D2A24592   1.164  16.372   8.299
 1589POPC   C3A24593   1.040  16.125   7.922
 1589POPC   C4A24594   0.817  15.827   7.642
 1589POPC   C1B24595   1.581  15.839   8.895
 1589POPC   C2B24596   1.372  15.655   8.547
 1589POPC   C3B24597   1.385  15.836   8.143
 1589POPC   C4B24598   1.395  15.852   7.667
 1590POPC   NC324599  22.063  28.462   9.627
 1590POPC   PO424600  22.664  28.260   9.590
 1590POPC   GL124601  22.352  28.260   9.258
 1590POPC   GL224602  22.366  27.928   9.234
 1590POPC   C1A24603  22.168  28.510   8.876
 1590POPC   D2A24604  22.300  28.454   8.459
 1590POPC   C3A24605  22.166  28.634   8.072
 1590POPC   C4A24606  21.948  28.566   7.680
 1590POPC   C1B24607  22.123  27.999   8.843
 1590POPC   C2B24608  22.258  27.960   8.434
 1590POPC   C3B24609  22.215  28.078   8.039
 1590POPC   C4B24610  22.054  28.083   7.652
 1591POPC   NC324611  41.452  42.066   9.457
 1591POPC   PO424612  41.861  42.583   9.580
 1591POPC   GL124613  41.806  42.423   9.182
 1591POPC   GL224614  41.891  42.066   9.191
 1591POPC   C1A24615  41.756  42.609   8.759
 1591POPC   D2A24616  41.483  42.540   8.417
 1591POPC   C3A24617  41.659  42.613   7.990
 1591POPC   C4A24618  41.295  42.494   7.733
 1591POPC   C1B24619  41.667  42.075   8.817
 1591POPC   C2B24620  41.817  42.155   8.419
 1591POPC   C3B24621  41.548  42.132   8.082
 1591POPC   C4B24622  41.572  41.954   7.718
 1592POPC   NC324623  30.786  10.787   9.596
 1592POPC   PO424624  30.287  10.225   9.547
 1592POPC   GL124625  30.629  10.281   9.262
 1592POPC   GL224626  30.757  10.587   9.145
 1592POPC   C1A24627  30.502  10.180   8.864
 1592POPC   D2A24628  30.465  10.099   8.461
 1592POPC   C3A24629  30.657  10.178   8.062
 1592POPC   C4A24630  30.428  10.161   7.667
 1592POPC   C1B24631  30.979  10.358   8.846
 1592POPC   C2B24632  30.875  10.462   8.450
 1592POPC   C3B24633  30.866  10.654   8.038
 1592POPC   C4B24634  30.800  10.480   7.630
 1593POPC   NC324635   6.020  36.479   9.311
 1593POPC   PO424636   5.638  35.937   9.425
 1593POPC   GL124637   5.873  36.051   9.069
 1593POPC   GL224638   6.230  35.930   9.100
 1593POPC   C1A24639   5.864  36.305   8.685
 1593POPC   D2A24640   5.584  36.514   8.387
 1593POPC   C3A24641   5.770  36.457   7.977
 1593POPC   C4A24642   6.107  36.477   7.644
 1593POPC   C1B24643   6.045  35.772   8.688
 1593POPC   C2B24644   5.918  35.966   8.286
 1593POPC   C3B24645   5.808  35.945   7.864
 1593POPC   C4B24646   5.384  35.894   7.741
 1594POPC   NC324647  39.084  16.963   9.594
 1594POPC   PO424648  39.648  16.531   9.606
 1594POPC   GL124649  39.306  16.623   9.262
 1594POPC   GL224650  39.267  16.997   9.120
 1594POPC   C1A24651  39.249  16.622   8.795
 1594POPC   D2A24652  39.269  16.863   8.408
 1594POPC   C3A24653  39.307  16.583   8.065
 1594POPC   C4A24654  39.178  16.600   7.688
 1594POPC   C1B24655  38.916  17.016   8.812
 1594POPC   C2B24656  38.818  17.155   8.384
 1594POPC   C3B24657  38.972  17.012   7.975
 1594POPC   C4B24658  39.116  17.055   7.492
 1595POPC   NC324659  27.657  25.079   9.379
 1595POPC   PO424660  27.373  25.683   9.532
 1595POPC   GL124661  27.346  25.454   9.139
 1595POPC   GL224662  27.125  25.201   9.128
 1595POPC   C1A24663  27.526  25.191   8.775
 1595POPC   D2A24664  27.872  25.215   8.521
 1595POPC   C3A24665  27.812  25.250   8.106
 1595POPC   C4A24666  27.888  25.314   7.704
 1595POPC   C1B24667  27.051  25.286   8.659
 1595POPC   C2B24668  27.334  25.081   8.302
 1595POPC   C3B24669  27.369  25.144   7.859
 1595POPC   C4B24670  27.452  25.421   7.478
 1596POPC   NC324671  36.665  21.066   9.450
 1596POPC   PO424672  36.979  21.724   9.452
 1596POPC   GL124673  37.175  21.727   9.097
 1596POPC   GL224674  37.168  21.350   9.074
 1596POPC   C1A24675  36.899  21.672   8.743
 1596POPC   D2A24676  36.573  21.732   8.455
 1596POPC   C3A24677  36.750  21.585   8.097
 1596POPC   C4A24678  36.629  21.722   7.709
 1596POPC   C1B24679  36.871  21.153   8.830
 1596POPC   C2B24680  36.594  21.194   8.490
 1596POPC   C3B24681  36.704  21.038   8.097
 1596POPC   C4B24682  36.757  21.234   7.702
 1597POPC   NC324683   5.661  39.901   9.432
 1597POPC   PO424684   6.316  40.017   9.429
 1597POPC   GL124685   6.077  40.279   9.073
 1597POPC   GL224686   5.710  40.195   9.029
 1597POPC   C1A24687   5.901  40.356   8.607
 1597POPC   D2A24688   5.737  40.082   8.251
 1597POPC   C3A24689   5.975  40.136   7.876
 1597POPC   C4A24690   6.154  39.871   7.570
 1597POPC   C1B24691   5.688  39.835   8.745
 1597POPC   C2B24692   5.381  39.655   8.469
 1597POPC   C3B24693   5.314  39.828   8.058
 1597POPC   C4B24694   5.487  40.102   7.710
 1598POPC   NC324695  13.588   0.102   9.407
 1598POPC   PO424696  13.306   0.693   9.575
 1598POPC   GL124697  13.438   0.559   9.145
 1598POPC   GL224698  13.792   0.522   9.167
 1598POPC   C1A24699  13.559   0.252   8.766
 1598POPC   D2A24700  13.508   0.036   8.338
 1598POPC   C3A24701  13.544   0.272   7.969
 1598POPC   C4A24702  13.324   0.643   7.823
 1598POPC   C1B24703  13.906   0.641   8.772
 1598POPC   C2B24704  13.716   0.577   8.381
 1598POPC   C3B24705  13.814   0.712   7.980
 1598POPC   C4B24706  13.763   0.530   7.566
 1599POPC   NC324707  36.896  11.841   9.423
 1599POPC   PO424708  36.701  12.466   9.673
 1599POPC   GL124709  36.714  12.416   9.180
 1599POPC   GL224710  37.009  12.227   9.108
 1599POPC   C1A24711  36.682  12.195   8.724
 1599POPC   D2A24712  36.931  12.056   8.334
 1599POPC   C3A24713  36.711  11.863   7.960
 1599POPC   C4A24714  36.695  11.819   7.503
 1599POPC   C1B24715  37.195  11.961   8.785
 1599POPC   C2B24716  37.496  11.914   8.452
 1599POPC   C3B24717  37.342  11.872   8.042
 1599POPC   C4B24718  37.126  12.092   7.734
 1600POPC   NC324719  19.649  15.727   9.517
 1600POPC   PO424720  20.056  15.095   9.498
 1600POPC   GL124721  19.881  15.317   9.161
 1600POPC   GL224722  19.576  15.127   9.198
 1600POPC   C1A24723  20.010  15.342   8.711
 1600POPC   D2A24724  20.269  15.117   8.412
 1600POPC   C3A24725  20.132  15.123   7.967
 1600POPC   C4A24726  19.935  15.221   7.546
 1600POPC   C1B24727  19.445  15.412   8.878
 1600POPC   C2B24728  19.559  15.544   8.479
 1600POPC   C3B24729  19.531  15.447   8.064
 1600POPC   C4B24730  19.602  15.594   7.672
 1601POPC   NC324731  10.188  32.789   9.399
 1601POPC   PO424732  10.777  33.017   9.687
 1601POPC   GL124733  10.640  32.957   9.243
 1601POPC   GL224734  10.568  32.597   9.108
 1601POPC   C1A24735  10.573  33.204   8.871
 1601POPC   D2A24736  10.748  33.121   8.477
 1601POPC   C3A24737  10.521  32.988   8.134
 1601POPC   C4A24738  10.724  33.094   7.761
 1601POPC   C1B24739  10.336  32.763   8.751
 1601POPC   C2B24740  10.073  32.896   8.410
 1601POPC   C3B24741  10.060  32.671   8.053
 1601POPC   C4B24742  10.326  32.746   7.719
 1602POPC   NC324743  43.165   2.609   9.664
 1602POPC   PO424744  43.640   3.203   9.624
 1602POPC   GL124745  43.391   3.155   9.252
 1602POPC   GL224746  43.205   2.817   9.191
 1602POPC   C1A24747  43.201   3.244   8.858
 1602POPC   D2A24748  43.256   3.268   8.413
 1602POPC   C3A24749  43.310   2.839   8.232
 1602POPC   C4A24750  43.316   2.756   7.789
 1602POPC   C1B24751  42.925   2.760   8.809
 1602POPC   C2B24752  42.890   2.540   8.400
 1602POPC   C3B24753  42.831   2.708   7.995
 1602POPC   C4B24754  42.857   2.523   7.589
 1603POPC   NC324755  40.561   7.677   9.472
 1603POPC   PO424756  40.844   7.184   9.779
 1603POPC   GL124757  40.885   7.328   9.266
 1603POPC   GL224758  40.679   7.552   9.016
 1603POPC   C1A24759  41.093   7.333   8.859
 1603POPC   D2A24760  41.040   7.688   8.531
 1603POPC   C3A24761  41.016   7.526   8.100
 1603POPC   C4A24762  41.159   7.152   7.877
 1603POPC   C1B24763  40.598   7.203   8.735
 1603POPC   C2B24764  40.678   7.075   8.315
 1603POPC   C3B24765  40.633   7.185   7.894
 1603POPC   C4B24766  40.773   7.040   7.492
 1604POPC   NC324767  32.698  12.854   9.563
 1604POPC   PO424768  32.070  12.654   9.558
 1604POPC   GL124769  32.256  12.835   9.193
 1604POPC   GL224770  32.333  13.191   9.134
 1604POPC   C1A24771  32.171  12.862   8.765
 1604POPC   D2A24772  32.290  12.639   8.427
 1604POPC   C3A24773  32.162  12.832   8.061
 1604POPC   C4A24774  32.148  12.607   7.728
 1604POPC   C1B24775  32.571  13.180   8.751
 1604POPC   C2B24776  32.413  13.135   8.383
 1604POPC   C3B24777  32.460  13.277   7.991
 1604POPC   C4B24778  32.279  13.262   7.590
 1605POPC   NC324779  38.445   3.799   9.488
 1605POPC   PO424780  38.491   3.254   9.378
 1605POPC   GL124781  38.482   3.563   9.033
 1605POPC   GL224782  38.224   3.830   9.014
 1605POPC   C1A24783  38.614   3.712   8.637
 1605POPC   D2A24784  38.460   3.910   8.273
 1605POPC   C3A24785  38.620   3.696   7.915
 1605POPC   C4A24786  38.560   3.706   7.473
 1605POPC   C1B24787  38.125   3.583   8.643
 1605POPC   C2B24788  38.221   3.462   8.221
 1605POPC   C3B24789  38.134   3.583   7.785
 1605POPC   C4B24790  37.859   3.489   7.438
 1606POPC   NC324791  37.774  13.958   9.443
 1606POPC   PO424792  37.183  13.582   9.363
 1606POPC   GL124793  37.560  13.565   9.171
 1606POPC   GL224794  37.709  13.211   9.219
 1606POPC   C1A24795  37.667  13.843   8.811
 1606POPC   D2A24796  37.734  13.702   8.414
 1606POPC   C3A24797  37.409  13.671   8.085
 1606POPC   C4A24798  37.436  13.820   7.664
 1606POPC   C1B24799  37.812  13.325   8.803
 1606POPC   C2B24800  37.938  13.214   8.407
 1606POPC   C3B24801  37.860  13.389   8.051
 1606POPC   C4B24802  37.594  13.274   7.785
 1607POPC   NC324803   1.540   5.158   9.719
 1607POPC   PO424804   0.906   4.881   9.489
 1607POPC   GL124805   1.189   5.154   9.216
 1607POPC   GL224806   1.336   5.441   8.972
 1607POPC   C1A24807   1.228   4.969   8.821
 1607POPC   D2A24808   1.303   5.123   8.480
 1607POPC   C3A24809   1.172   4.886   8.110
 1607POPC   C4A24810   1.283   4.961   7.691
 1607POPC   C1B24811   0.964   5.439   8.748
 1607POPC   C2B24812   0.844   5.285   8.332
 1607POPC   C3B24813   0.853   5.215   7.871
 1607POPC   C4B24814   0.959   5.323   7.414
 1608POPC   NC324815  37.465  18.748   9.463
 1608POPC   PO424816  37.969  19.117   9.511
 1608POPC   GL124817  37.794  18.951   9.098
 1608POPC   GL224818  37.434  18.964   8.995
 1608POPC   C1A24819  37.811  18.989   8.629
 1608POPC   D2A24820  37.958  18.805   8.265
 1608POPC   C3A24821  37.877  19.090   7.946
 1608POPC   C4A24822  37.802  19.080   7.513
 1608POPC   C1B24823  37.426  19.330   8.666
 1608POPC   C2B24824  37.604  19.432   8.253
 1608POPC   C3B24825  37.411  19.275   7.853
 1608POPC   C4B24826  37.419  19.429   7.389
 1609POPC   NC324827   7.191   0.526   9.406
 1609POPC   PO424828   7.782   0.790   9.288
 1609POPC   GL124829   7.532   0.523   9.033
 1609POPC   GL224830   7.648   0.208   9.027
 1609POPC   C1A24831   7.221   0.410   8.709
 1609POPC   D2A24832   7.277   0.627   8.316
 1609POPC   C3A24833   7.575   0.604   8.006
 1609POPC   C4A24834   7.289   0.421   7.737
 1609POPC   C1B24835   7.670   0.219   8.578
 1609POPC   C2B24836   7.495   0.131   8.189
 1609POPC   C3B24837   7.564   0.010   7.787
 1609POPC   C4B24838   7.640  44.942   7.345
 1610POPC   NC324839  15.309  26.703   9.341
 1610POPC   PO424840  14.817  27.114   9.620
 1610POPC   GL124841  14.922  27.038   9.155
 1610POPC   GL224842  15.022  26.730   8.929
 1610POPC   C1A24843  15.078  27.185   8.759
 1610POPC   D2A24844  15.100  26.902   8.422
 1610POPC   C3A24845  15.160  27.078   8.062
 1610POPC   C4A24846  15.303  26.836   7.739
 1610POPC   C1B24847  14.826  26.488   8.634
 1610POPC   C2B24848  14.854  26.277   8.254
 1610POPC   C3B24849  14.888  26.615   7.925
 1610POPC   C4B24850  14.935  26.656   7.427
 1611POPC   NC324851  17.304  14.969   9.525
 1611POPC   PO424852  17.752  15.338   9.696
 1611POPC   GL124853  17.616  15.289   9.265
 1611POPC   GL224854  17.266  15.406   9.231
 1611POPC   C1A24855  17.679  15.094   8.859
 1611POPC   D2A24856  17.814  15.251   8.451
 1611POPC   C3A24857  17.592  15.097   8.103
 1611POPC   C4A24858  17.657  15.209   7.673
 1611POPC   C1B24859  17.222  15.351   8.776
 1611POPC   C2B24860  17.133  15.374   8.337
 1611POPC   C3B24861  17.261  15.432   7.921
 1611POPC   C4B24862  17.169  15.132   7.572
 1612POPC   NC324863  19.464   1.140   9.673
 1612POPC   PO424864  20.047   1.392   9.519
 1612POPC   GL124865  19.875   1.145   9.201
 1612POPC   GL224866  19.727   1.452   9.072
 1612POPC   C1A24867  19.734   1.028   8.789
 1612POPC   D2A24868  19.799   1.276   8.413
 1612POPC   C3A24869  19.842   1.086   8.005
 1612POPC   C4A24870  19.780   1.240   7.597
 1612POPC   C1B24871  20.100   1.414   8.794
 1612POPC   C2B24872  20.219   1.534   8.325
 1612POPC   C3B24873  20.242   1.371   7.885
 1612POPC   C4B24874  20.243   1.192   7.440
 1613POPC   NC324875  15.905   8.094   9.627
 1613POPC   PO424876  16.527   8.255   9.548
 1613POPC   GL124877  16.248   8.102   9.257
 1613POPC   GL224878  16.081   8.387   9.187
 1613POPC   C1A24879  15.967   7.935   8.925
 1613POPC   D2A24880  15.755   8.029   8.539
 1613POPC   C3A24881  15.907   7.972   8.120
 1613POPC   C4A24882  15.981   8.152   7.727
 1613POPC   C1B24883  15.903   8.470   8.769
 1613POPC   C2B24884  15.781   8.507   8.312
 1613POPC   C3B24885  15.634   8.480   7.892
 1613POPC   C4B24886  15.537   8.251   7.501
 1614POPC   NC324887  26.547  15.589   9.448
 1614POPC   PO424888  25.892  15.244   9.462
 1614POPC   GL124889  26.149  15.198   9.084
 1614POPC   GL224890  26.279  14.836   9.007
 1614POPC   C1A24891  26.141  15.170   8.624
 1614POPC   D2A24892  25.878  15.230   8.263
 1614POPC   C3A24893  25.995  15.458   7.887
 1614POPC   C4A24894  26.177  15.424   7.455
 1614POPC   C1B24895  26.378  14.654   8.637
 1614POPC   C2B24896  26.320  14.860   8.239
 1614POPC   C3B24897  26.025  14.914   7.889
 1614POPC   C4B24898  25.824  15.064   7.541
 1615POPC   NC324899  35.637  39.962   9.441
 1615POPC   PO424900  36.051  40.143  10.017
 1615POPC   GL124901  36.048  40.271   9.433
 1615POPC   GL224902  36.053  39.992   9.145
 1615POPC   C1A24903  36.168  40.413   8.938
 1615POPC   D2A24904  36.295  40.228   8.505
 1615POPC   C3A24905  36.060  40.183   8.099
 1615POPC   C4A24906  35.857  40.333   7.711
 1615POPC   C1B24907  35.887  39.730   8.736
 1615POPC   C2B24908  35.776  39.744   8.240
 1615POPC   C3B24909  35.869  39.824   7.768
 1615POPC   C4B24910  36.269  39.786   7.511
 1616POPC   NC324911  15.760   3.283   9.528
 1616POPC   PO424912  15.836   3.900   9.531
 1616POPC   GL124913  15.762   3.701   9.181
 1616POPC   GL224914  16.087   3.541   9.133
 1616POPC   C1A24915  15.822   3.774   8.754
 1616POPC   D2A24916  16.131   3.692   8.459
 1616POPC   C3A24917  15.945   3.630   8.102
 1616POPC   C4A24918  16.066   3.737   7.745
 1616POPC   C1B24919  16.064   3.296   8.761
 1616POPC   C2B24920  16.227   3.212   8.343
 1616POPC   C3B24921  16.096   3.168   7.914
 1616POPC   C4B24922  16.280   3.034   7.511
 1617POPC   NC324923  31.404  44.516   9.527
 1617POPC   PO424924  31.105   0.051   9.670
 1617POPC   GL124925  31.266  44.916   9.242
 1617POPC   GL224926  31.629  44.894   9.236
 1617POPC   C1A24927  31.315  44.671   8.845
 1617POPC   D2A24928  31.274  44.377   8.497
 1617POPC   C3A24929  31.055  44.597   8.198
 1617POPC   C4A24930  31.150  44.790   7.826
 1617POPC   C1B24931  31.801  44.888   8.840
 1617POPC   C2B24932  31.696  44.706   8.479
 1617POPC   C3B24933  31.557  44.621   8.099
 1617POPC   C4B24934  31.641  44.684   7.687
 1618POPC   NC324935  18.731  38.691   9.770
 1618POPC   PO424936  19.287  38.463   9.464
 1618POPC   GL124937  18.961  38.689   9.230
 1618POPC   GL224938  19.124  38.604   8.934
 1618POPC   C1A24939  18.713  38.850   8.819
 1618POPC   D2A24940  18.761  38.611   8.437
 1618POPC   C3A24941  18.763  38.811   8.027
 1618POPC   C4A24942  19.088  38.760   7.711
 1618POPC   C1B24943  19.013  38.177   8.817
 1618POPC   C2B24944  19.038  37.835   8.542
 1618POPC   C3B24945  19.086  37.941   8.118
 1618POPC   C4B24946  19.150  38.227   7.759
 1619POPC   NC324947  19.044  14.984   9.788
 1619POPC   PO424948  19.199  15.603   9.584
 1619POPC   GL124949  19.102  15.264   9.280
 1619POPC   GL224950  19.053  14.935   9.255
 1619POPC   C1A24951  18.900  15.323   8.868
 1619POPC   D2A24952  18.784  15.188   8.463
 1619POPC   C3A24953  18.996  15.436   8.155
 1619POPC   C4A24954  19.121  15.396   7.758
 1619POPC   C1B24955  19.195  14.939   8.812
 1619POPC   C2B24956  19.283  15.080   8.400
 1619POPC   C3B24957  19.108  14.947   7.996
 1619POPC   C4B24958  18.696  15.079   7.800
 1620POPC   NC324959  40.094  30.999   9.420
 1620POPC   PO424960  39.628  30.658   9.614
 1620POPC   GL124961  39.846  30.642   9.195
 1620POPC   GL224962  40.204  30.521   9.191
 1620POPC   C1A24963  40.071  30.885   8.796
 1620POPC   D2A24964  39.974  31.117   8.412
 1620POPC   C3A24965  39.949  30.847   8.088
 1620POPC   C4A24966  40.027  30.769   7.676
 1620POPC   C1B24967  39.962  30.385   8.803
 1620POPC   C2B24968  40.136  30.482   8.426
 1620POPC   C3B24969  40.059  30.344   8.047
 1620POPC   C4B24970  40.272  30.318   7.696
 1621POPC   NC324971   1.788  42.704   9.378
 1621POPC   PO424972   2.105  43.300   9.494
 1621POPC   GL124973   2.001  43.123   9.118
 1621POPC   GL224974   2.245  42.847   9.107
 1621POPC   C1A24975   2.000  43.218   8.668
 1621POPC   D2A24976   2.185  42.989   8.312
 1621POPC   C3A24977   2.020  43.114   7.895
 1621POPC   C4A24978   1.781  43.485   7.765
 1621POPC   C1B24979   2.077  42.639   8.732
 1621POPC   C2B24980   1.964  42.512   8.301
 1621POPC   C3B24981   2.196  42.614   7.930
 1621POPC   C4B24982   2.170  42.780   7.518
 1622POPC   NC324983  37.735  26.519   9.393
 1622POPC   PO424984  37.278  26.968   9.444
 1622POPC   GL124985  37.600  26.940   9.108
 1622POPC   GL224986  37.991  26.877   9.085
 1622POPC   C1A24987  37.702  27.068   8.695
 1622POPC   D2A24988  37.635  26.821   8.339
 1622POPC   C3A24989  37.882  26.896   7.986
 1622POPC   C4A24990  37.783  27.127   7.587
 1622POPC   C1B24991  37.862  26.569   8.757
 1622POPC   C2B24992  37.631  26.293   8.499
 1622POPC   C3B24993  37.373  26.415   8.196
 1622POPC   C4B24994  37.458  26.659   7.841
 1623POPC   NC324995  26.192  41.422   9.408
 1623POPC   PO424996  25.655  41.786   9.228
 1623POPC   GL124997  25.947  41.553   8.980
 1623POPC   GL224998  26.276  41.727   8.992
 1623POPC   C1A24999  25.788  41.438   8.586
 1623POPC   D2A25000  25.660  41.737   8.295
 1623POPC   C3A25001  25.941  41.783   7.974
 1623POPC   C4A25002  26.042  41.424   7.715
 1623POPC   C1B25003  26.210  41.741   8.539
 1623POPC   C2B25004  26.176  41.406   8.239
 1623POPC   C3B25005  26.488  41.303   7.934
 1623POPC   C4B25006  26.486  41.657   7.672
 1624POPC   NC325007  35.530  31.520   9.598
 1624POPC   PO425008  35.002  31.942   9.735
 1624POPC   GL125009  35.058  31.696   9.296
 1624POPC   GL225010  35.420  31.670   9.128
 1624POPC   C1A25011  35.042  31.686   8.811
 1624POPC   D2A25012  35.328  31.608   8.454
 1624POPC   C3A25013  35.191  31.318   8.102
 1624POPC   C4A25014  35.209  31.435   7.655
 1624POPC   C1B25015  35.609  31.361   8.809
 1624POPC   C2B25016  35.652  31.208   8.351
 1624POPC   C3B25017  35.664  31.351   7.901
 1624POPC   C4B25018  35.862  31.136   7.547
 1625POPC   NC325019  23.969  44.325   9.790
 1625POPC   PO425020  24.056  43.643   9.547
 1625POPC   GL125021  23.792  43.715   9.147
 1625POPC   GL225022  23.425  43.550   9.112
 1625POPC   C1A25023  23.833  43.840   8.695
 1625POPC   D2A25024  23.572  43.887   8.298
 1625POPC   C3A25025  23.736  43.998   7.865
 1625POPC   C4A25026  23.952  44.013   7.442
 1625POPC   C1B25027  23.624  43.355   8.758
 1625POPC   C2B25028  23.555  43.357   8.311
 1625POPC   C3B25029  23.414  43.563   7.927
 1625POPC   C4B25030  23.577  43.638   7.529
 1626POPC   NC325031  28.635  21.815   9.452
 1626POPC   PO425032  27.972  21.730   9.659
 1626POPC   GL125033  28.160  22.110   9.358
 1626POPC   GL225034  28.510  22.271   9.263
 1626POPC   C1A25035  28.197  22.156   8.892
 1626POPC   D2A25036  28.380  21.911   8.556
 1626POPC   C3A25037  28.283  22.020   8.146
 1626POPC   C4A25038  28.187  21.865   7.741
 1626POPC   C1B25039  28.698  22.144   8.869
 1626POPC   C2B25040  28.838  22.115   8.436
 1626POPC   C3B25041  28.750  22.146   8.017
 1626POPC   C4B25042  28.631  22.077   7.612
 1627POPC   NC325043  40.834  21.953   9.476
 1627POPC   PO425044  40.510  22.393   9.915
 1627POPC   GL125045  40.522  22.345   9.385
 1627POPC   GL225046  40.864  22.351   9.144
 1627POPC   C1A25047  40.421  22.252   8.908
 1627POPC   D2A25048  40.649  22.294   8.535
 1627POPC   C3A25049  40.510  22.250   8.135
 1627POPC   C4A25050  40.614  22.103   7.755
 1627POPC   C1B25051  41.058  22.107   8.754
 1627POPC   C2B25052  41.054  22.080   8.273
 1627POPC   C3B25053  41.122  22.255   7.878
 1627POPC   C4B25054  40.913  22.445   7.548
 1628POPC   NC325055  40.775  30.476   9.828
 1628POPC   PO425056  40.554  31.005   9.469
 1628POPC   GL125057  40.770  30.622   9.279
 1628POPC   GL225058  41.015  30.818   9.086
 1628POPC   C1A25059  40.946  30.368   8.886
 1628POPC   D2A25060  41.076  30.595   8.564
 1628POPC   C3A25061  40.919  30.525   8.157
 1628POPC   C4A25062  40.832  30.432   7.716
 1628POPC   C1B25063  40.623  30.771   8.809
 1628POPC   C2B25064  40.480  30.863   8.404
 1628POPC   C3B25065  40.445  30.686   8.011
 1628POPC   C4B25066  40.532  30.835   7.606
 1629POPC   NC325067  35.565   5.234   9.520
 1629POPC   PO425068  34.999   5.020   9.701
 1629POPC   GL125069  35.048   5.224   9.257
 1629POPC   GL225070  35.376   5.322   9.059
 1629POPC   C1A25071  34.903   5.242   8.806
 1629POPC   D2A25072  35.200   5.132   8.459
 1629POPC   C3A25073  35.219   5.096   8.005
 1629POPC   C4A25074  35.402   5.418   7.720
 1629POPC   C1B25075  35.501   4.946   8.847
 1629POPC   C2B25076  35.586   4.793   8.416
 1629POPC   C3B25077  35.683   4.833   7.972
 1629POPC   C4B25078  35.623   4.990   7.554
 1630POPC   NC325079  26.691  28.430   9.912
 1630POPC   PO425080  26.305  28.344   9.376
 1630POPC   GL125081  26.729  28.307   9.257
 1630POPC   GL225082  26.876  28.619   9.215
 1630POPC   C1A25083  26.720  28.256   8.816
 1630POPC   D2A25084  26.838  28.415   8.405
 1630POPC   C3A25085  26.668  28.219   8.051
 1630POPC   C4A25086  26.709  28.387   7.624
 1630POPC   C1B25087  26.956  28.773   8.777
 1630POPC   C2B25088  26.902  28.906   8.317
 1630POPC   C3B25089  26.562  28.698   8.036
 1630POPC   C4B25090  26.377  28.790   7.629
 1631POPC   NC325091  30.358  34.289   9.762
 1631POPC   PO425092  30.714  33.877   9.316
 1631POPC   GL125093  30.770  33.904   8.966
 1631POPC   GL225094  30.450  33.984   8.815
 1631POPC   C1A25095  31.082  33.754   8.704
 1631POPC   D2A25096  30.989  33.618   8.306
 1631POPC   C3A25097  30.726  33.928   8.154
 1631POPC   C4A25098  30.886  33.933   7.756
 1631POPC   C1B25099  30.578  33.605   8.616
 1631POPC   C2B25100  30.445  33.484   8.235
 1631POPC   C3B25101  30.674  33.486   7.868
 1631POPC   C4B25102  30.754  33.488   7.397
 1632POPC   NC325103  37.793  22.469   9.517
 1632POPC   PO425104  37.599  21.843   9.518
 1632POPC   GL125105  37.636  22.063   9.125
 1632POPC   GL225106  37.987  21.989   9.102
 1632POPC   C1A25107  37.714  21.908   8.692
 1632POPC   D2A25108  37.795  22.053   8.318
 1632POPC   C3A25109  37.619  21.814   8.010
 1632POPC   C4A25110  37.512  22.099   7.724
 1632POPC   C1B25111  37.972  22.329   8.782
 1632POPC   C2B25112  38.136  22.441   8.387
 1632POPC   C3B25113  37.928  22.406   7.972
 1632POPC   C4B25114  37.951  22.268   7.538
 1633POPC   NC325115  13.418  33.277   9.281
 1633POPC   PO425116  13.886  32.841   9.414
 1633POPC   GL125117  13.780  33.006   9.044
 1633POPC   GL225118  13.884  33.343   9.058
 1633POPC   C1A25119  13.588  32.865   8.682
 1633POPC   D2A25120  13.332  32.700   8.367
 1633POPC   C3A25121  13.524  32.738   8.001
 1633POPC   C4A25122  13.453  33.066   7.739
 1633POPC   C1B25123  13.630  33.388   8.684
 1633POPC   C2B25124  13.627  33.224   8.282
 1633POPC   C3B25125  13.634  33.471   7.941
 1633POPC   C4B25126  13.208  33.549   7.855
 1634POPC   NC325127  35.282   6.078   9.347
 1634POPC   PO425128  34.782   5.643   9.418
 1634POPC   GL125129  35.044   5.703   9.030
 1634POPC   GL225130  35.412   5.826   8.940
 1634POPC   C1A25131  35.152   5.635   8.564
 1634POPC   D2A25132  35.067   5.589   8.109
 1634POPC   C3A25133  35.276   5.912   7.834
 1634POPC   C4A25134  35.127   6.159   7.438
 1634POPC   C1B25135  35.512   6.208   8.685
 1634POPC   C2B25136  35.858   6.289   8.388
 1634POPC   C3B25137  35.907   6.150   7.945
 1634POPC   C4B25138  35.768   5.745   7.815
 1635POPC   NC325139  31.688  35.550   9.440
 1635POPC   PO425140  31.430  34.878   9.472
 1635POPC   GL125141  31.638  35.095   9.161
 1635POPC   GL225142  31.349  35.314   9.118
 1635POPC   C1A25143  31.773  35.340   8.788
 1635POPC   D2A25144  31.563  35.480   8.409
 1635POPC   C3A25145  31.712  35.357   8.023
 1635POPC   C4A25146  31.565  35.078   7.688
 1635POPC   C1B25147  31.079  35.282   8.770
 1635POPC   C2B25148  31.038  35.443   8.372
 1635POPC   C3B25149  31.209  35.372   7.983
 1635POPC   C4B25150  31.137  35.358   7.550
 1636POPC   NC325151  39.634  38.663   9.612
 1636POPC   PO425152  39.642  38.001   9.761
 1636POPC   GL125153  39.801  38.196   9.327
 1636POPC   GL225154  39.911  38.515   9.200
 1636POPC   C1A25155  39.844  38.168   8.835
 1636POPC   D2A25156  40.082  38.102   8.413
 1636POPC   C3A25157  40.081  38.342   8.002
 1636POPC   C4A25158  39.910  38.211   7.587
 1636POPC   C1B25159  39.869  38.697   8.797
 1636POPC   C2B25160  39.822  38.568   8.384
 1636POPC   C3B25161  39.903  38.841   8.043
 1636POPC   C4B25162  39.930  38.712   7.649
 1637POPC   NC325163  33.365  11.031   9.561
 1637POPC   PO425164  32.679  10.967   9.370
 1637POPC   GL125165  32.933  11.248   9.113
 1637POPC   GL225166  32.785  11.611   9.148
 1637POPC   C1A25167  33.221  11.217   8.724
 1637POPC   D2A25168  33.387  11.083   8.296
 1637POPC   C3A25169  33.080  10.966   7.963
 1637POPC   C4A25170  32.737  11.120   7.727
 1637POPC   C1B25171  32.966  11.660   8.726
 1637POPC   C2B25172  33.005  11.462   8.308
 1637POPC   C3B25173  33.152  11.462   7.897
 1637POPC   C4B25174  33.207  11.713   7.551
 1638POPC   NC325175   5.292  11.387   9.581
 1638POPC   PO425176   4.970  10.961   9.308
 1638POPC   GL125177   5.166  11.231   9.080
 1638POPC   GL225178   5.526  11.168   9.121
 1638POPC   C1A25179   5.041  11.294   8.669
 1638POPC   D2A25180   5.106  11.159   8.286
 1638POPC   C3A25181   4.871  11.351   8.029
 1638POPC   C4A25182   4.962  11.200   7.680
 1638POPC   C1B25183   5.459  11.528   8.795
 1638POPC   C2B25184   5.312  11.627   8.344
 1638POPC   C3B25185   5.388  11.445   7.902
 1638POPC   C4B25186   5.353  11.440   7.422
 1639POPC   NC325187  13.459  15.220   9.766
 1639POPC   PO425188  14.078  15.409   9.399
 1639POPC   GL125189  13.816  15.173   9.147
 1639POPC   GL225190  13.470  15.062   9.269
 1639POPC   C1A25191  13.813  15.192   8.703
 1639POPC   D2A25192  13.600  15.370   8.361
 1639POPC   C3A25193  13.689  15.238   7.962
 1639POPC   C4A25194  13.306  15.370   7.814
 1639POPC   C1B25195  13.403  14.897   8.859
 1639POPC   C2B25196  13.494  14.873   8.429
 1639POPC   C3B25197  13.575  14.739   8.019
 1639POPC   C4B25198  13.445  14.899   7.633
 1640POPC   NC325199  32.852  34.442   9.454
 1640POPC   PO425200  33.501  34.558   9.482
 1640POPC   GL125201  33.215  34.507   9.091
 1640POPC   GL225202  32.908  34.303   8.960
 1640POPC   C1A25203  33.182  34.657   8.671
 1640POPC   D2A25204  33.397  34.511   8.307
 1640POPC   C3A25205  33.073  34.614   8.026
 1640POPC   C4A25206  32.832  34.412   7.749
 1640POPC   C1B25207  32.675  34.593   8.627
 1640POPC   C2B25208  32.619  34.862   8.219
 1640POPC   C3B25209  32.593  34.906   7.749
 1640POPC   C4B25210  32.693  34.684   7.345
 1641POPC   NC325211  25.771  33.568   9.639
 1641POPC   PO425212  26.290  33.129   9.402
 1641POPC   GL125213  26.106  33.127   9.004
 1641POPC   GL225214  25.779  33.002   9.096
 1641POPC   C1A25215  25.945  32.960   8.610
 1641POPC   D2A25216  26.073  32.810   8.209
 1641POPC   C3A25217  25.926  33.044   7.836
 1641POPC   C4A25218  26.109  33.144   7.411
 1641POPC   C1B25219  25.673  32.606   8.860
 1641POPC   C2B25220  25.701  32.554   8.426
 1641POPC   C3B25221  25.711  32.587   7.932
 1641POPC   C4B25222  25.864  32.700   7.456
 1642POPC   NC325223  21.469  26.006   9.770
 1642POPC   PO425224  21.220  26.548   9.442
 1642POPC   GL125225  21.500  26.206   9.217
 1642POPC   GL225226  21.649  25.878   9.197
 1642POPC   C1A25227  21.543  26.113   8.739
 1642POPC   D2A25228  21.364  25.974   8.327
 1642POPC   C3A25229  21.431  26.089   7.868
 1642POPC   C4A25230  21.295  25.870   7.460
 1642POPC   C1B25231  21.883  25.744   8.806
 1642POPC   C2B25232  21.907  25.915   8.406
 1642POPC   C3B25233  21.794  25.753   8.009
 1642POPC   C4B25234  21.797  25.882   7.562
 1643POPC   NC325235   3.744   6.789   9.534
 1643POPC   PO425236   3.144   6.392   9.546
 1643POPC   GL125237   3.388   6.476   9.200
 1643POPC   GL225238   3.127   6.358   8.989
 1643POPC   C1A25239   3.709   6.366   8.874
 1643POPC   D2A25240   3.712   6.226   8.437
 1643POPC   C3A25241   3.803   6.568   8.122
 1643POPC   C4A25242   3.702   6.788   7.716
 1643POPC   C1B25243   2.861   6.261   8.622
 1643POPC   C2B25244   2.988   6.346   8.183
 1643POPC   C3B25245   3.362   6.379   7.922
 1643POPC   C4B25246   3.339   6.493   7.472
 1644POPC   NC325247   5.711  41.759   9.427
 1644POPC   PO425248   5.698  41.109   9.424
 1644POPC   GL125249   5.674  41.377   9.060
 1644POPC   GL225250   5.447  41.674   9.004
 1644POPC   C1A25251   5.938  41.507   8.731
 1644POPC   D2A25252   5.903  41.506   8.297
 1644POPC   C3A25253   6.036  41.152   8.016
 1644POPC   C4A25254   6.169  41.316   7.631
 1644POPC   C1B25255   5.690  41.979   8.759
 1644POPC   C2B25256   5.605  42.145   8.352
 1644POPC   C3B25257   5.700  41.943   7.994
 1644POPC   C4B25258   5.726  41.539   7.834
 1645POPC   NC325259  40.254  18.192   9.586
 1645POPC   PO425260  39.595  18.360   9.638
 1645POPC   GL125261  39.979  18.358   9.213
 1645POPC   GL225262  40.268  18.083   9.077
 1645POPC   C1A25263  40.086  18.466   8.791
 1645POPC   D2A25264  39.953  18.224   8.441
 1645POPC   C3A25265  39.786  18.399   8.092
 1645POPC   C4A25266  39.791  18.174   7.729
 1645POPC   C1B25267  40.235  17.865   8.672
 1645POPC   C2B25268  40.366  17.960   8.243
 1645POPC   C3B25269  40.286  18.192   7.851
 1645POPC   C4B25270  40.241  18.623   7.714
 1646POPC   NC325271   0.948  30.852   9.442
 1646POPC   PO425272   1.517  31.111   9.304
 1646POPC   GL125273   1.249  30.862   9.044
 1646POPC   GL225274   1.191  30.496   9.137
 1646POPC   C1A25275   1.022  30.676   8.703
 1646POPC   D2A25276   1.217  30.621   8.284
 1646POPC   C3A25277   1.028  30.724   7.853
 1646POPC   C4A25278   0.986  30.698   7.360
 1646POPC   C1B25279   1.244  30.225   8.746
 1646POPC   C2B25280   1.463  30.177   8.331
 1646POPC   C3B25281   1.374  30.342   7.886
 1646POPC   C4B25282   1.394  30.365   7.416
 1647POPC   NC325283  24.047  12.150   9.416
 1647POPC   PO425284  24.725  12.048   9.489
 1647POPC   GL125285  24.476  12.063   9.139
 1647POPC   GL225286  24.302  11.743   9.086
 1647POPC   C1A25287  24.387  12.191   8.739
 1647POPC   D2A25288  24.597  12.144   8.348
 1647POPC   C3A25289  24.449  12.256   7.941
 1647POPC   C4A25290  24.192  12.059   7.644
 1647POPC   C1B25291  24.662  11.729   8.766
 1647POPC   C2B25292  24.926  11.770   8.348
 1647POPC   C3B25293  24.704  11.787   7.925
 1647POPC   C4B25294  24.598  11.799   7.450
 1648POPC   NC325295  41.740   3.787   9.556
 1648POPC   PO425296  41.881   3.130   9.606
 1648POPC   GL125297  41.619   3.368   9.261
 1648POPC   GL225298  41.732   3.694   9.067
 1648POPC   C1A25299  41.465   3.339   8.813
 1648POPC   D2A25300  41.497   3.381   8.352
 1648POPC   C3A25301  41.268   3.645   8.044
 1648POPC   C4A25302  41.331   3.973   7.727
 1648POPC   C1B25303  41.635   3.803   8.624
 1648POPC   C2B25304  41.729   3.835   8.166
 1648POPC   C3B25305  41.800   3.622   7.807
 1648POPC   C4B25306  42.127   3.268   7.779
 1649POPC   NC325307  18.955  39.597   9.411
 1649POPC   PO425308  19.202  40.250   9.541
 1649POPC   GL125309  18.899  40.084   9.236
 1649POPC   GL225310  19.207  39.942   9.108
 1649POPC   C1A25311  18.808  40.006   8.774
 1649POPC   D2A25312  18.950  39.890   8.325
 1649POPC   C3A25313  19.002  40.062   7.896
 1649POPC   C4A25314  19.415  40.276   7.819
 1649POPC   C1B25315  19.313  39.740   8.752
 1649POPC   C2B25316  19.258  39.497   8.413
 1649POPC   C3B25317  19.293  39.639   8.006
 1649POPC   C4B25318  19.327  39.799   7.576
 1650POPC   NC325319  30.273   4.607   9.597
 1650POPC   PO425320  29.671   4.345   9.625
 1650POPC   GL125321  29.742   4.281   9.197
 1650POPC   GL225322  30.093   4.351   9.145
 1650POPC   C1A25323  29.759   4.303   8.759
 1650POPC   D2A25324  29.915   4.468   8.371
 1650POPC   C3A25325  29.654   4.393   7.999
 1650POPC   C4A25326  29.528   4.166   7.636
 1650POPC   C1B25327  30.258   4.161   8.744
 1650POPC   C2B25328  30.392   4.317   8.325
 1650POPC   C3B25329  30.195   4.270   7.914
 1650POPC   C4B25330  30.260   4.047   7.497
 1651POPC   NC325331  22.289   7.995   9.487
 1651POPC   PO425332  21.967   8.508   9.397
 1651POPC   GL125333  22.134   8.290   9.047
 1651POPC   GL225334  22.087   7.930   9.026
 1651POPC   C1A25335  22.014   8.297   8.615
 1651POPC   D2A25336  22.026   8.597   8.264
 1651POPC   C3A25337  22.266   8.462   7.961
 1651POPC   C4A25338  22.149   8.489   7.573
 1651POPC   C1B25339  22.333   7.885   8.658
 1651POPC   C2B25340  22.329   8.037   8.230
 1651POPC   C3B25341  22.213   7.979   7.774
 1651POPC   C4B25342  22.348   7.887   7.334
 1652POPC   NC325343   6.190  32.917   9.456
 1652POPC   PO425344   6.897  33.027   9.413
 1652POPC   GL125345   6.792  32.763   9.098
 1652POPC   GL225346   6.482  32.900   9.059
 1652POPC   C1A25347   6.689  32.649   8.670
 1652POPC   D2A25348   6.889  32.721   8.247
 1652POPC   C3A25349   6.691  32.549   7.842
 1652POPC   C4A25350   6.287  32.641   7.689
 1652POPC   C1B25351   6.670  33.172   8.771
 1652POPC   C2B25352   6.513  33.068   8.389
 1652POPC   C3B25353   6.543  33.006   7.994
 1652POPC   C4B25354   6.687  33.114   7.621
 1653POPC   NC325355   5.080  17.031   9.504
 1653POPC   PO425356   5.414  16.476   9.564
 1653POPC   GL125357   5.068  16.604   9.201
 1653POPC   GL225358   5.041  16.975   9.023
 1653POPC   C1A25359   4.896  16.597   8.734
 1653POPC   D2A25360   4.695  16.716   8.328
 1653POPC   C3A25361   4.932  16.599   7.960
 1653POPC   C4A25362   5.338  16.446   7.808
 1653POPC   C1B25363   5.230  17.101   8.647
 1653POPC   C2B25364   5.235  16.880   8.266
 1653POPC   C3B25365   5.299  16.961   7.835
 1653POPC   C4B25366   5.414  17.105   7.411
 1654POPC   NC325367  15.303  37.276   9.312
 1654POPC   PO425368  15.344  36.605   9.524
 1654POPC   GL125369  15.241  36.758   9.135
 1654POPC   GL225370  14.900  36.623   9.152
 1654POPC   C1A25371  15.305  36.677   8.696
 1654POPC   D2A25372  15.445  36.888   8.305
 1654POPC   C3A25373  15.215  36.870   7.898
 1654POPC   C4A25374  15.227  37.094   7.476
 1654POPC   C1B25375  14.841  36.930   8.820
 1654POPC   C2B25376  14.832  37.035   8.381
 1654POPC   C3B25377  14.677  36.859   7.999
 1654POPC   C4B25378  14.773  36.922   7.573
 1655POPC   NC325379   0.691  33.751  10.171
 1655POPC   PO425380   0.545  33.674   9.476
 1655POPC   GL125381   0.543  33.803   9.062
 1655POPC   GL225382   0.206  33.813   9.034
 1655POPC   C1A25383   0.476  33.958   8.636
 1655POPC   D2A25384   0.125  34.085   8.384
 1655POPC   C3A25385   0.275  34.060   7.963
 1655POPC   C4A25386   0.574  33.747   7.772
 1655POPC   C1B25387   0.086  33.585   8.662
 1655POPC   C2B25388   0.044  33.582   8.227
 1655POPC   C3B25389   0.083  33.602   7.826
 1655POPC   C4B25390   0.272  33.327   7.523
 1656POPC   NC325391  11.617  33.667   9.276
 1656POPC   PO425392  11.004  33.937   9.432
 1656POPC   GL125393  11.208  33.881   9.086
 1656POPC   GL225394  11.472  34.138   9.054
 1656POPC   C1A25395  11.387  33.789   8.679
 1656POPC   D2A25396  11.295  33.927   8.305
 1656POPC   C3A25397  11.368  33.560   8.107
 1656POPC   C4A25398  11.685  33.413   7.943
 1656POPC   C1B25399  11.093  34.191   8.724
 1656POPC   C2B25400  10.810  34.187   8.388
 1656POPC   C3B25401  10.909  34.036   7.988
 1656POPC   C4B25402  11.278  33.923   7.779
 1657POPC   NC325403   0.423  19.526   9.473
 1657POPC   PO425404   0.445  20.205   9.424
 1657POPC   GL125405   0.365  19.911   9.112
 1657POPC   GL225406   0.715  19.870   9.118
 1657POPC   C1A25407   0.197  19.867   8.701
 1657POPC   D2A25408   0.312  20.076   8.357
 1657POPC   C3A25409   0.388  20.025   7.922
 1657POPC   C4A25410   0.361  19.656   7.707
 1657POPC   C1B25411   0.681  20.112   8.718
 1657POPC   C2B25412   0.815  19.983   8.315
 1657POPC   C3B25413   0.823  19.743   7.946
 1657POPC   C4B25414   0.754  19.909   7.517
 1658POPC   NC325415  22.657  42.185   9.267
 1658POPC   PO425416  22.961  41.640   9.525
 1658POPC   GL125417  23.107  41.490   9.120
 1658POPC   GL225418  22.758  41.479   9.026
 1658POPC   C1A25419  23.164  41.351   8.706
 1658POPC   D2A25420  22.921  41.529   8.338
 1658POPC   C3A25421  23.066  41.427   7.882
 1658POPC   C4A25422  23.078  41.663   7.488
 1658POPC   C1B25423  22.590  41.756   8.719
 1658POPC   C2B25424  22.397  41.704   8.330
 1658POPC   C3B25425  22.588  41.631   7.949
 1658POPC   C4B25426  22.657  41.898   7.618
 1659POPC   NC325427  31.387  10.007   9.594
 1659POPC   PO425428  31.913   9.568   9.622
 1659POPC   GL125429  31.600   9.731   9.213
 1659POPC   GL225430  31.335  10.063   9.111
 1659POPC   C1A25431  31.435   9.722   8.772
 1659POPC   D2A25432  31.225   9.536   8.439
 1659POPC   C3A25433  31.464   9.440   8.087
 1659POPC   C4A25434  31.367   9.516   7.688
 1659POPC   C1B25435  31.595  10.213   8.769
 1659POPC   C2B25436  31.713  10.043   8.351
 1659POPC   C3B25437  31.616   9.918   7.918
 1659POPC   C4B25438  31.683   9.835   7.464
 1660POPC   NC325439   9.806  22.340   9.609
 1660POPC   PO425440  10.332  22.010   9.713
 1660POPC   GL125441   9.961  21.927   9.353
 1660POPC   GL225442   9.581  21.959   9.269
 1660POPC   C1A25443   9.917  21.962   8.871
 1660POPC   D2A25444   9.954  21.928   8.396
 1660POPC   C3A25445  10.096  22.345   8.194
 1660POPC   C4A25446  10.217  22.728   7.899
 1660POPC   C1B25447   9.442  22.124   8.824
 1660POPC   C2B25448   9.503  22.228   8.361
 1660POPC   C3B25449   9.688  22.080   7.965
 1660POPC   C4B25450   9.591  21.968   7.541
 1661POPC   NC325451   7.925  38.868   9.510
 1661POPC   PO425452   8.309  38.206   9.425
 1661POPC   GL125453   8.037  38.431   9.160
 1661POPC   GL225454   8.215  38.698   9.127
 1661POPC   C1A25455   8.075  38.342   8.739
 1661POPC   D2A25456   7.950  38.538   8.390
 1661POPC   C3A25457   8.070  38.335   8.060
 1661POPC   C4A25458   8.222  38.337   7.715
 1661POPC   C1B25459   8.178  38.853   8.747
 1661POPC   C2B25460   8.208  38.996   8.365
 1661POPC   C3B25461   8.207  38.820   7.994
 1661POPC   C4B25462   8.269  38.816   7.555
 1662POPC   NC325463  44.920  21.065   9.355
 1662POPC   PO425464  44.392  20.937   9.738
 1662POPC   GL125465  44.500  21.334   9.280
 1662POPC   GL225466  44.835  21.429   9.039
 1662POPC   C1A25467  44.388  21.529   8.852
 1662POPC   D2A25468  44.317  21.451   8.402
 1662POPC   C3A25469  44.533  21.533   8.015
 1662POPC   C4A25470  44.273  21.252   7.801
 1662POPC   C1B25471  44.682  21.174   8.670
 1662POPC   C2B25472  44.703  20.805   8.468
 1662POPC   C3B25473  44.559  20.965   8.106
 1662POPC   C4B25474  44.771  21.124   7.775
 1663POPC   NC325475   0.728  20.996   9.596
 1663POPC   PO425476   0.555  21.668   9.506
 1663POPC   GL125477   0.644  21.338   9.185
 1663POPC   GL225478   0.338  21.214   9.100
 1663POPC   C1A25479   0.682  21.264   8.717
 1663POPC   D2A25480   0.503  21.113   8.301
 1663POPC   C3A25481   0.634  21.376   7.934
 1663POPC   C4A25482   0.915  21.370   7.561
 1663POPC   C1B25483   0.168  21.210   8.686
 1663POPC   C2B25484   0.016  21.239   8.227
 1663POPC   C3B25485   0.144  21.442   7.804
 1663POPC   C4B25486   0.021  21.388   7.395
 1664POPC   NC325487  40.276  33.111   9.480
 1664POPC   PO425488  39.669  32.884   9.725
 1664POPC   GL125489  39.642  32.853   9.193
 1664POPC   GL225490  40.058  32.884   9.094
 1664POPC   C1A25491  39.779  32.890   8.706
 1664POPC   D2A25492  39.875  33.162   8.336
 1664POPC   C3A25493  40.014  32.993   7.968
 1664POPC   C4A25494  40.423  32.816   7.912
 1664POPC   C1B25495  40.152  33.275   8.775
 1664POPC   C2B25496  40.141  33.587   8.406
 1664POPC   C3B25497  40.092  33.499   7.953
 1664POPC   C4B25498  40.002  33.468   7.487
 1665POPC   NC325499   1.557  16.841   9.334
 1665POPC   PO425500   0.942  16.906   9.486
 1665POPC   GL125501   1.086  16.894   9.074
 1665POPC   GL225502   1.184  16.584   9.061
 1665POPC   C1A25503   1.118  16.791   8.598
 1665POPC   D2A25504   1.229  16.857   8.144
 1665POPC   C3A25505   0.905  16.942   7.805
 1665POPC   C4A25506   0.883  16.714   7.397
 1665POPC   C1B25507   1.539  16.518   8.750
 1665POPC   C2B25508   1.648  16.236   8.399
 1665POPC   C3B25509   1.542  16.305   7.944
 1665POPC   C4B25510   1.252  16.569   7.718
 1666POPC   NC325511   8.725  21.199   9.339
 1666POPC   PO425512   8.045  21.290   9.527
 1666POPC   GL125513   8.091  21.240   9.127
 1666POPC   GL225514   8.350  21.442   9.098
 1666POPC   C1A25515   7.973  21.034   8.765
 1666POPC   D2A25516   8.210  20.931   8.389
 1666POPC   C3A25517   8.255  21.117   7.988
 1666POPC   C4A25518   8.021  21.199   7.634
 1666POPC   C1B25519   8.401  21.310   8.689
 1666POPC   C2B25520   8.170  21.443   8.358
 1666POPC   C3B25521   8.210  21.636   7.972
 1666POPC   C4B25522   8.385  21.565   7.615
 1667POPC   NC325523   8.054  39.628   9.389
 1667POPC   PO425524   8.413  39.030   9.472
 1667POPC   GL125525   8.257  39.226   9.110
 1667POPC   GL225526   7.912  39.146   9.070
 1667POPC   C1A25527   8.269  39.417   8.709
 1667POPC   D2A25528   8.087  39.508   8.304
 1667POPC   C3A25529   8.121  39.336   7.919
 1667POPC   C4A25530   8.442  39.615   7.792
 1667POPC   C1B25531   7.819  39.210   8.639
 1667POPC   C2B25532   7.702  38.973   8.262
 1667POPC   C3B25533   7.760  38.928   7.827
 1667POPC   C4B25534   7.906  39.192   7.453
 1668POPC   NC325535  37.130  38.704   9.446
 1668POPC   PO425536  36.726  38.189   9.466
 1668POPC   GL125537  36.930  38.374   9.103
 1668POPC   GL225538  36.756  38.706   9.067
 1668POPC   C1A25539  36.879  38.437   8.660
 1668POPC   D2A25540  36.522  38.379   8.402
 1668POPC   C3A25541  36.697  38.348   8.028
 1668POPC   C4A25542  37.120  38.260   7.880
 1668POPC   C1B25543  36.595  38.936   8.694
 1668POPC   C2B25544  36.782  38.815   8.288
 1668POPC   C3B25545  37.199  38.702   8.123
 1668POPC   C4B25546  37.276  38.707   7.652
 1669POPC   NC325547   2.199  14.038   9.419
 1669POPC   PO425548   2.129  14.621   9.489
 1669POPC   GL125549   2.016  14.620   9.079
 1669POPC   GL225550   1.809  14.331   9.086
 1669POPC   C1A25551   2.063  14.887   8.710
 1669POPC   D2A25552   2.304  14.949   8.334
 1669POPC   C3A25553   2.158  14.780   7.921
 1669POPC   C4A25554   1.954  14.465   7.664
 1669POPC   C1B25555   1.777  14.456   8.642
 1669POPC   C2B25556   1.794  14.763   8.295
 1669POPC   C3B25557   1.645  14.863   7.885
 1669POPC   C4B25558   1.490  14.655   7.484
 1670POPC   NC325559  35.136   7.049   9.336
 1670POPC   PO425560  35.589   6.422   9.410
 1670POPC   GL125561  35.495   6.727   9.140
 1670POPC   GL225562  35.238   6.505   9.024
 1670POPC   C1A25563  35.414   6.940   8.751
 1670POPC   D2A25564  35.286   6.916   8.318
 1670POPC   C3A25565  35.324   6.473   8.155
 1670POPC   C4A25566  35.489   6.371   7.720
 1670POPC   C1B25567  35.063   6.578   8.636
 1670POPC   C2B25568  34.808   6.617   8.282
 1670POPC   C3B25569  34.974   6.771   7.925
 1670POPC   C4B25570  35.393   6.877   7.804
 1671POPC   NC325571   6.635   8.885   9.539
 1671POPC   PO425572   6.351   9.562   9.566
 1671POPC   GL125573   6.528   9.277   9.227
 1671POPC   GL225574   6.306   8.962   9.170
 1671POPC   C1A25575   6.693   9.085   8.831
 1671POPC   D2A25576   6.491   8.991   8.416
 1671POPC   C3A25577   6.664   9.112   8.003
 1671POPC   C4A25578   6.428   9.183   7.632
 1671POPC   C1B25579   6.262   8.660   8.833
 1671POPC   C2B25580   6.446   8.485   8.456
 1671POPC   C3B25581   6.325   8.546   8.017
 1671POPC   C4B25582   6.558   8.699   7.681
 1672POPC   NC325583  34.669  22.793   9.330
 1672POPC   PO425584  35.309  22.778   9.450
 1672POPC   GL125585  35.344  22.549   9.095
 1672POPC   GL225586  35.011  22.579   9.013
 1672POPC   C1A25587  35.565  22.624   8.730
 1672POPC   D2A25588  35.600  22.904   8.365
 1672POPC   C3A25589  35.384  22.780   7.980
 1672POPC   C4A25590  35.233  22.839   7.543
 1672POPC   C1B25591  35.154  22.921   8.722
 1672POPC   C2B25592  35.128  23.123   8.288
 1672POPC   C3B25593  34.937  23.108   7.857
 1672POPC   C4B25594  34.737  22.970   7.452
 1673POPC   NC325595  29.818  10.031   9.543
 1673POPC   PO425596  30.280   9.440   9.446
 1673POPC   GL125597  30.072   9.747   9.180
 1673POPC   GL225598  29.709   9.652   9.174
 1673POPC   C1A25599  30.040   9.835   8.730
 1673POPC   D2A25600  30.129   9.766   8.284
 1673POPC   C3A25601  29.951   9.428   8.086
 1673POPC   C4A25602  29.751   9.592   7.766
 1673POPC   C1B25603  29.510   9.933   8.889
 1673POPC   C2B25604  29.523  10.087   8.486
 1673POPC   C3B25605  29.666   9.990   8.083
 1673POPC   C4B25606  29.949  10.184   7.813
 1674POPC   NC325607  42.588  22.644   9.257
 1674POPC   PO425608  42.052  22.242   9.570
 1674POPC   GL125609  42.195  22.122   9.127
 1674POPC   GL225610  42.087  21.760   9.094
 1674POPC   C1A25611  42.430  22.311   8.739
 1674POPC   D2A25612  42.632  22.396   8.380
 1674POPC   C3A25613  42.448  22.397   7.983
 1674POPC   C4A25614  42.018  22.205   7.865
 1674POPC   C1B25615  42.269  21.852   8.674
 1674POPC   C2B25616  42.293  21.990   8.240
 1674POPC   C3B25617  42.544  21.900   7.863
 1674POPC   C4B25618  42.616  21.769   7.413
 1675POPC   NC325619  39.159  19.559   9.472
 1675POPC   PO425620  39.542  20.033   9.253
 1675POPC   GL125621  39.493  19.738   8.980
 1675POPC   GL225622  39.135  19.741   8.989
 1675POPC   C1A25623  39.506  19.819   8.540
 1675POPC   D2A25624  39.213  20.017   8.194
 1675POPC   C3A25625  39.296  19.939   7.736
 1675POPC   C4A25626  39.461  19.732   7.321
 1675POPC   C1B25627  39.104  20.096   8.703
 1675POPC   C2B25628  38.773  20.238   8.437
 1675POPC   C3B25629  38.718  20.323   8.004
 1675POPC   C4B25630  38.779  20.062   7.645
 1676POPC   NC325631   6.486  30.714   9.622
 1676POPC   PO425632   5.799  30.770   9.457
 1676POPC   GL125633   6.039  30.806   9.074
 1676POPC   GL225634   6.377  30.867   9.126
 1676POPC   C1A25635   5.988  30.776   8.617
 1676POPC   D2A25636   5.719  30.513   8.376
 1676POPC   C3A25637   5.643  30.746   8.019
 1676POPC   C4A25638   5.554  30.488   7.680
 1676POPC   C1B25639   6.396  30.544   8.790
 1676POPC   C2B25640   6.274  30.365   8.391
 1676POPC   C3B25641   6.102  30.487   8.010
 1676POPC   C4B25642   6.014  30.737   7.672
 1677POPC   NC325643  30.532   9.827   9.477
 1677POPC   PO425644  31.181   9.595   9.506
 1677POPC   GL125645  30.923   9.731   9.132
 1677POPC   GL225646  30.559   9.628   9.026
 1677POPC   C1A25647  30.907   9.864   8.711
 1677POPC   D2A25648  31.184  10.047   8.426
 1677POPC   C3A25649  31.113   9.855   8.025
 1677POPC   C4A25650  30.779   9.786   7.737
 1677POPC   C1B25651  30.489   9.570   8.621
 1677POPC   C2B25652  30.676   9.681   8.258
 1677POPC   C3B25653  30.454   9.476   7.979
 1677POPC   C4B25654  30.252   9.672   7.689
 1678POPC   NC325655  40.198  28.624   9.418
 1678POPC   PO425656  39.802  28.157   9.506
 1678POPC   GL125657  39.853  28.382   9.146
 1678POPC   GL225658  40.193  28.187   9.140
 1678POPC   C1A25659  40.090  28.535   8.776
 1678POPC   D2A25660  40.237  28.565   8.369
 1678POPC   C3A25661  39.975  28.805   8.161
 1678POPC   C4A25662  39.908  28.724   7.753
 1678POPC   C1B25663  39.919  28.027   8.810
 1678POPC   C2B25664  39.859  28.209   8.406
 1678POPC   C3B25665  40.016  28.274   7.987
 1678POPC   C4B25666  39.798  28.257   7.593
 1679POPC   NC325667  30.868  38.907   9.485
 1679POPC   PO425668  31.184  39.476   9.307
 1679POPC   GL125669  31.009  39.222   9.012
 1679POPC   GL225670  30.690  39.162   9.085
 1679POPC   C1A25671  30.904  38.946   8.669
 1679POPC   D2A25672  30.700  39.081   8.304
 1679POPC   C3A25673  30.968  39.348   8.072
 1679POPC   C4A25674  30.945  39.556   7.689
 1679POPC   C1B25675  30.471  39.292   8.732
 1679POPC   C2B25676  30.341  39.634   8.459
 1679POPC   C3B25677  30.304  39.434   8.072
 1679POPC   C4B25678  30.567  39.164   7.794
 1680POPC   NC325679  42.707  15.824   9.309
 1680POPC   PO425680  42.725  16.357   9.759
 1680POPC   GL125681  42.421  16.293   9.326
 1680POPC   GL225682  42.289  15.993   9.080
 1680POPC   C1A25683  42.402  16.387   8.824
 1680POPC   D2A25684  42.132  16.134   8.541
 1680POPC   C3A25685  42.166  16.124   8.074
 1680POPC   C4A25686  42.302  15.815   7.743
 1680POPC   C1B25687  42.571  15.933   8.678
 1680POPC   C2B25688  42.591  16.235   8.331
 1680POPC   C3B25689  42.666  16.184   7.894
 1680POPC   C4B25690  42.796  15.790   7.662
 1681POPC   NC325691  21.885  15.217   9.334
 1681POPC   PO425692  22.405  15.542   9.534
 1681POPC   GL125693  22.352  15.229   9.148
 1681POPC   GL225694  22.180  15.473   8.974
 1681POPC   C1A25695  22.153  15.006   8.750
 1681POPC   D2A25696  22.193  15.197   8.319
 1681POPC   C3A25697  22.369  14.981   7.930
 1681POPC   C4A25698  22.279  15.103   7.505
 1681POPC   C1B25699  21.856  15.405   8.684
 1681POPC   C2B25700  21.721  15.433   8.280
 1681POPC   C3B25701  21.928  15.259   7.882
 1681POPC   C4B25702  21.869  15.414   7.447
 1682POPC   NC325703  14.325  25.050   9.511
 1682POPC   PO425704  14.367  25.727   9.329
 1682POPC   GL125705  14.536  25.366   9.112
 1682POPC   GL225706  14.559  25.000   9.065
 1682POPC   C1A25707  14.584  25.337   8.680
 1682POPC   D2A25708  14.345  25.082   8.425
 1682POPC   C3A25709  14.424  25.297   8.066
 1682POPC   C4A25710  14.331  25.186   7.657
 1682POPC   C1B25711  14.845  24.909   8.720
 1682POPC   C2B25712  14.842  25.000   8.261
 1682POPC   C3B25713  14.618  24.857   7.884
 1682POPC   C4B25714  14.713  24.829   7.402
 1683POPC   NC325715  18.923  11.954   9.411
 1683POPC   PO425716  19.541  11.916   9.472
 1683POPC   GL125717  19.331  11.849   9.103
 1683POPC   GL225718  19.229  12.213   9.086
 1683POPC   C1A25719  19.255  11.863   8.670
 1683POPC   D2A25720  18.945  11.910   8.357
 1683POPC   C3A25721  19.206  12.077   8.061
 1683POPC   C4A25722  19.438  11.837   7.805
 1683POPC   C1B25723  18.852  12.195   8.788
 1683POPC   C2B25724  18.603  12.305   8.391
 1683POPC   C3B25725  18.757  12.304   7.979
 1683POPC   C4B25726  18.773  11.879   7.796
 1684POPC   NC325727  33.000  36.383   9.783
 1684POPC   PO425728  32.855  35.851   9.467
 1684POPC   GL125729  32.955  36.012   9.090
 1684POPC   GL225730  33.131  36.295   9.151
 1684POPC   C1A25731  32.887  36.119   8.654
 1684POPC   D2A25732  33.099  35.866   8.363
 1684POPC   C3A25733  32.913  35.919   7.975
 1684POPC   C4A25734  32.729  35.893   7.502
 1684POPC   C1B25735  33.374  36.121   8.798
 1684POPC   C2B25736  33.410  36.293   8.384
 1684POPC   C3B25737  33.282  36.323   7.944
 1684POPC   C4B25738  32.897  36.328   7.693
 1685POPC   NC325739  34.444  15.211   9.293
 1685POPC   PO425740  33.864  15.301   9.615
 1685POPC   GL125741  33.763  15.172   9.186
 1685POPC   GL225742  34.006  15.039   9.107
 1685POPC   C1A25743  33.607  15.012   8.786
 1685POPC   D2A25744  33.662  15.140   8.382
 1685POPC   C3A25745  33.638  14.858   8.030
 1685POPC   C4A25746  33.796  15.134   7.690
 1685POPC   C1B25747  34.112  15.062   8.720
 1685POPC   C2B25748  34.165  14.874   8.401
 1685POPC   C3B25749  34.112  15.034   8.075
 1685POPC   C4B25750  34.331  14.977   7.761
 1686POPC   NC325751  39.026  24.765   9.586
 1686POPC   PO425752  39.456  25.292   9.703
 1686POPC   GL125753  39.301  25.373   9.287
 1686POPC   GL225754  39.367  25.003   9.237
 1686POPC   C1A25755  39.114  25.511   8.859
 1686POPC   D2A25756  38.950  25.361   8.448
 1686POPC   C3A25757  39.184  25.321   8.059
 1686POPC   C4A25758  39.222  25.539   7.666
 1686POPC   C1B25759  39.679  25.229   8.960
 1686POPC   C2B25760  39.613  25.278   8.516
 1686POPC   C3B25761  39.687  25.454   8.104
 1686POPC   C4B25762  39.595  25.207   7.741
 1687POPC   NC325763   6.680  36.760   9.466
 1687POPC   PO425764   6.108  36.791   9.646
 1687POPC   GL125765   6.322  36.846   9.143
 1687POPC   GL225766   6.613  37.102   9.094
 1687POPC   C1A25767   6.310  36.979   8.709
 1687POPC   D2A25768   6.554  36.987   8.308
 1687POPC   C3A25769   6.384  36.852   7.902
 1687POPC   C4A25770   6.151  36.999   7.521
 1687POPC   C1B25771   6.795  36.782   8.768
 1687POPC   C2B25772   6.836  36.560   8.337
 1687POPC   C3B25773   6.922  36.750   7.910
 1687POPC   C4B25774   6.986  36.552   7.506
 1688POPC   NC325775  10.966  21.474   9.542
 1688POPC   PO425776  11.454  20.998   9.592
 1688POPC   GL125777  11.393  21.374   9.262
 1688POPC   GL225778  11.653  21.668   9.236
 1688POPC   C1A25779  11.242  21.615   8.879
 1688POPC   D2A25780  11.285  21.614   8.409
 1688POPC   C3A25781  11.104  21.316   8.135
 1688POPC   C4A25782  11.012  21.109   7.748
 1688POPC   C1B25783  11.730  21.495   8.815
 1688POPC   C2B25784  11.793  21.499   8.358
 1688POPC   C3B25785  11.581  21.576   7.973
 1688POPC   C4B25786  11.511  21.371   7.612
 1689POPC   NC325787   8.898  17.831   9.888
 1689POPC   PO425788   9.382  17.413   9.583
 1689POPC   GL125789   8.909  17.499   9.377
 1689POPC   GL225790   8.749  17.811   9.282
 1689POPC   C1A25791   8.775  17.380   8.925
 1689POPC   D2A25792   9.012  17.476   8.521
 1689POPC   C3A25793   9.000  17.423   8.039
 1689POPC   C4A25794   9.264  17.273   7.690
 1689POPC   C1B25795   8.721  17.886   8.838
 1689POPC   C2B25796   8.701  18.043   8.410
 1689POPC   C3B25797   8.748  17.892   7.972
 1689POPC   C4B25798   9.022  17.716   7.600
 1690POPC   NC325799  29.680  37.876   9.346
 1690POPC   PO425800  30.291  37.900   9.660
 1690POPC   GL125801  30.160  37.744   9.200
 1690POPC   GL225802  30.060  37.377   9.174
 1690POPC   C1A25803  29.938  37.725   8.781
 1690POPC   D2A25804  29.673  37.611   8.450
 1690POPC   C3A25805  29.818  37.617   8.035
 1690POPC   C4A25806  29.530  37.469   7.729
 1690POPC   C1B25807  30.313  37.382   8.788
 1690POPC   C2B25808  30.217  37.568   8.378
 1690POPC   C3B25809  30.318  37.434   7.956
 1690POPC   C4B25810  30.000  37.306   7.646
 1691POPC   NC325811  34.418   5.881   9.544
 1691POPC   PO425812  34.034   6.415   9.555
 1691POPC   GL125813  34.394   6.265   9.221
 1691POPC   GL225814  34.782   6.234   9.186
 1691POPC   C1A25815  34.493   5.921   8.878
 1691POPC   D2A25816  34.646   5.692   8.498
 1691POPC   C3A25817  34.582   5.867   8.070
 1691POPC   C4A25818  34.803   5.816   7.706
 1691POPC   C1B25819  34.969   6.100   8.757
 1691POPC   C2B25820  35.002   6.084   8.315
 1691POPC   C3B25821  34.918   6.264   7.920
 1691POPC   C4B25822  34.679   6.330   7.576
 1692POPC   NC325823  15.524  44.698   9.398
 1692POPC   PO425824  16.193  44.733   9.544
 1692POPC   GL125825  16.046  44.609   9.185
 1692POPC   GL225826  16.364  44.685   9.057
 1692POPC   C1A25827  15.889  44.712   8.788
 1692POPC   D2A25828  16.052  44.484   8.469
 1692POPC   C3A25829  15.930  44.587   8.067
 1692POPC   C4A25830  15.778  44.612   7.644
 1692POPC   C1B25831  16.311   0.010   8.767
 1692POPC   C2B25832  16.091  44.992   8.355
 1692POPC   C3B25833  16.280  44.928   7.930
 1692POPC   C4B25834  16.098  44.999   7.546
 1693POPC   NC325835  29.301  29.462   9.478
 1693POPC   PO425836  28.773  29.834   9.284
 1693POPC   GL125837  28.938  29.891   8.979
 1693POPC   GL225838  29.267  29.860   9.108
 1693POPC   C1A25839  28.867  29.800   8.589
 1693POPC   D2A25840  29.109  29.837   8.293
 1693POPC   C3A25841  28.997  29.688   7.963
 1693POPC   C4A25842  29.209  29.801   7.637
 1693POPC   C1B25843  29.331  30.071   8.719
 1693POPC   C2B25844  29.343  30.263   8.319
 1693POPC   C3B25845  29.488  30.098   7.918
 1693POPC   C4B25846  29.517  30.133   7.420
 1694POPC   NC325847  43.920   2.982   9.329
 1694POPC   PO425848  43.529   2.445   9.434
 1694POPC   GL125849  43.796   2.548   9.098
 1694POPC   GL225850  43.641   2.823   8.925
 1694POPC   C1A25851  44.025   2.569   8.725
 1694POPC   D2A25852  43.903   2.878   8.402
 1694POPC   C3A25853  44.106   2.853   8.014
 1694POPC   C4A25854  44.362   2.598   7.761
 1694POPC   C1B25855  43.703   3.221   8.748
 1694POPC   C2B25856  43.765   3.385   8.348
 1694POPC   C3B25857  43.634   3.180   8.012
 1694POPC   C4B25858  43.784   3.047   7.672
 1695POPC   NC325859  28.200  35.710   9.434
 1695POPC   PO425860  28.694  35.486   9.735
 1695POPC   GL125861  28.520  35.391   9.209
 1695POPC   GL225862  28.421  35.653   8.988
 1695POPC   C1A25863  28.324  35.214   8.778
 1695POPC   D2A25864  28.213  35.344   8.363
 1695POPC   C3A25865  28.190  35.042   8.031
 1695POPC   C4A25866  28.146  35.088   7.593
 1695POPC   C1B25867  28.693  35.608   8.668
 1695POPC   C2B25868  28.660  35.597   8.233
 1695POPC   C3B25869  28.366  35.565   7.924
 1695POPC   C4B25870  28.407  35.518   7.498
 1696POPC   NC325871  42.884   4.864   9.577
 1696POPC   PO425872  43.497   5.115   9.596
 1696POPC   GL125873  43.169   5.133   9.228
 1696POPC   GL225874  42.964   5.424   9.199
 1696POPC   C1A25875  42.890   5.110   8.823
 1696POPC   D2A25876  42.703   5.341   8.468
 1696POPC   C3A25877  42.894   5.209   8.099
 1696POPC   C4A25878  43.174   5.084   7.785
 1696POPC   C1B25879  42.843   5.657   8.847
 1696POPC   C2B25880  42.891   5.820   8.430
 1696POPC   C3B25881  42.761   5.699   8.009
 1696POPC   C4B25882  42.927   5.487   7.638
 1697POPC   NC325883  29.680   2.082   9.659
 1697POPC   PO425884  30.205   1.549   9.581
 1697POPC   GL125885  29.975   1.849   9.242
 1697POPC   GL225886  29.735   1.709   8.987
 1697POPC   C1A25887  29.868   2.182   8.870
 1697POPC   D2A25888  29.771   2.067   8.399
 1697POPC   C3A25889  29.997   2.278   8.029
 1697POPC   C4A25890  29.887   2.231   7.567
 1697POPC   C1B25891  30.072   1.738   8.665
 1697POPC   C2B25892  30.205   1.831   8.232
 1697POPC   C3B25893  29.925   1.805   7.869
 1697POPC   C4B25894  29.924   1.712   7.431
 1698POPC   NC325895   4.548   6.779   9.394
 1698POPC   PO425896   3.950   6.346   9.483
 1698POPC   GL125897   4.187   6.484   9.089
 1698POPC   GL225898   4.251   6.836   8.975
 1698POPC   C1A25899   4.202   6.384   8.624
 1698POPC   D2A25900   4.318   6.636   8.241
 1698POPC   C3A25901   4.210   6.546   7.797
 1698POPC   C4A25902   4.366   6.396   7.378
 1698POPC   C1B25903   4.603   6.707   8.699
 1698POPC   C2B25904   4.825   6.787   8.300
 1698POPC   C3B25905   4.632   6.935   7.953
 1698POPC   C4B25906   4.606   6.804   7.551
 1699POPC   NC325907  33.282  42.460   9.418
 1699POPC   PO425908  32.812  42.066   9.597
 1699POPC   GL125909  32.940  42.127   9.184
 1699POPC   GL225910  33.268  42.072   9.055
 1699POPC   C1A25911  32.878  42.257   8.763
 1699POPC   D2A25912  33.003  42.158   8.349
 1699POPC   C3A25913  32.892  42.394   7.991
 1699POPC   C4A25914  33.005  42.299   7.582
 1699POPC   C1B25915  33.380  42.384   8.725
 1699POPC   C2B25916  33.219  42.631   8.333
 1699POPC   C3B25917  33.292  42.698   7.869
 1699POPC   C4B25918  33.489  42.428   7.546
 1700POPC   NC325919  10.225  15.389   9.560
 1700POPC   PO425920  10.904  15.343   9.474
 1700POPC   GL125921  10.527  15.206   9.207
 1700POPC   GL225922  10.251  15.445   9.049
 1700POPC   C1A25923  10.391  14.867   8.953
 1700POPC   D2A25924  10.300  14.759   8.524
 1700POPC   C3A25925  10.346  15.110   8.216
 1700POPC   C4A25926  10.441  14.965   7.771
 1700POPC   C1B25927  10.589  15.419   8.734
 1700POPC   C2B25928  10.818  15.355   8.334
 1700POPC   C3B25929  10.706  15.403   7.906
 1700POPC   C4B25930  10.561  15.399   7.489
 1701POPC   NC325931  37.058  15.399   9.511
 1701POPC   PO425932  36.658  14.905   9.447
 1701POPC   GL125933  36.783  15.107   9.110
 1701POPC   GL225934  37.113  15.007   9.171
 1701POPC   C1A25935  36.627  15.307   8.717
 1701POPC   D2A25936  36.642  15.579   8.319
 1701POPC   C3A25937  36.899  15.294   8.058
 1701POPC   C4A25938  36.757  15.049   7.690
 1701POPC   C1B25939  37.203  15.288   8.848
 1701POPC   C2B25940  37.356  15.153   8.453
 1701POPC   C3B25941  37.439  15.280   8.062
 1701POPC   C4B25942  37.238  15.244   7.680
 1702POPC   NC325943  12.935   0.975   9.465
 1702POPC   PO425944  12.403   1.438   9.541
 1702POPC   GL125945  12.573   1.222   9.198
 1702POPC   GL225946  12.882   1.361   9.132
 1702POPC   C1A25947  12.577   1.115   8.769
 1702POPC   D2A25948  12.457   1.244   8.371
 1702POPC   C3A25949  12.425   1.077   7.984
 1702POPC   C4A25950  12.466   1.294   7.614
 1702POPC   C1B25951  13.098   1.336   8.761
 1702POPC   C2B25952  12.937   1.400   8.354
 1702POPC   C3B25953  12.923   1.147   8.011
 1702POPC   C4B25954  13.162   1.090   7.674
 1703POPC   NC325955   6.824   9.585   9.526
 1703POPC   PO425956   7.462   9.899   9.625
 1703POPC   GL125957   7.396   9.975   9.200
 1703POPC   GL225958   7.126   9.768   9.151
 1703POPC   C1A25959   7.439   9.896   8.768
 1703POPC   D2A25960   7.166   9.856   8.423
 1703POPC   C3A25961   7.412   9.819   8.032
 1703POPC   C4A25962   7.425   9.433   7.771
 1703POPC   C1B25963   6.975  10.117   8.880
 1703POPC   C2B25964   6.885  10.417   8.553
 1703POPC   C3B25965   7.014  10.271   8.127
 1703POPC   C4B25966   7.041   9.988   7.743
 1704POPC   NC325967  42.399  31.866   9.337
 1704POPC   PO425968  42.707  32.406   9.542
 1704POPC   GL125969  42.439  32.342   9.173
 1704POPC   GL225970  42.088  32.457   9.116
 1704POPC   C1A25971  42.316  32.166   8.760
 1704POPC   D2A25972  42.146  32.294   8.384
 1704POPC   C3A25973  42.306  32.051   8.083
 1704POPC   C4A25974  42.221  32.057   7.662
 1704POPC   C1B25975  42.000  32.676   8.708
 1704POPC   C2B25976  41.876  32.712   8.242
 1704POPC   C3B25977  42.107  32.523   7.868
 1704POPC   C4B25978  42.059  32.448   7.381
 1705POPC   NC325979  10.893  23.104   9.530
 1705POPC   PO425980  10.289  22.773   9.478
 1705POPC   GL125981  10.626  22.773   9.212
 1705POPC   GL225982  10.666  23.094   9.077
 1705POPC   C1A25983  10.647  22.640   8.774
 1705POPC   D2A25984  10.472  22.669   8.363
 1705POPC   C3A25985  10.661  22.487   7.997
 1705POPC   C4A25986  10.628  22.575   7.557
 1705POPC   C1B25987  10.617  23.114   8.625
 1705POPC   C2B25988  10.790  23.056   8.225
 1705POPC   C3B25989  10.648  23.235   7.837
 1705POPC   C4B25990  10.227  23.414   7.743
 1706POPC   NC325991  22.270  39.716  10.070
 1706POPC   PO425992  22.154  39.847   9.414
 1706POPC   GL125993  21.999  39.634   9.001
 1706POPC   GL225994  21.905  39.276   9.046
 1706POPC   C1A25995  22.154  39.454   8.577
 1706POPC   D2A25996  22.182  39.258   8.154
 1706POPC   C3A25997  22.298  39.475   7.768
 1706POPC   C4A25998  22.079  39.469   7.366
 1706POPC   C1B25999  21.665  39.296   8.656
 1706POPC   C2B26000  21.719  39.499   8.244
 1706POPC   C3B26001  21.789  39.373   7.805
 1706POPC   C4B26002  22.083  39.023   7.639
 1707POPC   NC326003  21.357  44.193   9.873
 1707POPC   PO426004  21.586  43.711   9.364
 1707POPC   GL126005  21.377  43.864   9.045
 1707POPC   GL226006  21.159  44.150   9.077
 1707POPC   C1A26007  21.357  43.771   8.637
 1707POPC   D2A26008  21.208  43.983   8.279
 1707POPC   C3A26009  21.359  43.763   8.007
 1707POPC   C4A26010  21.237  43.600   7.670
 1707POPC   C1B26011  21.353  44.267   8.704
 1707POPC   C2B26012  21.663  44.231   8.358
 1707POPC   C3B26013  21.594  44.354   7.922
 1707POPC   C4B26014  21.386  44.085   7.623
 1708POPC   NC326015  31.738   9.223   9.337
 1708POPC   PO426016  31.366   8.718   9.608
 1708POPC   GL126017  31.250   8.938   9.176
 1708POPC   GL226018  31.295   9.304   9.104
 1708POPC   C1A26019  31.183   8.867   8.749
 1708POPC   D2A26020  31.325   9.025   8.343
 1708POPC   C3A26021  31.300   8.788   8.019
 1708POPC   C4A26022  31.086   8.547   7.766
 1708POPC   C1B26023  31.549   9.235   8.733
 1708POPC   C2B26024  31.819   8.938   8.526
 1708POPC   C3B26025  31.852   8.932   8.094
 1708POPC   C4B26026  31.603   9.069   7.725
 1709POPC   NC326027  24.187  42.399   9.480
 1709POPC   PO426028  24.848  42.329   9.461
 1709POPC   GL126029  24.573  42.340   9.119
 1709POPC   GL226030  24.384  42.035   9.189
 1709POPC   C1A26031  24.593  42.613   8.751
 1709POPC   D2A26032  24.731  42.807   8.351
 1709POPC   C3A26033  24.449  42.679   8.027
 1709POPC   C4A26034  24.547  42.417   7.710
 1709POPC   C1B26035  24.592  41.924   8.828
 1709POPC   C2B26036  24.463  41.942   8.437
 1709POPC   C3B26037  24.422  42.106   8.080
 1709POPC   C4B26038  24.195  42.061   7.723
 1710POPC   NC326039  29.293  41.206   9.479
 1710POPC   PO426040  28.958  41.802   9.308
 1710POPC   GL126041  29.223  41.575   9.076
 1710POPC   GL226042  29.017  41.305   9.081
 1710POPC   C1A26043  29.149  41.575   8.640
 1710POPC   D2A26044  29.095  41.316   8.303
 1710POPC   C3A26045  29.134  41.587   8.027
 1710POPC   C4A26046  29.252  41.624   7.639
 1710POPC   C1B26047  29.011  41.077   8.738
 1710POPC   C2B26048  28.673  41.060   8.446
 1710POPC   C3B26049  28.642  41.214   8.040
 1710POPC   C4B26050  28.921  41.177   7.729
 1711POPC   NC326051  32.570  10.624   9.667
 1711POPC   PO426052  32.024  10.944   9.458
 1711POPC   GL126053  32.310  10.657   9.177
 1711POPC   GL226054  32.426  10.320   9.288
 1711POPC   C1A26055  32.130  10.654   8.753
 1711POPC   D2A26056  32.054  10.449   8.351
 1711POPC   C3A26057  32.147  10.697   7.966
 1711POPC   C4A26058  31.980  10.691   7.503
 1711POPC   C1B26059  32.417  10.249   8.863
 1711POPC   C2B26060  32.559  10.432   8.495
 1711POPC   C3B26061  32.454  10.262   8.092
 1711POPC   C4B26062  32.457  10.196   7.656
 1712POPC   NC326063  10.952  35.369   9.593
 1712POPC   PO426064  11.578  35.069   9.515
 1712POPC   GL126065  11.345  35.110   9.169
 1712POPC   GL226066  11.244  35.425   9.166
 1712POPC   C1A26067  11.117  35.049   8.794
 1712POPC   D2A26068  11.167  35.228   8.420
 1712POPC   C3A26069  11.032  35.073   8.048
 1712POPC   C4A26070  11.168  35.158   7.661
 1712POPC   C1B26071  11.227  35.625   8.764
 1712POPC   C2B26072  11.454  35.643   8.380
 1712POPC   C3B26073  11.308  35.539   7.980
 1712POPC   C4B26074  11.500  35.559   7.571
 1713POPC   NC326075  41.051  26.543   9.533
 1713POPC   PO426076  41.653  26.798   9.575
 1713POPC   GL126077  41.542  26.737   9.187
 1713POPC   GL226078  41.487  26.390   9.216
 1713POPC   C1A26079  41.559  26.944   8.788
 1713POPC   D2A26080  41.646  27.192   8.421
 1713POPC   C3A26081  41.573  26.984   8.016
 1713POPC   C4A26082  41.833  27.078   7.672
 1713POPC   C1B26083  41.711  26.424   8.809
 1713POPC   C2B26084  41.620  26.612   8.409
 1713POPC   C3B26085  41.516  26.454   8.034
 1713POPC   C4B26086  41.655  26.565   7.660
 1714POPC   NC326087   1.285  20.011   9.622
 1714POPC   PO426088   0.926  19.491   9.425
 1714POPC   GL126089   1.215  19.737   9.162
 1714POPC   GL226090   1.361  20.100   9.116
 1714POPC   C1A26091   1.091  19.811   8.750
 1714POPC   D2A26092   1.179  19.619   8.379
 1714POPC   C3A26093   1.308  19.884   8.070
 1714POPC   C4A26094   1.162  20.091   7.749
 1714POPC   C1B26095   1.586  19.847   8.795
 1714POPC   C2B26096   1.726  19.911   8.386
 1714POPC   C3B26097   1.799  19.953   7.952
 1714POPC   C4B26098   1.583  19.799   7.605
 1715POPC   NC326099  39.118  35.318   9.548
 1715POPC   PO426100  39.735  35.435   9.679
 1715POPC   GL126101  39.477  35.384   9.202
 1715POPC   GL226102  39.123  35.491   9.082
 1715POPC   C1A26103  39.387  35.301   8.695
 1715POPC   D2A26104  39.204  35.502   8.284
 1715POPC   C3A26105  39.144  35.170   8.003
 1715POPC   C4A26106  39.423  34.868   7.868
 1715POPC   C1B26107  38.903  35.488   8.695
 1715POPC   C2B26108  38.699  35.616   8.317
 1715POPC   C3B26109  38.878  35.686   7.909
 1715POPC   C4B26110  39.266  35.583   7.726
 1716POPC   NC326111  30.685  44.374   9.587
 1716POPC   PO426112  30.127  43.986   9.433
 1716POPC   GL126113  30.406  44.166   9.142
 1716POPC   GL226114  30.756  44.057   9.164
 1716POPC   C1A26115  30.471  44.023   8.718
 1716POPC   D2A26116  30.535  43.778   8.324
 1716POPC   C3A26117  30.500  44.005   7.988
 1716POPC   C4A26118  30.349  43.786   7.672
 1716POPC   C1B26119  30.985  43.943   8.798
 1716POPC   C2B26120  31.053  43.734   8.411
 1716POPC   C3B26121  30.966  43.597   7.999
 1716POPC   C4B26122  30.850  43.772   7.625
 1717POPC   NC326123  39.020  12.930   9.576
 1717POPC   PO426124  39.523  13.306   9.374
 1717POPC   GL126125  39.215  13.083   9.149
 1717POPC   GL226126  38.848  13.235   9.204
 1717POPC   C1A26127  39.285  12.812   8.817
 1717POPC   D2A26128  39.369  12.682   8.421
 1717POPC   C3A26129  39.395  12.906   8.042
 1717POPC   C4A26130  39.223  12.747   7.682
 1717POPC   C1B26131  38.865  13.104   8.780
 1717POPC   C2B26132  39.098  13.156   8.401
 1717POPC   C3B26133  39.094  13.320   7.971
 1717POPC   C4B26134  38.956  13.178   7.574
 1718POPC   NC326135  35.452  12.891   9.334
 1718POPC   PO426136  35.757  12.301   9.388
 1718POPC   GL126137  35.576  12.525   9.006
 1718POPC   GL226138  35.231  12.702   8.917
 1718POPC   C1A26139  35.548  12.586   8.525
 1718POPC   D2A26140  35.307  12.848   8.252
 1718POPC   C3A26141  35.432  12.818   7.837
 1718POPC   C4A26142  35.676  12.602   7.460
 1718POPC   C1B26143  35.002  13.072   8.691
 1718POPC   C2B26144  35.122  13.340   8.318
 1718POPC   C3B26145  35.090  13.232   7.865
 1718POPC   C4B26146  35.070  13.340   7.401
 1719POPC   NC326147   7.814  38.040   9.402
 1719POPC   PO426148   7.498  38.637   9.566
 1719POPC   GL126149   7.551  38.738   9.175
 1719POPC   GL226150   7.505  38.384   9.104
 1719POPC   C1A26151   7.669  38.740   8.773
 1719POPC   D2A26152   7.413  38.607   8.466
 1719POPC   C3A26153   7.542  38.420   8.089
 1719POPC   C4A26154   7.415  38.559   7.703
 1719POPC   C1B26155   7.167  38.296   8.804
 1719POPC   C2B26156   7.112  38.223   8.344
 1719POPC   C3B26157   7.112  38.170   7.893
 1719POPC   C4B26158   7.309  37.941   7.529
 1720POPC   NC326159  16.888  10.643   9.369
 1720POPC   PO426160  17.129  10.010   9.572
 1720POPC   GL126161  16.952  10.096   9.188
 1720POPC   GL226162  17.181  10.313   9.075
 1720POPC   C1A26163  16.795  10.176   8.758
 1720POPC   D2A26164  16.433  10.218   8.462
 1720POPC   C3A26165  16.619  10.347   8.073
 1720POPC   C4A26166  16.529  10.695   7.822
 1720POPC   C1B26167  17.254  10.439   8.677
 1720POPC   C2B26168  16.920  10.621   8.436
 1720POPC   C3B26169  16.978  10.732   8.022
 1720POPC   C4B26170  17.163  10.328   7.953
 1721POPC   NC326171  15.586  12.020   9.849
 1721POPC   PO426172  16.160  11.936   9.522
 1721POPC   GL126173  16.095  12.124   9.127
 1721POPC   GL226174  15.763  12.118   9.065
 1721POPC   C1A26175  16.096  12.127   8.676
 1721POPC   D2A26176  15.782  12.174   8.405
 1721POPC   C3A26177  15.794  11.987   8.045
 1721POPC   C4A26178  16.005  12.032   7.694
 1721POPC   C1B26179  15.665  11.787   8.769
 1721POPC   C2B26180  15.498  11.647   8.386
 1721POPC   C3B26181  15.569  11.543   7.957
 1721POPC   C4B26182  15.646  11.662   7.537
 1722POPC   NC326183  17.424  25.800   9.470
 1722POPC   PO426184  17.118  26.399   9.573
 1722POPC   GL126185  17.358  26.253   9.165
 1722POPC   GL226186  17.659  26.105   9.134
 1722POPC   C1A26187  17.314  25.962   8.761
 1722POPC   D2A26188  17.518  25.808   8.382
 1722POPC   C3A26189  17.392  25.994   7.986
 1722POPC   C4A26190  17.493  25.835   7.575
 1722POPC   C1B26191  17.820  25.824   8.807
 1722POPC   C2B26192  18.061  25.846   8.445
 1722POPC   C3B26193  17.918  25.890   8.017
 1722POPC   C4B26194  17.811  26.206   7.737
 1723POPC   NC326195  22.721  30.941   9.457
 1723POPC   PO426196  22.911  31.497   9.785
 1723POPC   GL126197  22.851  31.398   9.289
 1723POPC   GL226198  23.086  31.214   9.177
 1723POPC   C1A26199  22.751  31.354   8.822
 1723POPC   D2A26200  22.605  31.665   8.484
 1723POPC   C3A26201  22.849  31.669   8.086
 1723POPC   C4A26202  22.759  31.598   7.662
 1723POPC   C1B26203  23.258  31.209   8.808
 1723POPC   C2B26204  23.119  31.376   8.418
 1723POPC   C3B26205  23.322  31.474   8.026
 1723POPC   C4B26206  23.205  31.379   7.616
 1724POPC   NC326207  31.921  34.769   9.470
 1724POPC   PO426208  32.464  34.337   9.658
 1724POPC   GL126209  32.421  34.318   9.184
 1724POPC   GL226210  32.299  34.675   9.114
 1724POPC   C1A26211  32.226  34.345   8.746
 1724POPC   D2A26212  32.182  34.648   8.422
 1724POPC   C3A26213  32.266  34.487   8.017
 1724POPC   C4A26214  32.361  34.386   7.592
 1724POPC   C1B26215  31.958  34.865   8.832
 1724POPC   C2B26216  31.760  34.963   8.422
 1724POPC   C3B26217  31.944  34.903   8.031
 1724POPC   C4B26218  32.037  34.763   7.626
 1725POPC   NC326219  20.737  10.712   9.761
 1725POPC   PO426220  20.886  11.372   9.568
 1725POPC   GL126221  20.612  11.513   9.219
 1725POPC   GL226222  20.820  11.783   9.124
 1725POPC   C1A26223  20.595  11.295   8.802
 1725POPC   D2A26224  20.458  11.021   8.459
 1725POPC   C3A26225  20.621  11.129   8.050
 1725POPC   C4A26226  20.484  11.352   7.712
 1725POPC   C1B26227  20.892  11.709   8.752
 1725POPC   C2B26228  20.777  11.501   8.365
 1725POPC   C3B26229  20.776  11.679   7.975
 1725POPC   C4B26230  20.886  11.636   7.559
 1726POPC   NC326231  14.097  33.251   9.502
 1726POPC   PO426232  14.726  33.388   9.427
 1726POPC   GL126233  14.629  33.159   9.058
 1726POPC   GL226234  14.292  33.011   9.057
 1726POPC   C1A26235  14.595  33.128   8.611
 1726POPC   D2A26236  14.459  33.358   8.252
 1726POPC   C3A26237  14.605  33.138   7.886
 1726POPC   C4A26238  14.869  32.751   7.845
 1726POPC   C1B26239  14.083  33.131   8.643
 1726POPC   C2B26240  14.077  33.026   8.207
 1726POPC   C3B26241  14.109  33.298   7.862
 1726POPC   C4B26242  14.289  33.258   7.456
 1727POPC   NC326243   7.114  35.151   9.420
 1727POPC   PO426244   6.480  35.471   9.422
 1727POPC   GL126245   6.669  35.267   9.066
 1727POPC   GL226246   6.961  35.063   8.964
 1727POPC   C1A26247   6.668  35.290   8.614
 1727POPC   D2A26248   6.521  35.501   8.270
 1727POPC   C3A26249   6.516  35.404   7.847
 1727POPC   C4A26250   6.499  35.345   7.393
 1727POPC   C1B26251   7.050  35.535   8.853
 1727POPC   C2B26252   6.992  35.648   8.429
 1727POPC   C3B26253   6.991  35.379   8.065
 1727POPC   C4B26254   6.931  35.213   7.640
 1728POPC   NC326255  12.048  30.885   9.465
 1728POPC   PO426256  12.414  30.345   9.596
 1728POPC   GL126257  12.292  30.555   9.171
 1728POPC   GL226258  11.920  30.507   9.145
 1728POPC   C1A26259  12.181  30.871   8.823
 1728POPC   D2A26260  12.125  30.786   8.390
 1728POPC   C3A26261  11.888  31.058   8.114
 1728POPC   C4A26262  11.949  31.044   7.645
 1728POPC   C1B26263  12.004  30.397   8.712
 1728POPC   C2B26264  11.930  30.333   8.267
 1728POPC   C3B26265  11.945  30.580   7.886
 1728POPC   C4B26266  11.882  30.382   7.462
 1729POPC   NC326267  26.147  24.260   9.409
 1729POPC   PO426268  25.726  24.725   9.507
 1729POPC   GL126269  25.905  24.809   9.153
 1729POPC   GL226270  26.259  24.770   9.171
 1729POPC   C1A26271  25.833  24.721   8.758
 1729POPC   D2A26272  25.949  24.473   8.443
 1729POPC   C3A26273  25.884  24.696   8.105
 1729POPC   C4A26274  25.878  24.509   7.728
 1729POPC   C1B26275  26.325  24.564   8.779
 1729POPC   C2B26276  26.444  24.629   8.354
 1729POPC   C3B26277  26.311  24.411   8.030
 1729POPC   C4B26278  26.291  24.207   7.666
 1730POPC   NC326279   6.309  18.002   9.533
 1730POPC   PO426280   6.988  18.317   9.611
 1730POPC   GL126281   6.910  18.314   9.137
 1730POPC   GL226282   6.945  17.982   8.925
 1730POPC   C1A26283   6.833  18.409   8.676
 1730POPC   D2A26284   6.827  18.077   8.340
 1730POPC   C3A26285   6.728  18.258   7.931
 1730POPC   C4A26286   6.914  18.578   7.681
 1730POPC   C1B26287   6.496  18.003   8.753
 1730POPC   C2B26288   6.301  18.017   8.317
 1730POPC   C3B26289   6.365  17.913   7.851
 1730POPC   C4B26290   6.578  18.081   7.445
 1731POPC   NC326291  41.217  15.418   9.832
 1731POPC   PO426292  40.738  15.379   9.470
 1731POPC   GL126293  40.521  15.247   9.065
 1731POPC   GL226294  40.671  14.930   8.998
 1731POPC   C1A26295  40.474  15.191   8.601
 1731POPC   D2A26296  40.741  15.192   8.221
 1731POPC   C3A26297  40.680  15.151   7.764
 1731POPC   C4A26298  40.552  15.033   7.339
 1731POPC   C1B26299  40.949  14.930   8.616
 1731POPC   C2B26300  41.128  14.862   8.173
 1731POPC   C3B26301  41.198  15.092   7.780
 1731POPC   C4B26302  41.496  15.110   7.427
 1732POPC   NC326303  32.534  41.029   9.372
 1732POPC   PO426304  32.363  40.345   9.507
 1732POPC   GL126305  32.441  40.573   9.120
 1732POPC   GL226306  32.135  40.748   9.181
 1732POPC   C1A26307  32.440  40.819   8.699
 1732POPC   D2A26308  32.572  41.070   8.296
 1732POPC   C3A26309  32.583  40.854   7.887
 1732POPC   C4A26310  32.276  40.603   7.659
 1732POPC   C1B26311  31.945  40.979   8.856
 1732POPC   C2B26312  32.052  41.072   8.451
 1732POPC   C3B26313  32.118  40.816   8.119
 1732POPC   C4B26314  31.839  40.839   7.788
 1733POPC   NC326315  24.786  32.416   9.374
 1733POPC   PO426316  24.332  32.058   9.685
 1733POPC   GL126317  24.290  32.266   9.285
 1733POPC   GL226318  24.513  32.031   9.178
 1733POPC   C1A26319  24.372  32.376   8.832
 1733POPC   D2A26320  24.418  32.190   8.411
 1733POPC   C3A26321  24.387  32.338   7.984
 1733POPC   C4A26322  24.510  32.619   7.634
 1733POPC   C1B26323  24.655  31.819   8.838
 1733POPC   C2B26324  24.516  31.670   8.455
 1733POPC   C3B26325  24.573  31.847   8.052
 1733POPC   C4B26326  24.586  31.913   7.621
 1734POPC   NC326327   5.434  19.946   9.285
 1734POPC   PO426328   4.846  19.648   9.549
 1734POPC   GL126329   4.925  19.843   9.148
 1734POPC   GL226330   5.163  19.561   9.077
 1734POPC   C1A26331   5.043  20.087   8.742
 1734POPC   D2A26332   5.205  19.907   8.342
 1734POPC   C3A26333   5.143  20.018   7.933
 1734POPC   C4A26334   5.328  20.078   7.533
 1734POPC   C1B26335   4.990  19.585   8.700
 1734POPC   C2B26336   4.848  19.456   8.337
 1734POPC   C3B26337   4.930  19.557   7.954
 1734POPC   C4B26338   4.980  19.665   7.534
 1735POPC   NC326339  26.320   8.734   9.529
 1735POPC   PO426340  26.276   9.452   9.487
 1735POPC   GL126341  25.997   9.267   9.138
 1735POPC   GL226342  25.993   8.913   9.130
 1735POPC   C1A26343  25.933   9.156   8.666
 1735POPC   D2A26344  26.026   8.870   8.327
 1735POPC   C3A26345  25.841   8.929   7.935
 1735POPC   C4A26346  25.970   9.205   7.668
 1735POPC   C1B26347  26.293   8.795   8.782
 1735POPC   C2B26348  26.543   8.706   8.362
 1735POPC   C3B26349  26.406   8.774   7.928
 1735POPC   C4B26350  26.417   8.743   7.464
 1736POPC   NC326351  34.922  29.326   9.472
 1736POPC   PO426352  34.271  29.224   9.593
 1736POPC   GL126353  34.486  29.315   9.160
 1736POPC   GL226354  34.786  29.085   9.048
 1736POPC   C1A26355  34.547  29.405   8.700
 1736POPC   D2A26356  34.413  29.221   8.297
 1736POPC   C3A26357  34.396  29.289   7.833
 1736POPC   C4A26358  34.232  29.365   7.370
 1736POPC   C1B26359  34.855  28.997   8.605
 1736POPC   C2B26360  34.928  29.152   8.180
 1736POPC   C3B26361  34.931  28.948   7.785
 1736POPC   C4B26362  34.884  28.775   7.341
 1737POPC   NC326363  21.912  32.174   9.662
 1737POPC   PO426364  22.460  32.230   9.303
 1737POPC   GL126365  22.064  32.326   9.101
 1737POPC   GL226366  21.862  32.071   9.096
 1737POPC   C1A26367  21.893  32.357   8.645
 1737POPC   D2A26368  21.823  32.497   8.192
 1737POPC   C3A26369  22.041  32.237   7.927
 1737POPC   C4A26370  22.440  32.330   7.776
 1737POPC   C1B26371  22.195  31.939   8.768
 1737POPC   C2B26372  22.346  32.134   8.417
 1737POPC   C3B26373  22.394  31.905   8.079
 1737POPC   C4B26374  22.333  31.832   7.689
 1738POPC   NC326375  40.450  36.784   9.600
 1738POPC   PO426376  40.977  37.270   9.580
 1738POPC   GL126377  40.859  37.159   9.137
 1738POPC   GL226378  40.559  36.955   9.116
 1738POPC   C1A26379  40.894  36.952   8.738
 1738POPC   D2A26380  40.757  36.664   8.433
 1738POPC   C3A26381  40.901  36.805   8.111
 1738POPC   C4A26382  40.800  37.124   7.871
 1738POPC   C1B26383  40.448  36.667   8.834
 1738POPC   C2B26384  40.242  36.763   8.445
 1738POPC   C3B26385  40.390  36.697   8.020
 1738POPC   C4B26386  40.658  36.652   7.703
 1739POPC   NC326387  14.460   3.471   9.602
 1739POPC   PO426388  14.728   4.087   9.419
 1739POPC   GL126389  14.709   3.839   9.040
 1739POPC   GL226390  14.437   3.583   9.077
 1739POPC   C1A26391  14.795   3.803   8.582
 1739POPC   D2A26392  14.808   3.401   8.329
 1739POPC   C3A26393  14.533   3.430   8.021
 1739POPC   C4A26394  14.298   3.822   8.012
 1739POPC   C1B26395  14.401   3.435   8.632
 1739POPC   C2B26396  14.082   3.352   8.272
 1739POPC   C3B26397  14.061   3.387   7.816
 1739POPC   C4B26398  14.383   3.328   7.529
 1740POPC   NC326399  42.911   2.252   9.318
 1740POPC   PO426400  43.313   1.866   9.652
 1740POPC   GL126401  43.216   1.759   9.209
 1740POPC   GL226402  43.498   1.607   8.998
 1740POPC   C1A26403  42.909   1.697   8.861
 1740POPC   D2A26404  42.740   1.920   8.485
 1740POPC   C3A26405  42.969   1.815   8.101
 1740POPC   C4A26406  43.106   2.009   7.736
 1740POPC   C1B26407  43.334   1.801   8.602
 1740POPC   C2B26408  43.265   2.170   8.344
 1740POPC   C3B26409  43.457   2.282   7.964
 1740POPC   C4B26410  43.646   2.049   7.570
 1741POPC   NC326411  37.420  40.017   9.647
 1741POPC   PO426412  38.069  40.156   9.630
 1741POPC   GL126413  37.886  40.022   9.211
 1741POPC   GL226414  37.552  39.894   9.156
 1741POPC   C1A26415  37.711  40.199   8.792
 1741POPC   D2A26416  37.631  39.995   8.399
 1741POPC   C3A26417  37.908  39.923   8.102
 1741POPC   C4A26418  37.692  40.155   7.839
 1741POPC   C1B26419  37.769  39.691   8.772
 1741POPC   C2B26420  37.690  39.481   8.348
 1741POPC   C3B26421  37.580  39.571   7.915
 1741POPC   C4B26422  37.887  39.745   7.619
 1742POPC   NC326423  25.918  42.820   9.518
 1742POPC   PO426424  26.475  42.624   9.157
 1742POPC   GL126425  26.118  42.916   9.056
 1742POPC   GL226426  26.101  43.241   9.171
 1742POPC   C1A26427  25.772  43.077   8.769
 1742POPC   D2A26428  25.728  43.392   8.430
 1742POPC   C3A26429  25.818  43.227   8.024
 1742POPC   C4A26430  26.121  42.941   7.790
 1742POPC   C1B26431  26.194  43.354   8.733
 1742POPC   C2B26432  26.292  43.260   8.288
 1742POPC   C3B26433  26.266  43.429   7.850
 1742POPC   C4B26434  25.862  43.530   7.613
 1743POPC   NC326435  26.961  43.704   9.522
 1743POPC   PO426436  26.369  44.062   9.549
 1743POPC   GL126437  26.605  43.936   9.198
 1743POPC   GL226438  26.490  43.646   9.052
 1743POPC   C1A26439  26.783  43.988   8.762
 1743POPC   D2A26440  27.060  43.899   8.362
 1743POPC   C3A26441  26.891  43.903   7.915
 1743POPC   C4A26442  26.709  44.031   7.470
 1743POPC   C1B26443  26.668  43.506   8.638
 1743POPC   C2B26444  26.805  43.463   8.204
 1743POPC   C3B26445  26.916  43.410   7.762
 1743POPC   C4B26446  26.659  43.481   7.413
 1744POPC   NC326447  12.717  31.347   9.377
 1744POPC   PO426448  13.008  31.964   9.564
 1744POPC   GL126449  13.105  31.704   9.191
 1744POPC   GL226450  12.778  31.786   9.107
 1744POPC   C1A26451  13.019  31.440   8.796
 1744POPC   D2A26452  12.872  31.312   8.383
 1744POPC   C3A26453  13.156  31.420   8.067
 1744POPC   C4A26454  13.155  31.374   7.633
 1744POPC   C1B26455  12.593  31.822   8.723
 1744POPC   C2B26456  12.527  31.683   8.308
 1744POPC   C3B26457  12.670  31.493   7.902
 1744POPC   C4B26458  12.756  31.791   7.538
 1745POPC   NC326459  33.302  39.672   9.536
 1745POPC   PO426460  33.249  39.138   9.848
 1745POPC   GL126461  33.155  39.227   9.322
 1745POPC   GL226462  32.820  39.400   9.209
 1745POPC   C1A26463  33.210  39.403   8.875
 1745POPC   D2A26464  33.004  39.414   8.460
 1745POPC   C3A26465  33.151  39.097   8.179
 1745POPC   C4A26466  33.200  39.192   7.752
 1745POPC   C1B26467  32.786  39.061   8.903
 1745POPC   C2B26468  32.647  39.035   8.444
 1745POPC   C3B26469  32.684  39.211   8.004
 1745POPC   C4B26470  32.746  38.955   7.623
 1746POPC   NC326471  10.748  14.881   9.563
 1746POPC   PO426472  10.562  14.255   9.607
 1746POPC   GL126473  10.416  14.397   9.229
 1746POPC   GL226474  10.213  14.131   9.200
 1746POPC   C1A26475  10.597  14.410   8.846
 1746POPC   D2A26476  10.820  14.463   8.491
 1746POPC   C3A26477  10.741  14.291   8.100
 1746POPC   C4A26478  10.765  14.534   7.722
 1746POPC   C1B26479  10.131  14.179   8.810
 1746POPC   C2B26480  10.326  14.240   8.452
 1746POPC   C3B26481  10.197  14.156   8.088
 1746POPC   C4B26482  10.413  14.131   7.737
 1747POPC   NC326483   5.923  42.629   9.673
 1747POPC   PO426484   5.640  42.035   9.797
 1747POPC   GL126485   5.730  42.272   9.338
 1747POPC   GL226486   5.578  42.585   9.197
 1747POPC   C1A26487   5.985  42.416   8.941
 1747POPC   D2A26488   6.028  42.603   8.504
 1747POPC   C3A26489   6.046  42.335   8.100
 1747POPC   C4A26490   6.175  41.961   7.801
 1747POPC   C1B26491   5.537  42.527   8.711
 1747POPC   C2B26492   5.394  42.612   8.281
 1747POPC   C3B26493   5.565  42.455   7.862
 1747POPC   C4B26494   5.676  42.142   7.521
 1748POPC   NC326495   6.804  35.818   9.399
 1748POPC   PO426496   6.466  36.359   9.317
 1748POPC   GL126497   6.561  36.312   8.918
 1748POPC   GL226498   6.820  36.059   8.948
 1748POPC   C1A26499   6.366  36.477   8.562
 1748POPC   D2A26500   6.263  36.393   8.130
 1748POPC   C3A26501   6.600  36.352   7.814
 1748POPC   C4A26502   6.611  36.251   7.367
 1748POPC   C1B26503   6.571  35.778   8.741
 1748POPC   C2B26504   6.418  35.979   8.389
 1748POPC   C3B26505   6.361  35.908   7.953
 1748POPC   C4B26506   6.682  35.825   7.640
 1749POPC   NC326507   0.620  16.583   9.569
 1749POPC   PO426508   0.288  17.177   9.575
 1749POPC   GL126509   0.556  17.105   9.201
 1749POPC   GL226510   0.595  16.741   9.107
 1749POPC   C1A26511   0.728  17.095   8.764
 1749POPC   D2A26512   0.783  17.053   8.308
 1749POPC   C3A26513   0.435  16.911   8.094
 1749POPC   C4A26514   0.426  16.777   7.682
 1749POPC   C1B26515   0.763  16.474   8.803
 1749POPC   C2B26516   0.640  16.533   8.407
 1749POPC   C3B26517   0.751  16.518   8.015
 1749POPC   C4B26518   0.639  16.319   7.654
 1750POPC   NC326519   4.703   3.304   9.564
 1750POPC   PO426520   5.351   3.597   9.656
 1750POPC   GL126521   5.267   3.648   9.214
 1750POPC   GL226522   5.104   3.328   9.240
 1750POPC   C1A26523   5.185   3.799   8.806
 1750POPC   D2A26524   5.029   3.507   8.506
 1750POPC   C3A26525   5.104   3.586   8.095
 1750POPC   C4A26526   4.931   3.904   7.842
 1750POPC   C1B26527   4.979   3.145   8.861
 1750POPC   C2B26528   5.073   2.972   8.443
 1750POPC   C3B26529   5.037   3.075   8.009
 1750POPC   C4B26530   4.958   3.335   7.651
 1751POPC   NC326531  37.782  25.522   9.322
 1751POPC   PO426532  37.447  26.149   9.419
 1751POPC   GL126533  37.624  26.146   9.015
 1751POPC   GL226534  37.999  26.157   9.081
 1751POPC   C1A26535  37.676  25.808   8.700
 1751POPC   D2A26536  37.836  25.597   8.330
 1751POPC   C3A26537  37.620  25.716   7.930
 1751POPC   C4A26538  37.326  26.073   7.803
 1751POPC   C1B26539  38.305  26.303   8.766
 1751POPC   C2B26540  38.380  26.479   8.353
 1751POPC   C3B26541  38.165  26.460   7.973
 1751POPC   C4B26542  37.775  26.253   7.929
 1752POPC   NC326543  19.317   0.512   9.494
 1752POPC   PO426544  18.747   0.212   9.536
 1752POPC   GL126545  19.004   0.268   9.133
 1752POPC   GL226546  19.140   0.604   9.030
 1752POPC   C1A26547  18.816   0.349   8.710
 1752POPC   D2A26548  18.549   0.106   8.419
 1752POPC   C3A26549  18.668   0.208   7.972
 1752POPC   C4A26550  19.088   0.215   7.797
 1752POPC   C1B26551  19.397   0.565   8.631
 1752POPC   C2B26552  19.154   0.562   8.234
 1752POPC   C3B26553  19.169   0.726   7.804
 1752POPC   C4B26554  18.936   0.580   7.438
 1753POPC   NC326555   4.932  23.030   9.425
 1753POPC   PO426556   5.351  22.514   9.443
 1753POPC   GL126557   5.218  22.746   9.077
 1753POPC   GL226558   5.497  22.568   8.951
 1753POPC   C1A26559   5.082  23.050   8.738
 1753POPC   D2A26560   5.336  23.308   8.399
 1753POPC   C3A26561   5.205  23.215   7.948
 1753POPC   C4A26562   4.852  22.952   7.805
 1753POPC   C1B26563   5.523  22.844   8.640
 1753POPC   C2B26564   5.288  22.816   8.291
 1753POPC   C3B26565   5.281  22.702   7.891
 1753POPC   C4B26566   5.414  22.919   7.537
 1754POPC   NC326567  10.165  44.085   9.418
 1754POPC   PO426568   9.458  43.866   9.508
 1754POPC   GL126569   9.751  43.865   9.180
 1754POPC   GL226570   9.839  43.524   9.150
 1754POPC   C1A26571   9.961  43.843   8.771
 1754POPC   D2A26572  10.010  44.008   8.357
 1754POPC   C3A26573   9.589  44.073   8.193
 1754POPC   C4A26574   9.405  43.974   7.816
 1754POPC   C1B26575   9.515  43.570   8.812
 1754POPC   C2B26576   9.660  43.615   8.403
 1754POPC   C3B26577   9.542  43.518   7.999
 1754POPC   C4B26578   9.678  43.610   7.598
 1755POPC   NC326579  23.835  40.789   9.564
 1755POPC   PO426580  23.372  41.171   9.422
 1755POPC   GL126581  23.512  41.055   9.035
 1755POPC   GL226582  23.892  40.957   9.086
 1755POPC   C1A26583  23.354  40.874   8.634
 1755POPC   D2A26584  23.363  40.621   8.218
 1755POPC   C3A26585  23.732  40.681   7.916
 1755POPC   C4A26586  24.202  40.571   7.869
 1755POPC   C1B26587  23.883  41.186   8.708
 1755POPC   C2B26588  23.719  41.062   8.306
 1755POPC   C3B26589  23.627  41.222   7.917
 1755POPC   C4B26590  23.770  41.060   7.559
 1756POPC   NC326591  16.465   4.820   9.579
 1756POPC   PO426592  16.957   5.313   9.704
 1756POPC   GL126593  16.868   5.173   9.287
 1756POPC   GL226594  16.568   5.395   9.243
 1756POPC   C1A26595  16.796   4.971   8.882
 1756POPC   D2A26596  16.846   5.176   8.465
 1756POPC   C3A26597  16.885   4.884   8.152
 1756POPC   C4A26598  16.735   4.914   7.767
 1756POPC   C1B26599  16.415   5.306   8.831
 1756POPC   C2B26600  16.393   4.988   8.542
 1756POPC   C3B26601  16.355   4.938   8.120
 1756POPC   C4B26602  16.234   4.939   7.692
 1757POPC   NC326603  10.105  41.068   9.512
 1757POPC   PO426604   9.630  40.578   9.466
 1757POPC   GL126605   9.786  40.550   9.036
 1757POPC   GL226606  10.090  40.660   9.165
 1757POPC   C1A26607   9.669  40.693   8.596
 1757POPC   D2A26608   9.536  40.973   8.227
 1757POPC   C3A26609   9.711  40.761   7.886
 1757POPC   C4A26610   9.686  40.666   7.421
 1757POPC   C1B26611   9.970  41.014   8.882
 1757POPC   C2B26612  10.001  41.064   8.452
 1757POPC   C3B26613   9.989  41.181   8.022
 1757POPC   C4B26614   9.934  41.074   7.572
 1758POPC   NC326615  30.785  39.400   9.560
 1758POPC   PO426616  30.712  40.066   9.606
 1758POPC   GL126617  30.596  40.160   9.208
 1758POPC   GL226618  30.386  39.857   9.206
 1758POPC   C1A26619  30.751  40.253   8.820
 1758POPC   D2A26620  30.601  40.104   8.436
 1758POPC   C3A26621  30.770  40.252   8.070
 1758POPC   C4A26622  30.770  40.076   7.696
 1758POPC   C1B26623  30.695  39.733   8.898
 1758POPC   C2B26624  30.850  39.599   8.500
 1758POPC   C3B26625  30.689  39.753   8.080
 1758POPC   C4B26626  30.448  39.669   7.655
 1759POPC   NC326627  31.963  33.917   9.487
 1759POPC   PO426628  32.332  33.448   9.766
 1759POPC   GL126629  32.375  33.621   9.314
 1759POPC   GL226630  32.689  33.837   9.216
 1759POPC   C1A26631  32.252  33.817   8.874
 1759POPC   D2A26632  32.265  33.966   8.406
 1759POPC   C3A26633  32.086  33.838   7.988
 1759POPC   C4A26634  31.904  34.185   7.783
 1759POPC   C1B26635  32.647  33.465   8.910
 1759POPC   C2B26636  32.456  33.484   8.497
 1759POPC   C3B26637  32.546  33.651   8.090
 1759POPC   C4B26638  32.407  33.444   7.746
 1760POPC   NC326639  31.621  32.054   9.577
 1760POPC   PO426640  31.326  32.611   9.420
 1760POPC   GL126641  31.257  32.190   9.196
 1760POPC   GL226642  30.887  32.121   9.236
 1760POPC   C1A26643  31.516  32.021   8.842
 1760POPC   D2A26644  31.736  32.297   8.537
 1760POPC   C3A26645  31.568  32.300   8.125
 1760POPC   C4A26646  31.402  32.039   7.754
 1760POPC   C1B26647  30.920  32.381   8.851
 1760POPC   C2B26648  31.195  32.301   8.509
 1760POPC   C3B26649  31.079  32.304   8.079
 1760POPC   C4B26650  31.155  32.494   7.698
 1761POPC   NC326651   8.527  12.505   9.330
 1761POPC   PO426652   9.099  12.967   9.414
 1761POPC   GL126653   9.068  12.762   9.061
 1761POPC   GL226654   8.759  12.628   8.876
 1761POPC   C1A26655   9.070  12.980   8.693
 1761POPC   D2A26656   8.976  12.849   8.311
 1761POPC   C3A26657   9.009  13.075   7.960
 1761POPC   C4A26658   8.814  12.904   7.624
 1761POPC   C1B26659   9.159  12.454   8.662
 1761POPC   C2B26660   9.351  12.509   8.248
 1761POPC   C3B26661   9.146  12.577   7.833
 1761POPC   C4B26662   9.068  12.489   7.359
 1762POPC   NC326663  23.050  28.499   9.462
 1762POPC   PO426664  23.345  27.879   9.554
 1762POPC   GL126665  23.160  27.969   9.170
 1762POPC   GL226666  22.852  28.097   9.172
 1762POPC   C1A26667  23.119  28.249   8.787
 1762POPC   D2A26668  23.063  28.529   8.460
 1762POPC   C3A26669  23.151  28.351   8.110
 1762POPC   C4A26670  22.982  28.291   7.726
 1762POPC   C1B26671  22.602  28.194   8.824
 1762POPC   C2B26672  22.730  28.152   8.432
 1762POPC   C3B26673  22.636  28.375   8.084
 1762POPC   C4B26674  22.446  28.421   7.694
 1763POPC   NC326675  38.048  21.665   9.558
 1763POPC   PO426676  38.608  21.321   9.790
 1763POPC   GL126677  38.541  21.386   9.335
 1763POPC   GL226678  38.197  21.371   9.159
 1763POPC   C1A26679  38.590  21.453   8.883
 1763POPC   D2A26680  38.524  21.170   8.541
 1763POPC   C3A26681  38.395  21.339   8.123
 1763POPC   C4A26682  38.658  21.353   7.758
 1763POPC   C1B26683  38.116  21.607   8.778
 1763POPC   C2B26684  37.975  21.570   8.350
 1763POPC   C3B26685  38.118  21.738   7.926
 1763POPC   C4B26686  38.190  21.520   7.534
 1764POPC   NC326687  41.234  38.536   9.152
 1764POPC   PO426688  41.701  38.717   9.606
 1764POPC   GL126689  41.754  38.459   9.187
 1764POPC   GL226690  41.554  38.127   9.152
 1764POPC   C1A26691  41.720  38.632   8.721
 1764POPC   D2A26692  41.596  38.444   8.300
 1764POPC   C3A26693  41.651  38.663   7.896
 1764POPC   C4A26694  41.804  38.579   7.463
 1764POPC   C1B26695  41.833  38.124   8.762
 1764POPC   C2B26696  41.852  37.954   8.321
 1764POPC   C3B26697  41.736  38.123   7.895
 1764POPC   C4B26698  41.295  38.296   7.832
 1765POPC   NC326699  34.814  11.624   9.363
 1765POPC   PO426700  34.252  11.473   9.542
 1765POPC   GL126701  34.480  11.300   9.172
 1765POPC   GL226702  34.275  11.455   9.038
 1765POPC   C1A26703  34.692  11.399   8.765
 1765POPC   D2A26704  34.464  11.626   8.452
 1765POPC   C3A26705  34.690  11.652   8.076
 1765POPC   C4A26706  34.553  11.537   7.677
 1765POPC   C1B26707  34.167  11.282   8.744
 1765POPC   C2B26708  34.163  11.136   8.405
 1765POPC   C3B26709  34.292  11.312   8.072
 1765POPC   C4B26710  34.269  11.002   7.791
 1766POPC   NC326711  10.413   1.602   9.550
 1766POPC   PO426712  10.624   2.235   9.478
 1766POPC   GL126713  10.504   2.121   9.096
 1766POPC   GL226714  10.701   1.852   8.995
 1766POPC   C1A26715  10.347   2.014   8.696
 1766POPC   D2A26716  10.197   1.783   8.406
 1766POPC   C3A26717  10.272   1.917   8.004
 1766POPC   C4A26718  10.422   1.756   7.626
 1766POPC   C1B26719  10.889   1.649   8.633
 1766POPC   C2B26720  10.712   1.811   8.257
 1766POPC   C3B26721  10.760   2.058   7.887
 1766POPC   C4B26722  11.014   2.015   7.504
 1767POPC   NC326723  10.441  16.973   9.457
 1767POPC   PO426724  10.638  17.513   9.872
 1767POPC   GL126725  10.467  17.575   9.383
 1767POPC   GL226726  10.178  17.412   9.312
 1767POPC   C1A26727  10.589  17.530   8.882
 1767POPC   D2A26728  10.620  17.472   8.399
 1767POPC   C3A26729  10.667  17.646   7.960
 1767POPC   C4A26730  10.667  17.572   7.484
 1767POPC   C1B26731  10.097  17.371   8.882
 1767POPC   C2B26732  10.240  17.132   8.534
 1767POPC   C3B26733  10.199  17.282   8.135
 1767POPC   C4B26734  10.402  17.255   7.768
 1768POPC   NC326735  32.436  41.818   9.420
 1768POPC   PO426736  32.069  41.197   9.483
 1768POPC   GL126737  32.154  41.466   9.167
 1768POPC   GL226738  32.032  41.826   9.088
 1768POPC   C1A26739  32.257  41.434   8.771
 1768POPC   D2A26740  32.051  41.586   8.458
 1768POPC   C3A26741  32.287  41.494   8.116
 1768POPC   C4A26742  32.211  41.195   7.783
 1768POPC   C1B26743  32.373  41.951   8.789
 1768POPC   C2B26744  32.590  41.849   8.422
 1768POPC   C3B26745  32.557  41.972   8.001
 1768POPC   C4B26746  32.357  41.723   7.669
 1769POPC   NC326747  20.240  39.626   9.330
 1769POPC   PO426748  20.083  38.950   9.474
 1769POPC   GL126749  19.838  39.225   9.160
 1769POPC   GL226750  20.094  39.318   8.966
 1769POPC   C1A26751  19.658  39.338   8.706
 1769POPC   D2A26752  19.726  39.385   8.210
 1769POPC   C3A26753  19.723  39.064   7.843
 1769POPC   C4A26754  19.555  38.894   7.449
 1769POPC   C1B26755  20.371  39.416   8.661
 1769POPC   C2B26756  20.249  39.566   8.272
 1769POPC   C3B26757  20.161  39.290   7.936
 1769POPC   C4B26758  20.159  39.320   7.501
 1770POPC   NC326759  38.517  28.012   9.318
 1770POPC   PO426760  38.204  28.555   9.361
 1770POPC   GL126761  38.382  28.390   9.035
 1770POPC   GL226762  38.745  28.458   9.038
 1770POPC   C1A26763  38.493  28.276   8.639
 1770POPC   D2A26764  38.365  28.519   8.355
 1770POPC   C3A26765  38.402  28.361   8.004
 1770POPC   C4A26766  38.247  28.499   7.663
 1770POPC   C1B26767  38.963  28.488   8.668
 1770POPC   C2B26768  38.873  28.446   8.227
 1770POPC   C3B26769  38.874  28.471   7.775
 1770POPC   C4B26770  38.699  28.619   7.396
 1771POPC   NC326771  15.444   4.958   9.514
 1771POPC   PO426772  16.106   5.094   9.700
 1771POPC   GL126773  15.919   5.066   9.267
 1771POPC   GL226774  15.659   5.298   9.127
 1771POPC   C1A26775  15.966   5.016   8.806
 1771POPC   D2A26776  15.966   5.230   8.381
 1771POPC   C3A26777  15.833   5.080   7.968
 1771POPC   C4A26778  15.699   5.185   7.525
 1771POPC   C1B26779  15.532   5.249   8.691
 1771POPC   C2B26780  15.600   4.845   8.452
 1771POPC   C3B26781  15.627   4.614   8.052
 1771POPC   C4B26782  15.368   4.847   7.785
 1772POPC   NC326783   7.641  42.236   9.739
 1772POPC   PO426784   7.136  42.009   9.368
 1772POPC   GL126785   7.411  42.139   9.081
 1772POPC   GL226786   7.540  42.450   9.184
 1772POPC   C1A26787   7.312  42.342   8.701
 1772POPC   D2A26788   7.090  42.325   8.336
 1772POPC   C3A26789   7.295  42.472   8.004
 1772POPC   C4A26790   7.151  42.215   7.676
 1772POPC   C1B26791   7.709  42.624   8.804
 1772POPC   C2B26792   7.771  42.591   8.359
 1772POPC   C3B26793   7.864  42.717   7.954
 1772POPC   C4B26794   7.562  42.778   7.629
 1773POPC   NC326795  13.912  12.289   9.358
 1773POPC   PO426796  13.534  11.791   9.349
 1773POPC   GL126797  13.575  11.788   8.949
 1773POPC   GL226798  13.609  12.127   8.964
 1773POPC   C1A26799  13.617  11.928   8.503
 1773POPC   D2A26800  13.460  12.257   8.308
 1773POPC   C3A26801  13.515  12.095   7.950
 1773POPC   C4A26802  13.662  11.796   7.686
 1773POPC   C1B26803  13.833  12.374   8.702
 1773POPC   C2B26804  13.998  12.340   8.333
 1773POPC   C3B26805  13.847  12.515   8.011
 1773POPC   C4B26806  13.844  12.325   7.642
 1774POPC   NC326807  36.227   4.622   9.611
 1774POPC   PO426808  36.425   4.108   9.569
 1774POPC   GL126809  36.146   4.316   9.202
 1774POPC   GL226810  36.133   4.704   9.114
 1774POPC   C1A26811  35.960   4.360   8.765
 1774POPC   D2A26812  36.028   4.520   8.325
 1774POPC   C3A26813  35.827   4.312   7.965
 1774POPC   C4A26814  35.723   4.131   7.530
 1774POPC   C1B26815  36.000   4.878   8.717
 1774POPC   C2B26816  36.025   5.037   8.309
 1774POPC   C3B26817  36.201   4.824   7.946
 1774POPC   C4B26818  36.344   4.410   7.892
 1775POPC   NC326819  40.490  23.599   9.592
 1775POPC   PO426820  40.890  23.839   9.100
 1775POPC   GL126821  40.737  23.646   8.770
 1775POPC   GL226822  40.427  23.739   8.895
 1775POPC   C1A26823  41.016  23.570   8.424
 1775POPC   D2A26824  41.280  23.487   8.067
 1775POPC   C3A26825  40.977  23.523   7.743
 1775POPC   C4A26826  40.650  23.597   7.411
 1775POPC   C1B26827  40.505  24.041   8.566
 1775POPC   C2B26828  40.543  23.758   8.279
 1775POPC   C3B26829  40.523  23.695   7.898
 1775POPC   C4B26830  40.797  23.997   7.704
 1776POPC   NC326831  26.395  26.403   9.412
 1776POPC   PO426832  25.881  26.506   9.873
 1776POPC   GL126833  25.933  26.151   9.396
 1776POPC   GL226834  26.180  25.913   9.301
 1776POPC   C1A26835  26.124  26.229   8.861
 1776POPC   D2A26836  26.280  26.428   8.450
 1776POPC   C3A26837  26.292  26.191   8.057
 1776POPC   C4A26838  26.175  26.078   7.634
 1776POPC   C1B26839  26.056  25.735   8.878
 1776POPC   C2B26840  26.198  25.821   8.430
 1776POPC   C3B26841  26.165  25.678   7.991
 1776POPC   C4B26842  25.887  25.655   7.625
 1777POPC   NC326843  42.322  36.809   9.514
 1777POPC   PO426844  42.624  37.284   9.179
 1777POPC   GL126845  42.265  36.967   9.034
 1777POPC   GL226846  42.090  36.619   9.082
 1777POPC   C1A26847  42.159  36.870   8.625
 1777POPC   D2A26848  42.434  37.086   8.386
 1777POPC   C3A26849  42.345  36.909   8.052
 1777POPC   C4A26850  42.534  36.876   7.690
 1777POPC   C1B26851  42.432  36.495   8.825
 1777POPC   C2B26852  42.596  36.579   8.415
 1777POPC   C3B26853  42.528  36.432   7.980
 1777POPC   C4B26854  42.136  36.537   7.781
 1778POPC   NC326855  12.030  44.449   9.638
 1778POPC   PO426856  11.920  44.977   9.268
 1778POPC   GL126857  12.221  44.776   9.081
 1778POPC   GL226858  12.137  44.463   9.148
 1778POPC   C1A26859  12.188  44.665   8.688
 1778POPC   D2A26860  11.998  44.526   8.395
 1778POPC   C3A26861  12.072  44.818   8.118
 1778POPC   C4A26862  12.086  44.787   7.702
 1778POPC   C1B26863  12.394  44.227   8.880
 1778POPC   C2B26864  12.455  44.274   8.429
 1778POPC   C3B26865  12.205  44.231   8.032
 1778POPC   C4B26866  12.304  44.349   7.613
 1779POPC   NC326867  38.346  36.420   9.710
 1779POPC   PO426868  38.732  35.954   9.473
 1779POPC   GL126869  38.456  36.183   9.181
 1779POPC   GL226870  38.495  36.550   9.218
 1779POPC   C1A26871  38.328  36.263   8.728
 1779POPC   D2A26872  38.433  36.081   8.292
 1779POPC   C3A26873  38.238  36.161   7.861
 1779POPC   C4A26874  38.269  35.975   7.378
 1779POPC   C1B26875  38.782  36.478   8.889
 1779POPC   C2B26876  38.753  36.462   8.465
 1779POPC   C3B26877  38.698  36.445   8.020
 1779POPC   C4B26878  38.705  36.135   7.701
 1780POPC   NC326879  16.220   0.952   9.343
 1780POPC   PO426880  15.712   1.304   9.439
 1780POPC   GL126881  15.865   1.298   9.032
 1780POPC   GL226882  16.216   1.320   8.991
 1780POPC   C1A26883  15.723   1.065   8.673
 1780POPC   D2A26884  15.913   0.864   8.313
 1780POPC   C3A26885  16.058   1.174   8.031
 1780POPC   C4A26886  15.771   1.304   7.717
 1780POPC   C1B26887  16.148   1.295   8.576
 1780POPC   C2B26888  15.989   1.583   8.341
 1780POPC   C3B26889  16.135   1.671   7.970
 1780POPC   C4B26890  16.270   1.538   7.641
 1781POPC   NC326891  35.474  11.164   9.510
 1781POPC   PO426892  34.815  10.990   9.407
 1781POPC   GL126893  35.115  11.276   9.124
 1781POPC   GL226894  35.504  11.417   9.085
 1781POPC   C1A26895  35.193  11.353   8.681
 1781POPC   D2A26896  35.162  11.598   8.313
 1781POPC   C3A26897  35.181  11.353   7.940
 1781POPC   C4A26898  34.973  11.290   7.529
 1781POPC   C1B26899  35.714  11.284   8.759
 1781POPC   C2B26900  35.572  11.260   8.343
 1781POPC   C3B26901  35.693  11.356   7.944
 1781POPC   C4B26902  35.825  11.241   7.565
 1782POPC   NC326903  27.954  37.665   9.589
 1782POPC   PO426904  28.537  37.779   9.623
 1782POPC   GL126905  28.304  37.735   9.215
 1782POPC   GL226906  28.157  38.061   9.196
 1782POPC   C1A26907  28.115  37.736   8.794
 1782POPC   D2A26908  28.099  37.513   8.397
 1782POPC   C3A26909  28.234  37.725   8.007
 1782POPC   C4A26910  28.309  37.554   7.627
 1782POPC   C1B26911  28.447  38.111   8.824
 1782POPC   C2B26912  28.463  37.908   8.422
 1782POPC   C3B26913  28.708  37.940   8.012
 1782POPC   C4B26914  28.532  38.048   7.593
 1783POPC   NC326915   7.247  33.404   9.451
 1783POPC   PO426916   7.559  34.060   9.539
 1783POPC   GL126917   7.520  33.794   9.200
 1783POPC   GL226918   7.680  33.463   9.186
 1783POPC   C1A26919   7.338  33.708   8.803
 1783POPC   D2A26920   7.411  33.561   8.415
 1783POPC   C3A26921   7.140  33.682   8.107
 1783POPC   C4A26922   7.349  33.882   7.774
 1783POPC   C1B26923   7.835  33.618   8.822
 1783POPC   C2B26924   7.749  33.963   8.555
 1783POPC   C3B26925   7.741  33.854   8.131
 1783POPC   C4B26926   7.779  33.639   7.732
 1784POPC   NC326927  36.151   5.582   9.339
 1784POPC   PO426928  35.983   5.003   9.524
 1784POPC   GL126929  35.893   5.198   9.110
 1784POPC   GL226930  36.225   5.244   8.973
 1784POPC   C1A26931  35.773   5.352   8.676
 1784POPC   D2A26932  35.624   5.351   8.212
 1784POPC   C3A26933  35.947   5.277   7.867
 1784POPC   C4A26934  36.128   5.067   7.502
 1784POPC   C1B26935  36.418   5.230   8.567
 1784POPC   C2B26936  36.456   5.221   8.097
 1784POPC   C3B26937  36.598   5.128   7.675
 1784POPC   C4B26938  36.554   5.289   7.225
 1785POPC   NC326939  43.505  38.612   9.395
 1785POPC   PO426940  43.094  38.096   9.523
 1785POPC   GL126941  42.957  38.183   9.125
 1785POPC   GL226942  43.238  38.372   8.991
 1785POPC   C1A26943  42.725  38.391   8.785
 1785POPC   D2A26944  42.978  38.556   8.464
 1785POPC   C3A26945  43.034  38.274   8.129
 1785POPC   C4A26946  43.090  38.486   7.759
 1785POPC   C1B26947  43.442  38.659   8.667
 1785POPC   C2B26948  43.503  38.479   8.259
 1785POPC   C3B26949  43.585  38.516   7.847
 1785POPC   C4B26950  43.512  38.682   7.447
 1786POPC   NC326951   0.425  15.821   9.580
 1786POPC   PO426952   0.193  16.451   9.457
 1786POPC   GL126953   0.546  16.206   9.228
 1786POPC   GL226954   0.333  16.255   8.973
 1786POPC   C1A26955   0.711  15.960   8.840
 1786POPC   D2A26956   0.803  16.037   8.393
 1786POPC   C3A26957   0.543  15.988   8.041
 1786POPC   C4A26958   0.183  15.917   7.784
 1786POPC   C1B26959   0.245  16.627   8.762
 1786POPC   C2B26960   0.111  16.625   8.362
 1786POPC   C3B26961   0.242  16.400   8.006
 1786POPC   C4B26962   0.084  16.386   7.579
 1787POPC   NC326963   7.599  17.096   9.641
 1787POPC   PO426964   7.206  16.628   9.460
 1787POPC   GL126965   7.434  16.856   9.166
 1787POPC   GL226966   7.598  16.541   9.129
 1787POPC   C1A26967   7.216  16.808   8.762
 1787POPC   D2A26968   7.100  16.427   8.536
 1787POPC   C3A26969   7.147  16.439   8.089
 1787POPC   C4A26970   7.244  16.851   7.908
 1787POPC   C1B26971   7.714  16.713   8.741
 1787POPC   C2B26972   7.530  16.672   8.348
 1787POPC   C3B26973   7.643  16.526   7.945
 1787POPC   C4B26974   7.734  16.893   7.716
 1788POPC   NC326975   1.553   2.568   9.390
 1788POPC   PO426976   1.344   3.225   9.460
 1788POPC   GL126977   1.282   2.910   9.148
 1788POPC   GL226978   1.019   2.640   9.119
 1788POPC   C1A26979   1.452   2.783   8.770
 1788POPC   D2A26980   1.330   2.621   8.403
 1788POPC   C3A26981   1.398   2.823   8.020
 1788POPC   C4A26982   1.230   2.636   7.663
 1788POPC   C1B26983   0.751   2.313   8.874
 1788POPC   C2B26984   0.831   2.166   8.450
 1788POPC   C3B26985   0.962   2.394   8.080
 1788POPC   C4B26986   0.786   2.374   7.668
 1789POPC   NC326987  17.314  36.481   9.858
 1789POPC   PO426988  17.589  36.992   9.493
 1789POPC   GL126989  17.432  36.784   9.178
 1789POPC   GL226990  17.271  36.444   9.215
 1789POPC   C1A26991  17.564  36.989   8.790
 1789POPC   D2A26992  17.585  37.212   8.403
 1789POPC   C3A26993  17.417  37.041   8.013
 1789POPC   C4A26994  17.468  37.201   7.616
 1789POPC   C1B26995  17.479  36.475   8.777
 1789POPC   C2B26996  17.618  36.685   8.377
 1789POPC   C3B26997  17.895  36.901   8.068
 1789POPC   C4B26998  17.873  36.921   7.633
 1790POPC   NC326999   3.066  34.880   9.724
 1790POPC   PO427000   3.564  34.567   9.435
 1790POPC   GL127001   3.760  34.367   9.077
 1790POPC   GL227002   3.446  34.228   8.993
 1790POPC   C1A27003   3.852  34.215   8.655
 1790POPC   D2A27004   3.607  34.162   8.288
 1790POPC   C3A27005   3.637  34.533   8.021
 1790POPC   C4A27006   3.943  34.617   7.721
 1790POPC   C1B27007   3.530  34.636   8.706
 1790POPC   C2B27008   3.459  34.934   8.327
 1790POPC   C3B27009   3.229  34.876   7.915
 1790POPC   C4B27010   3.159  35.127   7.534
 1791POPC   NC327011  19.317  28.600   9.558
 1791POPC   PO427012  18.698  28.371   9.448
 1791POPC   GL127013  19.014  28.438   9.153
 1791POPC   GL227014  19.152  28.099   9.080
 1791POPC   C1A27015  19.062  28.569   8.729
 1791POPC   D2A27016  19.250  28.263   8.450
 1791POPC   C3A27017  19.222  28.415   8.028
 1791POPC   C4A27018  19.354  28.148   7.711
 1791POPC   C1B27019  18.822  28.126   8.747
 1791POPC   C2B27020  18.766  28.310   8.309
 1791POPC   C3B27021  18.868  28.094   7.892
 1791POPC   C4B27022  18.802  28.002   7.435
 1792POPC   NC327023  26.665  27.501   9.681
 1792POPC   PO427024  27.072  28.044   9.799
 1792POPC   GL127025  27.062  27.813   9.347
 1792POPC   GL227026  26.918  27.457   9.240
 1792POPC   C1A27027  27.072  27.836   8.876
 1792POPC   D2A27028  26.838  27.906   8.463
 1792POPC   C3A27029  27.000  27.832   8.066
 1792POPC   C4A27030  26.916  27.912   7.680
 1792POPC   C1B27031  26.832  27.125   8.932
 1792POPC   C2B27032  26.837  27.109   8.515
 1792POPC   C3B27033  26.951  27.259   8.134
 1792POPC   C4B27034  26.766  27.432   7.798
 1793POPC   NC327035  25.855  11.905   9.497
 1793POPC   PO427036  26.396  12.347   9.655
 1793POPC   GL127037  26.212  12.210   9.243
 1793POPC   GL227038  26.495  12.182   9.018
 1793POPC   C1A27039  26.021  12.230   8.803
 1793POPC   D2A27040  25.950  11.977   8.410
 1793POPC   C3A27041  25.745  12.165   8.047
 1793POPC   C4A27042  25.860  12.003   7.631
 1793POPC   C1B27043  26.484  12.457   8.634
 1793POPC   C2B27044  26.173  12.433   8.293
 1793POPC   C3B27045  26.239  12.120   7.963
 1793POPC   C4B27046  26.346  12.212   7.542
 1794POPC   NC327047  17.302  38.974   9.622
 1794POPC   PO427048  17.685  39.557   9.762
 1794POPC   GL127049  17.509  39.344   9.305
 1794POPC   GL227050  17.403  38.986   9.128
 1794POPC   C1A27051  17.560  39.338   8.806
 1794POPC   D2A27052  17.387  39.178   8.384
 1794POPC   C3A27053  17.360  39.448   7.974
 1794POPC   C4A27054  17.630  39.445   7.579
 1794POPC   C1B27055  17.681  38.821   8.772
 1794POPC   C2B27056  17.751  38.806   8.310
 1794POPC   C3B27057  17.509  38.933   7.907
 1794POPC   C4B27058  17.615  38.821   7.459
 1795POPC   NC327059  14.473  12.664   9.459
 1795POPC   PO427060  14.419  13.271   9.396
 1795POPC   GL127061  14.345  12.995   9.048
 1795POPC   GL227062  14.141  12.674   9.065
 1795POPC   C1A27063  14.486  13.032   8.620
 1795POPC   D2A27064  14.394  13.186   8.219
 1795POPC   C3A27065  14.673  13.052   7.931
 1795POPC   C4A27066  14.729  12.672   7.722
 1795POPC   C1B27067  14.342  12.534   8.665
 1795POPC   C2B27068  14.408  12.662   8.207
 1795POPC   C3B27069  14.216  12.848   7.831
 1795POPC   C4B27070  14.146  12.668   7.428
 1796POPC   NC327071  11.148   1.034   9.626
 1796POPC   PO427072  10.800   1.494   9.300
 1796POPC   GL127073  11.216   1.468   9.177
 1796POPC   GL227074  11.313   1.109   9.126
 1796POPC   C1A27075  11.423   1.495   8.781
 1796POPC   D2A27076  11.495   1.191   8.451
 1796POPC   C3A27077  11.572   1.336   8.036
 1796POPC   C4A27078  11.245   1.227   7.780
 1796POPC   C1B27079  11.357   0.806   8.777
 1796POPC   C2B27080  11.651   0.698   8.447
 1796POPC   C3B27081  11.587   0.564   8.036
 1796POPC   C4B27082  11.566   0.841   7.674
 1797POPC   NC327083  22.837  12.843   9.605
 1797POPC   PO427084  23.143  12.364   9.363
 1797POPC   GL127085  23.022  12.757   9.135
 1797POPC   GL227086  23.028  13.154   9.252
 1797POPC   C1A27087  22.987  12.796   8.708
 1797POPC   D2A27088  23.190  12.715   8.312
 1797POPC   C3A27089  22.888  12.607   7.969
 1797POPC   C4A27090  22.827  12.623   7.497
 1797POPC   C1B27091  23.135  13.268   8.852
 1797POPC   C2B27092  22.986  13.225   8.420
 1797POPC   C3B27093  23.057  13.102   8.009
 1797POPC   C4B27094  22.919  13.122   7.616
 1798POPC   NC327095  15.260  27.214   9.723
 1798POPC   PO427096  15.108  27.793   9.403
 1798POPC   GL127097  15.240  27.608   9.056
 1798POPC   GL227098  15.356  27.295   9.196
 1798POPC   C1A27099  15.026  27.679   8.662
 1798POPC   D2A27100  14.872  27.411   8.326
 1798POPC   C3A27101  14.868  27.557   7.904
 1798POPC   C4A27102  14.714  27.897   7.676
 1798POPC   C1B27103  15.585  27.310   8.819
 1798POPC   C2B27104  15.418  27.448   8.441
 1798POPC   C3B27105  15.350  27.588   8.051
 1798POPC   C4B27106  15.289  27.387   7.675
 1799POPC   NC327107   5.811  11.967   9.972
 1799POPC   PO427108   5.592  12.291   9.401
 1799POPC   GL127109   5.906  12.168   9.010
 1799POPC   GL227110   5.853  11.814   8.890
 1799POPC   C1A27111   6.075  12.133   8.581
 1799POPC   D2A27112   6.047  12.347   8.238
 1799POPC   C3A27113   6.167  12.095   7.926
 1799POPC   C4A27114   6.030  12.075   7.514
 1799POPC   C1B27115   5.585  12.003   8.620
 1799POPC   C2B27116   5.637  12.018   8.186
 1799POPC   C3B27117   5.391  11.987   7.817
 1799POPC   C4B27118   5.351  11.949   7.354
 1800POPC   NC327119  33.993   9.425   9.416
 1800POPC   PO427120  33.705  10.021   9.663
 1800POPC   GL127121  33.710   9.899   9.212
 1800POPC   GL227122  33.701   9.564   9.032
 1800POPC   C1A27123  33.592   9.963   8.753
 1800POPC   D2A27124  33.706   9.641   8.471
 1800POPC   C3A27125  33.707   9.816   8.068
 1800POPC   C4A27126  33.684   9.520   7.752
 1800POPC   C1B27127  34.077   9.780   8.827
 1800POPC   C2B27128  34.114   9.966   8.406
 1800POPC   C3B27129  34.207   9.725   8.022
 1800POPC   C4B27130  34.153   9.672   7.586
 1801POPC   NC327131   4.828  13.952   9.483
 1801POPC   PO427132   4.984  13.306   9.441
 1801POPC   GL127133   5.042  13.644   9.120
 1801POPC   GL227134   4.815  13.931   8.981
 1801POPC   C1A27135   5.260  13.798   8.758
 1801POPC   D2A27136   5.247  13.600   8.374
 1801POPC   C3A27137   5.275  13.858   8.051
 1801POPC   C4A27138   5.392  13.737   7.698
 1801POPC   C1B27139   4.787  13.641   8.634
 1801POPC   C2B27140   4.778  13.755   8.217
 1801POPC   C3B27141   4.768  14.115   7.956
 1801POPC   C4B27142   4.952  13.964   7.609
 1802POPC   NC327143   9.839  17.548   9.701
 1802POPC   PO427144   9.969  16.968   9.456
 1802POPC   GL127145   9.678  17.249   9.194
 1802POPC   GL227146   9.728  17.635   9.205
 1802POPC   C1A27147   9.538  17.452   8.788
 1802POPC   D2A27148   9.778  17.415   8.418
 1802POPC   C3A27149   9.542  17.502   8.068
 1802POPC   C4A27150   9.518  17.731   7.712
 1802POPC   C1B27151   9.895  17.829   8.791
 1802POPC   C2B27152  10.177  17.751   8.427
 1802POPC   C3B27153  10.256  17.945   8.035
 1802POPC   C4B27154  10.079  17.646   7.775
 1803POPC   NC327155  43.577  44.949   9.574
 1803POPC   PO427156  44.121  44.587   9.617
 1803POPC   GL127157  43.972  44.768   9.199
 1803POPC   GL227158  43.595  44.703   9.132
 1803POPC   C1A27159  44.069  44.582   8.745
 1803POPC   D2A27160  44.268  44.594   8.300
 1803POPC   C3A27161  43.967  44.603   7.935
 1803POPC   C4A27162  43.763  44.298   7.630
 1803POPC   C1B27163  43.686  44.917   8.752
 1803POPC   C2B27164  43.663  44.725   8.353
 1803POPC   C3B27165  43.456  44.591   7.969
 1803POPC   C4B27166  43.599  44.765   7.578
 1804POPC   NC327167  18.764  24.698   9.478
 1804POPC   PO427168  19.361  24.257   9.465
 1804POPC   GL127169  19.214  24.389   9.066
 1804POPC   GL227170  19.264  24.718   9.086
 1804POPC   C1A27171  18.948  24.299   8.678
 1804POPC   D2A27172  18.663  24.537   8.395
 1804POPC   C3A27173  18.758  24.509   7.966
 1804POPC   C4A27174  18.820  24.316   7.554
 1804POPC   C1B27175  19.041  24.785   8.713
 1804POPC   C2B27176  19.102  24.772   8.260
 1804POPC   C3B27177  19.248  24.648   7.858
 1804POPC   C4B27178  19.210  24.604   7.382
 1805POPC   NC327179   9.205  35.506   9.659
 1805POPC   PO427180   9.852  35.460   9.429
 1805POPC   GL127181   9.706  35.626   9.057
 1805POPC   GL227182   9.548  35.381   8.830
 1805POPC   C1A27183   9.770  35.816   8.663
 1805POPC   D2A27184   9.868  35.502   8.395
 1805POPC   C3A27185   9.589  35.325   8.132
 1805POPC   C4A27186   9.725  35.500   7.762
 1805POPC   C1B27187   9.940  35.154   8.783
 1805POPC   C2B27188  10.090  34.872   8.445
 1805POPC   C3B27189  10.035  35.094   8.084
 1805POPC   C4B27190   9.889  35.000   7.682
 1806POPC   NC327191  26.577  11.942   9.493
 1806POPC   PO427192  27.145  12.285   9.567
 1806POPC   GL127193  26.988  12.115   9.152
 1806POPC   GL227194  26.868  11.793   9.108
 1806POPC   C1A27195  26.856  12.051   8.674
 1806POPC   D2A27196  27.001  12.057   8.275
 1806POPC   C3A27197  26.752  12.075   7.954
 1806POPC   C4A27198  26.737  11.874   7.597
 1806POPC   C1B27199  26.519  11.698   8.787
 1806POPC   C2B27200  26.460  11.859   8.365
 1806POPC   C3B27201  26.464  11.645   7.958
 1806POPC   C4B27202  26.262  11.702   7.545
 1807POPC   NC327203   4.425  42.039   9.500
 1807POPC   PO427204   4.632  42.662   9.357
 1807POPC   GL127205   4.533  42.344   9.117
 1807POPC   GL227206   4.812  42.091   9.164
 1807POPC   C1A27207   4.269  42.360   8.780
 1807POPC   D2A27208   4.281  42.676   8.465
 1807POPC   C3A27209   4.166  42.480   8.091
 1807POPC   C4A27210   4.248  42.361   7.683
 1807POPC   C1B27211   4.676  42.045   8.737
 1807POPC   C2B27212   4.522  42.212   8.362
 1807POPC   C3B27213   4.658  42.218   7.962
 1807POPC   C4B27214   4.885  42.122   7.571
 1808POPC   NC327215  13.308  39.151   9.489
 1808POPC   PO427216  13.710  39.638   9.311
 1808POPC   GL127217  13.535  39.327   9.065
 1808POPC   GL227218  13.613  38.957   9.082
 1808POPC   C1A27219  13.510  39.234   8.678
 1808POPC   D2A27220  13.746  39.167   8.356
 1808POPC   C3A27221  13.546  39.367   8.045
 1808POPC   C4A27222  13.697  39.239   7.672
 1808POPC   C1B27223  13.271  38.793   8.770
 1808POPC   C2B27224  13.217  38.969   8.337
 1808POPC   C3B27225  13.505  38.860   7.993
 1808POPC   C4B27226  13.396  38.811   7.575
 1809POPC   NC327227   2.876  17.843   9.756
 1809POPC   PO427228   2.686  18.449   9.466
 1809POPC   GL127229   2.990  18.197   9.226
 1809POPC   GL227230   2.965  18.445   9.021
 1809POPC   C1A27231   3.013  17.995   8.780
 1809POPC   D2A27232   2.725  17.900   8.360
 1809POPC   C3A27233   2.966  17.979   7.918
 1809POPC   C4A27234   2.992  17.971   7.434
 1809POPC   C1B27235   2.636  18.322   8.733
 1809POPC   C2B27236   2.768  18.392   8.320
 1809POPC   C3B27237   2.563  18.282   7.954
 1809POPC   C4B27238   2.750  18.408   7.555
 1810POPC   NC327239  30.576   5.481   9.518
 1810POPC   PO427240  30.714   4.817   9.588
 1810POPC   GL127241  30.790   4.995   9.176
 1810POPC   GL227242  30.696   5.319   9.058
 1810POPC   C1A27243  30.928   4.995   8.746
 1810POPC   D2A27244  30.746   5.136   8.360
 1810POPC   C3A27245  30.891   4.922   8.011
 1810POPC   C4A27246  30.806   4.887   7.594
 1810POPC   C1B27247  30.642   5.544   8.652
 1810POPC   C2B27248  30.338   5.544   8.338
 1810POPC   C3B27249  30.388   5.268   8.000
 1810POPC   C4B27250  30.531   5.313   7.586
 1811POPC   NC327251   2.670   0.478   9.601
 1811POPC   PO427252   2.870  44.833   9.460
 1811POPC   GL127253   2.966   0.196   9.188
 1811POPC   GL227254   2.918   0.573   9.177
 1811POPC   C1A27255   2.821   0.225   8.767
 1811POPC   D2A27256   2.531   0.381   8.505
 1811POPC   C3A27257   2.692   0.239   8.118
 1811POPC   C4A27258   2.557   0.385   7.747
 1811POPC   C1B27259   3.081   0.665   8.810
 1811POPC   C2B27260   2.978   0.623   8.389
 1811POPC   C3B27261   2.800   0.749   8.002
 1811POPC   C4B27262   3.029   0.534   7.683
 1812POPC   NC327263  23.185   0.112   9.698
 1812POPC   PO427264  22.830   0.640   9.544
 1812POPC   GL127265  22.950   0.368   9.157
 1812POPC   GL227266  23.197   0.064   9.187
 1812POPC   C1A27267  22.870   0.442   8.710
 1812POPC   D2A27268  22.585   0.263   8.426
 1812POPC   C3A27269  22.673   0.297   7.999
 1812POPC   C4A27270  22.953   0.511   7.757
 1812POPC   C1B27271  23.050  44.978   8.765
 1812POPC   C2B27272  23.064   0.145   8.317
 1812POPC   C3B27273  23.131   0.060   7.875
 1812POPC   C4B27274  22.957   0.108   7.436
 1813POPC   NC327275  37.991  42.932   9.436
 1813POPC   PO427276  38.694  42.797   9.498
 1813POPC   GL127277  38.683  42.604   9.102
 1813POPC   GL227278  38.352  42.790   9.006
 1813POPC   C1A27279  38.692  42.681   8.651
 1813POPC   D2A27280  38.387  42.858   8.368
 1813POPC   C3A27281  38.478  42.981   7.928
 1813POPC   C4A27282  38.446  42.779   7.509
 1813POPC   C1B27283  38.026  43.005   8.719
 1813POPC   C2B27284  37.938  43.113   8.272
 1813POPC   C3B27285  37.981  43.063   7.818
 1813POPC   C4B27286  38.056  43.055   7.353
 1814POPC   NC327287  12.438  43.611   9.855
 1814POPC   PO427288  12.960  43.872   9.475
 1814POPC   GL127289  12.861  43.934   9.055
 1814POPC   GL227290  13.219  43.859   8.980
 1814POPC   C1A27291  12.936  44.160   8.675
 1814POPC   D2A27292  13.066  44.043   8.269
 1814POPC   C3A27293  12.740  44.138   8.013
 1814POPC   C4A27294  12.554  43.937   7.718
 1814POPC   C1B27295  13.045  43.630   8.616
 1814POPC   C2B27296  13.272  43.475   8.243
 1814POPC   C3B27297  13.258  43.685   7.835
 1814POPC   C4B27298  13.191  44.116   7.749
 1815POPC   NC327299  44.279  21.377   9.713
 1815POPC   PO427300  43.663  21.268   9.470
 1815POPC   GL127301  43.964  21.412   9.213
 1815POPC   GL227302  44.085  21.085   9.117
 1815POPC   C1A27303  43.902  21.607   8.808
 1815POPC   D2A27304  43.940  21.832   8.402
 1815POPC   C3A27305  43.977  21.676   7.951
 1815POPC   C4A27306  44.119  21.623   7.469
 1815POPC   C1B27307  43.729  21.086   8.837
 1815POPC   C2B27308  43.489  21.164   8.471
 1815POPC   C3B27309  43.747  21.201   8.113
 1815POPC   C4B27310  43.794  21.275   7.692
 1816POPC   NC327311  44.478  41.865   9.820
 1816POPC   PO427312  44.903  42.210   9.426
 1816POPC   GL127313  44.680  42.450   9.107
 1816POPC   GL227314  44.281  42.417   9.209
 1816POPC   C1A27315  44.844  42.533   8.652
 1816POPC   D2A27316   0.083  42.681   8.267
 1816POPC   C3A27317  44.845  42.612   7.857
 1816POPC   C4A27318  44.894  42.468   7.423
 1816POPC   C1B27319  44.316  42.321   8.790
 1816POPC   C2B27320  44.417  42.077   8.477
 1816POPC   C3B27321  44.310  42.064   8.077
 1816POPC   C4B27322  44.447  42.278   7.712
 1817POPC   NC327323   8.720   1.798   9.431
 1817POPC   PO427324   9.030   2.429   9.537
 1817POPC   GL127325   8.999   2.172   9.153
 1817POPC   GL227326   8.695   2.295   9.053
 1817POPC   C1A27327   8.826   1.913   8.764
 1817POPC   D2A27328   8.738   1.670   8.407
 1817POPC   C3A27329   8.869   1.755   8.017
 1817POPC   C4A27330   8.750   2.012   7.722
 1817POPC   C1B27331   8.739   2.451   8.687
 1817POPC   C2B27332   9.034   2.304   8.387
 1817POPC   C3B27333   8.888   2.414   7.996
 1817POPC   C4B27334   8.622   2.503   7.653
 1818POPC   NC327335  34.754  20.734   9.813
 1818POPC   PO427336  34.310  20.276   9.492
 1818POPC   GL127337  34.523  20.413   9.035
 1818POPC   GL227338  34.658  20.769   9.089
 1818POPC   C1A27339  34.595  20.391   8.619
 1818POPC   D2A27340  34.369  20.405   8.245
 1818POPC   C3A27341  34.659  20.553   7.936
 1818POPC   C4A27342  34.872  20.413   7.586
 1818POPC   C1B27343  34.437  20.890   8.739
 1818POPC   C2B27344  34.554  20.883   8.327
 1818POPC   C3B27345  34.237  20.858   8.010
 1818POPC   C4B27346  34.273  20.684   7.620
 1819POPC   NC327347  40.766  24.662   9.551
 1819POPC   PO427348  40.833  23.992   9.588
 1819POPC   GL127349  40.878  24.383   9.117
 1819POPC   GL227350  40.582  24.661   9.095
 1819POPC   C1A27351  40.963  24.296   8.645
 1819POPC   D2A27352  40.876  24.141   8.214
 1819POPC   C3A27353  41.015  24.444   7.881
 1819POPC   C4A27354  40.992  24.693   7.481
 1819POPC   C1B27355  40.489  24.524   8.721
 1819POPC   C2B27356  40.631  24.574   8.308
 1819POPC   C3B27357  40.516  24.379   7.928
 1819POPC   C4B27358  40.187  24.442   7.692
 1820POPC   NC327359  37.023  10.234   9.388
 1820POPC   PO427360  36.773   9.651   9.598
 1820POPC   GL127361  36.943   9.536   9.209
 1820POPC   GL227362  37.127   9.818   9.075
 1820POPC   C1A27363  36.794   9.477   8.797
 1820POPC   D2A27364  36.960   9.584   8.399
 1820POPC   C3A27365  36.673   9.770   8.125
 1820POPC   C4A27366  36.792   9.565   7.733
 1820POPC   C1B27367  36.857   9.984   8.735
 1820POPC   C2B27368  37.022  10.084   8.332
 1820POPC   C3B27369  37.153   9.869   7.974
 1820POPC   C4B27370  37.314   9.908   7.566
 1821POPC   NC327371  44.917  36.600   9.457
 1821POPC   PO427372  44.682  37.190   9.546
 1821POPC   GL127373  44.560  36.897   9.192
 1821POPC   GL227374  44.255  37.004   9.013
 1821POPC   C1A27375  44.684  36.694   8.780
 1821POPC   D2A27376  44.610  36.548   8.301
 1821POPC   C3A27377  44.665  36.832   7.948
 1821POPC   C4A27378  44.919  36.796   7.582
 1821POPC   C1B27379  44.585  37.198   8.780
 1821POPC   C2B27380  44.719  37.056   8.415
 1821POPC   C3B27381   0.044  37.154   8.186
 1821POPC   C4B27382  44.878  37.300   7.820
 1822POPC   NC327383  17.099  42.134   9.852
 1822POPC   PO427384  16.842  42.667   9.452
 1822POPC   GL127385  16.707  42.478   9.083
 1822POPC   GL227386  16.523  42.198   9.065
 1822POPC   C1A27387  16.852  42.243   8.689
 1822POPC   D2A27388  16.710  41.958   8.373
 1822POPC   C3A27389  16.651  42.082   7.961
 1822POPC   C4A27390  16.776  41.992   7.528
 1822POPC   C1B27391  16.381  42.472   8.712
 1822POPC   C2B27392  16.302  42.329   8.310
 1822POPC   C3B27393  16.308  42.502   7.911
 1822POPC   C4B27394  16.638  42.455   7.606
 1823POPC   NC327395  42.194  23.504   9.385
 1823POPC   PO427396  42.450  24.175   9.512
 1823POPC   GL127397  42.436  23.892   9.138
 1823POPC   GL227398  42.080  23.804   8.993
 1823POPC   C1A27399  42.416  24.072   8.720
 1823POPC   D2A27400  42.647  24.192   8.368
 1823POPC   C3A27401  42.519  23.979   7.983
 1823POPC   C4A27402  42.458  23.783   7.573
 1823POPC   C1B27403  42.399  23.560   8.741
 1823POPC   C2B27404  42.621  23.620   8.347
 1823POPC   C3B27405  42.490  23.433   7.964
 1823POPC   C4B27406  42.135  23.139   7.964
 1824POPC   NC327407  15.869  14.756   9.590
 1824POPC   PO427408  15.800  15.401   9.535
 1824POPC   GL127409  15.928  15.084   9.208
 1824POPC   GL227410  16.271  14.961   9.232
 1824POPC   C1A27411  15.826  14.857   8.820
 1824POPC   D2A27412  15.929  14.710   8.398
 1824POPC   C3A27413  15.754  15.006   8.108
 1824POPC   C4A27414  15.524  15.057   7.760
 1824POPC   C1B27415  16.226  15.191   8.807
 1824POPC   C2B27416  16.120  15.239   8.367
 1824POPC   C3B27417  16.254  15.103   7.926
 1824POPC   C4B27418  16.145  15.148   7.477
 1825POPC   NC327419   2.962  13.416   9.591
 1825POPC   PO427420   2.467  13.680   9.459
 1825POPC   GL127421   2.855  13.679   9.150
 1825POPC   GL227422   3.056  13.368   9.085
 1825POPC   C1A27423   2.991  13.863   8.744
 1825POPC   D2A27424   2.991  13.741   8.299
 1825POPC   C3A27425   2.626  13.780   7.988
 1825POPC   C4A27426   2.475  13.713   7.546
 1825POPC   C1B27427   2.864  13.377   8.659
 1825POPC   C2B27428   2.701  13.318   8.229
 1825POPC   C3B27429   2.639  13.238   7.796
 1825POPC   C4B27430   2.811  13.207   7.374
 1826POPC   NC327431  35.770  18.934   9.593
 1826POPC   PO427432  36.347  18.887   9.596
 1826POPC   GL127433  36.131  19.060   9.231
 1826POPC   GL227434  35.877  18.825   9.090
 1826POPC   C1A27435  36.255  19.283   8.858
 1826POPC   D2A27436  36.472  19.116   8.519
 1826POPC   C3A27437  36.347  19.172   8.107
 1826POPC   C4A27438  36.498  19.138   7.697
 1826POPC   C1B27439  35.883  18.980   8.656
 1826POPC   C2B27440  35.906  19.340   8.395
 1826POPC   C3B27441  35.968  19.500   7.965
 1826POPC   C4B27442  35.988  19.162   7.678
 1827POPC   NC327443  26.130   0.846   9.812
 1827POPC   PO427444  25.959   1.437   9.810
 1827POPC   GL127445  26.018   1.317   9.372
 1827POPC   GL227446  26.273   1.499   9.230
 1827POPC   C1A27447  25.982   1.103   8.955
 1827POPC   D2A27448  26.062   0.991   8.515
 1827POPC   C3A27449  25.813   0.874   8.166
 1827POPC   C4A27450  26.036   1.054   7.866
 1827POPC   C1B27451  26.120   1.582   8.848
 1827POPC   C2B27452  26.207   1.503   8.443
 1827POPC   C3B27453  26.207   1.586   8.031
 1827POPC   C4B27454  25.965   1.526   7.697
 1828POPC   NC327455  32.801  40.252   9.326
 1828POPC   PO427456  33.350  40.119   9.679
 1828POPC   GL127457  33.322  40.092   9.217
 1828POPC   GL227458  33.082  39.843   9.114
 1828POPC   C1A27459  33.249  40.137   8.750
 1828POPC   D2A27460  33.244  39.894   8.362
 1828POPC   C3A27461  33.075  40.175   8.058
 1828POPC   C4A27462  33.131  40.107   7.648
 1828POPC   C1B27463  32.833  39.796   8.757
 1828POPC   C2B27464  32.718  39.852   8.316
 1828POPC   C3B27465  32.876  39.702   7.920
 1828POPC   C4B27466  32.797  39.471   7.538
 1829POPC   NC327467  39.861  43.592   9.435
 1829POPC   PO427468  40.026  44.175   9.649
 1829POPC   GL127469  40.187  43.996   9.238
 1829POPC   GL227470  40.120  43.696   9.008
 1829POPC   C1A27471  40.388  44.098   8.831
 1829POPC   D2A27472  40.224  43.961   8.420
 1829POPC   C3A27473  40.312  44.143   8.022
 1829POPC   C4A27474  40.078  44.145   7.596
 1829POPC   C1B27475  40.228  43.481   8.615
 1829POPC   C2B27476  40.001  43.514   8.210
 1829POPC   C3B27477  39.959  43.478   7.762
 1829POPC   C4B27478  40.264  43.365   7.416
 1830POPC   NC327479   8.788  13.285   9.545
 1830POPC   PO427480   9.195  13.716   9.335
 1830POPC   GL127481   9.046  13.379   9.086
 1830POPC   GL227482   8.729  13.521   9.105
 1830POPC   C1A27483   8.953  13.471   8.655
 1830POPC   D2A27484   8.938  13.716   8.310
 1830POPC   C3A27485   9.231  13.691   7.994
 1830POPC   C4A27486   9.237  13.415   7.667
 1830POPC   C1B27487   8.475  13.704   8.781
 1830POPC   C2B27488   8.370  13.874   8.399
 1830POPC   C3B27489   8.501  13.705   8.039
 1830POPC   C4B27490   8.445  13.834   7.634
 1831POPC   NC327491   6.990  27.634   9.753
 1831POPC   PO427492   6.480  27.444   9.656
 1831POPC   GL127493   6.452  27.411   9.186
 1831POPC   GL227494   6.632  27.693   9.007
 1831POPC   C1A27495   6.451  27.321   8.711
 1831POPC   D2A27496   6.530  27.531   8.304
 1831POPC   C3A27497   6.619  27.319   7.891
 1831POPC   C4A27498   6.611  27.488   7.455
 1831POPC   C1B27499   6.925  27.557   8.655
 1831POPC   C2B27500   7.011  27.560   8.193
 1831POPC   C3B27501   6.756  27.809   7.897
 1831POPC   C4B27502   6.913  27.951   7.503
 1832POPC   NC327503  37.985   8.985   9.622
 1832POPC   PO427504  37.292   8.796   9.584
 1832POPC   GL127505  37.595   8.892   9.289
 1832POPC   GL227506  37.445   8.657   9.078
 1832POPC   C1A27507  37.748   9.023   8.887
 1832POPC   D2A27508  37.769   8.913   8.447
 1832POPC   C3A27509  37.806   9.192   8.118
 1832POPC   C4A27510  37.619   9.166   7.718
 1832POPC   C1B27511  37.333   8.828   8.708
 1832POPC   C2B27512  37.287   8.684   8.332
 1832POPC   C3B27513  37.374   8.821   7.973
 1832POPC   C4B27514  37.097   8.628   7.751
 1833POPC   NC327515  26.803  31.063   9.641
 1833POPC   PO427516  26.903  31.695   9.652
 1833POPC   GL127517  26.783  31.458   9.272
 1833POPC   GL227518  26.922  31.133   9.161
 1833POPC   C1A27519  26.657  31.569   8.861
 1833POPC   D2A27520  26.813  31.478   8.461
 1833POPC   C3A27521  26.649  31.607   8.094
 1833POPC   C4A27522  26.856  31.608   7.721
 1833POPC   C1B27523  26.772  31.062   8.755
 1833POPC   C2B27524  26.960  31.003   8.354
 1833POPC   C3B27525  26.793  31.113   7.973
 1833POPC   C4B27526  26.998  31.164   7.592
 1834POPC   NC327527   3.091  32.228   9.461
 1834POPC   PO427528   2.411  32.389   9.477
 1834POPC   GL127529   2.692  32.324   9.078
 1834POPC   GL227530   2.959  32.058   9.030
 1834POPC   C1A27531   2.758  32.430   8.588
 1834POPC   D2A27532   2.494  32.657   8.255
 1834POPC   C3A27533   2.463  32.370   7.890
 1834POPC   C4A27534   2.673  32.181   7.505
 1834POPC   C1B27535   2.764  31.946   8.717
 1834POPC   C2B27536   2.959  32.022   8.341
 1834POPC   C3B27537   2.832  32.013   7.954
 1834POPC   C4B27538   3.049  31.827   7.637
 1835POPC   NC327539  38.790  42.378   9.645
 1835POPC   PO427540  38.456  41.826   9.514
 1835POPC   GL127541  38.493  42.125   9.193
 1835POPC   GL227542  38.184  42.331   9.148
 1835POPC   C1A27543  38.475  42.219   8.751
 1835POPC   D2A27544  38.346  42.262   8.344
 1835POPC   C3A27545  38.557  42.489   8.042
 1835POPC   C4A27546  38.507  42.303   7.665
 1835POPC   C1B27547  38.024  42.492   8.707
 1835POPC   C2B27548  37.961  42.589   8.240
 1835POPC   C3B27549  38.076  42.569   7.799
 1835POPC   C4B27550  38.052  42.532   7.329
 1836POPC   NC327551   5.781  23.837   9.562
 1836POPC   PO427552   5.343  23.274   9.432
 1836POPC   GL127553   5.666  23.452   9.126
 1836POPC   GL227554   5.933  23.726   9.079
 1836POPC   C1A27555   5.632  23.645   8.689
 1836POPC   D2A27556   5.847  23.798   8.327
 1836POPC   C3A27557   5.935  23.485   8.038
 1836POPC   C4A27558   5.625  23.447   7.714
 1836POPC   C1B27559   6.163  23.616   8.695
 1836POPC   C2B27560   6.351  23.691   8.294
 1836POPC   C3B27561   6.239  23.928   7.977
 1836POPC   C4B27562   5.924  23.867   7.695
 1837POPC   NC327563   0.112  33.468   9.407
 1837POPC   PO427564  44.573  33.897   9.550
 1837POPC   GL127565  44.728  33.925   9.162
 1837POPC   GL227566  44.735  33.574   9.051
 1837POPC   C1A27567  44.745  34.013   8.750
 1837POPC   D2A27568  44.609  33.770   8.403
 1837POPC   C3A27569  44.741  33.967   8.033
 1837POPC   C4A27570  44.707  33.890   7.626
 1837POPC   C1B27571  44.476  33.346   8.738
 1837POPC   C2B27572  44.306  33.353   8.317
 1837POPC   C3B27573  44.532  33.483   7.909
 1837POPC   C4B27574  44.766  33.421   7.478
 1838POPC   NC327575   4.714  10.669   9.572
 1838POPC   PO427576   4.033  10.378   9.526
 1838POPC   GL127577   4.309  10.634   9.260
 1838POPC   GL227578   4.188  10.839   8.999
 1838POPC   C1A27579   4.575  10.529   8.928
 1838POPC   D2A27580   4.536  10.522   8.486
 1838POPC   C3A27581   4.516  10.446   8.056
 1838POPC   C4A27582   4.793  10.234   7.811
 1838POPC   C1B27583   4.512  10.996   8.723
 1838POPC   C2B27584   4.616  10.985   8.286
 1838POPC   C3B27585   4.401  10.932   7.919
 1838POPC   C4B27586   4.283  10.877   7.516
 1839POPC   NC327587  19.185   6.939   9.351
 1839POPC   PO427588  19.154   6.285   9.492
 1839POPC   GL127589  18.933   6.531   9.202
 1839POPC   GL227590  19.248   6.535   9.024
 1839POPC   C1A27591  18.805   6.634   8.779
 1839POPC   D2A27592  18.996   6.574   8.374
 1839POPC   C3A27593  18.848   6.437   8.003
 1839POPC   C4A27594  18.837   6.662   7.634
 1839POPC   C1B27595  19.264   6.862   8.703
 1839POPC   C2B27596  19.250   7.004   8.286
 1839POPC   C3B27597  19.300   6.777   7.906
 1839POPC   C4B27598  19.700   6.818   7.647
 1840POPC   NC327599  18.116  39.473   9.919
 1840POPC   PO427600  18.538  39.091   9.638
 1840POPC   GL127601  18.353  39.235   9.206
 1840POPC   GL227602  17.966  39.150   9.109
 1840POPC   C1A27603  18.346  39.347   8.778
 1840POPC   D2A27604  18.052  39.321   8.430
 1840POPC   C3A27605  18.308  39.336   8.032
 1840POPC   C4A27606  18.478  39.069   7.687
 1840POPC   C1B27607  18.195  38.875   8.810
 1840POPC   C2B27608  18.405  38.959   8.408
 1840POPC   C3B27609  18.218  38.812   8.037
 1840POPC   C4B27610  17.966  39.083   7.753
 1841POPC   NC327611  27.498  30.987   9.616
 1841POPC   PO427612  27.727  30.331   9.422
 1841POPC   GL127613  27.718  30.723   9.190
 1841POPC   GL227614  27.363  30.836   9.156
 1841POPC   C1A27615  27.655  30.642   8.751
 1841POPC   D2A27616  27.543  30.354   8.401
 1841POPC   C3A27617  27.702  30.522   8.020
 1841POPC   C4A27618  27.813  30.833   7.749
 1841POPC   C1B27619  27.285  30.978   8.762
 1841POPC   C2B27620  27.477  30.900   8.330
 1841POPC   C3B27621  27.356  30.979   7.900
 1841POPC   C4B27622  27.450  31.047   7.434
 1842POPC   NC327623  44.254  35.259   9.566
 1842POPC   PO427624  44.900  35.516   9.473
 1842POPC   GL127625  44.767  35.306   9.102
 1842POPC   GL227626  44.413  35.236   9.070
 1842POPC   C1A27627  44.839  35.066   8.726
 1842POPC   D2A27628  44.895  35.301   8.342
 1842POPC   C3A27629  44.587  35.304   8.025
 1842POPC   C4A27630  44.601  35.109   7.639
 1842POPC   C1B27631  44.517  35.443   8.678
 1842POPC   C2B27632  44.289  35.582   8.342
 1842POPC   C3B27633  44.219  35.788   7.978
 1842POPC   C4B27634  44.364  35.554   7.631
 1843POPC   NC327635   5.025  16.611   9.805
 1843POPC   PO427636   5.050  15.906   9.516
 1843POPC   GL127637   4.921  16.107   9.104
 1843POPC   GL227638   4.618  16.313   9.088
 1843POPC   C1A27639   5.169  16.182   8.700
 1843POPC   D2A27640   5.343  16.394   8.375
 1843POPC   C3A27641   5.372  16.068   8.142
 1843POPC   C4A27642   5.395  15.926   7.758
 1843POPC   C1B27643   4.666  16.103   8.658
 1843POPC   C2B27644   4.671  16.197   8.233
 1843POPC   C3B27645   4.917  16.097   7.909
 1843POPC   C4B27646   4.913  15.762   7.690
 1844POPC   NC327647  39.796  24.996   9.557
 1844POPC   PO427648  40.217  24.454   9.425
 1844POPC   GL127649  40.045  24.467   9.083
 1844POPC   GL227650  39.802  24.698   9.148
 1844POPC   C1A27651  39.987  24.556   8.665
 1844POPC   D2A27652  40.118  24.491   8.256
 1844POPC   C3A27653  39.777  24.444   7.997
 1844POPC   C4A27654  39.668  24.484   7.586
 1844POPC   C1B27655  39.545  24.769   8.796
 1844POPC   C2B27656  39.622  24.779   8.365
 1844POPC   C3B27657  39.899  24.978   8.109
 1844POPC   C4B27658  40.037  24.926   7.697
 1845POPC   NC327659   0.517  18.686   9.388
 1845POPC   PO427660   0.188  19.163   9.669
 1845POPC   GL127661   0.242  19.060   9.206
 1845POPC   GL227662   0.536  19.252   9.045
 1845POPC   C1A27663   0.253  18.813   8.794
 1845POPC   D2A27664   0.569  18.933   8.476
 1845POPC   C3A27665   0.525  18.770   8.046
 1845POPC   C4A27666   0.198  18.753   7.725
 1845POPC   C1B27667   0.622  19.580   8.712
 1845POPC   C2B27668   0.454  19.599   8.294
 1845POPC   C3B27669   0.577  19.281   8.059
 1845POPC   C4B27670   0.718  19.297   7.676
 1846POPC   NC327671  42.389   6.035   9.471
 1846POPC   PO427672  41.850   5.636   9.418
 1846POPC   GL127673  42.013   5.925   9.103
 1846POPC   GL227674  42.380   5.827   9.022
 1846POPC   C1A27675  42.065   5.939   8.657
 1846POPC   D2A27676  42.385   5.775   8.403
 1846POPC   C3A27677  42.279   5.853   8.002
 1846POPC   C4A27678  42.071   5.579   7.741
 1846POPC   C1B27679  42.579   6.118   8.733
 1846POPC   C2B27680  42.597   6.228   8.268
 1846POPC   C3B27681  42.658   6.157   7.810
 1846POPC   C4B27682  42.782   6.188   7.356
 1847POPC   NC327683  34.142  21.140   9.295
 1847POPC   PO427684  34.577  21.426   9.731
 1847POPC   GL127685  34.674  21.291   9.293
 1847POPC   GL227686  34.838  21.598   9.201
 1847POPC   C1A27687  34.796  21.251   8.840
 1847POPC   D2A27688  34.631  21.407   8.450
 1847POPC   C3A27689  34.808  21.251   8.055
 1847POPC   C4A27690  34.538  21.150   7.711
 1847POPC   C1B27691  34.845  21.788   8.799
 1847POPC   C2B27692  34.754  21.905   8.378
 1847POPC   C3B27693  34.629  21.736   8.013
 1847POPC   C4B27694  34.814  21.639   7.657
 1848POPC   NC327695  16.446  36.759   9.409
 1848POPC   PO427696  17.033  36.814   9.708
 1848POPC   GL127697  16.908  36.966   9.271
 1848POPC   GL227698  17.125  37.193   9.102
 1848POPC   C1A27699  16.652  37.095   8.866
 1848POPC   D2A27700  16.567  36.827   8.468
 1848POPC   C3A27701  16.401  36.959   8.039
 1848POPC   C4A27702  16.628  36.722   7.709
 1848POPC   C1B27703  17.082  36.829   8.806
 1848POPC   C2B27704  17.085  37.025   8.421
 1848POPC   C3B27705  16.913  37.012   8.016
 1848POPC   C4B27706  17.042  36.946   7.563
 1849POPC   NC327707  25.463  25.764   9.642
 1849POPC   PO427708  25.109  25.216   9.585
 1849POPC   GL127709  25.060  25.244   9.149
 1849POPC   GL227710  25.176  25.581   9.173
 1849POPC   C1A27711  25.052  25.401   8.697
 1849POPC   D2A27712  25.213  25.495   8.277
 1849POPC   C3A27713  25.002  25.302   7.926
 1849POPC   C4A27714  25.144  25.054   7.593
 1849POPC   C1B27715  25.529  25.534   8.866
 1849POPC   C2B27716  25.703  25.651   8.468
 1849POPC   C3B27717  25.684  25.503   8.068
 1849POPC   C4B27718  25.420  25.472   7.724
 1850POPC   NC327719   1.509  36.477   9.457
 1850POPC   PO427720   0.962  36.077   9.416
 1850POPC   GL127721   1.052  35.950   9.028
 1850POPC   GL227722   1.438  35.990   9.029
 1850POPC   C1A27723   0.892  36.021   8.610
 1850POPC   D2A27724   1.106  36.330   8.342
 1850POPC   C3A27725   1.036  36.266   7.916
 1850POPC   C4A27726   0.783  35.896   7.789
 1850POPC   C1B27727   1.629  36.396   8.830
 1850POPC   C2B27728   1.741  36.464   8.422
 1850POPC   C3B27729   1.585  36.143   8.188
 1850POPC   C4B27730   1.499  36.096   7.781
 1851POPC   NC327731   3.440  44.110   9.447
 1851POPC   PO427732   3.750  43.507   9.470
 1851POPC   GL127733   3.477  43.671   9.177
 1851POPC   GL227734   3.565  43.930   8.976
 1851POPC   C1A27735   3.287  43.515   8.809
 1851POPC   D2A27736   3.058  43.616   8.456
 1851POPC   C3A27737   3.341  43.862   8.172
 1851POPC   C4A27738   3.336  43.821   7.702
 1851POPC   C1B27739   3.605  44.177   8.629
 1851POPC   C2B27740   3.701  44.274   8.252
 1851POPC   C3B27741   3.752  44.100   7.887
 1851POPC   C4B27742   3.994  44.033   7.544
 1852POPC   NC327743  40.520   9.118   9.522
 1852POPC   PO427744  41.141   8.702   9.493
 1852POPC   GL127745  41.018   8.813   9.090
 1852POPC   GL227746  40.659   8.812   9.149
 1852POPC   C1A27747  41.128   8.945   8.657
 1852POPC   D2A27748  40.898   8.798   8.272
 1852POPC   C3A27749  40.978   9.008   7.885
 1852POPC   C4A27750  41.067   9.275   7.524
 1852POPC   C1B27751  40.645   8.997   8.734
 1852POPC   C2B27752  40.523   9.218   8.408
 1852POPC   C3B27753  40.349   9.112   8.058
 1852POPC   C4B27754  40.504   8.745   7.843
 1853POPC   NC327755  17.795   4.489   9.441
 1853POPC   PO427756  17.546   3.861   9.494
 1853POPC   GL127757  17.559   4.143   9.145
 1853POPC   GL227758  17.873   4.149   8.979
 1853POPC   C1A27759  17.267   4.326   8.809
 1853POPC   D2A27760  17.137   4.692   8.578
 1853POPC   C3A27761  17.229   4.504   8.197
 1853POPC   C4A27762  17.423   4.275   7.855
 1853POPC   C1B27763  17.740   4.524   8.804
 1853POPC   C2B27764  17.655   4.654   8.422
 1853POPC   C3B27765  17.688   4.662   8.015
 1853POPC   C4B27766  17.913   4.413   7.734
 1854POPC   NC327767  42.884   7.481   9.304
 1854POPC   PO427768  43.427   7.548   9.691
 1854POPC   GL127769  43.430   7.528   9.197
 1854POPC   GL227770  43.233   7.239   9.034
 1854POPC   C1A27771  43.292   7.649   8.751
 1854POPC   D2A27772  42.951   7.602   8.441
 1854POPC   C3A27773  43.150   7.448   8.051
 1854POPC   C4A27774  43.200   7.508   7.621
 1854POPC   C1B27775  42.922   6.983   8.793
 1854POPC   C2B27776  42.683   6.994   8.398
 1854POPC   C3B27777  42.882   6.913   7.997
 1854POPC   C4B27778  42.917   7.095   7.611
 1855POPC   NC327779  28.982  31.100   9.489
 1855POPC   PO427780  29.299  31.662   9.227
 1855POPC   GL127781  29.092  31.505   8.983
 1855POPC   GL227782  29.000  31.200   9.002
 1855POPC   C1A27783  29.067  31.485   8.569
 1855POPC   D2A27784  29.060  31.740   8.257
 1855POPC   C3A27785  29.070  31.438   7.938
 1855POPC   C4A27786  28.948  31.497   7.524
 1855POPC   C1B27787  28.679  31.164   8.709
 1855POPC   C2B27788  28.763  31.097   8.253
 1855POPC   C3B27789  28.665  31.139   7.799
 1855POPC   C4B27790  28.718  31.107   7.317
 1856POPC   NC327791  38.418  16.295   9.602
 1856POPC   PO427792  38.134  15.743   9.600
 1856POPC   GL127793  38.307  15.905   9.220
 1856POPC   GL227794  38.091  16.129   9.142
 1856POPC   C1A27795  38.503  15.788   8.797
 1856POPC   D2A27796  38.771  15.864   8.411
 1856POPC   C3A27797  38.583  15.981   7.980
 1856POPC   C4A27798  38.616  15.860   7.548
 1856POPC   C1B27799  38.263  16.267   8.767
 1856POPC   C2B27800  38.443  16.268   8.367
 1856POPC   C3B27801  38.282  16.410   7.955
 1856POPC   C4B27802  38.490  16.356   7.547
 1857POPC   NC327803   1.381  39.585   9.471
 1857POPC   PO427804   1.149  38.952   9.630
 1857POPC   GL127805   1.214  39.126   9.230
 1857POPC   GL227806   1.556  39.017   9.176
 1857POPC   C1A27807   1.006  39.193   8.808
 1857POPC   D2A27808   1.154  39.137   8.365
 1857POPC   C3A27809   0.896  39.296   8.003
 1857POPC   C4A27810   0.909  39.170   7.542
 1857POPC   C1B27811   1.512  39.271   8.796
 1857POPC   C2B27812   1.634  39.379   8.358
 1857POPC   C3B27813   1.453  39.327   7.953
 1857POPC   C4B27814   1.201  39.562   7.677
 1858POPC   NC327815   4.131  42.709   9.369
 1858POPC   PO427816   4.441  43.213   9.693
 1858POPC   GL127817   4.443  43.162   9.245
 1858POPC   GL227818   4.122  43.231   9.210
 1858POPC   C1A27819   4.558  43.043   8.798
 1858POPC   D2A27820   4.458  43.142   8.361
 1858POPC   C3A27821   4.492  42.888   7.988
 1858POPC   C4A27822   4.486  43.116   7.612
 1858POPC   C1B27823   4.049  43.089   8.769
 1858POPC   C2B27824   3.962  43.272   8.369
 1858POPC   C3B27825   4.090  43.204   7.970
 1858POPC   C4B27826   4.003  42.823   7.751
 1859POPC   NC327827  20.412  36.963   9.548
 1859POPC   PO427828  19.984  37.319   9.368
 1859POPC   GL127829  20.176  36.962   9.100
 1859POPC   GL227830  20.456  37.090   8.945
 1859POPC   C1A27831  20.222  36.670   8.724
 1859POPC   D2A27832  20.393  36.455   8.316
 1859POPC   C3A27833  20.553  36.566   7.879
 1859POPC   C4A27834  20.759  36.873   7.596
 1859POPC   C1B27835  20.620  36.942   8.539
 1859POPC   C2B27836  20.667  37.005   8.097
 1859POPC   C3B27837  20.690  37.333   7.778
 1859POPC   C4B27838  20.876  37.316   7.322
 1860POPC   NC327839  36.285  23.265   9.661
 1860POPC   PO427840  35.786  23.555   9.537
 1860POPC   GL127841  36.076  23.416   9.196
 1860POPC   GL227842  36.362  23.655   9.129
 1860POPC   C1A27843  36.227  23.368   8.746
 1860POPC   D2A27844  36.464  23.483   8.372
 1860POPC   C3A27845  36.252  23.465   7.941
 1860POPC   C4A27846  35.860  23.350   7.665
 1860POPC   C1B27847  36.384  23.891   8.682
 1860POPC   C2B27848  36.501  23.949   8.200
 1860POPC   C3B27849  36.476  23.968   7.737
 1860POPC   C4B27850  36.615  24.005   7.260
 1861POPC   NC327851   4.630  17.518   9.660
 1861POPC   PO427852   3.990  17.550   9.706
 1861POPC   GL127853   4.133  17.595   9.254
 1861POPC   GL227854   4.490  17.667   9.173
 1861POPC   C1A27855   4.165  17.528   8.794
 1861POPC   D2A27856   4.172  17.611   8.351
 1861POPC   C3A27857   4.394  17.431   8.019
 1861POPC   C4A27858   4.330  17.399   7.613
 1861POPC   C1B27859   4.513  17.925   8.784
 1861POPC   C2B27860   4.306  18.117   8.429
 1861POPC   C3B27861   4.395  17.954   8.025
 1861POPC   C4B27862   4.646  17.777   7.689
 1862POPC   NC327863   2.576  22.410   9.459
 1862POPC   PO427864   2.405  21.841   9.393
 1862POPC   GL127865   2.735  22.040   9.123
 1862POPC   GL227866   2.548  21.916   8.876
 1862POPC   C1A27867   2.837  22.267   8.701
 1862POPC   D2A27868   2.696  22.078   8.312
 1862POPC   C3A27869   2.904  22.221   7.956
 1862POPC   C4A27870   3.284  22.100   7.790
 1862POPC   C1B27871   2.955  21.768   8.693
 1862POPC   C2B27872   2.904  21.602   8.284
 1862POPC   C3B27873   2.736  21.727   7.936
 1862POPC   C4B27874   2.442  22.053   7.785
 1863POPC   NC327875   3.448  11.977   9.410
 1863POPC   PO427876   4.045  11.943   9.656
 1863POPC   GL127877   3.922  11.972   9.206
 1863POPC   GL227878   3.774  11.704   9.053
 1863POPC   C1A27879   3.883  12.155   8.768
 1863POPC   D2A27880   3.784  12.038   8.336
 1863POPC   C3A27881   3.747  12.366   8.019
 1863POPC   C4A27882   3.445  12.555   7.733
 1863POPC   C1B27883   3.453  11.857   8.733
 1863POPC   C2B27884   3.271  12.004   8.317
 1863POPC   C3B27885   3.319  12.029   7.862
 1863POPC   C4B27886   3.186  11.767   7.511
 1864POPC   NC327887  21.755  31.127   9.275
 1864POPC   PO427888  21.687  31.779   9.456
 1864POPC   GL127889  21.452  31.552   9.126
 1864POPC   GL227890  21.119  31.658   9.084
 1864POPC   C1A27891  21.467  31.321   8.707
 1864POPC   D2A27892  21.646  31.466   8.302
 1864POPC   C3A27893  21.427  31.659   7.945
 1864POPC   C4A27894  21.610  31.349   7.700
 1864POPC   C1B27895  21.213  31.762   8.684
 1864POPC   C2B27896  21.134  31.527   8.352
 1864POPC   C3B27897  21.197  31.226   8.009
 1864POPC   C4B27898  21.113  31.367   7.586
 1865POPC   NC327899  42.794  38.547   9.454
 1865POPC   PO427900  42.233  38.161   9.459
 1865POPC   GL127901  42.256  38.583   9.225
 1865POPC   GL227902  42.541  38.785   9.097
 1865POPC   C1A27903  42.220  38.564   8.770
 1865POPC   D2A27904  42.257  38.259   8.464
 1865POPC   C3A27905  42.472  38.310   8.077
 1865POPC   C4A27906  42.144  38.461   7.821
 1865POPC   C1B27907  42.551  38.946   8.687
 1865POPC   C2B27908  42.534  38.744   8.304
 1865POPC   C3B27909  42.623  38.723   7.853
 1865POPC   C4B27910  42.722  38.690   7.419
 1866POPC   NC327911  13.425  31.759   9.614
 1866POPC   PO427912  13.889  31.324   9.541
 1866POPC   GL127913  13.546  31.388   9.260
 1866POPC   GL227914  13.652  31.693   9.169
 1866POPC   C1A27915  13.522  31.307   8.825
 1866POPC   D2A27916  13.818  31.255   8.487
 1866POPC   C3A27917  13.651  31.265   8.071
 1866POPC   C4A27918  13.812  31.082   7.720
 1866POPC   C1B27919  13.539  31.827   8.777
 1866POPC   C2B27920  13.495  31.641   8.399
 1866POPC   C3B27921  13.498  31.799   7.997
 1866POPC   C4B27922  13.633  31.618   7.654
 1867POPC   NC327923  42.622  17.605   9.488
 1867POPC   PO427924  41.951  17.360   9.427
 1867POPC   GL127925  42.175  17.369   9.076
 1867POPC   GL227926  42.508  17.275   9.119
 1867POPC   C1A27927  42.171  17.236   8.659
 1867POPC   D2A27928  41.977  17.025   8.321
 1867POPC   C3A27929  42.187  17.161   7.941
 1867POPC   C4A27930  42.158  17.587   7.752
 1867POPC   C1B27931  42.510  17.597   8.772
 1867POPC   C2B27932  42.636  17.536   8.361
 1867POPC   C3B27933  42.632  17.409   7.971
 1867POPC   C4B27934  42.669  17.664   7.632
 1868POPC   NC327935  21.027  10.155   9.546
 1868POPC   PO427936  20.729   9.564   9.457
 1868POPC   GL127937  20.630   9.691   9.064
 1868POPC   GL227938  20.677  10.066   9.058
 1868POPC   C1A27939  20.508   9.644   8.656
 1868POPC   D2A27940  20.534   9.924   8.316
 1868POPC   C3A27941  20.268   9.704   8.017
 1868POPC   C4A27942  20.457   9.480   7.689
 1868POPC   C1B27943  21.047  10.307   8.821
 1868POPC   C2B27944  21.117  10.409   8.391
 1868POPC   C3B27945  20.958  10.257   7.989
 1868POPC   C4B27946  20.691   9.907   7.819
 1869POPC   NC327947  42.190  41.065   9.556
 1869POPC   PO427948  42.409  40.382   9.464
 1869POPC   GL127949  42.484  40.746   9.210
 1869POPC   GL227950  42.137  40.822   9.123
 1869POPC   C1A27951  42.495  40.926   8.791
 1869POPC   D2A27952  42.263  40.869   8.434
 1869POPC   C3A27953  42.451  40.709   8.087
 1869POPC   C4A27954  42.370  40.809   7.695
 1869POPC   C1B27955  41.983  41.098   8.798
 1869POPC   C2B27956  41.776  41.141   8.402
 1869POPC   C3B27957  41.952  41.027   7.992
 1869POPC   C4B27958  41.979  41.063   7.529
 1870POPC   NC327959  34.225  33.034   9.723
 1870POPC   PO427960  34.688  32.996   9.173
 1870POPC   GL127961  34.633  33.272   8.879
 1870POPC   GL227962  34.956  33.401   8.962
 1870POPC   C1A27963  34.346  33.186   8.558
 1870POPC   D2A27964  34.314  33.157   8.148
 1870POPC   C3A27965  34.572  32.959   7.878
 1870POPC   C4A27966  34.373  33.080   7.542
 1870POPC   C1B27967  35.086  33.173   8.639
 1870POPC   C2B27968  34.803  33.156   8.312
 1870POPC   C3B27969  34.836  33.384   7.928
 1870POPC   C4B27970  34.809  33.323   7.476
 1871POPC   NC327971  21.524   8.612   9.298
 1871POPC   PO427972  21.668   9.269   9.429
 1871POPC   GL127973  21.570   9.109   9.071
 1871POPC   GL227974  21.906   9.105   9.001
 1871POPC   C1A27975  21.417   9.201   8.656
 1871POPC   D2A27976  21.291   9.350   8.210
 1871POPC   C3A27977  21.224   9.041   7.844
 1871POPC   C4A27978  20.932   8.652   7.793
 1871POPC   C1B27979  21.853   8.844   8.686
 1871POPC   C2B27980  21.625   8.926   8.298
 1871POPC   C3B27981  21.710   9.129   7.942
 1871POPC   C4B27982  21.729   8.708   7.750
 1872POPC   NC327983  23.038   7.341   9.592
 1872POPC   PO427984  22.618   7.701   9.545
 1872POPC   GL127985  22.797   7.572   9.149
 1872POPC   GL227986  23.068   7.336   9.058
 1872POPC   C1A27987  22.743   7.570   8.705
 1872POPC   D2A27988  22.549   7.571   8.293
 1872POPC   C3A27989  22.812   7.699   7.947
 1872POPC   C4A27990  22.990   7.923   7.586
 1872POPC   C1B27991  23.042   7.162   8.615
 1872POPC   C2B27992  22.868   7.192   8.190
 1872POPC   C3B27993  23.036   7.258   7.771
 1872POPC   C4B27994  23.364   7.047   7.534
 1873POPC   NC327995   9.592  33.150   9.246
 1873POPC   PO427996   8.981  33.101   9.612
 1873POPC   GL127997   9.029  32.974   9.207
 1873POPC   GL227998   9.267  32.703   9.235
 1873POPC   C1A27999   9.033  32.979   8.759
 1873POPC   D2A28000   8.934  33.215   8.405
 1873POPC   C3A28001   9.270  33.262   8.118
 1873POPC   C4A28002   9.124  33.298   7.708
 1873POPC   C1B28003   9.296  32.554   8.794
 1873POPC   C2B28004   9.089  32.604   8.385
 1873POPC   C3B28005   9.126  32.779   7.927
 1873POPC   C4B28006   9.346  32.884   7.497
 1874POPC   NC328007  28.973  31.779   9.536
 1874POPC   PO428008  28.947  32.379   9.568
 1874POPC   GL128009  29.053  32.127   9.177
 1874POPC   GL228010  29.382  32.173   9.109
 1874POPC   C1A28011  29.061  32.050   8.714
 1874POPC   D2A28012  29.054  32.349   8.355
 1874POPC   C3A28013  29.156  32.157   7.966
 1874POPC   C4A28014  29.446  31.789   7.884
 1874POPC   C1B28015  29.502  32.342   8.728
 1874POPC   C2B28016  29.572  32.222   8.292
 1874POPC   C3B28017  29.588  32.471   7.898
 1874POPC   C4B28018  29.718  32.615   7.475
 1875POPC   NC328019  38.257  18.396   9.496
 1875POPC   PO428020  38.347  17.852   9.092
 1875POPC   GL128021  38.615  18.154   8.923
 1875POPC   GL228022  38.685  18.394   9.188
 1875POPC   C1A28023  38.397  18.375   8.579
 1875POPC   D2A28024  38.130  18.311   8.223
 1875POPC   C3A28025  38.355  18.043   7.951
 1875POPC   C4A28026  38.321  17.929   7.519
 1875POPC   C1B28027  38.711  18.675   8.838
 1875POPC   C2B28028  38.818  18.603   8.373
 1875POPC   C3B28029  38.668  18.716   7.925
 1875POPC   C4B28030  38.360  18.450   7.646
 1876POPC   NC328031  10.425   0.750   9.520
 1876POPC   PO428032  10.668   1.282   9.779
 1876POPC   GL128033  10.414   1.195   9.275
 1876POPC   GL228034  10.098   1.291   9.116
 1876POPC   C1A28035  10.457   1.413   8.794
 1876POPC   D2A28036  10.486   1.352   8.366
 1876POPC   C3A28037  10.855   1.289   8.142
 1876POPC   C4A28038  10.867   1.568   7.790
 1876POPC   C1B28039  10.341   0.927   8.865
 1876POPC   C2B28040  10.526   0.861   8.466
 1876POPC   C3B28041  10.473   0.932   8.037
 1876POPC   C4B28042  10.371   1.301   7.839
 1877POPC   NC328043  16.646  26.418   9.604
 1877POPC   PO428044  16.975  25.931   9.295
 1877POPC   GL128045  16.559  25.937   9.115
 1877POPC   GL228046  16.473  26.206   8.946
 1877POPC   C1A28047  16.548  25.719   8.739
 1877POPC   D2A28048  16.476  25.843   8.299
 1877POPC   C3A28049  16.851  25.822   8.035
 1877POPC   C4A28050  17.003  25.901   7.625
 1877POPC   C1B28051  16.773  26.175   8.583
 1877POPC   C2B28052  17.016  26.288   8.219
 1877POPC   C3B28053  16.821  26.332   7.820
 1877POPC   C4B28054  16.813  26.293   7.357
 1878POPC   NC328055  25.435   0.375   9.603
 1878POPC   PO428056  25.128   0.952   9.431
 1878POPC   GL128057  25.197   0.547   9.130
 1878POPC   GL228058  25.440   0.237   9.125
 1878POPC   C1A28059  25.190   0.345   8.686
 1878POPC   D2A28060  25.464   0.579   8.395
 1878POPC   C3A28061  25.362   0.696   7.952
 1878POPC   C4A28062  25.434   0.533   7.513
 1878POPC   C1B28063  25.637   0.103   8.756
 1878POPC   C2B28064  25.525   0.065   8.364
 1878POPC   C3B28065  25.249   0.218   8.094
 1878POPC   C4B28066  25.314   0.074   7.721
 1879POPC   NC328067  16.555  33.087   9.294
 1879POPC   PO428068  17.099  32.793   9.389
 1879POPC   GL128069  16.946  32.937   9.005
 1879POPC   GL228070  17.160  32.812   8.758
 1879POPC   C1A28071  16.644  32.990   8.643
 1879POPC   D2A28072  16.845  33.019   8.234
 1879POPC   C3A28073  16.662  33.013   7.845
 1879POPC   C4A28074  16.486  32.948   7.445
 1879POPC   C1B28075  17.072  33.274   8.636
 1879POPC   C2B28076  17.154  33.523   8.255
 1879POPC   C3B28077  17.172  33.244   7.893
 1879POPC   C4B28078  17.118  32.864   7.623
 1880POPC   NC328079  31.300  38.027   9.286
 1880POPC   PO428080  31.732  37.819   9.769
 1880POPC   GL128081  31.758  37.582   9.293
 1880POPC   GL228082  31.497  37.311   9.204
 1880POPC   C1A28083  31.622  37.666   8.808
 1880POPC   D2A28084  31.561  38.099   8.577
 1880POPC   C3A28085  31.621  38.046   8.123
 1880POPC   C4A28086  31.226  37.930   7.859
 1880POPC   C1B28087  31.426  37.207   8.759
 1880POPC   C2B28088  31.678  37.378   8.394
 1880POPC   C3B28089  31.581  37.545   7.978
 1880POPC   C4B28090  31.190  37.401   7.728
 1881POPC   NC328091  13.139  12.750   9.794
 1881POPC   PO428092  12.877  12.536   9.234
 1881POPC   GL128093  12.544  12.640   9.032
 1881POPC   GL228094  12.549  12.949   9.228
 1881POPC   C1A28095  12.659  12.604   8.614
 1881POPC   D2A28096  12.961  12.781   8.378
 1881POPC   C3A28097  12.763  12.766   8.008
 1881POPC   C4A28098  12.782  12.636   7.604
 1881POPC   C1B28099  12.682  13.055   8.796
 1881POPC   C2B28100  12.566  13.123   8.363
 1881POPC   C3B28101  12.804  13.289   8.012
 1881POPC   C4B28102  12.632  13.121   7.639
 1882POPC   NC328103  27.657  27.596   9.662
 1882POPC   PO428104  27.596  28.096   9.259
 1882POPC   GL128105  27.682  27.698   9.119
 1882POPC   GL228106  27.435  27.453   9.202
 1882POPC   C1A28107  27.708  27.629   8.682
 1882POPC   D2A28108  27.686  27.822   8.253
 1882POPC   C3A28109  27.914  27.574   7.925
 1882POPC   C4A28110  27.906  27.565   7.447
 1882POPC   C1B28111  27.260  27.363   8.805
 1882POPC   C2B28112  27.247  27.591   8.426
 1882POPC   C3B28113  27.391  27.518   7.983
 1882POPC   C4B28114  27.219  27.281   7.686
 1883POPC   NC328115  36.138  28.278   9.430
 1883POPC   PO428116  35.577  28.427   9.464
 1883POPC   GL128117  35.763  28.403   9.032
 1883POPC   GL228118  36.097  28.565   8.943
 1883POPC   C1A28119  36.024  28.119   8.758
 1883POPC   D2A28120  36.363  28.280   8.481
 1883POPC   C3A28121  36.144  28.397   8.130
 1883POPC   C4A28122  35.910  28.171   7.789
 1883POPC   C1B28123  36.470  28.741   8.699
 1883POPC   C2B28124  36.712  28.666   8.329
 1883POPC   C3B28125  36.627  28.405   7.975
 1883POPC   C4B28126  36.313  28.452   7.667
 1884POPC   NC328127  34.677   1.975   9.670
 1884POPC   PO428128  34.147   2.059   9.608
 1884POPC   GL128129  34.338   1.913   9.215
 1884POPC   GL228130  34.679   2.010   9.114
 1884POPC   C1A28131  34.272   1.904   8.736
 1884POPC   D2A28132  34.136   1.767   8.294
 1884POPC   C3A28133  34.281   2.008   7.927
 1884POPC   C4A28134  34.445   2.186   7.534
 1884POPC   C1B28135  34.774   1.934   8.641
 1884POPC   C2B28136  34.674   1.784   8.202
 1884POPC   C3B28137  34.829   1.980   7.811
 1884POPC   C4B28138  34.894   1.893   7.361
 1885POPC   NC328139  35.794  11.801   9.408
 1885POPC   PO428140  36.455  11.977   9.342
 1885POPC   GL128141  36.117  12.023   9.097
 1885POPC   GL228142  36.096  12.361   8.991
 1885POPC   C1A28143  36.006  11.736   8.785
 1885POPC   D2A28144  36.231  11.891   8.458
 1885POPC   C3A28145  36.145  11.777   8.051
 1885POPC   C4A28146  36.267  12.006   7.705
 1885POPC   C1B28147  35.795  12.183   8.710
 1885POPC   C2B28148  35.849  12.207   8.306
 1885POPC   C3B28149  36.235  12.299   8.114
 1885POPC   C4B28150  36.225  12.518   7.749
 1886POPC   NC328151  13.166  38.270   9.376
 1886POPC   PO428152  12.473  38.270   9.500
 1886POPC   GL128153  12.709  38.396   9.115
 1886POPC   GL228154  12.905  38.721   9.160
 1886POPC   C1A28155  12.985  38.335   8.737
 1886POPC   D2A28156  13.131  38.033   8.412
 1886POPC   C3A28157  12.917  38.014   7.998
 1886POPC   C4A28158  12.713  38.307   7.727
 1886POPC   C1B28159  12.712  38.776   8.747
 1886POPC   C2B28160  12.817  38.637   8.331
 1886POPC   C3B28161  13.047  38.632   7.948
 1886POPC   C4B28162  12.881  38.770   7.561
 1887POPC   NC328163   0.867  43.673   9.415
 1887POPC   PO428164   1.467  44.003   9.472
 1887POPC   GL128165   1.355  44.240   9.100
 1887POPC   GL228166   1.029  44.108   9.141
 1887POPC   C1A28167   1.283  44.209   8.634
 1887POPC   D2A28168   1.221  43.877   8.301
 1887POPC   C3A28169   1.467  43.891   7.935
 1887POPC   C4A28170   1.313  44.154   7.624
 1887POPC   C1B28171   0.979  43.818   8.790
 1887POPC   C2B28172   0.667  43.631   8.528
 1887POPC   C3B28173   0.645  43.689   8.092
 1887POPC   C4B28174   0.950  43.784   7.764
 1888POPC   NC328175   7.985  10.399   9.854
 1888POPC   PO428176   8.307  10.874   9.450
 1888POPC   GL128177   8.234  10.661   9.110
 1888POPC   GL228178   8.537  10.481   9.147
 1888POPC   C1A28179   8.053  10.502   8.713
 1888POPC   D2A28180   7.865  10.685   8.351
 1888POPC   C3A28181   7.958  10.513   7.930
 1888POPC   C4A28182   7.800  10.697   7.564
 1888POPC   C1B28183   8.542  10.639   8.706
 1888POPC   C2B28184   8.377  10.581   8.266
 1888POPC   C3B28185   8.441  10.647   7.817
 1888POPC   C4B28186   8.545  10.275   7.543
 1889POPC   NC328187   5.360   3.149   9.729
 1889POPC   PO428188   4.752   2.799   9.600
 1889POPC   GL128189   5.044   2.786   9.250
 1889POPC   GL228190   5.389   2.672   9.173
 1889POPC   C1A28191   4.955   2.639   8.841
 1889POPC   D2A28192   4.753   2.479   8.474
 1889POPC   C3A28193   5.008   2.415   8.139
 1889POPC   C4A28194   4.904   2.633   7.793
 1889POPC   C1B28195   5.455   2.835   8.767
 1889POPC   C2B28196   5.580   2.876   8.323
 1889POPC   C3B28197   5.418   2.713   7.920
 1889POPC   C4B28198   5.296   2.322   7.697
 1890POPC   NC328199  27.683  43.706   9.624
 1890POPC   PO428200  27.242  44.183   9.487
 1890POPC   GL128201  27.516  43.980   9.177
 1890POPC   GL228202  27.740  43.680   9.130
 1890POPC   C1A28203  27.355  43.816   8.787
 1890POPC   D2A28204  27.490  43.599   8.408
 1890POPC   C3A28205  27.368  43.662   7.958
 1890POPC   C4A28206  27.295  43.956   7.592
 1890POPC   C1B28207  27.874  43.854   8.739
 1890POPC   C2B28208  28.041  43.971   8.346
 1890POPC   C3B28209  27.894  43.701   8.043
 1890POPC   C4B28210  27.797  43.782   7.637
 1891POPC   NC328211  28.063   5.667   9.509
 1891POPC   PO428212  28.609   6.091   9.407
 1891POPC   GL128213  28.297   5.977   9.118
 1891POPC   GL228214  28.302   5.607   9.064
 1891POPC   C1A28215  28.248   5.979   8.671
 1891POPC   D2A28216  28.309   5.838   8.251
 1891POPC   C3A28217  28.421   6.087   7.915
 1891POPC   C4A28218  28.302   6.060   7.491
 1891POPC   C1B28219  28.340   5.464   8.631
 1891POPC   C2B28220  28.569   5.362   8.273
 1891POPC   C3B28221  28.615   5.572   7.876
 1891POPC   C4B28222  28.493   5.583   7.405
 1892POPC   NC328223  11.511  32.143   9.928
 1892POPC   PO428224  12.116  32.174   9.690
 1892POPC   GL128225  12.097  32.329   9.263
 1892POPC   GL228226  12.342  32.049   9.202
 1892POPC   C1A28227  11.813  32.455   8.887
 1892POPC   D2A28228  11.585  32.495   8.477
 1892POPC   C3A28229  11.824  32.492   8.095
 1892POPC   C4A28230  11.912  32.141   7.789
 1892POPC   C1B28231  12.137  32.067   8.815
 1892POPC   C2B28232  12.133  32.337   8.489
 1892POPC   C3B28233  12.168  32.067   8.209
 1892POPC   C4B28234  12.373  31.899   7.886
 1893POPC   NC328235   0.065  34.999   9.383
 1893POPC   PO428236   0.579  35.365   9.551
 1893POPC   GL128237   0.346  35.515   9.200
 1893POPC   GL228238   0.566  35.796   9.171
 1893POPC   C1A28239   0.181  35.439   8.806
 1893POPC   D2A28240   0.408  35.435   8.421
 1893POPC   C3A28241   0.319  35.164   8.089
 1893POPC   C4A28242   0.041  35.319   7.801
 1893POPC   C1B28243   0.758  35.519   8.830
 1893POPC   C2B28244   0.904  35.414   8.400
 1893POPC   C3B28245   0.752  35.428   7.996
 1893POPC   C4B28246   0.736  35.051   7.771
 1894POPC   NC328247   9.795   4.244   9.451
 1894POPC   PO428248  10.357   3.914   9.462
 1894POPC   GL128249  10.048   4.050   9.060
 1894POPC   GL228250   9.858   4.425   8.993
 1894POPC   C1A28251   9.706   3.999   8.720
 1894POPC   D2A28252   9.326   3.974   8.450
 1894POPC   C3A28253   9.409   4.022   8.006
 1894POPC   C4A28254   9.841   4.014   7.809
 1894POPC   C1B28255   9.615   4.485   8.610
 1894POPC   C2B28256   9.751   4.356   8.185
 1894POPC   C3B28257  10.035   4.509   7.820
 1894POPC   C4B28258   9.961   4.594   7.370
 1895POPC   NC328259   1.982   4.156   9.584
 1895POPC   PO428260   1.890   4.882   9.575
 1895POPC   GL128261   1.862   4.633   9.170
 1895POPC   GL228262   2.094   4.347   9.121
 1895POPC   C1A28263   1.755   4.414   8.756
 1895POPC   D2A28264   1.903   4.487   8.319
 1895POPC   C3A28265   1.993   4.229   7.988
 1895POPC   C4A28266   2.375   3.957   7.955
 1895POPC   C1B28267   2.264   4.450   8.704
 1895POPC   C2B28268   2.429   4.379   8.277
 1895POPC   C3B28269   2.314   4.645   7.977
 1895POPC   C4B28270   1.926   4.729   7.808
 1896POPC   NC328271  26.841  42.828   9.332
 1896POPC   PO428272  26.594  43.421   9.493
 1896POPC   GL128273  26.877  43.321   9.168
 1896POPC   GL228274  26.593  43.148   9.031
 1896POPC   C1A28275  27.058  43.193   8.776
 1896POPC   D2A28276  27.327  43.090   8.449
 1896POPC   C3A28277  27.186  43.050   8.024
 1896POPC   C4A28278  26.972  42.716   7.757
 1896POPC   C1B28279  26.562  42.988   8.647
 1896POPC   C2B28280  26.796  42.967   8.336
 1896POPC   C3B28281  26.618  43.035   7.954
 1896POPC   C4B28282  26.586  42.981   7.527
 1897POPC   NC328283  32.714  17.274   9.344
 1897POPC   PO428284  32.133  17.875   9.266
 1897POPC   GL128285  32.411  17.677   9.032
 1897POPC   GL228286  32.253  17.353   9.090
 1897POPC   C1A28287  32.407  17.844   8.593
 1897POPC   D2A28288  32.014  17.805   8.365
 1897POPC   C3A28289  31.991  17.645   7.971
 1897POPC   C4A28290  32.254  17.783   7.703
 1897POPC   C1B28291  32.168  17.389   8.630
 1897POPC   C2B28292  32.400  17.422   8.235
 1897POPC   C3B28293  32.556  17.248   7.835
 1897POPC   C4B28294  32.638  17.197   7.373
 1898POPC   NC328295  23.883  32.108   9.671
 1898POPC   PO428296  23.338  32.322   9.536
 1898POPC   GL128297  23.603  32.024   9.239
 1898POPC   GL228298  23.962  31.872   9.209
 1898POPC   C1A28299  23.697  32.073   8.805
 1898POPC   D2A28300  23.945  32.336   8.536
 1898POPC   C3A28301  23.866  32.339   8.109
 1898POPC   C4A28302  23.724  32.288   7.682
 1898POPC   C1B28303  24.163  31.915   8.783
 1898POPC   C2B28304  24.039  31.839   8.329
 1898POPC   C3B28305  24.101  31.937   7.873
 1898POPC   C4B28306  24.206  32.243   7.514
 1899POPC   NC328307  27.320  26.054   9.264
 1899POPC   PO428308  26.688  26.049   9.501
 1899POPC   GL128309  26.798  25.950   9.124
 1899POPC   GL228310  26.867  25.627   9.024
 1899POPC   C1A28311  26.561  25.971   8.781
 1899POPC   D2A28312  26.681  26.104   8.409
 1899POPC   C3A28313  26.645  25.816   8.108
 1899POPC   C4A28314  26.737  26.003   7.758
 1899POPC   C1B28315  27.073  25.836   8.657
 1899POPC   C2B28316  27.131  25.910   8.202
 1899POPC   C3B28317  27.256  26.036   7.804
 1899POPC   C4B28318  27.289  25.927   7.385
 1900POPC   NC328319   3.205   3.117   9.276
 1900POPC   PO428320   2.889   2.516   9.413
 1900POPC   GL128321   2.937   2.728   9.054
 1900POPC   GL228322   2.576   2.774   9.063
 1900POPC   C1A28323   3.031   2.831   8.630
 1900POPC   D2A28324   2.815   2.640   8.275
 1900POPC   C3A28325   2.966   2.872   7.973
 1900POPC   C4A28326   2.989   2.947   7.564
 1900POPC   C1B28327   2.508   2.828   8.631
 1900POPC   C2B28328   2.629   3.142   8.324
 1900POPC   C3B28329   2.565   3.156   7.885
 1900POPC   C4B28330   2.463   2.732   7.906
 1901POPC   NC328331   0.252   3.776   9.628
 1901POPC   PO428332   0.257   3.142   9.277
 1901POPC   GL128333   0.290   3.529   9.165
 1901POPC   GL228334   0.497   3.824   9.195
 1901POPC   C1A28335   0.155   3.638   8.773
 1901POPC   D2A28336   0.084   3.586   8.351
 1901POPC   C3A28337   0.418   3.504   8.113
 1901POPC   C4A28338   0.430   3.245   7.765
 1901POPC   C1B28339   0.669   3.614   8.842
 1901POPC   C2B28340   0.807   3.493   8.466
 1901POPC   C3B28341   0.892   3.717   8.113
 1901POPC   C4B28342   0.841   3.578   7.720
 1902POPC   NC328343  30.864  40.858   9.559
 1902POPC   PO428344  30.310  40.661   9.368
 1902POPC   GL128345  30.607  40.831   9.121
 1902POPC   GL228346  30.729  41.167   9.188
 1902POPC   C1A28347  30.879  40.780   8.801
 1902POPC   D2A28348  30.909  40.569   8.451
 1902POPC   C3A28349  30.847  40.754   8.069
 1902POPC   C4A28350  30.599  40.592   7.744
 1902POPC   C1B28351  30.507  41.229   8.816
 1902POPC   C2B28352  30.565  41.043   8.407
 1902POPC   C3B28353  30.430  41.024   7.967
 1902POPC   C4B28354  30.656  41.060   7.535
 1903POPC   NC328355  42.552   6.875   9.550
 1903POPC   PO428356  42.140   6.434   9.502
 1903POPC   GL128357  42.431   6.519   9.177
 1903POPC   GL228358  42.161   6.413   8.983
 1903POPC   C1A28359  42.552   6.626   8.740
 1903POPC   D2A28360  42.286   6.629   8.379
 1903POPC   C3A28361  42.376   6.862   7.992
 1903POPC   C4A28362  42.598   6.638   7.663
 1903POPC   C1B28363  41.881   6.477   8.665
 1903POPC   C2B28364  41.943   6.246   8.270
 1903POPC   C3B28365  42.197   6.385   7.940
 1903POPC   C4B28366  42.092   6.676   7.588
 1904POPC   NC328367  10.221  21.522   9.211
 1904POPC   PO428368  10.624  21.095   9.622
 1904POPC   GL128369  10.853  21.147   9.159
 1904POPC   GL228370  10.598  21.307   8.983
 1904POPC   C1A28371  10.958  21.266   8.652
 1904POPC   D2A28372  10.702  21.588   8.372
 1904POPC   C3A28373  10.702  21.551   7.904
 1904POPC   C4A28374  11.094  21.626   7.710
 1904POPC   C1B28375  10.253  21.102   8.718
 1904POPC   C2B28376  10.338  21.169   8.317
 1904POPC   C3B28377  10.190  21.499   8.074
 1904POPC   C4B28378  10.258  21.297   7.719
 1905POPC   NC328379  25.116  42.827   9.472
 1905POPC   PO428380  25.690  43.275   9.484
 1905POPC   GL128381  25.408  43.176   9.168
 1905POPC   GL228382  25.529  42.861   9.144
 1905POPC   C1A28383  25.290  43.283   8.729
 1905POPC   D2A28384  25.022  43.222   8.369
 1905POPC   C3A28385  25.152  43.126   7.957
 1905POPC   C4A28386  25.414  43.276   7.652
 1905POPC   C1B28387  25.213  42.777   8.838
 1905POPC   C2B28388  25.325  42.783   8.442
 1905POPC   C3B28389  25.305  42.633   8.057
 1905POPC   C4B28390  25.605  42.824   7.789
 1906POPC   NC328391   8.145  42.870   9.641
 1906POPC   PO428392   7.933  43.463   9.469
 1906POPC   GL128393   8.196  43.201   9.191
 1906POPC   GL228394   8.426  42.906   9.223
 1906POPC   C1A28395   8.078  43.012   8.811
 1906POPC   D2A28396   7.703  43.090   8.551
 1906POPC   C3A28397   7.805  43.341   8.195
 1906POPC   C4A28398   7.804  43.196   7.779
 1906POPC   C1B28399   8.577  42.828   8.815
 1906POPC   C2B28400   8.418  42.887   8.404
 1906POPC   C3B28401   8.390  42.758   7.998
 1906POPC   C4B28402   8.298  43.100   7.741
 1907POPC   NC328403   6.499  39.598   9.476
 1907POPC   PO428404   6.708  38.936   9.498
 1907POPC   GL128405   6.672  38.955   9.127
 1907POPC   GL228406   6.455  39.224   9.117
 1907POPC   C1A28407   6.544  38.842   8.761
 1907POPC   D2A28408   6.476  39.049   8.403
 1907POPC   C3A28409   6.606  38.954   8.019
 1907POPC   C4A28410   6.653  39.366   7.876
 1907POPC   C1B28411   6.336  39.411   8.731
 1907POPC   C2B28412   6.329  39.517   8.288
 1907POPC   C3B28413   6.159  39.413   7.870
 1907POPC   C4B28414   6.298  39.081   7.610
 1908POPC   NC328415  43.404  21.659   9.485
 1908POPC   PO428416  42.948  21.227   9.378
 1908POPC   GL128417  43.074  21.465   9.040
 1908POPC   GL228418  43.412  21.417   9.037
 1908POPC   C1A28419  43.055  21.455   8.579
 1908POPC   D2A28420  42.834  21.217   8.288
 1908POPC   C3A28421  43.133  20.978   8.118
 1908POPC   C4A28422  43.371  21.030   7.798
 1908POPC   C1B28423  43.427  21.751   8.732
 1908POPC   C2B28424  43.465  21.677   8.293
 1908POPC   C3B28425  43.422  21.546   7.882
 1908POPC   C4B28426  43.553  21.665   7.463
 1909POPC   NC328427  35.800   8.165   9.476
 1909POPC   PO428428  36.381   8.390   9.663
 1909POPC   GL128429  36.318   8.542   9.252
 1909POPC   GL228430  36.013   8.421   9.075
 1909POPC   C1A28431  36.437   8.558   8.826
 1909POPC   D2A28432  36.273   8.357   8.459
 1909POPC   C3A28433  36.209   8.456   8.025
 1909POPC   C4A28434  36.287   8.064   7.802
 1909POPC   C1B28435  35.907   8.113   8.727
 1909POPC   C2B28436  35.977   7.984   8.259
 1909POPC   C3B28437  35.798   8.153   7.889
 1909POPC   C4B28438  35.606   7.994   7.528
 1910POPC   NC328439   3.930  37.281   9.506
 1910POPC   PO428440   3.314  36.902   9.531
 1910POPC   GL128441   3.627  36.725   9.243
 1910POPC   GL228442   3.908  36.930   9.114
 1910POPC   C1A28443   3.549  36.700   8.818
 1910POPC   D2A28444   3.382  36.950   8.477
 1910POPC   C3A28445   3.597  36.868   8.074
 1910POPC   C4A28446   3.432  36.940   7.657
 1910POPC   C1B28447   3.732  37.185   8.775
 1910POPC   C2B28448   3.694  37.354   8.345
 1910POPC   C3B28449   3.861  37.333   7.939
 1910POPC   C4B28450   3.848  37.238   7.515
 1911POPC   NC328451   5.678  19.839   9.769
 1911POPC   PO428452   6.235  19.984   9.501
 1911POPC   GL128453   6.173  19.947   9.048
 1911POPC   GL228454   5.826  19.876   8.975
 1911POPC   C1A28455   6.162  19.975   8.586
 1911POPC   D2A28456   5.713  20.048   8.381
 1911POPC   C3A28457   5.678  20.009   7.938
 1911POPC   C4A28458   6.064  19.872   7.794
 1911POPC   C1B28459   5.503  19.678   8.698
 1911POPC   C2B28460   5.385  19.427   8.371
 1911POPC   C3B28461   5.428  19.568   7.984
 1911POPC   C4B28462   5.719  19.503   7.701
 1912POPC   NC328463  33.126  16.336   9.495
 1912POPC   PO428464  33.336  16.929   9.475
 1912POPC   GL128465  33.128  16.711   9.116
 1912POPC   GL228466  32.783  16.525   9.097
 1912POPC   C1A28467  32.944  16.916   8.748
 1912POPC   D2A28468  32.546  16.937   8.487
 1912POPC   C3A28469  32.611  16.710   8.098
 1912POPC   C4A28470  32.779  16.802   7.690
 1912POPC   C1B28471  32.772  16.478   8.607
 1912POPC   C2B28472  33.029  16.392   8.309
 1912POPC   C3B28473  33.023  16.401   7.900
 1912POPC   C4B28474  33.019  16.399   7.456
 1913POPC   NC328475  14.994  39.674   9.570
 1913POPC   PO428476  14.893  40.395   9.524
 1913POPC   GL128477  14.981  40.059   9.227
 1913POPC   GL228478  15.316  39.973   9.170
 1913POPC   C1A28479  14.929  39.978   8.786
 1913POPC   D2A28480  15.136  39.881   8.400
 1913POPC   C3A28481  14.890  40.028   8.053
 1913POPC   C4A28482  14.966  40.154   7.642
 1913POPC   C1B28483  15.429  40.142   8.760
 1913POPC   C2B28484  15.548  40.201   8.314
 1913POPC   C3B28485  15.390  40.002   7.933
 1913POPC   C4B28486  15.434  39.996   7.478
 1914POPC   NC328487  27.332  31.900   9.546
 1914POPC   PO428488  28.037  31.986   9.439
 1914POPC   GL128489  27.639  32.112   9.185
 1914POPC   GL228490  27.429  31.843   9.058
 1914POPC   C1A28491  27.400  32.274   8.801
 1914POPC   D2A28492  27.527  32.180   8.385
 1914POPC   C3A28493  27.393  32.389   8.043
 1914POPC   C4A28494  27.658  32.634   7.863
 1914POPC   C1B28495  27.643  31.732   8.680
 1914POPC   C2B28496  27.614  31.713   8.222
 1914POPC   C3B28497  27.633  31.972   7.897
 1914POPC   C4B28498  27.427  31.952   7.510
 1915POPC   NC328499  18.704   8.803   9.479
 1915POPC   PO428500  19.306   9.125   9.578
 1915POPC   GL128501  19.092   8.975   9.179
 1915POPC   GL228502  18.997   8.608   9.122
 1915POPC   C1A28503  18.986   9.015   8.745
 1915POPC   D2A28504  19.121   8.819   8.371
 1915POPC   C3A28505  19.287   9.013   8.015
 1915POPC   C4A28506  18.939   9.145   7.763
 1915POPC   C1B28507  18.757   8.535   8.755
 1915POPC   C2B28508  18.646   8.602   8.318
 1915POPC   C3B28509  18.921   8.618   7.925
 1915POPC   C4B28510  18.851   8.520   7.463
 1916POPC   NC328511  18.000  40.361   9.473
 1916POPC   PO428512  18.398  40.790   9.612
 1916POPC   GL128513  18.237  40.683   9.164
 1916POPC   GL228514  18.400  40.385   9.116
 1916POPC   C1A28515  18.069  40.728   8.713
 1916POPC   D2A28516  18.213  40.627   8.255
 1916POPC   C3A28517  18.033  40.820   7.849
 1916POPC   C4A28518  17.873  40.824   7.375
 1916POPC   C1B28519  18.553  40.483   8.734
 1916POPC   C2B28520  18.578  40.251   8.363
 1916POPC   C3B28521  18.571  40.382   7.947
 1916POPC   C4B28522  18.554  40.824   7.859
 1917POPC   NC328523   7.451  43.258   9.491
 1917POPC   PO428524   7.723  42.679   9.622
 1917POPC   GL128525   7.721  42.941   9.197
 1917POPC   GL228526   7.703  43.307   9.042
 1917POPC   C1A28527   7.332  42.958   8.887
 1917POPC   D2A28528   7.236  42.810   8.456
 1917POPC   C3A28529   7.415  42.988   8.067
 1917POPC   C4A28530   7.270  43.176   7.648
 1917POPC   C1B28531   7.337  43.467   8.803
 1917POPC   C2B28532   7.313  43.387   8.360
 1917POPC   C3B28533   7.399  43.539   7.950
 1917POPC   C4B28534   7.667  43.603   7.547
 1918POPC   NC328535  18.112  44.345   9.518
 1918POPC   PO428536  18.518  43.823   9.614
 1918POPC   GL128537  18.427  44.051   9.216
 1918POPC   GL228538  18.187  43.850   9.014
 1918POPC   C1A28539  18.494  44.202   8.796
 1918POPC   D2A28540  18.451  44.037   8.383
 1918POPC   C3A28541  18.628  44.247   8.029
 1918POPC   C4A28542  18.454  44.264   7.608
 1918POPC   C1B28543  18.280  43.562   8.653
 1918POPC   C2B28544  18.484  43.544   8.238
 1918POPC   C3B28545  18.374  43.777   7.892
 1918POPC   C4B28546  18.158  43.806   7.520
 1919POPC   NC328547   9.497  16.876   9.552
 1919POPC   PO428548   8.798  16.722   9.453
 1919POPC   GL128549   8.895  16.893   9.122
 1919POPC   GL228550   9.160  17.102   9.221
 1919POPC   C1A28551   8.737  16.878   8.711
 1919POPC   D2A28552   8.783  17.046   8.297
 1919POPC   C3A28553   8.757  16.755   7.935
 1919POPC   C4A28554   8.957  16.354   7.854
 1919POPC   C1B28555   9.217  17.070   8.774
 1919POPC   C2B28556   9.332  17.085   8.320
 1919POPC   C3B28557   9.333  16.827   7.914
 1919POPC   C4B28558   9.525  16.896   7.448
 1920POPC   NC328559   8.185  30.384   9.466
 1920POPC   PO428560   8.405  29.864   9.476
 1920POPC   GL128561   8.266  30.045   9.070
 1920POPC   GL228562   7.913  30.183   9.084
 1920POPC   C1A28563   8.093  29.958   8.659
 1920POPC   D2A28564   8.072  29.760   8.258
 1920POPC   C3A28565   8.086  29.988   7.867
 1920POPC   C4A28566   8.099  29.737   7.503
 1920POPC   C1B28567   7.694  30.250   8.674
 1920POPC   C2B28568   7.877  30.255   8.279
 1920POPC   C3B28569   7.612  30.186   7.907
 1920POPC   C4B28570   7.590  29.846   7.605
 1921POPC   NC328571  22.454  10.507   9.573
 1921POPC   PO428572  21.975  10.944   9.634
 1921POPC   GL128573  21.971  10.678   9.276
 1921POPC   GL228574  22.273  10.805   9.181
 1921POPC   C1A28575  22.025  10.471   8.849
 1921POPC   D2A28576  22.154  10.630   8.416
 1921POPC   C3A28577  22.028  10.498   7.984
 1921POPC   C4A28578  21.841  10.420   7.552
 1921POPC   C1B28579  22.475  10.785   8.782
 1921POPC   C2B28580  22.683  10.669   8.392
 1921POPC   C3B28581  22.473  10.781   8.021
 1921POPC   C4B28582  22.249  10.757   7.616
 1922POPC   NC328583  32.853  39.330   9.709
 1922POPC   PO428584  32.147  39.373   9.558
 1922POPC   GL128585  32.306  39.329   9.157
 1922POPC   GL228586  32.186  39.013   9.045
 1922POPC   C1A28587  32.457  39.420   8.747
 1922POPC   D2A28588  32.294  39.528   8.341
 1922POPC   C3A28589  32.178  39.263   8.003
 1922POPC   C4A28590  32.302  39.345   7.605
 1922POPC   C1B28591  31.951  39.252   8.743
 1922POPC   C2B28592  31.791  39.342   8.341
 1922POPC   C3B28593  31.703  39.088   8.004
 1922POPC   C4B28594  31.808  39.136   7.586
 1923POPC   NC328595   6.869   6.987   9.481
 1923POPC   PO428596   6.546   7.461   9.853
 1923POPC   GL128597   6.513   7.508   9.281
 1923POPC   GL228598   6.765   7.333   9.149
 1923POPC   C1A28599   6.559   7.640   8.821
 1923POPC   D2A28600   6.697   7.430   8.441
 1923POPC   C3A28601   6.664   7.613   8.025
 1923POPC   C4A28602   6.499   7.499   7.659
 1923POPC   C1B28603   7.052   7.127   8.875
 1923POPC   C2B28604   7.135   7.126   8.482
 1923POPC   C3B28605   7.051   7.221   8.110
 1923POPC   C4B28606   6.944   7.245   7.693
 1924POPC   NC328607  38.816  11.951   9.520
 1924POPC   PO428608  39.056  12.483   9.696
 1924POPC   GL128609  39.175  12.256   9.256
 1924POPC   GL228610  39.021  11.942   9.061
 1924POPC   C1A28611  39.259  12.296   8.793
 1924POPC   D2A28612  39.209  12.127   8.382
 1924POPC   C3A28613  39.357  12.356   8.023
 1924POPC   C4A28614  39.607  12.149   7.714
 1924POPC   C1B28615  38.907  11.772   8.653
 1924POPC   C2B28616  38.660  11.747   8.294
 1924POPC   C3B28617  38.870  11.755   7.956
 1924POPC   C4B28618  39.094  12.028   7.747
 1925POPC   NC328619  14.288   4.067   9.277
 1925POPC   PO428620  14.219   4.670   9.602
 1925POPC   GL128621  14.243   4.577   9.168
 1925POPC   GL228622  14.545   4.477   9.158
 1925POPC   C1A28623  14.237   4.430   8.747
 1925POPC   D2A28624  14.353   4.111   8.458
 1925POPC   C3A28625  14.302   4.336   8.064
 1925POPC   C4A28626  14.154   4.328   7.635
 1925POPC   C1B28627  14.716   4.288   8.805
 1925POPC   C2B28628  14.799   4.329   8.429
 1925POPC   C3B28629  14.763   4.092   8.096
 1925POPC   C4B28630  14.675   4.259   7.710
 1926POPC   NC328631  25.853  38.618   9.718
 1926POPC   PO428632  26.018  38.163   9.539
 1926POPC   GL128633  26.162  38.551   9.274
 1926POPC   GL228634  26.058  38.339   8.995
 1926POPC   C1A28635  26.230  38.770   8.830
 1926POPC   D2A28636  26.193  38.549   8.408
 1926POPC   C3A28637  26.251  38.504   7.940
 1926POPC   C4A28638  25.959  38.573   7.574
 1926POPC   C1B28639  26.484  38.322   8.768
 1926POPC   C2B28640  26.603  38.233   8.312
 1926POPC   C3B28641  26.423  37.954   7.999
 1926POPC   C4B28642  26.077  38.066   7.704
 1927POPC   NC328643  42.690  37.648   9.469
 1927POPC   PO428644  43.320  37.405   9.600
 1927POPC   GL128645  43.159  37.660   9.239
 1927POPC   GL228646  43.396  37.880   9.063
 1927POPC   C1A28647  42.931  37.758   8.835
 1927POPC   D2A28648  42.814  37.479   8.497
 1927POPC   C3A28649  42.983  37.665   8.110
 1927POPC   C4A28650  42.765  37.942   7.826
 1927POPC   C1B28651  43.367  37.486   8.804
 1927POPC   C2B28652  43.301  37.335   8.385
 1927POPC   C3B28653  43.411  37.405   7.956
 1927POPC   C4B28654  43.466  37.288   7.531
 1928POPC   NC328655  39.405  28.089   9.709
 1928POPC   PO428656  38.818  28.337   9.503
 1928POPC   GL128657  39.254  28.360   9.232
 1928POPC   GL228658  39.447  28.023   9.179
 1928POPC   C1A28659  39.475  28.350   8.790
 1928POPC   D2A28660  39.345  28.268   8.368
 1928POPC   C3A28661  39.559  28.481   8.053
 1928POPC   C4A28662  39.417  28.698   7.704
 1928POPC   C1B28663  39.094  28.014   8.895
 1928POPC   C2B28664  38.940  27.994   8.501
 1928POPC   C3B28665  39.003  27.985   8.044
 1928POPC   C4B28666  39.297  28.177   7.740
 1929POPC   NC328667  20.786  26.365   9.483
 1929POPC   PO428668  20.530  25.764   9.450
 1929POPC   GL128669  20.682  25.954   9.130
 1929POPC   GL228670  21.038  26.010   9.233
 1929POPC   C1A28671  20.547  26.252   8.832
 1929POPC   D2A28672  20.433  26.477   8.463
 1929POPC   C3A28673  20.693  26.487   8.124
 1929POPC   C4A28674  20.586  26.373   7.731
 1929POPC   C1B28675  21.038  26.034   8.777
 1929POPC   C2B28676  20.778  26.051   8.408
 1929POPC   C3B28677  20.928  26.048   8.000
 1929POPC   C4B28678  20.808  25.861   7.621
 1930POPC   NC328679  38.817  40.522   9.546
 1930POPC   PO428680  39.439  40.762   9.337
 1930POPC   GL128681  39.353  40.702   8.966
 1930POPC   GL228682  39.121  40.482   9.021
 1930POPC   C1A28683  39.306  40.951   8.613
 1930POPC   D2A28684  39.051  40.937   8.266
 1930POPC   C3A28685  39.206  40.919   7.856
 1930POPC   C4A28686  39.376  41.028   7.466
 1930POPC   C1B28687  39.182  40.451   8.560
 1930POPC   C2B28688  38.940  40.399   8.204
 1930POPC   C3B28689  38.735  40.697   7.954
 1930POPC   C4B28690  38.842  40.712   7.546
 1931POPC   NC328691  22.197  40.556   9.787
 1931POPC   PO428692  21.791  41.053   9.858
 1931POPC   GL128693  22.003  40.949   9.377
 1931POPC   GL228694  22.389  40.987   9.232
 1931POPC   C1A28695  21.987  40.891   8.870
 1931POPC   D2A28696  21.981  41.070   8.403
 1931POPC   C3A28697  21.831  40.816   8.033
 1931POPC   C4A28698  21.978  40.754   7.606
 1931POPC   C1B28699  22.472  40.768   8.833
 1931POPC   C2B28700  22.330  40.707   8.418
 1931POPC   C3B28701  22.369  40.713   7.996
 1931POPC   C4B28702  22.737  40.929   7.812
 1932POPC   NC328703  40.642  17.064   9.516
 1932POPC   PO428704  40.635  16.402   9.545
 1932POPC   GL128705  40.903  16.538   9.212
 1932POPC   GL228706  40.668  16.748   9.082
 1932POPC   C1A28707  41.076  16.646   8.791
 1932POPC   D2A28708  40.882  16.513   8.405
 1932POPC   C3A28709  41.078  16.668   8.041
 1932POPC   C4A28710  40.845  16.854   7.734
 1932POPC   C1B28711  40.612  16.961   8.709
 1932POPC   C2B28712  40.511  16.916   8.285
 1932POPC   C3B28713  40.358  16.774   7.908
 1932POPC   C4B28714  40.261  16.417   7.752
 1933POPC   NC328715  31.310  17.076   9.457
 1933POPC   PO428716  31.675  16.525   9.539
 1933POPC   GL128717  31.632  16.799   9.157
 1933POPC   GL228718  31.342  16.779   9.013
 1933POPC   C1A28719  31.696  16.625   8.725
 1933POPC   D2A28720  31.655  16.425   8.346
 1933POPC   C3A28721  31.381  16.535   8.002
 1933POPC   C4A28722  31.758  16.483   7.735
 1933POPC   C1B28723  31.209  16.873   8.619
 1933POPC   C2B28724  31.421  16.984   8.261
 1933POPC   C3B28725  31.647  16.950   7.888
 1933POPC   C4B28726  31.359  16.776   7.532
 1934POPC   NC328727   5.449  28.287   9.560
 1934POPC   PO428728   5.488  28.858   9.526
 1934POPC   GL128729   5.213  28.867   9.143
 1934POPC   GL228730   4.936  28.616   9.136
 1934POPC   C1A28731   5.124  28.764   8.689
 1934POPC   D2A28732   4.981  28.630   8.303
 1934POPC   C3A28733   5.220  28.627   7.931
 1934POPC   C4A28734   5.558  28.347   7.754
 1934POPC   C1B28735   4.616  28.649   8.772
 1934POPC   C2B28736   4.483  28.662   8.319
 1934POPC   C3B28737   4.685  28.565   7.882
 1934POPC   C4B28738   4.628  28.400   7.444
 1935POPC   NC328739  27.329   5.245   9.524
 1935POPC   PO428740  27.642   5.882   9.551
 1935POPC   GL128741  27.661   6.090   9.186
 1935POPC   GL228742  27.299   6.037   9.173
 1935POPC   C1A28743  27.755   6.023   8.768
 1935POPC   D2A28744  27.853   5.719   8.457
 1935POPC   C3A28745  27.796   5.891   8.041
 1935POPC   C4A28746  27.671   5.734   7.633
 1935POPC   C1B28747  27.312   5.793   8.784
 1935POPC   C2B28748  27.359   5.881   8.342
 1935POPC   C3B28749  27.265   5.806   7.910
 1935POPC   C4B28750  27.178   5.774   7.450
 1936POPC   NC328751  10.641  33.660   9.492
 1936POPC   PO428752  10.246  34.156   9.581
 1936POPC   GL128753  10.360  33.955   9.184
 1936POPC   GL228754  10.690  34.020   9.031
 1936POPC   C1A28755  10.367  33.670   8.837
 1936POPC   D2A28756  10.452  33.779   8.422
 1936POPC   C3A28757  10.441  33.508   8.055
 1936POPC   C4A28758  10.452  33.793   7.717
 1936POPC   C1B28759  10.877  33.682   8.737
 1936POPC   C2B28760  10.901  33.581   8.282
 1936POPC   C3B28761  10.901  33.567   7.809
 1936POPC   C4B28762  10.729  33.489   7.378
 1937POPC   NC328763   7.472  39.825   9.518
 1937POPC   PO428764   7.725  40.524   9.479
 1937POPC   GL128765   7.560  40.394   9.081
 1937POPC   GL228766   7.266  40.188   9.171
 1937POPC   C1A28767   7.538  40.218   8.688
 1937POPC   D2A28768   7.379  40.171   8.276
 1937POPC   C3A28769   7.606  39.979   7.960
 1937POPC   C4A28770   7.681  40.167   7.560
 1937POPC   C1B28771   7.199  39.808   8.914
 1937POPC   C2B28772   7.232  39.727   8.487
 1937POPC   C3B28773   7.165  39.675   8.039
 1937POPC   C4B28774   7.281  39.825   7.633
 1938POPC   NC328775  43.496  33.182   9.428
 1938POPC   PO428776  44.148  32.997   9.646
 1938POPC   GL128777  43.953  32.994   9.232
 1938POPC   GL228778  43.714  32.737   9.175
 1938POPC   C1A28779  43.972  33.170   8.807
 1938POPC   D2A28780  43.784  33.277   8.406
 1938POPC   C3A28781  43.912  33.080   8.040
 1938POPC   C4A28782  44.131  33.161   7.629
 1938POPC   C1B28783  43.651  32.757   8.717
 1938POPC   C2B28784  43.444  32.829   8.328
 1938POPC   C3B28785  43.438  32.720   7.915
 1938POPC   C4B28786  43.782  32.764   7.654
 1939POPC   NC328787  33.307  18.068   9.484
 1939POPC   PO428788  32.700  17.701   9.480
 1939POPC   GL128789  33.131  17.544   9.271
 1939POPC   GL228790  33.216  17.776   9.081
 1939POPC   C1A28791  33.216  17.337   8.834
 1939POPC   D2A28792  32.911  17.342   8.448
 1939POPC   C3A28793  33.003  17.460   8.017
 1939POPC   C4A28794  33.067  17.264   7.624
 1939POPC   C1B28795  32.870  17.728   8.807
 1939POPC   C2B28796  32.878  17.878   8.378
 1939POPC   C3B28797  32.631  17.840   8.029
 1939POPC   C4B28798  32.720  17.671   7.590
 1940POPC   NC328799  29.277   9.204   9.391
 1940POPC   PO428800  29.382   9.808   9.556
 1940POPC   GL128801  29.172   9.650   9.164
 1940POPC   GL228802  28.885   9.717   8.956
 1940POPC   C1A28803  29.363   9.427   8.796
 1940POPC   D2A28804  29.603   9.573   8.449
 1940POPC   C3A28805  29.318   9.630   8.106
 1940POPC   C4A28806  29.267   9.575   7.670
 1940POPC   C1B28807  29.088   9.801   8.576
 1940POPC   C2B28808  29.049  10.077   8.260
 1940POPC   C3B28809  29.156  10.072   7.892
 1940POPC   C4B28810  28.941   9.933   7.534
 1941POPC   NC328811  35.082  33.464   9.440
 1941POPC   PO428812  34.905  34.157   9.504
 1941POPC   GL128813  35.115  33.886   9.152
 1941POPC   GL228814  35.503  33.819   9.148
 1941POPC   C1A28815  35.224  33.750   8.724
 1941POPC   D2A28816  35.061  33.599   8.362
 1941POPC   C3A28817  35.135  33.814   8.030
 1941POPC   C4A28818  34.965  33.806   7.645
 1941POPC   C1B28819  35.700  33.618   8.782
 1941POPC   C2B28820  35.648  33.742   8.382
 1941POPC   C3B28821  35.557  33.510   8.035
 1941POPC   C4B28822  35.452  33.664   7.643
 1942POPC   NC328823   5.891  31.247   9.406
 1942POPC   PO428824   5.895  31.846   9.620
 1942POPC   GL128825   5.879  31.711   9.182
 1942POPC   GL228826   6.222  31.580   9.146
 1942POPC   C1A28827   5.831  31.492   8.764
 1942POPC   D2A28828   5.676  31.172   8.453
 1942POPC   C3A28829   5.661  31.274   8.011
 1942POPC   C4A28830   5.491  31.449   7.636
 1942POPC   C1B28831   6.336  31.555   8.701
 1942POPC   C2B28832   6.088  31.480   8.296
 1942POPC   C3B28833   5.952  31.679   7.891
 1942POPC   C4B28834   6.286  31.664   7.607
 1943POPC   NC328835  27.936  28.280   9.507
 1943POPC   PO428836  28.437  28.634   9.216
 1943POPC   GL128837  28.152  28.423   8.993
 1943POPC   GL228838  28.036  28.090   9.014
 1943POPC   C1A28839  28.198  28.518   8.585
 1943POPC   D2A28840  28.268  28.709   8.213
 1943POPC   C3A28841  28.639  28.614   7.972
 1943POPC   C4A28842  28.602  28.623   7.536
 1943POPC   C1B28843  28.020  28.039   8.564
 1943POPC   C2B28844  28.089  28.102   8.107
 1943POPC   C3B28845  28.193  28.407   7.797
 1943POPC   C4B28846  28.194  28.341   7.345
 1944POPC   NC328847  27.562  42.146   9.456
 1944POPC   PO428848  27.379  41.555   9.523
 1944POPC   GL128849  27.521  41.720   9.179
 1944POPC   GL228850  27.213  41.922   9.128
 1944POPC   C1A28851  27.730  41.538   8.858
 1944POPC   D2A28852  27.627  41.488   8.437
 1944POPC   C3A28853  27.842  41.714   8.125
 1944POPC   C4A28854  27.803  41.504   7.716
 1944POPC   C1B28855  27.336  41.830   8.721
 1944POPC   C2B28856  27.222  41.856   8.320
 1944POPC   C3B28857  27.365  41.689   7.975
 1944POPC   C4B28858  27.499  41.910   7.641
 1945POPC   NC328859  18.474   5.334   9.422
 1945POPC   PO428860  17.870   5.086   9.526
 1945POPC   GL128861  17.982   4.883   9.133
 1945POPC   GL228862  18.066   5.197   9.042
 1945POPC   C1A28863  18.136   4.827   8.684
 1945POPC   D2A28864  18.467   4.862   8.433
 1945POPC   C3A28865  18.376   5.014   8.036
 1945POPC   C4A28866  18.051   4.917   7.786
 1945POPC   C1B28867  18.064   5.403   8.649
 1945POPC   C2B28868  18.257   5.462   8.250
 1945POPC   C3B28869  18.074   5.417   7.847
 1945POPC   C4B28870  17.845   5.288   7.433
 1946POPC   NC328871  43.973  31.013   9.498
 1946POPC   PO428872  43.908  30.392   9.724
 1946POPC   GL128873  43.845  30.502   9.228
 1946POPC   GL228874  43.729  30.859   9.087
 1946POPC   C1A28875  43.811  30.527   8.724
 1946POPC   D2A28876  43.791  30.872   8.357
 1946POPC   C3A28877  43.801  30.655   7.926
 1946POPC   C4A28878  43.613  30.252   7.764
 1946POPC   C1B28879  44.118  30.927   8.824
 1946POPC   C2B28880  44.314  30.852   8.406
 1946POPC   C3B28881  44.320  30.994   7.989
 1946POPC   C4B28882  44.249  30.869   7.552
 1947POPC   NC328883   6.529   0.291   9.765
 1947POPC   PO428884   6.801   0.830   9.477
 1947POPC   GL128885   6.570   0.683   9.134
 1947POPC   GL228886   6.493   0.341   9.258
 1947POPC   C1A28887   6.753   0.687   8.721
 1947POPC   D2A28888   6.794   0.520   8.316
 1947POPC   C3A28889   6.896   0.722   7.934
 1947POPC   C4A28890   6.790   0.357   7.733
 1947POPC   C1B28891   6.434   0.184   8.854
 1947POPC   C2B28892   6.341   0.328   8.450
 1947POPC   C3B28893   6.373   0.392   8.027
 1947POPC   C4B28894   6.309   0.490   7.619
 1948POPC   NC328895   5.674  40.832   9.795
 1948POPC   PO428896   6.266  40.576   9.729
 1948POPC   GL128897   6.078  40.741   9.338
 1948POPC   GL228898   5.730  40.637   9.264
 1948POPC   C1A28899   6.034  40.793   8.883
 1948POPC   D2A28900   5.862  41.000   8.508
 1948POPC   C3A28901   5.788  40.687   8.170
 1948POPC   C4A28902   5.769  40.576   7.730
 1948POPC   C1B28903   5.518  40.737   8.834
 1948POPC   C2B28904   5.343  40.952   8.474
 1948POPC   C3B28905   5.535  41.154   8.135
 1948POPC   C4B28906   5.619  41.059   7.698
 1949POPC   NC328907  28.420  24.099   9.460
 1949POPC   PO428908  28.086  23.503   9.476
 1949POPC   GL128909  28.267  23.525   9.100
 1949POPC   GL228910  28.445  23.809   9.051
 1949POPC   C1A28911  28.100  23.565   8.687
 1949POPC   D2A28912  28.072  23.442   8.263
 1949POPC   C3A28913  28.309  23.638   7.910
 1949POPC   C4A28914  28.270  23.536   7.471
 1949POPC   C1B28915  28.222  24.058   8.735
 1949POPC   C2B28916  28.070  23.981   8.281
 1949POPC   C3B28917  28.016  24.151   7.831
 1949POPC   C4B28918  28.028  23.994   7.401
 1950POPC   NC328919  42.427   3.283   9.493
 1950POPC   PO428920  42.216   4.003   9.461
 1950POPC   GL128921  42.245   3.633   9.147
 1950POPC   GL228922  42.094   3.274   9.120
 1950POPC   C1A28923  42.482   3.463   8.776
 1950POPC   D2A28924  42.326   3.332   8.343
 1950POPC   C3A28925  42.597   3.186   8.030
 1950POPC   C4A28926  42.548   2.954   7.650
 1950POPC   C1B28927  41.981   3.443   8.714
 1950POPC   C2B28928  42.143   3.795   8.475
 1950POPC   C3B28929  42.232   3.788   8.037
 1950POPC   C4B28930  42.518   3.610   7.762
 1951POPC   NC328931   2.641  44.049   9.414
 1951POPC   PO428932   2.914  43.409   9.441
 1951POPC   GL128933   2.882  43.675   9.089
 1951POPC   GL228934   3.064  43.943   9.080
 1951POPC   C1A28935   2.640  43.894   8.767
 1951POPC   D2A28936   2.504  43.683   8.409
 1951POPC   C3A28937   2.492  43.890   8.008
 1951POPC   C4A28938   2.804  43.579   7.877
 1951POPC   C1B28939   3.114  44.080   8.688
 1951POPC   C2B28940   2.863  44.052   8.318
 1951POPC   C3B28941   2.955  44.074   7.929
 1951POPC   C4B28942   2.766  44.280   7.710
 1952POPC   NC328943  29.678   3.127   9.537
 1952POPC   PO428944  29.939   2.481   9.594
 1952POPC   GL128945  29.885   2.645   9.211
 1952POPC   GL228946  29.995   2.970   9.154
 1952POPC   C1A28947  29.683   2.720   8.841
 1952POPC   D2A28948  29.656   2.963   8.500
 1952POPC   C3A28949  29.877   2.761   8.193
 1952POPC   C4A28950  29.919   2.730   7.764
 1952POPC   C1B28951  30.223   2.790   8.828
 1952POPC   C2B28952  30.365   2.938   8.448
 1952POPC   C3B28953  30.186   3.207   8.159
 1952POPC   C4B28954  30.301   3.074   7.772
 1953POPC   NC328955  38.429  33.157   9.640
 1953POPC   PO428956  38.531  32.524   9.676
 1953POPC   GL128957  38.473  32.783   9.252
 1953POPC   GL228958  38.333  33.130   9.153
 1953POPC   C1A28959  38.443  32.875   8.742
 1953POPC   D2A28960  38.724  33.131   8.443
 1953POPC   C3A28961  38.625  32.963   8.024
 1953POPC   C4A28962  38.227  32.844   7.835
 1953POPC   C1B28963  38.411  33.399   8.782
 1953POPC   C2B28964  38.221  33.498   8.412
 1953POPC   C3B28965  38.116  33.279   8.092
 1953POPC   C4B28966  38.211  33.453   7.720
 1954POPC   NC328967   3.587  20.264   9.354
 1954POPC   PO428968   3.192  20.648   9.625
 1954POPC   GL128969   3.467  20.738   9.202
 1954POPC   GL228970   3.858  20.704   9.192
 1954POPC   C1A28971   3.537  20.590   8.765
 1954POPC   D2A28972   3.763  20.383   8.411
 1954POPC   C3A28973   3.604  20.482   8.006
 1954POPC   C4A28974   3.311  20.803   7.910
 1954POPC   C1B28975   4.063  20.575   8.792
 1954POPC   C2B28976   4.090  20.772   8.381
 1954POPC   C3B28977   4.045  20.703   7.949
 1954POPC   C4B28978   3.774  20.884   7.660
 1955POPC   NC328979  14.849  44.616   9.537
 1955POPC   PO428980  15.391  44.272   9.510
 1955POPC   GL128981  15.159  44.517   9.122
 1955POPC   GL228982  14.896  44.764   9.050
 1955POPC   C1A28983  15.358  44.599   8.725
 1955POPC   D2A28984  15.561  44.758   8.372
 1955POPC   C3A28985  15.407  44.588   7.987
 1955POPC   C4A28986  15.320  44.850   7.652
 1955POPC   C1B28987  14.864  44.671   8.654
 1955POPC   C2B28988  15.025  44.667   8.296
 1955POPC   C3B28989  14.871  44.703   7.901
 1955POPC   C4B28990  14.773  44.986   7.594
 1956POPC   NC328991  44.827   3.148   9.409
 1956POPC   PO428992  44.295   2.712   9.352
 1956POPC   GL128993  44.634   2.457   9.173
 1956POPC   GL228994  44.907   2.703   9.128
 1956POPC   C1A28995  44.642   2.498   8.742
 1956POPC   D2A28996  44.419   2.763   8.480
 1956POPC   C3A28997  44.601   2.782   8.149
 1956POPC   C4A28998  44.580   3.092   7.838
 1956POPC   C1B28999  44.729   3.010   8.798
 1956POPC   C2B29000  44.847   3.149   8.380
 1956POPC   C3B29001   0.062   2.957   8.010
 1956POPC   C4B29002  44.875   2.642   7.736
 1957POPC   NC329003  10.652  18.924   9.712
 1957POPC   PO429004  10.690  19.560   9.447
 1957POPC   GL129005  10.508  19.216   9.176
 1957POPC   GL229006  10.686  18.898   9.114
 1957POPC   C1A29007  10.315  19.101   8.750
 1957POPC   D2A29008  10.253  19.271   8.306
 1957POPC   C3A29009  10.541  19.368   7.981
 1957POPC   C4A29010  10.761  19.038   7.758
 1957POPC   C1B29011  10.907  18.707   8.744
 1957POPC   C2B29012  10.827  18.592   8.289
 1957POPC   C3B29013  10.942  18.563   7.833
 1957POPC   C4B29014  10.749  18.611   7.437
 1958POPC   NC329015  44.979   2.162   9.476
 1958POPC   PO429016  44.359   2.019   9.652
 1958POPC   GL129017  44.435   1.973   9.197
 1958POPC   GL229018  44.757   1.882   9.075
 1958POPC   C1A29019  44.284   2.121   8.790
 1958POPC   D2A29020  44.332   2.279   8.367
 1958POPC   C3A29021  44.387   2.042   7.999
 1958POPC   C4A29022  44.504   1.957   7.576
 1958POPC   C1B29023  44.766   2.015   8.633
 1958POPC   C2B29024  44.862   2.343   8.296
 1958POPC   C3B29025  44.885   2.128   7.912
 1958POPC   C4B29026  44.958   1.666   7.946
 1959POPC   NC329027  29.031  15.722   9.452
 1959POPC   PO429028  29.367  16.300   9.497
 1959POPC   GL129029  29.148  16.124   9.134
 1959POPC   GL229030  29.321  16.224   8.828
 1959POPC   C1A29031  28.986  15.869   8.781
 1959POPC   D2A29032  29.073  16.039   8.357
 1959POPC   C3A29033  29.024  15.880   7.946
 1959POPC   C4A29034  28.978  16.158   7.612
 1959POPC   C1B29035  29.496  15.872   8.596
 1959POPC   C2B29036  29.480  15.787   8.154
 1959POPC   C3B29037  29.473  15.762   7.697
 1959POPC   C4B29038  29.495  16.013   7.314
 1960POPC   NC329039  31.388   5.799   9.592
 1960POPC   PO429040  31.728   6.307   9.396
 1960POPC   GL129041  31.632   5.948   9.137
 1960POPC   GL229042  31.280   5.892   9.114
 1960POPC   C1A29043  31.545   5.933   8.678
 1960POPC   D2A29044  31.630   5.657   8.309
 1960POPC   C3A29045  31.753   5.831   7.942
 1960POPC   C4A29046  31.596   6.131   7.708
 1960POPC   C1B29047  31.112   5.622   8.809
 1960POPC   C2B29048  31.123   5.777   8.399
 1960POPC   C3B29049  31.225   5.887   7.974
 1960POPC   C4B29050  31.345   5.705   7.579
 1961POPC   NC329051  17.264  42.881   9.434
 1961POPC   PO429052  17.702  43.310   9.349
 1961POPC   GL129053  17.430  43.207   9.053
 1961POPC   GL229054  17.597  42.903   9.060
 1961POPC   C1A29055  17.285  43.038   8.664
 1961POPC   D2A29056  17.414  42.953   8.234
 1961POPC   C3A29057  17.228  43.229   7.884
 1961POPC   C4A29058  17.276  43.393   7.439
 1961POPC   C1B29059  17.679  42.705   8.742
 1961POPC   C2B29060  17.886  42.811   8.432
 1961POPC   C3B29061  17.943  42.855   8.043
 1961POPC   C4B29062  17.616  42.880   7.763
 1962POPC   NC329063  34.589  19.475   9.332
 1962POPC   PO429064  34.769  19.965   9.716
 1962POPC   GL129065  34.601  19.951   9.267
 1962POPC   GL229066  34.836  20.012   9.081
 1962POPC   C1A29067  34.385  19.943   8.864
 1962POPC   D2A29068  34.463  19.785   8.461
 1962POPC   C3A29069  34.270  19.929   8.088
 1962POPC   C4A29070  34.340  20.198   7.730
 1962POPC   C1B29071  34.949  20.026   8.657
 1962POPC   C2B29072  34.803  20.121   8.230
 1962POPC   C3B29073  34.755  19.916   7.850
 1962POPC   C4B29074  34.680  19.942   7.431
 1963POPC   NC329075   5.708  30.269   9.510
 1963POPC   PO429076   6.352  30.267   9.632
 1963POPC   GL129077   6.128  30.291   9.209
 1963POPC   GL229078   5.914  29.957   9.162
 1963POPC   C1A29079   5.954  30.281   8.782
 1963POPC   D2A29080   5.927  29.984   8.433
 1963POPC   C3A29081   5.767  30.119   8.024
 1963POPC   C4A29082   5.962  30.157   7.603
 1963POPC   C1B29083   5.547  29.960   8.853
 1963POPC   C2B29084   5.419  29.992   8.422
 1963POPC   C3B29085   5.499  29.688   8.081
 1963POPC   C4B29086   5.766  29.626   7.702
 1964POPC   NC329087  21.976  29.999   9.528
 1964POPC   PO429088  22.549  29.605   9.365
 1964POPC   GL129089  22.167  29.707   9.115
 1964POPC   GL229090  22.281  30.032   9.111
 1964POPC   C1A29091  21.844  29.955   8.819
 1964POPC   D2A29092  21.805  30.110   8.360
 1964POPC   C3A29093  21.941  29.762   8.064
 1964POPC   C4A29094  22.129  29.689   7.648
 1964POPC   C1B29095  22.438  29.950   8.710
 1964POPC   C2B29096  22.416  30.107   8.303
 1964POPC   C3B29097  22.166  30.198   7.929
 1964POPC   C4B29098  22.204  30.545   7.664
 1965POPC   NC329099  12.824  42.669   9.505
 1965POPC   PO429100  12.957  42.046   9.635
 1965POPC   GL129101  12.791  42.173   9.260
 1965POPC   GL229102  13.036  42.407   9.104
 1965POPC   C1A29103  12.767  42.041   8.841
 1965POPC   D2A29104  12.881  42.262   8.477
 1965POPC   C3A29105  12.627  42.149   8.131
 1965POPC   C4A29106  12.610  41.983   7.716
 1965POPC   C1B29107  12.726  42.649   8.848
 1965POPC   C2B29108  12.620  42.717   8.416
 1965POPC   C3B29109  12.911  42.588   8.071
 1965POPC   C4B29110  12.813  42.451   7.674
 1966POPC   NC329111  37.502  24.294   9.532
 1966POPC   PO429112  38.148  24.190   9.241
 1966POPC   GL129113  37.837  24.448   9.139
 1966POPC   GL229114  37.618  24.154   9.075
 1966POPC   C1A29115  37.941  24.721   8.813
 1966POPC   D2A29116  38.073  24.589   8.423
 1966POPC   C3A29117  37.963  24.790   8.029
 1966POPC   C4A29118  37.913  24.745   7.615
 1966POPC   C1B29119  37.723  23.972   8.709
 1966POPC   C2B29120  37.727  24.183   8.345
 1966POPC   C3B29121  37.451  24.244   8.026
 1966POPC   C4B29122  37.638  24.332   7.685
 1967POPC   NC329123  37.255  34.308   9.447
 1967POPC   PO429124  37.887  34.553   9.444
 1967POPC   GL129125  37.613  34.514   9.111
 1967POPC   GL229126  37.796  34.805   8.950
 1967POPC   C1A29127  37.352  34.642   8.764
 1967POPC   D2A29128  37.506  34.709   8.364
 1967POPC   C3A29129  37.262  34.446   8.113
 1967POPC   C4A29130  37.325  34.543   7.710
 1967POPC   C1B29131  37.878  34.452   8.666
 1967POPC   C2B29132  38.013  34.475   8.246
 1967POPC   C3B29133  37.798  34.641   7.913
 1967POPC   C4B29134  37.569  35.000   7.796
 1968POPC   NC329135  36.806  28.089   9.702
 1968POPC   PO429136  37.212  28.496   9.466
 1968POPC   GL129137  36.844  28.296   9.244
 1968POPC   GL229138  36.608  28.514   9.123
 1968POPC   C1A29139  36.824  28.165   8.812
 1968POPC   D2A29140  37.044  28.266   8.442
 1968POPC   C3A29141  36.936  28.032   8.089
 1968POPC   C4A29142  37.011  27.967   7.682
 1968POPC   C1B29143  37.006  28.638   8.837
 1968POPC   C2B29144  37.227  28.749   8.416
 1968POPC   C3B29145  37.095  28.689   7.961
 1968POPC   C4B29146  36.749  28.754   7.639
 1969POPC   NC329147  44.022   2.308   9.472
 1969POPC   PO429148  44.075   1.616   9.309
 1969POPC   GL129149  43.927   1.924   9.097
 1969POPC   GL229150  43.651   2.038   9.197
 1969POPC   C1A29151  43.861   1.825   8.695
 1969POPC   D2A29152  44.057   1.794   8.334
 1969POPC   C3A29153  43.772   1.861   8.039
 1969POPC   C4A29154  44.040   1.797   7.722
 1969POPC   C1B29155  43.571   2.231   8.785
 1969POPC   C2B29156  43.799   2.248   8.391
 1969POPC   C3B29157  43.968   2.342   7.994
 1969POPC   C4B29158  43.760   2.551   7.672
 1970POPC   NC329159  20.382  42.854   9.540
 1970POPC   PO429160  20.791  43.344   9.395
 1970POPC   GL129161  20.401  43.216   9.182
 1970POPC   GL229162  20.318  42.836   9.045
 1970POPC   C1A29163  20.232  43.309   8.807
 1970POPC   D2A29164  20.422  43.246   8.422
 1970POPC   C3A29165  20.297  43.395   8.027
 1970POPC   C4A29166  20.373  43.312   7.630
 1970POPC   C1B29167  20.708  42.973   8.851
 1970POPC   C2B29168  20.866  42.990   8.451
 1970POPC   C3B29169  20.774  43.135   8.058
 1970POPC   C4B29170  20.919  43.226   7.672
 1971POPC   NC329171  37.230  13.122   9.367
 1971POPC   PO429172  37.858  12.744   9.466
 1971POPC   GL129173  37.653  12.708   9.074
 1971POPC   GL229174  37.933  12.476   8.973
 1971POPC   C1A29175  37.452  12.966   8.724
 1971POPC   D2A29176  37.368  13.177   8.299
 1971POPC   C3A29177  37.288  12.881   7.953
 1971POPC   C4A29178  37.509  12.841   7.548
 1971POPC   C1B29179  37.927  12.756   8.643
 1971POPC   C2B29180  37.675  12.757   8.311
 1971POPC   C3B29181  37.810  12.840   7.949
 1971POPC   C4B29182  37.992  12.671   7.581
 1972POPC   NC329183  31.183  43.358   9.620
 1972POPC   PO429184  31.807  43.536   9.406
 1972POPC   GL129185  31.473  43.376   9.144
 1972POPC   GL229186  31.136  43.218   9.137
 1972POPC   C1A29187  31.566  43.115   8.793
 1972POPC   D2A29188  31.804  43.106   8.441
 1972POPC   C3A29189  31.611  42.885   8.122
 1972POPC   C4A29190  31.715  42.974   7.685
 1972POPC   C1B29191  31.131  43.371   8.741
 1972POPC   C2B29192  31.239  43.219   8.329
 1972POPC   C3B29193  31.361  43.284   7.902
 1972POPC   C4B29194  31.178  43.386   7.503
 1973POPC   NC329195   7.597  36.413   9.268
 1973POPC   PO429196   7.298  35.819   9.445
 1973POPC   GL129197   7.307  36.059   9.076
 1973POPC   GL229198   7.654  35.999   8.971
 1973POPC   C1A29199   7.390  36.374   8.680
 1973POPC   D2A29200   7.773  36.260   8.445
 1973POPC   C3A29201   7.688  36.272   8.026
 1973POPC   C4A29202   7.254  36.329   7.851
 1973POPC   C1B29203   7.399  35.882   8.632
 1973POPC   C2B29204   7.281  36.058   8.280
 1973POPC   C3B29205   7.068  35.878   7.963
 1973POPC   C4B29206   7.212  35.636   7.654
 1974POPC   NC329207  33.973  30.645   9.547
 1974POPC   PO429208  33.673  31.161   9.370
 1974POPC   GL129209  33.711  30.845   9.079
 1974POPC   GL229210  34.050  30.891   9.074
 1974POPC   C1A29211  33.844  30.738   8.638
 1974POPC   D2A29212  33.952  30.986   8.292
 1974POPC   C3A29213  33.649  31.005   7.974
 1974POPC   C4A29214  33.484  30.602   7.875
 1974POPC   C1B29215  34.161  30.438   8.937
 1974POPC   C2B29216  34.140  30.283   8.524
 1974POPC   C3B29217  34.252  30.569   8.223
 1974POPC   C4B29218  34.024  30.675   7.869
 1975POPC   NC329219   9.696  21.005   9.479
 1975POPC   PO429220  10.023  20.301   9.535
 1975POPC   GL129221   9.761  20.424   9.203
 1975POPC   GL229222   9.934  20.705   9.152
 1975POPC   C1A29223   9.510  20.561   8.809
 1975POPC   D2A29224   9.498  20.745   8.360
 1975POPC   C3A29225   9.701  20.557   8.004
 1975POPC   C4A29226   9.548  20.375   7.642
 1975POPC   C1B29227  10.078  20.578   8.774
 1975POPC   C2B29228  10.031  20.726   8.367
 1975POPC   C3B29229  10.137  20.847   7.952
 1975POPC   C4B29230  10.001  20.607   7.582
 1976POPC   NC329231  14.581  13.648   9.601
 1976POPC   PO429232  13.937  13.736   9.508
 1976POPC   GL129233  14.273  13.719   9.181
 1976POPC   GL229234  14.526  13.985   9.226
 1976POPC   C1A29235  14.453  13.542   8.791
 1976POPC   D2A29236  14.404  13.721   8.379
 1976POPC   C3A29237  14.632  13.592   8.036
 1976POPC   C4A29238  14.421  13.451   7.678
 1976POPC   C1B29239  14.545  14.066   8.771
 1976POPC   C2B29240  14.775  14.069   8.338
 1976POPC   C3B29241  14.531  14.115   7.921
 1976POPC   C4B29242  14.424  13.994   7.449
 1977POPC   NC329243  30.815  42.855   9.417
 1977POPC   PO429244  30.480  42.176   9.471
 1977POPC   GL129245  30.737  42.302   9.145
 1977POPC   GL229246  31.085  42.137   9.133
 1977POPC   C1A29247  30.563  42.399   8.730
 1977POPC   D2A29248  30.513  42.088   8.394
 1977POPC   C3A29249  30.558  42.219   7.984
 1977POPC   C4A29250  30.860  42.484   7.791
 1977POPC   C1B29251  30.926  42.037   8.735
 1977POPC   C2B29252  31.161  42.084   8.378
 1977POPC   C3B29253  31.036  42.019   7.979
 1977POPC   C4B29254  31.149  42.108   7.589
 1978POPC   NC329255  40.084   5.830   9.531
 1978POPC   PO429256  40.126   6.350   9.212
 1978POPC   GL129257  39.921   6.002   9.053
 1978POPC   GL229258  40.064   5.684   9.058
 1978POPC   C1A29259  39.699   5.784   8.746
 1978POPC   D2A29260  39.685   5.532   8.424
 1978POPC   C3A29261  39.872   5.724   8.070
 1978POPC   C4A29262  39.729   6.066   7.794
 1978POPC   C1B29263  40.271   5.588   8.689
 1978POPC   C2B29264  40.339   5.710   8.262
 1978POPC   C3B29265  40.356   5.520   7.838
 1978POPC   C4B29266  40.353   5.479   7.367
 1979POPC   NC329267   8.707  15.464   9.438
 1979POPC   PO429268   9.372  15.411   9.648
 1979POPC   GL129269   9.074  15.101   9.387
 1979POPC   GL229270   9.195  15.252   9.152
 1979POPC   C1A29271   8.860  14.927   8.969
 1979POPC   D2A29272   8.691  14.835   8.540
 1979POPC   C3A29273   8.864  15.036   8.159
 1979POPC   C4A29274   9.017  15.074   7.744
 1979POPC   C1B29275   8.973  15.420   8.796
 1979POPC   C2B29276   9.016  15.504   8.346
 1979POPC   C3B29277   9.230  15.491   7.970
 1979POPC   C4B29278   9.169  15.535   7.531
 1980POPC   NC329279  29.560   6.514   9.620
 1980POPC   PO429280  30.208   6.609   9.546
 1980POPC   GL129281  29.888   6.635   9.207
 1980POPC   GL229282  29.975   6.367   9.053
 1980POPC   C1A29283  29.755   6.728   8.765
 1980POPC   D2A29284  29.917   6.465   8.410
 1980POPC   C3A29285  29.843   6.751   8.101
 1980POPC   C4A29286  29.625   6.854   7.761
 1980POPC   C1B29287  30.244   6.577   8.785
 1980POPC   C2B29288  30.431   6.575   8.384
 1980POPC   C3B29289  30.308   6.593   7.977
 1980POPC   C4B29290  29.991   6.428   7.718
 1981POPC   NC329291  12.325  17.776   9.432
 1981POPC   PO429292  11.791  17.416   9.520
 1981POPC   GL129293  11.884  17.286   9.106
 1981POPC   GL229294  12.196  17.398   9.117
 1981POPC   C1A29295  11.881  17.498   8.711
 1981POPC   D2A29296  12.028  17.399   8.304
 1981POPC   C3A29297  12.093  17.603   7.929
 1981POPC   C4A29298  11.981  17.499   7.534
 1981POPC   C1B29299  12.383  17.641   8.782
 1981POPC   C2B29300  12.580  17.651   8.389
 1981POPC   C3B29301  12.547  17.393   8.058
 1981POPC   C4B29302  12.461  17.342   7.649
 1982POPC   NC329303  13.278  18.794   9.449
 1982POPC   PO429304  12.643  18.976   9.403
 1982POPC   GL129305  12.901  18.892   9.084
 1982POPC   GL229306  13.056  19.200   9.076
 1982POPC   C1A29307  12.825  19.010   8.664
 1982POPC   D2A29308  12.575  18.912   8.325
 1982POPC   C3A29309  12.867  18.869   7.982
 1982POPC   C4A29310  12.907  19.153   7.665
 1982POPC   C1B29311  13.257  19.291   8.670
 1982POPC   C2B29312  13.088  19.271   8.233
 1982POPC   C3B29313  13.314  19.372   7.819
 1982POPC   C4B29314  13.215  19.617   7.414
 1983POPC   NC329315   3.229  17.176   9.502
 1983POPC   PO429316   2.613  17.572   9.485
 1983POPC   GL129317   2.873  17.614   9.164
 1983POPC   GL229318   2.881  17.247   9.144
 1983POPC   C1A29319   2.831  17.527   8.724
 1983POPC   D2A29320   2.664  17.394   8.360
 1983POPC   C3A29321   2.877  17.490   8.031
 1983POPC   C4A29322   2.785  17.570   7.636
 1983POPC   C1B29323   3.068  17.075   8.796
 1983POPC   C2B29324   3.148  17.237   8.411
 1983POPC   C3B29325   3.084  17.024   8.043
 1983POPC   C4B29326   3.109  17.203   7.655
 1984POPC   NC329327  33.086  44.800   9.991
 1984POPC   PO429328  33.527  44.440   9.580
 1984POPC   GL129329  33.281  44.570   9.192
 1984POPC   GL229330  32.951  44.780   9.171
 1984POPC   C1A29331  33.298  44.720   8.775
 1984POPC   D2A29332  33.082  44.640   8.409
 1984POPC   C3A29333  33.281  44.726   8.042
 1984POPC   C4A29334  33.259  44.556   7.668
 1984POPC   C1B29335  32.828  44.963   8.738
 1984POPC   C2B29336  32.667  44.893   8.282
 1984POPC   C3B29337  32.826  44.833   7.818
 1984POPC   C4B29338  32.972  44.848   7.360
 1985POPC   NC329339  26.448  28.851   9.396
 1985POPC   PO429340  27.068  28.962   9.565
 1985POPC   GL129341  27.084  29.198   9.168
 1985POPC   GL229342  26.779  29.120   9.131
 1985POPC   C1A29343  26.969  29.280   8.693
 1985POPC   D2A29344  26.923  29.517   8.290
 1985POPC   C3A29345  27.032  29.237   7.933
 1985POPC   C4A29346  26.884  28.876   7.704
 1985POPC   C1B29347  26.505  29.100   8.800
 1985POPC   C2B29348  26.412  28.931   8.456
 1985POPC   C3B29349  26.516  29.185   8.104
 1985POPC   C4B29350  26.574  29.275   7.684
 1986POPC   NC329351  13.155  22.121   9.515
 1986POPC   PO429352  12.500  22.186   9.578
 1986POPC   GL129353  12.778  22.170   9.179
 1986POPC   GL229354  12.868  21.829   9.186
 1986POPC   C1A29355  12.880  22.400   8.772
 1986POPC   D2A29356  13.036  22.469   8.373
 1986POPC   C3A29357  12.797  22.539   8.016
 1986POPC   C4A29358  12.949  22.394   7.598
 1986POPC   C1B29359  13.081  21.928   8.816
 1986POPC   C2B29360  12.994  21.962   8.404
 1986POPC   C3B29361  12.883  22.029   7.995
 1986POPC   C4B29362  12.584  21.738   7.863
 1987POPC   NC329363  42.840  36.061   9.486
 1987POPC   PO429364  43.535  36.098   9.341
 1987POPC   GL129365  43.258  35.834   9.022
 1987POPC   GL229366  42.860  35.797   9.030
 1987POPC   C1A29367  43.181  35.924   8.579
 1987POPC   D2A29368  43.120  36.378   8.397
 1987POPC   C3A29369  43.353  36.354   8.023
 1987POPC   C4A29370  43.358  35.964   7.752
 1987POPC   C1B29371  42.841  36.200   8.809
 1987POPC   C2B29372  42.708  36.095   8.359
 1987POPC   C3B29373  42.914  36.094   7.974
 1987POPC   C4B29374  42.835  36.027   7.540
 1988POPC   NC329375  28.959  37.797   9.780
 1988POPC   PO429376  29.461  37.460   9.413
 1988POPC   GL129377  29.123  37.775   9.293
 1988POPC   GL229378  28.805  37.580   9.234
 1988POPC   C1A29379  28.995  37.925   8.890
 1988POPC   D2A29380  29.263  37.916   8.503
 1988POPC   C3A29381  29.215  37.710   8.107
 1988POPC   C4A29382  29.227  37.860   7.706
 1988POPC   C1B29383  28.636  37.572   8.797
 1988POPC   C2B29384  28.803  37.544   8.363
 1988POPC   C3B29385  28.708  37.427   7.931
 1988POPC   C4B29386  28.814  37.646   7.523
 1989POPC   NC329387  35.726  32.969   9.411
 1989POPC   PO429388  36.300  32.737   9.622
 1989POPC   GL129389  36.313  32.727   9.164
 1989POPC   GL229390  36.425  33.057   9.061
 1989POPC   C1A29391  36.510  32.684   8.739
 1989POPC   D2A29392  36.420  32.912   8.342
 1989POPC   C3A29393  36.004  32.824   8.176
 1989POPC   C4A29394  35.725  33.040   7.879
 1989POPC   C1B29395  36.061  32.952   8.747
 1989POPC   C2B29396  35.874  33.264   8.417
 1989POPC   C3B29397  36.128  33.314   8.081
 1989POPC   C4B29398  36.310  33.005   7.811
 1990POPC   NC329399   5.658  36.779   9.646
 1990POPC   PO429400   6.148  37.264   9.386
 1990POPC   GL129401   5.845  36.974   9.190
 1990POPC   GL229402   5.544  37.067   9.151
 1990POPC   C1A29403   5.805  36.835   8.748
 1990POPC   D2A29404   6.020  36.790   8.336
 1990POPC   C3A29405   5.878  36.956   7.961
 1990POPC   C4A29406   5.679  36.827   7.609
 1990POPC   C1B29407   5.529  37.269   8.737
 1990POPC   C2B29408   5.636  37.248   8.290
 1990POPC   C3B29409   5.486  37.295   7.831
 1990POPC   C4B29410   5.506  37.216   7.327
 1991POPC   NC329411   1.659  38.902   9.664
 1991POPC   PO429412   2.217  38.453   9.605
 1991POPC   GL129413   2.320  38.277   9.179
 1991POPC   GL229414   2.102  38.485   8.971
 1991POPC   C1A29415   2.223  38.090   8.716
 1991POPC   D2A29416   2.085  38.472   8.461
 1991POPC   C3A29417   1.936  38.478   8.042
 1991POPC   C4A29418   1.767  38.475   7.640
 1991POPC   C1B29419   2.322  38.847   8.731
 1991POPC   C2B29420   2.194  38.986   8.342
 1991POPC   C3B29421   2.354  38.975   7.957
 1991POPC   C4B29422   2.191  38.738   7.648
 1992POPC   NC329423  14.762  23.891   9.280
 1992POPC   PO429424  15.117  23.460   9.694
 1992POPC   GL129425  15.262  23.705   9.228
 1992POPC   GL229426  15.511  24.005   9.224
 1992POPC   C1A29427  15.218  23.920   8.793
 1992POPC   D2A29428  15.149  24.059   8.346
 1992POPC   C3A29429  15.097  23.740   8.032
 1992POPC   C4A29430  15.357  23.537   7.741
 1992POPC   C1B29431  15.729  23.978   8.846
 1992POPC   C2B29432  15.639  24.063   8.436
 1992POPC   C3B29433  15.621  23.926   7.990
 1992POPC   C4B29434  15.471  24.018   7.563
 1993POPC   NC329435  24.834  20.446   9.959
 1993POPC   PO429436  24.638  20.899   9.706
 1993POPC   GL129437  24.560  20.839   9.243
 1993POPC   GL229438  24.772  21.000   8.989
 1993POPC   C1A29439  24.326  20.778   8.844
 1993POPC   D2A29440  24.288  20.530   8.455
 1993POPC   C3A29441  24.184  20.702   8.015
 1993POPC   C4A29442  24.261  20.547   7.577
 1993POPC   C1B29443  24.784  20.758   8.600
 1993POPC   C2B29444  24.631  20.821   8.205
 1993POPC   C3B29445  24.716  20.666   7.806
 1993POPC   C4B29446  25.122  20.463   7.674
 1994POPC   NC329447  44.160   6.336   9.495
 1994POPC   PO429448  43.647   6.677   9.449
 1994POPC   GL129449  43.794   6.453   9.132
 1994POPC   GL229450  44.060   6.690   9.123
 1994POPC   C1A29451  43.820   6.394   8.697
 1994POPC   D2A29452  43.714   6.647   8.336
 1994POPC   C3A29453  43.843   6.479   7.951
 1994POPC   C4A29454  43.588   6.384   7.610
 1994POPC   C1B29455  43.998   6.870   8.739
 1994POPC   C2B29456  44.169   6.885   8.348
 1994POPC   C3B29457  44.043   6.968   7.947
 1994POPC   C4B29458  43.847   6.854   7.586
 1995POPC   NC329459  29.410  37.001   9.377
 1995POPC   PO429460  28.799  36.627   9.472
 1995POPC   GL129461  28.929  36.679   9.043
 1995POPC   GL229462  29.268  36.699   8.971
 1995POPC   C1A29463  28.956  37.073   8.781
 1995POPC   D2A29464  29.242  37.323   8.500
 1995POPC   C3A29465  29.172  37.202   8.067
 1995POPC   C4A29466  29.085  37.235   7.634
 1995POPC   C1B29467  29.409  36.845   8.585
 1995POPC   C2B29468  29.284  36.719   8.188
 1995POPC   C3B29469  29.279  36.763   7.743
 1995POPC   C4B29470  29.287  36.634   7.316
 1996POPC   NC329471   2.476  11.879   9.621
 1996POPC   PO429472   3.078  11.670   9.493
 1996POPC   GL129473   2.988  11.935   9.116
 1996POPC   GL229474   2.654  12.106   9.142
 1996POPC   C1A29475   2.870  11.964   8.657
 1996POPC   D2A29476   2.581  11.940   8.281
 1996POPC   C3A29477   2.737  11.959   7.822
 1996POPC   C4A29478   2.686  11.850   7.361
 1996POPC   C1B29479   2.655  12.411   8.769
 1996POPC   C2B29480   2.791  12.399   8.321
 1996POPC   C3B29481   2.717  12.480   7.877
 1996POPC   C4B29482   2.470  12.787   7.604
 1997POPC   NC329483  20.397  43.631   9.510
 1997POPC   PO429484  20.912  44.122   9.745
 1997POPC   GL129485  20.738  43.990   9.317
 1997POPC   GL229486  20.393  44.055   9.180
 1997POPC   C1A29487  20.845  43.805   8.889
 1997POPC   D2A29488  20.730  43.655   8.468
 1997POPC   C3A29489  20.839  43.642   8.022
 1997POPC   C4A29490  20.897  43.963   7.727
 1997POPC   C1B29491  20.311  43.844   8.754
 1997POPC   C2B29492  20.284  43.840   8.276
 1997POPC   C3B29493  20.392  43.858   7.805
 1997POPC   C4B29494  20.218  43.849   7.349
 1998POPC   NC329495  14.514   2.322   9.386
 1998POPC   PO429496  14.460   3.005   9.483
 1998POPC   GL129497  14.453   3.055   9.054
 1998POPC   GL229498  14.258   2.749   9.053
 1998POPC   C1A29499  14.505   2.928   8.619
 1998POPC   D2A29500  14.674   2.926   8.208
 1998POPC   C3A29501  14.384   2.939   7.857
 1998POPC   C4A29502  14.122   2.571   7.658
 1998POPC   C1B29503  14.242   2.450   8.757
 1998POPC   C2B29504  14.504   2.407   8.431
 1998POPC   C3B29505  14.417   2.484   8.056
 1998POPC   C4B29506  14.607   2.421   7.664
 1999POPC   NC329507  38.601  30.394   9.582
 1999POPC   PO429508  38.834  31.018   9.482
 1999POPC   GL129509  38.623  30.894   9.102
 1999POPC   GL229510  38.237  30.874   9.056
 1999POPC   C1A29511  38.573  30.844   8.665
 1999POPC   D2A29512  38.452  30.709   8.301
 1999POPC   C3A29513  38.409  30.943   7.959
 1999POPC   C4A29514  38.572  30.730   7.629
 1999POPC   C1B29515  38.201  30.494   8.706
 1999POPC   C2B29516  38.166  30.284   8.285
 1999POPC   C3B29517  38.110  30.538   7.901
 1999POPC   C4B29518  38.101  30.537   7.436
 2000POPC   NC329519  35.381  34.232   9.417
 2000POPC   PO429520  35.241  34.863   9.497
 2000POPC   GL129521  35.471  34.665   9.146
 2000POPC   GL229522  35.600  34.947   8.954
 2000POPC   C1A29523  35.434  34.422   8.784
 2000POPC   D2A29524  35.249  34.463   8.399
 2000POPC   C3A29525  35.477  34.189   8.138
 2000POPC   C4A29526  35.381  34.160   7.719
 2000POPC   C1B29527  35.152  34.871   8.784
 2000POPC   C2B29528  34.995  34.943   8.360
 2000POPC   C3B29529  35.068  34.710   7.977
 2000POPC   C4B29530  35.501  34.627   7.868
 2001POPC   NC329531   2.575   1.490   9.345
 2001POPC   PO429532   2.485   0.839   9.376
 2001POPC   GL129533   2.671   1.011   9.052
 2001POPC   GL229534   2.952   1.192   9.130
 2001POPC   C1A29535   2.736   1.041   8.645
 2001POPC   D2A29536   2.673   1.393   8.431
 2001POPC   C3A29537   2.699   1.273   8.036
 2001POPC   C4A29538   2.442   1.291   7.703
 2001POPC   C1B29539   3.060   1.482   8.768
 2001POPC   C2B29540   3.091   1.625   8.293
 2001POPC   C3B29541   3.260   1.425   7.911
 2001POPC   C4B29542   2.969   1.207   7.606
 2002POPC   NC329543  29.413  40.258   9.774
 2002POPC   PO429544  29.006  40.818   9.479
 2002POPC   GL129545  29.231  40.687   9.144
 2002POPC   GL229546  29.414  40.971   9.045
 2002POPC   C1A29547  29.238  40.619   8.713
 2002POPC   D2A29548  29.357  40.861   8.361
 2002POPC   C3A29549  29.058  40.824   8.057
 2002POPC   C4A29550  28.981  40.511   7.756
 2002POPC   C1B29551  29.544  41.260   8.745
 2002POPC   C2B29552  29.630  41.300   8.309
 2002POPC   C3B29553  29.412  41.191   7.909
 2002POPC   C4B29554  29.317  41.135   7.450
 2003POPC   NC329555   0.953  40.394   9.875
 2003POPC   PO429556   0.919  39.831   9.452
 2003POPC   GL129557   1.187  39.783   9.057
 2003POPC   GL229558   1.010  39.966   8.820
 2003POPC   C1A29559   1.426  39.752   8.681
 2003POPC   D2A29560   1.160  39.659   8.354
 2003POPC   C3A29561   1.391  39.817   8.074
 2003POPC   C4A29562   1.395  40.027   7.724
 2003POPC   C1B29563   1.363  40.264   8.679
 2003POPC   C2B29564   1.511  40.291   8.233
 2003POPC   C3B29565   1.222  40.449   7.898
 2003POPC   C4B29566   1.202  40.385   7.393
 2004POPC   NC329567  37.251  18.000   9.764
 2004POPC   PO429568  37.870  18.122   9.482
 2004POPC   GL129569  37.693  18.385   9.173
 2004POPC   GL229570  37.349  18.282   9.202
 2004POPC   C1A29571  37.719  18.511   8.750
 2004POPC   D2A29572  37.456  18.495   8.389
 2004POPC   C3A29573  37.510  18.687   8.020
 2004POPC   C4A29574  37.858  18.618   7.748
 2004POPC   C1B29575  37.379  18.133   8.782
 2004POPC   C2B29576  37.418  17.981   8.356
 2004POPC   C3B29577  37.490  18.140   7.945
 2004POPC   C4B29578  37.433  17.892   7.584
 2005POPC   NC329579  44.922  18.791   9.789
 2005POPC   PO429580  44.730  19.052   9.253
 2005POPC   GL129581  44.814  19.182   8.891
 2005POPC   GL229582   0.063  19.476   9.000
 2005POPC   C1A29583  44.732  18.844   8.554
 2005POPC   D2A29584  44.492  18.785   8.150
 2005POPC   C3A29585  44.712  18.961   7.796
 2005POPC   C4A29586  44.654  19.371   7.640
 2005POPC   C1B29587   0.211  19.292   8.619
 2005POPC   C2B29588   0.116  19.043   8.259
 2005POPC   C3B29589   0.091  19.272   7.901
 2005POPC   C4B29590   0.227  19.225   7.497
 2006POPC   NC329591   8.764   0.226   9.497
 2006POPC   PO429592   9.279   0.687   9.483
 2006POPC   GL129593   9.163   0.388   9.188
 2006POPC   GL229594   8.881   0.597   9.151
 2006POPC   C1A29595   8.983   0.289   8.787
 2006POPC   D2A29596   9.017   0.418   8.413
 2006POPC   C3A29597   8.987   0.226   8.040
 2006POPC   C4A29598   8.903   0.354   7.609
 2006POPC   C1B29599   8.856   0.802   8.760
 2006POPC   C2B29600   8.780   0.867   8.350
 2006POPC   C3B29601   8.877   0.742   7.926
 2006POPC   C4B29602   8.698   0.804   7.492
 2007POPC   NC329603  32.019  36.955   9.609
 2007POPC   PO429604  32.650  36.826   9.383
 2007POPC   GL129605  32.265  36.872   9.137
 2007POPC   GL229606  31.956  37.101   9.147
 2007POPC   C1A29607  32.401  37.019   8.755
 2007POPC   D2A29608  32.581  37.065   8.372
 2007POPC   C3A29609  32.410  36.786   8.116
 2007POPC   C4A29610  32.480  36.591   7.768
 2007POPC   C1B29611  31.880  36.999   8.755
 2007POPC   C2B29612  32.052  37.018   8.391
 2007POPC   C3B29613  31.927  37.136   8.023
 2007POPC   C4B29614  32.103  36.959   7.721
 2008POPC   NC329615   7.877  13.702   9.608
 2008POPC   PO429616   8.332  13.246   9.522
 2008POPC   GL129617   8.239  13.411   9.136
 2008POPC   GL229618   8.189  13.764   9.192
 2008POPC   C1A29619   7.996  13.456   8.789
 2008POPC   D2A29620   7.929  13.603   8.389
 2008POPC   C3A29621   7.999  13.295   8.060
 2008POPC   C4A29622   8.180  13.342   7.646
 2008POPC   C1B29623   8.006  13.956   8.812
 2008POPC   C2B29624   7.898  14.174   8.470
 2008POPC   C3B29625   7.843  14.156   8.059
 2008POPC   C4B29626   8.022  13.783   7.900
 2009POPC   NC329627   4.015  36.453   9.490
 2009POPC   PO429628   4.668  36.180   9.455
 2009POPC   GL129629   4.354  36.225   9.148
 2009POPC   GL229630   4.021  36.036   9.126
 2009POPC   C1A29631   4.350  36.060   8.741
 2009POPC   D2A29632   4.574  36.062   8.371
 2009POPC   C3A29633   4.397  36.176   7.988
 2009POPC   C4A29634   4.494  36.528   7.774
 2009POPC   C1B29635   3.970  36.403   8.839
 2009POPC   C2B29636   4.183  36.463   8.446
 2009POPC   C3B29637   4.035  36.545   8.063
 2009POPC   C4B29638   3.990  36.348   7.678
 2010POPC   NC329639  21.736  39.894   9.604
 2010POPC   PO429640  21.199  40.299   9.515
 2010POPC   GL129641  21.354  40.136   9.177
 2010POPC   GL229642  21.311  39.792   9.096
 2010POPC   C1A29643  21.268  40.203   8.756
 2010POPC   D2A29644  21.279  40.161   8.351
 2010POPC   C3A29645  21.619  40.013   8.126
 2010POPC   C4A29646  21.421  39.941   7.757
 2010POPC   C1B29647  21.456  39.754   8.655
 2010POPC   C2B29648  21.243  39.661   8.266
 2010POPC   C3B29649  21.171  39.520   7.849
 2010POPC   C4B29650  21.420  39.548   7.442
 2011POPC   NC329651  27.416   6.341   9.582
 2011POPC   PO429652  27.953   6.822   9.483
 2011POPC   GL129653  27.789   6.607   9.129
 2011POPC   GL229654  27.458   6.560   9.111
 2011POPC   C1A29655  27.766   6.519   8.669
 2011POPC   D2A29656  27.625   6.328   8.276
 2011POPC   C3A29657  27.542   6.624   7.928
 2011POPC   C4A29658  27.455   6.987   7.723
 2011POPC   C1B29659  27.302   6.321   8.747
 2011POPC   C2B29660  27.087   6.428   8.383
 2011POPC   C3B29661  27.178   6.287   7.997
 2011POPC   C4B29662  27.452   6.205   7.649
 2012POPC   NC329663  15.549   6.405   9.532
 2012POPC   PO429664  14.957   6.281   9.353
 2012POPC   GL129665  15.217   5.917   9.146
 2012POPC   GL229666  15.553   5.791   9.247
 2012POPC   C1A29667  15.250   5.732   8.708
 2012POPC   D2A29668  15.219   6.013   8.330
 2012POPC   C3A29669  15.028   5.843   7.930
 2012POPC   C4A29670  14.689   5.951   7.648
 2012POPC   C1B29671  15.655   5.989   8.844
 2012POPC   C2B29672  15.720   5.822   8.407
 2012POPC   C3B29673  15.546   5.873   7.982
 2012POPC   C4B29674  15.411   5.628   7.613
 2013POPC   NC329675  10.804  40.525   9.429
 2013POPC   PO429676  10.587  41.153   9.562
 2013POPC   GL129677  10.515  40.948   9.140
 2013POPC   GL229678  10.567  40.588   8.979
 2013POPC   C1A29679  10.610  41.031   8.695
 2013POPC   D2A29680  10.472  40.982   8.277
 2013POPC   C3A29681  10.753  40.793   7.979
 2013POPC   C4A29682  10.685  40.862   7.538
 2013POPC   C1B29683  10.239  40.639   8.670
 2013POPC   C2B29684  10.075  40.611   8.235
 2013POPC   C3B29685  10.243  40.754   7.842
 2013POPC   C4B29686  10.228  40.677   7.397
 2014POPC   NC329687   3.487  16.388   9.463
 2014POPC   PO429688   3.685  16.976   9.650
 2014POPC   GL129689   3.658  16.811   9.236
 2014POPC   GL229690   3.887  16.546   9.143
 2014POPC   C1A29691   3.428  16.673   8.864
 2014POPC   D2A29692   3.401  16.823   8.475
 2014POPC   C3A29693   3.298  16.557   8.195
 2014POPC   C4A29694   3.205  16.541   7.798
 2014POPC   C1B29695   3.888  16.557   8.734
 2014POPC   C2B29696   3.892  16.797   8.417
 2014POPC   C3B29697   3.776  16.693   8.023
 2014POPC   C4B29698   3.532  16.963   7.800
 2015POPC   NC329699  14.850  43.059   9.389
 2015POPC   PO429700  14.200  42.710   9.464
 2015POPC   GL129701  14.324  43.058   9.180
 2015POPC   GL229702  14.089  43.341   9.204
 2015POPC   C1A29703  14.595  43.120   8.807
 2015POPC   D2A29704  14.799  43.127   8.421
 2015POPC   C3A29705  14.530  42.996   8.103
 2015POPC   C4A29706  14.387  43.092   7.669
 2015POPC   C1B29707  14.275  43.526   8.853
 2015POPC   C2B29708  14.330  43.402   8.448
 2015POPC   C3B29709  14.182  43.371   8.065
 2015POPC   C4B29710  13.901  43.117   7.849
 2016POPC   NC329711  41.766  20.101   9.344
 2016POPC   PO429712  41.676  19.354   9.421
 2016POPC   GL129713  41.578  19.652   9.050
 2016POPC   GL229714  41.338  19.943   9.089
 2016POPC   C1A29715  41.396  19.588   8.604
 2016POPC   D2A29716  41.204  19.488   8.186
 2016POPC   C3A29717  41.413  19.690   7.836
 2016POPC   C4A29718  41.791  19.990   7.850
 2016POPC   C1B29719  41.193  20.052   8.680
 2016POPC   C2B29720  41.209  20.023   8.208
 2016POPC   C3B29721  41.229  20.176   7.770
 2016POPC   C4B29722  41.172  20.372   7.340
 2017POPC   NC329723   2.940  19.535   9.472
 2017POPC   PO429724   2.450  20.000   9.451
 2017POPC   GL129725   2.560  19.688   9.157
 2017POPC   GL229726   2.840  19.897   9.086
 2017POPC   C1A29727   2.477  19.598   8.730
 2017POPC   D2A29728   2.709  19.660   8.332
 2017POPC   C3A29729   2.478  19.600   7.917
 2017POPC   C4A29730   2.701  19.638   7.517
 2017POPC   C1B29731   2.643  20.072   8.732
 2017POPC   C2B29732   2.711  20.178   8.290
 2017POPC   C3B29733   2.793  19.986   7.895
 2017POPC   C4B29734   2.556  20.108   7.520
 2018POPC   NC329735  21.903   9.674   9.534
 2018POPC   PO429736  22.430  10.062   9.507
 2018POPC   GL129737  22.149   9.949   9.160
 2018POPC   GL229738  22.096   9.581   9.081
 2018POPC   C1A29739  22.002   9.970   8.743
 2018POPC   D2A29740  22.016  10.152   8.344
 2018POPC   C3A29741  22.066   9.990   7.915
 2018POPC   C4A29742  22.398   9.827   7.643
 2018POPC   C1B29743  21.943   9.476   8.666
 2018POPC   C2B29744  22.098   9.650   8.310
 2018POPC   C3B29745  22.139   9.473   7.916
 2018POPC   C4B29746  21.977   9.446   7.520
 2019POPC   NC329747   3.350  43.253   9.455
 2019POPC   PO429748   3.668  42.655   9.393
 2019POPC   GL129749   3.547  42.891   9.049
 2019POPC   GL229750   3.647  43.215   9.055
 2019POPC   C1A29751   3.508  43.077   8.614
 2019POPC   D2A29752   3.469  43.357   8.291
 2019POPC   C3A29753   3.571  43.108   7.935
 2019POPC   C4A29754   3.453  42.837   7.608
 2019POPC   C1B29755   3.824  43.554   8.777
 2019POPC   C2B29756   3.825  43.768   8.353
 2019POPC   C3B29757   3.755  43.597   7.925
 2019POPC   C4B29758   3.969  43.474   7.543
 2020POPC   NC329759   6.508  41.066   9.461
 2020POPC   PO429760   6.535  41.668   9.541
 2020POPC   GL129761   6.581  41.572   9.121
 2020POPC   GL229762   6.877  41.698   9.006
 2020POPC   C1A29763   6.450  41.766   8.721
 2020POPC   D2A29764   6.269  41.887   8.319
 2020POPC   C3A29765   6.372  41.549   8.039
 2020POPC   C4A29766   6.693  41.488   7.731
 2020POPC   C1B29767   6.966  41.430   8.637
 2020POPC   C2B29768   7.071  41.236   8.217
 2020POPC   C3B29769   7.118  41.215   7.771
 2020POPC   C4B29770   7.015  41.267   7.342
 2021POPC   NC329771  32.094  38.005   9.536
 2021POPC   PO429772  32.275  37.332   9.599
 2021POPC   GL129773  32.289  37.622   9.266
 2021POPC   GL229774  32.340  37.409   9.065
 2021POPC   C1A29775  32.331  37.880   8.876
 2021POPC   D2A29776  32.039  37.926   8.517
 2021POPC   C3A29777  32.175  37.905   8.069
 2021POPC   C4A29778  31.912  37.945   7.714
 2021POPC   C1B29779  32.084  37.452   8.752
 2021POPC   C2B29780  32.237  37.482   8.370
 2021POPC   C3B29781  32.388  37.376   8.001
 2021POPC   C4B29782  32.154  37.506   7.684
 2022POPC   NC329783  22.915  41.163   9.447
 2022POPC   PO429784  22.559  40.593   9.489
 2022POPC   GL129785  22.860  40.678   9.145
 2022POPC   GL229786  22.912  40.992   8.979
 2022POPC   C1A29787  22.933  40.556   8.686
 2022POPC   D2A29788  22.806  40.627   8.243
 2022POPC   C3A29789  22.976  40.473   7.859
 2022POPC   C4A29790  23.356  40.417   7.617
 2022POPC   C1B29791  22.817  41.035   8.547
 2022POPC   C2B29792  23.111  41.057   8.215
 2022POPC   C3B29793  23.249  40.915   7.799
 2022POPC   C4B29794  23.233  41.178   7.444
 2023POPC   NC329795  29.544  31.916   9.508
 2023POPC   PO429796  29.586  32.482   9.483
 2023POPC   GL129797  29.885  32.296   9.197
 2023POPC   GL229798  29.855  31.928   9.116
 2023POPC   C1A29799  30.035  32.244   8.776
 2023POPC   D2A29800  30.249  32.300   8.407
 2023POPC   C3A29801  30.038  32.251   8.042
 2023POPC   C4A29802  30.182  32.505   7.716
 2023POPC   C1B29803  29.669  31.865   8.716
 2023POPC   C2B29804  29.974  31.792   8.410
 2023POPC   C3B29805  30.349  31.836   8.177
 2023POPC   C4B29806  30.217  31.856   7.766
 2024POPC   NC329807  39.014  34.376   9.458
 2024POPC   PO429808  39.386  34.940   9.481
 2024POPC   GL129809  39.418  34.658   9.177
 2024POPC   GL229810  39.554  34.904   8.984
 2024POPC   C1A29811  39.379  34.341   8.856
 2024POPC   D2A29812  39.593  34.167   8.499
 2024POPC   C3A29813  39.525  34.467   8.191
 2024POPC   C4A29814  39.193  34.429   7.857
 2024POPC   C1B29815  39.204  34.813   8.695
 2024POPC   C2B29816  39.003  34.617   8.334
 2024POPC   C3B29817  38.815  34.764   7.967
 2024POPC   C4B29818  38.972  34.779   7.560
 2025POPC   NC329819  26.105   1.821   9.592
 2025POPC   PO429820  26.447   2.412   9.515
 2025POPC   GL129821  26.265   2.125   9.164
 2025POPC   GL229822  25.957   1.960   9.123
 2025POPC   C1A29823  26.185   2.071   8.689
 2025POPC   D2A29824  26.374   1.984   8.292
 2025POPC   C3A29825  26.206   2.051   7.840
 2025POPC   C4A29826  26.340   2.003   7.391
 2025POPC   C1B29827  25.702   1.890   8.755
 2025POPC   C2B29828  25.835   1.857   8.331
 2025POPC   C3B29829  25.664   1.847   7.912
 2025POPC   C4B29830  25.817   1.983   7.490
 2026POPC   NC329831   8.700  35.486   9.304
 2026POPC   PO429832   9.173  35.040   9.544
 2026POPC   GL129833   9.170  35.309   9.162
 2026POPC   GL229834   9.203  35.695   9.197
 2026POPC   C1A29835   8.986  35.375   8.724
 2026POPC   D2A29836   8.831  35.462   8.293
 2026POPC   C3A29837   9.079  35.228   8.012
 2026POPC   C4A29838   9.395  35.132   7.698
 2026POPC   C1B29839   9.263  35.815   8.810
 2026POPC   C2B29840   9.315  35.648   8.418
 2026POPC   C3B29841   9.265  35.723   7.991
 2026POPC   C4B29842   9.293  35.673   7.525
 2027POPC   NC329843  38.914  23.805   9.419
 2027POPC   PO429844  38.352  23.495   9.488
 2027POPC   GL129845  38.498  23.598   9.107
 2027POPC   GL229846  38.768  23.378   9.137
 2027POPC   C1A29847  38.322  23.720   8.704
 2027POPC   D2A29848  38.051  23.733   8.351
 2027POPC   C3A29849  38.305  23.788   7.972
 2027POPC   C4A29850  38.396  23.567   7.601
 2027POPC   C1B29851  38.833  23.537   8.719
 2027POPC   C2B29852  38.649  23.570   8.314
 2027POPC   C3B29853  38.805  23.435   7.911
 2027POPC   C4B29854  38.816  23.312   7.451
 2028POPC   NC329855   7.223  14.780   9.471
 2028POPC   PO429856   7.044  14.182   9.415
 2028POPC   GL129857   7.220  14.399   9.078
 2028POPC   GL229858   7.567  14.495   9.153
 2028POPC   C1A29859   7.407  14.252   8.697
 2028POPC   D2A29860   7.371  14.381   8.265
 2028POPC   C3A29861   7.355  14.100   7.929
 2028POPC   C4A29862   7.631  13.948   7.631
 2028POPC   C1B29863   7.485  14.751   8.763
 2028POPC   C2B29864   7.453  14.883   8.306
 2028POPC   C3B29865   7.539  14.702   7.883
 2028POPC   C4B29866   7.622  14.438   7.525
 2029POPC   NC329867  23.249  38.284   9.845
 2029POPC   PO429868  22.941  38.650   9.561
 2029POPC   GL129869  23.004  38.458   9.148
 2029POPC   GL229870  22.768  38.187   9.088
 2029POPC   C1A29871  23.061  38.461   8.681
 2029POPC   D2A29872  22.791  38.514   8.276
 2029POPC   C3A29873  23.013  38.579   7.869
 2029POPC   C4A29874  23.433  38.426   7.735
 2029POPC   C1B29875  22.666  38.132   8.643
 2029POPC   C2B29876  22.566  38.061   8.199
 2029POPC   C3B29877  22.624  38.269   7.779
 2029POPC   C4B29878  22.645  38.650   7.486
 2030POPC   NC329879  24.742   1.351   9.406
 2030POPC   PO429880  24.206   1.007   9.643
 2030POPC   GL129881  24.404   0.956   9.207
 2030POPC   GL229882  24.751   0.931   9.095
 2030POPC   C1A29883  24.396   0.965   8.726
 2030POPC   D2A29884  24.598   1.040   8.308
 2030POPC   C3A29885  24.311   0.989   7.982
 2030POPC   C4A29886  24.199   1.346   7.701
 2030POPC   C1B29887  24.857   1.212   8.729
 2030POPC   C2B29888  24.905   1.443   8.327
 2030POPC   C3B29889  24.691   1.454   7.909
 2030POPC   C4B29890  24.652   1.113   7.646
 2031POPC   NC329891  42.991  44.140   9.519
 2031POPC   PO429892  42.983  43.572   9.176
 2031POPC   GL129893  43.113  43.963   9.052
 2031POPC   GL229894  43.468  43.972   9.178
 2031POPC   C1A29895  42.984  43.990   8.638
 2031POPC   D2A29896  42.714  43.683   8.365
 2031POPC   C3A29897  42.907  43.631   7.971
 2031POPC   C4A29898  42.999  43.924   7.699
 2031POPC   C1B29899  43.504  43.870   8.718
 2031POPC   C2B29900  43.336  43.835   8.297
 2031POPC   C3B29901  43.456  44.034   7.934
 2031POPC   C4B29902  43.476  43.889   7.502
 2032POPC   NC329903  29.569  15.069   9.583
 2032POPC   PO429904  28.892  15.152   9.629
 2032POPC   GL129905  29.107  15.204   9.249
 2032POPC   GL229906  29.187  14.887   9.195
 2032POPC   C1A29907  29.036  15.326   8.815
 2032POPC   D2A29908  29.113  15.533   8.425
 2032POPC   C3A29909  29.014  15.355   8.061
 2032POPC   C4A29910  29.053  15.448   7.657
 2032POPC   C1B29911  29.251  14.802   8.794
 2032POPC   C2B29912  29.194  15.018   8.410
 2032POPC   C3B29913  29.185  14.863   7.996
 2032POPC   C4B29914  29.486  14.648   7.766
 2033POPC   NC329915  22.125  30.793   9.670
 2033POPC   PO429916  22.356  30.189   9.753
 2033POPC   GL129917  22.355  30.476   9.336
 2033POPC   GL229918  22.043  30.500   9.155
 2033POPC   C1A29919  22.484  30.688   8.902
 2033POPC   D2A29920  22.577  30.588   8.425
 2033POPC   C3A29921  22.529  30.833   8.012
 2033POPC   C4A29922  22.847  31.159   7.926
 2033POPC   C1B29923  22.158  30.363   8.709
 2033POPC   C2B29924  22.094  30.546   8.299
 2033POPC   C3B29925  22.024  30.920   8.048
 2033POPC   C4B29926  21.835  30.901   7.643
 2034POPC   NC329927  28.018  31.509   9.425
 2034POPC   PO429928  28.563  31.176   9.658
 2034POPC   GL129929  28.650  31.455   9.271
 2034POPC   GL229930  28.391  31.405   9.083
 2034POPC   C1A29931  28.673  31.710   8.829
 2034POPC   D2A29932  28.543  31.567   8.403
 2034POPC   C3A29933  28.621  31.728   7.976
 2034POPC   C4A29934  28.440  31.625   7.587
 2034POPC   C1B29935  28.144  31.613   8.781
 2034POPC   C2B29936  28.101  31.853   8.394
 2034POPC   C3B29937  28.078  31.678   7.978
 2034POPC   C4B29938  27.930  31.773   7.552
 2035POPC   NC329939   4.016   1.732   9.447
 2035POPC   PO429940   4.366   2.262   9.463
 2035POPC   GL129941   4.047   2.255   9.171
 2035POPC   GL229942   4.237   1.964   9.023
 2035POPC   C1A29943   3.923   2.238   8.731
 2035POPC   D2A29944   4.266   2.064   8.415
 2035POPC   C3A29945   4.152   2.087   7.976
 2035POPC   C4A29946   4.063   2.335   7.642
 2035POPC   C1B29947   4.384   1.537   8.863
 2035POPC   C2B29948   4.547   1.496   8.445
 2035POPC   C3B29949   4.350   1.610   8.071
 2035POPC   C4B29950   4.433   1.787   7.666
 2036POPC   NC329951  13.710   0.945   9.466
 2036POPC   PO429952  13.187   1.359   9.569
 2036POPC   GL129953  13.343   1.162   9.203
 2036POPC   GL229954  13.589   1.416   9.134
 2036POPC   C1A29955  13.485   0.965   8.829
 2036POPC   D2A29956  13.703   1.083   8.477
 2036POPC   C3A29957  13.481   1.137   8.097
 2036POPC   C4A29958  13.695   1.133   7.720
 2036POPC   C1B29959  13.453   1.729   8.816
 2036POPC   C2B29960  13.410   1.576   8.406
 2036POPC   C3B29961  13.246   1.720   8.013
 2036POPC   C4B29962  13.415   1.548   7.659
 2037POPC   NC329963  28.828   5.625   9.459
 2037POPC   PO429964  29.360   6.081   9.595
 2037POPC   GL129965  29.088   5.977   9.184
 2037POPC   GL229966  29.074   5.634   9.026
 2037POPC   C1A29967  29.077   6.079   8.735
 2037POPC   D2A29968  28.953   6.260   8.304
 2037POPC   C3A29969  29.063   6.035   7.952
 2037POPC   C4A29970  29.312   5.936   7.579
 2037POPC   C1B29971  28.704   5.771   8.819
 2037POPC   C2B29972  28.784   5.798   8.409
 2037POPC   C3B29973  29.040   5.556   8.168
 2037POPC   C4B29974  29.094   5.507   7.750
 2038POPC   NC329975  39.850  34.924   9.501
 2038POPC   PO429976  40.085  34.228   9.414
 2038POPC   GL129977  39.941  34.586   9.111
 2038POPC   GL229978  40.203  34.806   8.896
 2038POPC   C1A29979  39.826  34.569   8.677
 2038POPC   D2A29980  40.134  34.697   8.366
 2038POPC   C3A29981  40.072  34.447   8.023
 2038POPC   C4A29982  39.764  34.434   7.746
 2038POPC   C1B29983  39.895  35.063   8.671
 2038POPC   C2B29984  39.662  34.972   8.328
 2038POPC   C3B29985  39.914  34.944   7.939
 2038POPC   C4B29986  39.844  34.899   7.488
 2039POPC   NC329987  21.464  23.159   9.556
 2039POPC   PO429988  21.088  22.660   9.449
 2039POPC   GL129989  21.382  22.931   9.105
 2039POPC   GL229990  21.594  23.291   9.092
 2039POPC   C1A29991  21.619  22.801   8.721
 2039POPC   D2A29992  21.724  22.542   8.340
 2039POPC   C3A29993  21.518  22.656   7.945
 2039POPC   C4A29994  21.052  22.570   7.875
 2039POPC   C1B29995  21.429  23.283   8.678
 2039POPC   C2B29996  21.417  23.060   8.273
 2039POPC   C3B29997  21.367  23.154   7.825
 2039POPC   C4B29998  21.644  23.326   7.520
 2040POPC   NC329999   6.278   2.882   9.616
 2040POPC   PO430000   5.555   2.742   9.660
 2040POPC   GL130001   5.886   2.564   9.371
 2040POPC   GL230002   5.903   2.882   9.256
 2040POPC   C1A30003   6.070   2.547   8.939
 2040POPC   D2A30004   6.099   2.754   8.539
 2040POPC   C3A30005   5.960   2.572   8.187
 2040POPC   C4A30006   5.908   2.824   7.837
 2040POPC   C1B30007   5.898   3.093   8.850
 2040POPC   C2B30008   6.091   3.279   8.479
 2040POPC   C3B30009   6.058   3.270   8.050
 2040POPC   C4B30010   6.241   3.216   7.646
 2041POPC   NC330011  15.411  12.361   9.345
 2041POPC   PO430012  15.205  11.807   9.656
 2041POPC   GL130013  15.006  12.027   9.284
 2041POPC   GL230014  15.276  11.946   9.051
 2041POPC   C1A30015  14.891  12.227   8.874
 2041POPC   D2A30016  14.993  12.042   8.470
 2041POPC   C3A30017  14.986  12.270   8.096
 2041POPC   C4A30018  14.815  12.168   7.708
 2041POPC   C1B30019  15.389  12.253   8.715
 2041POPC   C2B30020  15.418  12.528   8.356
 2041POPC   C3B30021  15.473  12.416   7.939
 2041POPC   C4B30022  15.376  12.053   7.755
 2042POPC   NC330023  44.541  41.940   9.293
 2042POPC   PO430024  44.945  41.677   9.829
 2042POPC   GL130025  44.973  41.600   9.318
 2042POPC   GL230026   0.043  41.896   9.067
 2042POPC   C1A30027  44.943  41.474   8.834
 2042POPC   D2A30028  44.613  41.601   8.506
 2042POPC   C3A30029  44.572  41.509   8.066
 2042POPC   C4A30030  44.466  41.759   7.705
 2042POPC   C1B30031  44.903  42.014   8.660
 2042POPC   C2B30032  44.861  42.209   8.245
 2042POPC   C3B30033  44.869  42.020   7.863
 2042POPC   C4B30034  44.953  41.588   7.722
 2043POPC   NC330035   6.358  15.578   9.272
 2043POPC   PO430036   6.850  15.135   9.525
 2043POPC   GL130037   6.581  15.087   9.180
 2043POPC   GL230038   6.805  15.282   9.036
 2043POPC   C1A30039   6.435  14.821   8.811
 2043POPC   D2A30040   6.524  14.864   8.344
 2043POPC   C3A30041   6.350  14.716   7.936
 2043POPC   C4A30042   6.318  15.003   7.555
 2043POPC   C1B30043   6.710  15.250   8.639
 2043POPC   C2B30044   6.877  15.194   8.246
 2043POPC   C3B30045   6.733  15.136   7.846
 2043POPC   C4B30046   7.011  15.202   7.504
 2044POPC   NC330047  41.672   6.375   9.446
 2044POPC   PO430048  41.254   6.879   9.370
 2044POPC   GL130049  41.482   6.672   9.091
 2044POPC   GL230050  41.820   6.788   9.163
 2044POPC   C1A30051  41.361   6.582   8.719
 2044POPC   D2A30052  41.474   6.415   8.353
 2044POPC   C3A30053  41.379   6.589   8.000
 2044POPC   C4A30054  41.626   6.467   7.665
 2044POPC   C1B30055  41.656   7.061   8.816
 2044POPC   C2B30056  41.647   6.889   8.414
 2044POPC   C3B30057  41.857   6.748   8.075
 2044POPC   C4B30058  41.645   6.966   7.772
 2045POPC   NC330059  32.993   5.509   9.764
 2045POPC   PO430060  33.132   4.931   9.994
 2045POPC   GL130061  33.001   5.107   9.455
 2045POPC   GL230062  33.057   5.435   9.266
 2045POPC   C1A30063  32.986   4.913   8.970
 2045POPC   D2A30064  32.935   5.006   8.499
 2045POPC   C3A30065  33.079   4.866   8.049
 2045POPC   C4A30066  33.259   5.000   7.611
 2045POPC   C1B30067  33.091   5.388   8.825
 2045POPC   C2B30068  32.978   5.510   8.393
 2045POPC   C3B30069  33.035   5.385   7.958
 2045POPC   C4B30070  33.151   5.588   7.583
 2046POPC   NC330071  37.597  34.947   9.394
 2046POPC   PO430072  38.068  35.271   9.326
 2046POPC   GL130073  37.841  35.496   9.042
 2046POPC   GL230074  37.475  35.440   9.102
 2046POPC   C1A30075  37.894  35.414   8.618
 2046POPC   D2A30076  38.023  35.083   8.331
 2046POPC   C3A30077  38.040  35.262   7.908
 2046POPC   C4A30078  37.791  35.443   7.584
 2046POPC   C1B30079  37.450  35.171   8.727
 2046POPC   C2B30080  37.508  35.242   8.255
 2046POPC   C3B30081  37.348  35.452   7.851
 2046POPC   C4B30082  37.351  35.252   7.395
 2047POPC   NC330083  32.175  39.885   9.568
 2047POPC   PO430084  32.828  39.804   9.549
 2047POPC   GL130085  32.487  39.865   9.156
 2047POPC   GL230086  32.133  40.108   9.119
 2047POPC   C1A30087  32.339  39.922   8.696
 2047POPC   D2A30088  32.223  40.029   8.271
 2047POPC   C3A30089  32.367  39.830   7.894
 2047POPC   C4A30090  32.214  40.100   7.566
 2047POPC   C1B30091  32.124  40.403   8.757
 2047POPC   C2B30092  31.892  40.408   8.365
 2047POPC   C3B30093  31.933  40.330   7.913
 2047POPC   C4B30094  31.841  40.407   7.419
 2048POPC   NC330095  33.048   2.113   9.565
 2048POPC   PO430096  33.462   2.213   9.097
 2048POPC   GL130097  33.038   2.362   9.059
 2048POPC   GL230098  32.784   2.112   9.127
 2048POPC   C1A30099  32.872   2.269   8.651
 2048POPC   D2A30100  32.784   1.997   8.353
 2048POPC   C3A30101  32.871   2.127   7.987
 2048POPC   C4A30102  33.068   2.167   7.593
 2048POPC   C1B30103  32.990   1.803   8.834
 2048POPC   C2B30104  33.262   1.863   8.460
 2048POPC   C3B30105  33.313   1.895   8.016
 2048POPC   C4B30106  33.210   1.662   7.666
 2049POPC   NC330107  16.689  39.724   9.431
 2049POPC   PO430108  17.106  40.191   9.591
 2049POPC   GL130109  16.937  40.127   9.182
 2049POPC   GL230110  16.766  40.443   9.103
 2049POPC   C1A30111  16.632  40.016   8.848
 2049POPC   D2A30112  16.519  40.150   8.456
 2049POPC   C3A30113  16.550  39.970   8.059
 2049POPC   C4A30114  16.532  40.204   7.659
 2049POPC   C1B30115  17.008  40.366   8.700
 2049POPC   C2B30116  17.196  40.441   8.283
 2049POPC   C3B30117  16.972  40.258   7.964
 2049POPC   C4B30118  16.952  39.845   7.772
 2050POPC   NC330119  38.477   8.545   9.211
 2050POPC   PO430120  38.656   9.136   9.522
 2050POPC   GL130121  38.469   9.066   9.129
 2050POPC   GL230122  38.146   8.928   9.156
 2050POPC   C1A30123  38.633   9.138   8.712
 2050POPC   D2A30124  38.837   9.006   8.345
 2050POPC   C3A30125  38.656   9.140   7.949
 2050POPC   C4A30126  38.517   8.867   7.624
 2050POPC   C1B30127  38.202   8.855   8.718
 2050POPC   C2B30128  38.282   9.019   8.325
 2050POPC   C3B30129  38.143   8.838   7.971
 2050POPC   C4B30130  37.791   8.705   7.662
 2051POPC   NC330131  18.327  30.649   9.646
 2051POPC   PO430132  17.993  31.174   9.469
 2051POPC   GL130133  18.223  30.828   9.178
 2051POPC   GL230134  18.424  30.448   9.198
 2051POPC   C1A30135  18.312  30.683   8.760
 2051POPC   D2A30136  18.178  30.773   8.345
 2051POPC   C3A30137  18.224  30.611   7.920
 2051POPC   C4A30138  18.008  30.949   7.679
 2051POPC   C1B30139  18.455  30.202   8.800
 2051POPC   C2B30140  18.523  30.310   8.354
 2051POPC   C3B30141  18.692  30.336   7.920
 2051POPC   C4B30142  18.509  30.420   7.475
 2052POPC   NC330143  19.062  31.566   9.519
 2052POPC   PO430144  18.669  30.972   9.542
 2052POPC   GL130145  18.799  31.212   9.142
 2052POPC   GL230146  19.029  31.493   9.031
 2052POPC   C1A30147  18.928  31.167   8.691
 2052POPC   D2A30148  19.074  31.088   8.274
 2052POPC   C3A30149  18.838  31.277   8.006
 2052POPC   C4A30150  19.030  31.453   7.676
 2052POPC   C1B30151  18.939  31.713   8.633
 2052POPC   C2B30152  19.117  31.681   8.207
 2052POPC   C3B30153  19.251  31.886   7.816
 2052POPC   C4B30154  19.153  31.822   7.358
 2053POPC   NC330155  26.500  35.794   9.513
 2053POPC   PO430156  27.120  35.837   9.516
 2053POPC   GL130157  27.094  36.024   9.104
 2053POPC   GL230158  26.728  36.099   9.090
 2053POPC   C1A30159  27.218  36.114   8.666
 2053POPC   D2A30160  26.944  36.209   8.290
 2053POPC   C3A30161  26.952  36.012   7.886
 2053POPC   C4A30162  26.790  35.706   7.569
 2053POPC   C1B30163  26.790  36.421   8.755
 2053POPC   C2B30164  26.632  36.606   8.348
 2053POPC   C3B30165  26.599  36.472   7.910
 2053POPC   C4B30166  26.634  36.701   7.508
 2054POPC   NC330167  40.309  15.530   9.428
 2054POPC   PO430168  39.829  14.971   9.386
 2054POPC   GL130169  39.977  15.290   9.105
 2054POPC   GL230170  39.676  15.392   8.952
 2054POPC   C1A30171  40.116  15.537   8.729
 2054POPC   D2A30172  39.943  15.611   8.291
 2054POPC   C3A30173  40.209  15.526   7.917
 2054POPC   C4A30174  40.167  15.192   7.620
 2054POPC   C1B30175  39.788  15.126   8.636
 2054POPC   C2B30176  39.558  15.161   8.269
 2054POPC   C3B30177  39.727  15.213   7.875
 2054POPC   C4B30178  39.701  14.947   7.505
 2055POPC   NC330179  15.466   2.131   9.437
 2055POPC   PO430180  14.959   1.606   9.561
 2055POPC   GL130181  15.203   1.745   9.190
 2055POPC   GL230182  15.501   1.662   9.171
 2055POPC   C1A30183  15.213   1.974   8.793
 2055POPC   D2A30184  15.361   1.909   8.373
 2055POPC   C3A30185  15.135   1.871   7.985
 2055POPC   C4A30186  15.064   2.195   7.693
 2055POPC   C1B30187  15.548   1.566   8.738
 2055POPC   C2B30188  15.525   1.417   8.310
 2055POPC   C3B30189  15.622   1.711   7.967
 2055POPC   C4B30190  15.543   1.702   7.506
 2056POPC   NC330191  19.945   0.144   9.455
 2056POPC   PO430192  19.709   0.770   9.547
 2056POPC   GL130193  19.687   0.621   9.139
 2056POPC   GL230194  19.549   0.298   9.043
 2056POPC   C1A30195  19.916   0.538   8.784
 2056POPC   D2A30196  19.861   0.737   8.395
 2056POPC   C3A30197  19.628   0.625   8.054
 2056POPC   C4A30198  19.840   0.708   7.651
 2056POPC   C1B30199  19.754   0.042   8.734
 2056POPC   C2B30200  19.947   0.231   8.371
 2056POPC   C3B30201  19.942   0.250   7.932
 2056POPC   C4B30202  19.565   0.297   7.656
 2057POPC   NC330203   3.213  11.212   9.542
 2057POPC   PO430204   3.838  11.356   9.456
 2057POPC   GL130205   3.565  11.257   9.155
 2057POPC   GL230206   3.718  11.009   9.066
 2057POPC   C1A30207   3.596  11.352   8.699
 2057POPC   D2A30208   3.856  11.532   8.351
 2057POPC   C3A30209   3.607  11.577   7.989
 2057POPC   C4A30210   3.431  11.248   7.707
 2057POPC   C1B30211   3.771  10.849   8.676
 2057POPC   C2B30212   3.600  10.981   8.296
 2057POPC   C3B30213   3.539  10.766   7.913
 2057POPC   C4B30214   3.755  10.841   7.549
 2058POPC   NC330215  15.975  13.069   9.454
 2058POPC   PO430216  15.614  12.495   9.739
 2058POPC   GL130217  15.856  12.581   9.286
 2058POPC   GL230218  16.172  12.638   9.126
 2058POPC   C1A30219  15.809  12.556   8.794
 2058POPC   D2A30220  15.852  12.814   8.416
 2058POPC   C3A30221  15.938  12.569   8.097
 2058POPC   C4A30222  15.893  12.562   7.701
 2058POPC   C1B30223  16.104  12.996   8.833
 2058POPC   C2B30224  16.226  13.182   8.449
 2058POPC   C3B30225  16.023  13.194   8.073
 2058POPC   C4B30226  16.052  13.039   7.654
 2059POPC   NC330227  30.942  19.781   9.500
 2059POPC   PO430228  30.304  19.828   9.430
 2059POPC   GL130229  30.628  19.648   9.120
 2059POPC   GL230230  30.564  19.577   8.780
 2059POPC   C1A30231  31.036  19.717   8.855
 2059POPC   D2A30232  31.220  19.831   8.451
 2059POPC   C3A30233  30.883  19.857   8.165
 2059POPC   C4A30234  30.633  19.681   7.869
 2059POPC   C1B30235  30.436  20.025   8.777
 2059POPC   C2B30236  30.502  20.309   8.430
 2059POPC   C3B30237  30.348  20.274   8.022
 2059POPC   C4B30238  30.426  20.112   7.599
 2060POPC   NC330239  27.271   0.279   9.421
 2060POPC   PO430240  27.966   0.590   9.358
 2060POPC   GL130241  27.671   0.437   9.127
 2060POPC   GL230242  27.424   0.720   9.111
 2060POPC   C1A30243  27.751   0.174   8.773
 2060POPC   D2A30244  27.814   0.040   8.351
 2060POPC   C3A30245  27.700   0.371   8.056
 2060POPC   C4A30246  27.882   0.478   7.661
 2060POPC   C1B30247  27.361   0.526   8.722
 2060POPC   C2B30248  27.281   0.243   8.387
 2060POPC   C3B30249  27.395  44.952   8.071
 2060POPC   C4B30250  27.584   0.054   7.664
 2061POPC   NC330251  29.174  36.362   9.359
 2061POPC   PO430252  28.752  35.865   9.302
 2061POPC   GL130253  29.011  36.098   8.971
 2061POPC   GL230254  29.414  36.152   8.993
 2061POPC   C1A30255  29.154  36.366   8.617
 2061POPC   D2A30256  29.389  36.229   8.272
 2061POPC   C3A30257  29.155  36.270   7.883
 2061POPC   C4A30258  28.914  36.313   7.510
 2061POPC   C1B30259  29.639  35.918   8.697
 2061POPC   C2B30260  29.435  35.728   8.330
 2061POPC   C3B30261  29.097  35.772   8.025
 2061POPC   C4B30262  29.165  35.862   7.557
 2062POPC   NC330263   6.147  33.899   9.474
 2062POPC   PO430264   6.133  33.275   9.174
 2062POPC   GL130265   5.992  33.757   9.024
 2062POPC   GL230266   6.207  34.115   9.025
 2062POPC   C1A30267   5.866  34.021   8.661
 2062POPC   D2A30268   5.831  34.309   8.314
 2062POPC   C3A30269   5.836  34.086   7.931
 2062POPC   C4A30270   5.962  33.689   7.756
 2062POPC   C1B30271   6.386  33.999   8.616
 2062POPC   C2B30272   6.263  33.897   8.191
 2062POPC   C3B30273   6.335  34.091   7.793
 2062POPC   C4B30274   6.221  33.977   7.382
 2063POPC   NC330275  37.175  19.658   9.367
 2063POPC   PO430276  36.547  19.857   9.457
 2063POPC   GL130277  36.817  19.933   9.116
 2063POPC   GL230278  37.057  20.221   9.145
 2063POPC   C1A30279  36.943  19.608   8.788
 2063POPC   D2A30280  36.854  19.455   8.410
 2063POPC   C3A30281  36.760  19.764   8.126
 2063POPC   C4A30282  36.648  19.631   7.727
 2063POPC   C1B30283  37.015  20.108   8.680
 2063POPC   C2B30284  37.243  19.803   8.391
 2063POPC   C3B30285  37.233  19.737   7.947
 2063POPC   C4B30286  37.006  20.010   7.676
 2064POPC   NC330287   5.585  15.138   9.427
 2064POPC   PO430288   6.193  15.321   9.623
 2064POPC   GL130289   6.078  15.173   9.174
 2064POPC   GL230290   5.797  15.354   9.010
 2064POPC   C1A30291   6.177  15.257   8.698
 2064POPC   D2A30292   5.809  15.217   8.410
 2064POPC   C3A30293   5.896  15.002   8.036
 2064POPC   C4A30294   5.864  15.204   7.661
 2064POPC   C1B30295   5.833  14.901   8.813
 2064POPC   C2B30296   5.559  14.712   8.515
 2064POPC   C3B30297   5.386  14.905   8.134
 2064POPC   C4B30298   5.465  14.863   7.706
 2065POPC   NC330299  10.177  31.335   9.931
 2065POPC   PO430300   9.792  31.752   9.582
 2065POPC   GL130301   9.724  31.654   9.158
 2065POPC   GL230302   9.796  31.310   9.172
 2065POPC   C1A30303   9.505  31.613   8.746
 2065POPC   D2A30304   9.441  31.487   8.316
 2065POPC   C3A30305   9.594  31.722   7.997
 2065POPC   C4A30306  10.008  31.780   7.813
 2065POPC   C1B30307   9.632  31.120   8.777
 2065POPC   C2B30308   9.630  31.020   8.327
 2065POPC   C3B30309   9.515  31.141   7.896
 2065POPC   C4B30310   9.724  31.025   7.474
 2066POPC   NC330311  34.306  15.250   9.787
 2066POPC   PO430312  34.918  15.266   9.417
 2066POPC   GL130313  34.939  15.180   9.008
 2066POPC   GL230314  34.758  15.471   8.919
 2066POPC   C1A30315  34.635  15.029   8.689
 2066POPC   D2A30316  34.531  15.231   8.317
 2066POPC   C3A30317  34.766  15.085   7.979
 2066POPC   C4A30318  34.789  15.347   7.588
 2066POPC   C1B30319  34.327  15.499   8.722
 2066POPC   C2B30320  34.067  15.468   8.367
 2066POPC   C3B30321  34.151  15.517   7.930
 2066POPC   C4B30322  34.251  15.415   7.523
 2067POPC   NC330323  36.525  41.354   9.514
 2067POPC   PO430324  36.931  41.926   9.403
 2067POPC   GL130325  36.669  41.695   9.155
 2067POPC   GL230326  36.917  41.448   9.155
 2067POPC   C1A30327  36.695  41.656   8.734
 2067POPC   D2A30328  37.025  41.429   8.503
 2067POPC   C3A30329  36.870  41.427   8.077
 2067POPC   C4A30330  37.031  41.556   7.696
 2067POPC   C1B30331  36.677  41.179   8.867
 2067POPC   C2B30332  36.633  41.117   8.423
 2067POPC   C3B30333  36.626  40.955   7.986
 2067POPC   C4B30334  36.745  41.090   7.570
 2068POPC   NC330335   2.458  17.028   9.356
 2068POPC   PO430336   3.128  16.716   9.444
 2068POPC   GL130337   2.970  16.613   9.056
 2068POPC   GL230338   2.684  16.786   8.965
 2068POPC   C1A30339   2.980  16.522   8.624
 2068POPC   D2A30340   2.768  16.833   8.400
 2068POPC   C3A30341   2.580  16.697   8.023
 2068POPC   C4A30342   2.802  16.804   7.661
 2068POPC   C1B30343   2.442  17.089   8.706
 2068POPC   C2B30344   2.297  17.082   8.265
 2068POPC   C3B30345   2.487  17.183   7.838
 2068POPC   C4B30346   2.621  17.177   7.375
 2069POPC   NC330347  20.409  15.452   9.572
 2069POPC   PO430348  20.870  14.928   9.652
 2069POPC   GL130349  20.630  14.978   9.272
 2069POPC   GL230350  20.732  15.315   9.223
 2069POPC   C1A30351  20.663  14.887   8.811
 2069POPC   D2A30352  20.767  15.072   8.380
 2069POPC   C3A30353  20.545  14.831   8.007
 2069POPC   C4A30354  20.313  14.868   7.575
 2069POPC   C1B30355  20.496  15.364   8.884
 2069POPC   C2B30356  20.569  15.533   8.504
 2069POPC   C3B30357  20.514  15.489   8.106
 2069POPC   C4B30358  20.603  15.273   7.761
 2070POPC   NC330359  30.197  42.550   9.409
 2070POPC   PO430360  29.607  42.382   9.540
 2070POPC   GL130361  29.786  42.323   9.157
 2070POPC   GL230362  29.848  42.682   9.057
 2070POPC   C1A30363  29.914  42.234   8.746
 2070POPC   D2A30364  29.747  42.444   8.415
 2070POPC   C3A30365  29.772  42.241   8.040
 2070POPC   C4A30366  29.618  42.590   7.816
 2070POPC   C1B30367  30.129  42.703   8.698
 2070POPC   C2B30368  30.255  42.534   8.280
 2070POPC   C3B30369  30.163  42.515   7.812
 2070POPC   C4B30370  30.360  42.429   7.383
 2071POPC   NC330371  14.710  38.721   9.676
 2071POPC   PO430372  14.238  38.260   9.545
 2071POPC   GL130373  14.361  38.476   9.166
 2071POPC   GL230374  14.296  38.167   8.986
 2071POPC   C1A30375  14.427  38.826   8.824
 2071POPC   D2A30376  14.409  39.034   8.388
 2071POPC   C3A30377  14.233  38.784   8.060
 2071POPC   C4A30378  14.264  38.450   7.749
 2071POPC   C1B30379  14.645  38.357   8.748
 2071POPC   C2B30380  14.594  38.561   8.374
 2071POPC   C3B30381  14.712  38.566   7.962
 2071POPC   C4B30382  14.840  38.199   7.772
 2072POPC   NC330383  34.747  32.124   9.380
 2072POPC   PO430384  34.356  32.592   9.681
 2072POPC   GL130385  34.418  32.512   9.183
 2072POPC   GL230386  34.437  32.182   8.994
 2072POPC   C1A30387  34.626  32.544   8.728
 2072POPC   D2A30388  34.533  32.714   8.330
 2072POPC   C3A30389  34.629  32.452   7.976
 2072POPC   C4A30390  34.272  32.264   7.739
 2072POPC   C1B30391  34.620  32.009   8.662
 2072POPC   C2B30392  34.513  32.019   8.207
 2072POPC   C3B30393  34.659  31.949   7.777
 2072POPC   C4B30394  34.825  31.755   7.416
 2073POPC   NC330395  31.679  18.004   9.404
 2073POPC   PO430396  31.363  18.698   9.412
 2073POPC   GL130397  31.437  18.397   9.118
 2073POPC   GL230398  31.268  18.070   9.112
 2073POPC   C1A30399  31.659  18.425   8.763
 2073POPC   D2A30400  31.744  18.226   8.402
 2073POPC   C3A30401  31.648  18.398   8.020
 2073POPC   C4A30402  31.274  18.354   7.799
 2073POPC   C1B30403  31.233  18.127   8.652
 2073POPC   C2B30404  30.998  18.060   8.256
 2073POPC   C3B30405  31.066  17.879   7.840
 2073POPC   C4B30406  31.046  18.121   7.415
 2074POPC   NC330407  15.026  33.042   9.378
 2074POPC   PO430408  15.719  33.270   9.433
 2074POPC   GL130409  15.420  33.198   9.076
 2074POPC   GL230410  15.144  33.453   9.068
 2074POPC   C1A30411  15.092  33.066   8.739
 2074POPC   D2A30412  14.974  32.757   8.441
 2074POPC   C3A30413  15.358  32.688   8.263
 2074POPC   C4A30414  15.386  32.740   7.862
 2074POPC   C1B30415  15.350  33.503   8.635
 2074POPC   C2B30416  15.274  33.231   8.226
 2074POPC   C3B30417  15.132  33.170   7.784
 2074POPC   C4B30418  14.829  33.349   7.459
 2075POPC   NC330419  12.762  39.659   9.794
 2075POPC   PO430420  12.914  40.142   9.331
 2075POPC   GL130421  12.691  40.120   9.000
 2075POPC   GL230422  13.011  40.108   8.819
 2075POPC   C1A30423  12.512  40.119   8.635
 2075POPC   D2A30424  12.776  40.221   8.310
 2075POPC   C3A30425  12.551  40.166   7.961
 2075POPC   C4A30426  12.687  39.946   7.628
 2075POPC   C1B30427  13.230  39.699   8.776
 2075POPC   C2B30428  13.174  39.483   8.395
 2075POPC   C3B30429  12.998  39.611   8.019
 2075POPC   C4B30430  13.183  39.911   7.752
 2076POPC   NC330431   0.740   1.988   9.439
 2076POPC   PO430432   0.061   1.694   9.456
 2076POPC   GL130433   0.345   1.762   9.158
 2076POPC   GL230434   0.263   2.082   9.068
 2076POPC   C1A30435   0.576   1.833   8.768
 2076POPC   D2A30436   0.679   1.588   8.408
 2076POPC   C3A30437   0.735   1.820   8.015
 2076POPC   C4A30438   0.379   1.852   7.711
 2076POPC   C1B30439   0.151   2.349   8.765
 2076POPC   C2B30440   0.411   2.472   8.428
 2076POPC   C3B30441   0.452   2.251   8.068
 2076POPC   C4B30442   0.283   2.361   7.705
 2077POPC   NC330443  41.965   4.476   9.512
 2077POPC   PO430444  41.411   4.117   9.562
 2077POPC   GL130445  41.615   4.202   9.190
 2077POPC   GL230446  41.694   4.533   9.108
 2077POPC   C1A30447  41.445   4.265   8.766
 2077POPC   D2A30448  41.348   4.112   8.343
 2077POPC   C3A30449  41.568   4.306   8.008
 2077POPC   C4A30450  41.340   4.514   7.666
 2077POPC   C1B30451  41.953   4.623   8.760
 2077POPC   C2B30452  42.021   4.809   8.361
 2077POPC   C3B30453  42.144   4.834   7.943
 2077POPC   C4B30454  41.879   4.605   7.694
 2078POPC   NC330455  25.719  28.555   9.710
 2078POPC   PO430456  26.327  28.710   9.820
 2078POPC   GL130457  25.987  28.725   9.330
 2078POPC   GL230458  25.828  28.423   9.192
 2078POPC   C1A30459  26.150  28.671   8.829
 2078POPC   D2A30460  26.304  28.408   8.430
 2078POPC   C3A30461  26.172  28.347   7.961
 2078POPC   C4A30462  26.208  28.333   7.488
 2078POPC   C1B30463  25.889  28.235   8.765
 2078POPC   C2B30464  25.783  28.307   8.318
 2078POPC   C3B30465  25.661  28.433   7.875
 2078POPC   C4B30466  25.715  28.284   7.431
 2079POPC   NC330467  36.467  11.063   9.448
 2079POPC   PO430468  35.886  11.353   9.485
 2079POPC   GL130469  36.198  11.450   9.186
 2079POPC   GL230470  36.117  11.112   9.066
 2079POPC   C1A30471  36.375  11.378   8.753
 2079POPC   D2A30472  36.082  11.388   8.406
 2079POPC   C3A30473  36.181  11.223   8.040
 2079POPC   C4A30474  36.294  11.462   7.665
 2079POPC   C1B30475  36.046  10.924   8.636
 2079POPC   C2B30476  35.814  10.836   8.247
 2079POPC   C3B30477  35.857  10.795   7.795
 2079POPC   C4B30478  36.260  10.950   7.629
 2080POPC   NC330479  25.003   1.985   9.474
 2080POPC   PO430480  25.656   1.800   9.475
 2080POPC   GL130481  25.467   2.106   9.208
 2080POPC   GL230482  25.309   1.877   9.075
 2080POPC   C1A30483  25.318   2.264   8.775
 2080POPC   D2A30484  25.141   2.045   8.435
 2080POPC   C3A30485  25.239   2.126   7.990
 2080POPC   C4A30486  25.297   1.968   7.545
 2080POPC   C1B30487  25.233   1.619   8.722
 2080POPC   C2B30488  25.368   1.624   8.288
 2080POPC   C3B30489  25.171   1.625   7.900
 2080POPC   C4B30490  25.051   1.415   7.526
 2081POPC   NC330491   9.549  39.310   9.438
 2081POPC   PO430492  10.123  38.953   9.628
 2081POPC   GL130493   9.893  39.044   9.202
 2081POPC   GL230494   9.834  39.355   9.011
 2081POPC   C1A30495   9.698  38.903   8.809
 2081POPC   D2A30496   9.865  38.875   8.381
 2081POPC   C3A30497   9.965  39.311   8.269
 2081POPC   C4A30498   9.892  39.554   7.909
 2081POPC   C1B30499   9.487  39.382   8.738
 2081POPC   C2B30500   9.421  39.142   8.385
 2081POPC   C3B30501   9.575  39.124   8.005
 2081POPC   C4B30502   9.417  39.477   7.789
 2082POPC   NC330503  25.264  24.797   9.477
 2082POPC   PO430504  25.234  24.137   9.609
 2082POPC   GL130505  25.357  24.361   9.216
 2082POPC   GL230506  25.111  24.622   9.053
 2082POPC   C1A30507  25.463  24.367   8.778
 2082POPC   D2A30508  25.437  24.646   8.417
 2082POPC   C3A30509  25.439  24.443   8.010
 2082POPC   C4A30510  25.303  24.201   7.640
 2082POPC   C1B30511  24.951  24.890   8.757
 2082POPC   C2B30512  25.020  25.001   8.352
 2082POPC   C3B30513  24.994  24.761   7.980
 2082POPC   C4B30514  24.728  24.770   7.619
 2083POPC   NC330515  38.267  35.689   9.379
 2083POPC   PO430516  38.698  35.118   9.484
 2083POPC   GL130517  38.546  35.336   9.102
 2083POPC   GL230518  38.638  35.691   9.050
 2083POPC   C1A30519  38.460  35.225   8.665
 2083POPC   D2A30520  38.779  35.113   8.364
 2083POPC   C3A30521  38.614  35.242   7.972
 2083POPC   C4A30522  38.852  35.273   7.599
 2083POPC   C1B30523  38.365  35.724   8.697
 2083POPC   C2B30524  38.201  35.619   8.261
 2083POPC   C3B30525  38.371  35.679   7.819
 2083POPC   C4B30526  38.674  35.700   7.421
 2084POPC   NC330527  37.948   5.691   9.489
 2084POPC   PO430528  38.627   5.858   9.467
 2084POPC   GL130529  38.481   5.831   9.068
 2084POPC   GL230530  38.330   6.149   8.976
 2084POPC   C1A30531  38.708   5.673   8.700
 2084POPC   D2A30532  38.662   5.600   8.293
 2084POPC   C3A30533  38.460   5.883   8.035
 2084POPC   C4A30534  38.604   5.738   7.650
 2084POPC   C1B30535  38.286   5.962   8.566
 2084POPC   C2B30536  37.990   5.974   8.193
 2084POPC   C3B30537  37.969   5.766   7.787
 2084POPC   C4B30538  38.170   5.928   7.442
 2085POPC   NC330539  11.172  16.458   9.315
 2085POPC   PO430540  11.280  17.101   9.500
 2085POPC   GL130541  11.422  17.002   9.079
 2085POPC   GL230542  11.566  16.652   9.025
 2085POPC   C1A30543  11.648  17.043   8.701
 2085POPC   D2A30544  11.534  17.261   8.337
 2085POPC   C3A30545  11.494  17.039   7.943
 2085POPC   C4A30546  11.086  16.866   7.831
 2085POPC   C1B30547  11.210  16.656   8.661
 2085POPC   C2B30548  10.941  16.553   8.244
 2085POPC   C3B30549  11.035  16.356   7.825
 2085POPC   C4B30550  11.444  16.412   7.634
 2086POPC   NC330551  29.404   7.429   9.419
 2086POPC   PO430552  28.736   7.563   9.538
 2086POPC   GL130553  28.909   7.380   9.161
 2086POPC   GL230554  29.134   7.107   9.129
 2086POPC   C1A30555  29.140   7.511   8.797
 2086POPC   D2A30556  29.145   7.419   8.374
 2086POPC   C3A30557  29.286   7.690   8.053
 2086POPC   C4A30558  29.353   7.561   7.625
 2086POPC   C1B30559  29.300   7.012   8.708
 2086POPC   C2B30560  29.406   6.987   8.259
 2086POPC   C3B30561  29.194   7.148   7.875
 2086POPC   C4B30562  29.061   7.213   7.421
 2087POPC   NC330563  43.345  43.324   9.354
 2087POPC   PO430564  42.823  42.852   9.531
 2087POPC   GL130565  43.027  42.951   9.172
 2087POPC   GL230566  43.357  42.815   9.084
 2087POPC   C1A30567  42.885  43.057   8.766
 2087POPC   D2A30568  43.148  42.981   8.419
 2087POPC   C3A30569  42.984  43.120   8.016
 2087POPC   C4A30570  43.152  42.909   7.673
 2087POPC   C1B30571  43.591  43.074   8.780
 2087POPC   C2B30572  43.582  43.268   8.372
 2087POPC   C3B30573  43.507  43.124   7.973
 2087POPC   C4B30574  43.288  43.394   7.641
 2088POPC   NC330575  30.608  21.625   9.601
 2088POPC   PO430576  30.829  22.183   9.347
 2088POPC   GL130577  30.629  22.015   9.030
 2088POPC   GL230578  30.348  22.008   9.207
 2088POPC   C1A30579  30.707  22.143   8.619
 2088POPC   D2A30580  30.753  22.350   8.229
 2088POPC   C3A30581  30.816  22.152   7.861
 2088POPC   C4A30582  31.134  22.380   7.625
 2088POPC   C1B30583  30.248  22.282   8.792
 2088POPC   C2B30584  30.281  22.235   8.319
 2088POPC   C3B30585  30.343  22.367   7.862
 2088POPC   C4B30586  30.322  22.610   7.443
 2089POPC   NC330587  36.860  26.578   9.453
 2089POPC   PO430588  36.470  27.115   9.453
 2089POPC   GL130589  36.849  27.035   9.169
 2089POPC   GL230590  37.103  26.733   9.038
 2089POPC   C1A30591  37.007  27.144   8.773
 2089POPC   D2A30592  37.125  26.824   8.472
 2089POPC   C3A30593  37.053  26.917   8.082
 2089POPC   C4A30594  36.778  26.932   7.743
 2089POPC   C1B30595  37.222  26.424   8.747
 2089POPC   C2B30596  36.934  26.273   8.395
 2089POPC   C3B30597  36.957  26.431   7.923
 2089POPC   C4B30598  37.093  26.601   7.505
 2090POPC   NC330599  14.532  30.874   9.519
 2090POPC   PO430600  13.967  30.592   9.383
 2090POPC   GL130601  14.306  30.725   9.064
 2090POPC   GL230602  14.627  30.971   9.036
 2090POPC   C1A30603  14.315  30.864   8.631
 2090POPC   D2A30604  14.274  31.124   8.241
 2090POPC   C3A30605  14.274  30.859   7.856
 2090POPC   C4A30606  14.168  30.939   7.392
 2090POPC   C1B30607  14.786  30.619   8.813
 2090POPC   C2B30608  14.776  30.368   8.439
 2090POPC   C3B30609  14.722  30.536   8.018
 2090POPC   C4B30610  14.792  30.772   7.677
 2091POPC   NC330611   1.537  32.546   9.548
 2091POPC   PO430612   1.937  33.035   9.577
 2091POPC   GL130613   2.101  33.128   9.163
 2091POPC   GL230614   2.314  32.856   9.065
 2091POPC   C1A30615   2.164  33.221   8.745
 2091POPC   D2A30616   1.901  33.064   8.447
 2091POPC   C3A30617   2.062  33.090   8.058
 2091POPC   C4A30618   1.758  33.070   7.771
 2091POPC   C1B30619   1.908  32.761   8.891
 2091POPC   C2B30620   1.836  32.556   8.528
 2091POPC   C3B30621   1.664  32.696   8.145
 2091POPC   C4B30622   1.442  32.686   7.765
 2092POPC   NC330623  37.942  29.949   9.490
 2092POPC   PO430624  38.601  29.961   9.415
 2092POPC   GL130625  38.307  30.077   9.142
 2092POPC   GL230626  38.326  30.387   9.167
 2092POPC   C1A30627  38.308  29.982   8.717
 2092POPC   D2A30628  38.373  29.661   8.434
 2092POPC   C3A30629  38.398  29.849   8.036
 2092POPC   C4A30630  38.808  29.842   7.826
 2092POPC   C1B30631  38.671  30.371   8.878
 2092POPC   C2B30632  38.679  30.241   8.444
 2092POPC   C3B30633  38.644  30.342   8.008
 2092POPC   C4B30634  38.469  30.211   7.648
 2093POPC   NC330635  41.437   1.885   9.536
 2093POPC   PO430636  42.097   1.932   9.359
 2093POPC   GL130637  41.861   2.031   9.053
 2093POPC   GL230638  41.625   1.777   9.077
 2093POPC   C1A30639  41.797   2.147   8.629
 2093POPC   D2A30640  41.479   2.295   8.366
 2093POPC   C3A30641  41.448   2.072   7.977
 2093POPC   C4A30642  41.709   2.193   7.652
 2093POPC   C1B30643  41.732   1.638   8.664
 2093POPC   C2B30644  41.657   1.632   8.216
 2093POPC   C3B30645  41.514   1.573   7.798
 2093POPC   C4B30646  41.373   1.853   7.488
 2094POPC   NC330647   0.508   5.404   9.683
 2094POPC   PO430648   0.051   4.948   9.682
 2094POPC   GL130649   0.379   5.167   9.224
 2094POPC   GL230650   0.702   5.344   9.200
 2094POPC   C1A30651   0.266   5.209   8.759
 2094POPC   D2A30652   0.389   5.039   8.315
 2094POPC   C3A30653   0.328   5.255   7.885
 2094POPC   C4A30654   0.473   5.214   7.450
 2094POPC   C1B30655   0.719   5.004   8.858
 2094POPC   C2B30656   0.819   4.780   8.464
 2094POPC   C3B30657   0.681   4.727   7.994
 2094POPC   C4B30658   0.796   4.840   7.527
 2095POPC   NC330659   0.760  33.175   9.508
 2095POPC   PO430660   0.126  32.784   9.655
 2095POPC   GL130661   0.418  32.881   9.241
 2095POPC   GL230662   0.467  33.270   9.117
 2095POPC   C1A30663   0.498  32.927   8.769
 2095POPC   D2A30664   0.272  33.117   8.448
 2095POPC   C3A30665   0.220  32.814   8.117
 2095POPC   C4A30666   0.403  32.872   7.721
 2095POPC   C1B30667   0.600  33.443   8.725
 2095POPC   C2B30668   0.544  33.562   8.314
 2095POPC   C3B30669   0.456  33.294   8.002
 2095POPC   C4B30670   0.767  33.242   7.703
 2096POPC   NC330671  12.288  18.691   9.358
 2096POPC   PO430672  11.658  18.802   9.389
 2096POPC   GL130673  11.834  19.100   9.124
 2096POPC   GL230674  12.167  19.182   9.228
 2096POPC   C1A30675  11.958  19.026   8.711
 2096POPC   D2A30676  11.871  18.764   8.347
 2096POPC   C3A30677  12.121  18.943   8.021
 2096POPC   C4A30678  11.930  19.108   7.642
 2096POPC   C1B30679  12.416  19.249   8.848
 2096POPC   C2B30680  12.448  19.416   8.422
 2096POPC   C3B30681  12.543  19.302   7.998
 2096POPC   C4B30682  12.409  19.214   7.594
 2097POPC   NC330683  15.801  43.263   9.617
 2097POPC   PO430684  16.160  42.813   9.244
 2097POPC   GL130685  15.881  43.028   9.033
 2097POPC   GL230686  15.980  43.319   9.144
 2097POPC   C1A30687  15.676  43.105   8.673
 2097POPC   D2A30688  15.735  43.463   8.431
 2097POPC   C3A30689  15.664  43.408   8.017
 2097POPC   C4A30690  15.822  43.315   7.640
 2097POPC   C1B30691  16.311  43.354   8.837
 2097POPC   C2B30692  16.306  43.518   8.409
 2097POPC   C3B30693  16.209  43.395   7.986
 2097POPC   C4B30694  16.393  43.474   7.560
 2098POPC   NC330695  13.985   4.270   9.722
 2098POPC   PO430696  13.490   4.028   9.377
 2098POPC   GL130697  13.795   4.175   9.149
 2098POPC   GL230698  13.759   4.494   9.272
 2098POPC   C1A30699  13.895   4.057   8.737
 2098POPC   D2A30700  13.881   4.091   8.295
 2098POPC   C3A30701  13.685   4.271   7.923
 2098POPC   C4A30702  13.712   4.152   7.456
 2098POPC   C1B30703  13.744   4.552   8.799
 2098POPC   C2B30704  13.940   4.593   8.364
 2098POPC   C3B30705  13.971   4.716   7.925
 2098POPC   C4B30706  13.714   4.651   7.567
 2099POPC   NC330707  24.010   0.627   9.467
 2099POPC   PO430708  23.648   0.076   9.655
 2099POPC   GL130709  23.673   0.289   9.264
 2099POPC   GL230710  23.426   0.549   9.221
 2099POPC   C1A30711  23.876   0.352   8.870
 2099POPC   D2A30712  23.885   0.168   8.482
 2099POPC   C3A30713  23.945   0.389   8.118
 2099POPC   C4A30714  23.902   0.268   7.706
 2099POPC   C1B30715  23.375   0.370   8.792
 2099POPC   C2B30716  23.471   0.449   8.349
 2099POPC   C3B30717  23.454   0.462   7.882
 2099POPC   C4B30718  23.613   0.691   7.503
 2100POPC   NC330719  21.465  32.933   9.793
 2100POPC   PO430720  20.997  33.310   9.555
 2100POPC   GL130721  21.219  33.075   9.214
 2100POPC   GL230722  21.448  33.353   9.179
 2100POPC   C1A30723  21.123  32.794   8.806
 2100POPC   D2A30724  21.079  32.872   8.322
 2100POPC   C3A30725  21.408  32.789   7.996
 2100POPC   C4A30726  21.465  32.885   7.562
 2100POPC   C1B30727  21.490  33.169   8.763
 2100POPC   C2B30728  21.513  33.193   8.309
 2100POPC   C3B30729  21.659  33.256   7.875
 2100POPC   C4B30730  21.890  33.149   7.450
 2101POPC   NC330731  11.866  33.882   9.730
 2101POPC   PO430732  12.462  33.741   9.478
 2101POPC   GL130733  12.298  33.943   9.106
 2101POPC   GL230734  11.983  34.003   9.205
 2101POPC   C1A30735  12.366  34.067   8.655
 2101POPC   D2A30736  12.340  33.791   8.284
 2101POPC   C3A30737  12.205  33.805   7.859
 2101POPC   C4A30738  12.055  33.446   7.623
 2101POPC   C1B30739  11.875  33.938   8.759
 2101POPC   C2B30740  11.813  33.745   8.376
 2101POPC   C3B30741  11.732  33.939   8.013
 2101POPC   C4B30742  11.821  34.221   7.696
 2102POPC   NC330743   2.363  32.033   9.784
 2102POPC   PO430744   2.169  31.465   9.386
 2102POPC   GL130745   1.927  31.453   9.023
 2102POPC   GL230746   1.669  31.715   8.943
 2102POPC   C1A30747   2.045  31.192   8.679
 2102POPC   D2A30748   2.286  31.286   8.377
 2102POPC   C3A30749   2.093  31.467   8.119
 2102POPC   C4A30750   2.168  31.257   7.779
 2102POPC   C1B30751   1.575  31.338   8.680
 2102POPC   C2B30752   1.680  31.176   8.260
 2102POPC   C3B30753   1.678  31.380   7.839
 2102POPC   C4B30754   1.719  31.736   7.521
 2103POPC   NC330755  22.702  12.193   9.331
 2103POPC   PO430756  22.978  11.688   9.661
 2103POPC   GL130757  23.003  11.829   9.168
 2103POPC   GL230758  22.999  12.147   8.941
 2103POPC   C1A30759  22.690  11.822   8.762
 2103POPC   D2A30760  22.944  12.064   8.428
 2103POPC   C3A30761  22.903  11.950   8.004
 2103POPC   C4A30762  22.622  12.215   7.765
 2103POPC   C1B30763  23.271  12.357   8.710
 2103POPC   C2B30764  23.540  12.345   8.396
 2103POPC   C3B30765  23.341  12.317   8.019
 2103POPC   C4B30766  23.143  12.259   7.652
 2104POPC   NC330767   5.599  10.192   9.809
 2104POPC   PO430768   5.163  10.579   9.698
 2104POPC   GL130769   5.081  10.474   9.207
 2104POPC   GL230770   5.262  10.716   8.964
 2104POPC   C1A30771   4.989  10.303   8.761
 2104POPC   D2A30772   4.872  10.132   8.328
 2104POPC   C3A30773   5.254  10.207   8.065
 2104POPC   C4A30774   5.383  10.467   7.743
 2104POPC   C1B30775   4.969  10.788   8.632
 2104POPC   C2B30776   4.994  10.640   8.205
 2104POPC   C3B30777   4.880  10.723   7.777
 2104POPC   C4B30778   4.836  10.839   7.328
 2105POPC   NC330779  41.384  34.357   9.479
 2105POPC   PO430780  41.262  35.014   9.406
 2105POPC   GL130781  41.454  34.666   9.077
 2105POPC   GL230782  41.400  34.287   8.977
 2105POPC   C1A30783  41.629  34.659   8.655
 2105POPC   D2A30784  41.563  35.034   8.382
 2105POPC   C3A30785  41.601  34.949   7.950
 2105POPC   C4A30786  41.891  34.712   7.730
 2105POPC   C1B30787  41.154  34.464   8.662
 2105POPC   C2B30788  41.278  34.621   8.278
 2105POPC   C3B30789  41.600  34.454   8.076
 2105POPC   C4B30790  41.423  34.256   7.762
 2106POPC   NC330791  41.244   1.008   9.324
 2106POPC   PO430792  41.711   1.505   9.553
 2106POPC   GL130793  41.689   1.261   9.172
 2106POPC   GL230794  41.419   1.316   8.961
 2106POPC   C1A30795  41.831   1.148   8.752
 2106POPC   D2A30796  41.572   1.144   8.379
 2106POPC   C3A30797  41.733   1.141   7.963
 2106POPC   C4A30798  41.611   1.129   7.518
 2106POPC   C1B30799  41.153   1.062   8.681
 2106POPC   C2B30800  41.091   0.976   8.261
 2106POPC   C3B30801  41.236   1.124   7.898
 2106POPC   C4B30802  41.128   0.927   7.569
 2107POPC   NC330803  44.724  27.388   9.433
 2107POPC   PO430804   0.181  27.594   9.254
 2107POPC   GL130805  44.745  27.743   9.061
 2107POPC   GL230806  44.363  27.711   9.166
 2107POPC   C1A30807  44.553  27.652   8.661
 2107POPC   D2A30808  44.665  27.727   8.216
 2107POPC   C3A30809  44.514  27.429   7.957
 2107POPC   C4A30810  44.226  27.160   7.787
 2107POPC   C1B30811  44.173  27.961   8.812
 2107POPC   C2B30812  44.344  28.063   8.403
 2107POPC   C3B30813  44.212  27.876   7.991
 2107POPC   C4B30814  44.280  27.695   7.590
 2108POPC   NC330815  13.323  20.900   9.463
 2108POPC   PO430816  13.714  20.399   9.640
 2108POPC   GL130817  13.498  20.435   9.245
 2108POPC   GL230818  13.707  20.705   9.182
 2108POPC   C1A30819  13.561  20.303   8.801
 2108POPC   D2A30820  13.862  20.230   8.436
 2108POPC   C3A30821  13.737  20.274   7.984
 2108POPC   C4A30822  13.870  20.445   7.560
 2108POPC   C1B30823  13.585  20.840   8.798
 2108POPC   C2B30824  13.564  20.659   8.398
 2108POPC   C3B30825  13.717  20.787   8.013
 2108POPC   C4B30826  13.448  20.683   7.708
 2109POPC   NC330827  43.327  17.589   9.556
 2109POPC   PO430828  42.803  18.038   9.410
 2109POPC   GL130829  42.866  17.719   9.081
 2109POPC   GL230830  43.043  17.447   9.152
 2109POPC   C1A30831  43.011  17.665   8.669
 2109POPC   D2A30832  43.115  17.890   8.346
 2109POPC   C3A30833  43.087  17.655   7.985
 2109POPC   C4A30834  43.375  17.684   7.651
 2109POPC   C1B30835  42.890  17.221   8.809
 2109POPC   C2B30836  42.988  17.147   8.414
 2109POPC   C3B30837  42.996  17.039   8.005
 2109POPC   C4B30838  43.026  17.289   7.641
 2110POPC   NC330839  14.691   0.249   9.446
 2110POPC   PO430840  14.045   0.161   9.422
 2110POPC   GL130841  14.261   0.279   9.021
 2110POPC   GL230842  14.560   0.511   9.021
 2110POPC   C1A30843  14.305   0.349   8.561
 2110POPC   D2A30844  14.059   0.263   8.174
 2110POPC   C3A30845  14.188   0.420   7.813
 2110POPC   C4A30846  14.392   0.822   7.858
 2110POPC   C1B30847  14.770   0.179   8.765
 2110POPC   C2B30848  14.687   0.052   8.335
 2110POPC   C3B30849  14.664   0.317   7.967
 2110POPC   C4B30850  14.600   0.455   7.526
 2111POPC   NC330851  14.142  28.591   9.456
 2111POPC   PO430852  13.548  28.789   9.121
 2111POPC   GL130853  13.909  28.550   8.974
 2111POPC   GL230854  13.921  28.200   9.085
 2111POPC   C1A30855  14.012  28.325   8.592
 2111POPC   D2A30856  14.139  28.426   8.170
 2111POPC   C3A30857  13.852  28.415   7.855
 2111POPC   C4A30858  13.428  28.585   7.891
 2111POPC   C1B30859  13.616  28.064   8.795
 2111POPC   C2B30860  13.626  28.020   8.334
 2111POPC   C3B30861  13.458  28.077   7.903
 2111POPC   C4B30862  13.746  27.974   7.595
 2112POPC   NC330863  35.300  12.329   9.438
 2112POPC   PO430864  35.304  11.660   9.462
 2112POPC   GL130865  35.363  11.935   9.131
 2112POPC   GL230866  35.100  11.769   8.949
 2112POPC   C1A30867  35.269  12.208   8.765
 2112POPC   D2A30868  35.321  12.092   8.353
 2112POPC   C3A30869  35.421  12.351   8.033
 2112POPC   C4A30870  35.787  12.232   7.801
 2112POPC   C1B30871  35.506  11.750   8.693
 2112POPC   C2B30872  35.692  11.739   8.298
 2112POPC   C3B30873  35.443  11.833   7.921
 2112POPC   C4B30874  35.024  11.777   7.702
 2113POPC   NC330875  17.296  11.826   9.556
 2113POPC   PO430876  17.817  12.379   9.608
 2113POPC   GL130877  17.673  12.130   9.268
 2113POPC   GL230878  17.359  12.231   9.106
 2113POPC   C1A30879  17.806  12.039   8.852
 2113POPC   D2A30880  17.689  11.920   8.450
 2113POPC   C3A30881  17.655  12.166   8.086
 2113POPC   C4A30882  17.790  12.010   7.694
 2113POPC   C1B30883  17.360  11.808   8.858
 2113POPC   C2B30884  17.265  11.656   8.403
 2113POPC   C3B30885  17.450  11.694   8.018
 2113POPC   C4B30886  17.290  11.840   7.644
 2114POPC   NC330887  13.917  13.281   9.460
 2114POPC   PO430888  13.258  13.426   9.417
 2114POPC   GL130889  13.538  13.530   9.117
 2114POPC   GL230890  13.594  13.190   9.082
 2114POPC   C1A30891  13.522  13.503   8.648
 2114POPC   D2A30892  13.504  13.463   8.177
 2114POPC   C3A30893  13.651  13.842   7.938
 2114POPC   C4A30894  14.054  13.975   7.793
 2114POPC   C1B30895  13.979  13.317   8.829
 2114POPC   C2B30896  13.988  13.413   8.409
 2114POPC   C3B30897  14.016  13.476   7.973
 2114POPC   C4B30898  13.675  13.391   7.682
 2115POPC   NC330899  17.997   3.655   9.502
 2115POPC   PO430900  18.672   3.532   9.582
 2115POPC   GL130901  18.420   3.516   9.200
 2115POPC   GL230902  18.180   3.758   9.057
 2115POPC   C1A30903  18.370   3.385   8.772
 2115POPC   D2A30904  18.465   3.157   8.404
 2115POPC   C3A30905  18.542   3.423   8.080
 2115POPC   C4A30906  18.446   3.639   7.729
 2115POPC   C1B30907  17.977   3.762   8.646
 2115POPC   C2B30908  18.066   3.483   8.315
 2115POPC   C3B30909  17.987   3.516   7.899
 2115POPC   C4B30910  17.977   3.818   7.599
 2116POPC   NC330911   5.218  17.889   9.370
 2116POPC   PO430912   5.046  17.391   9.784
 2116POPC   GL130913   4.984  17.459   9.281
 2116POPC   GL230914   5.317  17.433   9.088
 2116POPC   C1A30915   4.890  17.547   8.838
 2116POPC   D2A30916   4.668  17.511   8.447
 2116POPC   C3A30917   4.929  17.525   8.041
 2116POPC   C4A30918   4.958  17.300   7.625
 2116POPC   C1B30919   5.453  17.562   8.637
 2116POPC   C2B30920   5.455  17.341   8.201
 2116POPC   C3B30921   5.426  17.478   7.759
 2116POPC   C4B30922   5.356  17.585   7.301
 2117POPC   NC330923  29.651  43.231   9.308
 2117POPC   PO430924  30.261  43.001   9.324
 2117POPC   GL130925  30.226  43.195   8.952
 2117POPC   GL230926  29.903  43.182   8.875
 2117POPC   C1A30927  30.267  43.156   8.508
 2117POPC   D2A30928  29.961  42.951   8.244
 2117POPC   C3A30929  30.078  43.042   7.856
 2117POPC   C4A30930  30.200  43.322   7.517
 2117POPC   C1B30931  29.641  42.916   8.652
 2117POPC   C2B30932  29.456  43.071   8.303
 2117POPC   C3B30933  29.609  43.270   7.938
 2117POPC   C4B30934  29.725  43.161   7.513
 2118POPC   NC330935  20.469  30.486   9.512
 2118POPC   PO430936  20.991  30.947   9.384
 2118POPC   GL130937  20.622  31.009   9.111
 2118POPC   GL230938  20.574  30.655   9.058
 2118POPC   C1A30939  20.620  30.936   8.647
 2118POPC   D2A30940  20.817  30.593   8.413
 2118POPC   C3A30941  20.688  30.505   8.006
 2118POPC   C4A30942  20.919  30.352   7.659
 2118POPC   C1B30943  20.623  30.321   8.793
 2118POPC   C2B30944  20.397  30.296   8.423
 2118POPC   C3B30945  20.170  30.429   8.058
 2118POPC   C4B30946  20.349  30.467   7.609
 2119POPC   NC330947  31.742  44.004   9.372
 2119POPC   PO430948  31.106  44.162   9.540
 2119POPC   GL130949  31.262  43.889   9.222
 2119POPC   GL230950  31.344  44.211   9.074
 2119POPC   C1A30951  31.475  43.780   8.815
 2119POPC   D2A30952  31.593  43.579   8.457
 2119POPC   C3A30953  31.444  43.777   8.092
 2119POPC   C4A30954  31.602  43.709   7.698
 2119POPC   C1B30955  31.673  44.285   8.785
 2119POPC   C2B30956  31.805  44.197   8.340
 2119POPC   C3B30957  31.674  44.184   7.888
 2119POPC   C4B30958  31.690  44.208   7.428
 2120POPC   NC330959  38.714  17.861   9.354
 2120POPC   PO430960  38.366  17.384   9.541
 2120POPC   GL130961  38.516  17.328   9.128
 2120POPC   GL230962  38.865  17.335   9.216
 2120POPC   C1A30963  38.429  17.368   8.665
 2120POPC   D2A30964  38.409  17.697   8.343
 2120POPC   C3A30965  38.312  17.544   7.887
 2120POPC   C4A30966  38.307  17.443   7.404
 2120POPC   C1B30967  38.893  17.532   8.787
 2120POPC   C2B30968  39.037  17.610   8.369
 2120POPC   C3B30969  38.789  17.720   8.018
 2120POPC   C4B30970  38.827  17.902   7.650
 2121POPC   NC330971  34.379   6.757   9.479
 2121POPC   PO430972  35.011   6.615   9.473
 2121POPC   GL130973  34.788   6.777   9.077
 2121POPC   GL230974  34.420   6.699   8.985
 2121POPC   C1A30975  34.683   6.942   8.656
 2121POPC   D2A30976  34.310   6.725   8.431
 2121POPC   C3A30977  34.216   6.857   8.014
 2121POPC   C4A30978  34.517   6.775   7.703
 2121POPC   C1B30979  34.588   6.424   8.751
 2121POPC   C2B30980  34.499   6.215   8.419
 2121POPC   C3B30981  34.421   6.378   8.019
 2121POPC   C4B30982  34.105   6.462   7.692
 2122POPC   NC330983  36.053   6.259   9.481
 2122POPC   PO430984  35.690   5.666   9.374
 2122POPC   GL130985  35.905   5.924   9.064
 2122POPC   GL230986  35.889   6.263   9.011
 2122POPC   C1A30987  35.976   5.844   8.637
 2122POPC   D2A30988  36.098   5.559   8.320
 2122POPC   C3A30989  36.244   5.732   7.953
 2122POPC   C4A30990  36.303   5.539   7.580
 2122POPC   C1B30991  36.296   6.195   8.820
 2122POPC   C2B30992  36.390   6.142   8.386
 2122POPC   C3B30993  36.627   6.087   8.041
 2122POPC   C4B30994  36.529   6.016   7.633
 2123POPC   NC330995  26.030  25.073   9.581
 2123POPC   PO430996  25.907  25.691   9.691
 2123POPC   GL130997  25.843  25.473   9.283
 2123POPC   GL230998  25.575  25.211   9.305
 2123POPC   C1A30999  25.958  25.232   8.881
 2123POPC   D2A31000  26.161  25.025   8.517
 2123POPC   C3A31001  26.090  25.169   8.087
 2123POPC   C4A31002  26.146  25.208   7.637
 2123POPC   C1B31003  25.451  25.028   8.897
 2123POPC   C2B31004  25.539  25.147   8.485
 2123POPC   C3B31005  25.441  25.036   8.066
 2123POPC   C4B31006  25.699  25.043   7.759
 2124POPC   NC331007  36.156  40.582  10.032
 2124POPC   PO431008  36.284  40.727   9.504
 2124POPC   GL131009  36.166  40.935   9.157
 2124POPC   GL231010  35.845  40.792   9.142
 2124POPC   C1A31011  36.295  40.862   8.747
 2124POPC   D2A31012  36.152  41.005   8.388
 2124POPC   C3A31013  36.121  40.698   8.110
 2124POPC   C4A31014  36.287  40.589   7.752
 2124POPC   C1B31015  35.802  41.064   8.791
 2124POPC   C2B31016  35.666  41.154   8.372
 2124POPC   C3B31017  35.869  41.131   7.998
 2124POPC   C4B31018  35.822  40.861   7.676
 2125POPC   NC331019  38.407  19.236   9.605
 2125POPC   PO431020  38.637  18.605   9.683
 2125POPC   GL131021  38.425  18.832   9.291
 2125POPC   GL231022  38.658  19.062   9.192
 2125POPC   C1A31023  38.278  18.993   8.863
 2125POPC   D2A31024  38.434  18.921   8.441
 2125POPC   C3A31025  38.368  19.126   8.038
 2125POPC   C4A31026  38.295  18.955   7.630
 2125POPC   C1B31027  38.748  19.215   8.766
 2125POPC   C2B31028  38.679  19.372   8.360
 2125POPC   C3B31029  38.854  19.264   7.942
 2125POPC   C4B31030  38.722  19.235   7.459
 2126POPC   NC331031  25.349  43.628   9.462
 2126POPC   PO431032  25.391  44.299   9.780
 2126POPC   GL131033  25.146  44.126   9.374
 2126POPC   GL231034  25.300  44.330   9.135
 2126POPC   C1A31035  25.054  43.931   8.911
 2126POPC   D2A31036  24.978  43.734   8.462
 2126POPC   C3A31037  25.330  43.624   8.131
 2126POPC   C4A31038  25.422  43.790   7.693
 2126POPC   C1B31039  25.294  44.341   8.686
 2126POPC   C2B31040  25.402  44.104   8.346
 2126POPC   C3B31041  25.180  44.146   7.975
 2126POPC   C4B31042  24.964  44.091   7.595
 2127POPC   NC331043  30.939   0.197  10.095
 2127POPC   PO431044  30.435  44.848   9.677
 2127POPC   GL131045  30.734  44.822   9.309
 2127POPC   GL231046  30.941  44.536   9.182
 2127POPC   C1A31047  30.636  44.941   8.893
 2127POPC   D2A31048  30.856  44.970   8.524
 2127POPC   C3A31049  30.616  44.853   8.181
 2127POPC   C4A31050  30.615  44.911   7.770
 2127POPC   C1B31051  30.813  44.452   8.755
 2127POPC   C2B31052  30.817  44.189   8.389
 2127POPC   C3B31053  31.002  44.111   8.026
 2127POPC   C4B31054  30.771  44.426   7.804
 2128POPC   NC331055  35.818  14.272   9.493
 2128POPC   PO431056  35.136  14.413   9.393
 2128POPC   GL131057  35.479  14.379   9.116
 2128POPC   GL231058  35.584  14.023   9.122
 2128POPC   C1A31059  35.426  14.255   8.702
 2128POPC   D2A31060  35.289  14.479   8.385
 2128POPC   C3A31061  35.462  14.331   8.030
 2128POPC   C4A31062  35.490  14.556   7.645
 2128POPC   C1B31063  35.880  14.031   8.773
 2128POPC   C2B31064  35.870  14.102   8.327
 2128POPC   C3B31065  35.752  13.864   7.969
 2128POPC   C4B31066  35.555  14.023   7.621
 2129POPC   NC331067  41.983   1.799   9.786
 2129POPC   PO431068  42.630   1.999   9.587
 2129POPC   GL131069  42.540   1.951   9.130
 2129POPC   GL231070  42.432   2.296   9.127
 2129POPC   C1A31071  42.281   1.988   8.739
 2129POPC   D2A31072  42.125   1.851   8.354
 2129POPC   C3A31073  42.443   1.763   8.075
 2129POPC   C4A31074  42.182   2.011   7.837
 2129POPC   C1B31075  42.495   2.455   8.729
 2129POPC   C2B31076  42.402   2.320   8.311
 2129POPC   C3B31077  42.676   2.220   7.999
 2129POPC   C4B31078  42.614   2.071   7.599
 2130POPC   NC331079  20.413  27.888   9.511
 2130POPC   PO431080  20.705  27.241   9.488
 2130POPC   GL131081  20.662  27.549   9.170
 2130POPC   GL231082  20.356  27.603   9.084
 2130POPC   C1A31083  20.786  27.720   8.754
 2130POPC   D2A31084  21.049  27.744   8.361
 2130POPC   C3A31085  20.906  27.500   8.003
 2130POPC   C4A31086  20.589  27.651   7.724
 2130POPC   C1B31087  20.360  27.391   8.716
 2130POPC   C2B31088  20.580  27.398   8.372
 2130POPC   C3B31089  20.320  27.409   8.055
 2130POPC   C4B31090  20.157  27.841   7.957
 2131POPC   NC331091  43.313  36.936   9.548
 2131POPC   PO431092  42.739  36.584   9.601
 2131POPC   GL131093  42.873  36.833   9.242
 2131POPC   GL231094  43.119  37.134   9.125
 2131POPC   C1A31095  42.912  36.724   8.821
 2131POPC   D2A31096  42.932  36.979   8.488
 2131POPC   C3A31097  42.896  36.836   8.085
 2131POPC   C4A31098  42.998  37.095   7.740
 2131POPC   C1B31099  43.389  36.968   8.759
 2131POPC   C2B31100  43.380  36.810   8.294
 2131POPC   C3B31101  43.445  36.849   7.835
 2131POPC   C4B31102  43.735  36.865   7.449
 2132POPC   NC331103  19.570  43.436   9.543
 2132POPC   PO431104  20.020  43.970   9.517
 2132POPC   GL131105  19.706  44.058   9.208
 2132POPC   GL231106  19.401  43.867   9.203
 2132POPC   C1A31107  19.761  43.908   8.819
 2132POPC   D2A31108  19.877  44.077   8.474
 2132POPC   C3A31109  19.784  43.839   8.114
 2132POPC   C4A31110  19.901  43.740   7.722
 2132POPC   C1B31111  19.277  43.642   8.803
 2132POPC   C2B31112  19.443  43.561   8.394
 2132POPC   C3B31113  19.347  43.588   7.959
 2132POPC   C4B31114  19.413  43.961   7.763
 2133POPC   NC331115  39.743  26.902   9.542
 2133POPC   PO431116  39.022  26.907   9.438
 2133POPC   GL131117  39.125  26.784   9.034
 2133POPC   GL231118  39.502  26.820   9.100
 2133POPC   C1A31119  39.333  26.584   8.672
 2133POPC   D2A31120  39.434  26.417   8.245
 2133POPC   C3A31121  39.149  26.459   7.894
 2133POPC   C4A31122  39.140  26.788   7.559
 2133POPC   C1B31123  39.391  27.108   8.784
 2133POPC   C2B31124  39.192  27.020   8.390
 2133POPC   C3B31125  39.366  26.981   7.996
 2133POPC   C4B31126  39.452  27.247   7.636
 2134POPC   NC331127  30.487  17.101   9.244
 2134POPC   PO431128  31.025  16.665   9.356
 2134POPC   GL131129  30.813  16.772   9.007
 2134POPC   GL231130  30.924  17.088   8.979
 2134POPC   C1A31131  30.510  16.755   8.648
 2134POPC   D2A31132  30.297  16.439   8.365
 2134POPC   C3A31133  30.501  16.428   7.940
 2134POPC   C4A31134  30.917  16.450   7.723
 2134POPC   C1B31135  30.746  17.215   8.584
 2134POPC   C2B31136  30.545  17.088   8.184
 2134POPC   C3B31137  30.816  16.931   7.833
 2134POPC   C4B31138  30.896  16.903   7.359
 2135POPC   NC331139  33.706   2.114   9.474
 2135POPC   PO431140  33.231   1.661   9.659
 2135POPC   GL131141  33.511   1.694   9.201
 2135POPC   GL231142  33.844   1.869   9.045
 2135POPC   C1A31143  33.606   1.582   8.707
 2135POPC   D2A31144  33.605   1.530   8.214
 2135POPC   C3A31145  33.853   1.688   7.844
 2135POPC   C4A31146  34.026   1.895   7.485
 2135POPC   C1B31147  33.797   2.046   8.571
 2135POPC   C2B31148  33.767   2.101   8.114
 2135POPC   C3B31149  33.921   2.334   7.733
 2135POPC   C4B31150  34.009   2.351   7.252
 2136POPC   NC331151  32.155   4.292   9.495
 2136POPC   PO431152  32.758   3.963   9.565
 2136POPC   GL131153  32.477   4.001   9.204
 2136POPC   GL231154  32.432   4.387   9.085
 2136POPC   C1A31155  32.319   4.012   8.785
 2136POPC   D2A31156  32.121   4.146   8.408
 2136POPC   C3A31157  32.306   4.063   8.004
 2136POPC   C4A31158  32.382   4.325   7.643
 2136POPC   C1B31159  32.063   4.531   8.814
 2136POPC   C2B31160  31.817   4.594   8.415
 2136POPC   C3B31161  31.971   4.464   8.024
 2136POPC   C4B31162  31.967   4.590   7.615
 2137POPC   NC331163  42.836  41.623  10.077
 2137POPC   PO431164  43.347  41.415   9.680
 2137POPC   GL131165  43.076  41.522   9.311
 2137POPC   GL231166  43.369  41.608   9.153
 2137POPC   C1A31167  42.920  41.575   8.861
 2137POPC   D2A31168  43.157  41.647   8.470
 2137POPC   C3A31169  43.041  41.461   8.115
 2137POPC   C4A31170  43.177  41.605   7.740
 2137POPC   C1B31171  43.458  41.870   8.826
 2137POPC   C2B31172  43.478  42.079   8.454
 2137POPC   C3B31173  43.288  42.133   8.077
 2137POPC   C4B31174  43.465  42.065   7.688
 2138POPC   NC331175  13.535  25.485   9.419
 2138POPC   PO431176  13.591  26.051   9.559
 2138POPC   GL131177  13.704  26.198   9.199
 2138POPC   GL231178  13.878  25.870   9.114
 2138POPC   C1A31179  13.524  26.283   8.802
 2138POPC   D2A31180  13.461  26.117   8.396
 2138POPC   C3A31181  13.790  25.996   8.136
 2138POPC   C4A31182  13.609  26.258   7.794
 2138POPC   C1B31183  13.755  25.793   8.666
 2138POPC   C2B31184  13.545  25.581   8.279
 2138POPC   C3B31185  13.536  25.710   7.810
 2138POPC   C4B31186  13.900  25.904   7.585
 2139POPC   NC331187  29.431   4.273  10.020
 2139POPC   PO431188  29.067   4.115   9.479
 2139POPC   GL131189  29.210   4.355   9.154
 2139POPC   GL231190  28.930   4.608   9.120
 2139POPC   C1A31191  29.344   4.599   8.807
 2139POPC   D2A31192  29.372   4.389   8.432
 2139POPC   C3A31193  29.187   4.641   8.119
 2139POPC   C4A31194  29.137   4.516   7.722
 2139POPC   C1B31195  28.893   4.287   8.765
 2139POPC   C2B31196  28.899   4.191   8.339
 2139POPC   C3B31197  29.191   4.089   8.036
 2139POPC   C4B31198  29.046   4.013   7.639
 2140POPC   NC331199   4.765  15.127   9.717
 2140POPC   PO431200   4.267  15.476   9.443
 2140POPC   GL131201   4.588  15.281   9.207
 2140POPC   GL231202   4.362  15.117   8.962
 2140POPC   C1A31203   4.811  15.210   8.805
 2140POPC   D2A31204   4.569  14.954   8.522
 2140POPC   C3A31205   4.417  15.121   8.175
 2140POPC   C4A31206   4.498  15.032   7.779
 2140POPC   C1B31207   4.136  15.325   8.593
 2140POPC   C2B31208   4.085  15.490   8.157
 2140POPC   C3B31209   3.890  15.694   7.818
 2140POPC   C4B31210   4.104  15.796   7.442
 2141POPC   NC331211  39.872  32.532   9.516
 2141POPC   PO431212  40.170  31.927   9.523
 2141POPC   GL131213  39.906  32.090   9.171
 2141POPC   GL231214  39.817  32.412   9.036
 2141POPC   C1A31215  39.804  32.024   8.739
 2141POPC   D2A31216  39.991  32.151   8.379
 2141POPC   C3A31217  39.724  32.079   8.067
 2141POPC   C4A31218  39.785  32.118   7.672
 2141POPC   C1B31219  40.162  32.469   8.767
 2141POPC   C2B31220  40.167  32.670   8.364
 2141POPC   C3B31221  40.025  32.486   7.974
 2141POPC   C4B31222  39.816  32.632   7.604
 2142POPC   NC331223   5.999  44.276   9.503
 2142POPC   PO431224   5.538  43.814   9.506
 2142POPC   GL131225   5.745  43.861   9.106
 2142POPC   GL231226   6.093  43.937   9.127
 2142POPC   C1A31227   5.834  43.886   8.661
 2142POPC   D2A31228   6.094  43.957   8.291
 2142POPC   C3A31229   5.930  43.804   7.899
 2142POPC   C4A31230   5.517  43.668   7.751
 2142POPC   C1B31231   6.344  43.780   8.773
 2142POPC   C2B31232   6.531  43.577   8.404
 2142POPC   C3B31233   6.418  43.649   7.954
 2142POPC   C4B31234   6.342  43.865   7.522
 2143POPC   NC331235   9.074  16.375   9.271
 2143POPC   PO431236   8.559  15.948   9.423
 2143POPC   GL131237   8.884  15.870   9.108
 2143POPC   GL231238   9.235  15.754   9.123
 2143POPC   C1A31239   8.836  15.907   8.675
 2143POPC   D2A31240   8.968  16.030   8.274
 2143POPC   C3A31241   8.799  15.787   7.959
 2143POPC   C4A31242   8.781  15.957   7.576
 2143POPC   C1B31243   9.335  15.772   8.633
 2143POPC   C2B31244   9.459  15.878   8.209
 2143POPC   C3B31245   9.303  15.972   7.781
 2143POPC   C4B31246   9.249  15.985   7.311
 2144POPC   NC331247  31.692  12.923   9.634
 2144POPC   PO431248  31.077  12.999   9.315
 2144POPC   GL131249  31.348  12.732   9.073
 2144POPC   GL231250  31.696  12.690   9.196
 2144POPC   C1A31251  31.298  12.629   8.626
 2144POPC   D2A31252  31.226  12.613   8.185
 2144POPC   C3A31253  31.315  13.015   7.955
 2144POPC   C4A31254  31.760  13.132   7.841
 2144POPC   C1B31255  31.756  12.573   8.817
 2144POPC   C2B31256  31.770  12.743   8.388
 2144POPC   C3B31257  31.671  12.654   7.953
 2144POPC   C4B31258  31.625  12.684   7.494
 2145POPC   NC331259  26.769   7.882   9.454
 2145POPC   PO431260  26.408   7.327   9.500
 2145POPC   GL131261  26.199   7.405   9.098
 2145POPC   GL231262  25.960   7.149   9.056
 2145POPC   C1A31263  26.120   7.438   8.631
 2145POPC   D2A31264  26.323   7.329   8.206
 2145POPC   C3A31265  26.195   7.547   7.803
 2145POPC   C4A31266  26.000   7.880   7.511
 2145POPC   C1B31267  26.242   6.948   8.735
 2145POPC   C2B31268  26.129   6.848   8.299
 2145POPC   C3B31269  26.034   7.050   7.877
 2145POPC   C4B31270  26.214   7.118   7.459
 2146POPC   NC331271  27.839  42.866   9.280
 2146POPC   PO431272  27.405  43.300   9.614
 2146POPC   GL131273  27.426  43.233   9.176
 2146POPC   GL231274  27.354  42.892   9.102
 2146POPC   C1A31275  27.680  43.292   8.799
 2146POPC   D2A31276  27.960  43.392   8.464
 2146POPC   C3A31277  27.698  43.230   8.134
 2146POPC   C4A31278  27.714  43.290   7.716
 2146POPC   C1B31279  27.613  42.747   8.706
 2146POPC   C2B31280  27.678  42.731   8.286
 2146POPC   C3B31281  27.820  42.794   7.894
 2146POPC   C4B31282  27.471  42.843   7.668
 2147POPC   NC331283  34.967  10.524   9.453
 2147POPC   PO431284  35.625  10.714   9.496
 2147POPC   GL131285  35.424  10.466   9.196
 2147POPC   GL231286  35.262  10.780   9.116
 2147POPC   C1A31287  35.278  10.379   8.776
 2147POPC   D2A31288  35.431  10.512   8.364
 2147POPC   C3A31289  35.231  10.374   7.976
 2147POPC   C4A31290  35.394  10.501   7.565
 2147POPC   C1B31291  35.032  10.880   8.753
 2147POPC   C2B31292  35.161  10.966   8.331
 2147POPC   C3B31293  35.379  10.882   7.975
 2147POPC   C4B31294  35.047  10.806   7.742
 2148POPC   NC331295  24.359  21.222   9.544
 2148POPC   PO431296  24.248  21.838   9.686
 2148POPC   GL131297  24.424  21.634   9.232
 2148POPC   GL231298  24.334  21.261   9.037
 2148POPC   C1A31299  24.342  21.650   8.760
 2148POPC   D2A31300  24.166  21.530   8.351
 2148POPC   C3A31301  24.279  21.719   7.967
 2148POPC   C4A31302  24.339  21.376   7.664
 2148POPC   C1B31303  24.476  21.185   8.575
 2148POPC   C2B31304  24.571  21.311   8.126
 2148POPC   C3B31305  24.861  21.148   7.810
 2148POPC   C4B31306  25.036  20.914   7.427
 2149POPC   NC331307  43.242  22.409   9.640
 2149POPC   PO431308  42.679  22.189   9.346
 2149POPC   GL131309  43.032  22.301   9.153
 2149POPC   GL231310  43.188  21.981   9.117
 2149POPC   C1A31311  43.041  22.322   8.714
 2149POPC   D2A31312  43.212  22.117   8.385
 2149POPC   C3A31313  42.960  22.190   8.049
 2149POPC   C4A31314  43.089  22.378   7.741
 2149POPC   C1B31315  42.834  21.865   8.827
 2149POPC   C2B31316  42.753  21.867   8.419
 2149POPC   C3B31317  42.969  21.690   8.094
 2149POPC   C4B31318  43.064  21.846   7.663
 2150POPC   NC331319  33.005   8.740   9.661
 2150POPC   PO431320  32.716   8.058   9.493
 2150POPC   GL131321  32.894   8.001   9.100
 2150POPC   GL231322  33.017   8.311   9.131
 2150POPC   C1A31323  33.149   7.985   8.715
 2150POPC   D2A31324  33.303   7.705   8.404
 2150POPC   C3A31325  33.310   7.998   8.083
 2150POPC   C4A31326  33.138   8.325   7.769
 2150POPC   C1B31327  32.835   8.386   8.725
 2150POPC   C2B31328  32.990   8.343   8.304
 2150POPC   C3B31329  32.669   8.475   7.981
 2150POPC   C4B31330  32.689   8.583   7.568
 2151POPC   NC331331  42.613  26.267   9.458
 2151POPC   PO431332  42.085  25.918   9.375
 2151POPC   GL131333  42.433  26.038   9.034
 2151POPC   GL231334  42.614  26.378   8.979
 2151POPC   C1A31335  42.571  26.060   8.573
 2151POPC   D2A31336  42.640  25.845   8.162
 2151POPC   C3A31337  42.349  26.040   7.858
 2151POPC   C4A31338  42.123  25.873   7.469
 2151POPC   C1B31339  42.251  26.469   8.743
 2151POPC   C2B31340  42.041  26.300   8.381
 2151POPC   C3B31341  42.047  26.491   7.978
 2151POPC   C4B31342  42.112  26.385   7.534
 2152POPC   NC331343  10.296  35.370   9.543
 2152POPC   PO431344  10.840  35.716   9.325
 2152POPC   GL131345  10.584  35.471   9.155
 2152POPC   GL231346  10.774  35.184   9.134
 2152POPC   C1A31347  10.262  35.537   8.853
 2152POPC   D2A31348  10.328  35.327   8.456
 2152POPC   C3A31349  10.328  35.509   8.060
 2152POPC   C4A31350  10.378  35.229   7.738
 2152POPC   C1B31351  10.765  35.428   8.701
 2152POPC   C2B31352  10.793  35.516   8.255
 2152POPC   C3B31353  10.814  35.495   7.816
 2152POPC   C4B31354  11.011  35.581   7.420
 2153POPC   NC331355  12.747  40.887   9.498
 2153POPC   PO431356  13.232  40.467   9.599
 2153POPC   GL131357  13.004  40.597   9.164
 2153POPC   GL231358  12.937  40.947   9.015
 2153POPC   C1A31359  12.810  40.562   8.739
 2153POPC   D2A31360  12.791  40.899   8.443
 2153POPC   C3A31361  12.844  40.761   8.042
 2153POPC   C4A31362  13.013  40.392   7.833
 2153POPC   C1B31363  12.492  41.019   8.832
 2153POPC   C2B31364  12.305  41.082   8.389
 2153POPC   C3B31365  12.374  41.132   7.909
 2153POPC   C4B31366  12.485  41.121   7.430
 2154POPC   NC331367  33.418  15.069   9.513
 2154POPC   PO431368  32.900  15.512   9.451
 2154POPC   GL131369  33.135  15.328   9.136
 2154POPC   GL231370  32.933  15.044   9.200
 2154POPC   C1A31371  33.209  15.334   8.680
 2154POPC   D2A31372  33.258  15.438   8.267
 2154POPC   C3A31373  32.966  15.513   7.980
 2154POPC   C4A31374  32.863  15.250   7.648
 2154POPC   C1B31375  33.137  14.868   8.870
 2154POPC   C2B31376  33.203  14.846   8.431
 2154POPC   C3B31377  33.129  15.004   8.022
 2154POPC   C4B31378  33.317  14.961   7.629
 2155POPC   NC331379  36.351  29.957   9.535
 2155POPC   PO431380  35.803  29.576   9.533
 2155POPC   GL131381  35.961  29.832   9.195
 2155POPC   GL231382  36.348  29.765   9.084
 2155POPC   C1A31383  35.861  30.084   8.833
 2155POPC   D2A31384  36.013  30.040   8.420
 2155POPC   C3A31385  35.862  30.187   8.044
 2155POPC   C4A31386  35.970  29.934   7.686
 2155POPC   C1B31387  36.384  30.090   8.793
 2155POPC   C2B31388  36.518  30.077   8.363
 2155POPC   C3B31389  36.371  29.968   7.985
 2155POPC   C4B31390  36.440  30.212   7.607
 2156POPC   NC331391   8.923  20.406   9.541
 2156POPC   PO431392   9.155  21.048   9.469
 2156POPC   GL131393   8.991  20.811   9.107
 2156POPC   GL231394   8.812  20.498   9.058
 2156POPC   C1A31395   9.036  20.807   8.666
 2156POPC   D2A31396   8.921  20.889   8.234
 2156POPC   C3A31397   9.194  20.713   7.910
 2156POPC   C4A31398   9.120  20.595   7.481
 2156POPC   C1B31399   8.562  20.220   8.790
 2156POPC   C2B31400   8.702  20.090   8.360
 2156POPC   C3B31401   8.782  20.387   7.990
 2156POPC   C4B31402   8.647  20.373   7.542
 2157POPC   NC331403  17.431  12.483   9.852
 2157POPC   PO431404  17.413  13.017   9.456
 2157POPC   GL131405  17.621  12.686   9.235
 2157POPC   GL231406  17.400  12.758   8.988
 2157POPC   C1A31407  17.791  12.536   8.824
 2157POPC   D2A31408  17.893  12.775   8.436
 2157POPC   C3A31409  17.868  12.628   8.030
 2157POPC   C4A31410  17.790  12.908   7.723
 2157POPC   C1B31411  17.422  12.901   8.593
 2157POPC   C2B31412  17.483  13.184   8.262
 2157POPC   C3B31413  17.344  13.030   7.886
 2157POPC   C4B31414  17.363  12.581   7.869
 2158POPC   NC331415  15.337  42.280   9.619
 2158POPC   PO431416  14.713  41.934   9.545
 2158POPC   GL131417  14.932  42.134   9.174
 2158POPC   GL231418  15.291  42.231   9.126
 2158POPC   C1A31419  15.005  42.212   8.716
 2158POPC   D2A31420  15.246  41.963   8.438
 2158POPC   C3A31421  15.309  42.134   8.058
 2158POPC   C4A31422  15.062  41.951   7.739
 2158POPC   C1B31423  15.508  42.258   8.771
 2158POPC   C2B31424  15.396  42.521   8.438
 2158POPC   C3B31425  15.569  42.596   8.052
 2158POPC   C4B31426  15.335  42.498   7.696
 2159POPC   NC331427  14.758  22.071   9.418
 2159POPC   PO431428  14.160  22.000   9.558
 2159POPC   GL131429  14.319  22.207   9.182
 2159POPC   GL231430  14.371  21.860   9.102
 2159POPC   C1A31431  14.178  22.359   8.748
 2159POPC   D2A31432  14.472  22.399   8.364
 2159POPC   C3A31433  14.339  22.370   7.922
 2159POPC   C4A31434  14.405  22.183   7.513
 2159POPC   C1B31435  14.541  22.003   8.727
 2159POPC   C2B31436  14.561  21.874   8.312
 2159POPC   C3B31437  14.375  21.839   7.904
 2159POPC   C4B31438  14.670  21.747   7.571
 2160POPC   NC331439  29.690  31.067   9.585
 2160POPC   PO431440  30.213  30.492   9.652
 2160POPC   GL131441  29.837  30.620   9.337
 2160POPC   GL231442  29.520  30.366   9.256
 2160POPC   C1A31443  29.868  30.858   8.915
 2160POPC   D2A31444  30.046  30.705   8.515
 2160POPC   C3A31445  30.019  30.889   8.082
 2160POPC   C4A31446  30.228  30.560   7.845
 2160POPC   C1B31447  29.463  30.550   8.835
 2160POPC   C2B31448  29.543  30.726   8.436
 2160POPC   C3B31449  29.648  30.563   8.045
 2160POPC   C4B31450  29.670  30.786   7.678
 2161POPC   NC331451  14.940   2.981   9.446
 2161POPC   PO431452  14.993   2.310   9.498
 2161POPC   GL131453  15.106   2.481   9.113
 2161POPC   GL231454  14.776   2.650   9.086
 2161POPC   C1A31455  15.310   2.850   8.834
 2161POPC   D2A31456  15.180   3.053   8.410
 2161POPC   C3A31457  15.315   2.869   7.992
 2161POPC   C4A31458  15.372   2.611   7.609
 2161POPC   C1B31459  14.895   2.621   8.676
 2161POPC   C2B31460  15.047   2.355   8.404
 2161POPC   C3B31461  14.938   2.525   8.036
 2161POPC   C4B31462  14.877   2.869   7.727
 2162POPC   NC331463  16.681  25.642   9.493
 2162POPC   PO431464  16.708  24.932   9.560
 2162POPC   GL131465  16.784  25.187   9.198
 2162POPC   GL231466  16.485  25.355   9.103
 2162POPC   C1A31467  16.978  25.380   8.837
 2162POPC   D2A31468  16.825  25.447   8.419
 2162POPC   C3A31469  16.960  25.278   8.063
 2162POPC   C4A31470  16.892  25.420   7.707
 2162POPC   C1B31471  16.536  25.129   8.723
 2162POPC   C2B31472  16.635  24.969   8.297
 2162POPC   C3B31473  16.562  25.034   7.849
 2162POPC   C4B31474  16.347  25.076   7.445
 2163POPC   NC331475  24.885  11.606   9.450
 2163POPC   PO431476  24.407  11.016   9.458
 2163POPC   GL131477  24.347  11.206   9.096
 2163POPC   GL231478  24.661  11.314   9.112
 2163POPC   C1A31479  24.250  11.394   8.712
 2163POPC   D2A31480  24.237  11.771   8.477
 2163POPC   C3A31481  24.142  11.719   8.060
 2163POPC   C4A31482  24.237  11.542   7.687
 2163POPC   C1B31483  24.769  11.244   8.730
 2163POPC   C2B31484  24.603  11.386   8.355
 2163POPC   C3B31485  24.558  11.284   7.970
 2163POPC   C4B31486  24.782  11.363   7.620
 2164POPC   NC331487   1.362   9.003   9.462
 2164POPC   PO431488   0.853   8.746   9.511
 2164POPC   GL131489   1.051   8.668   9.119
 2164POPC   GL231490   1.426   8.615   9.145
 2164POPC   C1A31491   0.959   8.787   8.697
 2164POPC   D2A31492   0.950   8.505   8.335
 2164POPC   C3A31493   1.020   8.698   7.953
 2164POPC   C4A31494   1.065   8.950   7.585
 2164POPC   C1B31495   1.443   8.924   8.813
 2164POPC   C2B31496   1.341   8.908   8.372
 2164POPC   C3B31497   1.297   9.138   8.006
 2164POPC   C4B31498   1.521   9.232   7.651
 2165POPC   NC331499  42.716  44.846   9.744
 2165POPC   PO431500  43.298  44.536   9.558
 2165POPC   GL131501  43.044  44.642   9.230
 2165POPC   GL231502  43.161  44.961   9.262
 2165POPC   C1A31503  43.039  44.518   8.790
 2165POPC   D2A31504  43.294  44.356   8.426
 2165POPC   C3A31505  43.022  44.299   8.069
 2165POPC   C4A31506  42.755  44.529   7.781
 2165POPC   C1B31507  43.207   0.063   8.855
 2165POPC   C2B31508  43.130  44.913   8.446
 2165POPC   C3B31509  43.213   0.048   8.047
 2165POPC   C4B31510  43.110  44.863   7.657
 2166POPC   NC331511  24.700  25.475   9.485
 2166POPC   PO431512  24.736  24.796   9.392
 2166POPC   GL131513  24.552  25.141   9.107
 2166POPC   GL231514  24.410  25.537   9.068
 2166POPC   C1A31515  24.553  25.235   8.677
 2166POPC   D2A31516  24.656  25.403   8.295
 2166POPC   C3A31517  24.547  25.095   7.997
 2166POPC   C4A31518  24.185  24.957   7.799
 2166POPC   C1B31519  24.640  25.758   8.722
 2166POPC   C2B31520  24.881  25.864   8.353
 2166POPC   C3B31521  24.795  25.776   7.946
 2166POPC   C4B31522  24.423  25.611   7.827
 2167POPC   NC331523  41.671  28.648   9.545
 2167POPC   PO431524  41.041  28.654   9.649
 2167POPC   GL131525  41.295  28.542   9.214
 2167POPC   GL231526  41.666  28.361   9.143
 2167POPC   C1A31527  41.437  28.589   8.756
 2167POPC   D2A31528  41.476  28.287   8.424
 2167POPC   C3A31529  41.533  28.382   7.986
 2167POPC   C4A31530  41.526  28.057   7.655
 2167POPC   C1B31531  41.889  28.365   8.743
 2167POPC   C2B31532  42.019  28.243   8.314
 2167POPC   C3B31533  42.020  28.222   7.856
 2167POPC   C4B31534  41.814  28.506   7.576
 2168POPC   NC331535   5.283  41.751   9.783
 2168POPC   PO431536   5.282  41.101   9.792
 2168POPC   GL131537   5.226  41.323   9.337
 2168POPC   GL231538   4.972  41.584   9.216
 2168POPC   C1A31539   5.217  41.248   8.878
 2168POPC   D2A31540   5.451  41.473   8.547
 2168POPC   C3A31541   5.312  41.622   8.161
 2168POPC   C4A31542   5.198  41.354   7.819
 2168POPC   C1B31543   4.817  41.559   8.768
 2168POPC   C2B31544   4.850  41.749   8.347
 2168POPC   C3B31545   4.836  41.709   7.906
 2168POPC   C4B31546   4.787  41.438   7.531
 2169POPC   NC331547   0.718  36.551   9.486
 2169POPC   PO431548   1.349  36.978   9.463
 2169POPC   GL131549   1.330  37.235   9.108
 2169POPC   GL231550   1.662  37.223   8.981
 2169POPC   C1A31551   1.020  37.330   8.785
 2169POPC   D2A31552   0.843  37.354   8.373
 2169POPC   C3A31553   1.126  37.220   8.064
 2169POPC   C4A31554   1.205  36.867   7.776
 2169POPC   C1B31555   1.377  36.904   8.731
 2169POPC   C2B31556   1.341  36.787   8.280
 2169POPC   C3B31557   1.590  36.613   7.950
 2169POPC   C4B31558   1.911  36.384   7.882
 2170POPC   NC331559  27.749  33.166   9.647
 2170POPC   PO431560  27.263  33.183   9.176
 2170POPC   GL131561  27.666  33.079   9.045
 2170POPC   GL231562  27.761  33.394   9.105
 2170POPC   C1A31563  27.692  32.891   8.621
 2170POPC   D2A31564  27.322  32.792   8.362
 2170POPC   C3A31565  27.176  33.200   8.230
 2170POPC   C4A31566  27.337  33.383   7.830
 2170POPC   C1B31567  27.588  33.439   8.655
 2170POPC   C2B31568  27.677  33.393   8.216
 2170POPC   C3B31569  27.790  33.120   7.863
 2170POPC   C4B31570  27.949  32.836   7.508
 2171POPC   NC331571  20.963  17.000   9.633
 2171POPC   PO431572  20.372  16.651   9.628
 2171POPC   GL131573  20.508  16.628   9.207
 2171POPC   GL231574  20.849  16.655   9.176
 2171POPC   C1A31575  20.368  16.374   8.852
 2171POPC   D2A31576  20.222  16.405   8.428
 2171POPC   C3A31577  20.393  16.651   8.115
 2171POPC   C4A31578  20.572  16.784   7.727
 2171POPC   C1B31579  20.754  16.682   8.714
 2171POPC   C2B31580  20.818  16.852   8.299
 2171POPC   C3B31581  21.046  16.714   7.934
 2171POPC   C4B31582  21.010  16.639   7.495
 2172POPC   NC331583  35.028  39.507   9.400
 2172POPC   PO431584  35.267  39.981   9.745
 2172POPC   GL131585  35.121  39.942   9.198
 2172POPC   GL231586  35.389  39.760   9.052
 2172POPC   C1A31587  35.198  40.136   8.727
 2172POPC   D2A31588  35.067  40.186   8.269
 2172POPC   C3A31589  35.440  40.132   7.946
 2172POPC   C4A31590  35.437  40.143   7.421
 2172POPC   C1B31591  35.121  39.615   8.759
 2172POPC   C2B31592  35.264  39.698   8.368
 2172POPC   C3B31593  35.081  39.700   7.987
 2172POPC   C4B31594  35.350  39.731   7.669
 2173POPC   NC331595  42.589   4.198   9.693
 2173POPC   PO431596  43.160   4.474   9.564
 2173POPC   GL131597  43.055   4.318   9.161
 2173POPC   GL231598  43.210   4.630   9.068
 2173POPC   C1A31599  43.225   4.159   8.741
 2173POPC   D2A31600  43.006   4.070   8.333
 2173POPC   C3A31601  43.140   4.049   7.899
 2173POPC   C4A31602  42.958   4.039   7.463
 2173POPC   C1B31603  42.919   4.594   8.722
 2173POPC   C2B31604  43.117   4.556   8.328
 2173POPC   C3B31605  43.128   4.574   7.888
 2173POPC   C4B31606  42.929   4.539   7.489
 2174POPC   NC331607  28.637   8.043   9.605
 2174POPC   PO431608  28.054   8.320   9.410
 2174POPC   GL131609  28.282   8.084   9.194
 2174POPC   GL231610  28.573   8.295   9.175
 2174POPC   C1A31611  28.180   7.907   8.794
 2174POPC   D2A31612  28.371   8.042   8.422
 2174POPC   C3A31613  28.146   7.954   8.063
 2174POPC   C4A31614  28.354   7.945   7.699
 2174POPC   C1B31615  28.350   8.402   8.796
 2174POPC   C2B31616  28.284   8.565   8.379
 2174POPC   C3B31617  28.374   8.407   7.973
 2174POPC   C4B31618  28.442   8.430   7.506
 2175POPC   NC331619  21.826  23.688   9.411
 2175POPC   PO431620  22.527  23.798   9.479
 2175POPC   GL131621  22.333  23.902   9.078
 2175POPC   GL231622  21.990  23.950   9.014
 2175POPC   C1A31623  22.287  23.743   8.650
 2175POPC   D2A31624  22.253  23.397   8.378
 2175POPC   C3A31625  22.470  23.466   7.991
 2175POPC   C4A31626  22.392  23.780   7.711
 2175POPC   C1B31627  21.789  23.655   8.734
 2175POPC   C2B31628  21.758  23.490   8.344
 2175POPC   C3B31629  21.964  23.630   7.990
 2175POPC   C4B31630  21.890  23.748   7.590
 2176POPC   NC331631   7.695   6.847   9.485
 2176POPC   PO431632   7.058   6.573   9.605
 2176POPC   GL131633   7.245   6.730   9.180
 2176POPC   GL231634   7.515   6.925   9.015
 2176POPC   C1A31635   7.135   6.652   8.701
 2176POPC   D2A31636   7.060   6.667   8.218
 2176POPC   C3A31637   7.273   6.843   7.834
 2176POPC   C4A31638   7.283   6.568   7.477
 2176POPC   C1B31639   7.591   6.932   8.564
 2176POPC   C2B31640   7.601   6.702   8.182
 2176POPC   C3B31641   7.753   6.597   7.757
 2176POPC   C4B31642   8.105   6.749   7.458
 2177POPC   NC331643  36.611  36.129   9.420
 2177POPC   PO431644  37.145  35.634   9.457
 2177POPC   GL131645  37.082  35.826   9.044
 2177POPC   GL231646  36.732  35.856   8.989
 2177POPC   C1A31647  37.049  36.008   8.604
 2177POPC   D2A31648  37.074  36.376   8.291
 2177POPC   C3A31649  37.016  36.346   7.821
 2177POPC   C4A31650  36.998  36.050   7.446
 2177POPC   C1B31651  36.685  36.275   8.808
 2177POPC   C2B31652  36.585  36.270   8.399
 2177POPC   C3B31653  36.440  36.041   8.056
 2177POPC   C4B31654  36.554  36.185   7.651
 2178POPC   NC331655   1.517  40.495   9.492
 2178POPC   PO431656   2.083  40.846   9.355
 2178POPC   GL131657   1.979  40.526   9.070
 2178POPC   GL231658   2.285  40.465   8.873
 2178POPC   C1A31659   1.813  40.616   8.661
 2178POPC   D2A31660   1.954  40.846   8.299
 2178POPC   C3A31661   1.638  40.749   7.986
 2178POPC   C4A31662   1.384  40.841   7.600
 2178POPC   C1B31663   2.269  40.920   8.733
 2178POPC   C2B31664   2.279  41.271   8.438
 2178POPC   C3B31665   2.328  41.142   8.022
 2178POPC   C4B31666   2.145  40.751   7.821
 2179POPC   NC331667  40.548  40.504   9.566
 2179POPC   PO431668  40.966  41.059   9.560
 2179POPC   GL131669  40.935  40.791   9.224
 2179POPC   GL231670  40.629  40.748   9.123
 2179POPC   C1A31671  41.035  40.840   8.821
 2179POPC   D2A31672  40.859  40.926   8.452
 2179POPC   C3A31673  40.892  40.657   8.102
 2179POPC   C4A31674  41.000  40.888   7.749
 2179POPC   C1B31675  40.669  40.500   8.733
 2179POPC   C2B31676  40.456  40.598   8.371
 2179POPC   C3B31677  40.419  40.454   8.001
 2179POPC   C4B31678  40.548  40.690   7.692
 2180POPC   NC331679   9.428   4.793   9.731
 2180POPC   PO431680   9.899   4.714   9.470
 2180POPC   GL131681   9.668   4.930   9.129
 2180POPC   GL231682   9.635   5.317   9.059
 2180POPC   C1A31683   9.781   4.980   8.696
 2180POPC   D2A31684   9.944   4.801   8.339
 2180POPC   C3A31685   9.671   4.841   8.005
 2180POPC   C4A31686   9.844   5.020   7.656
 2180POPC   C1B31687   9.856   5.489   8.674
 2180POPC   C2B31688   9.820   5.304   8.257
 2180POPC   C3B31689   9.527   5.342   7.909
 2180POPC   C4B31690   9.516   5.384   7.446
 2181POPC   NC331691   5.173  34.999   9.530
 2181POPC   PO431692   4.887  35.598   9.428
 2181POPC   GL131693   5.055  35.327   9.126
 2181POPC   GL231694   4.844  35.035   9.115
 2181POPC   C1A31695   5.203  35.452   8.729
 2181POPC   D2A31696   5.153  35.239   8.340
 2181POPC   C3A31697   5.222  35.501   8.023
 2181POPC   C4A31698   5.238  35.305   7.681
 2181POPC   C1B31699   4.766  35.198   8.701
 2181POPC   C2B31700   4.550  35.245   8.310
 2181POPC   C3B31701   4.752  35.345   7.938
 2181POPC   C4B31702   4.779  35.085   7.643
 2182POPC   NC331703  25.431  12.473   9.097
 2182POPC   PO431704  25.066  12.886   9.518
 2182POPC   GL131705  25.206  12.983   9.128
 2182POPC   GL231706  24.969  12.790   9.018
 2182POPC   C1A31707  25.369  12.986   8.714
 2182POPC   D2A31708  25.149  12.808   8.382
 2182POPC   C3A31709  25.205  12.606   7.973
 2182POPC   C4A31710  25.396  12.776   7.593
 2182POPC   C1B31711  24.872  13.113   8.719
 2182POPC   C2B31712  25.103  13.313   8.382
 2182POPC   C3B31713  25.204  13.132   7.957
 2182POPC   C4B31714  25.088  13.179   7.497
 2183POPC   NC331715   9.143  23.075   9.473
 2183POPC   PO431716   9.659  23.301   9.241
 2183POPC   GL131717   9.288  22.984   9.003
 2183POPC   GL231718   9.087  22.662   9.150
 2183POPC   C1A31719   8.834  22.943   8.803
 2183POPC   D2A31720   8.558  22.745   8.485
 2183POPC   C3A31721   8.628  22.904   8.082
 2183POPC   C4A31722   8.921  22.865   7.772
 2183POPC   C1B31723   9.002  22.467   8.740
 2183POPC   C2B31724   9.020  22.594   8.285
 2183POPC   C3B31725   9.249  22.463   7.878
 2183POPC   C4B31726   9.304  22.726   7.463
 2184POPC   NC331727  18.505  27.216   9.439
 2184POPC   PO431728  18.043  26.761   9.460
 2184POPC   GL131729  18.295  26.691   9.071
 2184POPC   GL231730  18.511  26.389   9.057
 2184POPC   C1A31731  18.540  26.905   8.739
 2184POPC   D2A31732  18.388  27.068   8.346
 2184POPC   C3A31733  18.599  27.089   7.926
 2184POPC   C4A31734  18.395  27.050   7.505
 2184POPC   C1B31735  18.677  26.433   8.624
 2184POPC   C2B31736  18.619  26.634   8.240
 2184POPC   C3B31737  18.429  26.621   7.825
 2184POPC   C4B31738  18.469  26.572   7.351
 2185POPC   NC331739  13.744  33.952   9.875
 2185POPC   PO431740  13.331  34.229   9.409
 2185POPC   GL131741  13.341  34.020   9.058
 2185POPC   GL231742  13.596  33.762   9.090
 2185POPC   C1A31743  13.542  34.042   8.669
 2185POPC   D2A31744  13.536  33.783   8.324
 2185POPC   C3A31745  13.596  33.983   7.927
 2185POPC   C4A31746  13.553  34.275   7.606
 2185POPC   C1B31747  13.954  33.767   8.799
 2185POPC   C2B31748  14.020  33.593   8.393
 2185POPC   C3B31749  14.059  33.798   8.023
 2185POPC   C4B31750  13.935  33.726   7.632
 2186POPC   NC331751  35.519  22.297   9.508
 2186POPC   PO431752  35.078  21.816   9.591
 2186POPC   GL131753  35.153  22.060   9.192
 2186POPC   GL231754  35.523  22.043   9.067
 2186POPC   C1A31755  35.164  22.188   8.757
 2186POPC   D2A31756  35.254  22.014   8.410
 2186POPC   C3A31757  35.115  22.229   8.056
 2186POPC   C4A31758  35.356  22.372   7.688
 2186POPC   C1B31759  35.729  22.154   8.684
 2186POPC   C2B31760  35.591  22.374   8.289
 2186POPC   C3B31761  35.813  22.415   7.935
 2186POPC   C4B31762  35.753  22.003   7.791
 2187POPC   NC331763   3.353   2.480   9.408
 2187POPC   PO431764   3.636   3.077   9.443
 2187POPC   GL131765   3.789   2.742   9.201
 2187POPC   GL231766   3.480   2.746   8.991
 2187POPC   C1A31767   3.955   2.754   8.797
 2187POPC   D2A31768   3.725   2.765   8.400
 2187POPC   C3A31769   3.911   2.690   7.989
 2187POPC   C4A31770   3.757   2.727   7.558
 2187POPC   C1B31771   3.421   2.437   8.676
 2187POPC   C2B31772   3.298   2.504   8.246
 2187POPC   C3B31773   3.337   2.586   7.807
 2187POPC   C4B31774   3.330   2.320   7.467
 2188POPC   NC331775  15.896  10.594   9.481
 2188POPC   PO431776  16.528  10.348   9.405
 2188POPC   GL131777  16.162  10.290   9.146
 2188POPC   GL231778  15.787  10.196   9.159
 2188POPC   C1A31779  16.053  10.452   8.754
 2188POPC   D2A31780  15.892  10.282   8.384
 2188POPC   C3A31781  16.111  10.437   8.016
 2188POPC   C4A31782  16.107  10.602   7.587
 2188POPC   C1B31783  15.561  10.374   8.802
 2188POPC   C2B31784  15.565  10.670   8.436
 2188POPC   C3B31785  15.610  10.558   7.989
 2188POPC   C4B31786  15.629  10.720   7.571
 2189POPC   NC331787  36.822  31.178   9.352
 2189POPC   PO431788  37.365  31.073   9.788
 2189POPC   GL131789  37.348  31.130   9.313
 2189POPC   GL231790  37.396  31.491   9.223
 2189POPC   C1A31791  37.359  31.137   8.856
 2189POPC   D2A31792  37.034  31.264   8.550
 2189POPC   C3A31793  36.919  31.339   8.114
 2189POPC   C4A31794  36.897  31.176   7.693
 2189POPC   C1B31795  37.264  31.670   8.791
 2189POPC   C2B31796  36.927  31.756   8.463
 2189POPC   C3B31797  36.979  31.850   8.014
 2189POPC   C4B31798  37.109  31.641   7.607
 2190POPC   NC331799  14.008  23.379   9.467
 2190POPC   PO431800  13.325  23.489   9.453
 2190POPC   GL131801  13.429  23.745   9.129
 2190POPC   GL231802  13.724  23.662   9.154
 2190POPC   C1A31803  13.331  23.799   8.724
 2190POPC   D2A31804  13.513  23.640   8.355
 2190POPC   C3A31805  13.398  23.737   7.965
 2190POPC   C4A31806  13.707  23.978   7.734
 2190POPC   C1B31807  13.787  23.496   8.767
 2190POPC   C2B31808  13.856  23.258   8.381
 2190POPC   C3B31809  13.785  23.358   7.941
 2190POPC   C4B31810  13.628  23.494   7.551
 2191POPC   NC331811  26.321  13.869   9.410
 2191POPC   PO431812  25.995  13.255   9.539
 2191POPC   GL131813  26.110  13.444   9.160
 2191POPC   GL231814  25.772  13.586   9.100
 2191POPC   C1A31815  26.144  13.630   8.753
 2191POPC   D2A31816  25.808  13.622   8.475
 2191POPC   C3A31817  25.938  13.692   8.099
 2191POPC   C4A31818  26.180  13.621   7.782
 2191POPC   C1B31819  25.818  13.228   8.782
 2191POPC   C2B31820  25.681  13.121   8.346
 2191POPC   C3B31821  25.839  13.204   7.947
 2191POPC   C4B31822  25.591  13.244   7.616
 2192POPC   NC331823  39.279  30.986   9.626
 2192POPC   PO431824  39.073  30.330   9.674
 2192POPC   GL131825  39.004  30.562   9.264
 2192POPC   GL231826  39.334  30.619   9.201
 2192POPC   C1A31827  39.052  30.710   8.788
 2192POPC   D2A31828  38.969  30.649   8.322
 2192POPC   C3A31829  39.037  30.686   7.854
 2192POPC   C4A31830  39.064  30.701   7.374
 2192POPC   C1B31831  39.536  30.899   8.872
 2192POPC   C2B31832  39.379  31.064   8.470
 2192POPC   C3B31833  39.443  30.917   8.055
 2192POPC   C4B31834  39.570  30.535   7.846
 2193POPC   NC331835  12.991  35.218   9.547
 2193POPC   PO431836  12.869  35.817   9.379
 2193POPC   GL131837  12.647  35.528   9.124
 2193POPC   GL231838  12.664  35.160   9.147
 2193POPC   C1A31839  12.690  35.507   8.706
 2193POPC   D2A31840  12.966  35.630   8.367
 2193POPC   C3A31841  12.857  35.496   7.930
 2193POPC   C4A31842  12.691  35.200   7.623
 2193POPC   C1B31843  12.816  35.016   8.754
 2193POPC   C2B31844  12.708  35.136   8.325
 2193POPC   C3B31845  12.979  35.012   8.008
 2193POPC   C4B31846  13.121  34.887   7.647
 2194POPC   NC331847  16.460  28.111   9.440
 2194POPC   PO431848  16.882  28.595   9.419
 2194POPC   GL131849  16.616  28.478   9.091
 2194POPC   GL231850  16.266  28.541   9.227
 2194POPC   C1A31851  16.739  28.415   8.659
 2194POPC   D2A31852  16.851  28.566   8.240
 2194POPC   C3A31853  16.809  28.385   7.839
 2194POPC   C4A31854  16.892  28.626   7.457
 2194POPC   C1B31855  16.215  28.610   8.798
 2194POPC   C2B31856  16.379  28.675   8.410
 2194POPC   C3B31857  16.369  28.612   7.970
 2194POPC   C4B31858  16.386  28.650   7.525
 2195POPC   NC331859  10.133  11.915   9.512
 2195POPC   PO431860   9.526  12.074   9.542
 2195POPC   GL131861   9.731  12.030   9.175
 2195POPC   GL231862  10.066  12.114   9.057
 2195POPC   C1A31863   9.600  12.248   8.834
 2195POPC   D2A31864   9.520  12.103   8.450
 2195POPC   C3A31865   9.807  12.050   8.151
 2195POPC   C4A31866   9.805  11.958   7.731
 2195POPC   C1B31867  10.048  12.089   8.613
 2195POPC   C2B31868  10.254  12.265   8.245
 2195POPC   C3B31869  10.186  12.292   7.795
 2195POPC   C4B31870  10.019  12.264   7.371
 2196POPC   NC331871   0.646   2.984   9.464
 2196POPC   PO431872   0.398   2.348   9.478
 2196POPC   GL131873   0.408   2.639   9.093
 2196POPC   GL231874   0.611   2.900   8.960
 2196POPC   C1A31875   0.201   2.852   8.690
 2196POPC   D2A31876   0.447   3.040   8.356
 2196POPC   C3A31877   0.557   2.762   7.993
 2196POPC   C4A31878   0.478   2.789   7.548
 2196POPC   C1B31879   0.832   2.728   8.609
 2196POPC   C2B31880   0.974   2.963   8.303
 2196POPC   C3B31881   0.837   3.188   8.041
 2196POPC   C4B31882   0.943   3.056   7.654
 2197POPC   NC331883  20.640  12.934   9.459
 2197POPC   PO431884  20.144  13.464   9.457
 2197POPC   GL131885  20.346  13.198   9.089
 2197POPC   GL231886  20.437  12.818   9.017
 2197POPC   C1A31887  20.498  13.149   8.644
 2197POPC   D2A31888  20.545  12.872   8.281
 2197POPC   C3A31889  20.695  13.104   7.899
 2197POPC   C4A31890  20.742  13.083   7.438
 2197POPC   C1B31891  20.813  12.679   8.733
 2197POPC   C2B31892  20.979  12.531   8.299
 2197POPC   C3B31893  20.794  12.589   7.875
 2197POPC   C4B31894  20.836  12.580   7.408
 2198POPC   NC331895  44.753  39.586   9.521
 2198POPC   PO431896  44.634  38.902   9.716
 2198POPC   GL131897  44.708  39.111   9.292
 2198POPC   GL231898  44.975  39.317   9.167
 2198POPC   C1A31899  44.579  39.195   8.849
 2198POPC   D2A31900  44.433  39.001   8.482
 2198POPC   C3A31901  44.472  39.206   8.043
 2198POPC   C4A31902  44.349  38.967   7.652
 2198POPC   C1B31903  44.974  39.500   8.761
 2198POPC   C2B31904  44.647  39.554   8.446
 2198POPC   C3B31905  44.822  39.572   8.043
 2198POPC   C4B31906  44.836  39.362   7.644
 2199POPC   NC331907  12.182  36.846   9.422
 2199POPC   PO431908  11.504  36.984   9.421
 2199POPC   GL131909  11.809  37.069   9.114
 2199POPC   GL231910  11.978  36.743   8.983
 2199POPC   C1A31911  11.717  37.035   8.684
 2199POPC   D2A31912  11.943  36.799   8.409
 2199POPC   C3A31913  11.861  37.043   8.100
 2199POPC   C4A31914  11.884  36.954   7.731
 2199POPC   C1B31915  12.295  36.929   8.759
 2199POPC   C2B31916  12.470  36.814   8.373
 2199POPC   C3B31917  12.292  36.783   7.997
 2199POPC   C4B31918  12.430  36.739   7.605
 2200POPC   NC331919  37.515  28.112   9.462
 2200POPC   PO431920  37.883  28.566   9.773
 2200POPC   GL131921  37.715  28.526   9.285
 2200POPC   GL231922  37.859  28.258   9.127
 2200POPC   C1A31923  37.551  28.576   8.820
 2200POPC   D2A31924  37.579  28.319   8.408
 2200POPC   C3A31925  37.390  28.245   8.019
 2200POPC   C4A31926  37.573  28.550   7.782
 2200POPC   C1B31927  37.984  28.271   8.728
 2200POPC   C2B31928  38.046  28.097   8.336
 2200POPC   C3B31929  37.908  28.204   7.945
 2200POPC   C4B31930  38.005  28.065   7.544
 2201POPC   NC331931  21.258  43.341   9.403
 2201POPC   PO431932  21.567  42.728   9.547
 2201POPC   GL131933  21.562  42.960   9.120
 2201POPC   GL231934  21.759  43.225   9.247
 2201POPC   C1A31935  21.285  43.194   8.759
 2201POPC   D2A31936  21.171  43.400   8.349
 2201POPC   C3A31937  21.317  43.212   8.002
 2201POPC   C4A31938  21.603  42.880   7.930
 2201POPC   C1B31939  21.767  43.368   8.827
 2201POPC   C2B31940  21.690  43.184   8.431
 2201POPC   C3B31941  21.751  43.470   8.134
 2201POPC   C4B31942  21.707  43.431   7.739
 2202POPC   NC331943  39.829  35.853   9.871
 2202POPC   PO431944  40.267  36.317   9.599
 2202POPC   GL131945  39.986  36.231   9.194
 2202POPC   GL231946  40.093  35.925   9.057
 2202POPC   C1A31947  39.733  36.109   8.777
 2202POPC   D2A31948  39.946  36.044   8.369
 2202POPC   C3A31949  39.805  36.365   8.042
 2202POPC   C4A31950  39.874  36.290   7.589
 2202POPC   C1B31951  40.241  36.219   8.736
 2202POPC   C2B31952  40.397  36.288   8.337
 2202POPC   C3B31953  40.245  36.113   7.962
 2202POPC   C4B31954  40.379  36.215   7.600
 2203POPC   NC331955  21.152  27.256   9.751
 2203POPC   PO431956  21.556  27.765   9.513
 2203POPC   GL131957  21.417  27.449   9.201
 2203POPC   GL231958  21.155  27.679   9.134
 2203POPC   C1A31959  21.235  27.415   8.729
 2203POPC   D2A31960  21.462  27.433   8.335
 2203POPC   C3A31961  21.433  27.512   7.879
 2203POPC   C4A31962  21.482  27.467   7.416
 2203POPC   C1B31963  21.285  27.965   8.779
 2203POPC   C2B31964  21.342  28.176   8.383
 2203POPC   C3B31965  21.115  28.176   8.011
 2203POPC   C4B31966  21.103  27.855   7.715
 2204POPC   NC331967  19.609   6.226   9.563
 2204POPC   PO431968  19.852   5.731   9.609
 2204POPC   GL131969  19.718   5.859   9.169
 2204POPC   GL231970  19.376   6.021   9.099
 2204POPC   C1A31971  19.955   5.916   8.760
 2204POPC   D2A31972  20.113   5.678   8.413
 2204POPC   C3A31973  20.137   5.826   8.006
 2204POPC   C4A31974  19.819   5.724   7.772
 2204POPC   C1B31975  19.456   5.864   8.662
 2204POPC   C2B31976  19.673   5.935   8.253
 2204POPC   C3B31977  19.815   6.226   7.922
 2204POPC   C4B31978  19.697   6.329   7.511
 2205POPC   NC331979   7.454  23.365   9.289
 2205POPC   PO431980   7.212  23.878   9.418
 2205POPC   GL131981   7.202  23.726   9.015
 2205POPC   GL231982   7.011  23.439   9.029
 2205POPC   C1A31983   7.275  23.855   8.584
 2205POPC   D2A31984   7.132  24.031   8.191
 2205POPC   C3A31985   7.278  24.006   7.750
 2205POPC   C4A31986   7.275  23.867   7.303
 2205POPC   C1B31987   7.209  23.357   8.658
 2205POPC   C2B31988   7.262  23.423   8.223
 2205POPC   C3B31989   7.201  23.513   7.806
 2205POPC   C4B31990   7.596  23.601   7.590
 2206POPC   NC331991   5.236  38.619   9.476
 2206POPC   PO431992   4.686  38.246   9.573
 2206POPC   GL131993   4.853  38.362   9.186
 2206POPC   GL231994   4.829  38.708   9.178
 2206POPC   C1A31995   5.052  38.252   8.787
 2206POPC   D2A31996   5.059  38.042   8.381
 2206POPC   C3A31997   5.063  38.313   8.009
 2206POPC   C4A31998   5.260  38.334   7.580
 2206POPC   C1B31999   5.151  38.757   8.837
 2206POPC   C2B32000   5.183  38.628   8.416
 2206POPC   C3B32001   5.261  38.781   8.018
 2206POPC   C4B32002   4.956  38.737   7.672
 2207POPC   NC332003  10.313  39.350   9.772
 2207POPC   PO432004  10.848  39.451   9.446
 2207POPC   GL132005  10.746  39.159   9.145
 2207POPC   GL232006  10.412  39.072   9.221
 2207POPC   C1A32007  10.719  39.231   8.701
 2207POPC   D2A32008  10.944  39.344   8.340
 2207POPC   C3A32009  10.780  39.275   7.925
 2207POPC   C4A32010  10.348  39.365   7.851
 2207POPC   C1B32011  10.224  39.115   8.800
 2207POPC   C2B32012  10.372  39.046   8.390
 2207POPC   C3B32013  10.360  38.883   8.003
 2207POPC   C4B32014  10.158  38.889   7.580
 2208POPC   NC332015   4.111  21.585   9.459
 2208POPC   PO432016   4.559  21.153   9.680
 2208POPC   GL132017   4.471  21.284   9.239
 2208POPC   GL232018   4.240  21.064   9.094
 2208POPC   C1A32019   4.331  21.453   8.814
 2208POPC   D2A32020   4.460  21.751   8.543
 2208POPC   C3A32021   4.444  21.566   8.153
 2208POPC   C4A32022   4.198  21.643   7.802
 2208POPC   C1B32023   3.966  21.079   8.782
 2208POPC   C2B32024   3.890  21.328   8.440
 2208POPC   C3B32025   4.087  21.201   8.069
 2208POPC   C4B32026   4.227  21.141   7.672
 2209POPC   NC332027   9.773  38.659   9.541
 2209POPC   PO432028   9.904  38.046   9.256
 2209POPC   GL132029   9.856  38.410   9.099
 2209POPC   GL232030  10.145  38.619   9.180
 2209POPC   C1A32031   9.585  38.410   8.762
 2209POPC   D2A32032   9.385  38.628   8.451
 2209POPC   C3A32033   9.514  38.551   8.030
 2209POPC   C4A32034   9.366  38.780   7.670
 2209POPC   C1B32035  10.126  38.618   8.740
 2209POPC   C2B32036   9.995  38.308   8.469
 2209POPC   C3B32037  10.072  38.463   8.094
 2209POPC   C4B32038   9.929  38.387   7.714
 2210POPC   NC332039  25.583  26.512   9.531
 2210POPC   PO432040  25.059  26.917   9.441
 2210POPC   GL132041  25.187  26.644   9.110
 2210POPC   GL232042  25.571  26.509   9.039
 2210POPC   C1A32043  25.000  26.798   8.687
 2210POPC   D2A32044  24.817  26.822   8.238
 2210POPC   C3A32045  25.087  26.800   7.871
 2210POPC   C4A32046  25.541  26.952   7.794
 2210POPC   C1B32047  25.344  26.425   8.685
 2210POPC   C2B32048  25.294  26.564   8.296
 2210POPC   C3B32049  25.455  26.430   7.927
 2210POPC   C4B32050  25.224  26.394   7.545
 2211POPC   NC332051  36.357  32.447   9.969
 2211POPC   PO432052  35.846  31.950   9.789
 2211POPC   GL132053  35.976  32.247   9.406
 2211POPC   GL232054  35.805  32.002   9.265
 2211POPC   C1A32055  36.121  32.318   8.932
 2211POPC   D2A32056  36.160  32.436   8.473
 2211POPC   C3A32057  36.106  32.167   8.089
 2211POPC   C4A32058  35.970  32.348   7.703
 2211POPC   C1B32059  35.827  31.881   8.875
 2211POPC   C2B32060  35.804  32.061   8.502
 2211POPC   C3B32061  35.571  31.959   8.159
 2211POPC   C4B32062  35.737  31.908   7.784
 2212POPC   NC332063  15.554  27.960   9.388
 2212POPC   PO432064  15.220  28.572   9.482
 2212POPC   GL132065  15.232  28.472   9.091
 2212POPC   GL232066  15.565  28.380   9.067
 2212POPC   C1A32067  15.284  28.480   8.652
 2212POPC   D2A32068  15.015  28.163   8.507
 2212POPC   C3A32069  15.028  28.036   8.100
 2212POPC   C4A32070  14.870  28.370   7.815
 2212POPC   C1B32071  15.450  28.011   8.768
 2212POPC   C2B32072  15.596  27.928   8.360
 2212POPC   C3B32073  15.519  28.090   7.955
 2212POPC   C4B32074  15.248  27.917   7.653
 2213POPC   NC332075   9.628  32.152   9.752
 2213POPC   PO432076   9.946  32.717   9.817
 2213POPC   GL132077   9.996  32.324   9.443
 2213POPC   GL232078   9.673  32.198   9.261
 2213POPC   C1A32079  10.076  32.247   8.954
 2213POPC   D2A32080   9.965  32.398   8.523
 2213POPC   C3A32081  10.143  32.169   8.164
 2213POPC   C4A32082  10.012  32.287   7.730
 2213POPC   C1B32083   9.413  32.071   8.922
 2213POPC   C2B32084   9.403  32.152   8.468
 2213POPC   C3B32085   9.631  32.214   8.090
 2213POPC   C4B32086   9.519  32.467   7.773
 2214POPC   NC332087  43.734  42.505   9.467
 2214POPC   PO432088  44.137  42.007   9.522
 2214POPC   GL132089  43.915  41.957   9.124
 2214POPC   GL232090  43.789  42.292   9.004
 2214POPC   C1A32091  43.951  41.963   8.670
 2214POPC   D2A32092  43.947  42.327   8.418
 2214POPC   C3A32093  43.803  42.234   8.051
 2214POPC   C4A32094  43.935  42.373   7.642
 2214POPC   C1B32095  43.532  42.523   8.706
 2214POPC   C2B32096  43.468  42.593   8.275
 2214POPC   C3B32097  43.499  42.582   7.842
 2214POPC   C4B32098  43.444  42.587   7.391
 2215POPC   NC332099   3.495   4.238   9.530
 2215POPC   PO432100   3.481   4.896   9.528
 2215POPC   GL132101   3.476   4.618   9.130
 2215POPC   GL232102   3.769   4.387   9.128
 2215POPC   C1A32103   3.556   4.497   8.665
 2215POPC   D2A32104   3.463   4.163   8.342
 2215POPC   C3A32105   3.463   4.151   7.876
 2215POPC   C4A32106   3.655   4.468   7.596
 2215POPC   C1B32107   3.829   4.036   8.814
 2215POPC   C2B32108   3.851   3.803   8.394
 2215POPC   C3B32109   3.949   4.044   8.017
 2215POPC   C4B32110   3.849   4.001   7.572
 2216POPC   NC332111  42.594  16.774   9.600
 2216POPC   PO432112  41.927  16.645   9.582
 2216POPC   GL132113  42.088  16.878   9.212
 2216POPC   GL232114  42.401  16.777   9.137
 2216POPC   C1A32115  42.048  16.759   8.758
 2216POPC   D2A32116  42.231  16.590   8.371
 2216POPC   C3A32117  42.056  16.661   7.971
 2216POPC   C4A32118  42.121  16.805   7.563
 2216POPC   C1B32119  42.549  16.870   8.736
 2216POPC   C2B32120  42.508  17.012   8.329
 2216POPC   C3B32121  42.552  16.765   7.977
 2216POPC   C4B32122  42.592  17.019   7.640
 2217POPC   NC332123  27.899  22.463   9.643
 2217POPC   PO432124  27.493  23.014   9.524
 2217POPC   GL132125  27.598  23.207   9.122
 2217POPC   GL232126  27.255  23.311   9.083
 2217POPC   C1A32127  27.800  23.000   8.769
 2217POPC   D2A32128  27.608  22.645   8.548
 2217POPC   C3A32129  27.539  22.691   8.117
 2217POPC   C4A32130  27.921  22.799   7.860
 2217POPC   C1B32131  27.352  23.182   8.621
 2217POPC   C2B32132  27.607  23.198   8.214
 2217POPC   C3B32133  27.486  23.080   7.771
 2217POPC   C4B32134  27.349  23.261   7.394
 2218POPC   NC332135  44.922  22.937   9.529
 2218POPC   PO432136  44.349  22.513   9.557
 2218POPC   GL132137  44.378  22.752   9.178
 2218POPC   GL232138  44.490  23.109   9.265
 2218POPC   C1A32139  44.373  22.586   8.711
 2218POPC   D2A32140  44.422  22.464   8.240
 2218POPC   C3A32141  44.822  22.527   8.061
 2218POPC   C4A32142  44.954  22.745   7.688
 2218POPC   C1B32143  44.339  23.103   8.821
 2218POPC   C2B32144  44.356  22.965   8.369
 2218POPC   C3B32145  44.469  22.895   7.929
 2218POPC   C4B32146  44.443  23.191   7.581
 2219POPC   NC332147   1.904   8.167   9.557
 2219POPC   PO432148   2.489   8.504   9.501
 2219POPC   GL132149   2.383   8.214   9.112
 2219POPC   GL232150   2.133   8.001   9.137
 2219POPC   C1A32151   2.175   8.109   8.657
 2219POPC   D2A32152   2.303   8.133   8.250
 2219POPC   C3A32153   2.136   8.181   7.867
 2219POPC   C4A32154   1.781   8.398   7.789
 2219POPC   C1B32155   1.795   7.848   8.889
 2219POPC   C2B32156   1.657   8.070   8.533
 2219POPC   C3B32157   1.718   8.022   8.112
 2219POPC   C4B32158   1.625   7.909   7.706
 2220POPC   NC332159  26.877   2.213   9.501
 2220POPC   PO432160  26.676   1.600   9.551
 2220POPC   GL132161  26.676   1.829   9.187
 2220POPC   GL232162  27.022   1.840   9.134
 2220POPC   C1A32163  26.595   1.750   8.737
 2220POPC   D2A32164  26.700   1.554   8.316
 2220POPC   C3A32165  26.697   1.813   7.941
 2220POPC   C4A32166  26.894   2.212   7.978
 2220POPC   C1B32167  27.085   1.587   8.754
 2220POPC   C2B32168  27.207   1.672   8.303
 2220POPC   C3B32169  27.242   1.830   7.873
 2220POPC   C4B32170  27.257   1.686   7.417
 2221POPC   NC332171  15.160  43.659   9.439
 2221POPC   PO432172  15.739  43.685   9.434
 2221POPC   GL132173  15.525  43.894   9.127
 2221POPC   GL232174  15.201  44.014   9.107
 2221POPC   C1A32175  15.441  43.796   8.702
 2221POPC   D2A32176  15.207  43.665   8.359
 2221POPC   C3A32177  15.371  43.848   8.024
 2221POPC   C4A32178  15.548  43.744   7.645
 2221POPC   C1B32179  15.042  44.175   8.769
 2221POPC   C2B32180  15.102  44.175   8.366
 2221POPC   C3B32181  15.015  44.215   7.955
 2221POPC   C4B32182  15.269  44.207   7.626
 2222POPC   NC332183   5.870  16.637   9.533
 2222POPC   PO432184   5.494  17.227   9.518
 2222POPC   GL132185   5.518  16.864   9.221
 2222POPC   GL232186   5.855  16.735   9.044
 2222POPC   C1A32187   5.416  16.664   8.822
 2222POPC   D2A32188   5.694  16.796   8.501
 2222POPC   C3A32189   5.698  16.657   8.086
 2222POPC   C4A32190   5.858  16.569   7.680
 2222POPC   C1B32191   6.130  16.897   8.765
 2222POPC   C2B32192   6.365  17.066   8.466
 2222POPC   C3B32193   6.454  16.967   8.089
 2222POPC   C4B32194   6.262  16.895   7.704
 2223POPC   NC332195  35.147  28.357   9.573
 2223POPC   PO432196  35.205  28.942   9.378
 2223POPC   GL132197  35.237  28.639   9.079
 2223POPC   GL232198  35.311  28.936   8.873
 2223POPC   C1A32199  35.280  28.471   8.665
 2223POPC   D2A32200  35.162  28.686   8.274
 2223POPC   C3A32201  35.150  28.481   7.865
 2223POPC   C4A32202  35.411  28.185   7.659
 2223POPC   C1B32203  35.688  28.789   8.668
 2223POPC   C2B32204  35.764  28.454   8.466
 2223POPC   C3B32205  35.634  28.501   8.068
 2223POPC   C4B32206  35.897  28.723   7.804
 2224POPC   NC332207  11.641  35.571   9.505
 2224POPC   PO432208  12.325  35.373   9.503
 2224POPC   GL132209  12.161  35.247   9.109
 2224POPC   GL232210  11.823  35.289   9.119
 2224POPC   C1A32211  12.096  35.491   8.727
 2224POPC   D2A32212  11.974  35.524   8.295
 2224POPC   C3A32213  12.291  35.317   8.028
 2224POPC   C4A32214  12.192  35.141   7.641
 2224POPC   C1B32215  11.599  35.275   8.724
 2224POPC   C2B32216  11.636  35.078   8.304
 2224POPC   C3B32217  11.755  35.253   7.896
 2224POPC   C4B32218  11.973  35.650   7.773
 2225POPC   NC332219   3.833  13.876   9.418
 2225POPC   PO432220   3.410  13.353   9.511
 2225POPC   GL132221   3.665  13.460   9.150
 2225POPC   GL232222   3.419  13.730   9.132
 2225POPC   C1A32223   3.874  13.629   8.755
 2225POPC   D2A32224   4.045  13.589   8.323
 2225POPC   C3A32225   3.871  13.885   8.048
 2225POPC   C4A32226   3.725  13.890   7.657
 2225POPC   C1B32227   3.377  13.528   8.727
 2225POPC   C2B32228   3.529  13.672   8.353
 2225POPC   C3B32229   3.350  13.742   7.951
 2225POPC   C4B32230   3.039  14.090   7.889
 2226POPC   NC332231   6.501  40.436   9.355
 2226POPC   PO432232   6.871  39.893   9.615
 2226POPC   GL132233   6.774  40.011   9.204
 2226POPC   GL232234   6.688  39.712   9.014
 2226POPC   C1A32235   6.832  40.163   8.798
 2226POPC   D2A32236   6.753  39.929   8.430
 2226POPC   C3A32237   6.909  40.109   8.050
 2226POPC   C4A32238   6.790  39.824   7.717
 2226POPC   C1B32239   6.356  39.929   8.797
 2226POPC   C2B32240   6.218  40.000   8.408
 2226POPC   C3B32241   6.409  39.937   8.028
 2226POPC   C4B32242   6.515  40.246   7.764
 2227POPC   NC332243  32.871  15.848   9.755
 2227POPC   PO432244  33.449  16.184   9.831
 2227POPC   GL132245  33.284  15.854   9.417
 2227POPC   GL232246  32.943  15.968   9.199
 2227POPC   C1A32247  33.328  15.771   8.921
 2227POPC   D2A32248  33.068  15.859   8.513
 2227POPC   C3A32249  33.259  15.952   8.106
 2227POPC   C4A32250  33.078  15.935   7.690
 2227POPC   C1B32251  33.137  16.239   8.843
 2227POPC   C2B32252  33.478  16.243   8.537
 2227POPC   C3B32253  33.515  16.410   8.116
 2227POPC   C4B32254  33.490  16.338   7.699
 2228POPC   NC332255  36.454   9.412   9.362
 2228POPC   PO432256  36.170   9.964   9.546
 2228POPC   GL132257  36.095   9.744   9.182
 2228POPC   GL232258  35.919   9.449   9.264
 2228POPC   C1A32259  36.260   9.763   8.763
 2228POPC   D2A32260  36.020   9.833   8.385
 2228POPC   C3A32261  36.209  10.028   8.041
 2228POPC   C4A32262  36.448   9.934   7.696
 2228POPC   C1B32263  35.961   9.343   8.830
 2228POPC   C2B32264  35.905   9.333   8.395
 2228POPC   C3B32265  35.985   9.516   7.979
 2228POPC   C4B32266  35.962   9.830   7.626
 2229POPC   NC332267  32.473  44.143   9.552
 2229POPC   PO432268  31.876  44.453   9.448
 2229POPC   GL132269  32.157  44.186   9.130
 2229POPC   GL232270  32.329  43.835   9.173
 2229POPC   C1A32271  32.033  43.924   8.765
 2229POPC   D2A32272  32.208  43.730   8.427
 2229POPC   C3A32273  31.959  43.727   8.087
 2229POPC   C4A32274  32.085  43.934   7.741
 2229POPC   C1B32275  32.549  44.014   8.799
 2229POPC   C2B32276  32.707  43.860   8.405
 2229POPC   C3B32277  32.525  43.967   8.022
 2229POPC   C4B32278  32.620  44.166   7.621
 2230POPC   NC332279  40.370   9.801   9.454
 2230POPC   PO432280  40.885   9.414   9.489
 2230POPC   GL132281  40.787   9.311   9.100
 2230POPC   GL232282  40.433   9.342   9.076
 2230POPC   C1A32283  40.906   9.439   8.690
 2230POPC   D2A32284  40.999   9.353   8.260
 2230POPC   C3A32285  40.880   9.594   7.891
 2230POPC   C4A32286  40.788  10.059   7.768
 2230POPC   C1B32287  40.413   9.625   8.746
 2230POPC   C2B32288  40.610   9.727   8.352
 2230POPC   C3B32289  40.417   9.766   7.971
 2230POPC   C4B32290  40.145   9.542   7.788
 2231POPC   NC332291   6.603   7.851   9.606
 2231POPC   PO432292   6.833   8.476   9.600
 2231POPC   GL132293   6.777   8.162   9.213
 2231POPC   GL232294   6.435   8.027   9.144
 2231POPC   C1A32295   6.791   8.106   8.738
 2231POPC   D2A32296   7.031   8.315   8.415
 2231POPC   C3A32297   6.828   8.423   8.044
 2231POPC   C4A32298   6.731   8.195   7.677
 2231POPC   C1B32299   6.275   8.052   8.710
 2231POPC   C2B32300   6.492   8.009   8.294
 2231POPC   C3B32301   6.321   7.994   7.869
 2231POPC   C4B32302   6.265   8.328   7.506
 2232POPC   NC332303  14.077  17.279   9.496
 2232POPC   PO432304  14.620  17.374   9.087
 2232POPC   GL132305  14.226  17.375   9.015
 2232POPC   GL232306  14.121  17.675   9.129
 2232POPC   C1A32307  14.032  17.312   8.665
 2232POPC   D2A32308  14.021  17.172   8.259
 2232POPC   C3A32309  14.387  17.319   8.058
 2232POPC   C4A32310  14.657  17.094   7.746
 2232POPC   C1B32311  13.935  17.794   8.720
 2232POPC   C2B32312  14.008  17.677   8.305
 2232POPC   C3B32313  13.923  17.613   7.902
 2232POPC   C4B32314  14.145  17.824   7.537
 2233POPC   NC332315  15.481  23.771   9.672
 2233POPC   PO432316  16.095  23.985   9.682
 2233POPC   GL132317  16.027  23.865   9.251
 2233POPC   GL232318  15.783  23.578   9.216
 2233POPC   C1A32319  16.192  23.776   8.835
 2233POPC   D2A32320  16.060  23.778   8.403
 2233POPC   C3A32321  16.269  23.761   7.995
 2233POPC   C4A32322  15.997  23.834   7.634
 2233POPC   C1B32323  15.538  23.498   8.823
 2233POPC   C2B32324  15.590  23.558   8.357
 2233POPC   C3B32325  15.839  23.453   7.961
 2233POPC   C4B32326  15.976  23.338   7.519
 2234POPC   NC332327  24.263   1.468   9.904
 2234POPC   PO432328  24.594   1.795   9.378
 2234POPC   GL132329  24.819   1.714   9.032
 2234POPC   GL232330  24.861   2.059   8.965
 2234POPC   C1A32331  24.594   1.648   8.657
 2234POPC   D2A32332  24.356   1.502   8.286
 2234POPC   C3A32333  24.299   1.801   7.922
 2234POPC   C4A32334  24.414   1.779   7.489
 2234POPC   C1B32335  24.665   2.145   8.581
 2234POPC   C2B32336  24.717   1.898   8.194
 2234POPC   C3B32337  24.797   1.974   7.771
 2234POPC   C4B32338  24.967   2.360   7.591
 2235POPC   NC332339   1.577  42.088   9.631
 2235POPC   PO432340   2.152  42.420   9.418
 2235POPC   GL132341   1.942  42.214   9.087
 2235POPC   GL232342   1.585  42.138   9.139
 2235POPC   C1A32343   2.122  42.126   8.679
 2235POPC   D2A32344   2.406  42.291   8.383
 2235POPC   C3A32345   2.330  42.129   8.001
 2235POPC   C4A32346   1.960  42.084   7.812
 2235POPC   C1B32347   1.619  42.019   8.727
 2235POPC   C2B32348   1.736  42.036   8.309
 2235POPC   C3B32349   1.554  41.845   7.989
 2235POPC   C4B32350   1.500  42.057   7.603
 2236POPC   NC332351   2.022   0.844   9.510
 2236POPC   PO432352   2.114   1.534   9.331
 2236POPC   GL132353   1.879   1.232   9.179
 2236POPC   GL232354   2.148   1.051   9.048
 2236POPC   C1A32355   1.666   0.978   8.872
 2236POPC   D2A32356   1.694   0.759   8.498
 2236POPC   C3A32357   1.878   0.994   8.150
 2236POPC   C4A32358   1.922   1.230   7.773
 2236POPC   C1B32359   2.162   1.027   8.602
 2236POPC   C2B32360   2.380   0.890   8.249
 2236POPC   C3B32361   2.272   0.813   7.812
 2236POPC   C4B32362   2.169   0.986   7.374
 2237POPC   NC332363  17.805  29.147   9.440
 2237POPC   PO432364  18.498  29.351   9.457
 2237POPC   GL132365  18.275  29.240   9.102
 2237POPC   GL232366  18.021  29.486   9.131
 2237POPC   C1A32367  18.317  28.954   8.719
 2237POPC   D2A32368  18.391  28.764   8.293
 2237POPC   C3A32369  18.510  29.035   7.937
 2237POPC   C4A32370  18.364  29.235   7.537
 2237POPC   C1B32371  17.956  29.346   8.712
 2237POPC   C2B32372  18.153  29.258   8.345
 2237POPC   C3B32373  18.018  29.187   7.968
 2237POPC   C4B32374  17.897  29.105   7.601
 2238POPC   NC332375  17.868   2.738   9.499
 2238POPC   PO432376  18.527   2.543   9.594
 2238POPC   GL132377  18.253   2.504   9.260
 2238POPC   GL232378  18.233   2.828   9.130
 2238POPC   C1A32379  18.173   2.423   8.827
 2238POPC   D2A32380  18.361   2.620   8.474
 2238POPC   C3A32381  18.267   2.546   8.085
 2238POPC   C4A32382  18.107   2.559   7.702
 2238POPC   C1B32383  18.078   2.967   8.750
 2238POPC   C2B32384  17.986   2.985   8.326
 2238POPC   C3B32385  18.203   3.043   7.931
 2238POPC   C4B32386  18.491   3.143   7.606
 2239POPC   NC332387   2.726  30.394   9.487
 2239POPC   PO432388   2.965  30.968   9.733
 2239POPC   GL132389   2.579  30.813   9.274
 2239POPC   GL232390   2.538  30.538   9.042
 2239POPC   C1A32391   2.490  30.998   8.835
 2239POPC   D2A32392   2.737  31.063   8.445
 2239POPC   C3A32393   2.591  31.026   8.018
 2239POPC   C4A32394   2.913  30.830   7.803
 2239POPC   C1B32395   2.675  30.566   8.610
 2239POPC   C2B32396   2.656  30.533   8.149
 2239POPC   C3B32397   2.818  30.330   7.770
 2239POPC   C4B32398   2.685  30.168   7.369
 2240POPC   NC332399  27.127  14.217   9.372
 2240POPC   PO432400  26.611  14.688   9.387
 2240POPC   GL132401  26.841  14.545   9.076
 2240POPC   GL232402  26.997  14.806   9.019
 2240POPC   C1A32403  26.836  14.250   8.726
 2240POPC   D2A32404  26.658  14.091   8.337
 2240POPC   C3A32405  26.792  14.306   7.983
 2240POPC   C4A32406  26.970  14.260   7.578
 2240POPC   C1B32407  27.244  14.590   8.738
 2240POPC   C2B32408  27.165  14.455   8.333
 2240POPC   C3B32409  27.133  14.667   7.916
 2240POPC   C4B32410  26.765  14.764   7.633
 2241POPC   NC332411  17.055  42.206   9.319
 2241POPC   PO432412  17.640  42.538   9.466
 2241POPC   GL132413  17.445  42.410   9.095
 2241POPC   GL232414  17.182  42.625   8.986
 2241POPC   C1A32415  17.571  42.199   8.747
 2241POPC   D2A32416  17.738  42.339   8.375
 2241POPC   C3A32417  17.559  42.400   7.989
 2241POPC   C4A32418  17.622  42.086   7.682
 2241POPC   C1B32419  17.248  42.525   8.530
 2241POPC   C2B32420  17.248  42.101   8.323
 2241POPC   C3B32421  17.158  41.912   7.929
 2241POPC   C4B32422  17.135  42.299   7.711
 2242POPC   NC332423   3.783   0.211   9.739
 2242POPC   PO432424   3.199   0.543   9.600
 2242POPC   GL132425   3.590   0.516   9.316
 2242POPC   GL232426   3.652   0.196   9.139
 2242POPC   C1A32427   3.750   0.650   8.900
 2242POPC   D2A32428   3.517   0.622   8.510
 2242POPC   C3A32429   3.696   0.734   8.123
 2242POPC   C4A32430   3.541   0.530   7.770
 2242POPC   C1B32431   3.334   0.186   8.787
 2242POPC   C2B32432   3.161   0.110   8.342
 2242POPC   C3B32433   3.314   0.040   7.889
 2242POPC   C4B32434   3.735   0.077   7.687
 2243POPC   NC332435  24.005  28.738   9.331
 2243POPC   PO432436  23.824  29.347   9.458
 2243POPC   GL132437  23.789  29.130   9.055
 2243POPC   GL232438  23.660  28.803   8.952
 2243POPC   C1A32439  23.641  29.196   8.636
 2243POPC   D2A32440  23.878  29.487   8.413
 2243POPC   C3A32441  23.800  29.493   8.000
 2243POPC   C4A32442  23.485  29.219   7.776
 2243POPC   C1B32443  24.014  28.766   8.708
 2243POPC   C2B32444  24.073  29.000   8.431
 2243POPC   C3B32445  23.775  29.005   8.141
 2243POPC   C4B32446  23.838  28.827   7.740
 2244POPC   NC332447   3.840  15.701   9.490
 2244POPC   PO432448   3.227  15.991   9.439
 2244POPC   GL132449   3.462  15.717   9.149
 2244POPC   GL232450   3.644  16.024   9.119
 2244POPC   C1A32451   3.641  15.572   8.732
 2244POPC   D2A32452   3.670  15.747   8.293
 2244POPC   C3A32453   3.349  15.717   7.954
 2244POPC   C4A32454   3.190  16.051   7.701
 2244POPC   C1B32455   3.689  16.079   8.704
 2244POPC   C2B32456   3.716  16.274   8.325
 2244POPC   C3B32457   3.659  16.186   7.896
 2244POPC   C4B32458   3.978  16.317   7.604
 2245POPC   NC332459  28.455  12.199   9.385
 2245POPC   PO432460  28.432  11.595   9.600
 2245POPC   GL132461  28.551  11.701   9.202
 2245POPC   GL232462  28.215  11.815   9.076
 2245POPC   C1A32463  28.639  11.792   8.777
 2245POPC   D2A32464  28.334  11.807   8.409
 2245POPC   C3A32465  28.445  11.939   7.974
 2245POPC   C4A32466  28.521  12.286   7.659
 2245POPC   C1B32467  28.277  12.177   8.756
 2245POPC   C2B32468  28.400  12.331   8.350
 2245POPC   C3B32469  28.166  12.403   7.993
 2245POPC   C4B32470  27.861  12.362   7.700
 2246POPC   NC332471  30.471  22.464   9.405
 2246POPC   PO432472  30.537  23.122   9.529
 2246POPC   GL132473  30.447  23.021   9.101
 2246POPC   GL232474  30.305  22.735   9.022
 2246POPC   C1A32475  30.382  23.106   8.656
 2246POPC   D2A32476  30.779  23.083   8.397
 2246POPC   C3A32477  30.715  23.161   7.965
 2246POPC   C4A32478  30.373  23.054   7.688
 2246POPC   C1B32479  30.568  22.643   8.619
 2246POPC   C2B32480  30.469  22.757   8.152
 2246POPC   C3B32481  30.726  22.679   7.749
 2246POPC   C4B32482  30.872  22.724   7.298
 2247POPC   NC332483  36.365   8.846   9.729
 2247POPC   PO432484  35.761   9.065   9.574
 2247POPC   GL132485  35.886   8.916   9.163
 2247POPC   GL232486  36.200   9.018   9.157
 2247POPC   C1A32487  36.022   8.829   8.708
 2247POPC   D2A32488  36.340   8.859   8.364
 2247POPC   C3A32489  36.080   8.996   8.049
 2247POPC   C4A32490  36.058   8.856   7.664
 2247POPC   C1B32491  36.442   9.104   8.793
 2247POPC   C2B32492  36.415   9.378   8.459
 2247POPC   C3B32493  36.495   9.303   8.073
 2247POPC   C4B32494  36.342   9.328   7.684
 2248POPC   NC332495  15.551   9.836   9.613
 2248POPC   PO432496  16.179   9.806   9.738
 2248POPC   GL132497  16.094   9.789   9.276
 2248POPC   GL232498  15.792   9.662   9.182
 2248POPC   C1A32499  16.030   9.928   8.810
 2248POPC   D2A32500  16.116   9.787   8.423
 2248POPC   C3A32501  15.981   9.935   8.030
 2248POPC   C4A32502  15.921   9.731   7.675
 2248POPC   C1B32503  15.517   9.834   8.866
 2248POPC   C2B32504  15.600   9.858   8.436
 2248POPC   C3B32505  15.508   9.744   8.008
 2248POPC   C4B32506  15.597   9.361   7.764
 2249POPC   NC332507   8.593  17.129   9.533
 2249POPC   PO432508   7.983  16.817   9.552
 2249POPC   GL132509   8.068  16.740   9.132
 2249POPC   GL232510   8.400  16.675   9.155
 2249POPC   C1A32511   8.240  16.753   8.695
 2249POPC   D2A32512   8.411  16.672   8.303
 2249POPC   C3A32513   8.154  16.626   7.942
 2249POPC   C4A32514   8.219  16.869   7.566
 2249POPC   C1B32515   8.557  16.368   8.839
 2249POPC   C2B32516   8.459  16.179   8.432
 2249POPC   C3B32517   8.479  16.209   7.982
 2249POPC   C4B32518   8.503  16.437   7.600
 2250POPC   NC332519   8.048  20.190   9.419
 2250POPC   PO432520   8.267  19.615   9.777
 2250POPC   GL132521   8.256  19.677   9.282
 2250POPC   GL232522   7.947  19.831   9.066
 2250POPC   C1A32523   8.305  19.543   8.818
 2250POPC   D2A32524   8.034  19.516   8.424
 2250POPC   C3A32525   8.230  19.656   8.026
 2250POPC   C4A32526   8.449  20.023   7.843
 2250POPC   C1B32527   7.963  20.029   8.625
 2250POPC   C2B32528   8.058  20.123   8.175
 2250POPC   C3B32529   7.977  20.180   7.722
 2250POPC   C4B32530   7.780  20.206   7.304
 2251POPC   NC332531   4.962   7.184   9.724
 2251POPC   PO432532   4.691   7.801   9.474
 2251POPC   GL132533   4.760   7.567   9.066
 2251POPC   GL232534   4.828   7.241   9.201
 2251POPC   C1A32535   5.156   7.522   8.770
 2251POPC   D2A32536   5.335   7.810   8.496
 2251POPC   C3A32537   5.243   7.639   8.125
 2251POPC   C4A32538   5.103   7.684   7.699
 2251POPC   C1B32539   4.956   7.068   8.815
 2251POPC   C2B32540   5.236   7.092   8.435
 2251POPC   C3B32541   5.110   7.164   8.007
 2251POPC   C4B32542   4.919   7.212   7.623
 2252POPC   NC332543   9.638  33.062   9.827
 2252POPC   PO432544   9.780  32.744   9.223
 2252POPC   GL132545   9.882  32.936   8.894
 2252POPC   GL232546  10.095  33.184   9.050
 2252POPC   C1A32547   9.579  32.973   8.572
 2252POPC   D2A32548   9.572  32.688   8.261
 2252POPC   C3A32549   9.631  32.925   7.929
 2252POPC   C4A32550   9.628  33.261   7.697
 2252POPC   C1B32551   9.972  33.371   8.640
 2252POPC   C2B32552   9.820  33.328   8.216
 2252POPC   C3B32553  10.084  33.160   7.912
 2252POPC   C4B32554  10.305  33.286   7.567
 2253POPC   NC332555  20.810  31.421   9.415
 2253POPC   PO432556  20.153  31.484   9.476
 2253POPC   GL132557  20.426  31.636   9.184
 2253POPC   GL232558  20.203  31.750   9.025
 2253POPC   C1A32559  20.686  31.666   8.783
 2253POPC   D2A32560  20.649  31.793   8.339
 2253POPC   C3A32561  20.784  31.519   7.997
 2253POPC   C4A32562  20.644  31.237   7.711
 2253POPC   C1B32563  20.279  31.343   8.794
 2253POPC   C2B32564  20.438  31.332   8.375
 2253POPC   C3B32565  20.293  31.546   8.019
 2253POPC   C4B32566  20.240  31.649   7.601
 2254POPC   NC332567  21.733  26.612   9.509
 2254POPC   PO432568  22.390  26.660   9.375
 2254POPC   GL132569  22.140  26.785   9.106
 2254POPC   GL232570  21.990  27.029   9.281
 2254POPC   C1A32571  22.027  26.753   8.684
 2254POPC   D2A32572  21.681  26.580   8.457
 2254POPC   C3A32573  21.839  26.699   8.084
 2254POPC   C4A32574  22.229  26.683   7.881
 2254POPC   C1B32575  21.963  27.222   8.848
 2254POPC   C2B32576  21.861  27.130   8.384
 2254POPC   C3B32577  22.053  27.165   7.972
 2254POPC   C4B32578  21.817  27.000   7.646
 2255POPC   NC332579  40.648  33.994   9.768
 2255POPC   PO432580  40.655  33.369   9.554
 2255POPC   GL132581  40.833  33.538   9.168
 2255POPC   GL232582  40.716  33.893   9.247
 2255POPC   C1A32583  40.767  33.442   8.711
 2255POPC   D2A32584  40.980  33.503   8.317
 2255POPC   C3A32585  40.817  33.638   7.929
 2255POPC   C4A32586  40.865  33.633   7.467
 2255POPC   C1B32587  40.895  33.925   8.831
 2255POPC   C2B32588  41.113  33.995   8.468
 2255POPC   C3B32589  41.002  34.202   8.114
 2255POPC   C4B32590  40.934  34.083   7.701
 2256POPC   NC332591  39.257   8.006   9.331
 2256POPC   PO432592  39.512   8.619   9.550
 2256POPC   GL132593  39.323   8.506   9.121
 2256POPC   GL232594  39.573   8.274   9.027
 2256POPC   C1A32595  39.142   8.245   8.715
 2256POPC   D2A32596  38.891   8.204   8.302
 2256POPC   C3A32597  39.044   8.218   7.824
 2256POPC   C4A32598  39.001   8.062   7.360
 2256POPC   C1B32599  39.619   8.054   8.636
 2256POPC   C2B32600  39.389   8.223   8.246
 2256POPC   C3B32601  39.537   8.470   7.874
 2256POPC   C4B32602  39.396   8.418   7.450
 2257POPC   NC332603  39.255  13.810   9.761
 2257POPC   PO432604  39.899  13.666   9.586
 2257POPC   GL132605  39.966  13.577   9.147
 2257POPC   GL232606  39.921  13.905   9.038
 2257POPC   C1A32607  39.930  13.491   8.707
 2257POPC   D2A32608  39.862  13.682   8.305
 2257POPC   C3A32609  40.051  13.596   7.886
 2257POPC   C4A32610  39.814  13.570   7.484
 2257POPC   C1B32611  39.621  13.973   8.713
 2257POPC   C2B32612  39.605  14.119   8.284
 2257POPC   C3B32613  39.653  13.958   7.829
 2257POPC   C4B32614  39.575  14.019   7.364
 2258POPC   NC332615  36.946  30.981  10.039
 2258POPC   PO432616  36.858  30.737   9.442
 2258POPC   GL132617  37.005  30.777   9.085
 2258POPC   GL232618  36.946  30.440   9.027
 2258POPC   C1A32619  36.867  30.803   8.677
 2258POPC   D2A32620  36.993  30.814   8.263
 2258POPC   C3A32621  36.644  30.890   8.048
 2258POPC   C4A32622  36.584  30.706   7.667
 2258POPC   C1B32623  36.879  30.252   8.684
 2258POPC   C2B32624  37.061  30.297   8.321
 2258POPC   C3B32625  36.813  30.275   7.974
 2258POPC   C4B32626  36.993  30.409   7.619
 2259POPC   NC332627  20.702  44.513   9.627
 2259POPC   PO432628  20.127  44.742   9.608
 2259POPC   GL132629  20.372  44.916   9.236
 2259POPC   GL232630  20.529  44.620   9.162
 2259POPC   C1A32631  20.567  44.945   8.775
 2259POPC   D2A32632  20.407   0.036   8.331
 2259POPC   C3A32633  20.446  44.860   7.927
 2259POPC   C4A32634  20.798  44.745   7.683
 2259POPC   C1B32635  20.718  44.335   8.916
 2259POPC   C2B32636  20.851  44.200   8.556
 2259POPC   C3B32637  20.702  44.112   8.177
 2259POPC   C4B32638  20.531  44.356   7.868
 2260POPC   NC332639  38.995  11.201   9.428
 2260POPC   PO432640  39.280  11.804   9.497
 2260POPC   GL132641  39.296  11.517   9.098
 2260POPC   GL232642  38.963  11.411   8.976
 2260POPC   C1A32643  39.299  11.373   8.626
 2260POPC   D2A32644  38.941  11.306   8.349
 2260POPC   C3A32645  39.120  11.332   7.973
 2260POPC   C4A32646  39.408  11.600   7.777
 2260POPC   C1B32647  38.936  10.990   8.781
 2260POPC   C2B32648  39.068  10.813   8.416
 2260POPC   C3B32649  39.384  10.982   8.203
 2260POPC   C4B32650  39.500  11.058   7.774
 2261POPC   NC332651  17.559  10.173   9.371
 2261POPC   PO432652  17.494   9.611   9.778
 2261POPC   GL132653  17.415   9.696   9.265
 2261POPC   GL232654  17.764   9.711   9.131
 2261POPC   C1A32655  17.466   9.948   8.805
 2261POPC   D2A32656  17.704   9.914   8.401
 2261POPC   C3A32657  17.502   9.970   8.048
 2261POPC   C4A32658  17.325   9.936   7.643
 2261POPC   C1B32659  17.682   9.506   8.708
 2261POPC   C2B32660  17.474   9.482   8.275
 2261POPC   C3B32661  17.610   9.525   7.842
 2261POPC   C4B32662  17.366   9.460   7.474
 2262POPC   NC332663  40.392  12.348   9.548
 2262POPC   PO432664  40.476  13.005   9.348
 2262POPC   GL132665  40.662  12.888   8.983
 2262POPC   GL232666  40.785  12.603   9.095
 2262POPC   C1A32667  40.607  12.949   8.573
 2262POPC   D2A32668  40.849  12.858   8.235
 2262POPC   C3A32669  40.744  13.032   7.874
 2262POPC   C4A32670  40.374  13.215   7.745
 2262POPC   C1B32671  40.643  12.440   8.697
 2262POPC   C2B32672  40.828  12.358   8.289
 2262POPC   C3B32673  40.943  12.543   7.863
 2262POPC   C4B32674  41.049  12.822   7.504
 2263POPC   NC332675  31.234  21.210   9.782
 2263POPC   PO432676  31.823  21.022   9.548
 2263POPC   GL132677  31.510  21.217   9.203
 2263POPC   GL232678  31.147  21.148   9.202
 2263POPC   C1A32679  31.382  21.117   8.731
 2263POPC   D2A32680  31.536  21.099   8.276
 2263POPC   C3A32681  31.335  21.317   7.921
 2263POPC   C4A32682  31.111  21.345   7.524
 2263POPC   C1B32683  31.036  21.506   8.909
 2263POPC   C2B32684  31.068  21.788   8.511
 2263POPC   C3B32685  31.074  21.744   8.046
 2263POPC   C4B32686  31.315  21.806   7.655
 2264POPC   NC332687   7.973   0.367   9.396
 2264POPC   PO432688   8.568   0.647   9.543
 2264POPC   GL132689   8.377   0.525   9.128
 2264POPC   GL232690   8.521   0.211   8.994
 2264POPC   C1A32691   8.078   0.458   8.771
 2264POPC   D2A32692   8.169   0.184   8.419
 2264POPC   C3A32693   7.986   0.285   8.033
 2264POPC   C4A32694   8.047   0.077   7.662
 2264POPC   C1B32695   8.546   0.449   8.618
 2264POPC   C2B32696   8.553   0.430   8.185
 2264POPC   C3B32697   8.425   0.456   7.796
 2264POPC   C4B32698   8.262   0.533   7.382
 2265POPC   NC332699   0.795  42.815   9.402
 2265POPC   PO432700   0.191  43.164   9.499
 2265POPC   GL132701   0.220  43.219   9.093
 2265POPC   GL232702   0.558  43.342   9.141
 2265POPC   C1A32703   0.256  43.087   8.643
 2265POPC   D2A32704   0.356  43.195   8.201
 2265POPC   C3A32705   0.112  43.062   7.872
 2265POPC   C4A32706   0.144  42.921   7.444
 2265POPC   C1B32707   0.813  43.213   8.800
 2265POPC   C2B32708   0.826  43.164   8.351
 2265POPC   C3B32709   0.852  43.223   7.935
 2265POPC   C4B32710   0.572  43.368   7.689
 2266POPC   NC332711  16.393  12.363   9.531
 2266POPC   PO432712  17.102  12.262   9.603
 2266POPC   GL132713  16.856  12.229   9.232
 2266POPC   GL232714  16.581  12.001   9.210
 2266POPC   C1A32715  16.932  12.063   8.813
 2266POPC   D2A32716  17.241  12.187   8.499
 2266POPC   C3A32717  17.135  12.122   8.068
 2266POPC   C4A32718  16.811  12.131   7.769
 2266POPC   C1B32719  16.517  12.345   8.873
 2266POPC   C2B32720  16.565  12.179   8.461
 2266POPC   C3B32721  16.277  12.171   8.136
 2266POPC   C4B32722  16.369  12.390   7.763
 2267POPC   NC332723  20.430  24.591   9.587
 2267POPC   PO432724  21.019  24.893   9.409
 2267POPC   GL132725  20.713  24.651   9.150
 2267POPC   GL232726  20.501  24.348   9.145
 2267POPC   C1A32727  20.761  24.522   8.721
 2267POPC   D2A32728  20.929  24.685   8.337
 2267POPC   C3A32729  20.647  24.681   7.983
 2267POPC   C4A32730  20.671  24.351   7.694
 2267POPC   C1B32731  20.262  24.381   8.756
 2267POPC   C2B32732  20.345  24.341   8.271
 2267POPC   C3B32733  20.206  24.219   7.833
 2267POPC   C4B32734  20.289  24.308   7.343
 2268POPC   NC332735  15.247  24.736   9.505
 2268POPC   PO432736  15.103  24.040   9.571
 2268POPC   GL132737  15.123  24.320   9.196
 2268POPC   GL232738  14.874  24.591   9.154
 2268POPC   C1A32739  15.425  24.396   8.832
 2268POPC   D2A32740  15.623  24.590   8.455
 2268POPC   C3A32741  15.470  24.394   8.083
 2268POPC   C4A32742  15.397  24.542   7.691
 2268POPC   C1B32743  14.890  24.384   8.752
 2268POPC   C2B32744  15.098  24.561   8.428
 2268POPC   C3B32745  14.965  24.515   8.042
 2268POPC   C4B32746  15.045  24.187   7.806
 2269POPC   NC332747   8.010  34.012   9.670
 2269POPC   PO432748   8.416  33.453   9.677
 2269POPC   GL132749   8.244  33.460   9.266
 2269POPC   GL232750   8.086  33.774   9.228
 2269POPC   C1A32751   8.349  33.536   8.832
 2269POPC   D2A32752   8.133  33.656   8.422
 2269POPC   C3A32753   8.254  33.615   7.996
 2269POPC   C4A32754   8.542  33.465   7.696
 2269POPC   C1B32755   8.188  33.999   8.837
 2269POPC   C2B32756   8.310  34.154   8.420
 2269POPC   C3B32757   8.205  34.147   7.970
 2269POPC   C4B32758   7.793  34.205   7.779
 2270POPC   NC332759  34.924  32.972   9.561
 2270POPC   PO432760  35.561  33.406   9.438
 2270POPC   GL132761  35.438  33.297   9.078
 2270POPC   GL232762  35.237  33.030   9.155
 2270POPC   C1A32763  35.566  33.057   8.759
 2270POPC   D2A32764  35.516  32.887   8.366
 2270POPC   C3A32765  35.253  33.096   8.100
 2270POPC   C4A32766  35.265  33.213   7.681
 2270POPC   C1B32767  35.201  32.706   8.859
 2270POPC   C2B32768  35.033  32.700   8.451
 2270POPC   C3B32769  35.133  32.591   8.055
 2270POPC   C4B32770  35.036  32.772   7.671
 2271POPC   NC332771   8.040  34.780   9.350
 2271POPC   PO432772   8.273  35.475   9.540
 2271POPC   GL132773   8.235  35.417   9.085
 2271POPC   GL232774   7.958  35.208   9.074
 2271POPC   C1A32775   8.421  35.425   8.647
 2271POPC   D2A32776   8.377  35.157   8.279
 2271POPC   C3A32777   8.580  35.067   7.926
 2271POPC   C4A32778   8.588  35.218   7.519
 2271POPC   C1B32779   7.986  35.120   8.617
 2271POPC   C2B32780   8.010  35.499   8.307
 2271POPC   C3B32781   8.100  35.413   7.879
 2271POPC   C4B32782   7.932  35.088   7.671
 2272POPC   NC332783  21.190   9.346   9.408
 2272POPC   PO432784  21.453   9.945   9.684
 2272POPC   GL132785  21.459   9.767   9.283
 2272POPC   GL232786  21.128   9.810   9.181
 2272POPC   C1A32787  21.512   9.651   8.854
 2272POPC   D2A32788  21.603   9.844   8.440
 2272POPC   C3A32789  21.669   9.644   8.043
 2272POPC   C4A32790  21.488   9.504   7.655
 2272POPC   C1B32791  21.025   9.808   8.755
 2272POPC   C2B32792  21.095   9.885   8.337
 2272POPC   C3B32793  21.166   9.781   7.931
 2272POPC   C4B32794  20.977   9.485   7.662
 2273POPC   NC332795  40.420  34.491   9.250
 2273POPC   PO432796  40.941  34.314   9.616
 2273POPC   GL132797  40.968  34.589   9.250
 2273POPC   GL232798  40.883  34.353   9.066
 2273POPC   C1A32799  40.827  34.817   8.846
 2273POPC   D2A32800  40.794  34.714   8.407
 2273POPC   C3A32801  40.678  34.826   8.021
 2273POPC   C4A32802  41.015  34.607   7.793
 2273POPC   C1B32803  40.619  34.311   8.673
 2273POPC   C2B32804  40.513  34.335   8.258
 2273POPC   C3B32805  40.546  34.359   7.847
 2273POPC   C4B32806  40.237  34.265   7.534
 2274POPC   NC332807   4.269  43.633   9.566
 2274POPC   PO432808   3.876  44.229   9.467
 2274POPC   GL132809   4.023  43.922   9.186
 2274POPC   GL232810   4.377  43.959   9.176
 2274POPC   C1A32811   4.090  44.019   8.736
 2274POPC   D2A32812   4.343  44.097   8.341
 2274POPC   C3A32813   4.233  43.826   7.955
 2274POPC   C4A32814   4.436  43.808   7.515
 2274POPC   C1B32815   4.338  43.588   8.914
 2274POPC   C2B32816   4.315  43.611   8.498
 2274POPC   C3B32817   4.639  43.666   8.220
 2274POPC   C4B32818   4.720  43.521   7.823
 2275POPC   NC332819  10.863  37.101   9.707
 2275POPC   PO432820  11.075  36.555   9.361
 2275POPC   GL132821  11.146  36.603   8.941
 2275POPC   GL232822  11.472  36.680   9.013
 2275POPC   C1A32823  11.193  36.897   8.590
 2275POPC   D2A32824  11.396  37.190   8.286
 2275POPC   C3A32825  11.386  37.033   7.856
 2275POPC   C4A32826  11.092  36.783   7.601
 2275POPC   C1B32827  11.562  36.541   8.635
 2275POPC   C2B32828  11.465  36.656   8.214
 2275POPC   C3B32829  11.444  36.467   7.811
 2275POPC   C4B32830  11.581  36.678   7.437
 2276POPC   NC332831  12.075  24.226   9.378
 2276POPC   PO432832  12.291  24.817   9.332
 2276POPC   GL132833  12.408  24.448   9.039
 2276POPC   GL232834  12.090  24.317   8.875
 2276POPC   C1A32835  12.524  24.271   8.612
 2276POPC   D2A32836  12.465  24.314   8.160
 2276POPC   C3A32837  12.110  24.372   7.880
 2276POPC   C4A32838  12.110  24.361   7.423
 2276POPC   C1B32839  12.222  24.674   8.602
 2276POPC   C2B32840  12.274  24.805   8.169
 2276POPC   C3B32841  12.058  24.863   7.749
 2276POPC   C4B32842  11.626  24.755   7.619
 2277POPC   NC332843  13.591  24.915   9.760
 2277POPC   PO432844  13.428  24.287   9.408
 2277POPC   GL132845  13.484  24.241   8.985
 2277POPC   GL232846  13.342  24.568   8.853
 2277POPC   C1A32847  13.557  24.242   8.535
 2277POPC   D2A32848  13.394  24.631   8.356
 2277POPC   C3A32849  13.634  24.717   8.031
 2277POPC   C4A32850  13.872  24.446   7.834
 2277POPC   C1B32851  13.061  24.294   8.689
 2277POPC   C2B32852  13.118  24.044   8.320
 2277POPC   C3B32853  13.349  24.249   8.006
 2277POPC   C4B32854  13.175  24.633   7.881
 2278POPC   NC332855  42.022  25.462   9.399
 2278POPC   PO432856  42.625  25.159   9.483
 2278POPC   GL132857  42.351  25.114   9.155
 2278POPC   GL232858  42.429  25.468   9.091
 2278POPC   C1A32859  42.359  25.125   8.711
 2278POPC   D2A32860  42.439  25.343   8.337
 2278POPC   C3A32861  42.446  25.080   7.971
 2278POPC   C4A32862  42.152  25.087   7.681
 2278POPC   C1B32863  42.280  25.661   8.729
 2278POPC   C2B32864  42.147  25.778   8.320
 2278POPC   C3B32865  42.195  25.570   7.921
 2278POPC   C4B32866  41.850  25.486   7.682
 2279POPC   NC332867   6.286  11.489   9.629
 2279POPC   PO432868   6.930  11.495   9.664
 2279POPC   GL132869   6.703  11.334   9.295
 2279POPC   GL232870   6.429  11.084   9.293
 2279POPC   C1A32871   6.650  11.369   8.851
 2279POPC   D2A32872   6.715  11.427   8.396
 2279POPC   C3A32873   6.502  11.581   8.018
 2279POPC   C4A32874   6.670  11.377   7.657
 2279POPC   C1B32875   6.285  11.017   8.855
 2279POPC   C2B32876   6.261  11.168   8.418
 2279POPC   C3B32877   6.431  11.081   8.027
 2279POPC   C4B32878   6.251  11.053   7.618
 2280POPC   NC332879  30.396  30.856   9.434
 2280POPC   PO432880  31.062  30.977   9.446
 2280POPC   GL132881  30.812  30.834   9.123
 2280POPC   GL232882  30.648  31.165   9.104
 2280POPC   C1A32883  30.932  30.505   8.838
 2280POPC   D2A32884  30.965  30.304   8.428
 2280POPC   C3A32885  30.782  30.529   8.073
 2280POPC   C4A32886  30.738  30.472   7.660
 2280POPC   C1B32887  30.420  31.003   8.745
 2280POPC   C2B32888  30.472  30.880   8.302
 2280POPC   C3B32889  30.550  30.968   7.861
 2280POPC   C4B32890  30.977  31.069   7.776
 2281POPC   NC332891  35.215  16.491   9.906
 2281POPC   PO432892  35.224  17.067   9.548
 2281POPC   GL132893  35.349  16.773   9.249
 2281POPC   GL232894  35.164  16.434   9.292
 2281POPC   C1A32895  35.445  16.933   8.813
 2281POPC   D2A32896  35.214  16.985   8.469
 2281POPC   C3A32897  35.402  16.966   8.085
 2281POPC   C4A32898  35.150  16.963   7.724
 2281POPC   C1B32899  35.341  16.429   8.852
 2281POPC   C2B32900  35.480  16.520   8.417
 2281POPC   C3B32901  35.393  16.302   8.027
 2281POPC   C4B32902  35.093  16.410   7.695
 2282POPC   NC332903  35.364  25.796   9.304
 2282POPC   PO432904  35.313  25.245   9.539
 2282POPC   GL132905  35.473  25.286   9.068
 2282POPC   GL232906  35.568  25.593   8.870
 2282POPC   C1A32907  35.612  25.154   8.625
 2282POPC   D2A32908  35.526  25.409   8.267
 2282POPC   C3A32909  35.454  25.232   7.840
 2282POPC   C4A32910  35.633  24.849   7.675
 2282POPC   C1B32911  35.177  25.424   8.645
 2282POPC   C2B32912  35.034  25.286   8.202
 2282POPC   C3B32913  34.958  25.356   7.739
 2282POPC   C4B32914  34.980  25.426   7.270
 2283POPC   NC332915   2.935  37.183   9.498
 2283POPC   PO432916   2.765  36.546   9.279
 2283POPC   GL132917   2.795  36.922   9.065
 2283POPC   GL232918   3.140  36.899   9.049
 2283POPC   C1A32919   2.790  37.009   8.623
 2283POPC   D2A32920   2.626  36.750   8.353
 2283POPC   C3A32921   2.541  36.988   8.031
 2283POPC   C4A32922   2.585  36.844   7.625
 2283POPC   C1B32923   3.050  36.598   8.704
 2283POPC   C2B32924   3.148  36.536   8.286
 2283POPC   C3B32925   3.019  36.733   7.918
 2283POPC   C4B32926   3.025  36.631   7.492
 2284POPC   NC332927  16.110   1.518   9.439
 2284POPC   PO432928  15.981   2.212   9.424
 2284POPC   GL132929  15.958   1.885   9.107
 2284POPC   GL232930  15.696   2.081   8.980
 2284POPC   C1A32931  16.244   1.771   8.763
 2284POPC   D2A32932  16.319   1.965   8.353
 2284POPC   C3A32933  16.012   2.146   7.992
 2284POPC   C4A32934  15.978   1.939   7.552
 2284POPC   C1B32935  15.825   1.999   8.599
 2284POPC   C2B32936  15.715   2.303   8.366
 2284POPC   C3B32937  15.425   2.337   8.062
 2284POPC   C4B32938  15.561   2.160   7.723
 2285POPC   NC332939   7.210  10.321   9.530
 2285POPC   PO432940   7.674  10.828   9.698
 2285POPC   GL132941   7.732  10.723   9.264
 2285POPC   GL232942   7.392  10.710   9.242
 2285POPC   C1A32943   7.608  10.386   8.925
 2285POPC   D2A32944   7.386  10.329   8.506
 2285POPC   C3A32945   7.471  10.477   8.071
 2285POPC   C4A32946   7.522  10.254   7.669
 2285POPC   C1B32947   7.230  10.708   8.830
 2285POPC   C2B32948   7.241  10.815   8.406
 2285POPC   C3B32949   7.081  10.825   8.003
 2285POPC   C4B32950   7.093  10.509   7.684
 2286POPC   NC332951  37.522   6.567   9.316
 2286POPC   PO432952  38.019   6.158   9.410
 2286POPC   GL132953  37.779   6.242   9.039
 2286POPC   GL232954  37.391   6.154   9.069
 2286POPC   C1A32955  37.776   6.529   8.669
 2286POPC   D2A32956  38.005   6.718   8.287
 2286POPC   C3A32957  37.760   6.804   7.931
 2286POPC   C4A32958  37.756   6.688   7.457
 2286POPC   C1B32959  37.349   6.245   8.641
 2286POPC   C2B32960  37.559   6.432   8.220
 2286POPC   C3B32961  37.372   6.484   7.747
 2286POPC   C4B32962  37.292   6.476   7.265
 2287POPC   NC332963  12.905  30.403   9.649
 2287POPC   PO432964  13.090  31.065   9.435
 2287POPC   GL132965  12.784  30.876   9.154
 2287POPC   GL232966  12.799  30.514   9.172
 2287POPC   C1A32967  12.653  31.024   8.743
 2287POPC   D2A32968  12.692  30.823   8.327
 2287POPC   C3A32969  12.900  30.992   7.948
 2287POPC   C4A32970  12.883  30.924   7.486
 2287POPC   C1B32971  12.784  30.516   8.731
 2287POPC   C2B32972  13.069  30.477   8.373
 2287POPC   C3B32973  13.052  30.482   7.909
 2287POPC   C4B32974  13.411  30.370   7.707
 2288POPC   NC332975  34.003  41.835   9.496
 2288POPC   PO432976  33.539  41.379   9.583
 2288POPC   GL132977  33.795  41.428   9.225
 2288POPC   GL232978  33.644  41.729   9.124
 2288POPC   C1A32979  34.031  41.546   8.848
 2288POPC   D2A32980  34.218  41.328   8.487
 2288POPC   C3A32981  34.243  41.556   8.102
 2288POPC   C4A32982  34.073  41.679   7.711
 2288POPC   C1B32983  33.551  41.697   8.697
 2288POPC   C2B32984  33.762  41.596   8.305
 2288POPC   C3B32985  33.830  41.278   7.984
 2288POPC   C4B32986  33.550  41.060   7.690
 2289POPC   NC332987  28.466  15.018   9.805
 2289POPC   PO432988  27.940  15.456   9.595
 2289POPC   GL132989  28.121  15.201   9.208
 2289POPC   GL232990  28.427  14.982   9.265
 2289POPC   C1A32991  28.363  15.197   8.799
 2289POPC   D2A32992  28.665  15.242   8.453
 2289POPC   C3A32993  28.515  15.318   8.009
 2289POPC   C4A32994  28.363  15.309   7.603
 2289POPC   C1B32995  28.751  14.908   8.910
 2289POPC   C2B32996  28.774  14.741   8.525
 2289POPC   C3B32997  28.672  14.864   8.118
 2289POPC   C4B32998  28.796  15.021   7.690
 2290POPC   NC332999  13.235  17.194   9.204
 2290POPC   PO433000  13.729  17.625   9.465
 2290POPC   GL133001  13.651  17.489   9.074
 2290POPC   GL233002  13.771  17.163   9.095
 2290POPC   C1A33003  13.436  17.686   8.744
 2290POPC   D2A33004  13.559  17.915   8.356
 2290POPC   C3A33005  13.414  17.837   7.950
 2290POPC   C4A33006  13.641  17.895   7.593
 2290POPC   C1B33007  13.579  17.146   8.692
 2290POPC   C2B33008  13.575  17.389   8.364
 2290POPC   C3B33009  13.436  17.329   8.016
 2290POPC   C4B33010  13.558  17.355   7.636
 2291POPC   NC333011  16.733   3.177   9.507
 2291POPC   PO433012  16.754   2.473   9.484
 2291POPC   GL133013  16.768   2.738   9.187
 2291POPC   GL233014  16.680   2.510   8.960
 2291POPC   C1A33015  16.837   2.987   8.827
 2291POPC   D2A33016  16.858   2.851   8.452
 2291POPC   C3A33017  16.703   3.097   8.146
 2291POPC   C4A33018  16.747   2.999   7.742
 2291POPC   C1B33019  17.102   2.537   8.797
 2291POPC   C2B33020  17.109   2.415   8.362
 2291POPC   C3B33021  16.876   2.576   8.020
 2291POPC   C4B33022  17.102   2.538   7.678
 2292POPC   NC333023  19.807  41.402   9.530
 2292POPC   PO433024  19.933  41.864   9.087
 2292POPC   GL133025  19.653  41.557   9.014
 2292POPC   GL233026  19.895  41.300   9.052
 2292POPC   C1A33027  19.612  41.555   8.587
 2292POPC   D2A33028  20.041  41.561   8.426
 2292POPC   C3A33029  20.157  41.817   8.116
 2292POPC   C4A33030  20.242  41.689   7.723
 2292POPC   C1B33031  19.892  41.127   8.678
 2292POPC   C2B33032  19.739  41.172   8.269
 2292POPC   C3B33033  19.901  41.352   7.919
 2292POPC   C4B33034  19.772  41.090   7.604
 2293POPC   NC333035   2.358   2.387   9.380
 2293POPC   PO433036   1.952   2.842   9.284
 2293POPC   GL133037   1.880   2.520   9.006
 2293POPC   GL233038   2.203   2.463   8.869
 2293POPC   C1A33039   1.756   2.362   8.619
 2293POPC   D2A33040   2.099   2.412   8.345
 2293POPC   C3A33041   1.936   2.591   7.983
 2293POPC   C4A33042   2.118   2.583   7.592
 2293POPC   C1B33043   1.994   2.832   8.622
 2293POPC   C2B33044   2.143   2.986   8.233
 2293POPC   C3B33045   2.040   3.062   7.797
 2293POPC   C4B33046   2.090   3.091   7.338
 2294POPC   NC333047   1.764  17.651   9.478
 2294POPC   PO433048   1.991  16.995   9.344
 2294POPC   GL133049   2.096  17.271   9.052
 2294POPC   GL233050   2.190  17.617   9.177
 2294POPC   C1A33051   1.878  17.359   8.679
 2294POPC   D2A33052   1.694  17.710   8.488
 2294POPC   C3A33053   1.724  17.684   8.062
 2294POPC   C4A33054   1.994  17.366   7.913
 2294POPC   C1B33055   2.328  17.624   8.748
 2294POPC   C2B33056   2.192  17.635   8.326
 2294POPC   C3B33057   2.414  17.703   7.956
 2294POPC   C4B33058   2.483  17.956   7.576
 2295POPC   NC333059  10.431  20.622   9.594
 2295POPC   PO433060  10.131  21.148   9.453
 2295POPC   GL133061  10.417  20.865   9.143
 2295POPC   GL233062  10.710  20.621   9.164
 2295POPC   C1A33063  10.677  20.851   8.725
 2295POPC   D2A33064  10.531  20.671   8.327
 2295POPC   C3A33065  10.653  20.780   7.909
 2295POPC   C4A33066  10.440  20.837   7.519
 2295POPC   C1B33067  10.554  20.367   8.770
 2295POPC   C2B33068  10.278  20.240   8.419
 2295POPC   C3B33069  10.255  20.353   7.973
 2295POPC   C4B33070  10.456  20.320   7.541
 2296POPC   NC333071  35.619  38.110   9.520
 2296POPC   PO433072  35.245  37.573   9.384
 2296POPC   GL133073  35.471  37.770   9.148
 2296POPC   GL233074  35.332  38.066   9.100
 2296POPC   C1A33075  35.548  37.730   8.744
 2296POPC   D2A33076  35.276  37.575   8.449
 2296POPC   C3A33077  35.521  37.357   8.183
 2296POPC   C4A33078  35.560  37.569   7.822
 2296POPC   C1B33079  35.072  37.951   8.785
 2296POPC   C2B33080  34.956  37.972   8.375
 2296POPC   C3B33081  35.132  37.794   8.002
 2296POPC   C4B33082  35.246  37.917   7.602
 2297POPC   NC333083  10.741  17.997   9.764
 2297POPC   PO433084  10.462  18.587   9.435
 2297POPC   GL133085  10.451  18.409   9.090
 2297POPC   GL233086  10.425  18.077   9.236
 2297POPC   C1A33087  10.409  18.564   8.698
 2297POPC   D2A33088  10.274  18.741   8.343
 2297POPC   C3A33089  10.382  18.455   8.022
 2297POPC   C4A33090  10.328  18.377   7.603
 2297POPC   C1B33091  10.410  18.009   8.793
 2297POPC   C2B33092  10.566  18.148   8.408
 2297POPC   C3B33093  10.793  18.127   8.043
 2297POPC   C4B33094  10.731  18.072   7.618
 2298POPC   NC333095   1.816  38.151   9.598
 2298POPC   PO433096   2.143  37.585   9.428
 2298POPC   GL133097   1.966  37.684   9.042
 2298POPC   GL233098   1.879  38.022   9.111
 2298POPC   C1A33099   1.927  37.589   8.602
 2298POPC   D2A33100   1.856  37.559   8.155
 2298POPC   C3A33101   2.237  37.452   8.002
 2298POPC   C4A33102   2.404  37.305   7.658
 2298POPC   C1B33103   1.704  38.063   8.714
 2298POPC   C2B33104   1.839  38.043   8.299
 2298POPC   C3B33105   1.745  38.008   7.853
 2298POPC   C4B33106   1.671  38.015   7.393
 2299POPC   NC333107  15.158  37.624   9.927
 2299POPC   PO433108  14.877  37.456   9.293
 2299POPC   GL133109  15.030  37.610   8.971
 2299POPC   GL233110  15.317  37.739   9.059
 2299POPC   C1A33111  15.043  37.568   8.542
 2299POPC   D2A33112  15.246  37.352   8.217
 2299POPC   C3A33113  14.963  37.318   7.884
 2299POPC   C4A33114  14.779  37.684   7.774
 2299POPC   C1B33115  15.520  37.646   8.745
 2299POPC   C2B33116  15.533  37.826   8.386
 2299POPC   C3B33117  15.658  37.727   8.006
 2299POPC   C4B33118  15.459  37.456   7.766
 2300POPC   NC333119   9.212  14.177   9.383
 2300POPC   PO433120   8.754  14.590   9.538
 2300POPC   GL133121   8.784  14.387   9.134
 2300POPC   GL233122   8.697  14.031   9.170
 2300POPC   C1A33123   9.020  14.487   8.753
 2300POPC   D2A33124   9.328  14.587   8.435
 2300POPC   C3A33125   9.128  14.575   8.024
 2300POPC   C4A33126   9.356  14.695   7.652
 2300POPC   C1B33127   8.900  13.990   8.760
 2300POPC   C2B33128   8.808  14.199   8.361
 2300POPC   C3B33129   8.867  14.077   7.931
 2300POPC   C4B33130   8.695  14.281   7.599
 2301POPC   NC333131  32.575   3.533   9.521
 2301POPC   PO433132  31.967   3.850   9.371
 2301POPC   GL133133  32.001   3.649   9.011
 2301POPC   GL233134  32.267   3.457   9.074
 2301POPC   C1A33135  32.080   3.629   8.582
 2301POPC   D2A33136  32.319   3.598   8.229
 2301POPC   C3A33137  32.041   3.581   7.875
 2301POPC   C4A33138  32.010   3.939   7.591
 2301POPC   C1B33139  32.406   3.176   8.742
 2301POPC   C2B33140  32.543   3.148   8.314
 2301POPC   C3B33141  32.482   2.941   7.938
 2301POPC   C4B33142  32.173   3.092   7.701
 2302POPC   NC333143  14.941  41.518   9.729
 2302POPC   PO433144  15.520  41.883   9.804
 2302POPC   GL133145  15.410  41.781   9.318
 2302POPC   GL233146  15.684  41.853   9.049
 2302POPC   C1A33147  15.267  41.640   8.852
 2302POPC   D2A33148  15.352  41.419   8.421
 2302POPC   C3A33149  15.228  41.503   7.961
 2302POPC   C4A33150  15.262  41.548   7.487
 2302POPC   C1B33151  15.696  41.769   8.598
 2302POPC   C2B33152  15.649  41.747   8.156
 2302POPC   C3B33153  15.585  41.851   7.725
 2302POPC   C4B33154  15.404  42.109   7.398
 2303POPC   NC333155  12.833   1.645   9.547
 2303POPC   PO433156  12.842   2.302   9.504
 2303POPC   GL133157  12.674   2.059   9.159
 2303POPC   GL233158  12.508   1.744   9.158
 2303POPC   C1A33159  12.815   2.095   8.738
 2303POPC   D2A33160  13.007   1.906   8.434
 2303POPC   C3A33161  12.791   2.071   8.102
 2303POPC   C4A33162  12.853   2.037   7.672
 2303POPC   C1B33163  12.657   1.618   8.755
 2303POPC   C2B33164  12.499   1.738   8.366
 2303POPC   C3B33165  12.623   1.599   7.982
 2303POPC   C4B33166  12.912   1.530   7.650
 2304POPC   NC333167  30.938  28.953   9.513
 2304POPC   PO433168  30.687  29.534   9.475
 2304POPC   GL133169  30.709  29.220   9.143
 2304POPC   GL233170  31.015  29.290   9.035
 2304POPC   C1A33171  30.773  28.928   8.776
 2304POPC   D2A33172  30.948  29.017   8.359
 2304POPC   C3A33173  30.689  29.149   7.996
 2304POPC   C4A33174  30.388  28.951   7.686
 2304POPC   C1B33175  30.851  29.444   8.640
 2304POPC   C2B33176  31.044  29.501   8.214
 2304POPC   C3B33177  30.969  29.516   7.754
 2304POPC   C4B33178  30.982  29.516   7.270
 2305POPC   NC333179  30.414  13.253   9.745
 2305POPC   PO433180  29.984  13.810   9.594
 2305POPC   GL133181  29.839  13.667   9.175
 2305POPC   GL233182  29.832  13.298   9.216
 2305POPC   C1A33183  29.950  13.826   8.758
 2305POPC   D2A33184  30.067  13.954   8.361
 2305POPC   C3A33185  29.824  13.694   8.090
 2305POPC   C4A33186  29.674  13.669   7.671
 2305POPC   C1B33187  29.683  13.288   8.826
 2305POPC   C2B33188  29.924  13.340   8.470
 2305POPC   C3B33189  29.984  13.210   8.071
 2305POPC   C4B33190  29.784  13.154   7.693
 2306POPC   NC333191   0.821  20.420   9.295
 2306POPC   PO433192   0.310  20.825   9.434
 2306POPC   GL133193   0.160  20.729   9.025
 2306POPC   GL233194   0.376  20.444   8.966
 2306POPC   C1A33195   0.240  20.730   8.573
 2306POPC   D2A33196   0.562  20.505   8.349
 2306POPC   C3A33197   0.432  20.536   7.959
 2306POPC   C4A33198   0.269  20.947   7.859
 2306POPC   C1B33199   0.715  20.755   8.767
 2306POPC   C2B33200   0.930  20.866   8.356
 2306POPC   C3B33201   0.785  20.888   7.893
 2306POPC   C4B33202   0.888  20.876   7.436
 2307POPC   NC333203  37.567  33.378   9.521
 2307POPC   PO433204  37.208  32.817   9.360
 2307POPC   GL133205  37.469  33.052   9.075
 2307POPC   GL233206  37.824  33.189   9.130
 2307POPC   C1A33207  37.512  32.837   8.694
 2307POPC   D2A33208  37.455  32.597   8.320
 2307POPC   C3A33209  37.468  32.795   7.885
 2307POPC   C4A33210  37.459  32.951   7.424
 2307POPC   C1B33211  37.895  33.192   8.689
 2307POPC   C2B33212  37.617  33.164   8.324
 2307POPC   C3B33213  37.533  33.307   7.937
 2307POPC   C4B33214  37.833  33.132   7.685
 2308POPC   NC333215  17.812   0.948   9.355
 2308POPC   PO433216  18.141   1.547   9.548
 2308POPC   GL133217  18.185   1.335   9.190
 2308POPC   GL233218  17.914   1.434   9.038
 2308POPC   C1A33219  18.386   1.418   8.784
 2308POPC   D2A33220  18.624   1.166   8.471
 2308POPC   C3A33221  18.446   1.086   8.045
 2308POPC   C4A33222  18.287   1.381   7.723
 2308POPC   C1B33223  18.053   1.034   8.789
 2308POPC   C2B33224  18.075   0.956   8.395
 2308POPC   C3B33225  17.941   1.182   8.076
 2308POPC   C4B33226  17.916   1.042   7.687
 2309POPC   NC333227  17.813  27.667   9.465
 2309POPC   PO433228  17.407  27.210   9.655
 2309POPC   GL133229  17.436  27.284   9.222
 2309POPC   GL233230  17.796  27.235   9.151
 2309POPC   C1A33231  17.351  27.285   8.762
 2309POPC   D2A33232  17.337  27.677   8.531
 2309POPC   C3A33233  17.203  27.572   8.127
 2309POPC   C4A33234  17.253  27.699   7.698
 2309POPC   C1B33235  17.772  27.541   8.782
 2309POPC   C2B33236  17.672  27.357   8.332
 2309POPC   C3B33237  17.701  27.562   7.918
 2309POPC   C4B33238  17.944  27.915   7.838
 2310POPC   NC333239  40.325   4.861   9.469
 2310POPC   PO433240  40.254   5.443   9.693
 2310POPC   GL133241  40.002   5.272   9.336
 2310POPC   GL233242  40.259   5.208   9.117
 2310POPC   C1A33243  39.840   5.269   8.870
 2310POPC   D2A33244  39.838   5.041   8.497
 2310POPC   C3A33245  39.778   5.187   8.080
 2310POPC   C4A33246  39.765   4.977   7.735
 2310POPC   C1B33247  40.304   5.067   8.671
 2310POPC   C2B33248  40.263   5.199   8.272
 2310POPC   C3B33249  40.233   4.978   7.929
 2310POPC   C4B33250  40.415   5.030   7.587
 2311POPC   NC333251  21.183  28.071   9.456
 2311POPC   PO433252  21.311  28.705   9.517
 2311POPC   GL133253  21.396  28.445   9.138
 2311POPC   GL233254  21.628  28.120   9.135
 2311POPC   C1A33255  21.247  28.536   8.733
 2311POPC   D2A33256  20.998  28.743   8.417
 2311POPC   C3A33257  21.188  28.709   8.010
 2311POPC   C4A33258  21.478  28.466   7.821
 2311POPC   C1B33259  21.723  28.300   8.717
 2311POPC   C2B33260  21.816  28.303   8.256
 2311POPC   C3B33261  21.620  28.015   7.967
 2311POPC   C4B33262  21.568  28.007   7.554
 2312POPC   NC333263  20.207  26.941   9.834
 2312POPC   PO433264  19.513  26.861   9.677
 2312POPC   GL133265  19.679  26.806   9.254
 2312POPC   GL233266  20.034  26.672   9.187
 2312POPC   C1A33267  19.695  26.787   8.801
 2312POPC   D2A33268  19.656  26.980   8.423
 2312POPC   C3A33269  19.709  26.761   8.046
 2312POPC   C4A33270  19.537  26.902   7.692
 2312POPC   C1B33271  20.024  26.373   8.824
 2312POPC   C2B33272  19.926  26.483   8.413
 2312POPC   C3B33273  20.154  26.466   8.023
 2312POPC   C4B33274  20.146  26.643   7.619
 2313POPC   NC333275  12.599   3.381   9.415
 2313POPC   PO433276  13.118   3.792   9.747
 2313POPC   GL133277  13.055   3.663   9.270
 2313POPC   GL233278  13.085   3.316   9.203
 2313POPC   C1A33279  13.125   3.708   8.824
 2313POPC   D2A33280  12.757   3.723   8.578
 2313POPC   C3A33281  12.769   3.876   8.162
 2313POPC   C4A33282  12.838   3.786   7.729
 2313POPC   C1B33283  12.948   3.250   8.773
 2313POPC   C2B33284  13.148   3.428   8.386
 2313POPC   C3B33285  13.053   3.367   7.940
 2313POPC   C4B33286  13.098   3.046   7.618
 2314POPC   NC333287   3.188  35.788   9.591
 2314POPC   PO433288   3.668  36.154   9.456
 2314POPC   GL133289   3.483  36.189   9.078
 2314POPC   GL233290   3.312  35.899   9.104
 2314POPC   C1A33291   3.379  36.227   8.658
 2314POPC   D2A33292   3.652  36.438   8.396
 2314POPC   C3A33293   3.571  36.336   8.001
 2314POPC   C4A33294   3.475  36.439   7.606
 2314POPC   C1B33295   3.547  35.762   8.747
 2314POPC   C2B33296   3.627  35.885   8.328
 2314POPC   C3B33297   3.481  35.841   7.916
 2314POPC   C4B33298   3.692  35.950   7.565
 2315POPC   NC333299  11.732  16.973   9.486
 2315POPC   PO433300  12.036  16.452   9.414
 2315POPC   GL133301  12.102  16.754   9.084
 2315POPC   GL233302  12.420  16.925   9.092
 2315POPC   C1A33303  12.255  16.599   8.681
 2315POPC   D2A33304  12.046  16.409   8.322
 2315POPC   C3A33305  12.188  16.509   7.923
 2315POPC   C4A33306  11.922  16.599   7.562
 2315POPC   C1B33307  12.248  17.115   8.700
 2315POPC   C2B33308  12.234  16.951   8.261
 2315POPC   C3B33309  12.091  17.038   7.828
 2315POPC   C4B33310  12.305  16.908   7.432
 2316POPC   NC333311  38.984  27.330   9.643
 2316POPC   PO433312  39.521  27.650   9.756
 2316POPC   GL133313  39.370  27.532   9.334
 2316POPC   GL233314  39.619  27.307   9.219
 2316POPC   C1A33315  39.093  27.500   8.933
 2316POPC   D2A33316  38.933  27.479   8.479
 2316POPC   C3A33317  39.194  27.494   8.089
 2316POPC   C4A33318  39.163  27.674   7.659
 2316POPC   C1B33319  39.592  27.625   8.873
 2316POPC   C2B33320  39.414  27.779   8.493
 2316POPC   C3B33321  39.570  27.911   8.082
 2316POPC   C4B33322  39.670  27.769   7.676
 2317POPC   NC333323  15.936  26.760   9.649
 2317POPC   PO433324  16.229  26.325   9.391
 2317POPC   GL133325  16.063  26.773   9.149
 2317POPC   GL233326  15.728  26.894   9.114
 2317POPC   C1A33327  16.017  26.935   8.686
 2317POPC   D2A33328  16.043  26.654   8.295
 2317POPC   C3A33329  16.039  26.794   7.880
 2317POPC   C4A33330  16.290  27.145   7.903
 2317POPC   C1B33331  15.489  26.838   8.729
 2317POPC   C2B33332  15.618  26.997   8.328
 2317POPC   C3B33333  15.673  27.149   7.917
 2317POPC   C4B33334  15.711  26.986   7.478
 2318POPC   NC333335  12.935  15.718   9.538
 2318POPC   PO433336  12.788  15.082   9.503
 2318POPC   GL133337  12.628  15.258   9.133
 2318POPC   GL233338  12.939  15.071   9.006
 2318POPC   C1A33339  12.607  15.307   8.684
 2318POPC   D2A33340  12.853  15.332   8.327
 2318POPC   C3A33341  12.671  15.183   7.970
 2318POPC   C4A33342  12.936  15.093   7.627
 2318POPC   C1B33343  12.578  14.833   8.852
 2318POPC   C2B33344  12.475  14.870   8.404
 2318POPC   C3B33345  12.558  14.695   8.018
 2318POPC   C4B33346  12.576  14.768   7.552
 2319POPC   NC333347   7.214  11.113   9.641
 2319POPC   PO433348   7.641  11.620   9.453
 2319POPC   GL133349   7.522  11.220   9.225
 2319POPC   GL233350   7.155  11.141   9.134
 2319POPC   C1A33351   7.637  11.019   8.830
 2319POPC   D2A33352   7.763  11.179   8.414
 2319POPC   C3A33353   7.574  11.003   8.041
 2319POPC   C4A33354   7.659  11.188   7.652
 2319POPC   C1B33355   7.111  11.214   8.701
 2319POPC   C2B33356   7.251  11.327   8.289
 2319POPC   C3B33357   7.177  11.306   7.825
 2319POPC   C4B33358   7.088  10.972   7.497
 2320POPC   NC333359  16.981  23.106   9.470
 2320POPC   PO433360  17.022  22.538   9.392
 2320POPC   GL133361  16.875  22.846   9.036
 2320POPC   GL233362  16.698  23.182   9.058
 2320POPC   C1A33363  16.729  22.947   8.593
 2320POPC   D2A33364  16.774  23.073   8.131
 2320POPC   C3A33365  16.652  22.754   7.803
 2320POPC   C4A33366  16.638  22.470   7.422
 2320POPC   C1B33367  16.404  23.314   8.752
 2320POPC   C2B33368  16.370  23.367   8.302
 2320POPC   C3B33369  16.381  23.251   7.849
 2320POPC   C4B33370  16.736  23.175   7.529
 2321POPC   NC333371  28.551  44.199   9.564
 2321POPC   PO433372  28.464  44.821   9.536
 2321POPC   GL133373  28.563  44.560   9.199
 2321POPC   GL233374  28.234  44.420   9.197
 2321POPC   C1A33375  28.640  44.589   8.773
 2321POPC   D2A33376  28.715  44.752   8.375
 2321POPC   C3A33377  28.402  44.595   8.112
 2321POPC   C4A33378  28.468  44.614   7.687
 2321POPC   C1B33379  28.203  44.295   8.763
 2321POPC   C2B33380  27.993  44.536   8.446
 2321POPC   C3B33381  27.887  44.583   8.014
 2321POPC   C4B33382  28.108  44.239   7.799
 2322POPC   NC333383  34.691   9.174   9.905
 2322POPC   PO433384  34.356   8.707   9.562
 2322POPC   GL133385  34.209   8.982   9.200
 2322POPC   GL233386  34.454   8.850   8.958
 2322POPC   C1A33387  34.321   9.298   8.836
 2322POPC   D2A33388  34.587   9.080   8.509
 2322POPC   C3A33389  34.487   8.974   8.095
 2322POPC   C4A33390  34.597   9.105   7.672
 2322POPC   C1B33391  34.546   8.530   8.687
 2322POPC   C2B33392  34.581   8.512   8.297
 2322POPC   C3B33393  34.801   8.593   7.935
 2322POPC   C4B33394  34.472   8.622   7.680
 2323POPC   NC333395  41.443  31.624   9.508
 2323POPC   PO433396  42.054  31.648   9.558
 2323POPC   GL133397  41.803  31.443   9.169
 2323POPC   GL233398  41.458  31.440   8.997
 2323POPC   C1A33399  41.838  31.216   8.760
 2323POPC   D2A33400  41.539  31.302   8.437
 2323POPC   C3A33401  41.553  31.605   8.128
 2323POPC   C4A33402  41.371  31.483   7.743
 2323POPC   C1B33403  41.476  31.771   8.653
 2323POPC   C2B33404  41.238  31.976   8.308
 2323POPC   C3B33405  41.267  31.986   7.854
 2323POPC   C4B33406  41.396  31.884   7.423
 2324POPC   NC333407  11.692  13.133   9.578
 2324POPC   PO433408  12.035  12.576   9.436
 2324POPC   GL133409  12.067  12.875   9.117
 2324POPC   GL233410  11.830  12.693   8.951
 2324POPC   C1A33411  12.216  12.850   8.675
 2324POPC   D2A33412  11.836  12.652   8.447
 2324POPC   C3A33413  11.874  12.718   8.034
 2324POPC   C4A33414  12.272  12.880   7.911
 2324POPC   C1B33415  11.826  13.143   8.734
 2324POPC   C2B33416  12.025  13.149   8.312
 2324POPC   C3B33417  11.823  13.228   7.926
 2324POPC   C4B33418  11.499  13.195   7.624
 2325POPC   NC333419   0.109  25.998   9.587
 2325POPC   PO433420  44.572  25.875   9.629
 2325POPC   GL133421  44.695  25.941   9.187
 2325POPC   GL233422   0.009  26.130   9.093
 2325POPC   C1A33423  44.658  26.003   8.707
 2325POPC   D2A33424  44.459  25.932   8.273
 2325POPC   C3A33425  44.653  25.980   7.826
 2325POPC   C4A33426   0.062  25.998   7.579
 2325POPC   C1B33427   0.144  26.239   8.653
 2325POPC   C2B33428  44.962  26.186   8.223
 2325POPC   C3B33429   0.000  26.424   7.834
 2325POPC   C4B33430  44.952  26.542   7.396
 2326POPC   NC333431   7.923  31.183   9.329
 2326POPC   PO433432   7.357  31.292   9.658
 2326POPC   GL133433   7.522  31.577   9.264
 2326POPC   GL233434   7.227  31.495   8.999
 2326POPC   C1A33435   7.644  31.741   8.844
 2326POPC   D2A33436   7.792  31.699   8.424
 2326POPC   C3A33437   7.595  31.405   8.163
 2326POPC   C4A33438   7.574  31.498   7.730
 2326POPC   C1B33439   7.280  31.216   8.581
 2326POPC   C2B33440   6.986  30.933   8.357
 2326POPC   C3B33441   6.879  31.014   7.957
 2326POPC   C4B33442   7.145  31.214   7.728
 2327POPC   NC333443  11.703  14.935   9.467
 2327POPC   PO433444  11.672  14.265   9.425
 2327POPC   GL133445  11.302  14.508   9.247
 2327POPC   GL233446  10.947  14.361   9.229
 2327POPC   C1A33447  11.174  14.640   8.838
 2327POPC   D2A33448  11.397  14.579   8.461
 2327POPC   C3A33449  11.197  14.569   8.064
 2327POPC   C4A33450  11.286  14.490   7.634
 2327POPC   C1B33451  11.044  14.139   8.819
 2327POPC   C2B33452  11.172  14.141   8.371
 2327POPC   C3B33453  11.209  14.063   7.960
 2327POPC   C4B33454  10.943  14.063   7.630
 2328POPC   NC333455  40.449  31.555   9.585
 2328POPC   PO433456  39.815  31.380   9.433
 2328POPC   GL133457  40.054  31.592   9.135
 2328POPC   GL233458  40.242  31.327   9.057
 2328POPC   C1A33459  39.913  31.537   8.703
 2328POPC   D2A33460  39.736  31.602   8.283
 2328POPC   C3A33461  39.983  31.634   7.876
 2328POPC   C4A33462  39.849  31.675   7.434
 2328POPC   C1B33463  40.379  31.359   8.620
 2328POPC   C2B33464  40.534  31.341   8.216
 2328POPC   C3B33465  40.281  31.182   7.883
 2328POPC   C4B33466  40.155  31.265   7.437
 2329POPC   NC333467   6.580  14.001   9.469
 2329POPC   PO433468   6.734  13.350   9.468
 2329POPC   GL133469   6.610  13.588   9.148
 2329POPC   GL233470   6.764  13.366   8.913
 2329POPC   C1A33471   6.522  13.828   8.794
 2329POPC   D2A33472   6.628  13.614   8.441
 2329POPC   C3A33473   6.508  13.856   8.130
 2329POPC   C4A33474   6.669  13.773   7.760
 2329POPC   C1B33475   6.330  13.331   8.757
 2329POPC   C2B33476   6.177  13.345   8.340
 2329POPC   C3B33477   6.407  13.375   7.940
 2329POPC   C4B33478   6.365  13.437   7.451
 2330POPC   NC333479  30.618   6.792   9.657
 2330POPC   PO433480  30.885   6.203   9.464
 2330POPC   GL133481  30.640   6.408   9.126
 2330POPC   GL233482  30.509   6.763   9.162
 2330POPC   C1A33483  30.783   6.580   8.754
 2330POPC   D2A33484  30.894   6.786   8.382
 2330POPC   C3A33485  30.834   6.524   8.024
 2330POPC   C4A33486  30.712   6.435   7.627
 2330POPC   C1B33487  30.493   7.015   8.782
 2330POPC   C2B33488  30.396   7.092   8.334
 2330POPC   C3B33489  30.628   6.986   7.967
 2330POPC   C4B33490  30.463   6.869   7.575
 2331POPC   NC333491  12.121  23.540   9.447
 2331POPC   PO433492  11.630  24.067   9.331
 2331POPC   GL133493  11.963  23.852   9.074
 2331POPC   GL233494  11.860  23.598   8.949
 2331POPC   C1A33495  12.235  23.850   8.696
 2331POPC   D2A33496  12.084  23.920   8.267
 2331POPC   C3A33497  12.318  23.912   7.884
 2331POPC   C4A33498  12.328  23.904   7.422
 2331POPC   C1B33499  12.150  23.345   8.729
 2331POPC   C2B33500  12.327  23.428   8.311
 2331POPC   C3B33501  12.096  23.467   7.931
 2331POPC   C4B33502  11.881  23.768   7.665
 2332POPC   NC333503  16.216  24.946   9.386
 2332POPC   PO433504  16.226  25.629   9.474
 2332POPC   GL133505  16.012  25.543   9.079
 2332POPC   GL233506  15.877  25.210   9.127
 2332POPC   C1A33507  16.125  25.403   8.678
 2332POPC   D2A33508  16.312  25.353   8.269
 2332POPC   C3A33509  16.075  25.178   7.919
 2332POPC   C4A33510  15.928  25.384   7.551
 2332POPC   C1B33511  15.640  25.295   8.777
 2332POPC   C2B33512  15.771  25.226   8.348
 2332POPC   C3B33513  15.645  25.436   7.993
 2332POPC   C4B33514  15.470  25.208   7.689
 2333POPC   NC333515   1.889  33.478   9.460
 2333POPC   PO433516   2.476  33.382   9.374
 2333POPC   GL133517   2.178  33.656   9.087
 2333POPC   GL233518   1.871  33.927   9.154
 2333POPC   C1A33519   1.929  33.674   8.707
 2333POPC   D2A33520   2.036  33.545   8.308
 2333POPC   C3A33521   1.775  33.540   7.951
 2333POPC   C4A33522   2.015  33.454   7.571
 2333POPC   C1B33523   1.775  34.160   8.744
 2333POPC   C2B33524   1.749  33.998   8.314
 2333POPC   C3B33525   2.043  33.977   7.958
 2333POPC   C4B33526   1.783  33.925   7.593
 2334POPC   NC333527  17.540  10.084   9.845
 2334POPC   PO433528  17.355  10.679   9.393
 2334POPC   GL133529  17.514  10.826   9.027
 2334POPC   GL233530  17.655  10.518   9.015
 2334POPC   C1A33531  17.671  10.821   8.614
 2334POPC   D2A33532  17.392  10.785   8.315
 2334POPC   C3A33533  17.467  10.745   7.917
 2334POPC   C4A33534  17.654  10.864   7.594
 2334POPC   C1B33535  17.783  10.329   8.677
 2334POPC   C2B33536  17.719  10.404   8.257
 2334POPC   C3B33537  17.782  10.349   7.847
 2334POPC   C4B33538  17.610  10.327   7.462
 2335POPC   NC333539  34.846  17.237   9.352
 2335POPC   PO433540  34.376  17.565   9.729
 2335POPC   GL133541  34.428  17.506   9.284
 2335POPC   GL233542  34.405  17.227   9.050
 2335POPC   C1A33543  34.538  17.655   8.834
 2335POPC   D2A33544  34.876  17.707   8.508
 2335POPC   C3A33545  34.730  17.621   8.112
 2335POPC   C4A33546  34.402  17.769   7.867
 2335POPC   C1B33547  34.727  17.201   8.699
 2335POPC   C2B33548  34.757  17.136   8.255
 2335POPC   C3B33549  34.537  17.206   7.862
 2335POPC   C4B33550  34.739  17.145   7.452
 2336POPC   NC333551  34.252  40.968   9.451
 2336POPC   PO433552  34.947  40.912   9.569
 2336POPC   GL133553  34.696  40.700   9.222
 2336POPC   GL233554  34.887  40.428   9.052
 2336POPC   C1A33555  34.520  40.898   8.825
 2336POPC   D2A33556  34.295  40.788   8.456
 2336POPC   C3A33557  34.345  41.014   8.099
 2336POPC   C4A33558  34.544  40.825   7.781
 2336POPC   C1B33559  34.941  40.629   8.667
 2336POPC   C2B33560  34.774  40.709   8.265
 2336POPC   C3B33561  34.965  40.573   7.909
 2336POPC   C4B33562  35.011  40.177   7.705
 2337POPC   NC333563   5.507  10.691   9.406
 2337POPC   PO433564   6.060  10.289   9.722
 2337POPC   GL133565   6.057  10.451   9.209
 2337POPC   GL233566   5.978  10.821   9.213
 2337POPC   C1A33567   5.966  10.242   8.765
 2337POPC   D2A33568   5.743  10.053   8.369
 2337POPC   C3A33569   5.791  10.322   8.006
 2337POPC   C4A33570   5.867  10.284   7.551
 2337POPC   C1B33571   5.789  10.747   8.805
 2337POPC   C2B33572   5.467  10.863   8.494
 2337POPC   C3B33573   5.487  10.907   8.027
 2337POPC   C4B33574   5.822  10.759   7.710
 2338POPC   NC333575  43.848   4.724   9.717
 2338POPC   PO433576  44.264   5.212   9.498
 2338POPC   GL133577  44.066   5.038   9.115
 2338POPC   GL233578  43.667   5.034   9.108
 2338POPC   C1A33579  43.905   4.969   8.674
 2338POPC   D2A33580  43.699   5.298   8.466
 2338POPC   C3A33581  43.813   5.377   8.044
 2338POPC   C4A33582  44.068   5.041   7.884
 2338POPC   C1B33583  43.381   4.970   8.728
 2338POPC   C2B33584  43.352   4.990   8.268
 2338POPC   C3B33585  43.588   4.844   7.923
 2338POPC   C4B33586  43.677   5.128   7.605
 2339POPC   NC333587  15.497  11.375   9.485
 2339POPC   PO433588  14.904  11.069   9.682
 2339POPC   GL133589  15.105  11.161   9.247
 2339POPC   GL233590  15.079  11.515   9.246
 2339POPC   C1A33591  15.314  11.343   8.829
 2339POPC   D2A33592  15.307  11.112   8.438
 2339POPC   C3A33593  15.454  11.055   8.014
 2339POPC   C4A33594  15.254  11.254   7.660
 2339POPC   C1B33595  14.899  11.653   8.865
 2339POPC   C2B33596  14.994  11.537   8.442
 2339POPC   C3B33597  15.099  11.726   8.058
 2339POPC   C4B33598  15.027  11.714   7.637
 2340POPC   NC333599  40.285  16.420   9.233
 2340POPC   PO433600  39.789  15.885   9.527
 2340POPC   GL133601  39.917  15.804   9.106
 2340POPC   GL233602  40.121  16.052   8.924
 2340POPC   C1A33603  39.741  15.889   8.669
 2340POPC   D2A33604  39.994  16.151   8.380
 2340POPC   C3A33605  40.002  16.011   7.951
 2340POPC   C4A33606  39.732  15.722   7.821
 2340POPC   C1B33607  40.428  16.116   8.616
 2340POPC   C2B33608  40.459  16.135   8.160
 2340POPC   C3B33609  40.479  15.980   7.722
 2340POPC   C4B33610  40.382  16.198   7.298
 2341POPC   NC333611  43.397  15.256   9.766
 2341POPC   PO433612  42.787  15.451   9.611
 2341POPC   GL133613  43.057  15.456   9.217
 2341POPC   GL233614  43.203  15.802   9.151
 2341POPC   C1A33615  43.046  15.199   8.812
 2341POPC   D2A33616  42.864  15.053   8.377
 2341POPC   C3A33617  43.119  14.997   7.986
 2341POPC   C4A33618  43.270  15.159   7.584
 2341POPC   C1B33619  43.043  15.715   8.737
 2341POPC   C2B33620  43.165  15.472   8.385
 2341POPC   C3B33621  43.171  15.522   7.953
 2341POPC   C4B33622  43.290  15.670   7.553
 2342POPC   NC333623  27.957   9.794   9.598
 2342POPC   PO433624  27.304   9.683   9.666
 2342POPC   GL133625  27.593   9.585   9.281
 2342POPC   GL233626  27.722   9.916   9.164
 2342POPC   C1A33627  27.522   9.397   8.861
 2342POPC   D2A33628  27.489   9.249   8.409
 2342POPC   C3A33629  27.581   9.550   8.042
 2342POPC   C4A33630  27.476   9.520   7.597
 2342POPC   C1B33631  27.571  10.083   8.758
 2342POPC   C2B33632  27.508   9.989   8.315
 2342POPC   C3B33633  27.691  10.105   7.915
 2342POPC   C4B33634  27.864   9.839   7.602
 2343POPC   NC333635  36.009  37.290   9.375
 2343POPC   PO433636  36.085  37.937   9.553
 2343POPC   GL133637  36.168  37.828   9.140
 2343POPC   GL233638  35.895  38.035   9.084
 2343POPC   C1A33639  36.065  37.663   8.701
 2343POPC   D2A33640  35.957  37.713   8.225
 2343POPC   C3A33641  36.320  37.621   7.898
 2343POPC   C4A33642  36.386  37.704   7.425
 2343POPC   C1B33643  35.710  38.234   8.769
 2343POPC   C2B33644  35.482  38.114   8.403
 2343POPC   C3B33645  35.616  38.065   7.975
 2343POPC   C4B33646  35.928  37.880   7.703
 2344POPC   NC333647  43.754   0.933   9.569
 2344POPC   PO433648  43.891   0.300   9.569
 2344POPC   GL133649  43.674   0.292   9.189
 2344POPC   GL233650  43.875   0.605   9.120
 2344POPC   C1A33651  43.588   0.418   8.759
 2344POPC   D2A33652  43.827   0.327   8.363
 2344POPC   C3A33653  43.727   0.076   7.980
 2344POPC   C4A33654  43.461   0.265   7.654
 2344POPC   C1B33655  43.974   0.751   8.662
 2344POPC   C2B33656  43.966   0.805   8.202
 2344POPC   C3B33657  43.866   0.542   7.847
 2344POPC   C4B33658  43.847   0.618   7.398
 2345POPC   NC333659  18.140  37.894   9.652
 2345POPC   PO433660  18.461  37.336   9.682
 2345POPC   GL133661  18.409  37.645   9.301
 2345POPC   GL233662  18.552  37.958   9.224
 2345POPC   C1A33663  18.113  37.793   8.969
 2345POPC   D2A33664  18.119  37.958   8.537
 2345POPC   C3A33665  18.117  37.714   8.120
 2345POPC   C4A33666  18.233  37.881   7.698
 2345POPC   C1B33667  18.597  37.809   8.813
 2345POPC   C2B33668  18.550  37.644   8.412
 2345POPC   C3B33669  18.624  37.758   7.997
 2345POPC   C4B33670  18.642  37.502   7.635
 2346POPC   NC333671  20.275  40.625   9.383
 2346POPC   PO433672  20.857  41.000   9.504
 2346POPC   GL133673  20.794  40.710   9.161
 2346POPC   GL233674  21.097  40.561   9.063
 2346POPC   C1A33675  20.593  40.877   8.781
 2346POPC   D2A33676  20.391  41.003   8.393
 2346POPC   C3A33677  20.425  40.636   8.131
 2346POPC   C4A33678  20.465  40.534   7.717
 2346POPC   C1B33679  21.102  40.831   8.706
 2346POPC   C2B33680  20.901  41.078   8.370
 2346POPC   C3B33681  20.800  41.009   7.946
 2346POPC   C4B33682  20.976  40.696   7.701
 2347POPC   NC333683  43.609   7.939   9.486
 2347POPC   PO433684  43.751   8.466   9.251
 2347POPC   GL133685  43.882   8.009   9.063
 2347POPC   GL233686  44.209   7.784   9.001
 2347POPC   C1A33687  43.797   7.775   8.696
 2347POPC   D2A33688  43.837   8.028   8.308
 2347POPC   C3A33689  43.974   7.890   7.912
 2347POPC   C4A33690  44.003   8.006   7.464
 2347POPC   C1B33691  44.244   8.071   8.621
 2347POPC   C2B33692  44.259   8.273   8.175
 2347POPC   C3B33693  44.033   8.413   7.775
 2347POPC   C4B33694  44.103   8.658   7.361
 2348POPC   NC333695  28.411  33.363   9.511
 2348POPC   PO433696  28.052  32.809   9.664
 2348POPC   GL133697  28.331  32.879   9.231
 2348POPC   GL233698  28.236  33.194   9.089
 2348POPC   C1A33699  28.480  32.942   8.729
 2348POPC   D2A33700  28.646  33.196   8.343
 2348POPC   C3A33701  28.492  33.012   7.959
 2348POPC   C4A33702  28.231  32.630   7.909
 2348POPC   C1B33703  28.058  33.249   8.724
 2348POPC   C2B33704  28.120  33.140   8.336
 2348POPC   C3B33705  28.175  33.424   8.039
 2348POPC   C4B33706  28.201  33.311   7.640
 2349POPC   NC333707  24.352  40.064   9.756
 2349POPC   PO433708  24.937  39.914   9.752
 2349POPC   GL133709  24.818  40.144   9.321
 2349POPC   GL233710  24.509  40.062   9.094
 2349POPC   C1A33711  24.974  40.131   8.869
 2349POPC   D2A33712  24.972  40.141   8.393
 2349POPC   C3A33713  24.669  40.243   8.071
 2349POPC   C4A33714  24.423  40.097   7.714
 2349POPC   C1B33715  24.393  40.044   8.597
 2349POPC   C2B33716  24.161  40.132   8.170
 2349POPC   C3B33717  23.911  40.170   7.760
 2349POPC   C4B33718  24.043  40.103   7.313
 2350POPC   NC333719   0.129  30.533   9.426
 2350POPC   PO433720   0.825  30.417   9.501
 2350POPC   GL133721   0.670  30.439   9.097
 2350POPC   GL233722   0.617  30.775   9.050
 2350POPC   C1A33723   0.681  30.303   8.658
 2350POPC   D2A33724   0.712  30.579   8.311
 2350POPC   C3A33725   0.572  30.491   7.909
 2350POPC   C4A33726   0.559  30.819   7.613
 2350POPC   C1B33727   0.389  30.858   8.677
 2350POPC   C2B33728   0.283  30.838   8.249
 2350POPC   C3B33729   0.162  31.004   7.866
 2350POPC   C4B33730   0.165  31.072   7.387
 2351POPC   NC333731  33.806  20.538   9.496
 2351POPC   PO433732  34.430  20.859   9.512
 2351POPC   GL133733  34.134  20.673   9.150
 2351POPC   GL233734  33.813  20.791   9.015
 2351POPC   C1A33735  34.113  20.483   8.742
 2351POPC   D2A33736  33.899  20.577   8.376
 2351POPC   C3A33737  33.929  20.461   7.946
 2351POPC   C4A33738  33.539  20.375   7.746
 2351POPC   C1B33739  33.724  21.020   8.640
 2351POPC   C2B33740  33.702  21.002   8.192
 2351POPC   C3B33741  33.709  21.126   7.806
 2351POPC   C4B33742  33.790  20.814   7.591
 2352POPC   NC333743  17.103   9.323   9.633
 2352POPC   PO433744  17.404   8.918   9.246
 2352POPC   GL133745  17.526   9.219   9.070
 2352POPC   GL233746  17.894   9.215   9.197
 2352POPC   C1A33747  17.281   9.198   8.673
 2352POPC   D2A33748  17.200   8.963   8.287
 2352POPC   C3A33749  17.129   9.147   7.858
 2352POPC   C4A33750  17.394   8.965   7.490
 2352POPC   C1B33751  17.900   8.976   8.806
 2352POPC   C2B33752  17.726   9.057   8.413
 2352POPC   C3B33753  17.612   9.048   7.998
 2352POPC   C4B33754  17.856   8.847   7.748
 2353POPC   NC333755  29.610  16.700   9.506
 2353POPC   PO433756  30.108  17.180   9.474
 2353POPC   GL133757  29.989  16.960   9.133
 2353POPC   GL233758  29.670  16.991   9.092
 2353POPC   C1A33759  30.008  16.737   8.753
 2353POPC   D2A33760  30.039  16.892   8.327
 2353POPC   C3A33761  29.935  16.589   8.011
 2353POPC   C4A33762  30.101  16.417   7.625
 2353POPC   C1B33763  29.707  17.132   8.656
 2353POPC   C2B33764  29.511  16.956   8.290
 2353POPC   C3B33765  29.522  16.860   7.864
 2353POPC   C4B33766  29.853  16.845   7.558
 2354POPC   NC333767   5.731   4.887   9.529
 2354POPC   PO433768   5.687   4.237   9.494
 2354POPC   GL133769   5.836   4.218   9.119
 2354POPC   GL233770   5.844   4.579   9.094
 2354POPC   C1A33771   6.016   4.237   8.708
 2354POPC   D2A33772   6.226   4.251   8.307
 2354POPC   C3A33773   5.901   4.203   8.058
 2354POPC   C4A33774   5.777   4.102   7.685
 2354POPC   C1B33775   6.113   4.758   8.775
 2354POPC   C2B33776   6.341   4.738   8.394
 2354POPC   C3B33777   6.236   4.751   7.963
 2354POPC   C4B33778   6.016   4.613   7.609
 2355POPC   NC333779  19.768  28.877   9.328
 2355POPC   PO433780  20.027  29.490   9.369
 2355POPC   GL133781  19.730  29.325   9.093
 2355POPC   GL233782  19.421  29.391   8.960
 2355POPC   C1A33783  19.799  29.146   8.681
 2355POPC   D2A33784  19.631  29.139   8.263
 2355POPC   C3A33785  20.001  29.070   8.014
 2355POPC   C4A33786  20.375  28.984   7.789
 2355POPC   C1B33787  19.315  29.020   8.673
 2355POPC   C2B33788  19.470  28.693   8.375
 2355POPC   C3B33789  19.650  28.724   7.915
 2355POPC   C4B33790  19.680  29.097   7.615
 2356POPC   NC333791  34.136  31.332   9.368
 2356POPC   PO433792  33.828  31.832   9.748
 2356POPC   GL133793  33.740  31.660   9.238
 2356POPC   GL233794  33.815  31.350   8.946
 2356POPC   C1A33795  33.742  31.791   8.769
 2356POPC   D2A33796  33.794  31.464   8.396
 2356POPC   C3A33797  33.763  31.511   7.901
 2356POPC   C4A33798  33.759  31.236   7.526
 2356POPC   C1B33799  34.172  31.245   8.685
 2356POPC   C2B33800  34.300  31.361   8.248
 2356POPC   C3B33801  34.145  31.187   7.867
 2356POPC   C4B33802  34.201  30.963   7.501
 2357POPC   NC333803  13.466   3.564   9.543
 2357POPC   PO433804  14.116   3.817   9.620
 2357POPC   GL133805  13.919   3.680   9.200
 2357POPC   GL233806  13.560   3.645   9.058
 2357POPC   C1A33807  13.929   3.552   8.748
 2357POPC   D2A33808  13.650   3.613   8.402
 2357POPC   C3A33809  13.753   3.755   7.958
 2357POPC   C4A33810  13.712   3.663   7.537
 2357POPC   C1B33811  13.480   3.274   8.791
 2357POPC   C2B33812  13.620   3.099   8.397
 2357POPC   C3B33813  13.549   3.289   8.003
 2357POPC   C4B33814  13.567   3.190   7.579
 2358POPC   NC333815   0.290  35.697   9.672
 2358POPC   PO433816   0.407  36.326   9.769
 2358POPC   GL133817   0.310  36.257   9.317
 2358POPC   GL233818   0.087  35.984   9.288
 2358POPC   C1A33819   0.296  36.467   8.892
 2358POPC   D2A33820   0.595  36.478   8.530
 2358POPC   C3A33821   0.585  36.187   8.192
 2358POPC   C4A33822   0.386  36.235   7.797
 2358POPC   C1B33823   0.222  35.949   8.842
 2358POPC   C2B33824   0.031  35.783   8.447
 2358POPC   C3B33825   0.253  35.746   8.024
 2358POPC   C4B33826   0.182  35.832   7.568
 2359POPC   NC333827  37.250  22.146   9.455
 2359POPC   PO433828  36.663  22.335   9.534
 2359POPC   GL133829  36.827  22.140   9.157
 2359POPC   GL233830  37.128  22.347   9.020
 2359POPC   C1A33831  36.730  22.176   8.734
 2359POPC   D2A33832  36.914  22.248   8.343
 2359POPC   C3A33833  36.624  22.106   8.065
 2359POPC   C4A33834  36.685  22.243   7.643
 2359POPC   C1B33835  37.238  22.059   8.704
 2359POPC   C2B33836  37.194  21.824   8.308
 2359POPC   C3B33837  37.066  21.948   7.889
 2359POPC   C4B33838  37.100  21.994   7.415
 2360POPC   NC333839   3.239  21.097   9.478
 2360POPC   PO433840   3.942  21.148   9.473
 2360POPC   GL133841   3.637  21.235   9.151
 2360POPC   GL233842   3.500  21.539   9.265
 2360POPC   C1A33843   3.468  21.107   8.741
 2360POPC   D2A33844   3.588  20.900   8.347
 2360POPC   C3A33845   3.580  21.203   8.027
 2360POPC   C4A33846   3.747  21.454   7.743
 2360POPC   C1B33847   3.477  21.627   8.805
 2360POPC   C2B33848   3.399  21.542   8.376
 2360POPC   C3B33849   3.275  21.609   7.916
 2360POPC   C4B33850   3.415  21.734   7.468
 2361POPC   NC333851   7.263  20.407   9.360
 2361POPC   PO433852   6.828  20.653   9.949
 2361POPC   GL133853   6.776  20.690   9.439
 2361POPC   GL233854   6.689  20.398   9.248
 2361POPC   C1A33855   6.737  20.811   8.941
 2361POPC   D2A33856   6.950  20.861   8.522
 2361POPC   C3A33857   6.757  20.944   8.115
 2361POPC   C4A33858   6.633  20.727   7.733
 2361POPC   C1B33859   6.384  20.423   8.878
 2361POPC   C2B33860   6.504  20.623   8.510
 2361POPC   C3B33861   6.583  20.434   8.140
 2361POPC   C4B33862   6.404  20.266   7.772
 2362POPC   NC333863   5.175  35.949   9.369
 2362POPC   PO433864   5.449  36.560   9.312
 2362POPC   GL133865   5.257  36.334   8.990
 2362POPC   GL233866   4.894  36.224   8.993
 2362POPC   C1A33867   5.396  36.004   8.716
 2362POPC   D2A33868   5.318  35.924   8.286
 2362POPC   C3A33869   5.278  36.291   8.031
 2362POPC   C4A33870   5.045  36.456   7.709
 2362POPC   C1B33871   4.850  35.830   8.779
 2362POPC   C2B33872   4.855  35.653   8.367
 2362POPC   C3B33873   4.871  35.875   7.955
 2362POPC   C4B33874   4.948  35.704   7.547
 2363POPC   NC333875  16.582  38.798   9.605
 2363POPC   PO433876  17.017  39.424   9.603
 2363POPC   GL133877  16.934  39.304   9.159
 2363POPC   GL233878  16.838  38.968   9.201
 2363POPC   C1A33879  16.610  39.305   8.771
 2363POPC   D2A33880  16.409  39.393   8.317
 2363POPC   C3A33881  16.692  39.420   7.917
 2363POPC   C4A33882  16.827  39.457   7.436
 2363POPC   C1B33883  16.998  38.843   8.812
 2363POPC   C2B33884  16.869  38.966   8.395
 2363POPC   C3B33885  16.607  38.922   8.039
 2363POPC   C4B33886  16.753  39.000   7.613
 2364POPC   NC333887  40.288  26.489   9.510
 2364POPC   PO433888  40.091  27.200   9.492
 2364POPC   GL133889  40.040  26.958   9.134
 2364POPC   GL233890  40.352  26.869   9.137
 2364POPC   C1A33891  39.885  26.713   8.794
 2364POPC   D2A33892  39.703  26.820   8.414
 2364POPC   C3A33893  39.921  26.942   8.054
 2364POPC   C4A33894  39.748  26.845   7.674
 2364POPC   C1B33895  40.348  26.506   8.861
 2364POPC   C2B33896  40.123  26.348   8.491
 2364POPC   C3B33897  39.959  26.434   8.088
 2364POPC   C4B33898  40.237  26.518   7.739
 2365POPC   NC333899  19.096   5.802   9.480
 2365POPC   PO433900  18.420   5.737   9.649
 2365POPC   GL133901  18.674   5.763   9.205
 2365POPC   GL233902  18.815   6.061   9.092
 2365POPC   C1A33903  18.926   5.697   8.767
 2365POPC   D2A33904  18.709   5.726   8.325
 2365POPC   C3A33905  18.913   5.843   7.923
 2365POPC   C4A33906  19.343   5.746   7.913
 2365POPC   C1B33907  19.052   6.188   8.719
 2365POPC   C2B33908  19.162   6.087   8.291
 2365POPC   C3B33909  19.301   6.247   7.874
 2365POPC   C4B33910  19.048   6.195   7.517
 2366POPC   NC333911  34.599   5.229   9.564
 2366POPC   PO433912  34.029   4.820   9.563
 2366POPC   GL133913  34.167   5.132   9.245
 2366POPC   GL233914  34.458   4.977   9.120
 2366POPC   C1A33915  34.315   5.406   8.859
 2366POPC   D2A33916  34.266   5.345   8.363
 2366POPC   C3A33917  34.591   5.368   7.986
 2366POPC   C4A33918  34.918   5.293   7.649
 2366POPC   C1B33919  34.463   4.951   8.664
 2366POPC   C2B33920  34.707   4.986   8.293
 2366POPC   C3B33921  34.713   4.865   7.852
 2366POPC   C4B33922  34.624   4.570   7.504
 2367POPC   NC333923  36.774  13.983   9.441
 2367POPC   PO433924  36.744  13.340   9.574
 2367POPC   GL133925  36.758  13.519   9.119
 2367POPC   GL233926  36.971  13.834   8.990
 2367POPC   C1A33927  36.719  13.460   8.715
 2367POPC   D2A33928  36.904  13.565   8.318
 2367POPC   C3A33929  36.677  13.506   7.919
 2367POPC   C4A33930  37.107  13.366   7.770
 2367POPC   C1B33931  36.750  14.149   8.779
 2367POPC   C2B33932  36.625  14.084   8.359
 2367POPC   C3B33933  36.922  13.997   8.037
 2367POPC   C4B33934  36.933  13.833   7.633
 2368POPC   NC333935  28.091   3.204   9.301
 2368POPC   PO433936  28.413   2.534   9.402
 2368POPC   GL133937  28.501   2.589   8.996
 2368POPC   GL233938  28.371   2.917   8.982
 2368POPC   C1A33939  28.564   2.593   8.560
 2368POPC   D2A33940  28.252   2.447   8.282
 2368POPC   C3A33941  28.368   2.764   8.023
 2368POPC   C4A33942  28.792   2.798   7.842
 2368POPC   C1B33943  28.712   3.078   8.746
 2368POPC   C2B33944  28.853   3.033   8.318
 2368POPC   C3B33945  28.625   3.241   8.012
 2368POPC   C4B33946  28.313   3.157   7.730
 2369POPC   NC333947  24.651  30.119   9.424
 2369POPC   PO433948  24.424  29.481   9.438
 2369POPC   GL133949  24.468  29.770   9.076
 2369POPC   GL233950  24.796  29.929   8.992
 2369POPC   C1A33951  24.463  29.839   8.625
 2369POPC   D2A33952  24.190  29.865   8.275
 2369POPC   C3A33953  24.278  29.703   7.935
 2369POPC   C4A33954  24.331  30.035   7.683
 2369POPC   C1B33955  24.928  29.630   8.696
 2369POPC   C2B33956  24.775  29.680   8.263
 2369POPC   C3B33957  24.792  29.870   7.884
 2369POPC   C4B33958  24.989  29.781   7.508
 2370POPC   NC333959   9.930  40.224   9.433
 2370POPC   PO433960  10.038  39.515   9.440
 2370POPC   GL133961  10.020  39.831   9.056
 2370POPC   GL233962  10.144  40.171   8.972
 2370POPC   C1A33963   9.923  39.707   8.610
 2370POPC   D2A33964   9.565  39.659   8.294
 2370POPC   C3A33965   9.581  39.967   7.952
 2370POPC   C4A33966   9.466  40.257   7.610
 2370POPC   C1B33967   9.946  40.228   8.599
 2370POPC   C2B33968  10.020  40.087   8.189
 2370POPC   C3B33969   9.938  40.327   7.797
 2370POPC   C4B33970   9.962  40.221   7.374
 2371POPC   NC333971  23.402  30.439   9.411
 2371POPC   PO433972  22.745  30.519   9.662
 2371POPC   GL133973  22.859  30.453   9.238
 2371POPC   GL233974  23.025  30.700   9.117
 2371POPC   C1A33975  22.805  30.305   8.814
 2371POPC   D2A33976  23.050  30.405   8.464
 2371POPC   C3A33977  22.974  30.567   8.060
 2371POPC   C4A33978  22.647  30.351   7.890
 2371POPC   C1B33979  22.944  30.838   8.713
 2371POPC   C2B33980  23.311  30.853   8.439
 2371POPC   C3B33981  23.314  30.964   8.035
 2371POPC   C4B33982  23.135  30.874   7.627
 2372POPC   NC333983   9.440  43.394   9.430
 2372POPC   PO433984   9.894  42.967   9.546
 2372POPC   GL133985   9.705  43.034   9.133
 2372POPC   GL233986   9.337  42.953   9.142
 2372POPC   C1A33987   9.873  43.220   8.707
 2372POPC   D2A33988   9.781  43.140   8.243
 2372POPC   C3A33989  10.116  43.161   7.900
 2372POPC   C4A33990  10.053  43.292   7.445
 2372POPC   C1B33991   9.487  42.869   8.700
 2372POPC   C2B33992   9.500  42.689   8.295
 2372POPC   C3B33993   9.478  42.677   7.855
 2372POPC   C4B33994   9.666  43.080   7.700
 2373POPC   NC333995  30.977  34.991   9.416
 2373POPC   PO433996  30.546  35.464   9.486
 2373POPC   GL133997  30.756  35.487   9.108
 2373POPC   GL233998  30.623  35.175   9.064
 2373POPC   C1A33999  30.614  35.502   8.675
 2373POPC   D2A34000  30.616  35.171   8.357
 2373POPC   C3A34001  30.711  35.322   7.983
 2373POPC   C4A34002  30.601  35.423   7.598
 2373POPC   C1B34003  30.316  35.057   8.753
 2373POPC   C2B34004  30.113  35.007   8.329
 2373POPC   C3B34005  30.235  35.175   7.908
 2373POPC   C4B34006  30.261  35.103   7.452
 2374POPC   NC334007   4.668  13.106   9.159
 2374POPC   PO434008   4.182  12.870   9.566
 2374POPC   GL134009   4.239  12.746   9.134
 2374POPC   GL234010   4.184  13.062   8.995
 2374POPC   C1A34011   4.033  12.683   8.698
 2374POPC   D2A34012   4.093  12.998   8.345
 2374POPC   C3A34013   4.075  12.811   7.944
 2374POPC   C4A34014   4.029  13.025   7.550
 2374POPC   C1B34015   4.495  12.860   8.630
 2374POPC   C2B34016   4.536  12.746   8.225
 2374POPC   C3B34017   4.641  12.863   7.849
 2374POPC   C4B34018   4.542  13.069   7.478
 2375POPC   NC334019   6.541  40.182   9.815
 2375POPC   PO434020   6.834  40.715   9.504
 2375POPC   GL134021   6.866  40.674   9.084
 2375POPC   GL234022   6.536  40.804   9.004
 2375POPC   C1A34023   6.888  40.658   8.644
 2375POPC   D2A34024   7.068  40.568   8.253
 2375POPC   C3A34025   6.832  40.631   7.904
 2375POPC   C4A34026   6.619  41.002   7.787
 2375POPC   C1B34027   6.410  40.456   8.695
 2375POPC   C2B34028   6.445  40.436   8.233
 2375POPC   C3B34029   6.248  40.665   7.860
 2375POPC   C4B34030   6.120  40.855   7.437
 2376POPC   NC334031   8.090  40.370   9.235
 2376POPC   PO434032   8.189  40.917   9.664
 2376POPC   GL134033   8.340  40.803   9.280
 2376POPC   GL234034   8.038  40.882   9.176
 2376POPC   C1A34035   8.406  40.763   8.808
 2376POPC   D2A34036   8.438  40.436   8.476
 2376POPC   C3A34037   8.298  40.605   8.087
 2376POPC   C4A34038   8.340  40.737   7.649
 2376POPC   C1B34039   8.042  41.159   8.842
 2376POPC   C2B34040   8.147  41.017   8.441
 2376POPC   C3B34041   7.924  40.958   8.090
 2376POPC   C4B34042   7.893  41.174   7.738
 2377POPC   NC334043  39.617  40.335   9.243
 2377POPC   PO434044  40.101  40.587   9.647
 2377POPC   GL134045  40.140  40.632   9.194
 2377POPC   GL234046  39.857  40.805   9.063
 2377POPC   C1A34047  40.258  40.834   8.770
 2377POPC   D2A34048  40.024  40.892   8.345
 2377POPC   C3A34049  40.132  40.864   7.902
 2377POPC   C4A34050  40.251  40.966   7.398
 2377POPC   C1B34051  39.726  40.622   8.655
 2377POPC   C2B34052  39.549  40.683   8.245
 2377POPC   C3B34053  39.675  40.656   7.805
 2377POPC   C4B34054  39.640  40.602   7.354
 2378POPC   NC334055  43.057  25.039   9.577
 2378POPC   PO434056  43.624  25.478   9.627
 2378POPC   GL134057  43.234  25.436   9.304
 2378POPC   GL234058  42.894  25.599   9.333
 2378POPC   C1A34059  42.977  25.252   8.928
 2378POPC   D2A34060  43.078  25.032   8.543
 2378POPC   C3A34061  42.900  25.197   8.171
 2378POPC   C4A34062  42.946  25.038   7.741
 2378POPC   C1B34063  42.821  25.728   8.898
 2378POPC   C2B34064  43.006  25.583   8.513
 2378POPC   C3B34065  43.296  25.512   8.146
 2378POPC   C4B34066  42.989  25.547   7.811
 2379POPC   NC334067  42.595   4.013   9.171
 2379POPC   PO434068  42.418   4.626   9.547
 2379POPC   GL134069  42.547   4.514   9.113
 2379POPC   GL234070  42.227   4.364   9.098
 2379POPC   C1A34071  42.425   4.373   8.631
 2379POPC   D2A34072  42.625   4.408   8.211
 2379POPC   C3A34073  42.629   4.089   7.904
 2379POPC   C4A34074  42.459   4.042   7.471
 2379POPC   C1B34075  41.975   4.119   8.843
 2379POPC   C2B34076  41.871   4.248   8.434
 2379POPC   C3B34077  42.106   4.305   8.065
 2379POPC   C4B34078  41.977   4.094   7.688
 2380POPC   NC334079   3.446  38.038   9.683
 2380POPC   PO434080   3.179  38.722   9.597
 2380POPC   GL134081   3.423  38.428   9.298
 2380POPC   GL234082   3.502  38.664   9.126
 2380POPC   C1A34083   3.621  38.295   8.834
 2380POPC   D2A34084   3.566  38.465   8.419
 2380POPC   C3A34085   3.741  38.327   8.067
 2380POPC   C4A34086   3.594  38.398   7.656
 2380POPC   C1B34087   3.447  38.829   8.745
 2380POPC   C2B34088   3.248  38.902   8.349
 2380POPC   C3B34089   3.363  38.766   7.936
 2380POPC   C4B34090   3.325  38.796   7.473
 2381POPC   NC334091   4.545  15.880   9.413
 2381POPC   PO434092   3.942  16.200   9.520
 2381POPC   GL134093   4.148  16.085   9.179
 2381POPC   GL234094   4.075  15.754   9.035
 2381POPC   C1A34095   4.193  16.165   8.787
 2381POPC   D2A34096   4.171  15.883   8.470
 2381POPC   C3A34097   4.151  16.038   8.067
 2381POPC   C4A34098   4.425  16.052   7.744
 2381POPC   C1B34099   4.462  15.641   8.831
 2381POPC   C2B34100   4.601  15.519   8.460
 2381POPC   C3B34101   4.585  15.695   8.095
 2381POPC   C4B34102   4.435  15.543   7.743
 2382POPC   NC334103  36.014  33.820   9.369
 2382POPC   PO434104  36.554  33.558   9.212
 2382POPC   GL134105  36.226  33.726   8.938
 2382POPC   GL234106  36.048  33.392   9.036
 2382POPC   C1A34107  35.959  34.046   8.725
 2382POPC   D2A34108  35.970  34.198   8.338
 2382POPC   C3A34109  36.355  34.137   8.172
 2382POPC   C4A34110  36.369  34.033   7.745
 2382POPC   C1B34111  36.323  33.366   8.622
 2382POPC   C2B34112  36.192  33.714   8.386
 2382POPC   C3B34113  35.978  33.807   7.984
 2382POPC   C4B34114  35.927  33.503   7.658
 2383POPC   NC334115  16.641  14.153   9.567
 2383POPC   PO434116  17.095  14.586   9.647
 2383POPC   GL134117  16.926  14.340   9.215
 2383POPC   GL234118  16.574  14.433   9.142
 2383POPC   C1A34119  16.835  14.337   8.735
 2383POPC   D2A34120  16.913  14.468   8.302
 2383POPC   C3A34121  16.709  14.243   7.933
 2383POPC   C4A34122  16.733  14.247   7.477
 2383POPC   C1B34123  16.467  14.728   8.830
 2383POPC   C2B34124  16.423  14.836   8.435
 2383POPC   C3B34125  16.574  14.747   8.054
 2383POPC   C4B34126  16.421  14.659   7.659
 2384POPC   NC334127  37.327  41.152   9.500
 2384POPC   PO434128  37.835  41.544   9.597
 2384POPC   GL134129  37.798  41.461   9.186
 2384POPC   GL234130  38.130  41.548   9.130
 2384POPC   C1A34131  37.605  41.343   8.803
 2384POPC   D2A34132  37.648  41.609   8.423
 2384POPC   C3A34133  37.407  41.457   8.082
 2384POPC   C4A34134  37.452  41.238   7.720
 2384POPC   C1B34135  38.086  41.515   8.715
 2384POPC   C2B34136  38.251  41.755   8.414
 2384POPC   C3B34137  38.143  41.862   8.013
 2384POPC   C4B34138  37.753  41.701   7.771
 2385POPC   NC334139  20.681  14.509   9.632
 2385POPC   PO434140  20.291  14.120   9.546
 2385POPC   GL134141  20.574  14.189   9.198
 2385POPC   GL234142  20.434  14.501   9.123
 2385POPC   C1A34143  20.762  14.375   8.771
 2385POPC   D2A34144  20.796  14.571   8.390
 2385POPC   C3A34145  20.815  14.393   7.943
 2385POPC   C4A34146  20.734  14.591   7.520
 2385POPC   C1B34147  20.305  14.180   8.748
 2385POPC   C2B34148  20.388  14.303   8.262
 2385POPC   C3B34149  20.330  14.386   7.792
 2385POPC   C4B34150  20.144  14.422   7.379
 2386POPC   NC334151  24.243  43.213   9.548
 2386POPC   PO434152  24.901  43.328   9.476
 2386POPC   GL134153  24.618  43.116   9.179
 2386POPC   GL234154  24.435  42.813   9.276
 2386POPC   C1A34155  24.636  43.150   8.738
 2386POPC   D2A34156  24.536  43.380   8.361
 2386POPC   C3A34157  24.626  43.187   7.969
 2386POPC   C4A34158  24.558  43.340   7.562
 2386POPC   C1B34159  24.194  42.908   8.905
 2386POPC   C2B34160  24.256  42.935   8.472
 2386POPC   C3B34161  24.130  43.081   8.097
 2386POPC   C4B34162  24.148  43.043   7.681
 2387POPC   NC334163   1.620  20.952   9.576
 2387POPC   PO434164   1.232  20.441   9.489
 2387POPC   GL134165   1.244  20.694   9.164
 2387POPC   GL234166   1.559  20.665   9.128
 2387POPC   C1A34167   1.212  20.530   8.752
 2387POPC   D2A34168   1.261  20.219   8.466
 2387POPC   C3A34169   1.031  20.409   8.124
 2387POPC   C4A34170   1.198  20.625   7.782
 2387POPC   C1B34171   1.627  20.827   8.736
 2387POPC   C2B34172   1.423  20.775   8.332
 2387POPC   C3B34173   1.615  20.878   7.953
 2387POPC   C4B34174   1.744  20.773   7.568
 2388POPC   NC334175  42.223  29.470   9.405
 2388POPC   PO434176  42.703  29.019   9.524
 2388POPC   GL134177  42.550  29.175   9.125
 2388POPC   GL234178  42.174  29.070   9.052
 2388POPC   C1A34179  42.454  29.343   8.716
 2388POPC   D2A34180  42.127  29.224   8.401
 2388POPC   C3A34181  42.315  29.197   7.976
 2388POPC   C4A34182  42.651  29.353   7.735
 2388POPC   C1B34183  41.885  28.873   8.725
 2388POPC   C2B34184  41.738  28.739   8.307
 2388POPC   C3B34185  41.844  28.933   7.890
 2388POPC   C4B34186  41.928  29.336   7.673
 2389POPC   NC334187  41.412   5.488   9.434
 2389POPC   PO434188  41.245   6.157   9.460
 2389POPC   GL134189  41.489   5.963   9.148
 2389POPC   GL234190  41.291   5.703   8.961
 2389POPC   C1A34191  41.556   6.084   8.733
 2389POPC   D2A34192  41.297   5.930   8.387
 2389POPC   C3A34193  41.442   6.064   7.988
 2389POPC   C4A34194  41.850   6.035   7.809
 2389POPC   C1B34195  41.671   5.597   8.679
 2389POPC   C2B34196  41.794   5.700   8.229
 2389POPC   C3B34197  41.562   5.597   7.817
 2389POPC   C4B34198  41.496   5.510   7.385
 2390POPC   NC334199   1.898  20.502   9.452
 2390POPC   PO434200   2.332  20.973   9.651
 2390POPC   GL134201   2.353  20.631   9.211
 2390POPC   GL234202   2.216  20.310   9.102
 2390POPC   C1A34203   2.164  20.677   8.739
 2390POPC   D2A34204   2.246  20.775   8.285
 2390POPC   C3A34205   2.022  20.540   7.961
 2390POPC   C4A34206   2.099  20.373   7.546
 2390POPC   C1B34207   1.796  20.325   8.844
 2390POPC   C2B34208   1.781  20.429   8.420
 2390POPC   C3B34209   1.541  20.365   8.054
 2390POPC   C4B34210   1.589  20.311   7.624
 2391POPC   NC334211  19.908  25.444   9.584
 2391POPC   PO434212  19.265  25.326   9.920
 2391POPC   GL134213  19.509  25.269   9.373
 2391POPC   GL234214  19.725  25.000   9.197
 2391POPC   C1A34215  19.710  25.413   8.939
 2391POPC   D2A34216  19.702  25.377   8.491
 2391POPC   C3A34217  20.014  25.576   8.221
 2391POPC   C4A34218  20.074  25.634   7.779
 2391POPC   C1B34219  19.545  24.936   8.743
 2391POPC   C2B34220  19.582  24.915   8.296
 2391POPC   C3B34221  19.725  25.177   7.995
 2391POPC   C4B34222  19.818  25.043   7.605
 2392POPC   NC334223  24.198  29.105   9.637
 2392POPC   PO434224  24.665  28.620   9.721
 2392POPC   GL134225  24.640  28.854   9.245
 2392POPC   GL234226  24.337  29.070   9.138
 2392POPC   C1A34227  24.596  28.948   8.725
 2392POPC   D2A34228  24.559  28.933   8.238
 2392POPC   C3A34229  24.705  29.291   7.928
 2392POPC   C4A34230  24.554  29.526   7.554
 2392POPC   C1B34231  24.233  29.363   8.790
 2392POPC   C2B34232  24.374  29.391   8.353
 2392POPC   C3B34233  24.215  29.186   7.968
 2392POPC   C4B34234  24.067  29.305   7.598
 2393POPC   NC334235  10.354  10.987   9.397
 2393POPC   PO434236   9.966  10.519   9.299
 2393POPC   GL134237  10.343  10.596   9.030
 2393POPC   GL234238  10.666  10.790   9.022
 2393POPC   C1A34239  10.367  10.713   8.605
 2393POPC   D2A34240  10.586  10.912   8.304
 2393POPC   C3A34241  10.547  10.708   7.897
 2393POPC   C4A34242  10.729  10.637   7.509
 2393POPC   C1B34243  10.830  10.493   8.685
 2393POPC   C2B34244  10.778  10.400   8.229
 2393POPC   C3B34245  10.741  10.208   7.793
 2393POPC   C4B34246  10.720  10.171   7.310
 2394POPC   NC334247  18.225  28.176   9.409
 2394POPC   PO434248  18.111  28.812   9.328
 2394POPC   GL134249  18.157  28.523   9.004
 2394POPC   GL234250  18.483  28.423   8.991
 2394POPC   C1A34251  18.121  28.419   8.564
 2394POPC   D2A34252  17.878  28.489   8.179
 2394POPC   C3A34253  18.161  28.626   7.838
 2394POPC   C4A34254  18.627  28.552   7.851
 2394POPC   C1B34255  18.320  28.016   8.804
 2394POPC   C2B34256  18.452  27.921   8.421
 2394POPC   C3B34257  18.310  28.191   8.114
 2394POPC   C4B34258  18.401  28.089   7.740
 2395POPC   NC334259  28.552  40.672   9.481
 2395POPC   PO434260  27.934  40.765   9.264
 2395POPC   GL134261  28.289  40.793   9.009
 2395POPC   GL234262  28.591  41.010   9.087
 2395POPC   C1A34263  28.295  40.716   8.562
 2395POPC   D2A34264  28.089  40.472   8.248
 2395POPC   C3A34265  27.942  40.741   7.936
 2395POPC   C4A34266  28.142  41.118   7.772
 2395POPC   C1B34267  28.741  40.665   8.830
 2395POPC   C2B34268  28.788  40.559   8.415
 2395POPC   C3B34269  28.536  40.704   8.091
 2395POPC   C4B34270  28.552  40.814   7.694
 2396POPC   NC334271  18.398   2.091   9.620
 2396POPC   PO434272  17.729   2.251   9.465
 2396POPC   GL134273  18.074   2.025   9.191
 2396POPC   GL234274  18.389   1.813   9.197
 2396POPC   C1A34275  18.114   1.885   8.775
 2396POPC   D2A34276  18.246   2.093   8.413
 2396POPC   C3A34277  18.313   1.859   8.040
 2396POPC   C4A34278  18.431   2.150   7.735
 2396POPC   C1B34279  18.624   1.876   8.833
 2396POPC   C2B34280  18.640   1.721   8.440
 2396POPC   C3B34281  18.690   1.531   8.063
 2396POPC   C4B34282  18.673   1.709   7.674
 2397POPC   NC334283  30.847  41.858   9.492
 2397POPC   PO434284  30.442  41.398   9.551
 2397POPC   GL134285  30.498  41.650   9.179
 2397POPC   GL234286  30.855  41.634   9.028
 2397POPC   C1A34287  30.441  41.765   8.775
 2397POPC   D2A34288  30.732  41.585   8.507
 2397POPC   C3A34289  30.676  41.684   8.114
 2397POPC   C4A34290  30.420  41.639   7.794
 2397POPC   C1B34291  31.023  41.254   8.769
 2397POPC   C2B34292  31.086  41.094   8.359
 2397POPC   C3B34293  30.913  41.254   7.951
 2397POPC   C4B34294  30.925  41.631   7.658
 2398POPC   NC334295   3.083  15.533   9.488
 2398POPC   PO434296   2.872  14.920   9.505
 2398POPC   GL134297   2.771  15.225   9.175
 2398POPC   GL234298   3.117  15.192   9.113
 2398POPC   C1A34299   2.783  15.164   8.695
 2398POPC   D2A34300   2.698  15.275   8.253
 2398POPC   C3A34301   2.612  15.024   7.886
 2398POPC   C4A34302   2.367  15.208   7.567
 2398POPC   C1B34303   3.127  15.513   8.834
 2398POPC   C2B34304   3.215  15.505   8.424
 2398POPC   C3B34305   3.171  15.226   8.097
 2398POPC   C4B34306   3.012  15.299   7.708
 2399POPC   NC334307   8.358  36.846   9.484
 2399POPC   PO434308   7.694  36.847   9.356
 2399POPC   GL134309   8.044  37.079   9.125
 2399POPC   GL234310   8.448  37.062   9.040
 2399POPC   C1A34311   7.991  37.263   8.736
 2399POPC   D2A34312   8.044  37.244   8.297
 2399POPC   C3A34313   7.830  37.144   7.930
 2399POPC   C4A34314   7.850  36.977   7.516
 2399POPC   C1B34315   8.319  36.856   8.661
 2399POPC   C2B34316   8.466  36.930   8.236
 2399POPC   C3B34317   8.336  37.085   7.845
 2399POPC   C4B34318   8.344  36.934   7.414
 2400POPC   NC334319  29.806  44.310   9.479
 2400POPC   PO434320  29.700  43.657   9.472
 2400POPC   GL134321  29.876  43.684   9.088
 2400POPC   GL234322  29.724  43.994   9.072
 2400POPC   C1A34323  30.097  43.627   8.714
 2400POPC   D2A34324  29.856  43.443   8.392
 2400POPC   C3A34325  30.057  43.541   8.027
 2400POPC   C4A34326  29.853  43.664   7.666
 2400POPC   C1B34327  29.971  44.123   8.743
 2400POPC   C2B34328  30.085  43.992   8.334
 2400POPC   C3B34329  29.976  44.079   7.927
 2400POPC   C4B34330  29.550  44.217   7.906
 2401POPC   NC334331   8.321  18.092   9.546
 2401POPC   PO434332   7.694  17.835   9.380
 2401POPC   GL134333   8.053  18.051   9.130
 2401POPC   GL234334   8.228  18.414   9.179
 2401POPC   C1A34335   8.285  18.124   8.762
 2401POPC   D2A34336   8.172  17.971   8.395
 2401POPC   C3A34337   8.160  18.203   8.031
 2401POPC   C4A34338   8.332  18.037   7.680
 2401POPC   C1B34339   8.175  18.613   8.769
 2401POPC   C2B34340   8.373  18.506   8.379
 2401POPC   C3B34341   8.385  18.721   7.975
 2401POPC   C4B34342   8.551  18.632   7.583
 2402POPC   NC334343   3.397   0.952   9.533
 2402POPC   PO434344   3.103   1.555   9.516
 2402POPC   GL134345   3.435   1.364   9.224
 2402POPC   GL234346   3.410   0.992   9.049
 2402POPC   C1A34347   3.706   1.353   8.876
 2402POPC   D2A34348   3.532   1.508   8.511
 2402POPC   C3A34349   3.621   1.232   8.205
 2402POPC   C4A34350   3.691   1.143   7.783
 2402POPC   C1B34351   3.323   1.073   8.644
 2402POPC   C2B34352   3.116   1.106   8.290
 2402POPC   C3B34353   3.258   0.922   7.926
 2402POPC   C4B34354   3.338   0.904   7.470
 2403POPC   NC334355   7.859  17.757   9.794
 2403POPC   PO434356   8.518  17.647   9.707
 2403POPC   GL134357   8.241  17.596   9.329
 2403POPC   GL234358   8.205  17.236   9.207
 2403POPC   C1A34359   8.248  17.619   8.858
 2403POPC   D2A34360   8.491  17.552   8.467
 2403POPC   C3A34361   8.316  17.627   8.043
 2403POPC   C4A34362   8.539  17.547   7.649
 2403POPC   C1B34363   7.958  17.151   8.812
 2403POPC   C2B34364   7.951  16.985   8.356
 2403POPC   C3B34365   8.193  17.128   8.019
 2403POPC   C4B34366   8.064  17.341   7.646
 2404POPC   NC334367   4.309  44.964   9.473
 2404POPC   PO434368   4.122   0.511   9.809
 2404POPC   GL134369   4.147   0.425   9.322
 2404POPC   GL234370   4.534   0.379   9.255
 2404POPC   C1A34371   4.231   0.461   8.842
 2404POPC   D2A34372   4.115   0.660   8.430
 2404POPC   C3A34373   4.110   0.468   7.982
 2404POPC   C4A34374   3.999   0.736   7.637
 2404POPC   C1B34375   4.760   0.322   8.856
 2404POPC   C2B34376   4.603   0.388   8.427
 2404POPC   C3B34377   4.569   0.201   8.008
 2404POPC   C4B34378   4.500   0.342   7.588
 2405POPC   NC334379  38.846  28.815   9.461
 2405POPC   PO434380  39.272  29.300   9.364
 2405POPC   GL134381  39.038  29.283   9.007
 2405POPC   GL234382  38.928  28.953   8.979
 2405POPC   C1A34383  39.164  29.276   8.569
 2405POPC   D2A34384  39.597  29.158   8.427
 2405POPC   C3A34385  39.568  29.088   8.005
 2405POPC   C4A34386  39.306  29.345   7.737
 2405POPC   C1B34387  39.312  28.845   8.794
 2405POPC   C2B34388  39.277  28.773   8.357
 2405POPC   C3B34389  39.073  28.932   8.003
 2405POPC   C4B34390  38.796  29.289   7.878
 2406POPC   NC334391  38.779  15.378   9.432
 2406POPC   PO434392  38.334  14.918   9.556
 2406POPC   GL134393  38.468  15.052   9.176
 2406POPC   GL234394  38.297  15.389   9.181
 2406POPC   C1A34395  38.731  15.116   8.812
 2406POPC   D2A34396  38.544  14.990   8.408
 2406POPC   C3A34397  38.662  15.044   8.002
 2406POPC   C4A34398  38.436  15.089   7.657
 2406POPC   C1B34399  38.247  15.292   8.734
 2406POPC   C2B34400  38.431  15.475   8.350
 2406POPC   C3B34401  38.419  15.515   7.921
 2406POPC   C4B34402  38.156  15.626   7.609
 2407POPC   NC334403   7.513  34.514   9.614
 2407POPC   PO434404   6.970  34.711   9.406
 2407POPC   GL134405   7.299  34.659   9.136
 2407POPC   GL234406   7.071  34.557   8.911
 2407POPC   C1A34407   7.527  34.737   8.752
 2407POPC   D2A34408   7.361  34.619   8.349
 2407POPC   C3A34409   7.577  34.651   7.936
 2407POPC   C4A34410   7.520  34.835   7.532
 2407POPC   C1B34411   7.336  34.238   8.741
 2407POPC   C2B34412   7.314  34.109   8.313
 2407POPC   C3B34413   7.173  34.320   7.948
 2407POPC   C4B34414   7.347  34.363   7.557
 2408POPC   NC334415  27.694   8.002   9.429
 2408POPC   PO434416  27.557   8.727   9.565
 2408POPC   GL134417  27.646   8.537   9.176
 2408POPC   GL234418  27.395   8.312   9.172
 2408POPC   C1A34419  27.841   8.384   8.781
 2408POPC   D2A34420  27.805   8.085   8.428
 2408POPC   C3A34421  27.684   8.232   8.006
 2408POPC   C4A34422  27.958   8.295   7.696
 2408POPC   C1B34423  27.377   8.174   8.733
 2408POPC   C2B34424  27.256   8.186   8.295
 2408POPC   C3B34425  27.149   8.069   7.861
 2408POPC   C4B34426  27.379   7.964   7.503
 2409POPC   NC334427  44.660   4.825   9.456
 2409POPC   PO434428   0.087   5.455   9.481
 2409POPC   GL134429  44.864   5.191   9.203
 2409POPC   GL234430   0.024   4.838   9.128
 2409POPC   C1A34431  44.523   5.315   8.913
 2409POPC   D2A34432  44.369   5.114   8.534
 2409POPC   C3A34433  44.464   5.257   8.111
 2409POPC   C4A34434  44.539   5.068   7.698
 2409POPC   C1B34435  44.814   4.951   8.762
 2409POPC   C2B34436  44.888   5.121   8.362
 2409POPC   C3B34437  44.953   4.932   7.952
 2409POPC   C4B34438  44.823   4.634   7.634
 2410POPC   NC334439  20.653  32.552   9.405
 2410POPC   PO434440  20.821  31.913   9.416
 2410POPC   GL134441  20.551  32.127   9.113
 2410POPC   GL234442  20.223  32.255   9.165
 2410POPC   C1A34443  20.374  32.066   8.679
 2410POPC   D2A34444  20.312  32.320   8.315
 2410POPC   C3A34445  20.582  32.145   7.972
 2410POPC   C4A34446  21.007  31.950   7.877
 2410POPC   C1B34447  20.417  32.536   8.813
 2410POPC   C2B34448  20.739  32.527   8.523
 2410POPC   C3B34449  20.640  32.673   8.163
 2410POPC   C4B34450  20.631  32.609   7.755
 2411POPC   NC334451  29.087  21.067   9.547
 2411POPC   PO434452  29.735  21.292   9.546
 2411POPC   GL134453  29.412  21.354   9.290
 2411POPC   GL234454  29.464  21.044   9.169
 2411POPC   C1A34455  29.287  21.593   8.967
 2411POPC   D2A34456  29.242  21.676   8.467
 2411POPC   C3A34457  29.307  21.418   8.103
 2411POPC   C4A34458  29.282  21.527   7.687
 2411POPC   C1B34459  29.336  21.147   8.773
 2411POPC   C2B34460  28.998  21.229   8.479
 2411POPC   C3B34461  28.866  21.161   8.044
 2411POPC   C4B34462  29.185  21.010   7.760
 2412POPC   NC334463  13.316  34.692   9.355
 2412POPC   PO434464  12.730  34.803   9.503
 2412POPC   GL134465  12.835  34.507   9.199
 2412POPC   GL234466  12.499  34.413   9.135
 2412POPC   C1A34467  12.887  34.496   8.758
 2412POPC   D2A34468  13.041  34.669   8.376
 2412POPC   C3A34469  12.888  34.503   7.970
 2412POPC   C4A34470  12.873  34.457   7.524
 2412POPC   C1B34471  12.413  34.710   8.789
 2412POPC   C2B34472  12.502  34.662   8.330
 2412POPC   C3B34473  12.504  34.815   7.894
 2412POPC   C4B34474  12.459  34.748   7.434
 2413POPC   NC334475  40.470  37.362   9.388
 2413POPC   PO434476  40.029  36.978   9.715
 2413POPC   GL134477  40.099  36.757   9.194
 2413POPC   GL234478  40.086  37.018   8.854
 2413POPC   C1A34479  39.869  36.587   8.825
 2413POPC   D2A34480  39.672  36.700   8.429
 2413POPC   C3A34481  39.922  36.886   8.061
 2413POPC   C4A34482  39.881  37.241   7.774
 2413POPC   C1B34483  40.434  37.247   8.721
 2413POPC   C2B34484  40.598  37.182   8.359
 2413POPC   C3B34485  40.325  37.223   8.046
 2413POPC   C4B34486  40.352  37.095   7.646
 2414POPC   NC334487  19.740  32.721   9.416
 2414POPC   PO434488  19.398  33.259   9.553
 2414POPC   GL134489  19.642  33.155   9.184
 2414POPC   GL234490  19.972  33.069   9.123
 2414POPC   C1A34491  19.563  33.053   8.767
 2414POPC   D2A34492  19.738  33.020   8.369
 2414POPC   C3A34493  19.716  33.230   7.993
 2414POPC   C4A34494  19.824  33.030   7.648
 2414POPC   C1B34495  20.079  32.920   8.736
 2414POPC   C2B34496  20.207  32.844   8.331
 2414POPC   C3B34497  20.260  32.952   7.903
 2414POPC   C4B34498  20.238  32.690   7.481
 2415POPC   NC334499  38.007  41.933   9.441
 2415POPC   PO434500  37.739  42.515   9.409
 2415POPC   GL134501  37.680  42.281   9.078
 2415POPC   GL234502  37.618  41.933   9.100
 2415POPC   C1A34503  37.517  42.296   8.698
 2415POPC   D2A34504  37.408  42.308   8.291
 2415POPC   C3A34505  37.475  42.618   8.000
 2415POPC   C4A34506  37.235  42.487   7.626
 2415POPC   C1B34507  37.955  41.991   8.780
 2415POPC   C2B34508  37.859  42.095   8.363
 2415POPC   C3B34509  37.760  42.191   7.928
 2415POPC   C4B34510  38.038  42.097   7.583
 2416POPC   NC334511  32.767  21.792   9.431
 2416POPC   PO434512  33.241  22.237   9.469
 2416POPC   GL134513  33.117  22.009   9.145
 2416POPC   GL234514  32.825  22.185   9.080
 2416POPC   C1A34515  33.231  21.934   8.773
 2416POPC   D2A34516  33.393  22.117   8.473
 2416POPC   C3A34517  33.085  22.192   8.197
 2416POPC   C4A34518  33.133  22.458   7.876
 2416POPC   C1B34519  32.728  21.970   8.698
 2416POPC   C2B34520  32.704  21.843   8.268
 2416POPC   C3B34521  32.728  22.063   7.841
 2416POPC   C4B34522  32.500  22.095   7.436
 2417POPC   NC334523  20.503  33.434   9.455
 2417POPC   PO434524  20.225  32.716   9.408
 2417POPC   GL134525  20.487  32.971   9.096
 2417POPC   GL234526  20.767  33.224   9.053
 2417POPC   C1A34527  20.587  32.988   8.648
 2417POPC   D2A34528  20.611  33.210   8.278
 2417POPC   C3A34529  20.787  33.066   7.897
 2417POPC   C4A34530  20.547  33.110   7.520
 2417POPC   C1B34531  21.005  33.263   8.629
 2417POPC   C2B34532  21.072  33.398   8.165
 2417POPC   C3B34533  20.774  33.561   7.821
 2417POPC   C4B34534  20.567  33.618   7.404
 2418POPC   NC334535  21.578  41.438   9.731
 2418POPC   PO434536  22.148  41.915   9.499
 2418POPC   GL134537  22.246  41.700   9.084
 2418POPC   GL234538  22.101  41.348   9.039
 2418POPC   C1A34539  22.019  41.662   8.670
 2418POPC   D2A34540  21.778  41.542   8.339
 2418POPC   C3A34541  22.041  41.544   7.992
 2418POPC   C4A34542  22.255  41.602   7.572
 2418POPC   C1B34543  22.380  41.269   8.681
 2418POPC   C2B34544  22.463  41.194   8.217
 2418POPC   C3B34545  22.280  41.154   7.803
 2418POPC   C4B34546  22.225  41.133   7.381
 2419POPC   NC334547  40.786   8.385   9.493
 2419POPC   PO434548  40.289   8.004   9.635
 2419POPC   GL134549  40.503   8.085   9.162
 2419POPC   GL234550  40.748   8.341   9.014
 2419POPC   C1A34551  40.644   7.974   8.725
 2419POPC   D2A34552  40.592   8.210   8.386
 2419POPC   C3A34553  40.686   7.954   8.037
 2419POPC   C4A34554  40.977   7.903   7.727
 2419POPC   C1B34555  40.965   8.450   8.651
 2419POPC   C2B34556  41.062   8.275   8.213
 2419POPC   C3B34557  40.919   8.433   7.805
 2419POPC   C4B34558  41.039   8.369   7.332
 2420POPC   NC334559   4.745   4.837   9.368
 2420POPC   PO434560   5.343   5.176   9.464
 2420POPC   GL134561   5.111   5.080   9.127
 2420POPC   GL234562   4.828   5.323   9.132
 2420POPC   C1A34563   5.119   4.735   8.822
 2420POPC   D2A34564   5.243   4.571   8.405
 2420POPC   C3A34565   5.306   4.939   8.173
 2420POPC   C4A34566   5.107   5.010   7.795
 2420POPC   C1B34567   4.845   5.166   8.703
 2420POPC   C2B34568   4.690   5.059   8.311
 2420POPC   C3B34569   4.714   5.288   7.945
 2420POPC   C4B34570   5.058   5.513   7.718
 2421POPC   NC334571  26.504   5.476   9.937
 2421POPC   PO434572  26.893   5.013   9.552
 2421POPC   GL134573  26.789   5.178   9.166
 2421POPC   GL234574  26.894   5.493   9.283
 2421POPC   C1A34575  26.795   5.107   8.703
 2421POPC   D2A34576  27.100   5.062   8.327
 2421POPC   C3A34577  26.922   4.957   7.916
 2421POPC   C4A34578  26.971   4.723   7.513
 2421POPC   C1B34579  26.848   5.610   8.860
 2421POPC   C2B34580  26.966   5.533   8.439
 2421POPC   C3B34581  26.921   5.473   7.995
 2421POPC   C4B34582  26.750   5.823   7.716
 2422POPC   NC334583  26.373  13.049   9.363
 2422POPC   PO434584  25.668  12.810   9.312
 2422POPC   GL134585  25.986  12.864   9.074
 2422POPC   GL234586  26.276  12.670   9.040
 2422POPC   C1A34587  25.922  12.731   8.646
 2422POPC   D2A34588  25.601  12.552   8.390
 2422POPC   C3A34589  25.712  12.696   7.995
 2422POPC   C4A34590  26.039  12.551   7.760
 2422POPC   C1B34591  26.323  13.036   8.735
 2422POPC   C2B34592  26.185  13.204   8.359
 2422POPC   C3B34593  26.290  12.932   8.009
 2422POPC   C4B34594  26.539  12.543   7.950
 2423POPC   NC334595  43.836   5.391   9.443
 2423POPC   PO434596  43.702   6.039   9.489
 2423POPC   GL134597  43.910   5.887   9.147
 2423POPC   GL234598  44.195   5.655   9.210
 2423POPC   C1A34599  43.782   5.877   8.730
 2423POPC   D2A34600  43.588   5.776   8.362
 2423POPC   C3A34601  43.588   6.009   7.985
 2423POPC   C4A34602  43.890   5.905   7.688
 2423POPC   C1B34603  44.043   5.458   8.829
 2423POPC   C2B34604  44.130   5.575   8.427
 2423POPC   C3B34605  44.239   5.730   8.043
 2423POPC   C4B34606  44.228   5.489   7.686
 2424POPC   NC334607  32.318   7.805   9.558
 2424POPC   PO434608  32.166   7.178   9.587
 2424POPC   GL134609  32.283   7.296   9.149
 2424POPC   GL234610  32.522   7.580   9.133
 2424POPC   C1A34611  32.056   7.300   8.709
 2424POPC   D2A34612  31.775   7.408   8.381
 2424POPC   C3A34613  31.977   7.338   7.988
 2424POPC   C4A34614  32.315   7.228   7.698
 2424POPC   C1B34615  32.097   7.737   8.931
 2424POPC   C2B34616  32.090   7.844   8.477
 2424POPC   C3B34617  32.302   7.741   8.072
 2424POPC   C4B34618  32.124   7.704   7.657
 2425POPC   NC334619  19.550  42.007   9.294
 2425POPC   PO434620  20.000  42.602   9.411
 2425POPC   GL134621  19.774  42.434   9.090
 2425POPC   GL234622  20.081  42.351   8.911
 2425POPC   C1A34623  19.658  42.463   8.661
 2425POPC   D2A34624  20.036  42.574   8.410
 2425POPC   C3A34625  19.976  42.312   8.053
 2425POPC   C4A34626  19.619  42.354   7.786
 2425POPC   C1B34627  19.992  42.090   8.524
 2425POPC   C2B34628  19.637  41.987   8.289
 2425POPC   C3B34629  19.702  41.846   7.886
 2425POPC   C4B34630  19.971  42.066   7.579
 2426POPC   NC334631  24.933  29.412   9.446
 2426POPC   PO434632  25.429  28.935   9.566
 2426POPC   GL134633  25.220  28.911   9.132
 2426POPC   GL234634  24.966  29.172   9.006
 2426POPC   C1A34635  25.239  28.904   8.676
 2426POPC   D2A34636  25.022  29.168   8.405
 2426POPC   C3A34637  25.038  28.918   8.041
 2426POPC   C4A34638  25.080  29.024   7.646
 2426POPC   C1B34639  25.353  29.369   8.878
 2426POPC   C2B34640  25.558  29.292   8.498
 2426POPC   C3B34641  25.647  29.434   8.048
 2426POPC   C4B34642  25.319  29.465   7.724
 2427POPC   NC334643  10.278  31.793   9.419
 2427POPC   PO434644  10.595  31.230   9.713
 2427POPC   GL134645  10.604  31.297   9.247
 2427POPC   GL234646  10.302  31.415   9.081
 2427POPC   C1A34647  10.737  31.405   8.791
 2427POPC   D2A34648  10.452  31.632   8.473
 2427POPC   C3A34649  10.458  31.568   7.990
 2427POPC   C4A34650  10.565  31.636   7.529
 2427POPC   C1B34651  10.012  31.492   8.726
 2427POPC   C2B34652   9.965  31.471   8.263
 2427POPC   C3B34653  10.024  31.247   7.870
 2427POPC   C4B34654  10.262  30.994   7.543
 2428POPC   NC334655   6.903  43.836   9.658
 2428POPC   PO434656   6.457  44.201   9.440
 2428POPC   GL134657   6.593  43.802   9.232
 2428POPC   GL234658   6.884  43.973   9.170
 2428POPC   C1A34659   6.811  43.587   8.863
 2428POPC   D2A34660   7.002  43.758   8.502
 2428POPC   C3A34661   6.924  43.662   8.098
 2428POPC   C4A34662   6.801  43.881   7.716
 2428POPC   C1B34663   6.753  44.139   8.796
 2428POPC   C2B34664   6.569  44.084   8.429
 2428POPC   C3B34665   6.523  44.152   8.027
 2428POPC   C4B34666   6.814  44.410   7.779
 2429POPC   NC334667   5.987  35.571   9.421
 2429POPC   PO434668   5.637  34.942   9.519
 2429POPC   GL134669   5.827  35.080   9.154
 2429POPC   GL234670   6.173  35.120   9.212
 2429POPC   C1A34671   5.682  35.269   8.783
 2429POPC   D2A34672   5.605  35.514   8.412
 2429POPC   C3A34673   5.631  35.222   8.074
 2429POPC   C4A34674   5.699  35.452   7.679
 2429POPC   C1B34675   6.208  35.256   8.817
 2429POPC   C2B34676   6.071  35.321   8.434
 2429POPC   C3B34677   6.051  35.495   8.063
 2429POPC   C4B34678   6.098  35.127   7.790
 2430POPC   NC334679  31.525  38.518   9.644
 2430POPC   PO434680  31.751  38.093   9.216
 2430POPC   GL134681  31.519  38.476   9.135
 2430POPC   GL234682  31.780  38.729   9.243
 2430POPC   C1A34683  31.222  38.482   8.788
 2430POPC   D2A34684  31.393  38.606   8.409
 2430POPC   C3A34685  31.267  38.395   8.079
 2430POPC   C4A34686  31.088  38.418   7.702
 2430POPC   C1B34687  31.851  38.694   8.809
 2430POPC   C2B34688  31.881  38.814   8.396
 2430POPC   C3B34689  31.742  38.576   8.025
 2430POPC   C4B34690  31.475  38.727   7.719
 2431POPC   NC334691  27.891  34.786   9.657
 2431POPC   PO434692  27.354  34.970   9.473
 2431POPC   GL134693  27.667  34.712   9.193
 2431POPC   GL234694  28.047  34.819   9.169
 2431POPC   C1A34695  27.507  34.382   8.892
 2431POPC   D2A34696  27.233  34.442   8.518
 2431POPC   C3A34697  27.386  34.605   8.114
 2431POPC   C4A34698  27.232  34.629   7.685
 2431POPC   C1B34699  28.027  34.461   8.877
 2431POPC   C2B34700  27.800  34.470   8.480
 2431POPC   C3B34701  27.907  34.583   8.072
 2431POPC   C4B34702  27.682  34.316   7.789
 2432POPC   NC334703   5.548  32.165   9.605
 2432POPC   PO434704   6.059  32.585   9.732
 2432POPC   GL134705   5.955  32.491   9.288
 2432POPC   GL234706   5.753  32.216   9.154
 2432POPC   C1A34707   5.967  32.563   8.832
 2432POPC   D2A34708   5.766  32.362   8.455
 2432POPC   C3A34709   6.003  32.285   8.072
 2432POPC   C4A34710   5.906  32.209   7.637
 2432POPC   C1B34711   5.659  31.972   8.783
 2432POPC   C2B34712   5.671  31.795   8.338
 2432POPC   C3B34713   5.547  32.009   7.958
 2432POPC   C4B34714   5.483  31.966   7.514
 2433POPC   NC334715  36.292  30.877   9.675
 2433POPC   PO434716  35.978  30.264   9.479
 2433POPC   GL134717  35.903  30.529   9.099
 2433POPC   GL234718  36.048  30.877   9.151
 2433POPC   C1A34719  36.093  30.508   8.685
 2433POPC   D2A34720  36.474  30.569   8.439
 2433POPC   C3A34721  36.316  30.464   8.039
 2433POPC   C4A34722  36.005  30.480   7.661
 2433POPC   C1B34723  36.237  30.989   8.730
 2433POPC   C2B34724  36.077  30.873   8.317
 2433POPC   C3B34725  36.155  30.912   7.884
 2433POPC   C4B34726  36.395  31.171   7.671
 2434POPC   NC334727  27.175  10.153   9.589
 2434POPC   PO434728  27.849  10.299   9.541
 2434POPC   GL134729  27.622  10.415   9.143
 2434POPC   GL234730  27.300  10.380   9.159
 2434POPC   C1A34731  27.606  10.611   8.735
 2434POPC   D2A34732  27.678  10.459   8.312
 2434POPC   C3A34733  27.829  10.632   7.925
 2434POPC   C4A34734  28.082  10.906   7.696
 2434POPC   C1B34735  27.124  10.399   8.795
 2434POPC   C2B34736  27.136  10.573   8.406
 2434POPC   C3B34737  27.258  10.367   8.031
 2434POPC   C4B34738  27.391  10.569   7.657
 2435POPC   NC334739  38.347  20.141   9.422
 2435POPC   PO434740  38.708  19.599   9.591
 2435POPC   GL134741  38.633  19.586   9.157
 2435POPC   GL234742  38.288  19.751   9.077
 2435POPC   C1A34743  38.683  19.756   8.747
 2435POPC   D2A34744  38.436  19.835   8.414
 2435POPC   C3A34745  38.691  19.807   8.083
 2435POPC   C4A34746  38.532  19.604   7.746
 2435POPC   C1B34747  38.244  20.138   8.789
 2435POPC   C2B34748  38.220  20.323   8.385
 2435POPC   C3B34749  38.232  20.094   8.011
 2435POPC   C4B34750  38.143  19.918   7.629
 2436POPC   NC334751  38.268  12.509   9.362
 2436POPC   PO434752  38.284  11.858   9.580
 2436POPC   GL134753  38.457  11.990   9.158
 2436POPC   GL234754  38.664  12.305   9.109
 2436POPC   C1A34755  38.391  11.872   8.740
 2436POPC   D2A34756  38.150  11.803   8.372
 2436POPC   C3A34757  38.305  12.056   8.075
 2436POPC   C4A34758  38.545  12.063   7.750
 2436POPC   C1B34759  38.740  12.250   8.651
 2436POPC   C2B34760  38.783  12.265   8.171
 2436POPC   C3B34761  38.821  12.457   7.760
 2436POPC   C4B34762  38.424  12.442   7.453
 2437POPC   NC334763  28.774  13.836   9.217
 2437POPC   PO434764  28.338  13.549   9.602
 2437POPC   GL134765  28.194  13.666   9.164
 2437POPC   GL234766  28.470  13.698   8.878
 2437POPC   C1A34767  28.013  13.634   8.742
 2437POPC   D2A34768  28.315  13.700   8.403
 2437POPC   C3A34769  28.059  13.653   8.099
 2437POPC   C4A34770  28.050  13.463   7.770
 2437POPC   C1B34771  28.829  13.702   8.579
 2437POPC   C2B34772  28.783  13.656   8.136
 2437POPC   C3B34773  28.523  13.689   7.761
 2437POPC   C4B34774  28.627  13.878   7.310
 2438POPC   NC334775  21.550  29.095   9.581
 2438POPC   PO434776  20.913  29.225   9.340
 2438POPC   GL134777  21.276  29.058   9.111
 2438POPC   GL234778  21.609  29.246   9.094
 2438POPC   C1A34779  21.317  29.069   8.665
 2438POPC   D2A34780  21.465  29.289   8.285
 2438POPC   C3A34781  21.285  29.208   7.877
 2438POPC   C4A34782  21.309  29.341   7.432
 2438POPC   C1B34783  21.711  28.821   8.902
 2438POPC   C2B34784  21.650  28.738   8.453
 2438POPC   C3B34785  21.699  28.877   8.037
 2438POPC   C4B34786  21.583  28.916   7.593
 2439POPC   NC334787  20.009   5.314   9.655
 2439POPC   PO434788  19.692   4.745   9.584
 2439POPC   GL134789  19.541   5.026   9.211
 2439POPC   GL234790  19.785   5.304   9.139
 2439POPC   C1A34791  19.420   5.155   8.736
 2439POPC   D2A34792  19.529   5.433   8.324
 2439POPC   C3A34793  19.619   5.258   7.875
 2439POPC   C4A34794  19.783   4.915   7.596
 2439POPC   C1B34795  19.915   5.285   8.674
 2439POPC   C2B34796  20.008   5.214   8.202
 2439POPC   C3B34797  20.204   5.165   7.770
 2439POPC   C4B34798  20.424   5.407   7.425
 2440POPC   NC334799  40.049  16.270   9.652
 2440POPC   PO434800  40.244  16.888   9.326
 2440POPC   GL134801  40.096  16.828   8.972
 2440POPC   GL234802  39.756  16.815   9.099
 2440POPC   C1A34803  40.208  16.597   8.611
 2440POPC   D2A34804  40.021  16.692   8.272
 2440POPC   C3A34805  39.825  16.482   8.012
 2440POPC   C4A34806  39.699  16.625   7.687
 2440POPC   C1B34807  39.742  16.956   8.634
 2440POPC   C2B34808  39.970  17.192   8.289
 2440POPC   C3B34809  39.900  17.058   7.874
 2440POPC   C4B34810  39.464  17.026   7.860
 2441POPC   NC334811  17.046   0.570   9.509
 2441POPC   PO434812  16.801  44.988   9.686
 2441POPC   GL134813  16.747   0.231   9.216
 2441POPC   GL234814  16.859   0.524   9.055
 2441POPC   C1A34815  16.850   0.137   8.749
 2441POPC   D2A34816  16.627   0.164   8.391
 2441POPC   C3A34817  16.810   0.286   8.025
 2441POPC   C4A34818  16.517   0.338   7.679
 2441POPC   C1B34819  16.779   0.642   8.649
 2441POPC   C2B34820  17.143   0.578   8.407
 2441POPC   C3B34821  17.211   0.758   8.003
 2441POPC   C4B34822  16.867   0.722   7.741
 2442POPC   NC334823   3.977  18.910   9.382
 2442POPC   PO434824   3.302  19.211   9.409
 2442POPC   GL134825   3.479  18.928   9.142
 2442POPC   GL234826   3.198  18.889   8.939
 2442POPC   C1A34827   3.684  18.799   8.757
 2442POPC   D2A34828   3.754  18.801   8.315
 2442POPC   C3A34829   3.806  19.191   8.119
 2442POPC   C4A34830   3.583  19.259   7.718
 2442POPC   C1B34831   3.380  19.231   8.700
 2442POPC   C2B34832   3.377  19.423   8.311
 2442POPC   C3B34833   3.321  19.045   8.078
 2442POPC   C4B34834   3.116  18.855   7.759
 2443POPC   NC334835  22.347  12.051   9.726
 2443POPC   PO434836  21.803  12.473   9.466
 2443POPC   GL134837  22.183  12.214   9.234
 2443POPC   GL234838  22.103  11.821   9.098
 2443POPC   C1A34839  22.279  12.174   8.781
 2443POPC   D2A34840  22.037  12.087   8.401
 2443POPC   C3A34841  22.153  12.312   8.022
 2443POPC   C4A34842  22.108  12.166   7.633
 2443POPC   C1B34843  22.043  11.626   8.695
 2443POPC   C2B34844  22.292  11.634   8.354
 2443POPC   C3B34845  22.206  11.782   7.964
 2443POPC   C4B34846  22.478  11.722   7.660
 2444POPC   NC334847  28.116   1.182   9.599
 2444POPC   PO434848  28.800   1.305   9.502
 2444POPC   GL134849  28.427   1.327   9.224
 2444POPC   GL234850  28.338   0.987   9.189
 2444POPC   C1A34851  28.135   1.350   8.851
 2444POPC   D2A34852  28.261   1.289   8.430
 2444POPC   C3A34853  28.488   1.488   8.124
 2444POPC   C4A34854  28.221   1.513   7.744
 2444POPC   C1B34855  28.307   0.876   8.767
 2444POPC   C2B34856  28.430   0.832   8.330
 2444POPC   C3B34857  28.240   1.028   7.963
 2444POPC   C4B34858  27.992   1.069   7.573
 2445POPC   NC334859  10.974   1.891   9.424
 2445POPC   PO434860  11.606   2.108   9.335
 2445POPC   GL134861  11.291   2.010   9.009
 2445POPC   GL234862  11.027   2.248   9.074
 2445POPC   C1A34863  11.341   1.969   8.548
 2445POPC   D2A34864  11.213   1.683   8.210
 2445POPC   C3A34865  11.363   1.744   7.794
 2445POPC   C4A34866  11.464   1.820   7.382
 2445POPC   C1B34867  10.863   2.163   8.653
 2445POPC   C2B34868  11.012   2.252   8.270
 2445POPC   C3B34869  11.249   2.246   7.892
 2445POPC   C4B34870  11.290   2.437   7.475
 2446POPC   NC334871  16.501  23.989   9.449
 2446POPC   PO434872  16.928  23.533   9.362
 2446POPC   GL134873  16.681  23.722   9.041
 2446POPC   GL234874  16.846  24.051   9.058
 2446POPC   C1A34875  16.648  23.721   8.592
 2446POPC   D2A34876  16.870  23.561   8.270
 2446POPC   C3A34877  16.779  23.574   7.859
 2446POPC   C4A34878  17.032  23.619   7.481
 2446POPC   C1B34879  16.516  24.170   8.789
 2446POPC   C2B34880  16.447  24.117   8.352
 2446POPC   C3B34881  16.750  24.054   8.036
 2446POPC   C4B34882  16.739  24.008   7.577
 2447POPC   NC334883  42.634  15.901   9.815
 2447POPC   PO434884  42.919  16.230   9.245
 2447POPC   GL134885  43.184  16.300   8.952
 2447POPC   GL234886  43.505  16.260   9.090
 2447POPC   C1A34887  43.059  16.201   8.551
 2447POPC   D2A34888  42.963  15.917   8.244
 2447POPC   C3A34889  43.166  16.032   7.899
 2447POPC   C4A34890  43.203  16.217   7.522
 2447POPC   C1B34891  43.492  15.968   8.728
 2447POPC   C2B34892  43.474  15.898   8.287
 2447POPC   C3B34893  43.655  15.851   7.867
 2447POPC   C4B34894  43.663  15.987   7.420
 2448POPC   NC334895  43.532   4.296   9.376
 2448POPC   PO434896  44.204   4.422   9.607
 2448POPC   GL134897  44.028   4.279   9.248
 2448POPC   GL234898  43.883   4.566   9.137
 2448POPC   C1A34899  43.955   4.109   8.851
 2448POPC   D2A34900  43.761   4.075   8.463
 2448POPC   C3A34901  44.061   4.234   8.173
 2448POPC   C4A34902  44.091   4.191   7.745
 2448POPC   C1B34903  43.644   4.521   8.766
 2448POPC   C2B34904  43.668   4.566   8.339
 2448POPC   C3B34905  43.594   4.304   7.963
 2448POPC   C4B34906  43.417   4.309   7.543
 2449POPC   NC334907  10.936  41.513   9.512
 2449POPC   PO434908  11.574  41.312   9.526
 2449POPC   GL134909  11.436  41.618   9.217
 2449POPC   GL234910  11.683  41.873   9.081
 2449POPC   C1A34911  11.275  41.688   8.806
 2449POPC   D2A34912  11.422  41.540   8.406
 2449POPC   C3A34913  11.282  41.570   7.989
 2449POPC   C4A34914  11.032  41.203   7.818
 2449POPC   C1B34915  11.747  41.887   8.615
 2449POPC   C2B34916  11.738  41.857   8.142
 2449POPC   C3B34917  11.612  41.882   7.709
 2449POPC   C4B34918  11.502  41.966   7.226
 2450POPC   NC334919  34.913  37.884   9.443
 2450POPC   PO434920  34.596  37.261   9.448
 2450POPC   GL134921  34.788  37.490   9.130
 2450POPC   GL234922  34.579  37.800   9.068
 2450POPC   C1A34923  34.812  37.516   8.699
 2450POPC   D2A34924  34.533  37.695   8.392
 2450POPC   C3A34925  34.677  37.553   7.961
 2450POPC   C4A34926  34.808  37.673   7.529
 2450POPC   C1B34927  34.269  37.981   8.781
 2450POPC   C2B34928  34.073  37.949   8.385
 2450POPC   C3B34929  34.302  37.952   8.001
 2450POPC   C4B34930  34.331  37.808   7.581
 2451POPC   NC334931  24.841  26.477   9.506
 2451POPC   PO434932  24.428  25.872   9.480
 2451POPC   GL134933  24.506  26.168   9.184
 2451POPC   GL234934  24.806  25.963   9.146
 2451POPC   C1A34935  24.390  26.270   8.749
 2451POPC   D2A34936  24.408  26.037   8.341
 2451POPC   C3A34937  24.256  26.122   7.936
 2451POPC   C4A34938  24.104  25.937   7.551
 2451POPC   C1B34939  24.879  26.312   8.869
 2451POPC   C2B34940  24.833  26.361   8.445
 2451POPC   C3B34941  24.939  26.292   8.011
 2451POPC   C4B34942  24.699  26.179   7.646
 2452POPC   NC334943  11.591   0.227   9.475
 2452POPC   PO434944  10.940   0.563   9.606
 2452POPC   GL134945  11.068   0.640   9.208
 2452POPC   GL234946  10.836   0.927   9.192
 2452POPC   C1A34947  11.171   0.329   8.877
 2452POPC   D2A34948  11.319   0.315   8.445
 2452POPC   C3A34949  11.069   0.272   8.093
 2452POPC   C4A34950  11.069   0.154   7.703
 2452POPC   C1B34951  10.905   1.065   8.752
 2452POPC   C2B34952  11.032   0.801   8.371
 2452POPC   C3B34953  11.121   0.756   7.932
 2452POPC   C4B34954  11.089   0.642   7.477
 2453POPC   NC334955   8.634   4.431   9.424
 2453POPC   PO434956   9.308   4.361   9.565
 2453POPC   GL134957   9.225   4.271   9.106
 2453POPC   GL234958   8.891   4.100   9.072
 2453POPC   C1A34959   9.080   4.381   8.669
 2453POPC   D2A34960   9.247   4.479   8.252
 2453POPC   C3A34961   9.055   4.410   7.860
 2453POPC   C4A34962   9.151   4.111   7.533
 2453POPC   C1B34963   8.822   3.937   8.648
 2453POPC   C2B34964   8.887   4.022   8.184
 2453POPC   C3B34965   8.692   4.077   7.758
 2453POPC   C4B34966   8.631   4.034   7.284
 2454POPC   NC334967  27.755   4.414   9.690
 2454POPC   PO434968  27.252   4.080   9.522
 2454POPC   GL134969  27.491   4.358   9.243
 2454POPC   GL234970  27.700   4.107   9.102
 2454POPC   C1A34971  27.515   4.464   8.796
 2454POPC   D2A34972  27.681   4.268   8.430
 2454POPC   C3A34973  27.512   4.338   8.033
 2454POPC   C4A34974  27.423   4.731   7.807
 2454POPC   C1B34975  28.041   4.152   8.780
 2454POPC   C2B34976  28.050   3.936   8.372
 2454POPC   C3B34977  28.051   4.107   7.944
 2454POPC   C4B34978  27.800   4.355   7.623
 2455POPC   NC334979   9.609  11.618   9.613
 2455POPC   PO434980  10.250  11.460   9.482
 2455POPC   GL134981   9.969  11.559   9.151
 2455POPC   GL234982   9.595  11.534   9.125
 2455POPC   C1A34983   9.925  11.291   8.771
 2455POPC   D2A34984   9.700  11.166   8.386
 2455POPC   C3A34985   9.861  11.081   7.968
 2455POPC   C4A34986   9.812  10.815   7.604
 2455POPC   C1B34987   9.672  11.733   8.759
 2455POPC   C2B34988   9.456  11.605   8.397
 2455POPC   C3B34989   9.622  11.555   8.012
 2455POPC   C4B34990   9.557  11.550   7.553
 2456POPC   NC334991  12.660  32.310   9.639
 2456POPC   PO434992  12.332  32.822   9.383
 2456POPC   GL134993  12.584  32.499   9.163
 2456POPC   GL234994  12.911  32.311   9.183
 2456POPC   C1A34995  12.586  32.344   8.758
 2456POPC   D2A34996  12.696  32.174   8.359
 2456POPC   C3A34997  12.557  32.355   8.007
 2456POPC   C4A34998  12.682  32.607   7.665
 2456POPC   C1B34999  13.065  32.083   8.793
 2456POPC   C2B35000  13.024  31.803   8.425
 2456POPC   C3B35001  12.988  31.909   7.977
 2456POPC   C4B35002  13.230  31.913   7.552
 2457POPC   NC335003  43.562  19.970   9.352
 2457POPC   PO435004  44.042  19.517   9.446
 2457POPC   GL135005  43.958  19.759   9.135
 2457POPC   GL235006  43.678  19.577   9.072
 2457POPC   C1A35007  43.809  19.912   8.727
 2457POPC   D2A35008  43.730  19.741   8.360
 2457POPC   C3A35009  43.928  19.886   8.016
 2457POPC   C4A35010  43.700  19.851   7.672
 2457POPC   C1B35011  43.972  19.430   8.736
 2457POPC   C2B35012  44.056  19.354   8.287
 2457POPC   C3B35013  43.800  19.383   7.909
 2457POPC   C4B35014  44.007  19.446   7.500
 2458POPC   NC335015  14.839  17.086   9.350
 2458POPC   PO435016  14.976  16.480   9.385
 2458POPC   GL135017  15.221  16.669   9.069
 2458POPC   GL235018  15.507  16.896   9.146
 2458POPC   C1A35019  15.317  16.497   8.679
 2458POPC   D2A35020  15.086  16.306   8.330
 2458POPC   C3A35021  15.196  16.457   7.922
 2458POPC   C4A35022  15.113  16.826   7.689
 2458POPC   C1B35023  15.456  17.024   8.710
 2458POPC   C2B35024  15.408  16.821   8.297
 2458POPC   C3B35025  15.574  16.837   7.900
 2458POPC   C4B35026  15.549  17.052   7.498
 2459POPC   NC335027  26.682  44.425   9.458
 2459POPC   PO435028  26.844   0.100   9.503
 2459POPC   GL135029  26.739  44.838   9.153
 2459POPC   GL235030  27.052  44.586   9.118
 2459POPC   C1A35031  26.695  44.701   8.722
 2459POPC   D2A35032  26.999  44.810   8.397
 2459POPC   C3A35033  26.867  44.823   7.977
 2459POPC   C4A35034  26.421  44.803   7.872
 2459POPC   C1B35035  27.116  44.377   8.691
 2459POPC   C2B35036  26.780  44.327   8.365
 2459POPC   C3B35037  26.661  44.353   7.952
 2459POPC   C4B35038  26.989  44.376   7.695
 2460POPC   NC335039  10.969  32.164   9.421
 2460POPC   PO435040  11.427  32.526   9.689
 2460POPC   GL135041  11.375  32.436   9.235
 2460POPC   GL235042  11.067  32.628   9.242
 2460POPC   C1A35043  11.402  32.141   8.850
 2460POPC   D2A35044  11.663  31.974   8.490
 2460POPC   C3A35045  11.483  32.087   8.074
 2460POPC   C4A35046  11.466  32.399   7.719
 2460POPC   C1B35047  10.971  32.425   8.815
 2460POPC   C2B35048  11.109  32.291   8.370
 2460POPC   C3B35049  11.008  32.269   7.888
 2460POPC   C4B35050  10.711  32.429   7.516
 2461POPC   NC335051  39.586  41.161   9.519
 2461POPC   PO435052  40.113  41.581   9.543
 2461POPC   GL135053  40.328  41.496   9.155
 2461POPC   GL235054  40.262  41.143   9.180
 2461POPC   C1A35055  40.338  41.626   8.742
 2461POPC   D2A35056  40.040  41.642   8.429
 2461POPC   C3A35057  40.080  41.365   8.095
 2461POPC   C4A35058  40.145  41.563   7.728
 2461POPC   C1B35059  39.978  41.258   8.818
 2461POPC   C2B35060  39.689  41.263   8.459
 2461POPC   C3B35061  39.636  41.129   8.030
 2461POPC   C4B35062  39.848  41.155   7.631
 2462POPC   NC335063   2.171  34.736   9.569
 2462POPC   PO435064   1.697  34.348   9.428
 2462POPC   GL135065   1.857  34.598   9.110
 2462POPC   GL235066   1.906  34.953   9.170
 2462POPC   C1A35067   2.030  34.617   8.716
 2462POPC   D2A35068   2.133  34.339   8.380
 2462POPC   C3A35069   2.116  34.652   8.064
 2462POPC   C4A35070   2.277  34.623   7.688
 2462POPC   C1B35071   1.726  35.087   8.794
 2462POPC   C2B35072   1.837  34.989   8.386
 2462POPC   C3B35073   1.649  34.928   8.011
 2462POPC   C4B35074   1.815  34.856   7.632
 2463POPC   NC335075  27.147  11.127   9.539
 2463POPC   PO435076  26.578  11.479   9.396
 2463POPC   GL135077  26.825  11.266   9.099
 2463POPC   GL235078  27.179  11.389   9.105
 2463POPC   C1A35079  26.650  11.206   8.681
 2463POPC   D2A35080  26.798  11.015   8.326
 2463POPC   C3A35081  26.519  11.070   7.985
 2463POPC   C4A35082  26.548  11.279   7.601
 2463POPC   C1B35083  27.036  11.535   8.706
 2463POPC   C2B35084  26.861  11.544   8.315
 2463POPC   C3B35085  26.937  11.351   7.938
 2463POPC   C4B35086  27.051  11.484   7.516
 2464POPC   NC335087  38.285  34.859   9.421
 2464POPC   PO435088  38.577  34.169   9.470
 2464POPC   GL135089  38.546  34.482   9.179
 2464POPC   GL235090  38.204  34.436   9.069
 2464POPC   C1A35091  38.733  34.528   8.779
 2464POPC   D2A35092  38.640  34.236   8.458
 2464POPC   C3A35093  38.498  34.360   8.077
 2464POPC   C4A35094  38.678  34.324   7.714
 2464POPC   C1B35095  38.274  34.757   8.773
 2464POPC   C2B35096  38.435  34.754   8.384
 2464POPC   C3B35097  38.300  34.827   7.973
 2464POPC   C4B35098  38.482  34.926   7.587
 2465POPC   NC335099  38.802  10.381   9.324
 2465POPC   PO435100  39.314  10.801   9.527
 2465POPC   GL135101  39.179  10.657   9.116
 2465POPC   GL235102  39.333  10.328   9.192
 2465POPC   C1A35103  39.041  10.407   8.735
 2465POPC   D2A35104  39.117  10.130   8.374
 2465POPC   C3A35105  39.116  10.428   8.028
 2465POPC   C4A35106  39.054  10.823   7.843
 2465POPC   C1B35107  39.532  10.382   8.794
 2465POPC   C2B35108  39.471  10.511   8.388
 2465POPC   C3B35109  39.648  10.594   7.994
 2465POPC   C4B35110  39.479  10.502   7.636
 2466POPC   NC335111  17.111  12.675   9.383
 2466POPC   PO435112  16.420  12.900   9.473
 2466POPC   GL135113  16.672  12.784   9.122
 2466POPC   GL235114  16.955  12.994   9.016
 2466POPC   C1A35115  16.573  12.858   8.694
 2466POPC   D2A35116  16.336  12.643   8.415
 2466POPC   C3A35117  16.378  12.836   8.010
 2466POPC   C4A35118  16.540  12.892   7.569
 2466POPC   C1B35119  16.989  12.584   8.744
 2466POPC   C2B35120  16.869  12.562   8.300
 2466POPC   C3B35121  16.883  12.834   7.938
 2466POPC   C4B35122  16.929  13.271   7.727
 2467POPC   NC335123  25.144  41.955   9.513
 2467POPC   PO435124  25.519  42.544   9.534
 2467POPC   GL135125  25.336  42.374   9.167
 2467POPC   GL235126  25.261  42.038   9.034
 2467POPC   C1A35127  25.511  42.359   8.735
 2467POPC   D2A35128  25.338  42.157   8.369
 2467POPC   C3A35129  25.550  42.152   7.982
 2467POPC   C4A35130  25.400  42.374   7.634
 2467POPC   C1B35131  24.988  42.275   8.772
 2467POPC   C2B35132  24.824  42.307   8.354
 2467POPC   C3B35133  24.982  42.216   7.944
 2467POPC   C4B35134  25.176  41.923   7.663
 2468POPC   NC335135  43.187  20.254   9.658
 2468POPC   PO435136  43.323  19.589   9.505
 2468POPC   GL135137  43.067  19.688   9.184
 2468POPC   GL235138  43.052  20.050   9.171
 2468POPC   C1A35139  42.950  19.513   8.772
 2468POPC   D2A35140  42.779  19.779   8.462
 2468POPC   C3A35141  42.837  19.720   8.026
 2468POPC   C4A35142  42.844  20.033   7.694
 2468POPC   C1B35143  43.271  19.909   8.777
 2468POPC   C2B35144  43.218  20.041   8.377
 2468POPC   C3B35145  43.294  19.984   7.969
 2468POPC   C4B35146  43.209  19.665   7.630
 2469POPC   NC335147   4.370  32.359   9.805
 2469POPC   PO435148   5.080  32.237   9.705
 2469POPC   GL135149   5.163  32.155   9.256
 2469POPC   GL235150   4.842  32.210   9.230
 2469POPC   C1A35151   5.110  32.018   8.816
 2469POPC   D2A35152   5.287  32.122   8.434
 2469POPC   C3A35153   5.032  32.141   8.082
 2469POPC   C4A35154   5.087  32.232   7.657
 2469POPC   C1B35155   4.914  32.467   8.876
 2469POPC   C2B35156   4.867  32.477   8.444
 2469POPC   C3B35157   4.776  32.594   8.019
 2469POPC   C4B35158   4.632  32.426   7.611
 2470POPC   NC335159   9.068  18.677   9.450
 2470POPC   PO435160   8.673  19.184   9.444
 2470POPC   GL135161   9.057  19.145   9.211
 2470POPC   GL235162   9.000  18.835   8.976
 2470POPC   C1A35163   9.089  19.310   8.824
 2470POPC   D2A35164   8.983  19.076   8.457
 2470POPC   C3A35165   9.075  19.253   8.072
 2470POPC   C4A35166   8.984  19.071   7.711
 2470POPC   C1B35167   9.383  18.901   8.728
 2470POPC   C2B35168   9.428  18.797   8.282
 2470POPC   C3B35169   9.447  18.889   7.843
 2470POPC   C4B35170   9.497  18.756   7.395
 2471POPC   NC335171  18.875  16.796   9.565
 2471POPC   PO435172  18.499  16.294   9.508
 2471POPC   GL135173  18.838  16.459   9.164
 2471POPC   GL235174  19.209  16.476   9.230
 2471POPC   C1A35175  18.948  16.679   8.724
 2471POPC   D2A35176  18.930  16.443   8.279
 2471POPC   C3A35177  18.863  16.620   7.845
 2471POPC   C4A35178  18.472  16.767   7.615
 2471POPC   C1B35179  19.394  16.458   8.813
 2471POPC   C2B35180  19.399  16.585   8.372
 2471POPC   C3B35181  19.366  16.393   7.958
 2471POPC   C4B35182  19.293  16.582   7.525
 2472POPC   NC335183  43.206  16.555   9.422
 2472POPC   PO435184  42.830  17.168   9.523
 2472POPC   GL135185  42.931  16.902   9.181
 2472POPC   GL235186  43.300  16.991   9.160
 2472POPC   C1A35187  43.069  16.744   8.757
 2472POPC   D2A35188  42.874  16.651   8.380
 2472POPC   C3A35189  43.072  16.522   8.022
 2472POPC   C4A35190  42.882  16.588   7.625
 2472POPC   C1B35191  43.399  17.147   8.747
 2472POPC   C2B35192  43.489  16.941   8.350
 2472POPC   C3B35193  43.680  16.837   7.944
 2472POPC   C4B35194  43.330  16.851   7.658
 2473POPC   NC335195  43.363  33.848   9.473
 2473POPC   PO435196  42.760  34.051   9.469
 2473POPC   GL135197  42.986  33.831   9.134
 2473POPC   GL235198  43.318  33.896   8.972
 2473POPC   C1A35199  43.002  33.635   8.715
 2473POPC   D2A35200  43.024  33.800   8.335
 2473POPC   C3A35201  42.944  33.568   7.996
 2473POPC   C4A35202  43.199  33.689   7.669
 2473POPC   C1B35203  43.137  34.147   8.710
 2473POPC   C2B35204  42.979  34.310   8.333
 2473POPC   C3B35205  42.998  34.107   7.919
 2473POPC   C4B35206  43.046  34.180   7.461
 2474POPC   NC335207   4.260   2.695   9.566
 2474POPC   PO435208   4.243   3.352   9.482
 2474POPC   GL135209   4.311   2.950   9.146
 2474POPC   GL235210   4.547   2.655   9.153
 2474POPC   C1A35211   4.526   2.937   8.718
 2474POPC   D2A35212   4.621   3.205   8.336
 2474POPC   C3A35213   4.523   3.020   7.911
 2474POPC   C4A35214   4.283   2.786   7.595
 2474POPC   C1B35215   4.373   2.451   8.807
 2474POPC   C2B35216   4.229   2.575   8.391
 2474POPC   C3B35217   4.440   2.512   7.999
 2474POPC   C4B35218   4.545   2.350   7.566
 2475POPC   NC335219  21.151  33.718   9.424
 2475POPC   PO435220  20.674  33.717   9.126
 2475POPC   GL135221  21.096  33.640   8.933
 2475POPC   GL235222  21.393  33.871   9.008
 2475POPC   C1A35223  21.345  33.630   8.555
 2475POPC   D2A35224  21.335  33.906   8.218
 2475POPC   C3A35225  21.257  33.742   7.826
 2475POPC   C4A35226  21.094  33.723   7.389
 2475POPC   C1B35227  21.628  34.044   8.654
 2475POPC   C2B35228  21.831  34.027   8.262
 2475POPC   C3B35229  21.769  33.856   7.853
 2475POPC   C4B35230  21.950  33.898   7.429
 2476POPC   NC335231  42.464   0.763   9.911
 2476POPC   PO435232  42.281   0.223   9.500
 2476POPC   GL135233  42.288   0.386   9.090
 2476POPC   GL235234  42.623   0.580   9.069
 2476POPC   C1A35235  42.298   0.404   8.650
 2476POPC   D2A35236  42.529   0.661   8.347
 2476POPC   C3A35237  42.486   0.510   7.903
 2476POPC   C4A35238  42.457   0.593   7.440
 2476POPC   C1B35239  42.792   0.333   8.701
 2476POPC   C2B35240  42.647   0.162   8.330
 2476POPC   C3B35241  42.719   0.038   7.930
 2476POPC   C4B35242  42.621   0.066   7.520
 2477POPC   NC335243  42.350  31.880   9.842
 2477POPC   PO435244  42.578  31.423   9.348
 2477POPC   GL135245  42.525  31.582   8.947
 2477POPC   GL235246  42.304  31.308   8.909
 2477POPC   C1A35247  42.460  31.699   8.534
 2477POPC   D2A35248  42.397  31.297   8.380
 2477POPC   C3A35249  42.493  31.262   7.959
 2477POPC   C4A35250  42.454  31.624   7.703
 2477POPC   C1B35251  42.035  31.697   8.823
 2477POPC   C2B35252  41.958  31.803   8.439
 2477POPC   C3B35253  42.076  31.597   8.078
 2477POPC   C4B35254  41.875  31.657   7.708
 2478POPC   NC335255  34.429  12.543   9.745
 2478POPC   PO435256  35.019  12.706   9.395
 2478POPC   GL135257  34.745  12.817   9.053
 2478POPC   GL235258  34.467  13.007   9.009
 2478POPC   C1A35259  34.625  12.725   8.604
 2478POPC   D2A35260  34.792  12.939   8.240
 2478POPC   C3A35261  34.907  12.735   7.901
 2478POPC   C4A35262  34.904  12.891   7.511
 2478POPC   C1B35263  34.151  12.963   8.698
 2478POPC   C2B35264  34.299  13.032   8.293
 2478POPC   C3B35265  34.408  12.925   7.864
 2478POPC   C4B35266  34.330  12.927   7.420
 2479POPC   NC335267   3.676  34.120   9.499
 2479POPC   PO435268   3.770  33.367   9.522
 2479POPC   GL135269   3.560  33.697   9.202
 2479POPC   GL235270   3.225  33.649   9.130
 2479POPC   C1A35271   3.515  33.821   8.723
 2479POPC   D2A35272   3.513  33.578   8.340
 2479POPC   C3A35273   3.478  33.793   7.961
 2479POPC   C4A35274   3.363  34.152   7.727
 2479POPC   C1B35275   3.171  33.455   8.732
 2479POPC   C2B35276   3.006  33.402   8.327
 2479POPC   C3B35277   3.194  33.372   7.940
 2479POPC   C4B35278   3.227  33.585   7.539
 2480POPC   NC335279  22.242  22.537   9.466
 2480POPC   PO435280  21.932  23.195   9.481
 2480POPC   GL135281  22.318  23.359   9.265
 2480POPC   GL235282  22.103  23.454   9.054
 2480POPC   C1A35283  22.499  23.269   8.835
 2480POPC   D2A35284  22.365  22.920   8.561
 2480POPC   C3A35285  22.381  22.976   8.107
 2480POPC   C4A35286  22.184  22.781   7.818
 2480POPC   C1B35287  21.968  23.174   8.758
 2480POPC   C2B35288  21.919  23.001   8.354
 2480POPC   C3B35289  21.852  23.128   7.973
 2480POPC   C4B35290  22.117  23.264   7.657
 2481POPC   NC335291   7.811  43.882   9.611
 2481POPC   PO435292   7.231  44.177   9.600
 2481POPC   GL135293   7.352  43.855   9.286
 2481POPC   GL235294   7.653  43.824   9.133
 2481POPC   C1A35295   7.273  44.014   8.834
 2481POPC   D2A35296   7.140  44.242   8.421
 2481POPC   C3A35297   7.178  44.084   7.980
 2481POPC   C4A35298   7.201  44.142   7.509
 2481POPC   C1B35299   7.711  43.792   8.684
 2481POPC   C2B35300   7.501  43.866   8.332
 2481POPC   C3B35301   7.781  43.850   8.003
 2481POPC   C4B35302   8.127  43.770   7.738
 2482POPC   NC335303  33.901  11.670   9.770
 2482POPC   PO435304  34.046  12.383   9.546
 2482POPC   GL135305  33.952  12.227   9.129
 2482POPC   GL235306  33.620  12.216   9.162
 2482POPC   C1A35307  33.894  12.352   8.691
 2482POPC   D2A35308  33.633  12.251   8.313
 2482POPC   C3A35309  33.891  12.175   7.947
 2482POPC   C4A35310  34.159  11.799   7.925
 2482POPC   C1B35311  33.611  11.936   8.782
 2482POPC   C2B35312  33.399  11.772   8.414
 2482POPC   C3B35313  33.573  11.768   8.009
 2482POPC   C4B35314  33.706  11.798   7.593
 2483POPC   NC335315   5.445   0.705   9.709
 2483POPC   PO435316   6.103   0.417   9.628
 2483POPC   GL135317   6.016   0.509   9.222
 2483POPC   GL235318   5.789   0.236   9.055
 2483POPC   C1A35319   6.091   0.584   8.818
 2483POPC   D2A35320   5.837   0.358   8.547
 2483POPC   C3A35321   5.870   0.429   8.125
 2483POPC   C4A35322   5.830   0.453   7.690
 2483POPC   C1B35323   5.569  44.955   8.719
 2483POPC   C2B35324   5.497   0.073   8.298
 2483POPC   C3B35325   5.525   0.103   7.892
 2483POPC   C4B35326   5.670  44.946   7.509
 2484POPC   NC335327  33.332  35.753   9.443
 2484POPC   PO435328  33.030  35.117   9.391
 2484POPC   GL135329  33.029  35.493   9.123
 2484POPC   GL235330  33.332  35.627   8.945
 2484POPC   C1A35331  32.840  35.616   8.756
 2484POPC   D2A35332  32.728  35.311   8.452
 2484POPC   C3A35333  32.805  35.373   8.042
 2484POPC   C4A35334  32.989  35.507   7.695
 2484POPC   C1B35335  33.210  35.243   8.697
 2484POPC   C2B35336  33.162  35.037   8.302
 2484POPC   C3B35337  33.216  35.081   7.861
 2484POPC   C4B35338  33.369  35.251   7.478
 2485POPC   NC335339   9.200  28.762   9.784
 2485POPC   PO435340   9.001  29.243   9.644
 2485POPC   GL135341   9.039  29.334   9.194
 2485POPC   GL235342   9.177  29.678   9.173
 2485POPC   C1A35343   8.971  29.127   8.780
 2485POPC   D2A35344   8.935  29.234   8.326
 2485POPC   C3A35345   9.107  29.097   7.904
 2485POPC   C4A35346   9.281  29.002   7.476
 2485POPC   C1B35347   9.061  29.625   8.726
 2485POPC   C2B35348   8.890  29.737   8.308
 2485POPC   C3B35349   8.878  29.558   7.888
 2485POPC   C4B35350   8.620  29.614   7.499
 2486POPC   NC335351  23.321  31.422   9.577
 2486POPC   PO435352  23.883  31.644   9.670
 2486POPC   GL135353  23.846  31.359   9.294
 2486POPC   GL235354  23.551  31.511   9.141
 2486POPC   C1A35355  23.767  31.140   8.873
 2486POPC   D2A35356  23.632  31.288   8.471
 2486POPC   C3A35357  23.795  31.194   8.084
 2486POPC   C4A35358  23.784  31.513   7.756
 2486POPC   C1B35359  23.333  31.699   8.820
 2486POPC   C2B35360  23.498  31.787   8.420
 2486POPC   C3B35361  23.611  31.901   8.031
 2486POPC   C4B35362  23.380  31.881   7.665
 2487POPC   NC335363  38.478   6.303   9.445
 2487POPC   PO435364  38.569   6.991   9.438
 2487POPC   GL135365  38.589   6.675   9.126
 2487POPC   GL235366  38.197   6.621   9.151
 2487POPC   C1A35367  38.778   6.619   8.720
 2487POPC   D2A35368  38.635   6.922   8.414
 2487POPC   C3A35369  38.640   6.781   8.015
 2487POPC   C4A35370  38.859   6.399   7.865
 2487POPC   C1B35371  38.277   6.595   8.709
 2487POPC   C2B35372  38.423   6.394   8.319
 2487POPC   C3B35373  38.364   6.379   7.879
 2487POPC   C4B35374  38.213   6.787   7.722
 2488POPC   NC335375  40.114   4.229   9.400
 2488POPC   PO435376  39.870   4.838   9.564
 2488POPC   GL135377  39.957   4.775   9.102
 2488POPC   GL235378  40.313   4.696   8.990
 2488POPC   C1A35379  39.923   4.546   8.700
 2488POPC   D2A35380  40.109   4.648   8.308
 2488POPC   C3A35381  40.071   4.403   7.948
 2488POPC   C4A35382  39.728   4.332   7.673
 2488POPC   C1B35383  40.429   4.423   8.655
 2488POPC   C2B35384  40.499   4.250   8.253
 2488POPC   C3B35385  40.479   4.048   7.848
 2488POPC   C4B35386  40.276   4.162   7.484
 2489POPC   NC335387  13.437  43.893   9.456
 2489POPC   PO435388  14.076  44.221   9.622
 2489POPC   GL135389  13.850  44.168   9.222
 2489POPC   GL235390  13.800  43.827   9.096
 2489POPC   C1A35391  13.590  44.198   8.836
 2489POPC   D2A35392  13.503  43.891   8.516
 2489POPC   C3A35393  13.561  44.039   8.106
 2489POPC   C4A35394  13.723  43.984   7.710
 2489POPC   C1B35395  13.777  43.536   8.778
 2489POPC   C2B35396  13.771  43.379   8.390
 2489POPC   C3B35397  13.717  43.560   8.001
 2489POPC   C4B35398  13.687  43.479   7.580
 2490POPC   NC335399  36.721  32.850   9.442
 2490POPC   PO435400  37.146  33.268   9.673
 2490POPC   GL135401  36.987  33.215   9.144
 2490POPC   GL235402  36.907  32.902   8.975
 2490POPC   C1A35403  37.155  33.231   8.676
 2490POPC   D2A35404  37.119  33.001   8.236
 2490POPC   C3A35405  37.067  33.145   7.781
 2490POPC   C4A35406  36.855  33.332   7.407
 2490POPC   C1B35407  37.019  32.685   8.636
 2490POPC   C2B35408  36.803  32.566   8.293
 2490POPC   C3B35409  36.768  32.737   7.903
 2490POPC   C4B35410  37.062  32.686   7.566
 2491POPC   NC335411   7.176  22.008   9.614
 2491POPC   PO435412   7.661  22.390   9.523
 2491POPC   GL135413   7.492  22.098   9.189
 2491POPC   GL235414   7.117  22.008   9.107
 2491POPC   C1A35415   7.526  21.965   8.745
 2491POPC   D2A35416   7.637  22.183   8.326
 2491POPC   C3A35417   7.634  21.944   7.930
 2491POPC   C4A35418   7.514  22.085   7.508
 2491POPC   C1B35419   7.074  21.734   8.721
 2491POPC   C2B35420   7.234  21.810   8.275
 2491POPC   C3B35421   7.127  22.015   7.866
 2491POPC   C4B35422   7.106  21.802   7.456
 2492POPC   NC335423  19.400  10.652   9.469
 2492POPC   PO435424  18.728  10.709   9.563
 2492POPC   GL135425  18.877  10.455   9.216
 2492POPC   GL235426  19.168  10.548   9.055
 2492POPC   C1A35427  18.758  10.520   8.775
 2492POPC   D2A35428  18.652  10.324   8.400
 2492POPC   C3A35429  18.786  10.508   8.039
 2492POPC   C4A35430  18.897  10.392   7.635
 2492POPC   C1B35431  19.363  10.384   8.727
 2492POPC   C2B35432  19.176  10.301   8.352
 2492POPC   C3B35433  19.294  10.425   7.996
 2492POPC   C4B35434  19.193  10.760   7.760
 2493POPC   NC335435  17.704   1.755   9.413
 2493POPC   PO435436  17.093   1.889   9.541
 2493POPC   GL135437  17.032   2.132   9.136
 2493POPC   GL235438  17.393   2.232   9.085
 2493POPC   C1A35439  17.209   2.032   8.679
 2493POPC   D2A35440  17.366   1.814   8.301
 2493POPC   C3A35441  17.456   2.023   7.913
 2493POPC   C4A35442  17.326   1.734   7.617
 2493POPC   C1B35443  17.703   2.217   8.782
 2493POPC   C2B35444  17.722   2.186   8.361
 2493POPC   C3B35445  17.931   2.170   7.980
 2493POPC   C4B35446  17.854   2.062   7.553
 2494POPC   NC335447  19.358  17.387   9.379
 2494POPC   PO435448  18.786  17.245   9.618
 2494POPC   GL135449  18.904  17.170   9.173
 2494POPC   GL235450  19.194  16.967   9.122
 2494POPC   C1A35451  18.993  17.267   8.723
 2494POPC   D2A35452  19.131  17.149   8.284
 2494POPC   C3A35453  19.125  17.467   7.937
 2494POPC   C4A35454  18.994  17.829   7.674
 2494POPC   C1B35455  19.394  16.970   8.714
 2494POPC   C2B35456  19.641  17.102   8.339
 2494POPC   C3B35457  19.618  17.295   7.955
 2494POPC   C4B35458  19.360  17.150   7.615
 2495POPC   NC335459   7.083  34.234   9.368
 2495POPC   PO435460   6.389  34.283   9.519
 2495POPC   GL135461   6.589  34.462   9.146
 2495POPC   GL235462   6.724  34.158   9.007
 2495POPC   C1A35463   6.553  34.814   8.832
 2495POPC   D2A35464   6.398  34.909   8.416
 2495POPC   C3A35465   6.603  34.945   8.023
 2495POPC   C4A35466   6.541  34.880   7.568
 2495POPC   C1B35467   6.710  34.382   8.619
 2495POPC   C2B35468   6.829  34.539   8.251
 2495POPC   C3B35469   6.694  34.470   7.839
 2495POPC   C4B35470   6.772  34.301   7.449
 2496POPC   NC335471  26.832  29.373   9.611
 2496POPC   PO435472  26.756  30.057   9.440
 2496POPC   GL135473  26.752  29.969   9.075
 2496POPC   GL235474  26.742  29.620   9.134
 2496POPC   C1A35475  26.770  30.127   8.688
 2496POPC   D2A35476  27.048  30.083   8.332
 2496POPC   C3A35477  26.847  30.096   7.939
 2496POPC   C4A35478  26.859  29.692   7.758
 2496POPC   C1B35479  26.609  29.623   8.729
 2496POPC   C2B35480  26.358  29.576   8.406
 2496POPC   C3B35481  26.416  29.667   7.990
 2496POPC   C4B35482  26.223  29.661   7.616
 2497POPC   NC335483  11.236  39.064   9.515
 2497POPC   PO435484  11.488  39.660   9.743
 2497POPC   GL135485  11.340  39.532   9.276
 2497POPC   GL235486  11.581  39.290   9.195
 2497POPC   C1A35487  11.172  39.372   8.865
 2497POPC   D2A35488  11.254  38.987   8.581
 2497POPC   C3A35489  11.263  39.034   8.101
 2497POPC   C4A35490  11.144  39.008   7.636
 2497POPC   C1B35491  11.661  39.425   8.763
 2497POPC   C2B35492  11.461  39.423   8.404
 2497POPC   C3B35493  11.634  39.412   8.044
 2497POPC   C4B35494  11.358  39.441   7.767
 2498POPC   NC335495   7.965  41.306   9.567
 2498POPC   PO435496   8.260  41.871   9.376
 2498POPC   GL135497   8.209  41.598   9.064
 2498POPC   GL235498   8.397  41.305   9.176
 2498POPC   C1A35499   8.164  41.702   8.624
 2498POPC   D2A35500   7.882  41.704   8.275
 2498POPC   C3A35501   8.040  41.651   7.859
 2498POPC   C4A35502   7.979  41.946   7.533
 2498POPC   C1B35503   8.503  41.328   8.714
 2498POPC   C2B35504   8.386  41.434   8.264
 2498POPC   C3B35505   8.377  41.157   7.944
 2498POPC   C4B35506   8.330  41.225   7.505
 2499POPC   NC335507  38.743  38.965   9.333
 2499POPC   PO435508  39.202  39.341   9.684
 2499POPC   GL135509  39.275  39.342   9.255
 2499POPC   GL235510  39.527  39.077   9.299
 2499POPC   C1A35511  39.129  39.479   8.852
 2499POPC   D2A35512  39.173  39.297   8.468
 2499POPC   C3A35513  38.985  39.342   8.087
 2499POPC   C4A35514  39.028  39.034   7.774
 2499POPC   C1B35515  39.570  39.148   8.867
 2499POPC   C2B35516  39.612  39.024   8.461
 2499POPC   C3B35517  39.531  39.197   8.081
 2499POPC   C4B35518  39.405  39.401   7.753
 2500POPC   NC335519  33.308  13.597   9.836
 2500POPC   PO435520  32.720  13.317   9.459
 2500POPC   GL135521  32.854  13.604   9.112
 2500POPC   GL235522  33.007  13.933   9.236
 2500POPC   C1A35523  33.017  13.495   8.695
 2500POPC   D2A35524  32.862  13.326   8.344
 2500POPC   C3A35525  32.968  13.512   8.016
 2500POPC   C4A35526  33.288  13.544   7.745
 2500POPC   C1B35527  32.902  13.997   8.791
 2500POPC   C2B35528  32.870  13.868   8.353
 2500POPC   C3B35529  33.140  13.988   8.006
 2500POPC   C4B35530  32.926  14.159   7.703
 2501POPC   NC335531  16.887  29.028   9.546
 2501POPC   PO435532  16.509  29.520   9.734
 2501POPC   GL135533  16.632  29.415   9.312
 2501POPC   GL235534  16.984  29.440   9.235
 2501POPC   C1A35535  16.470  29.186   8.935
 2501POPC   D2A35536  16.490  29.345   8.513
 2501POPC   C3A35537  16.403  29.109   8.141
 2501POPC   C4A35538  16.662  28.984   7.771
 2501POPC   C1B35539  16.960  29.291   8.815
 2501POPC   C2B35540  16.917  29.041   8.445
 2501POPC   C3B35541  16.870  29.317   8.105
 2501POPC   C4B35542  16.997  29.383   7.701
 2502POPC   NC335543  11.040  44.360   9.497
 2502POPC   PO435544  11.276  44.920   9.610
 2502POPC   GL135545  11.431  44.738   9.223
 2502POPC   GL235546  11.631  44.420   9.269
 2502POPC   C1A35547  11.290  44.825   8.795
 2502POPC   D2A35548  11.037  44.873   8.421
 2502POPC   C3A35549  11.183  44.734   7.998
 2502POPC   C4A35550  11.255  44.371   7.733
 2502POPC   C1B35551  11.685  44.504   8.815
 2502POPC   C2B35552  11.487  44.548   8.392
 2502POPC   C3B35553  11.667  44.499   8.008
 2502POPC   C4B35554  11.780  44.366   7.626
 2503POPC   NC335555   7.327   3.720   9.546
 2503POPC   PO435556   7.254   3.163   9.517
 2503POPC   GL135557   7.390   3.462   9.091
 2503POPC   GL235558   7.303   3.818   9.070
 2503POPC   C1A35559   7.368   3.632   8.619
 2503POPC   D2A35560   7.033   3.610   8.282
 2503POPC   C3A35561   7.261   3.696   7.888
 2503POPC   C4A35562   7.548   3.442   7.666
 2503POPC   C1B35563   7.757   3.834   8.905
 2503POPC   C2B35564   7.841   3.906   8.458
 2503POPC   C3B35565   7.798   3.717   8.050
 2503POPC   C4B35566   7.740   3.923   7.651
 2504POPC   NC335567   9.718  34.024   9.567
 2504POPC   PO435568   9.920  33.301   9.538
 2504POPC   GL135569   9.901  33.647   9.241
 2504POPC   GL235570   9.536  33.705   9.174
 2504POPC   C1A35571   9.896  33.838   8.836
 2504POPC   D2A35572   9.748  33.895   8.427
 2504POPC   C3A35573  10.032  33.816   8.109
 2504POPC   C4A35574   9.975  33.621   7.733
 2504POPC   C1B35575   9.342  33.867   8.770
 2504POPC   C2B35576   9.247  33.826   8.324
 2504POPC   C3B35577   9.529  33.699   7.971
 2504POPC   C4B35578   9.468  33.677   7.489
 2505POPC   NC335579  31.234  16.265   9.464
 2505POPC   PO435580  31.413  15.577   9.364
 2505POPC   GL135581  31.394  15.936   9.083
 2505POPC   GL235582  31.584  16.268   9.088
 2505POPC   C1A35583  31.536  15.905   8.667
 2505POPC   D2A35584  31.433  15.666   8.312
 2505POPC   C3A35585  31.690  15.570   7.968
 2505POPC   C4A35586  31.457  15.686   7.617
 2505POPC   C1B35587  31.252  16.327   8.763
 2505POPC   C2B35588  31.222  16.139   8.338
 2505POPC   C3B35589  31.531  16.063   7.971
 2505POPC   C4B35590  31.354  16.236   7.558
 2506POPC   NC335591  12.029  16.024   9.593
 2506POPC   PO435592  11.850  15.353   9.720
 2506POPC   GL135593  12.112  15.614   9.301
 2506POPC   GL235594  12.213  15.988   9.138
 2506POPC   C1A35595  12.180  15.612   8.804
 2506POPC   D2A35596  12.381  15.640   8.371
 2506POPC   C3A35597  12.224  15.894   8.003
 2506POPC   C4A35598  12.076  15.726   7.581
 2506POPC   C1B35599  12.043  16.115   8.752
 2506POPC   C2B35600  11.849  15.870   8.423
 2506POPC   C3B35601  11.745  15.725   8.003
 2506POPC   C4B35602  11.829  16.129   7.794
 2507POPC   NC335603  35.726  29.159   9.716
 2507POPC   PO435604  36.235  28.756   9.404
 2507POPC   GL135605  36.075  29.040   9.091
 2507POPC   GL235606  36.114  29.336   9.181
 2507POPC   C1A35607  36.110  29.097   8.655
 2507POPC   D2A35608  36.009  28.900   8.268
 2507POPC   C3A35609  36.353  28.910   7.953
 2507POPC   C4A35610  36.270  28.909   7.498
 2507POPC   C1B35611  36.033  29.590   8.758
 2507POPC   C2B35612  36.302  29.609   8.383
 2507POPC   C3B35613  36.284  29.451   7.945
 2507POPC   C4B35614  36.102  29.371   7.512
 2508POPC   NC335615   6.038  12.443   9.463
 2508POPC   PO435616   5.764  13.111   9.427
 2508POPC   GL135617   5.692  12.950   9.011
 2508POPC   GL235618   5.756  12.642   9.048
 2508POPC   C1A35619   5.920  13.001   8.651
 2508POPC   D2A35620   6.200  12.827   8.380
 2508POPC   C3A35621   6.035  12.811   7.992
 2508POPC   C4A35622   5.988  13.162   7.713
 2508POPC   C1B35623   5.726  12.512   8.629
 2508POPC   C2B35624   5.543  12.517   8.208
 2508POPC   C3B35625   5.747  12.397   7.805
 2508POPC   C4B35626   5.947  12.690   7.496
 2509POPC   NC335627  17.252  44.524   9.420
 2509POPC   PO435628  17.914  44.793   9.548
 2509POPC   GL135629  17.750  44.786   9.131
 2509POPC   GL235630  17.518  44.538   8.998
 2509POPC   C1A35631  17.823  44.732   8.671
 2509POPC   D2A35632  17.549  44.530   8.370
 2509POPC   C3A35633  17.613  44.670   7.953
 2509POPC   C4A35634  17.700   0.053   7.771
 2509POPC   C1B35635  17.208  44.698   8.704
 2509POPC   C2B35636  17.041  44.865   8.331
 2509POPC   C3B35637  17.128  44.866   7.922
 2509POPC   C4B35638  16.850  44.986   7.602
 2510POPC   NC335639  18.766  14.458   9.471
 2510POPC   PO435640  18.054  14.427   9.413
 2510POPC   GL135641  18.103  14.245   9.004
 2510POPC   GL235642  18.452  14.124   8.954
 2510POPC   C1A35643  18.204  14.362   8.577
 2510POPC   D2A35644  18.586  14.348   8.367
 2510POPC   C3A35645  18.581  14.570   7.988
 2510POPC   C4A35646  18.166  14.525   7.815
 2510POPC   C1B35647  18.577  13.886   8.591
 2510POPC   C2B35648  18.665  13.885   8.124
 2510POPC   C3B35649  18.475  14.116   7.740
 2510POPC   C4B35650  18.596  14.206   7.289
 2511POPC   NC335651  41.931   9.834   9.456
 2511POPC   PO435652  42.476   9.715   9.550
 2511POPC   GL135653  42.345   9.830   9.145
 2511POPC   GL235654  42.139   9.584   9.025
 2511POPC   C1A35655  42.466   9.843   8.705
 2511POPC   D2A35656  42.561   9.553   8.356
 2511POPC   C3A35657  42.522   9.768   7.958
 2511POPC   C4A35658  42.392   9.712   7.545
 2511POPC   C1B35659  42.093   9.495   8.606
 2511POPC   C2B35660  42.118   9.799   8.284
 2511POPC   C3B35661  41.978   9.808   7.857
 2511POPC   C4B35662  41.561   9.650   7.706
 2512POPC   NC335663  42.208   2.315   9.571
 2512POPC   PO435664  42.759   2.675   9.457
 2512POPC   GL135665  42.451   2.837   9.173
 2512POPC   GL235666  42.145   2.767   9.302
 2512POPC   C1A35667  42.322   2.959   8.766
 2512POPC   D2A35668  42.471   2.839   8.384
 2512POPC   C3A35669  42.231   2.807   8.034
 2512POPC   C4A35670  42.338   2.497   7.731
 2512POPC   C1B35671  42.037   2.528   8.927
 2512POPC   C2B35672  41.987   2.592   8.479
 2512POPC   C3B35673  41.933   2.394   8.069
 2512POPC   C4B35674  41.864   2.672   7.673
 2513POPC   NC335675  14.126  37.811   9.528
 2513POPC   PO435676  14.742  37.654   9.738
 2513POPC   GL135677  14.546  37.819   9.263
 2513POPC   GL235678  14.294  37.617   9.071
 2513POPC   C1A35679  14.630  37.855   8.788
 2513POPC   D2A35680  14.302  37.902   8.476
 2513POPC   C3A35681  14.450  38.119   8.115
 2513POPC   C4A35682  14.393  37.977   7.702
 2513POPC   C1B35683  14.538  37.365   8.730
 2513POPC   C2B35684  14.350  37.292   8.341
 2513POPC   C3B35685  14.304  37.562   8.012
 2513POPC   C4B35686  14.450  37.312   7.704
 2514POPC   NC335687  44.965   4.594   9.962
 2514POPC   PO435688  44.836   4.407   9.342
 2514POPC   GL135689  44.689   4.461   8.993
 2514POPC   GL235690  44.393   4.619   9.079
 2514POPC   C1A35691  44.908   4.499   8.620
 2514POPC   D2A35692  44.690   4.645   8.291
 2514POPC   C3A35693  44.589   4.271   8.127
 2514POPC   C4A35694  44.602   4.155   7.735
 2514POPC   C1B35695  44.208   4.547   8.675
 2514POPC   C2B35696  44.173   4.720   8.260
 2514POPC   C3B35697  44.346   4.620   7.843
 2514POPC   C4B35698  44.369   4.467   7.406
 2515POPC   NC335699   0.855  17.382   9.554
 2515POPC   PO435700   1.588  17.229   9.591
 2515POPC   GL135701   1.327  17.448   9.272
 2515POPC   GL235702   1.007  17.409   9.070
 2515POPC   C1A35703   1.409  17.699   8.905
 2515POPC   D2A35704   1.144  17.650   8.561
 2515POPC   C3A35705   1.204  17.637   8.107
 2515POPC   C4A35706   1.026  17.432   7.755
 2515POPC   C1B35707   1.340  17.217   8.784
 2515POPC   C2B35708   1.467  17.270   8.350
 2515POPC   C3B35709   1.497  17.220   7.893
 2515POPC   C4B35710   1.301  17.059   7.510
 2516POPC   NC335711  13.099  36.205   9.426
 2516POPC   PO435712  12.477  36.495   9.485
 2516POPC   GL135713  12.681  36.228   9.158
 2516POPC   GL235714  12.907  36.478   9.038
 2516POPC   C1A35715  12.863  36.056   8.738
 2516POPC   D2A35716  13.195  36.107   8.401
 2516POPC   C3A35717  13.000  35.992   7.989
 2516POPC   C4A35718  12.811  35.859   7.562
 2516POPC   C1B35719  12.522  36.482   8.781
 2516POPC   C2B35720  12.469  36.286   8.430
 2516POPC   C3B35721  12.382  36.291   8.052
 2516POPC   C4B35722  12.679  36.320   7.774
 2517POPC   NC335723  39.951  17.247   9.465
 2517POPC   PO435724  39.857  17.877   9.261
 2517POPC   GL135725  40.061  17.542   9.065
 2517POPC   GL235726  39.786  17.313   8.993
 2517POPC   C1A35727  40.221  17.306   8.714
 2517POPC   D2A35728  40.428  17.449   8.315
 2517POPC   C3A35729  40.177  17.483   7.906
 2517POPC   C4A35730  40.087  17.771   7.540
 2517POPC   C1B35731  39.778  17.590   8.643
 2517POPC   C2B35732  39.898  17.734   8.270
 2517POPC   C3B35733  39.698  17.700   7.903
 2517POPC   C4B35734  39.598  17.437   7.584
 2518POPC   NC335735  42.699   8.370   9.330
 2518POPC   PO435736  42.004   8.201   9.441
 2518POPC   GL135737  42.271   8.147   9.129
 2518POPC   GL235738  42.476   7.865   9.201
 2518POPC   C1A35739  42.393   8.335   8.739
 2518POPC   D2A35740  42.386   8.621   8.395
 2518POPC   C3A35741  42.438   8.350   8.105
 2518POPC   C4A35742  42.268   8.239   7.741
 2518POPC   C1B35743  42.443   7.811   8.782
 2518POPC   C2B35744  42.561   7.955   8.389
 2518POPC   C3B35745  42.442   7.844   8.005
 2518POPC   C4B35746  42.601   7.799   7.595
 2519POPC   NC335747  40.567  41.348   9.574
 2519POPC   PO435748  41.042  41.841   9.528
 2519POPC   GL135749  40.858  41.573   9.219
 2519POPC   GL235750  41.062  41.285   9.074
 2519POPC   C1A35751  40.833  41.661   8.805
 2519POPC   D2A35752  40.830  41.459   8.407
 2519POPC   C3A35753  40.514  41.632   8.132
 2519POPC   C4A35754  40.589  41.866   7.755
 2519POPC   C1B35755  40.652  41.192   8.860
 2519POPC   C2B35756  40.406  41.202   8.471
 2519POPC   C3B35757  40.549  41.082   8.077
 2519POPC   C4B35758  40.614  41.317   7.724
 2520POPC   NC335759  33.892  44.254   9.766
 2520POPC   PO435760  33.615  43.751   9.508
 2520POPC   GL135761  33.827  43.937   9.171
 2520POPC   GL235762  33.800  44.294   9.167
 2520POPC   C1A35763  33.845  43.837   8.735
 2520POPC   D2A35764  33.616  43.923   8.362
 2520POPC   C3A35765  33.591  43.641   8.002
 2520POPC   C4A35766  33.611  43.727   7.568
 2520POPC   C1B35767  33.558  44.272   8.770
 2520POPC   C2B35768  33.557  44.442   8.374
 2520POPC   C3B35769  33.527  44.254   7.981
 2520POPC   C4B35770  33.688  44.223   7.561
 2521POPC   NC335771  39.044   5.968   9.623
 2521POPC   PO435772  39.627   5.845   9.449
 2521POPC   GL135773  39.355   5.932   9.098
 2521POPC   GL235774  39.021   5.803   9.132
 2521POPC   C1A35775  39.205   5.849   8.658
 2521POPC   D2A35776  39.167   5.569   8.325
 2521POPC   C3A35777  39.387   5.649   7.929
 2521POPC   C4A35778  39.102   5.539   7.600
 2521POPC   C1B35779  38.837   6.133   8.867
 2521POPC   C2B35780  38.819   6.096   8.401
 2521POPC   C3B35781  38.963   5.918   8.000
 2521POPC   C4B35782  39.138   6.046   7.610
 2522POPC   NC335783  35.429   6.763   9.660
 2522POPC   PO435784  36.157   6.739   9.605
 2522POPC   GL135785  36.082   6.717   9.192
 2522POPC   GL235786  36.392   6.897   9.135
 2522POPC   C1A35787  35.874   6.703   8.778
 2522POPC   D2A35788  35.815   6.968   8.430
 2522POPC   C3A35789  35.770   6.691   8.085
 2522POPC   C4A35790  35.914   6.670   7.686
 2522POPC   C1B35791  36.376   6.683   8.741
 2522POPC   C2B35792  36.217   6.641   8.327
 2522POPC   C3B35793  36.311   6.455   7.925
 2522POPC   C4B35794  36.265   6.401   7.440
 2523POPC   NC335795  12.807  14.610   9.488
 2523POPC   PO435796  12.609  13.931   9.534
 2523POPC   GL135797  12.695  14.194   9.209
 2523POPC   GL235798  13.034  14.197   9.149
 2523POPC   C1A35799  12.682  14.126   8.776
 2523POPC   D2A35800  12.720  14.410   8.438
 2523POPC   C3A35801  12.846  14.248   8.058
 2523POPC   C4A35802  12.589  14.287   7.733
 2523POPC   C1B35803  13.017  14.539   8.851
 2523POPC   C2B35804  12.984  14.861   8.526
 2523POPC   C3B35805  13.081  14.892   8.091
 2523POPC   C4B35806  13.018  14.614   7.755
 2524POPC   NC335807  30.572  33.483   9.514
 2524POPC   PO435808  30.393  32.885   9.472
 2524POPC   GL135809  30.652  33.025   9.155
 2524POPC   GL235810  30.754  33.371   9.040
 2524POPC   C1A35811  30.836  32.938   8.779
 2524POPC   D2A35812  30.764  33.138   8.409
 2524POPC   C3A35813  31.047  33.171   8.082
 2524POPC   C4A35814  30.942  33.084   7.679
 2524POPC   C1B35815  30.355  33.174   8.799
 2524POPC   C2B35816  30.279  32.953   8.441
 2524POPC   C3B35817  30.416  33.008   8.008
 2524POPC   C4B35818  30.417  33.158   7.589
 2525POPC   NC335819  35.774  21.424   9.450
 2525POPC   PO435820  36.449  21.465   9.561
 2525POPC   GL135821  36.227  21.252   9.234
 2525POPC   GL235822  36.144  21.583   9.129
 2525POPC   C1A35823  36.139  21.189   8.785
 2525POPC   D2A35824  36.105  21.434   8.408
 2525POPC   C3A35825  36.295  21.360   8.018
 2525POPC   C4A35826  36.091  21.562   7.696
 2525POPC   C1B35827  35.838  21.656   8.803
 2525POPC   C2B35828  35.687  21.755   8.371
 2525POPC   C3B35829  35.648  21.550   7.991
 2525POPC   C4B35830  35.806  21.164   7.836
 2526POPC   NC335831  12.026  38.387   9.587
 2526POPC   PO435832  11.629  37.920   9.465
 2526POPC   GL135833  11.863  38.185   9.161
 2526POPC   GL235834  11.835  38.551   9.130
 2526POPC   C1A35835  12.250  38.133   8.923
 2526POPC   D2A35836  12.495  38.313   8.582
 2526POPC   C3A35837  12.435  38.176   8.171
 2526POPC   C4A35838  12.283  38.046   7.780
 2526POPC   C1B35839  12.107  38.592   8.747
 2526POPC   C2B35840  12.098  38.575   8.268
 2526POPC   C3B35841  11.906  38.525   7.805
 2526POPC   C4B35842  11.751  38.656   7.363
 2527POPC   NC335843  18.599   1.427   9.511
 2527POPC   PO435844  19.057   0.910   9.665
 2527POPC   GL135845  19.039   1.121   9.253
 2527POPC   GL235846  19.375   1.041   9.174
 2527POPC   C1A35847  18.916   1.424   8.868
 2527POPC   D2A35848  19.082   1.444   8.413
 2527POPC   C3A35849  18.970   1.117   8.080
 2527POPC   C4A35850  18.790   1.203   7.670
 2527POPC   C1B35851  19.217   1.029   8.747
 2527POPC   C2B35852  19.392   1.007   8.345
 2527POPC   C3B35853  19.426   1.332   8.035
 2527POPC   C4B35854  19.286   1.210   7.634
 2528POPC   NC335855  40.150  22.682   9.497
 2528POPC   PO435856  40.035  22.037   9.363
 2528POPC   GL135857  39.827  22.222   9.071
 2528POPC   GL235858  39.738  22.539   9.185
 2528POPC   C1A35859  39.796  22.027   8.691
 2528POPC   D2A35860  40.134  21.895   8.446
 2528POPC   C3A35861  40.031  22.068   8.053
 2528POPC   C4A35862  40.104  21.910   7.675
 2528POPC   C1B35863  40.052  22.644   8.849
 2528POPC   C2B35864  40.147  22.439   8.465
 2528POPC   C3B35865  40.112  22.574   8.028
 2528POPC   C4B35866  40.238  22.412   7.644
 2529POPC   NC335867   2.530  18.008   9.315
 2529POPC   PO435868   1.850  18.114   9.407
 2529POPC   GL135869   2.105  18.166   9.063
 2529POPC   GL235870   2.301  18.455   9.131
 2529POPC   C1A35871   2.053  18.066   8.649
 2529POPC   D2A35872   1.845  18.152   8.272
 2529POPC   C3A35873   2.077  18.075   7.958
 2529POPC   C4A35874   1.913  17.894   7.615
 2529POPC   C1B35875   2.219  18.620   8.747
 2529POPC   C2B35876   2.239  18.447   8.352
 2529POPC   C3B35877   2.156  18.593   7.955
 2529POPC   C4B35878   2.208  18.363   7.549
 2530POPC   NC335879  21.710  12.059   9.291
 2530POPC   PO435880  21.046  12.233   9.435
 2530POPC   GL135881  21.241  12.082   9.083
 2530POPC   GL235882  21.340  11.735   9.075
 2530POPC   C1A35883  21.158  12.161   8.669
 2530POPC   D2A35884  20.904  12.015   8.363
 2530POPC   C3A35885  21.109  12.069   8.022
 2530POPC   C4A35886  21.261  12.374   7.784
 2530POPC   C1B35887  21.584  11.864   8.695
 2530POPC   C2B35888  21.532  12.096   8.309
 2530POPC   C3B35889  21.673  12.090   7.902
 2530POPC   C4B35890  21.742  11.742   7.651
 2531POPC   NC335891   7.009   4.501   9.532
 2531POPC   PO435892   7.523   4.130   9.605
 2531POPC   GL135893   7.578   4.244   9.167
 2531POPC   GL235894   7.309   4.436   9.113
 2531POPC   C1A35895   7.434   4.160   8.721
 2531POPC   D2A35896   7.246   4.068   8.369
 2531POPC   C3A35897   7.470   4.119   8.039
 2531POPC   C4A35898   7.287   4.260   7.684
 2531POPC   C1B35899   7.441   4.671   8.696
 2531POPC   C2B35900   7.600   4.482   8.353
 2531POPC   C3B35901   7.581   4.605   7.937
 2531POPC   C4B35902   7.684   4.836   7.583
 2532POPC   NC335903   1.116   1.040   9.521
 2532POPC   PO435904   1.729   1.416   9.687
 2532POPC   GL135905   1.407   1.406   9.265
 2532POPC   GL235906   1.194   1.151   9.044
 2532POPC   C1A35907   1.490   1.471   8.798
 2532POPC   D2A35908   1.384   1.163   8.459
 2532POPC   C3A35909   1.471   1.321   8.039
 2532POPC   C4A35910   1.400   1.095   7.688
 2532POPC   C1B35911   0.902   1.207   8.691
 2532POPC   C2B35912   0.749   0.960   8.350
 2532POPC   C3B35913   0.994   0.966   7.986
 2532POPC   C4B35914   0.964   1.383   7.836
 2533POPC   NC335915   6.125   7.370   9.718
 2533POPC   PO435916   5.484   7.344   9.542
 2533POPC   GL135917   5.525   7.445   9.132
 2533POPC   GL235918   5.846   7.554   9.127
 2533POPC   C1A35919   5.614   7.239   8.757
 2533POPC   D2A35920   5.767   7.356   8.397
 2533POPC   C3A35921   5.611   7.218   8.046
 2533POPC   C4A35922   5.554   7.484   7.739
 2533POPC   C1B35923   6.115   7.407   8.817
 2533POPC   C2B35924   6.216   7.600   8.429
 2533POPC   C3B35925   6.147   7.473   8.035
 2533POPC   C4B35926   6.018   7.645   7.646
 2534POPC   NC335927  44.457  37.903   9.470
 2534POPC   PO435928   0.062  37.796   9.758
 2534POPC   GL135929  44.877  37.652   9.293
 2534POPC   GL235930  44.527  37.495   9.185
 2534POPC   C1A35931  44.768  37.760   8.828
 2534POPC   D2A35932  44.515  37.834   8.435
 2534POPC   C3A35933  44.766  37.748   8.052
 2534POPC   C4A35934   0.006  37.754   7.648
 2534POPC   C1B35935  44.267  37.591   8.829
 2534POPC   C2B35936  44.211  37.358   8.436
 2534POPC   C3B35937  44.357  37.260   8.016
 2534POPC   C4B35938  44.417  37.576   7.709
 2535POPC   NC335939   7.728   3.083   9.555
 2535POPC   PO435940   7.483   2.429   9.505
 2535POPC   GL135941   7.623   2.652   9.167
 2535POPC   GL235942   7.479   2.961   9.109
 2535POPC   C1A35943   7.470   2.630   8.729
 2535POPC   D2A35944   7.668   2.769   8.362
 2535POPC   C3A35945   7.500   2.842   7.944
 2535POPC   C4A35946   7.765   2.983   7.607
 2535POPC   C1B35947   7.449   3.138   8.678
 2535POPC   C2B35948   7.452   3.289   8.222
 2535POPC   C3B35949   7.121   3.207   7.896
 2535POPC   C4B35950   6.777   3.088   7.594
 2536POPC   NC335951   2.188  19.596   9.505
 2536POPC   PO435952   1.731  20.099   9.599
 2536POPC   GL135953   1.876  19.926   9.212
 2536POPC   GL235954   1.701  19.609   9.274
 2536POPC   C1A35955   2.103  19.935   8.781
 2536POPC   D2A35956   2.251  19.867   8.346
 2536POPC   C3A35957   2.285  20.083   7.960
 2536POPC   C4A35958   2.132  19.837   7.585
 2536POPC   C1B35959   1.919  19.474   8.917
 2536POPC   C2B35960   1.974  19.475   8.525
 2536POPC   C3B35961   1.934  19.484   8.080
 2536POPC   C4B35962   1.810  19.364   7.655
 2537POPC   NC335963   7.346  19.486   9.526
 2537POPC   PO435964   7.587  20.140   9.615
 2537POPC   GL135965   7.440  19.940   9.205
 2537POPC   GL235966   7.146  19.737   9.137
 2537POPC   C1A35967   7.502  19.821   8.757
 2537POPC   D2A35968   7.526  19.613   8.356
 2537POPC   C3A35969   7.710  19.755   7.983
 2537POPC   C4A35970   7.490  19.979   7.670
 2537POPC   C1B35971   7.019  19.558   8.757
 2537POPC   C2B35972   7.050  19.396   8.336
 2537POPC   C3B35973   7.173  19.626   7.969
 2537POPC   C4B35974   7.035  19.769   7.567
 2538POPC   NC335975  13.883  11.322   9.609
 2538POPC   PO435976  13.303  11.474   9.951
 2538POPC   GL135977  13.394  11.312   9.473
 2538POPC   GL235978  13.202  11.084   9.314
 2538POPC   C1A35979  13.601  11.262   9.005
 2538POPC   D2A35980  13.803  11.467   8.616
 2538POPC   C3A35981  13.592  11.477   8.188
 2538POPC   C4A35982  13.783  11.304   7.798
 2538POPC   C1B35983  13.193  11.013   8.846
 2538POPC   C2B35984  13.523  11.045   8.518
 2538POPC   C3B35985  13.541  10.940   8.079
 2538POPC   C4B35986  13.508  10.921   7.610
 2539POPC   NC335987  11.238   9.525   9.511
 2539POPC   PO435988  11.391   9.946   9.672
 2539POPC   GL135989  11.393   9.909   9.197
 2539POPC   GL235990  11.581   9.613   9.103
 2539POPC   C1A35991  11.232  10.052   8.779
 2539POPC   D2A35992  11.008   9.961   8.383
 2539POPC   C3A35993  11.201   9.994   7.956
 2539POPC   C4A35994  11.049   9.846   7.540
 2539POPC   C1B35995  11.445   9.591   8.654
 2539POPC   C2B35996  11.274   9.547   8.232
 2539POPC   C3B35997  11.358   9.509   7.784
 2539POPC   C4B35998  11.680   9.289   7.536
 2540POPC   NC335999  41.594  30.468   9.467
 2540POPC   PO436000  41.478  31.157   9.429
 2540POPC   GL136001  41.539  30.891   9.074
 2540POPC   GL236002  41.773  30.594   8.995
 2540POPC   C1A36003  41.515  30.841   8.637
 2540POPC   D2A36004  41.812  30.860   8.317
 2540POPC   C3A36005  41.588  30.932   7.965
 2540POPC   C4A36006  41.222  30.734   7.821
 2540POPC   C1B36007  41.561  30.349   8.673
 2540POPC   C2B36008  41.472  30.437   8.223
 2540POPC   C3B36009  41.636  30.430   7.793
 2540POPC   C4B36010  41.810  30.618   7.410
 2541POPC   NC336011  42.909  39.388   9.469
 2541POPC   PO436012  43.102  38.797   9.219
 2541POPC   GL136013  42.906  39.151   8.999
 2541POPC   GL236014  43.010  39.528   9.005
 2541POPC   C1A36015  42.941  39.273   8.557
 2541POPC   D2A36016  43.341  39.303   8.330
 2541POPC   C3A36017  43.351  38.949   8.040
 2541POPC   C4A36018  43.099  38.975   7.653
 2541POPC   C1B36019  42.882  39.797   8.679
 2541POPC   C2B36020  42.761  39.657   8.275
 2541POPC   C3B36021  42.978  39.408   7.965
 2541POPC   C4B36022  43.383  39.401   7.806
 2542POPC   NC336023  23.519  15.063   9.482
 2542POPC   PO436024  24.046  14.732   9.480
 2542POPC   GL136025  23.772  14.763   9.128
 2542POPC   GL236026  23.665  15.100   9.009
 2542POPC   C1A36027  23.746  14.732   8.682
 2542POPC   D2A36028  23.600  14.960   8.345
 2542POPC   C3A36029  23.584  14.836   7.954
 2542POPC   C4A36030  23.805  14.885   7.565
 2542POPC   C1B36031  23.418  15.294   8.680
 2542POPC   C2B36032  23.445  15.436   8.234
 2542POPC   C3B36033  23.637  15.676   7.881
 2542POPC   C4B36034  23.484  15.829   7.458
 2543POPC   NC336035  30.172  41.803   9.555
 2543POPC   PO436036  29.719  41.391   9.465
 2543POPC   GL136037  29.696  41.776   9.222
 2543POPC   GL236038  30.025  41.866   9.080
 2543POPC   C1A36039  29.610  41.802   8.784
 2543POPC   D2A36040  29.860  41.815   8.397
 2543POPC   C3A36041  29.647  41.711   8.002
 2543POPC   C4A36042  29.735  41.475   7.622
 2543POPC   C1B36043  30.026  41.469   8.855
 2543POPC   C2B36044  30.194  41.408   8.440
 2543POPC   C3B36045  30.055  41.381   8.021
 2543POPC   C4B36046  30.183  41.246   7.585
 2544POPC   NC336047  26.042  15.525   9.783
 2544POPC   PO436048  26.402  16.008   9.546
 2544POPC   GL136049  26.133  15.811   9.233
 2544POPC   GL236050  25.982  16.115   9.089
 2544POPC   C1A36051  26.022  15.672   8.811
 2544POPC   D2A36052  25.880  15.727   8.385
 2544POPC   C3A36053  26.200  15.882   8.115
 2544POPC   C4A36054  26.311  15.863   7.670
 2544POPC   C1B36055  25.725  16.142   8.690
 2544POPC   C2B36056  25.787  16.201   8.220
 2544POPC   C3B36057  25.805  15.968   7.796
 2544POPC   C4B36058  25.931  15.960   7.332
 2545POPC   NC336059  30.056   7.042   9.426
 2545POPC   PO436060  29.795   7.724   9.379
 2545POPC   GL136061  29.909   7.419   9.105
 2545POPC   GL236062  29.672   7.153   9.047
 2545POPC   C1A36063  30.154   7.445   8.744
 2545POPC   D2A36064  30.267   7.770   8.425
 2545POPC   C3A36065  30.219   7.555   8.034
 2545POPC   C4A36066  30.133   7.122   7.856
 2545POPC   C1B36067  29.652   7.361   8.657
 2545POPC   C2B36068  29.878   7.240   8.313
 2545POPC   C3B36069  29.686   7.337   7.938
 2545POPC   C4B36070  29.781   7.280   7.502
 2546POPC   NC336071  36.960  17.910   9.255
 2546POPC   PO436072  37.137  18.464   9.643
 2546POPC   GL136073  37.018  18.676   9.230
 2546POPC   GL236074  36.810  18.404   9.111
 2546POPC   C1A36075  37.151  18.591   8.795
 2546POPC   D2A36076  37.011  18.276   8.486
 2546POPC   C3A36077  37.031  18.367   8.076
 2546POPC   C4A36078  37.020  18.190   7.668
 2546POPC   C1B36079  36.581  18.209   8.748
 2546POPC   C2B36080  36.540  18.252   8.325
 2546POPC   C3B36081  36.584  18.060   7.962
 2546POPC   C4B36082  36.522  18.357   7.705
 2547POPC   NC336083  15.831  25.868   9.422
 2547POPC   PO436084  15.548  26.483   9.660
 2547POPC   GL136085  15.741  26.379   9.212
 2547POPC   GL236086  15.970  26.115   9.028
 2547POPC   C1A36087  15.814  26.472   8.742
 2547POPC   D2A36088  15.577  26.495   8.335
 2547POPC   C3A36089  15.816  26.213   8.100
 2547POPC   C4A36090  15.633  25.932   7.849
 2547POPC   C1B36091  16.092  25.922   8.687
 2547POPC   C2B36092  15.919  25.736   8.329
 2547POPC   C3B36093  16.101  25.713   7.944
 2547POPC   C4B36094  16.404  25.508   7.707
 2548POPC   NC336095  11.271  29.448   9.576
 2548POPC   PO436096  11.010  29.005   9.390
 2548POPC   GL136097  11.172  29.292   9.091
 2548POPC   GL236098  10.964  29.553   9.089
 2548POPC   C1A36099  11.347  29.361   8.685
 2548POPC   D2A36100  11.268  29.156   8.306
 2548POPC   C3A36101  11.338  29.431   7.962
 2548POPC   C4A36102  11.711  29.442   7.686
 2548POPC   C1B36103  10.859  29.448   8.625
 2548POPC   C2B36104  10.854  29.405   8.147
 2548POPC   C3B36105  10.894  29.221   7.722
 2548POPC   C4B36106  10.831  29.219   7.243
 2549POPC   NC336107  35.479  38.976   9.471
 2549POPC   PO436108  35.154  38.300   9.515
 2549POPC   GL136109  35.233  38.567   9.209
 2549POPC   GL236110  35.571  38.521   9.190
 2549POPC   C1A36111  35.267  38.454   8.773
 2549POPC   D2A36112  35.180  38.614   8.390
 2549POPC   C3A36113  35.162  38.319   8.067
 2549POPC   C4A36114  35.295  38.409   7.697
 2549POPC   C1B36115  35.672  38.773   8.832
 2549POPC   C2B36116  35.753  38.683   8.418
 2549POPC   C3B36117  35.605  38.597   8.045
 2549POPC   C4B36118  35.411  38.911   7.771
 2550POPC   NC336119  17.087  24.788   9.314
 2550POPC   PO436120  16.531  24.449   9.421
 2550POPC   GL136121  16.552  24.713   9.079
 2550POPC   GL236122  16.834  24.557   8.946
 2550POPC   C1A36123  16.451  24.643   8.651
 2550POPC   D2A36124  16.781  24.486   8.392
 2550POPC   C3A36125  16.591  24.545   8.012
 2550POPC   C4A36126  16.566  24.607   7.554
 2550POPC   C1B36127  16.972  24.883   8.680
 2550POPC   C2B36128  17.148  24.859   8.291
 2550POPC   C3B36129  17.024  24.792   7.872
 2550POPC   C4B36130  16.992  24.408   7.715
 2551POPC   NC336131  38.145  38.205   9.461
 2551POPC   PO436132  37.597  38.680   9.452
 2551POPC   GL136133  37.458  38.450   9.115
 2551POPC   GL236134  37.765  38.293   9.119
 2551POPC   C1A36135  37.430  38.532   8.686
 2551POPC   D2A36136  37.704  38.537   8.312
 2551POPC   C3A36137  37.613  38.434   7.903
 2551POPC   C4A36138  37.488  38.158   7.530
 2551POPC   C1B36139  37.738  38.111   8.746
 2551POPC   C2B36140  37.866  38.051   8.360
 2551POPC   C3B36141  38.082  38.232   8.044
 2551POPC   C4B36142  37.991  38.224   7.645
 2552POPC   NC336143  11.074  37.009   9.238
 2552POPC   PO436144  11.193  37.508   9.641
 2552POPC   GL136145  11.236  37.548   9.203
 2552POPC   GL236146  10.894  37.599   9.099
 2552POPC   C1A36147  11.277  37.790   8.805
 2552POPC   D2A36148  11.526  37.874   8.420
 2552POPC   C3A36149  11.367  38.010   8.040
 2552POPC   C4A36150  11.300  37.762   7.687
 2552POPC   C1B36151  10.740  37.843   8.700
 2552POPC   C2B36152  10.863  37.883   8.267
 2552POPC   C3B36153  11.017  37.526   8.036
 2552POPC   C4B36154  10.962  37.277   7.672
 2553POPC   NC336155  41.862  33.519   9.495
 2553POPC   PO436156  41.776  34.163   9.327
 2553POPC   GL136157  41.593  33.822   9.172
 2553POPC   GL236158  41.238  33.865   9.225
 2553POPC   C1A36159  41.742  33.769   8.779
 2553POPC   D2A36160  41.673  34.110   8.482
 2553POPC   C3A36161  41.803  33.957   8.093
 2553POPC   C4A36162  41.733  33.872   7.668
 2553POPC   C1B36163  41.270  33.614   8.815
 2553POPC   C2B36164  41.462  33.627   8.390
 2553POPC   C3B36165  41.323  33.784   7.999
 2553POPC   C4B36166  41.392  33.492   7.686
 2554POPC   NC336167  43.337  20.944   9.384
 2554POPC   PO436168  42.835  20.460   9.447
 2554POPC   GL136169  42.948  20.755   9.122
 2554POPC   GL236170  43.226  20.535   9.099
 2554POPC   C1A36171  43.018  20.912   8.683
 2554POPC   D2A36172  42.752  20.712   8.336
 2554POPC   C3A36173  42.911  20.419   8.036
 2554POPC   C4A36174  43.206  20.559   7.750
 2554POPC   C1B36175  43.036  20.391   8.727
 2554POPC   C2B36176  43.260  20.565   8.381
 2554POPC   C3B36177  43.588  20.683   8.105
 2554POPC   C4B36178  43.662  20.331   7.834
 2555POPC   NC336179  29.957  30.154   9.889
 2555POPC   PO436180  29.423  29.880   9.614
 2555POPC   GL136181  29.753  29.910   9.265
 2555POPC   GL236182  30.050  30.130   9.324
 2555POPC   C1A36183  29.778  29.832   8.797
 2555POPC   D2A36184  29.615  29.822   8.343
 2555POPC   C3A36185  29.806  29.695   7.904
 2555POPC   C4A36186  30.224  29.742   7.704
 2555POPC   C1B36187  29.928  30.327   8.929
 2555POPC   C2B36188  29.806  30.270   8.513
 2555POPC   C3B36189  29.972  30.155   8.122
 2555POPC   C4B36190  29.939  30.165   7.699
 2556POPC   NC336191  22.387  22.088   9.989
 2556POPC   PO436192  21.964  22.203   9.602
 2556POPC   GL136193  22.131  22.169   9.143
 2556POPC   GL236194  22.459  22.023   9.146
 2556POPC   C1A36195  22.143  22.456   8.740
 2556POPC   D2A36196  22.232  22.508   8.284
 2556POPC   C3A36197  21.984  22.338   7.928
 2556POPC   C4A36198  22.177  22.333   7.529
 2556POPC   C1B36199  22.316  21.974   8.682
 2556POPC   C2B36200  22.190  21.963   8.210
 2556POPC   C3B36201  22.370  21.894   7.775
 2556POPC   C4B36202  22.346  21.846   7.295
 2557POPC   NC336203  23.229  22.463   9.601
 2557POPC   PO436204  23.157  23.121   9.557
 2557POPC   GL136205  22.934  23.130   9.145
 2557POPC   GL236206  22.630  22.931   9.187
 2557POPC   C1A36207  22.992  23.320   8.707
 2557POPC   D2A36208  22.737  23.240   8.374
 2557POPC   C3A36209  22.873  23.125   7.983
 2557POPC   C4A36210  22.986  22.750   7.849
 2557POPC   C1B36211  22.810  22.850   8.747
 2557POPC   C2B36212  22.741  22.674   8.307
 2557POPC   C3B36213  22.572  22.481   7.886
 2557POPC   C4B36214  22.710  22.625   7.445
 2558POPC   NC336215  43.709  19.230   9.578
 2558POPC   PO436216  44.363  18.981   9.718
 2558POPC   GL136217  44.186  19.044   9.261
 2558POPC   GL236218  43.825  19.088   9.118
 2558POPC   C1A36219  44.193  18.954   8.809
 2558POPC   D2A36220  43.820  18.978   8.534
 2558POPC   C3A36221  43.964  18.827   8.139
 2558POPC   C4A36222  44.193  19.062   7.811
 2558POPC   C1B36223  43.759  18.668   8.948
 2558POPC   C2B36224  43.597  18.529   8.522
 2558POPC   C3B36225  43.439  18.773   8.189
 2558POPC   C4B36226  43.600  18.890   7.790
 2559POPC   NC336227  39.766  23.456   9.601
 2559POPC   PO436228  40.389  23.097   9.575
 2559POPC   GL136229  40.387  23.275   9.161
 2559POPC   GL236230  40.066  23.152   9.114
 2559POPC   C1A36231  40.365  23.193   8.696
 2559POPC   D2A36232  40.084  22.971   8.385
 2559POPC   C3A36233  40.136  23.076   7.931
 2559POPC   C4A36234  40.013  22.854   7.511
 2559POPC   C1B36235  39.780  23.085   8.794
 2559POPC   C2B36236  39.666  23.313   8.439
 2559POPC   C3B36237  39.636  23.124   8.102
 2559POPC   C4B36238  39.680  23.183   7.727
 2560POPC   NC336239  34.673  17.889   9.868
 2560POPC   PO436240  34.667  18.428   9.509
 2560POPC   GL136241  34.445  18.355   9.158
 2560POPC   GL236242  34.533  18.002   9.207
 2560POPC   C1A36243  34.595  18.592   8.794
 2560POPC   D2A36244  34.825  18.606   8.377
 2560POPC   C3A36245  34.486  18.585   8.089
 2560POPC   C4A36246  34.397  18.293   7.785
 2560POPC   C1B36247  34.747  18.109   8.815
 2560POPC   C2B36248  34.546  18.187   8.463
 2560POPC   C3B36249  34.743  18.128   8.117
 2560POPC   C4B36250  34.871  17.955   7.750
 2561POPC   NC336251  30.645  13.150   9.274
 2561POPC   PO436252  30.753  13.661   9.648
 2561POPC   GL136253  30.583  13.730   9.234
 2561POPC   GL236254  30.306  13.534   9.317
 2561POPC   C1A36255  30.733  13.876   8.819
 2561POPC   D2A36256  30.730  13.900   8.368
 2561POPC   C3A36257  30.848  13.495   8.182
 2561POPC   C4A36258  30.869  13.291   7.773
 2561POPC   C1B36259  30.220  13.434   8.892
 2561POPC   C2B36260  30.383  13.574   8.520
 2561POPC   C3B36261  30.349  13.632   8.096
 2561POPC   C4B36262  30.179  13.504   7.730
 2562POPC   NC336263  38.849  38.802   9.843
 2562POPC   PO436264  38.380  39.209   9.545
 2562POPC   GL136265  38.312  39.154   9.153
 2562POPC   GL236266  38.423  39.531   9.148
 2562POPC   C1A36267  38.382  38.960   8.762
 2562POPC   D2A36268  38.631  39.139   8.442
 2562POPC   C3A36269  38.528  39.054   8.027
 2562POPC   C4A36270  38.642  39.361   7.716
 2562POPC   C1B36271  38.230  39.472   8.774
 2562POPC   C2B36272  38.190  39.614   8.423
 2562POPC   C3B36273  38.498  39.578   8.167
 2562POPC   C4B36274  38.327  39.719   7.840
 2563POPC   NC336275  43.807  29.312   9.291
 2563POPC   PO436276  44.237  28.898   9.609
 2563POPC   GL136277  44.119  28.949   9.128
 2563POPC   GL236278  43.781  28.801   9.061
 2563POPC   C1A36279  44.140  29.238   8.707
 2563POPC   D2A36280  44.001  29.475   8.286
 2563POPC   C3A36281  44.210  29.385   7.848
 2563POPC   C4A36282  44.131  29.048   7.518
 2563POPC   C1B36283  43.647  29.087   8.736
 2563POPC   C2B36284  43.722  29.018   8.356
 2563POPC   C3B36285  43.847  29.059   7.971
 2563POPC   C4B36286  43.624  29.138   7.624
 2564POPC   NC336287  11.705   2.573   9.430
 2564POPC   PO436288  11.197   3.001   9.522
 2564POPC   GL136289  11.206   2.756   9.158
 2564POPC   GL236290  11.512   2.920   9.072
 2564POPC   C1A36291  11.065   2.615   8.733
 2564POPC   D2A36292  10.864   2.732   8.366
 2564POPC   C3A36293  11.066   2.722   7.990
 2564POPC   C4A36294  11.153   2.915   7.621
 2564POPC   C1B36295  11.577   2.651   8.716
 2564POPC   C2B36296  11.459   2.486   8.294
 2564POPC   C3B36297  11.565   2.670   7.859
 2564POPC   C4B36298  11.688   3.032   7.576
 2565POPC   NC336299  38.273  23.059   9.601
 2565POPC   PO436300  38.832  22.850   9.477
 2565POPC   GL136301  38.522  22.916   9.155
 2565POPC   GL236302  38.219  23.153   9.118
 2565POPC   C1A36303  38.471  22.693   8.770
 2565POPC   D2A36304  38.637  22.536   8.403
 2565POPC   C3A36305  38.435  22.684   8.046
 2565POPC   C4A36306  38.641  22.632   7.647
 2565POPC   C1B36307  38.417  23.212   8.751
 2565POPC   C2B36308  38.264  23.069   8.387
 2565POPC   C3B36309  38.315  23.274   8.053
 2565POPC   C4B36310  38.477  23.091   7.752
 2566POPC   NC336311   8.040  32.134   9.376
 2566POPC   PO436312   7.372  32.150   9.308
 2566POPC   GL136313   7.253  32.392   8.969
 2566POPC   GL236314   7.571  32.532   8.906
 2566POPC   C1A36315   7.130  32.397   8.566
 2566POPC   D2A36316   7.361  32.503   8.189
 2566POPC   C3A36317   7.390  32.119   7.994
 2566POPC   C4A36318   7.420  31.957   7.569
 2566POPC   C1B36319   7.618  32.209   8.595
 2566POPC   C2B36320   7.858  32.154   8.231
 2566POPC   C3B36321   7.847  31.974   7.832
 2566POPC   C4B36322   7.683  32.389   7.682
 2567POPC   NC336323  39.281  32.686   9.849
 2567POPC   PO436324  38.901  33.225   9.598
 2567POPC   GL136325  39.064  32.933   9.252
 2567POPC   GL236326  38.847  32.995   8.997
 2567POPC   C1A36327  39.283  32.859   8.808
 2567POPC   D2A36328  39.392  33.057   8.415
 2567POPC   C3A36329  39.129  33.058   8.082
 2567POPC   C4A36330  39.073  32.837   7.712
 2567POPC   C1B36331  39.105  33.319   8.874
 2567POPC   C2B36332  39.123  33.475   8.511
 2567POPC   C3B36333  39.113  33.575   8.146
 2567POPC   C4B36334  39.097  33.460   7.758
 2568POPC   NC336335  42.100   7.767   9.540
 2568POPC   PO436336  42.570   7.330   9.613
 2568POPC   GL136337  42.384   7.355   9.217
 2568POPC   GL236338  42.267   7.039   9.170
 2568POPC   C1A36339  42.512   7.296   8.780
 2568POPC   D2A36340  42.418   7.478   8.392
 2568POPC   C3A36341  42.651   7.385   8.061
 2568POPC   C4A36342  42.476   7.320   7.714
 2568POPC   C1B36343  42.144   6.924   8.779
 2568POPC   C2B36344  42.103   7.097   8.383
 2568POPC   C3B36345  42.035   7.248   7.964
 2568POPC   C4B36346  41.987   7.198   7.488
 2569POPC   NC336347  15.441   8.845   9.532
 2569POPC   PO436348  15.671   9.381   9.607
 2569POPC   GL136349  15.590   9.191   9.173
 2569POPC   GL236350  15.601   8.845   9.033
 2569POPC   C1A36351  15.689   9.318   8.743
 2569POPC   D2A36352  15.437   9.368   8.348
 2569POPC   C3A36353  15.393   9.010   8.058
 2569POPC   C4A36354  15.424   8.861   7.630
 2569POPC   C1B36355  15.500   8.848   8.577
 2569POPC   C2B36356  15.245   8.586   8.266
 2569POPC   C3B36357  15.128   8.453   7.823
 2569POPC   C4B36358  15.120   8.524   7.375
 2570POPC   NC336359  28.826  34.269   9.593
 2570POPC   PO436360  29.045  34.911   9.525
 2570POPC   GL136361  29.244  35.018   9.142
 2570POPC   GL236362  29.198  34.648   9.043
 2570POPC   C1A36363  29.286  34.978   8.681
 2570POPC   D2A36364  29.035  34.672   8.449
 2570POPC   C3A36365  28.937  34.715   7.992
 2570POPC   C4A36366  29.077  34.965   7.641
 2570POPC   C1B36367  29.330  34.259   8.830
 2570POPC   C2B36368  29.248  34.053   8.470
 2570POPC   C3B36369  29.186  34.296   8.132
 2570POPC   C4B36370  29.173  34.301   7.713
 2571POPC   NC336371  31.620   0.660   9.581
 2571POPC   PO436372  30.998   0.573   9.764
 2571POPC   GL136373  31.202   0.685   9.301
 2571POPC   GL236374  31.430   0.387   9.195
 2571POPC   C1A36375  31.538   0.767   8.907
 2571POPC   D2A36376  31.678   0.767   8.468
 2571POPC   C3A36377  31.416   0.638   8.088
 2571POPC   C4A36378  31.300   0.637   7.627
 2571POPC   C1B36379  31.360   0.181   8.773
 2571POPC   C2B36380  31.320   0.018   8.328
 2571POPC   C3B36381  31.508   0.146   7.923
 2571POPC   C4B36382  31.643   0.229   7.494
 2572POPC   NC336383  20.142   8.211   9.632
 2572POPC   PO436384  19.523   8.070   9.754
 2572POPC   GL136385  19.680   8.300   9.368
 2572POPC   GL236386  19.389   8.294   9.139
 2572POPC   C1A36387  19.823   8.442   8.931
 2572POPC   D2A36388  19.971   8.281   8.544
 2572POPC   C3A36389  19.902   8.355   8.098
 2572POPC   C4A36390  20.054   8.057   7.790
 2572POPC   C1B36391  19.465   8.163   8.695
 2572POPC   C2B36392  19.510   8.053   8.234
 2572POPC   C3B36393  19.567   7.921   7.782
 2572POPC   C4B36394  19.580   7.940   7.297
 2573POPC   NC336395  42.110  19.282   9.281
 2573POPC   PO436396  42.655  18.847   9.448
 2573POPC   GL136397  42.515  18.954   9.086
 2573POPC   GL236398  42.232  18.769   9.050
 2573POPC   C1A36399  42.718  19.051   8.727
 2573POPC   D2A36400  42.583  19.160   8.285
 2573POPC   C3A36401  42.434  18.883   7.908
 2573POPC   C4A36402  42.610  18.878   7.450
 2573POPC   C1B36403  42.184  19.018   8.669
 2573POPC   C2B36404  42.071  19.084   8.248
 2573POPC   C3B36405  41.887  18.858   7.900
 2573POPC   C4B36406  42.081  18.909   7.507
 2574POPC   NC336407  38.029  23.749   9.295
 2574POPC   PO436408  37.406  23.816   9.457
 2574POPC   GL136409  37.597  23.634   9.081
 2574POPC   GL236410  37.728  23.330   9.177
 2574POPC   C1A36411  37.428  23.498   8.696
 2574POPC   D2A36412  37.522  23.696   8.318
 2574POPC   C3A36413  37.331  23.594   7.957
 2574POPC   C4A36414  37.357  23.898   7.642
 2574POPC   C1B36415  37.916  23.361   8.743
 2574POPC   C2B36416  37.805  23.279   8.310
 2574POPC   C3B36417  37.872  23.488   7.938
 2574POPC   C4B36418  37.790  23.892   7.916
 2575POPC   NC336419  12.493  12.483   9.512
 2575POPC   PO436420  11.994  11.983   9.582
 2575POPC   GL136421  11.956  12.161   9.145
 2575POPC   GL236422  12.300  12.202   9.131
 2575POPC   C1A36423  11.803  12.110   8.713
 2575POPC   D2A36424  12.073  12.049   8.344
 2575POPC   C3A36425  11.965  12.208   7.946
 2575POPC   C4A36426  12.076  12.053   7.545
 2575POPC   C1B36427  12.232  12.361   8.721
 2575POPC   C2B36428  12.309  12.505   8.263
 2575POPC   C3B36429  12.426  12.374   7.830
 2575POPC   C4B36430  12.468  12.298   7.367
 2576POPC   NC336431   3.462   1.553   9.803
 2576POPC   PO436432   3.535   2.087   9.538
 2576POPC   GL136433   3.551   2.105   9.102
 2576POPC   GL236434   3.729   1.829   9.035
 2576POPC   C1A36435   3.319   1.932   8.741
 2576POPC   D2A36436   3.427   2.001   8.343
 2576POPC   C3A36437   3.755   2.257   8.258
 2576POPC   C4A36438   3.646   2.194   7.866
 2576POPC   C1B36439   3.953   1.742   8.649
 2576POPC   C2B36440   3.866   1.732   8.205
 2576POPC   C3B36441   3.824   1.672   7.764
 2576POPC   C4B36442   3.958   1.571   7.334
 2577POPC   NC336443  23.623  43.417   9.554
 2577POPC   PO436444  23.965  42.810   9.536
 2577POPC   GL136445  23.651  42.970   9.267
 2577POPC   GL236446  23.880  43.207   9.176
 2577POPC   C1A36447  23.500  42.839   8.856
 2577POPC   D2A36448  23.759  42.902   8.513
 2577POPC   C3A36449  23.680  42.812   8.102
 2577POPC   C4A36450  23.678  43.152   7.836
 2577POPC   C1B36451  24.140  43.415   8.883
 2577POPC   C2B36452  24.041  43.422   8.461
 2577POPC   C3B36453  23.930  43.551   8.032
 2577POPC   C4B36454  24.075  43.542   7.615
 2578POPC   NC336455  42.283  42.775   9.559
 2578POPC   PO436456  42.574  42.151   9.544
 2578POPC   GL136457  42.332  42.347   9.238
 2578POPC   GL236458  42.613  42.369   9.019
 2578POPC   C1A36459  42.146  42.292   8.824
 2578POPC   D2A36460  42.331  42.272   8.450
 2578POPC   C3A36461  42.147  42.376   8.070
 2578POPC   C4A36462  42.545  42.423   7.853
 2578POPC   C1B36463  42.516  41.934   8.814
 2578POPC   C2B36464  42.469  41.792   8.349
 2578POPC   C3B36465  42.346  41.930   7.920
 2578POPC   C4B36466  42.358  41.802   7.467
 2579POPC   NC336467  10.871  43.906   9.916
 2579POPC   PO436468  10.653  44.107   9.367
 2579POPC   GL136469  10.539  43.933   9.045
 2579POPC   GL236470  10.312  43.705   9.130
 2579POPC   C1A36471  10.399  44.094   8.677
 2579POPC   D2A36472  10.566  44.101   8.255
 2579POPC   C3A36473  10.436  43.948   7.873
 2579POPC   C4A36474  10.443  43.521   7.770
 2579POPC   C1B36475  10.383  43.552   8.723
 2579POPC   C2B36476  10.170  43.486   8.329
 2579POPC   C3B36477  10.011  43.668   7.979
 2579POPC   C4B36478   9.944  44.071   7.844
 2580POPC   NC336479  34.003  35.933   9.567
 2580POPC   PO436480  33.392  36.244   9.579
 2580POPC   GL136481  33.672  36.255   9.256
 2580POPC   GL236482  33.714  35.941   9.143
 2580POPC   C1A36483  33.809  36.383   8.845
 2580POPC   D2A36484  33.831  36.596   8.457
 2580POPC   C3A36485  33.812  36.375   8.063
 2580POPC   C4A36486  34.101  36.346   7.718
 2580POPC   C1B36487  33.861  35.873   8.751
 2580POPC   C2B36488  33.695  35.857   8.333
 2580POPC   C3B36489  33.871  35.862   7.920
 2580POPC   C4B36490  34.095  35.864   7.521
 2581POPC   NC336491  13.729  35.730   9.595
 2581POPC   PO436492  13.464  36.361   9.640
 2581POPC   GL136493  13.593  36.338   9.236
 2581POPC   GL236494  13.530  36.004   9.226
 2581POPC   C1A36495  13.691  36.255   8.804
 2581POPC   D2A36496  13.775  36.086   8.408
 2581POPC   C3A36497  13.869  36.255   8.009
 2581POPC   C4A36498  13.578  36.299   7.660
 2581POPC   C1B36499  13.357  35.865   8.848
 2581POPC   C2B36500  13.487  35.667   8.475
 2581POPC   C3B36501  13.517  35.844   8.050
 2581POPC   C4B36502  13.339  35.781   7.666
 2582POPC   NC336503  15.015  20.482   9.609
 2582POPC   PO436504  15.574  20.653   9.621
 2582POPC   GL136505  15.319  20.634   9.211
 2582POPC   GL236506  15.511  20.509   8.940
 2582POPC   C1A36507  14.956  20.528   8.879
 2582POPC   D2A36508  14.889  20.310   8.439
 2582POPC   C3A36509  14.798  20.441   7.973
 2582POPC   C4A36510  14.900  20.552   7.513
 2582POPC   C1B36511  15.303  20.765   8.610
 2582POPC   C2B36512  15.200  20.668   8.207
 2582POPC   C3B36513  15.123  20.873   7.841
 2582POPC   C4B36514  15.335  21.024   7.486
 2583POPC   NC336515   3.497  30.630   9.539
 2583POPC   PO436516   3.050  31.023   9.219
 2583POPC   GL136517   3.435  30.820   9.076
 2583POPC   GL236518   3.770  30.923   9.132
 2583POPC   C1A36519   3.574  30.684   8.687
 2583POPC   D2A36520   3.276  30.716   8.348
 2583POPC   C3A36521   3.339  30.552   7.925
 2583POPC   C4A36522   3.185  30.541   7.472
 2583POPC   C1B36523   3.901  31.087   8.725
 2583POPC   C2B36524   3.769  30.973   8.315
 2583POPC   C3B36525   3.829  30.901   7.901
 2583POPC   C4B36526   3.834  31.069   7.499
 2584POPC   NC336527  42.312  35.442   9.603
 2584POPC   PO436528  42.390  34.941   9.195
 2584POPC   GL136529  42.579  35.351   9.136
 2584POPC   GL236530  42.308  35.594   9.115
 2584POPC   C1A36531  42.534  35.434   8.701
 2584POPC   D2A36532  42.412  35.206   8.345
 2584POPC   C3A36533  42.648  35.241   7.984
 2584POPC   C4A36534  42.758  35.022   7.633
 2584POPC   C1B36535  42.009  35.658   8.764
 2584POPC   C2B36536  41.936  35.418   8.361
 2584POPC   C3B36537  42.037  35.609   7.937
 2584POPC   C4B36538  42.325  35.466   7.608
 2585POPC   NC336539  10.852   0.082   9.694
 2585POPC   PO436540  10.222   0.303   9.468
 2585POPC   GL136541  10.573   0.419   9.201
 2585POPC   GL236542  10.784   0.171   9.180
 2585POPC   C1A36543  10.718   0.572   8.838
 2585POPC   D2A36544  10.799   0.341   8.515
 2585POPC   C3A36545  10.556   0.443   8.185
 2585POPC   C4A36546  10.697   0.518   7.780
 2585POPC   C1B36547  10.447   0.111   8.824
 2585POPC   C2B36548  10.500  44.937   8.397
 2585POPC   C3B36549  10.590   0.011   7.940
 2585POPC   C4B36550  10.247   0.283   7.723
 2586POPC   NC336551  33.496  36.732   9.568
 2586POPC   PO436552  34.040  37.057   9.635
 2586POPC   GL136553  34.010  37.072   9.192
 2586POPC   GL236554  33.686  37.212   9.241
 2586POPC   C1A36555  34.029  36.994   8.727
 2586POPC   D2A36556  34.091  36.980   8.248
 2586POPC   C3A36557  33.830  37.031   7.906
 2586POPC   C4A36558  33.712  36.683   7.658
 2586POPC   C1B36559  33.507  37.115   8.845
 2586POPC   C2B36560  33.604  37.084   8.425
 2586POPC   C3B36561  33.449  36.778   8.140
 2586POPC   C4B36562  33.305  36.965   7.772
 2587POPC   NC336563  33.640   6.590   9.728
 2587POPC   PO436564  34.018   7.050   9.417
 2587POPC   GL136565  33.946   6.710   9.153
 2587POPC   GL236566  33.664   6.481   9.197
 2587POPC   C1A36567  33.890   6.700   8.743
 2587POPC   D2A36568  33.576   6.687   8.469
 2587POPC   C3A36569  33.726   6.637   8.048
 2587POPC   C4A36570  33.556   6.754   7.680
 2587POPC   C1B36571  33.604   6.232   8.825
 2587POPC   C2B36572  33.435   6.223   8.420
 2587POPC   C3B36573  33.522   6.153   8.023
 2587POPC   C4B36574  33.643   6.261   7.645
 2588POPC   NC336575  29.727  35.811   9.434
 2588POPC   PO436576  30.307  36.071   9.396
 2588POPC   GL136577  30.042  36.020   9.071
 2588POPC   GL236578  29.897  36.312   9.068
 2588POPC   C1A36579  30.127  36.148   8.666
 2588POPC   D2A36580  30.323  36.026   8.348
 2588POPC   C3A36581  30.016  36.080   8.062
 2588POPC   C4A36582  29.981  36.054   7.615
 2588POPC   C1B36583  29.692  36.437   8.670
 2588POPC   C2B36584  29.779  36.596   8.233
 2588POPC   C3B36585  29.655  36.392   7.863
 2588POPC   C4B36586  29.562  35.923   7.867
 2589POPC   NC336587  22.585  25.213   9.492
 2589POPC   PO436588  23.256  25.445   9.608
 2589POPC   GL136589  23.077  25.265   9.229
 2589POPC   GL236590  22.833  25.510   9.168
 2589POPC   C1A36591  22.885  25.157   8.802
 2589POPC   D2A36592  22.697  25.335   8.398
 2589POPC   C3A36593  22.802  25.070   8.060
 2589POPC   C4A36594  23.085  25.082   7.723
 2589POPC   C1B36595  22.845  25.670   8.755
 2589POPC   C2B36596  23.055  25.751   8.368
 2589POPC   C3B36597  23.059  25.537   7.988
 2589POPC   C4B36598  22.716  25.458   7.716
 2590POPC   NC336599  18.435  35.633   9.365
 2590POPC   PO436600  17.979  35.201   9.472
 2590POPC   GL136601  18.003  35.454   9.123
 2590POPC   GL236602  18.273  35.220   9.049
 2590POPC   C1A36603  17.837  35.440   8.706
 2590POPC   D2A36604  17.947  35.193   8.320
 2590POPC   C3A36605  18.014  35.412   7.937
 2590POPC   C4A36606  18.324  35.577   7.629
 2590POPC   C1B36607  18.505  35.024   8.734
 2590POPC   C2B36608  18.506  35.149   8.306
 2590POPC   C3B36609  18.449  35.082   7.889
 2590POPC   C4B36610  18.757  35.306   7.673
 2591POPC   NC336611  10.565  22.389   9.570
 2591POPC   PO436612  10.625  21.708   9.337
 2591POPC   GL136613  10.403  22.025   9.131
 2591POPC   GL236614  10.628  22.261   9.095
 2591POPC   C1A36615  10.339  22.208   8.699
 2591POPC   D2A36616  10.636  22.175   8.400
 2591POPC   C3A36617  10.442  21.989   8.055
 2591POPC   C4A36618  10.254  22.248   7.712
 2591POPC   C1B36619  10.895  22.011   8.832
 2591POPC   C2B36620  11.134  22.088   8.482
 2591POPC   C3B36621  10.992  21.947   8.094
 2591POPC   C4B36622  10.797  22.075   7.706
 2592POPC   NC336623  13.765  19.073   9.551
 2592POPC   PO436624  13.965  19.631   9.459
 2592POPC   GL136625  13.816  19.319   9.098
 2592POPC   GL236626  13.541  19.069   9.083
 2592POPC   C1A36627  13.757  19.191   8.644
 2592POPC   D2A36628  13.602  19.327   8.236
 2592POPC   C3A36629  13.790  19.110   7.876
 2592POPC   C4A36630  14.110  19.115   7.540
 2592POPC   C1B36631  13.318  18.770   8.800
 2592POPC   C2B36632  13.132  18.711   8.401
 2592POPC   C3B36633  13.377  18.858   8.091
 2592POPC   C4B36634  13.371  18.871   7.685
 2593POPC   NC336635  16.288  40.875   9.494
 2593POPC   PO436636  15.747  40.501   9.433
 2593POPC   GL136637  15.978  40.675   9.097
 2593POPC   GL236638  15.929  41.006   9.161
 2593POPC   C1A36639  15.882  40.830   8.679
 2593POPC   D2A36640  15.563  40.957   8.411
 2593POPC   C3A36641  15.634  40.699   8.075
 2593POPC   C4A36642  15.952  40.801   7.813
 2593POPC   C1B36643  16.264  41.123   8.837
 2593POPC   C2B36644  16.326  41.032   8.379
 2593POPC   C3B36645  16.234  41.239   7.976
 2593POPC   C4B36646  16.206  41.137   7.525
 2594POPC   NC336647   9.472  14.952   9.656
 2594POPC   PO436648  10.238  14.911   9.633
 2594POPC   GL136649  10.006  15.029   9.239
 2594POPC   GL236650   9.663  14.991   9.192
 2594POPC   C1A36651   9.972  15.102   8.767
 2594POPC   D2A36652   9.771  14.891   8.402
 2594POPC   C3A36653   9.927  14.963   7.972
 2594POPC   C4A36654  10.073  15.308   7.682
 2594POPC   C1B36655   9.390  14.859   8.878
 2594POPC   C2B36656   9.216  15.058   8.530
 2594POPC   C3B36657   9.384  15.010   8.098
 2594POPC   C4B36658   9.550  15.182   7.728
 2595POPC   NC336659  17.398  43.655   9.404
 2595POPC   PO436660  17.644  44.277   9.441
 2595POPC   GL136661  17.343  44.085   9.128
 2595POPC   GL236662  17.662  43.927   9.050
 2595POPC   C1A36663  17.252  43.792   8.748
 2595POPC   D2A36664  17.291  43.497   8.369
 2595POPC   C3A36665  17.310  43.789   8.007
 2595POPC   C4A36666  17.581  44.162   8.028
 2595POPC   C1B36667  17.782  43.701   8.690
 2595POPC   C2B36668  17.978  43.811   8.294
 2595POPC   C3B36669  17.812  43.746   7.877
 2595POPC   C4B36670  17.575  43.884   7.508
 2596POPC   NC336671  39.133  18.558   9.710
 2596POPC   PO436672  39.486  19.067   9.428
 2596POPC   GL136673  39.149  18.889   9.209
 2596POPC   GL236674  39.122  19.227   9.095
 2596POPC   C1A36675  39.181  18.821   8.768
 2596POPC   D2A36676  39.076  19.027   8.382
 2596POPC   C3A36677  39.329  19.001   8.017
 2596POPC   C4A36678  39.089  18.912   7.651
 2596POPC   C1B36679  39.302  19.337   8.721
 2596POPC   C2B36680  39.165  19.521   8.350
 2596POPC   C3B36681  39.446  19.557   8.045
 2596POPC   C4B36682  39.269  19.418   7.688
 2597POPC   NC336683   5.012  12.222   9.427
 2597POPC   PO436684   5.501  11.776   9.695
 2597POPC   GL136685   5.340  11.890   9.184
 2597POPC   GL236686   5.315  12.276   8.986
 2597POPC   C1A36687   5.091  11.878   8.772
 2597POPC   D2A36688   5.157  12.113   8.365
 2597POPC   C3A36689   4.942  11.861   8.062
 2597POPC   C4A36690   4.983  11.694   7.651
 2597POPC   C1B36691   4.892  12.361   8.746
 2597POPC   C2B36692   4.675  12.250   8.311
 2597POPC   C3B36693   4.857  12.335   7.880
 2597POPC   C4B36694   4.894  12.140   7.450
 2598POPC   NC336695  33.419  34.937   9.240
 2598POPC   PO436696  33.793  35.511   9.403
 2598POPC   GL136697  33.733  35.293   9.033
 2598POPC   GL236698  33.890  34.953   9.037
 2598POPC   C1A36699  33.700  35.402   8.618
 2598POPC   D2A36700  33.926  35.342   8.247
 2598POPC   C3A36701  33.687  35.370   7.896
 2598POPC   C4A36702  33.375  35.662   7.968
 2598POPC   C1B36703  34.121  35.041   8.647
 2598POPC   C2B36704  34.150  34.896   8.222
 2598POPC   C3B36705  34.112  35.067   7.830
 2598POPC   C4B36706  34.009  35.336   7.452
 2599POPC   NC336707   9.955   3.224   9.507
 2599POPC   PO436708   9.638   3.811   9.335
 2599POPC   GL136709   9.495   3.531   9.055
 2599POPC   GL236710   9.455   3.225   9.236
 2599POPC   C1A36711   9.545   3.524   8.600
 2599POPC   D2A36712   9.821   3.715   8.286
 2599POPC   C3A36713   9.863   3.505   7.906
 2599POPC   C4A36714   9.514   3.645   7.675
 2599POPC   C1B36715   9.387   3.068   8.796
 2599POPC   C2B36716   9.594   3.104   8.323
 2599POPC   C3B36717   9.533   3.127   7.884
 2599POPC   C4B36718   9.687   3.220   7.471
 2600POPC   NC336719  19.584  37.120   9.483
 2600POPC   PO436720  20.127  36.610   9.515
 2600POPC   GL136721  19.730  36.751   9.178
 2600POPC   GL236722  19.693  37.110   8.990
 2600POPC   C1A36723  19.708  36.703   8.717
 2600POPC   D2A36724  19.872  36.524   8.335
 2600POPC   C3A36725  19.781  36.728   7.935
 2600POPC   C4A36726  19.841  36.565   7.520
 2600POPC   C1B36727  20.011  37.136   8.648
 2600POPC   C2B36728  20.181  36.917   8.274
 2600POPC   C3B36729  20.227  36.989   7.841
 2600POPC   C4B36730  19.914  37.080   7.540
 2601POPC   NC336731   3.535   6.109   9.541
 2601POPC   PO436732   2.986   5.760   9.459
 2601POPC   GL136733   3.389   5.765   9.187
 2601POPC   GL236734   3.771   5.902   9.134
 2601POPC   C1A36735   3.396   5.974   8.786
 2601POPC   D2A36736   3.200   5.883   8.414
 2601POPC   C3A36737   3.497   5.806   8.087
 2601POPC   C4A36738   3.479   5.907   7.652
 2601POPC   C1B36739   3.695   5.574   8.812
 2601POPC   C2B36740   3.560   5.379   8.444
 2601POPC   C3B36741   3.822   5.341   8.087
 2601POPC   C4B36742   3.908   5.618   7.743
 2602POPC   NC336743  32.288  21.155   9.498
 2602POPC   PO436744  32.341  21.834   9.302
 2602POPC   GL136745  32.403  21.424   9.074
 2602POPC   GL236746  32.055  21.246   9.065
 2602POPC   C1A36747  32.483  21.193   8.659
 2602POPC   D2A36748  32.550  21.170   8.178
 2602POPC   C3A36749  32.438  21.527   7.880
 2602POPC   C4A36750  32.448  21.566   7.406
 2602POPC   C1B36751  31.916  21.129   8.671
 2602POPC   C2B36752  32.020  20.911   8.293
 2602POPC   C3B36753  32.096  21.099   7.915
 2602POPC   C4B36754  32.005  21.385   7.610
 2603POPC   NC336755  18.702  11.171   9.505
 2603POPC   PO436756  19.386  11.126   9.451
 2603POPC   GL136757  19.073  11.212   9.152
 2603POPC   GL236758  18.799  10.965   9.054
 2603POPC   C1A36759  18.957  11.483   8.838
 2603POPC   D2A36760  19.010  11.357   8.420
 2603POPC   C3A36761  19.090  11.538   8.027
 2603POPC   C4A36762  19.360  11.236   7.846
 2603POPC   C1B36763  19.094  10.923   8.715
 2603POPC   C2B36764  19.096  10.846   8.273
 2603POPC   C3B36765  18.883  11.086   7.968
 2603POPC   C4B36766  18.937  11.254   7.540
 2604POPC   NC336767  41.007  28.998   9.318
 2604POPC   PO436768  41.713  29.095   9.409
 2604POPC   GL136769  41.509  29.032   9.041
 2604POPC   GL236770  41.218  29.258   8.922
 2604POPC   C1A36771  41.709  29.354   8.766
 2604POPC   D2A36772  41.466  29.550   8.459
 2604POPC   C3A36773  41.579  29.367   8.064
 2604POPC   C4A36774  41.378  29.335   7.652
 2604POPC   C1B36775  41.388  29.035   8.539
 2604POPC   C2B36776  41.224  28.738   8.233
 2604POPC   C3B36777  41.342  28.844   7.810
 2604POPC   C4B36778  41.576  28.914   7.410
 2605POPC   NC336779  41.013  20.983   9.639
 2605POPC   PO436780  40.692  21.503   9.512
 2605POPC   GL136781  40.694  21.362   9.141
 2605POPC   GL236782  40.467  21.640   9.032
 2605POPC   C1A36783  40.883  21.143   8.818
 2605POPC   D2A36784  40.863  21.128   8.427
 2605POPC   C3A36785  40.996  21.421   8.164
 2605POPC   C4A36786  40.853  21.145   7.847
 2605POPC   C1B36787  40.783  21.642   8.720
 2605POPC   C2B36788  40.647  21.804   8.373
 2605POPC   C3B36789  40.424  21.738   8.044
 2605POPC   C4B36790  40.700  21.614   7.771
 2606POPC   NC336791  14.443  42.309   9.430
 2606POPC   PO436792  15.063  42.616   9.387
 2606POPC   GL136793  14.680  42.578   9.041
 2606POPC   GL236794  14.274  42.579   8.998
 2606POPC   C1A36795  14.509  42.226   8.740
 2606POPC   D2A36796  14.596  42.041   8.334
 2606POPC   C3A36797  14.773  42.290   7.992
 2606POPC   C4A36798  14.577  42.626   7.760
 2606POPC   C1B36799  14.398  42.708   8.603
 2606POPC   C2B36800  14.369  42.515   8.221
 2606POPC   C3B36801  14.206  42.259   7.891
 2606POPC   C4B36802  13.755  42.227   7.799
 2607POPC   NC336803  14.096  32.427   9.435
 2607POPC   PO436804  14.562  32.059   9.462
 2607POPC   GL136805  14.324  32.044   9.124
 2607POPC   GL236806  14.324  32.379   8.988
 2607POPC   C1A36807  14.458  31.851   8.790
 2607POPC   D2A36808  14.596  32.034   8.449
 2607POPC   C3A36809  14.319  32.013   8.110
 2607POPC   C4A36810  14.484  32.020   7.734
 2607POPC   C1B36811  14.044  32.625   8.746
 2607POPC   C2B36812  13.887  32.560   8.343
 2607POPC   C3B36813  14.221  32.550   8.025
 2607POPC   C4B36814  14.329  32.489   7.602
 2608POPC   NC336815  39.657  31.817   9.529
 2608POPC   PO436816  39.155  31.418   9.817
 2608POPC   GL136817  39.271  31.402   9.322
 2608POPC   GL236818  39.153  31.101   9.123
 2608POPC   C1A36819  39.410  31.428   8.849
 2608POPC   D2A36820  39.168  31.549   8.461
 2608POPC   C3A36821  39.299  31.412   8.061
 2608POPC   C4A36822  39.479  31.687   7.791
 2608POPC   C1B36823  38.926  31.204   8.748
 2608POPC   C2B36824  38.790  31.148   8.310
 2608POPC   C3B36825  38.874  31.159   7.879
 2608POPC   C4B36826  39.240  31.099   7.619
 2609POPC   NC336827  29.285   0.726   9.974
 2609POPC   PO436828  29.218   0.403   9.389
 2609POPC   GL136829  28.968   0.583   9.088
 2609POPC   GL236830  29.233   0.650   8.919
 2609POPC   C1A36831  28.758   0.631   8.690
 2609POPC   D2A36832  28.721   0.406   8.282
 2609POPC   C3A36833  28.843   0.573   7.861
 2609POPC   C4A36834  28.918   0.509   7.395
 2609POPC   C1B36835  29.175   0.327   8.634
 2609POPC   C2B36836  29.228   0.499   8.230
 2609POPC   C3B36837  29.339   0.407   7.815
 2609POPC   C4B36838  29.339   0.142   7.481
 2610POPC   NC336839  15.640  34.562   9.276
 2610POPC   PO436840  16.259  34.770   9.458
 2610POPC   GL136841  16.078  34.764   9.098
 2610POPC   GL236842  16.088  34.398   9.109
 2610POPC   C1A36843  15.932  34.754   8.676
 2610POPC   D2A36844  16.145  34.823   8.279
 2610POPC   C3A36845  15.998  34.776   7.858
 2610POPC   C4A36846  15.661  35.016   7.687
 2610POPC   C1B36847  15.915  34.244   8.724
 2610POPC   C2B36848  15.846  34.379   8.296
 2610POPC   C3B36849  15.612  34.178   7.995
 2610POPC   C4B36850  15.612  34.030   7.617
 2611POPC   NC336851  41.283  38.934   9.670
 2611POPC   PO436852  41.623  39.455   9.505
 2611POPC   GL136853  41.708  39.306   9.118
 2611POPC   GL236854  41.655  38.959   9.141
 2611POPC   C1A36855  41.526  39.189   8.715
 2611POPC   D2A36856  41.596  38.975   8.344
 2611POPC   C3A36857  41.582  39.227   8.012
 2611POPC   C4A36858  41.262  39.125   7.745
 2611POPC   C1B36859  42.040  39.046   8.845
 2611POPC   C2B36860  42.095  38.958   8.407
 2611POPC   C3B36861  42.053  38.969   7.949
 2611POPC   C4B36862  41.755  39.055   7.572
 2612POPC   NC336863  19.198   7.934   9.453
 2612POPC   PO436864  18.897   7.288   9.380
 2612POPC   GL136865  18.700   7.342   8.981
 2612POPC   GL236866  19.004   7.290   8.832
 2612POPC   C1A36867  18.675   7.618   8.586
 2612POPC   D2A36868  18.983   7.676   8.271
 2612POPC   C3A36869  18.948   7.609   7.823
 2612POPC   C4A36870  19.262   7.576   7.515
 2612POPC   C1B36871  18.776   7.094   8.495
 2612POPC   C2B36872  18.825   7.145   8.047
 2612POPC   C3B36873  19.023   7.126   7.620
 2612POPC   C4B36874  18.958   6.970   7.179
 2613POPC   NC336875   4.412  29.557   9.730
 2613POPC   PO436876   3.855  29.370   9.486
 2613POPC   GL136877   4.158  29.184   9.190
 2613POPC   GL236878   4.490  29.355   9.243
 2613POPC   C1A36879   4.224  29.004   8.745
 2613POPC   D2A36880   4.295  29.129   8.317
 2613POPC   C3A36881   4.277  28.975   7.874
 2613POPC   C4A36882   4.561  28.909   7.521
 2613POPC   C1B36883   4.388  29.476   8.825
 2613POPC   C2B36884   4.427  29.631   8.421
 2613POPC   C3B36885   4.453  29.465   7.977
 2613POPC   C4B36886   4.465  29.410   7.519
 2614POPC   NC336887  16.621   9.916   9.601
 2614POPC   PO436888  16.577   9.215   9.824
 2614POPC   GL136889  16.500   9.499   9.372
 2614POPC   GL236890  16.862   9.594   9.262
 2614POPC   C1A36891  16.518   9.786   8.952
 2614POPC   D2A36892  16.637   9.756   8.493
 2614POPC   C3A36893  16.480   9.851   8.072
 2614POPC   C4A36894  16.414   9.648   7.681
 2614POPC   C1B36895  17.039   9.685   8.846
 2614POPC   C2B36896  17.137   9.890   8.433
 2614POPC   C3B36897  17.004   9.812   8.028
 2614POPC   C4B36898  16.811  10.042   7.705
 2615POPC   NC336899  17.577  31.189   9.262
 2615POPC   PO436900  17.270  31.809   9.357
 2615POPC   GL136901  17.226  31.733   8.979
 2615POPC   GL236902  17.442  31.474   8.871
 2615POPC   C1A36903  17.217  31.835   8.569
 2615POPC   D2A36904  17.574  31.937   8.321
 2615POPC   C3A36905  17.578  31.644   7.974
 2615POPC   C4A36906  17.212  31.620   7.751
 2615POPC   C1B36907  17.429  31.068   8.641
 2615POPC   C2B36908  17.724  31.043   8.326
 2615POPC   C3B36909  17.583  31.129   7.956
 2615POPC   C4B36910  17.192  31.101   7.746
 2616POPC   NC336911  30.810  20.746   9.519
 2616POPC   PO436912  30.391  20.301   9.726
 2616POPC   GL136913  30.557  20.364   9.254
 2616POPC   GL236914  30.939  20.320   9.200
 2616POPC   C1A36915  30.634  20.613   8.845
 2616POPC   D2A36916  30.417  20.825   8.481
 2616POPC   C3A36917  30.626  20.736   8.092
 2616POPC   C4A36918  30.476  20.632   7.692
 2616POPC   C1B36919  30.934  20.206   8.745
 2616POPC   C2B36920  31.023  20.333   8.313
 2616POPC   C3B36921  30.844  20.292   7.881
 2616POPC   C4B36922  30.864  20.412   7.438
 2617POPC   NC336923  28.808  14.720   9.496
 2617POPC   PO436924  29.510  14.631   9.471
 2617POPC   GL136925  29.251  14.345   9.214
 2617POPC   GL236926  28.885  14.391   9.133
 2617POPC   C1A36927  29.199  14.222   8.774
 2617POPC   D2A36928  29.183  14.475   8.395
 2617POPC   C3A36929  29.248  14.263   8.043
 2617POPC   C4A36930  29.399  14.135   7.661
 2617POPC   C1B36931  28.694  14.268   8.746
 2617POPC   C2B36932  28.771  14.144   8.330
 2617POPC   C3B36933  28.767  14.399   8.005
 2617POPC   C4B36934  29.002  14.513   7.643
 2618POPC   NC336935  28.394  42.680   9.509
 2618POPC   PO436936  28.870  42.236   9.655
 2618POPC   GL136937  28.598  42.303   9.238
 2618POPC   GL236938  28.254  42.145   9.223
 2618POPC   C1A36939  28.341  42.491   8.855
 2618POPC   D2A36940  28.076  42.459   8.464
 2618POPC   C3A36941  28.305  42.525   8.050
 2618POPC   C4A36942  28.157  42.494   7.658
 2618POPC   C1B36943  28.498  41.981   8.863
 2618POPC   C2B36944  28.415  42.081   8.467
 2618POPC   C3B36945  28.253  42.038   8.096
 2618POPC   C4B36946  28.468  42.081   7.683
 2619POPC   NC336947  22.522  29.164   9.480
 2619POPC   PO436948  21.945  28.892   9.719
 2619POPC   GL136949  22.047  28.954   9.310
 2619POPC   GL236950  22.354  28.764   9.254
 2619POPC   C1A36951  22.134  29.145   8.913
 2619POPC   D2A36952  22.144  28.934   8.512
 2619POPC   C3A36953  22.190  29.147   8.106
 2619POPC   C4A36954  21.904  29.267   7.778
 2619POPC   C1B36955  22.582  28.880   8.848
 2619POPC   C2B36956  22.657  28.843   8.393
 2619POPC   C3B36957  22.632  28.870   7.947
 2619POPC   C4B36958  22.307  28.915   7.613
 2620POPC   NC336959  23.290  23.449   9.272
 2620POPC   PO436960  23.887  23.410   9.516
 2620POPC   GL136961  23.739  23.633   9.135
 2620POPC   GL236962  23.695  23.307   9.005
 2620POPC   C1A36963  23.681  23.852   8.716
 2620POPC   D2A36964  23.894  24.006   8.315
 2620POPC   C3A36965  23.657  23.947   7.911
 2620POPC   C4A36966  23.622  23.762   7.499
 2620POPC   C1B36967  23.515  23.370   8.624
 2620POPC   C2B36968  23.675  23.545   8.252
 2620POPC   C3B36969  23.749  23.403   7.840
 2620POPC   C4B36970  23.605  23.234   7.441
 2621POPC   NC336971   4.189  38.075   9.547
 2621POPC   PO436972   4.585  37.509   9.529
 2621POPC   GL136973   4.285  37.647   9.257
 2621POPC   GL236974   4.511  37.931   9.198
 2621POPC   C1A36975   4.106  37.831   8.867
 2621POPC   D2A36976   3.916  38.039   8.477
 2621POPC   C3A36977   3.963  37.831   8.104
 2621POPC   C4A36978   4.087  37.746   7.667
 2621POPC   C1B36979   4.556  38.113   8.834
 2621POPC   C2B36980   4.434  37.967   8.461
 2621POPC   C3B36981   4.648  37.951   8.093
 2621POPC   C4B36982   4.650  38.188   7.737
 2622POPC   NC336983  19.526  24.679   9.517
 2622POPC   PO436984  20.073  24.283   9.532
 2622POPC   GL136985  19.917  24.493   9.206
 2622POPC   GL236986  20.165  24.716   9.167
 2622POPC   C1A36987  19.693  24.435   8.840
 2622POPC   D2A36988  19.451  24.445   8.460
 2622POPC   C3A36989  19.687  24.442   8.050
 2622POPC   C4A36990  19.684  24.566   7.609
 2622POPC   C1B36991  20.032  24.849   8.805
 2622POPC   C2B36992  19.962  24.649   8.446
 2622POPC   C3B36993  20.064  24.787   8.053
 2622POPC   C4B36994  20.182  24.684   7.675
 2623POPC   NC336995  33.895   8.676   9.562
 2623POPC   PO436996  33.546   9.283   9.468
 2623POPC   GL136997  33.672   9.054   9.132
 2623POPC   GL236998  33.760   8.724   9.076
 2623POPC   C1A36999  33.853   9.147   8.744
 2623POPC   D2A37000  34.070   9.200   8.353
 2623POPC   C3A37001  33.706   9.127   8.084
 2623POPC   C4A37002  33.327   9.162   7.845
 2623POPC   C1B37003  34.045   8.664   8.713
 2623POPC   C2B37004  34.080   8.638   8.258
 2623POPC   C3B37005  34.051   8.816   7.878
 2623POPC   C4B37006  34.135   9.246   7.836
 2624POPC   NC337007   5.432  29.315   9.542
 2624POPC   PO437008   4.833  29.558   9.586
 2624POPC   GL137009   5.010  29.335   9.236
 2624POPC   GL237010   5.303  29.528   9.098
 2624POPC   C1A37011   4.795  29.111   8.902
 2624POPC   D2A37012   4.757  29.227   8.479
 2624POPC   C3A37013   4.757  29.038   8.081
 2624POPC   C4A37014   5.003  29.060   7.731
 2624POPC   C1B37015   5.270  29.239   8.757
 2624POPC   C2B37016   5.240  29.099   8.294
 2624POPC   C3B37017   5.471  29.127   7.887
 2624POPC   C4B37018   5.470  28.814   7.528
 2625POPC   NC337019  44.191  20.671   9.426
 2625POPC   PO437020  43.575  20.419   9.462
 2625POPC   GL137021  43.767  20.629   9.115
 2625POPC   GL237022  43.922  20.305   9.055
 2625POPC   C1A37023  43.917  20.649   8.652
 2625POPC   D2A37024  44.118  20.890   8.329
 2625POPC   C3A37025  44.050  20.796   7.874
 2625POPC   C4A37026  43.720  20.757   7.567
 2625POPC   C1B37027  43.547  20.332   8.765
 2625POPC   C2B37028  43.674  20.252   8.362
 2625POPC   C3B37029  44.022  20.378   8.184
 2625POPC   C4B37030  44.172  20.276   7.770
 2626POPC   NC337031  43.231  28.422   9.581
 2626POPC   PO437032  42.695  28.175   9.248
 2626POPC   GL137033  42.976  28.447   9.070
 2626POPC   GL237034  43.334  28.523   9.095
 2626POPC   C1A37035  42.895  28.423   8.652
 2626POPC   D2A37036  42.981  28.152   8.313
 2626POPC   C3A37037  42.941  28.398   7.954
 2626POPC   C4A37038  42.689  28.430   7.617
 2626POPC   C1B37039  43.304  28.723   8.722
 2626POPC   C2B37040  43.108  28.733   8.318
 2626POPC   C3B37041  43.337  28.851   7.983
 2626POPC   C4B37042  43.413  28.472   7.775
 2627POPC   NC337043  28.072   3.491   9.909
 2627POPC   PO437044  28.533   3.585   9.438
 2627POPC   GL137045  28.525   3.567   9.027
 2627POPC   GL237046  28.205   3.727   9.034
 2627POPC   C1A37047  28.661   3.789   8.633
 2627POPC   D2A37048  28.508   3.880   8.205
 2627POPC   C3A37049  28.259   3.616   7.931
 2627POPC   C4A37050  28.379   3.561   7.455
 2627POPC   C1B37051  28.235   3.493   8.615
 2627POPC   C2B37052  28.185   3.189   8.277
 2627POPC   C3B37053  27.860   3.174   7.968
 2627POPC   C4B37054  27.882   3.436   7.615
 2628POPC   NC337055  28.745  28.951   9.323
 2628POPC   PO437056  29.347  29.019   9.375
 2628POPC   GL137057  29.169  29.227   9.043
 2628POPC   GL237058  28.910  29.393   9.111
 2628POPC   C1A37059  29.254  29.514   8.734
 2628POPC   D2A37060  29.122  29.350   8.369
 2628POPC   C3A37061  29.410  29.423   8.112
 2628POPC   C4A37062  29.336  29.328   7.762
 2628POPC   C1B37063  28.739  29.321   8.702
 2628POPC   C2B37064  28.666  29.137   8.283
 2628POPC   C3B37065  28.865  29.183   7.891
 2628POPC   C4B37066  29.035  28.902   7.589
 2629POPC   NC337067  28.731  13.896   9.829
 2629POPC   PO437068  28.359  14.549   9.618
 2629POPC   GL137069  28.224  14.497   9.196
 2629POPC   GL237070  28.368  14.171   9.162
 2629POPC   C1A37071  28.322  14.642   8.798
 2629POPC   D2A37072  28.379  14.461   8.395
 2629POPC   C3A37073  28.220  14.578   8.035
 2629POPC   C4A37074  28.430  14.690   7.701
 2629POPC   C1B37075  28.207  14.115   8.748
 2629POPC   C2B37076  28.016  14.121   8.347
 2629POPC   C3B37077  28.316  14.080   8.026
 2629POPC   C4B37078  28.476  14.197   7.663
 2630POPC   NC337079   2.384  21.438   9.598
 2630POPC   PO437080   1.974  20.945   9.286
 2630POPC   GL137081   2.125  21.223   9.033
 2630POPC   GL237082   2.036  21.515   9.185
 2630POPC   C1A37083   2.127  21.186   8.614
 2630POPC   D2A37084   1.833  21.085   8.359
 2630POPC   C3A37085   2.019  21.185   8.033
 2630POPC   C4A37086   2.172  20.963   7.711
 2630POPC   C1B37087   2.116  21.687   8.750
 2630POPC   C2B37088   2.272  21.630   8.285
 2630POPC   C3B37089   2.096  21.648   7.836
 2630POPC   C4B37090   1.975  21.756   7.398
 2631POPC   NC337091  15.406   0.595   9.464
 2631POPC   PO437092  15.137  44.972   9.435
 2631POPC   GL137093  15.248   0.153   9.080
 2631POPC   GL237094  15.069   0.436   9.107
 2631POPC   C1A37095  15.281   0.122   8.641
 2631POPC   D2A37096  15.604   0.288   8.362
 2631POPC   C3A37097  15.498   0.486   7.981
 2631POPC   C4A37098  15.610   0.370   7.544
 2631POPC   C1B37099  14.995   0.631   8.710
 2631POPC   C2B37100  15.032   0.432   8.326
 2631POPC   C3B37101  15.163   0.111   8.072
 2631POPC   C4B37102  15.119   0.333   7.685
 2632POPC   NC337103  28.868   2.575   9.343
 2632POPC   PO437104  29.216   3.129   9.396
 2632POPC   GL137105  29.260   2.793   9.095
 2632POPC   GL237106  29.392   2.480   9.270
 2632POPC   C1A37107  29.060   2.680   8.684
 2632POPC   D2A37108  29.007   2.511   8.251
 2632POPC   C3A37109  29.278   2.816   8.032
 2632POPC   C4A37110  29.152   3.230   7.902
 2632POPC   C1B37111  29.366   2.305   8.849
 2632POPC   C2B37112  29.476   2.473   8.439
 2632POPC   C3B37113  29.489   2.340   8.027
 2632POPC   C4B37114  29.479   2.538   7.644
 2633POPC   NC337115  24.842  24.425   9.656
 2633POPC   PO437116  24.267  24.261   9.383
 2633POPC   GL137117  24.595  24.373   9.143
 2633POPC   GL237118  24.871  24.188   9.209
 2633POPC   C1A37119  24.545  24.555   8.751
 2633POPC   D2A37120  24.559  24.783   8.393
 2633POPC   C3A37121  24.515  24.540   8.029
 2633POPC   C4A37122  24.331  24.471   7.624
 2633POPC   C1B37123  24.953  24.259   8.775
 2633POPC   C2B37124  24.960  24.453   8.406
 2633POPC   C3B37125  24.951  24.245   8.038
 2633POPC   C4B37126  24.800  24.280   7.650
 2634POPC   NC337127  14.891  35.100   9.388
 2634POPC   PO437128  15.203  35.618   9.598
 2634POPC   GL137129  15.252  35.408   9.177
 2634POPC   GL237130  14.911  35.495   9.076
 2634POPC   C1A37131  15.216  35.339   8.704
 2634POPC   D2A37132  15.228  35.055   8.307
 2634POPC   C3A37133  15.282  35.284   7.925
 2634POPC   C4A37134  15.117  35.613   7.707
 2634POPC   C1B37135  14.719  35.245   8.743
 2634POPC   C2B37136  14.766  35.315   8.330
 2634POPC   C3B37137  14.795  35.048   8.000
 2634POPC   C4B37138  14.883  35.125   7.597
 2635POPC   NC337139  38.288  40.408   9.953
 2635POPC   PO437140  38.441  40.772   9.408
 2635POPC   GL137141  38.650  40.712   9.034
 2635POPC   GL237142  38.382  40.522   8.909
 2635POPC   C1A37143  38.700  40.719   8.575
 2635POPC   D2A37144  38.343  40.680   8.293
 2635POPC   C3A37145  38.324  40.996   7.965
 2635POPC   C4A37146  38.603  41.147   7.644
 2635POPC   C1B37147  38.019  40.581   8.672
 2635POPC   C2B37148  37.824  40.476   8.290
 2635POPC   C3B37149  38.035  40.543   7.911
 2635POPC   C4B37150  38.331  40.655   7.600
 2636POPC   NC337151   2.476  37.902   9.514
 2636POPC   PO437152   3.139  37.619   9.501
 2636POPC   GL137153   2.796  37.609   9.204
 2636POPC   GL237154   2.495  37.811   9.033
 2636POPC   C1A37155   2.747  37.456   8.814
 2636POPC   D2A37156   2.539  37.574   8.447
 2636POPC   C3A37157   2.763  37.449   8.082
 2636POPC   C4A37158   2.856  37.567   7.671
 2636POPC   C1B37159   2.808  37.958   8.713
 2636POPC   C2B37160   2.927  37.904   8.279
 2636POPC   C3B37161   2.769  38.032   7.877
 2636POPC   C4B37162   2.674  37.994   7.425
 2637POPC   NC337163  39.458  17.939   9.478
 2637POPC   PO437164  39.364  17.323   9.520
 2637POPC   GL137165  39.336  17.519   9.115
 2637POPC   GL237166  39.141  17.825   9.099
 2637POPC   C1A37167  39.343  17.311   8.689
 2637POPC   D2A37168  39.483  17.367   8.249
 2637POPC   C3A37169  39.198  17.471   7.877
 2637POPC   C4A37170  39.136  17.555   7.409
 2637POPC   C1B37171  39.336  17.844   8.724
 2637POPC   C2B37172  39.456  18.040   8.382
 2637POPC   C3B37173  39.253  17.961   8.044
 2637POPC   C4B37174  39.339  17.971   7.654
 2638POPC   NC337175   0.449  39.947   9.504
 2638POPC   PO437176  44.848  39.996   9.340
 2638POPC   GL137177   0.192  39.845   9.070
 2638POPC   GL237178   0.540  40.046   9.033
 2638POPC   C1A37179   0.334  39.835   8.633
 2638POPC   D2A37180   0.626  39.839   8.326
 2638POPC   C3A37181   0.410  39.995   7.961
 2638POPC   C4A37182   0.105  39.805   7.696
 2638POPC   C1B37183   0.671  40.284   8.665
 2638POPC   C2B37184   0.994  40.193   8.325
 2638POPC   C3B37185   0.930  39.970   7.925
 2638POPC   C4B37186   0.773  40.132   7.541
 2639POPC   NC337187  15.493  29.656   9.373
 2639POPC   PO437188  16.025  30.051   9.682
 2639POPC   GL137189  16.222  29.906   9.263
 2639POPC   GL237190  15.918  29.852   9.162
 2639POPC   C1A37191  16.266  30.054   8.810
 2639POPC   D2A37192  16.161  29.885   8.419
 2639POPC   C3A37193  16.329  30.121   8.069
 2639POPC   C4A37194  16.153  29.876   7.726
 2639POPC   C1B37195  15.741  29.981   8.794
 2639POPC   C2B37196  15.642  29.804   8.440
 2639POPC   C3B37197  15.767  29.755   8.080
 2639POPC   C4B37198  15.608  29.908   7.715
 2640POPC   NC337199  25.138  27.395   9.381
 2640POPC   PO437200  25.817  27.539   9.331
 2640POPC   GL137201  25.586  27.881   9.060
 2640POPC   GL237202  25.215  27.835   9.073
 2640POPC   C1A37203  25.533  27.897   8.586
 2640POPC   D2A37204  25.578  27.900   8.110
 2640POPC   C3A37205  25.546  27.533   7.842
 2640POPC   C4A37206  25.377  27.352   7.475
 2640POPC   C1B37207  25.016  27.683   8.686
 2640POPC   C2B37208  25.103  27.723   8.247
 2640POPC   C3B37209  25.038  27.544   7.851
 2640POPC   C4B37210  24.888  27.200   7.584
 2641POPC   NC337211  31.745  20.615   9.753
 2641POPC   PO437212  32.402  20.672   9.530
 2641POPC   GL137213  32.198  20.755   9.169
 2641POPC   GL237214  32.114  20.431   9.116
 2641POPC   C1A37215  32.242  20.733   8.726
 2641POPC   D2A37216  32.545  20.678   8.382
 2641POPC   C3A37217  32.373  20.677   7.965
 2641POPC   C4A37218  32.052  20.657   7.647
 2641POPC   C1B37219  31.954  20.239   8.730
 2641POPC   C2B37220  32.086  20.411   8.346
 2641POPC   C3B37221  32.086  20.244   7.952
 2641POPC   C4B37222  31.753  20.024   7.772
 2642POPC   NC337223  42.865  24.161   9.729
 2642POPC   PO437224  43.264  23.683   9.506
 2642POPC   GL137225  42.917  23.641   9.209
 2642POPC   GL237226  42.919  23.314   9.027
 2642POPC   C1A37227  42.872  23.785   8.775
 2642POPC   D2A37228  43.132  23.671   8.409
 2642POPC   C3A37229  43.006  23.744   8.008
 2642POPC   C4A37230  42.957  23.764   7.573
 2642POPC   C1B37231  43.322  23.480   8.854
 2642POPC   C2B37232  43.603  23.484   8.469
 2642POPC   C3B37233  43.571  23.701   8.066
 2642POPC   C4B37234  43.393  23.557   7.681
 2643POPC   NC337235  11.450  19.214   9.455
 2643POPC   PO437236  11.101  18.691   9.637
 2643POPC   GL137237  11.194  18.803   9.188
 2643POPC   GL237238  11.140  19.151   9.058
 2643POPC   C1A37239  11.442  18.812   8.788
 2643POPC   D2A37240  11.328  18.625   8.426
 2643POPC   C3A37241  11.250  18.892   8.072
 2643POPC   C4A37242  11.468  18.863   7.685
 2643POPC   C1B37243  11.503  19.318   8.791
 2643POPC   C2B37244  11.579  19.166   8.392
 2643POPC   C3B37245  11.590  19.271   7.984
 2643POPC   C4B37246  11.621  19.660   7.818
 2644POPC   NC337247  43.599  18.357   9.681
 2644POPC   PO437248  44.258  18.252   9.584
 2644POPC   GL137249  43.918  18.215   9.286
 2644POPC   GL237250  44.150  18.008   9.134
 2644POPC   C1A37251  43.733  18.157   8.866
 2644POPC   D2A37252  43.927  18.141   8.446
 2644POPC   C3A37253  43.710  18.325   8.079
 2644POPC   C4A37254  43.600  18.128   7.733
 2644POPC   C1B37255  44.238  18.357   8.850
 2644POPC   C2B37256  44.416  18.363   8.427
 2644POPC   C3B37257  44.220  18.323   8.007
 2644POPC   C4B37258  43.982  18.552   7.684
 2645POPC   NC337259  18.528   3.076   9.506
 2645POPC   PO437260  19.167   2.906   9.360
 2645POPC   GL137261  19.056   2.691   8.999
 2645POPC   GL237262  18.732   2.736   9.170
 2645POPC   C1A37263  19.188   2.482   8.599
 2645POPC   D2A37264  19.247   2.369   8.177
 2645POPC   C3A37265  19.150   2.689   7.904
 2645POPC   C4A37266  19.103   2.807   7.483
 2645POPC   C1B37267  18.629   2.900   8.806
 2645POPC   C2B37268  18.832   2.789   8.407
 2645POPC   C3B37269  18.719   2.928   8.018
 2645POPC   C4B37270  18.947   3.221   7.769
 2646POPC   NC337271  30.442  14.077   9.592
 2646POPC   PO437272  31.114  14.171   9.381
 2646POPC   GL137273  30.771  14.329   9.078
 2646POPC   GL237274  30.471  14.432   9.193
 2646POPC   C1A37275  30.597  14.617   8.720
 2646POPC   D2A37276  30.401  14.820   8.338
 2646POPC   C3A37277  30.590  14.649   7.903
 2646POPC   C4A37278  30.795  14.591   7.455
 2646POPC   C1B37279  30.332  14.193   8.786
 2646POPC   C2B37280  30.441  14.310   8.349
 2646POPC   C3B37281  30.518  14.140   7.960
 2646POPC   C4B37282  30.619  13.796   7.702
 2647POPC   NC337283  19.213  25.628   9.551
 2647POPC   PO437284  18.829  26.146   9.530
 2647POPC   GL137285  18.985  25.971   9.190
 2647POPC   GL237286  19.309  26.062   9.191
 2647POPC   C1A37287  18.975  26.064   8.767
 2647POPC   D2A37288  19.083  26.137   8.355
 2647POPC   C3A37289  18.813  26.212   8.039
 2647POPC   C4A37290  18.809  26.301   7.653
 2647POPC   C1B37291  19.308  25.709   8.904
 2647POPC   C2B37292  19.316  25.708   8.479
 2647POPC   C3B37293  19.529  25.686   8.081
 2647POPC   C4B37294  19.413  25.957   7.718
 2648POPC   NC337295  28.055   8.786   9.493
 2648POPC   PO437296  28.616   8.545   9.683
 2648POPC   GL137297  28.547   8.789   9.255
 2648POPC   GL237298  28.345   9.101   9.193
 2648POPC   C1A37299  28.616   8.822   8.775
 2648POPC   D2A37300  28.810   8.572   8.415
 2648POPC   C3A37301  28.716   8.797   8.040
 2648POPC   C4A37302  28.391   8.882   7.770
 2648POPC   C1B37303  28.412   9.329   8.775
 2648POPC   C2B37304  28.419   9.157   8.347
 2648POPC   C3B37305  28.271   9.329   7.962
 2648POPC   C4B37306  28.199   9.321   7.502
 2649POPC   NC337307  29.564   5.656   9.689
 2649POPC   PO437308  30.159   5.624   9.386
 2649POPC   GL137309  29.930   5.887   9.170
 2649POPC   GL237310  29.581   5.850   9.185
 2649POPC   C1A37311  29.942   5.968   8.739
 2649POPC   D2A37312  29.852   5.762   8.380
 2649POPC   C3A37313  29.942   5.932   7.978
 2649POPC   C4A37314  30.192   5.684   7.697
 2649POPC   C1B37315  29.474   5.757   8.756
 2649POPC   C2B37316  29.371   5.923   8.353
 2649POPC   C3B37317  29.491   5.722   7.994
 2649POPC   C4B37318  29.595   5.504   7.628
 2650POPC   NC337319   5.588  43.369   9.595
 2650POPC   PO437320   6.079  43.037   9.826
 2650POPC   GL137321   5.905  43.022   9.345
 2650POPC   GL237322   5.860  43.358   9.181
 2650POPC   C1A37323   5.751  42.952   8.894
 2650POPC   D2A37324   5.745  43.068   8.465
 2650POPC   C3A37325   5.812  42.847   8.101
 2650POPC   C4A37326   6.027  42.801   7.750
 2650POPC   C1B37327   6.009  43.399   8.786
 2650POPC   C2B37328   6.064  43.455   8.377
 2650POPC   C3B37329   6.172  43.221   8.055
 2650POPC   C4B37330   5.878  43.297   7.796
 2651POPC   NC337331  43.079  26.754   9.618
 2651POPC   PO437332  43.355  27.347   9.594
 2651POPC   GL137333  43.239  27.040   9.186
 2651POPC   GL237334  43.052  26.677   9.128
 2651POPC   C1A37335  43.389  26.887   8.747
 2651POPC   D2A37336  43.514  26.835   8.285
 2651POPC   C3A37337  43.260  27.089   8.006
 2651POPC   C4A37338  42.822  27.151   7.865
 2651POPC   C1B37339  42.950  26.627   8.720
 2651POPC   C2B37340  43.010  26.734   8.333
 2651POPC   C3B37341  42.994  26.680   7.935
 2651POPC   C4B37342  43.302  26.572   7.577
 2652POPC   NC337343  22.649  27.013   9.517
 2652POPC   PO437344  22.910  26.376   9.602
 2652POPC   GL137345  22.868  26.506   9.163
 2652POPC   GL237346  22.791  26.865   9.073
 2652POPC   C1A37347  23.061  26.626   8.740
 2652POPC   D2A37348  23.031  26.922   8.415
 2652POPC   C3A37349  23.041  26.729   8.034
 2652POPC   C4A37350  23.136  26.988   7.677
 2652POPC   C1B37351  22.458  27.039   8.804
 2652POPC   C2B37352  22.365  27.012   8.364
 2652POPC   C3B37353  22.615  27.087   8.005
 2652POPC   C4B37354  22.682  26.793   7.694
 2653POPC   NC337355  29.013   3.557   9.460
 2653POPC   PO437356  29.660   3.567   9.693
 2653POPC   GL137357  29.637   3.592   9.224
 2653POPC   GL237358  29.399   3.860   9.044
 2653POPC   C1A37359  29.529   3.358   8.834
 2653POPC   D2A37360  29.290   3.320   8.422
 2653POPC   C3A37361  29.424   3.638   8.119
 2653POPC   C4A37362  29.432   3.637   7.715
 2653POPC   C1B37363  29.221   3.834   8.567
 2653POPC   C2B37364  28.937   3.634   8.191
 2653POPC   C3B37365  28.828   3.583   7.716
 2653POPC   C4B37366  28.828   3.726   7.249
 2654POPC   NC337367  19.862  31.111   9.489
 2654POPC   PO437368  19.507  31.681   9.589
 2654POPC   GL137369  19.515  31.474   9.218
 2654POPC   GL237370  19.831  31.397   9.076
 2654POPC   C1A37371  19.440  31.485   8.756
 2654POPC   D2A37372  19.669  31.478   8.387
 2654POPC   C3A37373  19.512  31.371   8.005
 2654POPC   C4A37374  19.918  31.291   7.813
 2654POPC   C1B37375  19.827  31.114   8.734
 2654POPC   C2B37376  20.009  31.064   8.317
 2654POPC   C3B37377  20.325  30.961   8.005
 2654POPC   C4B37378  20.256  30.979   7.545
 2655POPC   NC337379   8.807  29.651   9.548
 2655POPC   PO437380   9.024  30.227   9.465
 2655POPC   GL137381   8.790  30.023   9.116
 2655POPC   GL237382   8.671  29.683   9.069
 2655POPC   C1A37383   8.878  30.110   8.678
 2655POPC   D2A37384   8.923  30.274   8.247
 2655POPC   C3A37385   9.140  30.010   7.950
 2655POPC   C4A37386   8.986  29.964   7.543
 2655POPC   C1B37387   8.534  29.726   8.677
 2655POPC   C2B37388   8.483  30.037   8.342
 2655POPC   C3B37389   8.611  29.987   7.922
 2655POPC   C4B37390   8.471  30.107   7.524
 2656POPC   NC337391  22.701  30.032   9.471
 2656POPC   PO437392  23.435  29.920   9.421
 2656POPC   GL137393  23.158  30.043   9.105
 2656POPC   GL237394  22.837  29.820   9.014
 2656POPC   C1A37395  23.188  29.973   8.682
 2656POPC   D2A37396  22.878  29.831   8.453
 2656POPC   C3A37397  22.969  30.029   8.115
 2656POPC   C4A37398  22.988  29.941   7.704
 2656POPC   C1B37399  22.583  29.474   8.736
 2656POPC   C2B37400  22.456  29.575   8.281
 2656POPC   C3B37401  22.538  29.833   7.890
 2656POPC   C4B37402  22.635  29.703   7.418
 2657POPC   NC337403   7.490  18.648   9.527
 2657POPC   PO437404   6.969  19.239   9.439
 2657POPC   GL137405   7.226  19.188   9.092
 2657POPC   GL237406   7.354  18.844   9.072
 2657POPC   C1A37407   7.485  19.289   8.751
 2657POPC   D2A37408   7.660  19.120   8.362
 2657POPC   C3A37409   7.468  19.197   8.005
 2657POPC   C4A37410   7.477  19.410   7.639
 2657POPC   C1B37411   7.593  18.786   8.712
 2657POPC   C2B37412   7.817  18.557   8.408
 2657POPC   C3B37413   7.875  18.672   8.018
 2657POPC   C4B37414   7.755  18.922   7.675
 2658POPC   NC337415   2.350  15.024   9.498
 2658POPC   PO437416   1.804  15.564   9.556
 2658POPC   GL137417   2.139  15.457   9.237
 2658POPC   GL237418   1.980  15.136   9.163
 2658POPC   C1A37419   2.311  15.314   8.816
 2658POPC   D2A37420   2.249  15.464   8.398
 2658POPC   C3A37421   2.096  15.284   8.013
 2658POPC   C4A37422   1.913  15.414   7.653
 2658POPC   C1B37423   1.802  15.357   8.798
 2658POPC   C2B37424   1.726  15.272   8.366
 2658POPC   C3B37425   1.526  15.371   7.963
 2658POPC   C4B37426   1.454  15.195   7.525
 2659POPC   NC337427   7.114  31.766   9.460
 2659POPC   PO437428   6.640  31.168   9.457
 2659POPC   GL137429   6.692  31.351   9.060
 2659POPC   GL237430   6.737  31.728   9.073
 2659POPC   C1A37431   6.830  31.429   8.654
 2659POPC   D2A37432   6.783  31.737   8.334
 2659POPC   C3A37433   6.689  31.525   7.924
 2659POPC   C4A37434   6.403  31.192   7.836
 2659POPC   C1B37435   7.058  31.916   8.779
 2659POPC   C2B37436   7.288  31.836   8.409
 2659POPC   C3B37437   7.177  31.661   7.994
 2659POPC   C4B37438   7.051  31.644   7.526
 2660POPC   NC337439  31.532   4.003   9.316
 2660POPC   PO437440  31.364   4.633   9.479
 2660POPC   GL137441  31.107   4.581   9.137
 2660POPC   GL237442  31.084   4.226   9.158
 2660POPC   C1A37443  31.239   4.568   8.716
 2660POPC   D2A37444  31.304   4.802   8.348
 2660POPC   C3A37445  31.285   4.534   8.024
 2660POPC   C4A37446  31.556   4.317   7.770
 2660POPC   C1B37447  31.180   4.043   8.761
 2660POPC   C2B37448  31.105   4.151   8.336
 2660POPC   C3B37449  31.159   4.038   7.894
 2660POPC   C4B37450  31.139   3.951   7.444
 2661POPC   NC337451   2.559  21.079   9.256
 2661POPC   PO437452   3.029  21.555   9.491
 2661POPC   GL137453   2.784  21.521   9.125
 2661POPC   GL237454   3.079  21.374   9.006
 2661POPC   C1A37455   2.559  21.444   8.702
 2661POPC   D2A37456   2.561  21.195   8.303
 2661POPC   C3A37457   2.487  21.308   7.873
 2661POPC   C4A37458   2.599  21.116   7.453
 2661POPC   C1B37459   2.999  21.230   8.612
 2661POPC   C2B37460   3.125  21.133   8.247
 2661POPC   C3B37461   2.973  21.193   7.865
 2661POPC   C4B37462   2.969  21.451   7.508
 2662POPC   NC337463   2.060   7.180   9.577
 2662POPC   PO437464   2.199   7.813   9.598
 2662POPC   GL137465   2.234   7.511   9.207
 2662POPC   GL237466   2.361   7.164   9.175
 2662POPC   C1A37467   2.136   7.461   8.756
 2662POPC   D2A37468   1.964   7.678   8.374
 2662POPC   C3A37469   2.057   7.669   7.885
 2662POPC   C4A37470   2.025   7.795   7.424
 2662POPC   C1B37471   2.330   6.895   8.830
 2662POPC   C2B37472   2.306   7.101   8.431
 2662POPC   C3B37473   2.026   7.231   8.120
 2662POPC   C4B37474   2.169   7.136   7.708
 2663POPC   NC337475  27.220  13.362   9.408
 2663POPC   PO437476  26.779  13.849   9.348
 2663POPC   GL137477  26.657  13.483   9.092
 2663POPC   GL237478  26.975  13.333   8.971
 2663POPC   C1A37479  26.611  13.454   8.636
 2663POPC   D2A37480  26.462  13.619   8.226
 2663POPC   C3A37481  26.665  13.468   7.833
 2663POPC   C4A37482  26.876  13.642   7.429
 2663POPC   C1B37483  27.034  13.736   8.761
 2663POPC   C2B37484  27.091  13.807   8.326
 2663POPC   C3B37485  27.027  13.813   7.888
 2663POPC   C4B37486  27.313  13.868   7.528
 2664POPC   NC337487  36.495  34.514   9.480
 2664POPC   PO437488  37.159  34.799   9.388
 2664POPC   GL137489  36.945  34.518   9.115
 2664POPC   GL237490  36.626  34.602   9.011
 2664POPC   C1A37491  36.922  34.351   8.696
 2664POPC   D2A37492  36.783  34.577   8.329
 2664POPC   C3A37493  36.753  34.352   7.969
 2664POPC   C4A37494  37.024  34.151   7.717
 2664POPC   C1B37495  36.839  34.872   8.760
 2664POPC   C2B37496  37.075  35.000   8.431
 2664POPC   C3B37497  37.110  34.918   8.018
 2664POPC   C4B37498  36.858  34.740   7.680
 2665POPC   NC337499  15.665  14.218   9.361
 2665POPC   PO437500  16.268  14.517   9.527
 2665POPC   GL137501  16.039  14.499   9.134
 2665POPC   GL237502  16.105  14.131   9.114
 2665POPC   C1A37503  15.800  14.337   8.745
 2665POPC   D2A37504  15.828  14.159   8.341
 2665POPC   C3A37505  15.697  14.459   8.012
 2665POPC   C4A37506  15.910  14.715   7.718
 2665POPC   C1B37507  16.311  14.248   8.747
 2665POPC   C2B37508  16.398  14.333   8.355
 2665POPC   C3B37509  16.193  14.367   8.005
 2665POPC   C4B37510  16.211  14.195   7.606
 2666POPC   NC337511   5.961   6.129   9.550
 2666POPC   PO437512   6.147   5.525   9.387
 2666POPC   GL137513   6.115   5.741   9.021
 2666POPC   GL237514   5.846   5.962   9.072
 2666POPC   C1A37515   5.933   5.750   8.617
 2666POPC   D2A37516   5.717   5.509   8.340
 2666POPC   C3A37517   5.942   5.647   8.012
 2666POPC   C4A37518   5.924   5.757   7.632
 2666POPC   C1B37519   5.747   6.226   8.718
 2666POPC   C2B37520   5.945   6.364   8.337
 2666POPC   C3B37521   5.885   6.189   7.921
 2666POPC   C4B37522   5.824   6.247   7.475
 2667POPC   NC337523  13.832   1.750   9.478
 2667POPC   PO437524  13.670   2.402   9.366
 2667POPC   GL137525  13.786   2.104   9.078
 2667POPC   GL237526  14.135   2.045   9.053
 2667POPC   C1A37527  13.793   2.132   8.645
 2667POPC   D2A37528  13.517   2.062   8.325
 2667POPC   C3A37529  13.688   2.087   7.926
 2667POPC   C4A37530  13.413   2.049   7.603
 2667POPC   C1B37531  13.969   1.662   8.842
 2667POPC   C2B37532  13.931   1.536   8.434
 2667POPC   C3B37533  13.765   1.571   8.027
 2667POPC   C4B37534  13.904   1.691   7.623
 2668POPC   NC337535   4.046   9.119   9.490
 2668POPC   PO437536   3.412   8.868   9.621
 2668POPC   GL137537   3.594   9.037   9.260
 2668POPC   GL237538   3.454   9.296   9.068
 2668POPC   C1A37539   3.750   8.899   8.874
 2668POPC   D2A37540   3.832   9.088   8.487
 2668POPC   C3A37541   3.593   8.943   8.157
 2668POPC   C4A37542   3.287   9.033   7.846
 2668POPC   C1B37543   3.847   9.449   8.864
 2668POPC   C2B37544   4.010   9.567   8.438
 2668POPC   C3B37545   3.818   9.400   8.066
 2668POPC   C4B37546   3.793   9.136   7.702
 2669POPC   NC337547  25.470  41.111   9.532
 2669POPC   PO437548  25.490  41.739   9.766
 2669POPC   GL137549  25.255  41.512   9.320
 2669POPC   GL237550  25.476  41.332   9.073
 2669POPC   C1A37551  25.037  41.598   8.893
 2669POPC   D2A37552  24.963  41.812   8.485
 2669POPC   C3A37553  25.186  41.676   8.113
 2669POPC   C4A37554  25.105  41.347   7.788
 2669POPC   C1B37555  25.220  41.114   8.776
 2669POPC   C2B37556  25.290  41.082   8.331
 2669POPC   C3B37557  25.612  41.247   8.053
 2669POPC   C4B37558  25.554  41.562   7.750
 2670POPC   NC337559  40.530  39.007   9.496
 2670POPC   PO437560  40.798  39.607   9.506
 2670POPC   GL137561  40.919  39.250   9.287
 2670POPC   GL237562  41.211  39.294   9.137
 2670POPC   C1A37563  40.777  39.097   8.893
 2670POPC   D2A37564  40.621  39.265   8.491
 2670POPC   C3A37565  40.745  39.058   8.123
 2670POPC   C4A37566  40.754  39.151   7.688
 2670POPC   C1B37567  41.081  39.451   8.704
 2670POPC   C2B37568  41.146  39.364   8.253
 2670POPC   C3B37569  41.168  39.611   7.873
 2670POPC   C4B37570  41.012  39.564   7.444
 2671POPC   NC337571  14.572  33.902   9.608
 2671POPC   PO437572  13.880  33.673   9.520
 2671POPC   GL137573  14.261  33.652   9.248
 2671POPC   GL237574  14.261  33.982   9.173
 2671POPC   C1A37575  14.423  33.577   8.825
 2671POPC   D2A37576  14.404  33.913   8.526
 2671POPC   C3A37577  14.548  33.836   8.130
 2671POPC   C4A37578  14.457  33.661   7.712
 2671POPC   C1B37579  14.507  34.246   8.909
 2671POPC   C2B37580  14.418  34.437   8.503
 2671POPC   C3B37581  14.358  34.280   8.087
 2671POPC   C4B37582  14.579  34.162   7.719
 2672POPC   NC337583  23.784  21.937   9.682
 2672POPC   PO437584  23.987  21.411   9.365
 2672POPC   GL137585  23.944  21.741   9.075
 2672POPC   GL237586  23.606  21.668   9.004
 2672POPC   C1A37587  23.889  21.853   8.618
 2672POPC   D2A37588  23.666  21.615   8.277
 2672POPC   C3A37589  23.881  21.426   7.909
 2672POPC   C4A37590  23.874  21.295   7.456
 2672POPC   C1B37591  23.853  21.347   8.716
 2672POPC   C2B37592  23.809  21.103   8.296
 2672POPC   C3B37593  23.498  21.071   7.888
 2672POPC   C4B37594  23.089  21.199   7.623
 2673POPC   NC337595  39.549  15.457   9.431
 2673POPC   PO437596  39.030  14.977   9.426
 2673POPC   GL137597  39.274  15.127   9.138
 2673POPC   GL237598  39.129  15.412   9.032
 2673POPC   C1A37599  39.297  15.036   8.727
 2673POPC   D2A37600  39.044  15.148   8.408
 2673POPC   C3A37601  39.099  14.852   8.126
 2673POPC   C4A37602  39.233  15.127   7.854
 2673POPC   C1B37603  39.314  15.585   8.672
 2673POPC   C2B37604  39.287  15.624   8.253
 2673POPC   C3B37605  38.909  15.511   8.060
 2673POPC   C4B37606  38.840  15.399   7.650
 2674POPC   NC337607  25.323  39.975   9.978
 2674POPC   PO437608  25.597  39.699   9.291
 2674POPC   GL137609  25.479  40.005   9.003
 2674POPC   GL237610  25.540  40.323   9.135
 2674POPC   C1A37611  25.388  39.943   8.613
 2674POPC   D2A37612  25.369  39.800   8.193
 2674POPC   C3A37613  25.133  40.008   7.883
 2674POPC   C4A37614  25.241  39.784   7.480
 2674POPC   C1B37615  25.525  40.441   8.700
 2674POPC   C2B37616  25.487  40.308   8.270
 2674POPC   C3B37617  25.621  40.165   7.873
 2674POPC   C4B37618  25.353  40.294   7.507
 2675POPC   NC337619  40.153  42.842   9.404
 2675POPC   PO437620  40.323  43.525   9.446
 2675POPC   GL137621  40.349  43.233   9.112
 2675POPC   GL237622  39.980  43.157   8.975
 2675POPC   C1A37623  40.390  42.985   8.737
 2675POPC   D2A37624  40.110  43.038   8.381
 2675POPC   C3A37625  40.246  43.112   7.980
 2675POPC   C4A37626  40.405  42.789   7.717
 2675POPC   C1B37627  39.666  42.980   8.626
 2675POPC   C2B37628  39.650  42.846   8.165
 2675POPC   C3B37629  39.858  42.890   7.720
 2675POPC   C4B37630  39.652  42.773   7.297
 2676POPC   NC337631  29.085  39.550   9.463
 2676POPC   PO437632  29.397  39.034   9.569
 2676POPC   GL137633  29.335  39.170   9.183
 2676POPC   GL237634  28.957  39.157   9.147
 2676POPC   C1A37635  29.566  39.199   8.799
 2676POPC   D2A37636  29.527  39.033   8.371
 2676POPC   C3A37637  29.394  39.358   8.176
 2676POPC   C4A37638  29.207  39.616   7.850
 2676POPC   C1B37639  29.107  39.451   8.817
 2676POPC   C2B37640  29.069  39.641   8.432
 2676POPC   C3B37641  28.903  39.321   8.185
 2676POPC   C4B37642  28.965  39.082   7.844
 2677POPC   NC337643  19.595  42.824   9.481
 2677POPC   PO437644  20.078  43.274   9.587
 2677POPC   GL137645  19.896  43.157   9.213
 2677POPC   GL237646  19.916  43.545   9.167
 2677POPC   C1A37647  19.875  42.908   8.810
 2677POPC   D2A37648  19.695  42.972   8.381
 2677POPC   C3A37649  19.929  42.828   7.981
 2677POPC   C4A37650  19.742  42.816   7.586
 2677POPC   C1B37651  19.728  43.395   8.787
 2677POPC   C2B37652  19.930  43.428   8.384
 2677POPC   C3B37653  19.778  43.308   7.954
 2677POPC   C4B37654  19.891  43.279   7.488
 2678POPC   NC337655   4.856  43.277   9.531
 2678POPC   PO437656   5.390  42.957   9.504
 2678POPC   GL137657   5.295  43.058   9.094
 2678POPC   GL237658   5.250  43.404   9.187
 2678POPC   C1A37659   5.248  43.033   8.613
 2678POPC   D2A37660   4.956  43.192   8.263
 2678POPC   C3A37661   4.985  43.080   7.824
 2678POPC   C4A37662   5.139  43.380   7.553
 2678POPC   C1B37663   5.496  43.501   8.805
 2678POPC   C2B37664   5.573  43.536   8.341
 2678POPC   C3B37665   5.433  43.231   8.042
 2678POPC   C4B37666   5.508  43.007   7.644
 2679POPC   NC337667  39.157  42.799   9.477
 2679POPC   PO437668  39.685  43.174   9.397
 2679POPC   GL137669  39.464  42.913   9.086
 2679POPC   GL237670  39.480  42.539   9.168
 2679POPC   C1A37671  39.057  43.033   8.854
 2679POPC   D2A37672  38.853  43.125   8.435
 2679POPC   C3A37673  39.142  43.077   8.067
 2679POPC   C4A37674  39.504  43.230   7.832
 2679POPC   C1B37675  39.169  42.536   8.856
 2679POPC   C2B37676  39.179  42.727   8.464
 2679POPC   C3B37677  39.182  42.568   8.077
 2679POPC   C4B37678  39.384  42.717   7.722
 2680POPC   NC337679   4.871  25.494   9.642
 2680POPC   PO437680   4.263  25.519   9.671
 2680POPC   GL137681   4.535  25.508   9.246
 2680POPC   GL237682   4.614  25.161   9.122
 2680POPC   C1A37683   4.466  25.496   8.759
 2680POPC   D2A37684   4.170  25.313   8.422
 2680POPC   C3A37685   4.228  25.471   7.991
 2680POPC   C4A37686   4.618  25.620   7.905
 2680POPC   C1B37687   4.533  25.002   8.675
 2680POPC   C2B37688   4.648  25.202   8.268
 2680POPC   C3B37689   4.529  25.073   7.860
 2680POPC   C4B37690   4.526  24.831   7.466
 2681POPC   NC337691  30.235  35.122   9.441
 2681POPC   PO437692  29.605  35.359   9.430
 2681POPC   GL137693  29.898  35.381   9.108
 2681POPC   GL237694  30.225  35.540   9.111
 2681POPC   C1A37695  29.824  35.171   8.732
 2681POPC   D2A37696  29.630  35.268   8.367
 2681POPC   C3A37697  29.812  35.469   8.011
 2681POPC   C4A37698  29.786  35.184   7.658
 2681POPC   C1B37699  30.097  35.628   8.703
 2681POPC   C2B37700  30.242  35.520   8.309
 2681POPC   C3B37701  30.306  35.685   7.920
 2681POPC   C4B37702  30.097  35.567   7.563
 2682POPC   NC337703  21.081  42.270   9.589
 2682POPC   PO437704  21.501  41.965   9.262
 2682POPC   GL137705  21.358  42.261   9.004
 2682POPC   GL237706  21.271  42.541   9.181
 2682POPC   C1A37707  21.593  42.429   8.675
 2682POPC   D2A37708  21.346  42.286   8.362
 2682POPC   C3A37709  21.436  42.373   7.989
 2682POPC   C4A37710  21.340  42.041   7.717
 2682POPC   C1B37711  21.175  42.696   8.766
 2682POPC   C2B37712  21.311  42.799   8.331
 2682POPC   C3B37713  21.100  42.761   7.895
 2682POPC   C4B37714  20.920  42.385   7.702
 2683POPC   NC337715  11.365  15.360   9.662
 2683POPC   PO437716  11.152  15.986   9.385
 2683POPC   GL137717  11.549  16.073   9.163
 2683POPC   GL237718  11.706  15.785   8.981
 2683POPC   C1A37719  11.507  16.201   8.739
 2683POPC   D2A37720  11.174  16.134   8.443
 2683POPC   C3A37721  11.384  16.082   8.089
 2683POPC   C4A37722  11.364  15.916   7.704
 2683POPC   C1B37723  11.406  15.693   8.616
 2683POPC   C2B37724  11.273  15.578   8.210
 2683POPC   C3B37725  11.243  15.433   7.799
 2683POPC   C4B37726  11.450  15.520   7.398
 2684POPC   NC337727   1.116  32.138   9.582
 2684POPC   PO437728   0.869  32.735   9.358
 2684POPC   GL137729   0.967  32.306   9.127
 2684POPC   GL237730   1.223  31.989   9.122
 2684POPC   C1A37731   0.979  32.164   8.693
 2684POPC   D2A37732   0.963  32.349   8.297
 2684POPC   C3A37733   0.938  32.103   7.916
 2684POPC   C4A37734   1.074  32.353   7.681
 2684POPC   C1B37735   1.469  32.276   8.860
 2684POPC   C2B37736   1.541  32.159   8.450
 2684POPC   C3B37737   1.428  32.237   8.048
 2684POPC   C4B37738   1.616  32.214   7.662
 2685POPC   NC337739   8.381  35.919   9.644
 2685POPC   PO437740   7.959  36.424   9.575
 2685POPC   GL137741   8.097  36.233   9.198
 2685POPC   GL237742   8.073  35.879   9.237
 2685POPC   C1A37743   8.170  36.335   8.762
 2685POPC   D2A37744   8.276  36.462   8.322
 2685POPC   C3A37745   8.324  36.208   7.961
 2685POPC   C4A37746   8.012  35.929   7.827
 2685POPC   C1B37747   8.095  35.818   8.788
 2685POPC   C2B37748   8.302  35.938   8.416
 2685POPC   C3B37749   8.453  35.720   8.056
 2685POPC   C4B37750   8.423  35.806   7.580
 2686POPC   NC337751   0.420   4.750   9.478
 2686POPC   PO437752   0.169   4.223   9.780
 2686POPC   GL137753   0.306   4.304   9.282
 2686POPC   GL237754   0.613   4.344   9.186
 2686POPC   C1A37755   0.360   4.609   8.841
 2686POPC   D2A37756   0.399   4.476   8.400
 2686POPC   C3A37757   0.123   4.452   8.038
 2686POPC   C4A37758   0.202   4.260   7.634
 2686POPC   C1B37759   0.337   4.113   8.820
 2686POPC   C2B37760   0.492   3.911   8.453
 2686POPC   C3B37761   0.510   4.081   8.061
 2686POPC   C4B37762   0.716   4.072   7.684
 2687POPC   NC337763  16.477  35.133   9.259
 2687POPC   PO437764  16.808  34.632   9.623
 2687POPC   GL137765  16.853  34.772   9.220
 2687POPC   GL237766  16.577  34.632   9.103
 2687POPC   C1A37767  16.811  34.904   8.758
 2687POPC   D2A37768  16.643  34.797   8.376
 2687POPC   C3A37769  16.857  34.752   8.037
 2687POPC   C4A37770  16.907  34.390   7.846
 2687POPC   C1B37771  16.381  34.561   8.739
 2687POPC   C2B37772  16.350  34.347   8.391
 2687POPC   C3B37773  16.415  34.469   8.002
 2687POPC   C4B37774  16.509  34.537   7.589
 2688POPC   NC337775   3.729   3.528   9.548
 2688POPC   PO437776   3.152   3.939   9.592
 2688POPC   GL137777   3.452   3.848   9.176
 2688POPC   GL237778   3.607   3.500   9.074
 2688POPC   C1A37779   3.413   3.739   8.682
 2688POPC   D2A37780   3.353   3.681   8.215
 2688POPC   C3A37781   3.657   3.599   7.885
 2688POPC   C4A37782   3.456   3.698   7.498
 2688POPC   C1B37783   3.646   3.210   8.731
 2688POPC   C2B37784   3.661   3.268   8.292
 2688POPC   C3B37785   3.530   3.044   7.931
 2688POPC   C4B37786   3.522   3.186   7.489
 2689POPC   NC337787   2.975  29.614   9.471
 2689POPC   PO437788   3.412  30.146   9.536
 2689POPC   GL137789   3.688  30.106   9.169
 2689POPC   GL237790   3.620  29.757   9.081
 2689POPC   C1A37791   3.652  30.189   8.736
 2689POPC   D2A37792   3.424  30.189   8.342
 2689POPC   C3A37793   3.663  30.153   7.981
 2689POPC   C4A37794   4.052  30.261   7.859
 2689POPC   C1B37795   3.522  29.691   8.643
 2689POPC   C2B37796   3.543  29.669   8.191
 2689POPC   C3B37797   3.479  29.526   7.773
 2689POPC   C4B37798   3.235  29.620   7.378
 2690POPC   NC337799  31.213   5.071   9.460
 2690POPC   PO437800  31.777   5.547   9.503
 2690POPC   GL137801  31.707   5.215   9.201
 2690POPC   GL237802  31.423   5.408   9.151
 2690POPC   C1A37803  31.690   4.952   8.775
 2690POPC   D2A37804  31.734   5.137   8.325
 2690POPC   C3A37805  31.664   4.883   7.948
 2690POPC   C4A37806  31.302   4.929   7.705
 2690POPC   C1B37807  31.564   5.428   8.749
 2690POPC   C2B37808  31.244   5.292   8.438
 2690POPC   C3B37809  31.106   5.386   8.032
 2690POPC   C4B37810  31.512   5.367   7.893
 2691POPC   NC337811   3.312  44.908   5.425
 2691POPC   PO437812   3.427   0.502   5.450
 2691POPC   GL137813   3.521   0.411   5.876
 2691POPC   GL237814   3.292   0.162   5.966
 2691POPC   C1A37815   3.616   0.289   6.302
 2691POPC   D2A37816   3.370   0.310   6.671
 2691POPC   C3A37817   3.619   0.289   7.014
 2691POPC   C4A37818   3.674   0.573   7.290
 2691POPC   C1B37819   3.204   0.584   6.235
 2691POPC   C2B37820   3.074   0.752   6.659
 2691POPC   C3B37821   3.176   0.601   7.097
 2691POPC   C4B37822   3.289   0.235   7.392
 2692POPC   NC337823   0.157  34.630   5.186
 2692POPC   PO437824  44.561  34.376   5.501
 2692POPC   GL137825  44.540  34.628   5.863
 2692POPC   GL237826  44.774  34.925   5.799
 2692POPC   C1A37827  44.674  34.468   6.270
 2692POPC   D2A37828  44.582  34.584   6.639
 2692POPC   C3A37829  44.628  34.374   6.994
 2692POPC   C4A37830  44.438  34.242   7.381
 2692POPC   C1B37831   0.006  34.858   6.215
 2692POPC   C2B37832   0.101  34.647   6.599
 2692POPC   C3B37833  44.909  34.814   6.958
 2692POPC   C4B37834  44.768  34.734   7.355
 2693POPC   NC337835  21.797  27.509   5.361
 2693POPC   PO437836  21.217  27.790   5.236
 2693POPC   GL137837  21.214  27.668   5.672
 2693POPC   GL237838  21.425  27.371   5.704
 2693POPC   C1A37839  21.211  27.752   6.132
 2693POPC   D2A37840  21.510  27.808   6.479
 2693POPC   C3A37841  21.401  28.012   6.850
 2693POPC   C4A37842  21.253  27.866   7.208
 2693POPC   C1B37843  21.310  27.264   6.140
 2693POPC   C2B37844  21.140  27.449   6.562
 2693POPC   C3B37845  20.986  27.485   7.002
 2693POPC   C4B37846  20.978  27.431   7.476
 2694POPC   NC337847   0.624   3.954   5.393
 2694POPC   PO437848   0.497   3.311   5.329
 2694POPC   GL137849   0.430   3.439   5.722
 2694POPC   GL237850   0.701   3.630   5.789
 2694POPC   C1A37851   0.356   3.231   6.127
 2694POPC   D2A37852   0.169   3.425   6.497
 2694POPC   C3A37853   0.362   3.481   6.902
 2694POPC   C4A37854   0.204   3.486   7.314
 2694POPC   C1B37855   0.791   3.909   6.124
 2694POPC   C2B37856   0.591   3.899   6.517
 2694POPC   C3B37857   0.716   4.011   6.932
 2694POPC   C4B37858   0.699   3.729   7.263
 2695POPC   NC337859   2.693  31.840   5.533
 2695POPC   PO437860   3.012  31.309   5.423
 2695POPC   GL137861   2.871  31.475   5.813
 2695POPC   GL237862   2.528  31.375   5.741
 2695POPC   C1A37863   2.933  31.767   6.181
 2695POPC   D2A37864   2.831  31.873   6.617
 2695POPC   C3A37865   2.987  31.610   6.904
 2695POPC   C4A37866   2.941  31.509   7.267
 2695POPC   C1B37867   2.508  31.472   6.186
 2695POPC   C2B37868   2.674  31.375   6.587
 2695POPC   C3B37869   2.508  31.394   7.013
 2695POPC   C4B37870   2.558  31.203   7.441
 2696POPC   NC337871  21.089  26.013   5.481
 2696POPC   PO437872  21.504  26.474   5.504
 2696POPC   GL137873  21.344  26.336   5.917
 2696POPC   GL237874  20.987  26.406   5.888
 2696POPC   C1A37875  21.500  26.003   6.243
 2696POPC   D2A37876  21.703  25.737   6.589
 2696POPC   C3A37877  21.656  25.890   7.043
 2696POPC   C4A37878  21.541  26.275   7.320
 2696POPC   C1B37879  20.971  26.081   6.229
 2696POPC   C2B37880  20.979  26.107   6.693
 2696POPC   C3B37881  21.069  26.244   7.112
 2696POPC   C4B37882  21.064  26.309   7.568
 2697POPC   NC337883  19.680   3.387   5.360
 2697POPC   PO437884  19.779   4.020   5.487
 2697POPC   GL137885  19.627   3.649   5.831
 2697POPC   GL237886  19.607   3.257   5.832
 2697POPC   C1A37887  19.835   3.456   6.245
 2697POPC   D2A37888  19.995   3.326   6.690
 2697POPC   C3A37889  19.904   3.653   7.052
 2697POPC   C4A37890  19.538   3.910   7.209
 2697POPC   C1B37891  19.461   3.116   6.233
 2697POPC   C2B37892  19.493   3.334   6.630
 2697POPC   C3B37893  19.620   3.241   7.045
 2697POPC   C4B37894  19.593   2.911   7.312
 2698POPC   NC337895   6.782  40.607   5.500
 2698POPC   PO437896   6.353  41.144   5.470
 2698POPC   GL137897   6.593  40.949   5.818
 2698POPC   GL237898   6.912  41.130   5.796
 2698POPC   C1A37899   6.494  40.715   6.248
 2698POPC   D2A37900   6.515  40.437   6.624
 2698POPC   C3A37901   6.431  40.634   7.023
 2698POPC   C4A37902   6.598  40.632   7.434
 2698POPC   C1B37903   6.974  40.863   6.176
 2698POPC   C2B37904   6.943  40.728   6.616
 2698POPC   C3B37905   6.892  40.874   7.041
 2698POPC   C4B37906   7.074  40.779   7.477
 2699POPC   NC337907   1.542  32.183   5.466
 2699POPC   PO437908   2.253  31.947   5.452
 2699POPC   GL137909   1.969  32.138   5.787
 2699POPC   GL237910   2.041  32.466   5.783
 2699POPC   C1A37911   2.051  32.280   6.249
 2699POPC   D2A37912   1.918  32.114   6.655
 2699POPC   C3A37913   2.127  32.278   7.019
 2699POPC   C4A37914   2.125  32.099   7.450
 2699POPC   C1B37915   1.642  32.512   6.084
 2699POPC   C2B37916   1.751  32.607   6.517
 2699POPC   C3B37917   1.726  32.619   6.947
 2699POPC   C4B37918   1.838  32.535   7.354
 2700POPC   NC337919  20.468  31.707   5.635
 2700POPC   PO437920  20.830  32.135   5.249
 2700POPC   GL137921  20.794  32.147   5.745
 2700POPC   GL237922  20.520  32.336   5.915
 2700POPC   C1A37923  20.865  32.185   6.235
 2700POPC   D2A37924  20.667  32.037   6.646
 2700POPC   C3A37925  20.833  32.102   7.055
 2700POPC   C4A37926  20.772  32.224   7.481
 2700POPC   C1B37927  20.350  32.199   6.287
 2700POPC   C2B37928  20.273  32.382   6.707
 2700POPC   C3B37929  20.351  32.289   7.155
 2700POPC   C4B37930  20.194  32.177   7.587
 2701POPC   NC337931  14.394  25.988   5.340
 2701POPC   PO437932  14.281  26.649   5.030
 2701POPC   GL137933  14.201  26.360   5.597
 2701POPC   GL237934  14.460  26.114   5.814
 2701POPC   C1A37935  14.150  26.296   6.137
 2701POPC   D2A37936  14.425  26.152   6.509
 2701POPC   C3A37937  14.326  26.234   6.943
 2701POPC   C4A37938  14.309  26.154   7.412
 2701POPC   C1B37939  14.344  25.763   6.169
 2701POPC   C2B37940  14.474  25.604   6.620
 2701POPC   C3B37941  14.504  25.768   7.079
 2701POPC   C4B37942  14.402  25.684   7.566
 2702POPC   NC337943  42.926   3.149   5.388
 2702POPC   PO437944  43.259   2.531   5.468
 2702POPC   GL137945  43.034   2.807   5.795
 2702POPC   GL237946  43.288   2.971   5.950
 2702POPC   C1A37947  42.885   2.931   6.259
 2702POPC   D2A37948  43.092   2.818   6.676
 2702POPC   C3A37949  42.863   2.881   7.052
 2702POPC   C4A37950  43.005   2.995   7.445
 2702POPC   C1B37951  43.247   2.564   6.206
 2702POPC   C2B37952  43.428   2.419   6.594
 2702POPC   C3B37953  43.286   2.416   7.006
 2702POPC   C4B37954  43.316   2.384   7.447
 2703POPC   NC337955   6.925  38.369   5.371
 2703POPC   PO437956   7.533  38.651   5.433
 2703POPC   GL137957   7.515  38.594   5.850
 2703POPC   GL237958   7.219  38.419   5.786
 2703POPC   C1A37959   7.497  38.722   6.287
 2703POPC   D2A37960   7.335  38.851   6.697
 2703POPC   C3A37961   7.572  38.694   7.070
 2703POPC   C4A37962   7.826  38.639   7.417
 2703POPC   C1B37963   7.324  38.222   6.150
 2703POPC   C2B37964   7.198  38.366   6.554
 2703POPC   C3B37965   7.261  38.288   6.988
 2703POPC   C4B37966   7.093  38.373   7.378
 2704POPC   NC337967  24.431  10.233   5.188
 2704POPC   PO437968  24.274  10.940   5.353
 2704POPC   GL137969  24.481  10.725   5.795
 2704POPC   GL237970  24.222  10.586   6.016
 2704POPC   C1A37971  24.696  10.507   6.129
 2704POPC   D2A37972  24.506  10.326   6.468
 2704POPC   C3A37973  24.580  10.572   6.813
 2704POPC   C4A37974  24.538  10.609   7.252
 2704POPC   C1B37975  24.256  10.787   6.447
 2704POPC   C2B37976  24.090  10.642   6.876
 2704POPC   C3B37977  24.140  10.299   7.212
 2704POPC   C4B37978  24.355  10.195   7.623
 2705POPC   NC337979  20.975   9.478   5.306
 2705POPC   PO437980  20.638  10.027   5.511
 2705POPC   GL137981  20.559   9.812   5.871
 2705POPC   GL237982  20.645   9.462   5.788
 2705POPC   C1A37983  20.501   9.699   6.291
 2705POPC   D2A37984  20.680   9.705   6.708
 2705POPC   C3A37985  20.388   9.925   6.943
 2705POPC   C4A37986  20.383  10.152   7.305
 2705POPC   C1B37987  20.907   9.424   6.184
 2705POPC   C2B37988  20.961   9.262   6.637
 2705POPC   C3B37989  20.960   9.439   7.076
 2705POPC   C4B37990  20.697   9.739   7.316
 2706POPC   NC337991  34.221   6.012   5.450
 2706POPC   PO437992  34.858   5.751   5.634
 2706POPC   GL137993  34.651   5.782   6.034
 2706POPC   GL237994  34.388   5.977   5.927
 2706POPC   C1A37995  34.339   5.763   6.382
 2706POPC   D2A37996  34.291   5.826   6.812
 2706POPC   C3A37997  34.591   5.631   7.115
 2706POPC   C4A37998  34.498   5.485   7.484
 2706POPC   C1B37999  34.555   6.222   6.298
 2706POPC   C2B38000  34.512   6.293   6.754
 2706POPC   C3B38001  34.480   6.109   7.181
 2706POPC   C4B38002  34.336   5.960   7.611
 2707POPC   NC338003   6.592  28.924   5.562
 2707POPC   PO438004   6.822  29.472   5.632
 2707POPC   GL138005   6.480  29.517   5.940
 2707POPC   GL238006   6.382  29.183   5.977
 2707POPC   C1A38007   6.424  29.595   6.375
 2707POPC   D2A38008   6.622  29.467   6.748
 2707POPC   C3A38009   6.383  29.456   7.118
 2707POPC   C4A38010   6.359  29.101   7.391
 2707POPC   C1B38011   6.736  29.193   6.272
 2707POPC   C2B38012   6.889  29.029   6.676
 2707POPC   C3B38013   6.810  29.123   7.117
 2707POPC   C4B38014   6.809  29.481   7.380
 2708POPC   NC338015  12.613  44.085   5.618
 2708POPC   PO438016  12.934  43.560   5.330
 2708POPC   GL138017  13.014  43.739   5.749
 2708POPC   GL238018  13.256  43.536   5.814
 2708POPC   C1A38019  13.049  43.948   6.203
 2708POPC   D2A38020  12.690  44.134   6.459
 2708POPC   C3A38021  12.702  44.090   6.900
 2708POPC   C4A38022  12.701  44.328   7.276
 2708POPC   C1B38023  12.877  43.482   6.169
 2708POPC   C2B38024  12.910  43.640   6.598
 2708POPC   C3B38025  13.078  43.759   6.982
 2708POPC   C4B38026  12.911  43.876   7.371
 2709POPC   NC338027  16.549  11.812   5.093
 2709POPC   PO438028  16.555  11.125   5.347
 2709POPC   GL138029  16.463  11.165   5.780
 2709POPC   GL238030  16.761  11.337   5.821
 2709POPC   C1A38031  16.311  11.049   6.177
 2709POPC   D2A38032  16.544  11.191   6.505
 2709POPC   C3A38033  16.442  11.213   6.910
 2709POPC   C4A38034  16.575  11.338   7.282
 2709POPC   C1B38035  16.681  11.574   6.188
 2709POPC   C2B38036  16.691  11.742   6.589
 2709POPC   C3B38037  16.822  11.664   6.995
 2709POPC   C4B38038  17.188  11.543   7.226
 2710POPC   NC338039  16.892  29.915   5.322
 2710POPC   PO438040  16.206  29.959   5.329
 2710POPC   GL138041  16.527  29.812   5.690
 2710POPC   GL238042  16.914  29.898   5.822
 2710POPC   C1A38043  16.545  29.820   6.169
 2710POPC   D2A38044  16.302  29.752   6.567
 2710POPC   C3A38045  16.284  29.968   6.948
 2710POPC   C4A38046  16.452  30.053   7.352
 2710POPC   C1B38047  16.937  30.162   6.189
 2710POPC   C2B38048  16.721  30.087   6.579
 2710POPC   C3B38049  16.805  29.942   6.977
 2710POPC   C4B38050  16.955  30.185   7.314
 2711POPC   NC338051  23.252  44.917   5.503
 2711POPC   PO438052  22.732  44.556   5.605
 2711POPC   GL138053  22.826  44.772   5.965
 2711POPC   GL238054  23.162  44.670   5.971
 2711POPC   C1A38055  22.884  44.847   6.400
 2711POPC   D2A38056  22.933  44.551   6.730
 2711POPC   C3A38057  22.831  44.689   7.131
 2711POPC   C4A38058  22.568  44.483   7.428
 2711POPC   C1B38059  23.310   0.050   6.184
 2711POPC   C2B38060  23.223   0.249   6.585
 2711POPC   C3B38061  23.185   0.054   6.982
 2711POPC   C4B38062  23.306  44.740   7.304
 2712POPC   NC338063  40.367   1.040   5.404
 2712POPC   PO438064  39.795   1.020   5.397
 2712POPC   GL138065  39.893   1.172   5.825
 2712POPC   GL238066  40.266   1.167   5.907
 2712POPC   C1A38067  39.893   1.201   6.299
 2712POPC   D2A38068  40.169   1.209   6.691
 2712POPC   C3A38069  39.965   1.248   7.094
 2712POPC   C4A38070  39.762   1.011   7.438
 2712POPC   C1B38071  40.534   1.128   6.296
 2712POPC   C2B38072  40.616   0.948   6.718
 2712POPC   C3B38073  40.413   0.996   7.137
 2712POPC   C4B38074  40.248   1.219   7.524
 2713POPC   NC338075  34.629   6.923   5.517
 2713POPC   PO438076  34.562   6.328   5.327
 2713POPC   GL138077  34.591   6.445   5.786
 2713POPC   GL238078  34.868   6.234   5.879
 2713POPC   C1A38079  34.616   6.705   6.187
 2713POPC   D2A38080  34.653   6.963   6.551
 2713POPC   C3A38081  34.519   6.818   6.925
 2713POPC   C4A38082  34.342   6.584   7.256
 2713POPC   C1B38083  35.053   6.378   6.255
 2713POPC   C2B38084  34.943   6.551   6.663
 2713POPC   C3B38085  34.853   6.481   7.111
 2713POPC   C4B38086  35.083   6.655   7.457
 2714POPC   NC338087  31.149  11.799   5.419
 2714POPC   PO438088  31.308  12.500   5.404
 2714POPC   GL138089  31.247  12.185   5.733
 2714POPC   GL238090  31.530  11.956   5.745
 2714POPC   C1A38091  31.325  12.233   6.152
 2714POPC   D2A38092  31.557  12.369   6.498
 2714POPC   C3A38093  31.348  12.311   6.888
 2714POPC   C4A38094  31.521  12.227   7.291
 2714POPC   C1B38095  31.743  11.929   6.147
 2714POPC   C2B38096  31.923  11.990   6.539
 2714POPC   C3B38097  31.799  11.979   6.956
 2714POPC   C4B38098  31.899  11.846   7.376
 2715POPC   NC338099   1.146  43.437   5.430
 2715POPC   PO438100   1.382  42.861   5.318
 2715POPC   GL138101   1.229  43.082   5.765
 2715POPC   GL238102   1.474  43.389   5.800
 2715POPC   C1A38103   1.009  43.286   6.161
 2715POPC   D2A38104   0.879  43.172   6.605
 2715POPC   C3A38105   1.087  43.343   6.974
 2715POPC   C4A38106   1.008  43.312   7.416
 2715POPC   C1B38107   1.512  43.224   6.212
 2715POPC   C2B38108   1.383  43.051   6.602
 2715POPC   C3B38109   1.602  43.225   6.935
 2715POPC   C4B38110   1.511  43.366   7.333
 2716POPC   NC338111   8.659  42.574   5.372
 2716POPC   PO438112   9.274  42.549   5.442
 2716POPC   GL138113   9.115  42.401   5.844
 2716POPC   GL238114   8.761  42.329   5.809
 2716POPC   C1A38115   9.214  42.422   6.264
 2716POPC   D2A38116   9.076  42.631   6.619
 2716POPC   C3A38117   9.260  42.452   6.937
 2716POPC   C4A38118   9.247  42.308   7.337
 2716POPC   C1B38119   8.728  42.316   6.255
 2716POPC   C2B38120   8.886  42.155   6.639
 2716POPC   C3B38121   8.794  42.309   7.060
 2716POPC   C4B38122   8.773  42.310   7.520
 2717POPC   NC338123  11.326  41.832   5.354
 2717POPC   PO438124  11.132  41.203   5.466
 2717POPC   GL138125  11.121  41.536   5.736
 2717POPC   GL238126  11.473  41.512   5.809
 2717POPC   C1A38127  11.036  41.753   6.151
 2717POPC   D2A38128  10.928  41.603   6.592
 2717POPC   C3A38129  11.102  41.594   7.056
 2717POPC   C4A38130  11.150  41.730   7.511
 2717POPC   C1B38131  11.677  41.247   6.155
 2717POPC   C2B38132  11.533  41.210   6.574
 2717POPC   C3B38133  11.592  41.429   6.979
 2717POPC   C4B38134  11.573  41.473   7.432
 2718POPC   NC338135  30.693  33.177   5.617
 2718POPC   PO438136  30.695  33.797   5.317
 2718POPC   GL138137  30.573  33.668   5.724
 2718POPC   GL238138  30.449  33.985   5.788
 2718POPC   C1A38139  30.723  33.734   6.159
 2718POPC   D2A38140  30.862  33.947   6.540
 2718POPC   C3A38141  30.896  33.717   6.932
 2718POPC   C4A38142  31.130  33.800   7.312
 2718POPC   C1B38143  30.472  34.194   6.192
 2718POPC   C2B38144  30.361  34.121   6.612
 2718POPC   C3B38145  30.621  34.179   6.947
 2718POPC   C4B38146  30.637  34.022   7.335
 2719POPC   NC338147  25.181   7.908   4.919
 2719POPC   PO438148  25.282   8.340   5.234
 2719POPC   GL138149  25.180   8.374   5.681
 2719POPC   GL238150  25.512   8.456   5.802
 2719POPC   C1A38151  25.140   8.444   6.156
 2719POPC   D2A38152  25.422   8.385   6.530
 2719POPC   C3A38153  25.328   8.191   6.966
 2719POPC   C4A38154  25.520   7.831   7.262
 2719POPC   C1B38155  25.568   8.759   6.146
 2719POPC   C2B38156  25.584   8.868   6.557
 2719POPC   C3B38157  25.639   8.608   6.945
 2719POPC   C4B38158  25.726   8.298   7.277
 2720POPC   NC338159  40.880  26.272   5.392
 2720POPC   PO438160  40.529  25.732   5.437
 2720POPC   GL138161  40.650  26.007   5.757
 2720POPC   GL238162  40.970  25.895   5.794
 2720POPC   C1A38163  40.673  25.992   6.213
 2720POPC   D2A38164  40.757  25.712   6.563
 2720POPC   C3A38165  40.871  25.920   6.923
 2720POPC   C4A38166  40.686  25.878   7.288
 2720POPC   C1B38167  41.078  26.263   6.052
 2720POPC   C2B38168  40.964  26.490   6.420
 2720POPC   C3B38169  41.077  26.467   6.853
 2720POPC   C4B38170  41.028  26.326   7.281
 2721POPC   NC338171  32.982   9.253   5.408
 2721POPC   PO438172  32.734   8.591   5.464
 2721POPC   GL138173  32.916   8.641   5.914
 2721POPC   GL238174  33.121   8.948   5.898
 2721POPC   C1A38175  32.938   8.872   6.367
 2721POPC   D2A38176  32.703   9.041   6.746
 2721POPC   C3A38177  32.597   8.696   7.021
 2721POPC   C4A38178  32.984   8.527   7.159
 2721POPC   C1B38179  33.388   8.676   6.168
 2721POPC   C2B38180  33.432   8.704   6.633
 2721POPC   C3B38181  33.234   8.964   6.968
 2721POPC   C4B38182  33.311   9.236   7.332
 2722POPC   NC338183  28.604  12.322   5.492
 2722POPC   PO438184  29.036  12.864   5.400
 2722POPC   GL138185  29.028  12.761   5.821
 2722POPC   GL238186  28.791  12.517   5.928
 2722POPC   C1A38187  29.265  12.698   6.194
 2722POPC   D2A38188  29.511  12.981   6.455
 2722POPC   C3A38189  29.443  13.003   6.894
 2722POPC   C4A38190  29.289  12.925   7.329
 2722POPC   C1B38191  28.767  12.838   6.256
 2722POPC   C2B38192  29.018  12.884   6.615
 2722POPC   C3B38193  28.901  12.842   7.019
 2722POPC   C4B38194  28.648  12.537   7.228
 2723POPC   NC338195   5.508  24.092   5.044
 2723POPC   PO438196   5.057  23.661   5.392
 2723POPC   GL138197   5.128  23.527   5.854
 2723POPC   GL238198   4.891  23.270   5.871
 2723POPC   C1A38199   5.342  23.565   6.292
 2723POPC   D2A38200   5.319  23.762   6.726
 2723POPC   C3A38201   5.130  23.644   7.125
 2723POPC   C4A38202   5.157  23.600   7.585
 2723POPC   C1B38203   4.893  23.340   6.296
 2723POPC   C2B38204   4.858  23.533   6.690
 2723POPC   C3B38205   4.664  23.429   7.086
 2723POPC   C4B38206   4.584  23.306   7.539
 2724POPC   NC338207  22.353  44.528   5.349
 2724POPC   PO438208  21.880  44.939   5.456
 2724POPC   GL138209  22.208  44.845   5.781
 2724POPC   GL238210  22.290  44.485   5.871
 2724POPC   C1A38211  22.315  44.876   6.214
 2724POPC   D2A38212  22.452  44.567   6.490
 2724POPC   C3A38213  22.367  44.580   6.921
 2724POPC   C4A38214  22.247  44.224   7.160
 2724POPC   C1B38215  21.894  44.541   6.113
 2724POPC   C2B38216  21.717  44.493   6.532
 2724POPC   C3B38217  21.855  44.511   6.972
 2724POPC   C4B38218  22.091  44.669   7.378
 2725POPC   NC338219  28.981  36.925   5.322
 2725POPC   PO438220  29.575  36.639   5.495
 2725POPC   GL138221  29.259  36.855   5.771
 2725POPC   GL238222  28.941  36.666   5.809
 2725POPC   C1A38223  28.983  37.067   6.102
 2725POPC   D2A38224  29.131  37.081   6.505
 2725POPC   C3A38225  28.856  37.076   6.817
 2725POPC   C4A38226  29.065  37.075   7.157
 2725POPC   C1B38227  29.159  36.593   6.269
 2725POPC   C2B38228  29.142  36.596   6.748
 2725POPC   C3B38229  28.832  36.600   7.083
 2725POPC   C4B38230  28.803  36.815   7.516
 2726POPC   NC338231  28.054   0.477   5.347
 2726POPC   PO438232  28.402   1.036   5.343
 2726POPC   GL138233  28.411   0.675   5.719
 2726POPC   GL238234  28.126   0.469   5.849
 2726POPC   C1A38235  28.659   0.657   6.177
 2726POPC   D2A38236  28.817   0.727   6.650
 2726POPC   C3A38237  28.542   0.618   7.032
 2726POPC   C4A38238  28.307   0.247   7.086
 2726POPC   C1B38239  28.159   0.683   6.229
 2726POPC   C2B38240  28.317   0.471   6.578
 2726POPC   C3B38241  28.007   0.574   6.852
 2726POPC   C4B38242  28.044   0.686   7.240
 2727POPC   NC338243  26.338  12.287   5.096
 2727POPC   PO438244  25.729  12.023   5.258
 2727POPC   GL138245  26.125  11.977   5.608
 2727POPC   GL238246  26.265  12.318   5.798
 2727POPC   C1A38247  26.060  11.936   6.079
 2727POPC   D2A38248  25.728  12.116   6.380
 2727POPC   C3A38249  25.865  12.186   6.811
 2727POPC   C4A38250  26.113  11.966   7.135
 2727POPC   C1B38251  26.249  12.395   6.264
 2727POPC   C2B38252  26.403  12.278   6.680
 2727POPC   C3B38253  26.250  12.463   7.079
 2727POPC   C4B38254  25.864  12.387   7.302
 2728POPC   NC338255   8.092  14.074   5.275
 2728POPC   PO438256   8.278  13.451   5.434
 2728POPC   GL138257   8.179  13.639   5.818
 2728POPC   GL238258   8.255  13.988   5.781
 2728POPC   C1A38259   7.989  13.467   6.207
 2728POPC   D2A38260   8.237  13.488   6.572
 2728POPC   C3A38261   8.166  13.329   6.967
 2728POPC   C4A38262   8.447  13.561   7.222
 2728POPC   C1B38263   8.130  13.992   6.213
 2728POPC   C2B38264   8.238  14.009   6.649
 2728POPC   C3B38265   8.019  13.818   6.970
 2728POPC   C4B38266   7.987  13.715   7.374
 2729POPC   NC338267  44.347  41.016   5.409
 2729POPC   PO438268  44.883  40.640   5.321
 2729POPC   GL138269  44.555  40.627   5.659
 2729POPC   GL238270  44.559  40.967   5.873
 2729POPC   C1A38271  44.445  40.510   6.084
 2729POPC   D2A38272  44.558  40.704   6.463
 2729POPC   C3A38273  44.608  40.590   6.876
 2729POPC   C4A38274  44.289  40.782   7.104
 2729POPC   C1B38275  44.898  41.006   6.202
 2729POPC   C2B38276  44.879  41.060   6.637
 2729POPC   C3B38277  44.767  41.050   7.047
 2729POPC   C4B38278   0.032  41.136   7.400
 2730POPC   NC338279  13.103  38.099   5.436
 2730POPC   PO438280  12.690  38.640   5.507
 2730POPC   GL138281  12.800  38.352   5.782
 2730POPC   GL238282  13.159  38.349   5.866
 2730POPC   C1A38283  12.794  38.448   6.201
 2730POPC   D2A38284  12.920  38.676   6.532
 2730POPC   C3A38285  12.756  38.455   6.854
 2730POPC   C4A38286  12.840  38.378   7.239
 2730POPC   C1B38287  13.158  38.061   6.217
 2730POPC   C2B38288  13.186  37.816   6.622
 2730POPC   C3B38289  13.176  37.941   7.077
 2730POPC   C4B38290  12.936  37.920   7.471
 2731POPC   NC338291  42.787   3.661   5.331
 2731POPC   PO438292  43.391   3.634   5.630
 2731POPC   GL138293  42.986   3.620   5.851
 2731POPC   GL238294  42.858   3.292   5.875
 2731POPC   C1A38295  42.786   3.736   6.294
 2731POPC   D2A38296  42.928   3.909   6.725
 2731POPC   C3A38297  43.037   3.644   7.113
 2731POPC   C4A38298  42.962   3.518   7.544
 2731POPC   C1B38299  43.134   3.362   6.257
 2731POPC   C2B38300  43.053   3.339   6.685
 2731POPC   C3B38301  43.295   3.188   7.029
 2731POPC   C4B38302  43.407   3.292   7.461
 2732POPC   NC338303  26.184   1.848   5.394
 2732POPC   PO438304  25.879   2.437   5.370
 2732POPC   GL138305  25.888   2.147   5.724
 2732POPC   GL238306  25.624   1.925   5.599
 2732POPC   C1A38307  26.150   1.943   6.102
 2732POPC   D2A38308  26.320   1.881   6.553
 2732POPC   C3A38309  26.059   2.036   6.913
 2732POPC   C4A38310  25.601   2.043   7.027
 2732POPC   C1B38311  25.645   1.855   6.066
 2732POPC   C2B38312  25.815   1.666   6.462
 2732POPC   C3B38313  26.041   1.422   6.786
 2732POPC   C4B38314  26.051   1.617   7.201
 2733POPC   NC338315  20.456  31.864   5.130
 2733POPC   PO438316  20.736  31.339   5.503
 2733POPC   GL138317  20.936  31.543   5.847
 2733POPC   GL238318  21.066  31.194   5.879
 2733POPC   C1A38319  20.701  31.708   6.235
 2733POPC   D2A38320  20.339  31.687   6.525
 2733POPC   C3A38321  20.465  31.696   6.968
 2733POPC   C4A38322  20.460  31.363   7.247
 2733POPC   C1B38323  20.969  31.277   6.322
 2733POPC   C2B38324  20.936  31.583   6.679
 2733POPC   C3B38325  20.944  31.563   7.127
 2733POPC   C4B38326  20.734  31.716   7.506
 2734POPC   NC338327  24.562  26.047   5.196
 2734POPC   PO438328  24.985  26.249   5.641
 2734POPC   GL138329  24.658  25.896   5.792
 2734POPC   GL238330  24.430  25.604   5.806
 2734POPC   C1A38331  24.565  25.966   6.209
 2734POPC   D2A38332  24.806  26.011   6.569
 2734POPC   C3A38333  24.527  25.914   6.878
 2734POPC   C4A38334  24.395  26.155   7.193
 2734POPC   C1B38335  24.639  25.466   6.188
 2734POPC   C2B38336  24.763  25.490   6.609
 2734POPC   C3B38337  24.646  25.448   7.033
 2734POPC   C4B38338  24.655  25.754   7.381
 2735POPC   NC338339  27.102  36.284   5.352
 2735POPC   PO438340  26.500  36.360   5.394
 2735POPC   GL138341  26.766  36.202   5.775
 2735POPC   GL238342  27.059  36.384   5.915
 2735POPC   C1A38343  26.712  36.064   6.242
 2735POPC   D2A38344  26.552  36.057   6.698
 2735POPC   C3A38345  26.755  35.984   7.112
 2735POPC   C4A38346  26.690  36.193   7.494
 2735POPC   C1B38347  27.067  36.407   6.376
 2735POPC   C2B38348  27.034  36.302   6.819
 2735POPC   C3B38349  26.987  36.465   7.207
 2735POPC   C4B38350  27.077  36.488   7.681
 2736POPC   NC338351  32.236   7.114   5.393
 2736POPC   PO438352  32.591   6.505   5.362
 2736POPC   GL138353  32.684   6.493   5.777
 2736POPC   GL238354  32.340   6.562   5.834
 2736POPC   C1A38355  32.621   6.381   6.213
 2736POPC   D2A38356  32.333   6.468   6.531
 2736POPC   C3A38357  32.530   6.420   6.910
 2736POPC   C4A38358  32.348   6.505   7.290
 2736POPC   C1B38359  32.399   6.874   6.173
 2736POPC   C2B38360  32.099   6.931   6.524
 2736POPC   C3B38361  32.011   6.736   6.962
 2736POPC   C4B38362  32.023   6.864   7.428
 2737POPC   NC338363   5.021   5.902   5.237
 2737POPC   PO438364   5.632   5.640   5.165
 2737POPC   GL138365   5.363   5.711   5.624
 2737POPC   GL238366   4.976   5.675   5.700
 2737POPC   C1A38367   5.274   5.909   6.082
 2737POPC   D2A38368   5.454   5.967   6.530
 2737POPC   C3A38369   5.278   6.054   6.959
 2737POPC   C4A38370   5.196   5.708   7.257
 2737POPC   C1B38371   4.835   5.527   6.100
 2737POPC   C2B38372   5.015   5.666   6.483
 2737POPC   C3B38373   4.861   5.751   6.875
 2737POPC   C4B38374   4.745   5.503   7.212
 2738POPC   NC338375  17.173   6.944   5.053
 2738POPC   PO438376  16.909   6.482   5.496
 2738POPC   GL138377  16.820   6.667   5.892
 2738POPC   GL238378  16.588   6.955   5.752
 2738POPC   C1A38379  17.058   6.557   6.297
 2738POPC   D2A38380  17.085   6.673   6.756
 2738POPC   C3A38381  16.712   6.606   7.037
 2738POPC   C4A38382  16.232   6.564   6.996
 2738POPC   C1B38383  16.528   6.948   6.198
 2738POPC   C2B38384  16.697   7.003   6.634
 2738POPC   C3B38385  16.609   7.148   7.058
 2738POPC   C4B38386  16.396   6.908   7.361
 2739POPC   NC338387  42.464  14.900   5.362
 2739POPC   PO438388  41.903  15.197   5.459
 2739POPC   GL138389  42.215  15.299   5.764
 2739POPC   GL238390  41.957  15.419   5.960
 2739POPC   C1A38391  42.397  15.218   6.193
 2739POPC   D2A38392  42.254  15.150   6.640
 2739POPC   C3A38393  42.507  15.225   7.040
 2739POPC   C4A38394  42.392  15.368   7.469
 2739POPC   C1B38395  42.117  15.609   6.330
 2739POPC   C2B38396  42.368  15.648   6.703
 2739POPC   C3B38397  42.090  15.526   7.071
 2739POPC   C4B38398  41.910  15.514   7.516
 2740POPC   NC338399  30.916  43.281   5.458
 2740POPC   PO438400  30.310  42.888   5.559
 2740POPC   GL138401  30.526  42.819   5.936
 2740POPC   GL238402  30.856  42.741   5.866
 2740POPC   C1A38403  30.597  43.048   6.356
 2740POPC   D2A38404  30.502  43.417   6.648
 2740POPC   C3A38405  30.371  43.249   7.038
 2740POPC   C4A38406  30.567  42.865   7.185
 2740POPC   C1B38407  31.074  42.935   6.218
 2740POPC   C2B38408  31.077  43.028   6.648
 2740POPC   C3B38409  31.046  42.790   7.010
 2740POPC   C4B38410  31.005  42.878   7.478
 2741POPC   NC338411   3.686  22.401   5.340
 2741POPC   PO438412   3.555  21.837   5.660
 2741POPC   GL138413   3.626  22.241   5.824
 2741POPC   GL238414   3.297  22.407   5.687
 2741POPC   C1A38415   3.816  22.265   6.227
 2741POPC   D2A38416   4.053  22.402   6.591
 2741POPC   C3A38417   3.741  22.418   6.920
 2741POPC   C4A38418   3.675  22.167   7.268
 2741POPC   C1B38419   3.305  22.475   6.138
 2741POPC   C2B38420   3.391  22.232   6.525
 2741POPC   C3B38421   3.179  22.203   6.903
 2741POPC   C4B38422   3.190  22.256   7.318
 2742POPC   NC338423  20.101  43.832   5.125
 2742POPC   PO438424  19.815  44.297   5.486
 2742POPC   GL138425  19.962  43.908   5.696
 2742POPC   GL238426  19.619  43.714   5.769
 2742POPC   C1A38427  20.077  43.980   6.148
 2742POPC   D2A38428  19.772  44.113   6.494
 2742POPC   C3A38429  19.880  44.040   6.939
 2742POPC   C4A38430  19.721  44.031   7.349
 2742POPC   C1B38431  19.390  43.604   6.194
 2742POPC   C2B38432  19.284  43.795   6.603
 2742POPC   C3B38433  19.436  43.789   6.995
 2742POPC   C4B38434  19.501  43.577   7.418
 2743POPC   NC338435  12.130   2.723   5.329
 2743POPC   PO438436  11.978   3.353   5.451
 2743POPC   GL138437  11.947   2.949   5.754
 2743POPC   GL238438  12.284   2.786   5.924
 2743POPC   C1A38439  11.857   2.758   6.192
 2743POPC   D2A38440  12.119   2.778   6.607
 2743POPC   C3A38441  11.890   2.845   7.020
 2743POPC   C4A38442  11.766   2.583   7.369
 2743POPC   C1B38443  12.555   2.615   6.312
 2743POPC   C2B38444  12.507   2.466   6.779
 2743POPC   C3B38445  12.378   2.743   7.166
 2743POPC   C4B38446  12.211   3.148   7.340
 2744POPC   NC338447  17.552  24.975   5.441
 2744POPC   PO438448  17.093  25.473   5.618
 2744POPC   GL138449  17.519  25.362   5.795
 2744POPC   GL238450  17.697  25.048   5.912
 2744POPC   C1A38451  17.656  25.493   6.174
 2744POPC   D2A38452  17.405  25.493   6.512
 2744POPC   C3A38453  17.578  25.399   6.893
 2744POPC   C4A38454  17.643  25.375   7.304
 2744POPC   C1B38455  17.877  25.051   6.320
 2744POPC   C2B38456  17.971  25.108   6.748
 2744POPC   C3B38457  17.688  24.912   7.043
 2744POPC   C4B38458  17.696  24.884   7.470
 2745POPC   NC338459  27.151  14.924   5.391
 2745POPC   PO438460  26.557  15.099   5.481
 2745POPC   GL138461  26.747  14.864   5.815
 2745POPC   GL238462  26.995  15.113   5.858
 2745POPC   C1A38463  26.907  14.870   6.279
 2745POPC   D2A38464  26.800  14.774   6.712
 2745POPC   C3A38465  26.839  14.993   7.134
 2745POPC   C4A38466  26.679  15.284   7.420
 2745POPC   C1B38467  27.130  15.316   6.266
 2745POPC   C2B38468  27.017  15.272   6.734
 2745POPC   C3B38469  27.130  15.427   7.177
 2745POPC   C4B38470  27.397  15.580   7.526
 2746POPC   NC338471  41.416   1.282   5.133
 2746POPC   PO438472  40.769   1.244   5.383
 2746POPC   GL138473  40.770   1.277   5.803
 2746POPC   GL238474  40.773   0.941   5.878
 2746POPC   C1A38475  41.021   1.307   6.187
 2746POPC   D2A38476  41.109   1.160   6.618
 2746POPC   C3A38477  40.862   1.317   6.978
 2746POPC   C4A38478  40.442   1.505   7.125
 2746POPC   C1B38479  40.959   0.792   6.284
 2746POPC   C2B38480  41.049   0.660   6.729
 2746POPC   C3B38481  40.900   0.804   7.137
 2746POPC   C4B38482  40.658   0.740   7.518
 2747POPC   NC338483  43.022  26.466   5.305
 2747POPC   PO438484  42.724  27.097   5.312
 2747POPC   GL138485  42.726  26.915   5.735
 2747POPC   GL238486  42.668  26.578   5.670
 2747POPC   C1A38487  42.859  26.917   6.207
 2747POPC   D2A38488  43.138  26.795   6.567
 2747POPC   C3A38489  43.090  26.876   7.035
 2747POPC   C4A38490  43.159  27.041   7.470
 2747POPC   C1B38491  42.740  26.424   6.109
 2747POPC   C2B38492  42.946  26.328   6.488
 2747POPC   C3B38493  43.211  26.369   6.849
 2747POPC   C4B38494  42.991  26.385   7.221
 2748POPC   NC338495   1.140  18.645   5.256
 2748POPC   PO438496   1.533  18.130   5.496
 2748POPC   GL138497   1.371  18.332   5.854
 2748POPC   GL238498   1.033  18.483   5.754
 2748POPC   C1A38499   1.449  18.379   6.289
 2748POPC   D2A38500   1.244  18.290   6.655
 2748POPC   C3A38501   1.351  18.280   7.046
 2748POPC   C4A38502   1.367  18.144   7.449
 2748POPC   C1B38503   0.826  18.465   6.165
 2748POPC   C2B38504   0.906  18.651   6.577
 2748POPC   C3B38505   0.783  18.545   6.968
 2748POPC   C4B38506   0.983  18.495   7.350
 2749POPC   NC338507  15.231  22.231   5.486
 2749POPC   PO438508  14.913  22.507   5.966
 2749POPC   GL138509  15.081  22.107   6.057
 2749POPC   GL238510  15.360  21.939   5.909
 2749POPC   C1A38511  15.151  21.979   6.487
 2749POPC   D2A38512  15.359  22.216   6.801
 2749POPC   C3A38513  15.168  22.312   7.164
 2749POPC   C4A38514  14.797  22.088   7.204
 2749POPC   C1B38515  15.622  21.931   6.293
 2749POPC   C2B38516  15.555  21.743   6.721
 2749POPC   C3B38517  15.203  21.752   7.033
 2749POPC   C4B38518  15.189  21.886   7.477
 2750POPC   NC338519  18.434  17.707   5.357
 2750POPC   PO438520  18.526  17.116   5.426
 2750POPC   GL138521  18.447  17.416   5.788
 2750POPC   GL238522  18.127  17.610   5.761
 2750POPC   C1A38523  18.601  17.522   6.224
 2750POPC   D2A38524  18.507  17.320   6.614
 2750POPC   C3A38525  18.509  17.566   7.024
 2750POPC   C4A38526  18.525  17.675   7.488
 2750POPC   C1B38527  18.091  17.473   6.215
 2750POPC   C2B38528  18.079  17.611   6.655
 2750POPC   C3B38529  18.000  17.578   7.101
 2750POPC   C4B38530  17.739  17.325   7.362
 2751POPC   NC338531  41.145  43.827   5.489
 2751POPC   PO438532  41.758  43.427   5.504
 2751POPC   GL138533  41.531  43.702   5.859
 2751POPC   GL238534  41.260  43.997   5.944
 2751POPC   C1A38535  41.650  43.928   6.266
 2751POPC   D2A38536  41.948  44.031   6.634
 2751POPC   C3A38537  41.709  43.977   7.018
 2751POPC   C4A38538  41.352  44.126   7.169
 2751POPC   C1B38539  41.159  43.656   6.206
 2751POPC   C2B38540  41.343  43.604   6.612
 2751POPC   C3B38541  41.145  43.643   7.008
 2751POPC   C4B38542  41.264  43.679   7.430
 2752POPC   NC338543  25.826  12.368   5.560
 2752POPC   PO438544  25.991  13.031   5.455
 2752POPC   GL138545  26.116  12.834   5.853
 2752POPC   GL238546  25.853  12.584   6.019
 2752POPC   C1A38547  26.360  12.962   6.245
 2752POPC   D2A38548  26.330  12.800   6.693
 2752POPC   C3A38549  26.291  13.087   7.096
 2752POPC   C4A38550  26.213  13.169   7.566
 2752POPC   C1B38551  25.858  12.951   6.287
 2752POPC   C2B38552  25.955  13.153   6.656
 2752POPC   C3B38553  25.879  12.837   6.964
 2752POPC   C4B38554  25.860  12.868   7.402
 2753POPC   NC338555  30.109   3.235   5.185
 2753POPC   PO438556  29.797   3.696   5.344
 2753POPC   GL138557  29.994   3.560   5.756
 2753POPC   GL238558  29.917   3.224   5.855
 2753POPC   C1A38559  29.822   3.600   6.202
 2753POPC   D2A38560  29.772   3.369   6.581
 2753POPC   C3A38561  29.676   3.652   6.912
 2753POPC   C4A38562  29.661   3.395   7.252
 2753POPC   C1B38563  30.251   3.323   6.164
 2753POPC   C2B38564  30.278   3.529   6.555
 2753POPC   C3B38565  30.132   3.473   6.960
 2753POPC   C4B38566  30.244   3.466   7.359
 2754POPC   NC338567  30.331   9.095   5.577
 2754POPC   PO438568  31.060   8.825   5.425
 2754POPC   GL138569  30.786   8.864   5.793
 2754POPC   GL238570  30.491   8.648   5.821
 2754POPC   C1A38571  30.606   9.014   6.192
 2754POPC   D2A38572  30.244   9.147   6.408
 2754POPC   C3A38573  30.376   9.151   6.822
 2754POPC   C4A38574  30.412   8.990   7.210
 2754POPC   C1B38575  30.684   8.508   6.186
 2754POPC   C2B38576  30.569   8.536   6.603
 2754POPC   C3B38577  30.701   8.609   7.003
 2754POPC   C4B38578  30.974   8.607   7.289
 2755POPC   NC338579  24.766  24.638   5.110
 2755POPC   PO438580  24.154  24.385   5.199
 2755POPC   GL138581  24.298  24.551   5.626
 2755POPC   GL238582  24.612  24.630   5.699
 2755POPC   C1A38583  24.302  24.657   6.090
 2755POPC   D2A38584  24.421  24.540   6.530
 2755POPC   C3A38585  24.316  24.851   6.856
 2755POPC   C4A38586  24.310  24.942   7.307
 2755POPC   C1B38587  24.757  24.421   6.102
 2755POPC   C2B38588  24.894  24.283   6.531
 2755POPC   C3B38589  24.721  24.212   6.925
 2755POPC   C4B38590  24.562  24.526   7.177
 2756POPC   NC338591  29.698  32.805   5.399
 2756POPC   PO438592  30.372  33.104   5.296
 2756POPC   GL138593  30.077  33.048   5.685
 2756POPC   GL238594  29.822  33.328   5.601
 2756POPC   C1A38595  29.955  32.904   6.167
 2756POPC   D2A38596  29.662  32.972   6.570
 2756POPC   C3A38597  29.799  32.891   7.034
 2756POPC   C4A38598  30.179  32.791   7.282
 2756POPC   C1B38599  29.871  33.386   6.050
 2756POPC   C2B38600  30.022  33.329   6.473
 2756POPC   C3B38601  29.895  33.389   6.889
 2756POPC   C4B38602  30.025  33.307   7.300
 2757POPC   NC338603  11.638  33.964   5.478
 2757POPC   PO438604  11.141  33.559   5.447
 2757POPC   GL138605  11.192  33.697   5.861
 2757POPC   GL238606  11.317  34.030   5.872
 2757POPC   C1A38607  10.968  33.608   6.257
 2757POPC   D2A38608  10.979  33.491   6.712
 2757POPC   C3A38609  11.236  33.744   6.976
 2757POPC   C4A38610  11.221  33.605   7.394
 2757POPC   C1B38611  11.414  33.861   6.303
 2757POPC   C2B38612  11.632  33.913   6.684
 2757POPC   C3B38613  11.656  34.133   7.056
 2757POPC   C4B38614  11.325  34.121   7.307
 2758POPC   NC338615  24.808  41.615   5.293
 2758POPC   PO438616  24.127  41.534   5.141
 2758POPC   GL138617  24.227  41.528   5.634
 2758POPC   GL238618  24.579  41.587   5.758
 2758POPC   C1A38619  24.221  41.433   6.093
 2758POPC   D2A38620  24.380  41.573   6.505
 2758POPC   C3A38621  24.193  41.707   6.902
 2758POPC   C4A38622  24.429  41.838   7.265
 2758POPC   C1B38623  24.746  41.277   6.072
 2758POPC   C2B38624  24.794  41.261   6.537
 2758POPC   C3B38625  24.667  41.453   6.953
 2758POPC   C4B38626  24.861  41.538   7.363
 2759POPC   NC338627  30.043  18.067   5.109
 2759POPC   PO438628  29.732  18.574   5.429
 2759POPC   GL138629  29.874  18.333   5.793
 2759POPC   GL238630  30.178  18.181   5.810
 2759POPC   C1A38631  29.950  18.361   6.249
 2759POPC   D2A38632  30.048  18.189   6.655
 2759POPC   C3A38633  29.861  18.312   7.075
 2759POPC   C4A38634  29.545  18.140   7.396
 2759POPC   C1B38635  30.300  17.933   6.204
 2759POPC   C2B38636  30.344  17.774   6.661
 2759POPC   C3B38637  30.190  17.896   7.077
 2759POPC   C4B38638  30.077  18.128   7.508
 2760POPC   NC338639  30.314   6.607   5.314
 2760POPC   PO438640  29.648   6.451   5.308
 2760POPC   GL138641  29.915   6.636   5.625
 2760POPC   GL238642  29.907   6.399   5.899
 2760POPC   C1A38643  30.026   6.867   6.013
 2760POPC   D2A38644  30.061   6.918   6.486
 2760POPC   C3A38645  29.816   6.677   6.799
 2760POPC   C4A38646  29.929   6.355   7.112
 2760POPC   C1B38647  30.126   6.185   6.208
 2760POPC   C2B38648  30.074   6.276   6.609
 2760POPC   C3B38649  30.306   6.573   6.819
 2760POPC   C4B38650  30.465   6.557   7.192
 2761POPC   NC338651   0.803   2.202   5.433
 2761POPC   PO438652   0.218   1.768   5.432
 2761POPC   GL138653   0.375   1.903   5.851
 2761POPC   GL238654   0.735   1.936   5.860
 2761POPC   C1A38655   0.499   2.178   6.232
 2761POPC   D2A38656   0.275   2.316   6.591
 2761POPC   C3A38657   0.401   2.052   6.897
 2761POPC   C4A38658   0.502   2.159   7.298
 2761POPC   C1B38659   0.634   1.651   6.190
 2761POPC   C2B38660   0.535   1.574   6.639
 2761POPC   C3B38661   0.754   1.702   7.040
 2761POPC   C4B38662   0.839   1.817   7.496
 2762POPC   NC338663   0.664  32.647   5.353
 2762POPC   PO438664   0.057  32.523   5.554
 2762POPC   GL138665   0.337  32.301   5.829
 2762POPC   GL238666   0.625  32.156   5.673
 2762POPC   C1A38667   0.533  32.393   6.242
 2762POPC   D2A38668   0.705  32.624   6.613
 2762POPC   C3A38669   0.655  32.450   7.005
 2762POPC   C4A38670   0.312  32.234   7.185
 2762POPC   C1B38671   0.676  31.927   6.102
 2762POPC   C2B38672   0.803  32.072   6.546
 2762POPC   C3B38673   0.652  31.929   6.950
 2762POPC   C4B38674   0.724  31.997   7.413
 2763POPC   NC338675  42.762  32.237   5.455
 2763POPC   PO438676  42.092  32.398   5.292
 2763POPC   GL138677  42.283  32.214   5.683
 2763POPC   GL238678  42.515  32.506   5.818
 2763POPC   C1A38679  42.315  32.154   6.146
 2763POPC   D2A38680  42.127  32.404   6.500
 2763POPC   C3A38681  42.320  32.403   6.917
 2763POPC   C4A38682  42.335  32.031   7.160
 2763POPC   C1B38683  42.587  32.558   6.284
 2763POPC   C2B38684  42.687  32.230   6.617
 2763POPC   C3B38685  42.800  32.202   7.077
 2763POPC   C4B38686  42.576  32.378   7.463
 2764POPC   NC338687  20.130  24.593   5.143
 2764POPC   PO438688  19.629  24.356   5.418
 2764POPC   GL138689  19.953  24.471   5.683
 2764POPC   GL238690  19.698  24.614   5.872
 2764POPC   C1A38691  20.048  24.410   6.154
 2764POPC   D2A38692  19.907  24.639   6.516
 2764POPC   C3A38693  20.074  24.564   6.920
 2764POPC   C4A38694  20.113  24.903   7.221
 2764POPC   C1B38695  19.539  24.381   6.256
 2764POPC   C2B38696  19.525  24.332   6.719
 2764POPC   C3B38697  19.634  24.365   7.147
 2764POPC   C4B38698  19.843  24.107   7.484
 2765POPC   NC338699  13.844  38.669   5.057
 2765POPC   PO438700  13.562  38.167   5.382
 2765POPC   GL138701  13.673  38.377   5.840
 2765POPC   GL238702  13.929  38.682   5.905
 2765POPC   C1A38703  13.477  38.480   6.291
 2765POPC   D2A38704  13.232  38.317   6.682
 2765POPC   C3A38705  13.273  38.580   7.052
 2765POPC   C4A38706  13.653  38.548   7.252
 2765POPC   C1B38707  13.961  38.805   6.369
 2765POPC   C2B38708  13.899  38.676   6.818
 2765POPC   C3B38709  14.135  38.667   7.230
 2765POPC   C4B38710  13.918  38.788   7.636
 2766POPC   NC338711   1.585   8.142   4.928
 2766POPC   PO438712   2.108   8.211   5.350
 2766POPC   GL138713   2.030   8.051   5.750
 2766POPC   GL238714   1.703   8.083   5.773
 2766POPC   C1A38715   2.093   7.980   6.214
 2766POPC   D2A38716   2.328   8.173   6.582
 2766POPC   C3A38717   2.230   8.148   7.042
 2766POPC   C4A38718   2.202   8.401   7.418
 2766POPC   C1B38719   1.579   7.899   6.186
 2766POPC   C2B38720   1.598   7.847   6.616
 2766POPC   C3B38721   1.736   8.107   6.916
 2766POPC   C4B38722   1.753   8.210   7.327
 2767POPC   NC338723  37.812  30.617   5.293
 2767POPC   PO438724  37.231  30.824   5.378
 2767POPC   GL138725  37.472  30.620   5.693
 2767POPC   GL238726  37.757  30.813   5.747
 2767POPC   C1A38727  37.538  30.561   6.140
 2767POPC   D2A38728  37.603  30.894   6.469
 2767POPC   C3A38729  37.420  30.834   6.886
 2767POPC   C4A38730  37.580  30.711   7.288
 2767POPC   C1B38731  38.007  30.783   6.135
 2767POPC   C2B38732  38.161  30.953   6.517
 2767POPC   C3B38733  37.933  30.927   6.896
 2767POPC   C4B38734  37.762  31.180   7.206
 2768POPC   NC338735  40.846   4.759   5.451
 2768POPC   PO438736  40.648   5.417   5.359
 2768POPC   GL138737  40.763   5.214   5.703
 2768POPC   GL238738  40.458   5.257   5.818
 2768POPC   C1A38739  40.909   5.254   6.127
 2768POPC   D2A38740  40.918   4.944   6.477
 2768POPC   C3A38741  41.109   5.002   6.859
 2768POPC   C4A38742  41.167   5.144   7.262
 2768POPC   C1B38743  40.492   4.977   6.144
 2768POPC   C2B38744  40.520   5.285   6.471
 2768POPC   C3B38745  40.718   5.330   6.832
 2768POPC   C4B38746  40.670   5.066   7.166
 2769POPC   NC338747  29.557  40.408   5.343
 2769POPC   PO438748  29.163  40.981   5.333
 2769POPC   GL138749  28.986  40.836   5.745
 2769POPC   GL238750  29.286  40.883   5.966
 2769POPC   C1A38751  28.836  40.835   6.197
 2769POPC   D2A38752  29.156  40.788   6.537
 2769POPC   C3A38753  28.970  40.627   6.915
 2769POPC   C4A38754  28.904  40.818   7.330
 2769POPC   C1B38755  29.160  40.451   6.104
 2769POPC   C2B38756  29.222  40.283   6.513
 2769POPC   C3B38757  29.467  40.379   6.868
 2769POPC   C4B38758  29.407  40.716   7.172
 2770POPC   NC338759  39.636   4.664   5.328
 2770POPC   PO438760  40.375   4.654   5.423
 2770POPC   GL138761  40.402   4.506   5.844
 2770POPC   GL238762  40.060   4.393   5.927
 2770POPC   C1A38763  40.391   4.490   6.289
 2770POPC   D2A38764  40.139   4.384   6.600
 2770POPC   C3A38765  40.272   4.278   6.985
 2770POPC   C4A38766  39.877   4.346   7.189
 2770POPC   C1B38767  40.143   4.033   6.228
 2770POPC   C2B38768  40.052   3.880   6.677
 2770POPC   C3B38769  40.019   3.856   7.145
 2770POPC   C4B38770  39.885   3.849   7.602
 2771POPC   NC338771  18.479  33.062   5.380
 2771POPC   PO438772  17.839  33.074   5.568
 2771POPC   GL138773  18.007  33.226   5.920
 2771POPC   GL238774  18.353  33.118   5.883
 2771POPC   C1A38775  18.061  32.997   6.300
 2771POPC   D2A38776  18.223  32.795   6.665
 2771POPC   C3A38777  18.097  32.952   7.050
 2771POPC   C4A38778  18.072  32.714   7.430
 2771POPC   C1B38779  18.555  32.851   6.204
 2771POPC   C2B38780  18.757  32.775   6.585
 2771POPC   C3B38781  18.643  33.011   6.957
 2771POPC   C4B38782  18.509  32.912   7.374
 2772POPC   NC338783  38.704  19.933   5.524
 2772POPC   PO438784  38.225  19.563   5.511
 2772POPC   GL138785  38.371  19.664   5.874
 2772POPC   GL238786  38.349  20.017   5.879
 2772POPC   C1A38787  38.200  19.611   6.267
 2772POPC   D2A38788  38.355  19.403   6.604
 2772POPC   C3A38789  38.224  19.616   6.954
 2772POPC   C4A38790  38.476  19.761   7.268
 2772POPC   C1B38791  38.581  19.966   6.263
 2772POPC   C2B38792  38.578  19.886   6.688
 2772POPC   C3B38793  38.719  20.111   7.015
 2772POPC   C4B38794  38.444  20.253   7.337
 2773POPC   NC338795  38.826  29.309   5.319
 2773POPC   PO438796  39.358  28.897   5.402
 2773POPC   GL138797  39.154  28.996   5.806
 2773POPC   GL238798  39.021  29.344   5.798
 2773POPC   C1A38799  39.218  29.109   6.283
 2773POPC   D2A38800  39.388  29.151   6.727
 2773POPC   C3A38801  39.309  28.962   7.121
 2773POPC   C4A38802  39.053  28.984   7.490
 2773POPC   C1B38803  38.919  29.531   6.196
 2773POPC   C2B38804  38.902  29.342   6.609
 2773POPC   C3B38805  39.016  29.401   7.027
 2773POPC   C4B38806  38.914  29.511   7.442
 2774POPC   NC338807  40.804  31.953   5.369
 2774POPC   PO438808  40.612  32.643   5.271
 2774POPC   GL138809  40.685  32.471   5.711
 2774POPC   GL238810  40.519  32.181   5.777
 2774POPC   C1A38811  40.936  32.375   6.111
 2774POPC   D2A38812  41.044  32.324   6.560
 2774POPC   C3A38813  40.869  32.388   7.019
 2774POPC   C4A38814  41.062  32.243   7.414
 2774POPC   C1B38815  40.436  32.379   6.191
 2774POPC   C2B38816  40.547  32.521   6.629
 2774POPC   C3B38817  40.286  32.532   7.059
 2774POPC   C4B38818  40.303  32.497   7.527
 2775POPC   NC338819   0.306  40.636   5.159
 2775POPC   PO438820   0.313  39.936   5.284
 2775POPC   GL138821   0.431  39.993   5.728
 2775POPC   GL238822   0.207  40.252   5.796
 2775POPC   C1A38823   0.676  39.791   6.073
 2775POPC   D2A38824   0.453  39.696   6.446
 2775POPC   C3A38825   0.570  39.733   6.887
 2775POPC   C4A38826   0.372  39.844   7.273
 2775POPC   C1B38827   0.204  40.066   6.217
 2775POPC   C2B38828   0.345  40.154   6.667
 2775POPC   C3B38829   0.155  40.263   7.081
 2775POPC   C4B38830   0.288  40.293   7.551
 2776POPC   NC338831  43.547  30.892   5.030
 2776POPC   PO438832  44.012  30.718   5.523
 2776POPC   GL138833  44.027  30.709   5.923
 2776POPC   GL238834  44.308  30.951   5.934
 2776POPC   C1A38835  43.697  30.620   6.240
 2776POPC   D2A38836  43.814  30.571   6.652
 2776POPC   C3A38837  43.656  30.632   7.046
 2776POPC   C4A38838  43.907  30.490   7.402
 2776POPC   C1B38839  44.401  31.159   6.322
 2776POPC   C2B38840  44.395  31.046   6.740
 2776POPC   C3B38841  44.105  30.931   7.052
 2776POPC   C4B38842  43.953  31.207   7.341
 2777POPC   NC338843  40.508  28.556   5.453
 2777POPC   PO438844  41.143  28.374   5.365
 2777POPC   GL138845  40.832  28.189   5.620
 2777POPC   GL238846  41.014  27.936   5.755
 2777POPC   C1A38847  40.763  28.273   6.080
 2777POPC   D2A38848  40.454  28.281   6.426
 2777POPC   C3A38849  40.674  28.302   6.839
 2777POPC   C4A38850  40.850  28.433   7.221
 2777POPC   C1B38851  41.242  28.021   6.155
 2777POPC   C2B38852  41.173  28.288   6.527
 2777POPC   C3B38853  41.197  28.158   6.962
 2777POPC   C4B38854  41.078  28.024   7.395
 2778POPC   NC338855  33.672  33.689   5.458
 2778POPC   PO438856  34.236  33.999   5.434
 2778POPC   GL138857  33.999  34.057   5.840
 2778POPC   GL238858  33.639  34.113   5.825
 2778POPC   C1A38859  33.797  33.826   6.209
 2778POPC   D2A38860  33.681  33.517   6.532
 2778POPC   C3A38861  33.927  33.582   6.903
 2778POPC   C4A38862  33.660  33.641   7.248
 2778POPC   C1B38863  33.468  34.260   6.208
 2778POPC   C2B38864  33.501  34.057   6.629
 2778POPC   C3B38865  33.764  34.089   7.027
 2778POPC   C4B38866  33.703  34.069   7.509
 2779POPC   NC338867  20.364  44.312   5.572
 2779POPC   PO438868  20.684  43.717   5.411
 2779POPC   GL138869  20.583  43.841   5.844
 2779POPC   GL238870  20.606  44.119   5.969
 2779POPC   C1A38871  20.704  43.732   6.272
 2779POPC   D2A38872  20.732  43.999   6.631
 2779POPC   C3A38873  20.596  43.858   7.020
 2779POPC   C4A38874  20.689  43.630   7.412
 2779POPC   C1B38875  20.488  44.329   6.313
 2779POPC   C2B38876  20.245  44.252   6.646
 2779POPC   C3B38877  20.325  44.294   7.073
 2779POPC   C4B38878  20.623  44.214   7.389
 2780POPC   NC338879  41.108   1.531   5.494
 2780POPC   PO438880  41.359   0.896   5.365
 2780POPC   GL138881  41.275   1.091   5.765
 2780POPC   GL238882  41.537   1.351   5.751
 2780POPC   C1A38883  41.438   1.002   6.212
 2780POPC   D2A38884  41.809   0.897   6.499
 2780POPC   C3A38885  41.749   1.066   6.937
 2780POPC   C4A38886  41.333   1.066   7.065
 2780POPC   C1B38887  41.777   1.392   6.156
 2780POPC   C2B38888  41.573   1.386   6.555
 2780POPC   C3B38889  41.348   1.558   6.890
 2780POPC   C4B38890  41.624   1.514   7.182
 2781POPC   NC338891  17.438  33.848   5.125
 2781POPC   PO438892  17.156  33.693   5.684
 2781POPC   GL138893  17.482  33.864   5.903
 2781POPC   GL238894  17.791  34.011   5.828
 2781POPC   C1A38895  17.376  33.811   6.313
 2781POPC   D2A38896  17.223  34.081   6.577
 2781POPC   C3A38897  17.256  33.841   6.919
 2781POPC   C4A38898  17.401  33.910   7.289
 2781POPC   C1B38899  17.869  33.758   6.233
 2781POPC   C2B38900  17.728  33.751   6.698
 2781POPC   C3B38901  17.929  33.858   7.108
 2781POPC   C4B38902  17.975  33.587   7.462
 2782POPC   NC338903  35.478  42.189   5.297
 2782POPC   PO438904  35.379  41.537   5.264
 2782POPC   GL138905  35.389  41.630   5.727
 2782POPC   GL238906  35.691  41.851   5.702
 2782POPC   C1A38907  35.330  41.443   6.167
 2782POPC   D2A38908  35.154  41.507   6.587
 2782POPC   C3A38909  35.405  41.336   6.924
 2782POPC   C4A38910  35.266  41.405   7.266
 2782POPC   C1B38911  35.714  41.775   6.143
 2782POPC   C2B38912  35.507  41.901   6.532
 2782POPC   C3B38913  35.447  41.844   6.970
 2782POPC   C4B38914  35.710  41.676   7.292
 2783POPC   NC338915   8.231  30.188   5.318
 2783POPC   PO438916   7.687  29.863   5.318
 2783POPC   GL138917   8.058  29.831   5.646
 2783POPC   GL238918   8.089  30.141   5.858
 2783POPC   C1A38919   8.236  29.687   6.050
 2783POPC   D2A38920   7.980  29.637   6.433
 2783POPC   C3A38921   8.037  29.906   6.809
 2783POPC   C4A38922   8.370  29.799   7.086
 2783POPC   C1B38923   8.189  30.106   6.332
 2783POPC   C2B38924   8.478  30.134   6.689
 2783POPC   C3B38925   8.293  30.293   7.085
 2783POPC   C4B38926   7.921  30.193   7.353
 2784POPC   NC338927  26.363  27.672   5.554
 2784POPC   PO438928  26.775  27.275   5.275
 2784POPC   GL138929  26.786  27.445   5.721
 2784POPC   GL238930  27.088  27.296   5.779
 2784POPC   C1A38931  26.634  27.670   6.143
 2784POPC   D2A38932  26.516  27.858   6.550
 2784POPC   C3A38933  26.610  27.673   6.943
 2784POPC   C4A38934  26.854  27.573   7.312
 2784POPC   C1B38935  26.950  27.233   6.160
 2784POPC   C2B38936  26.886  27.422   6.549
 2784POPC   C3B38937  27.107  27.386   6.919
 2784POPC   C4B38938  27.058  27.107   7.255
 2785POPC   NC338939  37.624  18.723   5.541
 2785POPC   PO438940  37.854  19.178   5.170
 2785POPC   GL138941  37.948  19.104   5.666
 2785POPC   GL238942  37.742  19.317   5.929
 2785POPC   C1A38943  37.934  18.877   6.089
 2785POPC   D2A38944  37.903  19.120   6.443
 2785POPC   C3A38945  37.895  18.929   6.833
 2785POPC   C4A38946  37.830  19.298   7.062
 2785POPC   C1B38947  37.410  19.146   6.244
 2785POPC   C2B38948  37.395  18.927   6.679
 2785POPC   C3B38949  37.459  18.957   7.139
 2785POPC   C4B38950  37.359  18.863   7.575
 2786POPC   NC338951   4.233   2.342   5.310
 2786POPC   PO438952   4.388   1.661   5.137
 2786POPC   GL138953   4.294   1.883   5.531
 2786POPC   GL238954   4.609   1.923   5.737
 2786POPC   C1A38955   4.156   1.961   5.981
 2786POPC   D2A38956   4.357   1.875   6.408
 2786POPC   C3A38957   4.315   2.091   6.824
 2786POPC   C4A38958   4.228   2.030   7.258
 2786POPC   C1B38959   4.560   2.260   6.072
 2786POPC   C2B38960   4.637   2.373   6.502
 2786POPC   C3B38961   4.819   2.203   6.866
 2786POPC   C4B38962   4.719   2.002   7.230
 2787POPC   NC338963  44.123  27.725   5.491
 2787POPC   PO438964  43.531  27.508   5.641
 2787POPC   GL138965  43.570  27.797   5.941
 2787POPC   GL238966  43.933  27.735   5.969
 2787POPC   C1A38967  43.605  27.764   6.378
 2787POPC   D2A38968  43.832  27.866   6.720
 2787POPC   C3A38969  43.726  27.750   7.112
 2787POPC   C4A38970  43.485  27.412   7.319
 2787POPC   C1B38971  44.071  27.533   6.345
 2787POPC   C2B38972  44.298  27.655   6.710
 2787POPC   C3B38973  44.226  27.516   7.103
 2787POPC   C4B38974  43.974  27.324   7.380
 2788POPC   NC338975  22.553  41.321   5.345
 2788POPC   PO438976  22.998  41.822   5.321
 2788POPC   GL138977  23.012  41.664   5.785
 2788POPC   GL238978  22.722  41.517   5.806
 2788POPC   C1A38979  22.838  41.804   6.231
 2788POPC   D2A38980  22.701  41.711   6.654
 2788POPC   C3A38981  23.048  41.829   6.917
 2788POPC   C4A38982  22.907  42.083   7.199
 2788POPC   C1B38983  22.889  41.290   6.193
 2788POPC   C2B38984  22.961  41.288   6.637
 2788POPC   C3B38985  22.916  41.361   7.082
 2788POPC   C4B38986  22.694  41.325   7.490
 2789POPC   NC338987  13.014  17.771   5.431
 2789POPC   PO438988  12.411  17.578   5.735
 2789POPC   GL138989  12.859  17.418   5.812
 2789POPC   GL238990  13.162  17.648   5.893
 2789POPC   C1A38991  13.047  17.272   6.211
 2789POPC   D2A38992  12.941  17.531   6.552
 2789POPC   C3A38993  13.012  17.320   6.919
 2789POPC   C4A38994  12.800  17.413   7.289
 2789POPC   C1B38995  13.226  17.876   6.275
 2789POPC   C2B38996  13.238  17.921   6.709
 2789POPC   C3B38997  13.000  17.820   7.060
 2789POPC   C4B38998  13.202  17.677   7.454
 2790POPC   NC338999   1.259  32.826   5.376
 2790POPC   PO439000   1.701  33.393   5.395
 2790POPC   GL139001   1.378  33.206   5.707
 2790POPC   GL239002   1.048  33.149   5.721
 2790POPC   C1A39003   1.383  32.973   6.119
 2790POPC   D2A39004   1.534  33.084   6.539
 2790POPC   C3A39005   1.335  32.949   6.934
 2790POPC   C4A39006   1.529  32.973   7.334
 2790POPC   C1B39007   0.878  33.143   6.108
 2790POPC   C2B39008   0.993  33.062   6.522
 2790POPC   C3B39009   0.924  33.254   6.900
 2790POPC   C4B39010   1.102  33.264   7.297
 2791POPC   NC339011  31.565  16.434   5.360
 2791POPC   PO439012  31.276  15.874   5.370
 2791POPC   GL139013  31.369  16.027   5.755
 2791POPC   GL239014  31.722  16.101   5.725
 2791POPC   C1A39015  31.478  15.806   6.136
 2791POPC   D2A39016  31.323  15.663   6.525
 2791POPC   C3A39017  31.505  15.623   6.891
 2791POPC   C4A39018  31.476  15.940   7.169
 2791POPC   C1B39019  31.868  16.134   6.145
 2791POPC   C2B39020  31.748  15.992   6.566
 2791POPC   C3B39021  31.934  15.927   6.972
 2791POPC   C4B39022  31.854  15.578   7.269
 2792POPC   NC339023   0.509  14.893   5.162
 2792POPC   PO439024   0.307  14.373   5.178
 2792POPC   GL139025   0.394  14.220   5.644
 2792POPC   GL239026   0.726  14.315   5.803
 2792POPC   C1A39027   0.340  14.202   6.139
 2792POPC   D2A39028   0.312  14.494   6.529
 2792POPC   C3A39029   0.258  14.345   6.980
 2792POPC   C4A39030   0.359  14.326   7.449
 2792POPC   C1B39031   0.761  14.463   6.249
 2792POPC   C2B39032   0.733  14.215   6.641
 2792POPC   C3B39033   0.758  14.257   7.113
 2792POPC   C4B39034   0.871  14.440   7.536
 2793POPC   NC339035   3.085  41.708   5.152
 2793POPC   PO439036   2.481  41.826   5.480
 2793POPC   GL139037   2.565  41.505   5.757
 2793POPC   GL239038   2.439  41.170   5.706
 2793POPC   C1A39039   2.857  41.578   6.080
 2793POPC   D2A39040   2.754  41.847   6.429
 2793POPC   C3A39041   2.845  41.768   6.860
 2793POPC   C4A39042   2.588  41.848   7.232
 2793POPC   C1B39043   2.641  41.108   6.128
 2793POPC   C2B39044   2.808  41.316   6.503
 2793POPC   C3B39045   2.770  41.246   6.904
 2793POPC   C4B39046   2.918  41.432   7.235
 2794POPC   NC339047   3.108  18.230   5.248
 2794POPC   PO439048   2.526  18.238   5.663
 2794POPC   GL139049   2.675  18.557   5.917
 2794POPC   GL239050   2.989  18.540   5.755
 2794POPC   C1A39051   2.652  18.661   6.371
 2794POPC   D2A39052   2.400  18.793   6.745
 2794POPC   C3A39053   2.553  18.555   7.103
 2794POPC   C4A39054   2.648  18.140   7.095
 2794POPC   C1B39055   3.032  18.303   6.204
 2794POPC   C2B39056   3.042  18.298   6.691
 2794POPC   C3B39057   3.095  18.389   7.143
 2794POPC   C4B39058   3.280  18.406   7.559
 2795POPC   NC339059  23.644  43.588   5.427
 2795POPC   PO439060  23.369  44.238   5.494
 2795POPC   GL139061  23.700  44.013   5.801
 2795POPC   GL239062  23.895  43.666   5.854
 2795POPC   C1A39063  23.909  44.007   6.218
 2795POPC   D2A39064  23.970  43.746   6.599
 2795POPC   C3A39065  23.805  44.038   6.931
 2795POPC   C4A39066  23.451  44.016   7.228
 2795POPC   C1B39067  23.531  43.574   6.164
 2795POPC   C2B39068  23.327  43.485   6.591
 2795POPC   C3B39069  23.560  43.566   7.000
 2795POPC   C4B39070  24.024  43.613   7.110
 2796POPC   NC339071   7.179   2.534   5.596
 2796POPC   PO439072   7.427   3.000   5.050
 2796POPC   GL139073   7.376   3.016   5.571
 2796POPC   GL239074   7.614   2.794   5.757
 2796POPC   C1A39075   7.287   3.085   6.062
 2796POPC   D2A39076   7.214   2.871   6.488
 2796POPC   C3A39077   7.271   2.897   6.964
 2796POPC   C4A39078   7.251   2.983   7.436
 2796POPC   C1B39079   7.675   2.779   6.237
 2796POPC   C2B39080   7.717   2.881   6.715
 2796POPC   C3B39081   7.692   2.684   7.172
 2796POPC   C4B39082   7.424   2.528   7.529
 2797POPC   NC339083  34.001  15.875   5.411
 2797POPC   PO439084  33.371  15.532   5.446
 2797POPC   GL139085  33.606  15.790   5.727
 2797POPC   GL239086  33.837  15.549   5.827
 2797POPC   C1A39087  33.824  16.071   6.044
 2797POPC   D2A39088  33.741  16.195   6.484
 2797POPC   C3A39089  33.843  16.076   6.918
 2797POPC   C4A39090  33.812  16.259   7.315
 2797POPC   C1B39091  33.633  15.643   6.223
 2797POPC   C2B39092  33.677  15.681   6.636
 2797POPC   C3B39093  33.519  15.485   6.995
 2797POPC   C4B39094  33.779  15.515   7.354
 2798POPC   NC339095  42.848  37.875   5.478
 2798POPC   PO439096  42.175  37.905   5.527
 2798POPC   GL139097  42.499  37.713   5.806
 2798POPC   GL239098  42.484  37.358   5.870
 2798POPC   C1A39099  42.725  37.676   6.200
 2798POPC   D2A39100  42.765  37.936   6.577
 2798POPC   C3A39101  42.520  37.905   6.973
 2798POPC   C4A39102  42.749  37.762   7.327
 2798POPC   C1B39103  42.210  37.534   6.199
 2798POPC   C2B39104  42.127  37.697   6.646
 2798POPC   C3B39105  42.198  37.515   7.083
 2798POPC   C4B39106  42.504  37.297   7.367
 2799POPC   NC339107   0.154   8.488   5.108
 2799POPC   PO439108   0.475   9.104   5.359
 2799POPC   GL139109   0.563   8.829   5.744
 2799POPC   GL239110   0.894   8.699   5.800
 2799POPC   C1A39111   0.454   8.740   6.208
 2799POPC   D2A39112   0.354   8.956   6.638
 2799POPC   C3A39113   0.420   8.809   7.096
 2799POPC   C4A39114   0.177   8.885   7.495
 2799POPC   C1B39115   0.844   9.051   6.111
 2799POPC   C2B39116   0.867   9.100   6.573
 2799POPC   C3B39117   0.889   9.051   7.046
 2799POPC   C4B39118   0.994   8.638   7.186
 2800POPC   NC339119  14.108  31.663   5.604
 2800POPC   PO439120  14.643  31.357   5.376
 2800POPC   GL139121  14.477  31.235   5.807
 2800POPC   GL239122  14.143  31.321   5.978
 2800POPC   C1A39123  14.567  31.350   6.250
 2800POPC   D2A39124  14.439  31.416   6.685
 2800POPC   C3A39125  14.638  31.716   6.955
 2800POPC   C4A39126  14.569  31.655   7.393
 2800POPC   C1B39127  14.229  31.730   6.248
 2800POPC   C2B39128  14.267  31.925   6.674
 2800POPC   C3B39129  14.114  31.756   7.095
 2800POPC   C4B39130  14.038  31.938   7.543
 2801POPC   NC339131  18.935  37.055   5.468
 2801POPC   PO439132  19.486  36.786   5.465
 2801POPC   GL139133  19.170  36.765   5.830
 2801POPC   GL239134  19.180  37.098   5.923
 2801POPC   C1A39135  18.925  36.765   6.251
 2801POPC   D2A39136  18.662  36.676   6.615
 2801POPC   C3A39137  18.741  36.763   7.065
 2801POPC   C4A39138  18.989  36.691   7.459
 2801POPC   C1B39139  18.883  37.262   6.211
 2801POPC   C2B39140  18.785  37.179   6.651
 2801POPC   C3B39141  19.030  37.170   7.055
 2801POPC   C4B39142  19.060  37.222   7.499
 2802POPC   NC339143  29.324  22.714   5.431
 2802POPC   PO439144  29.899  23.131   5.363
 2802POPC   GL139145  29.941  22.859   5.765
 2802POPC   GL239146  29.658  22.636   5.820
 2802POPC   C1A39147  30.072  22.813   6.223
 2802POPC   D2A39148  30.195  22.949   6.656
 2802POPC   C3A39149  29.994  22.669   6.945
 2802POPC   C4A39150  29.750  22.543   7.291
 2802POPC   C1B39151  29.542  22.832   6.202
 2802POPC   C2B39152  29.676  22.946   6.619
 2802POPC   C3B39153  29.498  22.911   7.042
 2802POPC   C4B39154  29.537  22.974   7.507
 2803POPC   NC339155  25.330  44.577   5.246
 2803POPC   PO439156  25.503   0.209   5.299
 2803POPC   GL139157  25.390  44.857   5.669
 2803POPC   GL239158  25.057  44.688   5.694
 2803POPC   C1A39159  25.508  44.697   6.115
 2803POPC   D2A39160  25.702  44.671   6.571
 2803POPC   C3A39161  25.426  44.755   6.891
 2803POPC   C4A39162  25.446  44.777   7.339
 2803POPC   C1B39163  25.043  44.915   6.095
 2803POPC   C2B39164  24.969  44.877   6.540
 2803POPC   C3B39165  24.939  44.823   6.998
 2803POPC   C4B39166  25.128  44.430   7.173
 2804POPC   NC339167  40.717  42.635   5.118
 2804POPC   PO439168  40.929  42.029   5.293
 2804POPC   GL139169  40.919  42.145   5.756
 2804POPC   GL239170  40.620  42.326   5.796
 2804POPC   C1A39171  40.874  42.241   6.225
 2804POPC   D2A39172  40.568  42.303   6.575
 2804POPC   C3A39173  40.815  42.216   6.932
 2804POPC   C4A39174  40.687  42.067   7.299
 2804POPC   C1B39175  40.551  42.614   6.170
 2804POPC   C2B39176  40.781  42.748   6.532
 2804POPC   C3B39177  40.594  42.670   6.930
 2804POPC   C4B39178  40.462  42.507   7.298
 2805POPC   NC339179  27.908  35.908   5.677
 2805POPC   PO439180  27.312  35.878   5.337
 2805POPC   GL139181  27.457  36.139   5.724
 2805POPC   GL239182  27.688  36.400   5.804
 2805POPC   C1A39183  27.575  36.086   6.211
 2805POPC   D2A39184  27.507  36.278   6.608
 2805POPC   C3A39185  27.636  36.128   6.998
 2805POPC   C4A39186  27.660  35.794   7.257
 2805POPC   C1B39187  27.493  36.583   6.158
 2805POPC   C2B39188  27.523  36.789   6.557
 2805POPC   C3B39189  27.421  36.643   6.961
 2805POPC   C4B39190  27.476  36.474   7.332
 2806POPC   NC339191  43.704  29.387   5.239
 2806POPC   PO439192  44.236  29.003   5.271
 2806POPC   GL139193  43.919  29.121   5.641
 2806POPC   GL239194  43.823  29.442   5.748
 2806POPC   C1A39195  43.937  29.076   6.114
 2806POPC   D2A39196  44.070  29.250   6.531
 2806POPC   C3A39197  43.980  29.118   6.963
 2806POPC   C4A39198  43.567  29.192   7.118
 2806POPC   C1B39199  43.768  29.579   6.171
 2806POPC   C2B39200  43.686  29.747   6.570
 2806POPC   C3B39201  43.836  29.618   6.943
 2806POPC   C4B39202  43.927  29.488   7.360
 2807POPC   NC339203  15.648  37.040   5.275
 2807POPC   PO439204  16.112  36.696   5.482
 2807POPC   GL139205  15.780  36.737   5.772
 2807POPC   GL239206  15.742  37.088   5.783
 2807POPC   C1A39207  15.727  36.777   6.221
 2807POPC   D2A39208  15.477  36.587   6.530
 2807POPC   C3A39209  15.740  36.530   6.857
 2807POPC   C4A39210  16.026  36.833   7.078
 2807POPC   C1B39211  16.039  37.190   6.134
 2807POPC   C2B39212  16.055  37.079   6.594
 2807POPC   C3B39213  16.059  37.334   7.017
 2807POPC   C4B39214  16.144  37.231   7.482
 2808POPC   NC339215  35.532   5.233   5.410
 2808POPC   PO439216  34.912   4.837   5.513
 2808POPC   GL139217  35.206   5.058   5.748
 2808POPC   GL239218  35.484   4.849   5.764
 2808POPC   C1A39219  35.303   5.287   6.127
 2808POPC   D2A39220  35.000   5.403   6.446
 2808POPC   C3A39221  35.037   5.392   6.900
 2808POPC   C4A39222  35.276   5.231   7.263
 2808POPC   C1B39223  35.343   4.787   6.193
 2808POPC   C2B39224  35.431   5.021   6.594
 2808POPC   C3B39225  35.585   4.931   7.024
 2808POPC   C4B39226  35.524   4.554   7.289
 2809POPC   NC339227  20.599  16.196   5.508
 2809POPC   PO439228  20.731  16.763   5.231
 2809POPC   GL139229  20.649  16.661   5.712
 2809POPC   GL239230  20.350  16.835   5.783
 2809POPC   C1A39231  20.688  16.421   6.146
 2809POPC   D2A39232  20.417  16.489   6.524
 2809POPC   C3A39233  20.638  16.639   6.874
 2809POPC   C4A39234  20.566  16.534   7.264
 2809POPC   C1B39235  20.473  16.877   6.195
 2809POPC   C2B39236  20.404  17.012   6.612
 2809POPC   C3B39237  20.418  17.082   7.073
 2809POPC   C4B39238  20.418  17.224   7.518
 2810POPC   NC339239   0.020  21.561   5.256
 2810POPC   PO439240  44.668  21.051   5.621
 2810POPC   GL139241  44.619  21.249   5.982
 2810POPC   GL239242  44.478  21.549   5.882
 2810POPC   C1A39243  44.596  21.113   6.396
 2810POPC   D2A39244  44.302  21.106   6.700
 2810POPC   C3A39245  44.316  21.349   7.037
 2810POPC   C4A39246  44.524  21.298   7.384
 2810POPC   C1B39247  44.626  21.648   6.298
 2810POPC   C2B39248  44.572  21.551   6.673
 2810POPC   C3B39249  44.734  21.621   7.065
 2810POPC   C4B39250  44.630  21.763   7.530
 2811POPC   NC339251  30.797   7.699   5.432
 2811POPC   PO439252  30.470   7.051   5.200
 2811POPC   GL139253  30.558   7.239   5.633
 2811POPC   GL239254  30.478   7.576   5.788
 2811POPC   C1A39255  30.452   7.149   6.081
 2811POPC   D2A39256  30.425   7.293   6.508
 2811POPC   C3A39257  30.510   7.386   6.941
 2811POPC   C4A39258  30.276   7.227   7.280
 2811POPC   C1B39259  30.762   7.566   6.145
 2811POPC   C2B39260  30.872   7.540   6.582
 2811POPC   C3B39261  30.924   7.718   6.965
 2811POPC   C4B39262  30.893   7.527   7.343
 2812POPC   NC339263   9.216  35.018   5.365
 2812POPC   PO439264   8.612  35.256   5.209
 2812POPC   GL139265   8.757  35.126   5.667
 2812POPC   GL239266   9.111  35.275   5.792
 2812POPC   C1A39267   8.812  35.089   6.154
 2812POPC   D2A39268   8.850  35.379   6.500
 2812POPC   C3A39269   8.817  35.232   6.917
 2812POPC   C4A39270   9.062  35.228   7.324
 2812POPC   C1B39271   9.331  35.443   6.178
 2812POPC   C2B39272   9.276  35.691   6.583
 2812POPC   C3B39273   9.151  35.624   7.012
 2812POPC   C4B39274   8.734  35.638   7.216
 2813POPC   NC339275  11.018  15.521   5.296
 2813POPC   PO439276  11.313  16.198   5.327
 2813POPC   GL139277  11.230  16.050   5.736
 2813POPC   GL239278  11.139  15.695   5.768
 2813POPC   C1A39279  11.340  16.040   6.161
 2813POPC   D2A39280  11.578  16.229   6.495
 2813POPC   C3A39281  11.339  16.214   6.879
 2813POPC   C4A39282  11.153  16.177   7.301
 2813POPC   C1B39283  11.025  15.651   6.221
 2813POPC   C2B39284  11.309  15.754   6.597
 2813POPC   C3B39285  11.188  15.737   7.027
 2813POPC   C4B39286  10.963  15.359   7.160
 2814POPC   NC339287  14.165  16.448   5.307
 2814POPC   PO439288  14.374  17.106   5.545
 2814POPC   GL139289  14.569  16.852   5.845
 2814POPC   GL239290  14.549  16.528   5.705
 2814POPC   C1A39291  14.435  16.872   6.267
 2814POPC   D2A39292  14.319  16.955   6.689
 2814POPC   C3A39293  14.676  17.042   6.914
 2814POPC   C4A39294  14.811  16.922   7.291
 2814POPC   C1B39295  14.324  16.405   6.094
 2814POPC   C2B39296  14.151  16.508   6.510
 2814POPC   C3B39297  14.283  16.504   6.952
 2814POPC   C4B39298  13.996  16.405   7.266
 2815POPC   NC339299  30.102  16.487   5.411
 2815POPC   PO439300  29.680  17.023   5.488
 2815POPC   GL139301  29.741  16.668   5.770
 2815POPC   GL239302  30.092  16.768   5.843
 2815POPC   C1A39303  29.735  16.635   6.217
 2815POPC   D2A39304  29.760  16.988   6.533
 2815POPC   C3A39305  29.932  16.757   6.851
 2815POPC   C4A39306  29.783  16.504   7.175
 2815POPC   C1B39307  30.194  16.442   6.148
 2815POPC   C2B39308  30.164  16.361   6.592
 2815POPC   C3B39309  30.292  16.413   7.044
 2815POPC   C4B39310  30.535  16.554   7.395
 2816POPC   NC339311  39.011  31.728   5.452
 2816POPC   PO439312  39.555  31.317   5.456
 2816POPC   GL139313  39.279  31.413   5.793
 2816POPC   GL239314  39.043  31.164   5.847
 2816POPC   C1A39315  39.138  31.591   6.195
 2816POPC   D2A39316  39.282  31.780   6.587
 2816POPC   C3A39317  39.156  31.635   6.991
 2816POPC   C4A39318  39.120  31.542   7.444
 2816POPC   C1B39319  39.190  31.053   6.236
 2816POPC   C2B39320  39.133  31.132   6.668
 2816POPC   C3B39321  39.045  31.151   7.096
 2816POPC   C4B39322  38.748  31.145   7.393
 2817POPC   NC339323  10.522  13.802   5.527
 2817POPC   PO439324  10.739  13.126   5.475
 2817POPC   GL139325  10.487  13.370   5.821
 2817POPC   GL239326  10.120  13.331   5.896
 2817POPC   C1A39327  10.434  13.712   6.175
 2817POPC   D2A39328  10.532  13.958   6.583
 2817POPC   C3A39329  10.497  13.746   6.975
 2817POPC   C4A39330  10.587  13.357   7.179
 2817POPC   C1B39331  10.343  13.232   6.291
 2817POPC   C2B39332  10.358  13.320   6.716
 2817POPC   C3B39333  10.093  13.448   7.065
 2817POPC   C4B39334  10.171  13.271   7.492
 2818POPC   NC339335  17.843   4.589   5.319
 2818POPC   PO439336  17.238   4.177   5.433
 2818POPC   GL139337  17.419   4.231   5.832
 2818POPC   GL239338  17.625   4.470   5.787
 2818POPC   C1A39339  17.605   4.157   6.238
 2818POPC   D2A39340  17.409   3.939   6.605
 2818POPC   C3A39341  17.553   4.130   6.961
 2818POPC   C4A39342  17.699   4.151   7.364
 2818POPC   C1B39343  17.370   4.621   6.161
 2818POPC   C2B39344  17.477   4.533   6.599
 2818POPC   C3B39345  17.324   4.580   7.023
 2818POPC   C4B39346  17.532   4.611   7.455
 2819POPC   NC339347  41.658  38.927   5.596
 2819POPC   PO439348  41.180  39.125   5.401
 2819POPC   GL139349  41.311  39.322   5.804
 2819POPC   GL239350  41.647  39.510   5.890
 2819POPC   C1A39351  41.418  39.235   6.237
 2819POPC   D2A39352  41.186  39.374   6.574
 2819POPC   C3A39353  41.401  39.287   6.943
 2819POPC   C4A39354  41.466  39.390   7.347
 2819POPC   C1B39355  41.871  39.512   6.291
 2819POPC   C2B39356  41.846  39.230   6.656
 2819POPC   C3B39357  41.933  39.300   7.096
 2819POPC   C4B39358  41.826  39.715   7.194
 2820POPC   NC339359   9.227  11.008   5.568
 2820POPC   PO439360   9.047  11.623   5.387
 2820POPC   GL139361   8.943  11.409   5.796
 2820POPC   GL239362   8.617  11.247   5.768
 2820POPC   C1A39363   8.753  11.518   6.236
 2820POPC   D2A39364   8.800  11.665   6.688
 2820POPC   C3A39365   8.819  11.586   7.123
 2820POPC   C4A39366   8.956  11.286   7.513
 2820POPC   C1B39367   8.715  11.014   6.149
 2820POPC   C2B39368   8.732  11.135   6.611
 2820POPC   C3B39369   8.848  11.085   7.058
 2820POPC   C4B39370   8.617  10.936   7.409
 2821POPC   NC339371  26.213  26.691   5.469
 2821POPC   PO439372  25.642  26.464   5.257
 2821POPC   GL139373  25.776  26.669   5.730
 2821POPC   GL239374  26.133  26.827   5.932
 2821POPC   C1A39375  25.691  26.962   6.088
 2821POPC   D2A39376  26.000  27.060   6.411
 2821POPC   C3A39377  25.864  27.022   6.856
 2821POPC   C4A39378  25.735  27.007   7.292
 2821POPC   C1B39379  26.367  26.697   6.311
 2821POPC   C2B39380  26.317  26.793   6.743
 2821POPC   C3B39381  26.231  26.861   7.183
 2821POPC   C4B39382  26.361  26.684   7.587
 2822POPC   NC339383  30.611  13.828   5.073
 2822POPC   PO439384  30.868  13.389   5.530
 2822POPC   GL139385  30.899  13.717   5.855
 2822POPC   GL239386  30.573  13.797   5.789
 2822POPC   C1A39387  31.038  13.721   6.305
 2822POPC   D2A39388  31.127  13.399   6.631
 2822POPC   C3A39389  30.882  13.450   6.993
 2822POPC   C4A39390  30.985  13.601   7.387
 2822POPC   C1B39391  30.491  13.853   6.217
 2822POPC   C2B39392  30.623  13.774   6.645
 2822POPC   C3B39393  30.373  13.533   6.952
 2822POPC   C4B39394  30.510  13.445   7.359
 2823POPC   NC339395  26.292  25.741   5.166
 2823POPC   PO439396  25.900  26.169   5.655
 2823POPC   GL139397  26.043  26.090   6.050
 2823POPC   GL239398  26.271  26.335   5.980
 2823POPC   C1A39399  26.256  26.126   6.459
 2823POPC   D2A39400  26.559  25.921   6.747
 2823POPC   C3A39401  26.334  25.914   7.119
 2823POPC   C4A39402  25.921  25.926   7.171
 2823POPC   C1B39403  25.890  26.521   6.238
 2823POPC   C2B39404  25.671  26.595   6.604
 2823POPC   C3B39405  25.932  26.338   6.850
 2823POPC   C4B39406  26.096  26.384   7.240
 2824POPC   NC339407  36.802  41.097   5.470
 2824POPC   PO439408  37.438  40.721   5.419
 2824POPC   GL139409  37.137  40.793   5.781
 2824POPC   GL239410  36.776  40.669   5.753
 2824POPC   C1A39411  37.078  40.530   6.175
 2824POPC   D2A39412  37.091  40.433   6.612
 2824POPC   C3A39413  37.117  40.755   6.871
 2824POPC   C4A39414  36.961  40.763   7.235
 2824POPC   C1B39415  36.772  40.924   6.156
 2824POPC   C2B39416  36.716  40.796   6.544
 2824POPC   C3B39417  36.583  40.656   6.912
 2824POPC   C4B39418  36.428  40.777   7.287
 2825POPC   NC339419  43.215  38.504   5.471
 2825POPC   PO439420  43.363  37.839   5.464
 2825POPC   GL139421  43.359  38.126   5.806
 2825POPC   GL239422  43.017  38.165   5.880
 2825POPC   C1A39423  43.372  38.415   6.189
 2825POPC   D2A39424  43.405  38.799   6.478
 2825POPC   C3A39425  43.503  38.780   6.920
 2825POPC   C4A39426  43.123  38.689   7.137
 2825POPC   C1B39427  42.867  38.341   6.255
 2825POPC   C2B39428  43.031  38.432   6.642
 2825POPC   C3B39429  42.896  38.250   6.995
 2825POPC   C4B39430  42.982  38.195   7.384
 2826POPC   NC339431  37.498  25.956   5.048
 2826POPC   PO439432  38.120  26.094   5.348
 2826POPC   GL139433  37.748  26.271   5.660
 2826POPC   GL239434  37.481  26.017   5.753
 2826POPC   C1A39435  37.655  26.255   6.157
 2826POPC   D2A39436  37.749  26.268   6.617
 2826POPC   C3A39437  37.491  26.313   6.989
 2826POPC   C4A39438  37.521  26.343   7.421
 2826POPC   C1B39439  37.503  25.742   6.142
 2826POPC   C2B39440  37.679  25.749   6.576
 2826POPC   C3B39441  37.471  25.794   6.976
 2826POPC   C4B39442  37.595  25.851   7.406
 2827POPC   NC339443  29.460  44.460   5.546
 2827POPC   PO439444  29.278   0.084   5.435
 2827POPC   GL139445  29.205  44.812   5.823
 2827POPC   GL239446  29.522  44.865   5.917
 2827POPC   C1A39447  28.911  44.565   6.128
 2827POPC   D2A39448  28.800  44.737   6.535
 2827POPC   C3A39449  28.883  44.571   6.948
 2827POPC   C4A39450  28.921  44.603   7.418
 2827POPC   C1B39451  29.317  44.794   6.338
 2827POPC   C2B39452  29.223  44.935   6.749
 2827POPC   C3B39453  29.352  44.779   7.110
 2827POPC   C4B39454  29.717  44.859   7.302
 2828POPC   NC339455   4.007  21.860   5.693
 2828POPC   PO439456   4.142  22.484   5.451
 2828POPC   GL139457   4.214  22.304   5.891
 2828POPC   GL239458   4.573  22.213   5.873
 2828POPC   C1A39459   4.255  22.010   6.291
 2828POPC   D2A39460   4.457  22.041   6.705
 2828POPC   C3A39461   4.159  22.102   7.042
 2828POPC   C4A39462   4.118  22.472   7.287
 2828POPC   C1B39463   4.571  22.409   6.286
 2828POPC   C2B39464   4.526  22.578   6.699
 2828POPC   C3B39465   4.624  22.385   7.090
 2828POPC   C4B39466   4.606  21.953   7.243
 2829POPC   NC339467  36.739  14.688   5.328
 2829POPC   PO439468  36.774  15.401   5.376
 2829POPC   GL139469  36.943  15.349   5.774
 2829POPC   GL239470  36.959  14.996   5.800
 2829POPC   C1A39471  36.856  15.286   6.214
 2829POPC   D2A39472  36.903  15.083   6.600
 2829POPC   C3A39473  36.747  15.337   6.917
 2829POPC   C4A39474  36.911  15.333   7.306
 2829POPC   C1B39475  37.163  14.832   6.207
 2829POPC   C2B39476  37.235  14.674   6.641
 2829POPC   C3B39477  37.078  14.833   7.061
 2829POPC   C4B39478  37.155  14.759   7.497
 2830POPC   NC339479   4.878  43.312   5.400
 2830POPC   PO439480   5.519  43.304   5.264
 2830POPC   GL139481   5.266  43.329   5.760
 2830POPC   GL239482   4.902  43.169   5.874
 2830POPC   C1A39483   5.150  43.332   6.268
 2830POPC   D2A39484   5.045  43.095   6.682
 2830POPC   C3A39485   5.140  43.349   7.022
 2830POPC   C4A39486   5.521  43.382   7.237
 2830POPC   C1B39487   4.814  42.870   6.224
 2830POPC   C2B39488   4.924  42.594   6.587
 2830POPC   C3B39489   4.950  42.636   7.046
 2830POPC   C4B39490   4.899  42.987   7.312
 2831POPC   NC339491  15.562  10.732   5.223
 2831POPC   PO439492  14.966  11.000   5.458
 2831POPC   GL139493  15.124  11.224   5.808
 2831POPC   GL239494  15.450  11.347   5.769
 2831POPC   C1A39495  14.967  11.319   6.211
 2831POPC   D2A39496  14.962  11.133   6.619
 2831POPC   C3A39497  14.808  11.390   6.943
 2831POPC   C4A39498  15.158  11.453   7.205
 2831POPC   C1B39499  15.522  10.916   5.967
 2831POPC   C2B39500  15.435  10.851   6.422
 2831POPC   C3B39501  15.483  11.119   6.793
 2831POPC   C4B39502  15.494  11.075   7.234
 2832POPC   NC339503   2.643   7.043   5.488
 2832POPC   PO439504   2.897   7.596   5.117
 2832POPC   GL139505   2.962   7.523   5.644
 2832POPC   GL239506   2.702   7.336   5.900
 2832POPC   C1A39507   3.134   7.473   6.117
 2832POPC   D2A39508   3.122   7.061   6.374
 2832POPC   C3A39509   2.853   7.007   6.759
 2832POPC   C4A39510   2.701   7.267   7.122
 2832POPC   C1B39511   2.487   7.057   6.252
 2832POPC   C2B39512   2.306   6.983   6.681
 2832POPC   C3B39513   2.411   6.868   7.112
 2832POPC   C4B39514   2.463   6.757   7.556
 2833POPC   NC339515  36.093  17.075   5.112
 2833POPC   PO439516  35.927  16.833   5.710
 2833POPC   GL139517  35.979  16.699   6.066
 2833POPC   GL239518  36.314  16.674   6.033
 2833POPC   C1A39519  35.959  16.779   6.474
 2833POPC   D2A39520  36.207  16.956   6.784
 2833POPC   C3A39521  35.951  16.961   7.087
 2833POPC   C4A39522  35.961  16.701   7.401
 2833POPC   C1B39523  36.473  16.787   6.386
 2833POPC   C2B39524  36.647  16.611   6.710
 2833POPC   C3B39525  36.562  16.585   7.125
 2833POPC   C4B39526  36.422  16.952   7.282
 2834POPC   NC339527  39.079  15.270   5.352
 2834POPC   PO439528  39.559  15.564   5.650
 2834POPC   GL139529  39.282  15.224   5.823
 2834POPC   GL239530  39.206  14.860   5.793
 2834POPC   C1A39531  39.065  15.166   6.217
 2834POPC   D2A39532  39.171  15.429   6.571
 2834POPC   C3A39533  39.126  15.288   6.974
 2834POPC   C4A39534  39.278  15.293   7.394
 2834POPC   C1B39535  39.522  14.873   6.127
 2834POPC   C2B39536  39.416  14.959   6.542
 2834POPC   C3B39537  39.117  14.791   6.811
 2834POPC   C4B39538  39.285  14.832   7.201
 2835POPC   NC339539  17.377  30.004   5.588
 2835POPC   PO439540  18.008  29.738   5.524
 2835POPC   GL139541  17.766  29.800   5.883
 2835POPC   GL239542  17.622  30.130   6.009
 2835POPC   C1A39543  17.879  29.786   6.295
 2835POPC   D2A39544  17.683  29.968   6.631
 2835POPC   C3A39545  17.847  29.867   6.994
 2835POPC   C4A39546  17.668  29.857   7.391
 2835POPC   C1B39547  17.353  29.856   6.232
 2835POPC   C2B39548  17.218  29.767   6.632
 2835POPC   C3B39549  17.314  29.954   7.028
 2835POPC   C4B39550  17.176  29.765   7.433
 2836POPC   NC339551  23.917  13.408   5.558
 2836POPC   PO439552  23.571  13.959   5.425
 2836POPC   GL139553  23.418  13.874   5.859
 2836POPC   GL239554  23.539  13.530   5.895
 2836POPC   C1A39555  23.518  13.805   6.303
 2836POPC   D2A39556  23.883  13.841   6.504
 2836POPC   C3A39557  23.757  13.718   6.886
 2836POPC   C4A39558  23.611  13.762   7.259
 2836POPC   C1B39559  23.816  13.366   6.219
 2836POPC   C2B39560  24.014  13.355   6.632
 2836POPC   C3B39561  24.092  13.394   7.060
 2836POPC   C4B39562  23.773  13.284   7.374
 2837POPC   NC339563   7.674  32.598   5.426
 2837POPC   PO439564   8.211  32.115   5.492
 2837POPC   GL139565   8.026  32.150   5.867
 2837POPC   GL239566   7.881  32.474   5.873
 2837POPC   C1A39567   8.057  31.977   6.290
 2837POPC   D2A39568   8.144  32.165   6.669
 2837POPC   C3A39569   8.196  31.938   7.043
 2837POPC   C4A39570   7.975  32.180   7.343
 2837POPC   C1B39571   8.152  32.503   6.236
 2837POPC   C2B39572   8.541  32.547   6.489
 2837POPC   C3B39573   8.614  32.697   6.890
 2837POPC   C4B39574   8.343  32.434   7.088
 2838POPC   NC339575  38.659  12.228   5.453
 2838POPC   PO439576  38.008  11.840   5.517
 2838POPC   GL139577  38.189  12.087   5.822
 2838POPC   GL239578  38.514  11.958   5.861
 2838POPC   C1A39579  38.251  12.190   6.263
 2838POPC   D2A39580  38.098  12.148   6.679
 2838POPC   C3A39581  38.414  12.114   6.983
 2838POPC   C4A39582  38.341  11.895   7.334
 2838POPC   C1B39583  38.761  12.157   6.181
 2838POPC   C2B39584  38.668  12.375   6.560
 2838POPC   C3B39585  38.872  12.375   6.949
 2838POPC   C4B39586  38.814  12.151   7.326
 2839POPC   NC339587  40.015  21.598   5.371
 2839POPC   PO439588  39.839  20.996   5.327
 2839POPC   GL139589  40.015  21.217   5.766
 2839POPC   GL239590  40.118  21.545   5.867
 2839POPC   C1A39591  40.229  21.106   6.155
 2839POPC   D2A39592  40.145  21.307   6.547
 2839POPC   C3A39593  40.194  21.087   6.929
 2839POPC   C4A39594  40.050  21.322   7.249
 2839POPC   C1B39595  39.799  21.718   6.122
 2839POPC   C2B39596  39.723  21.634   6.545
 2839POPC   C3B39597  39.944  21.694   6.905
 2839POPC   C4B39598  39.735  21.736   7.294
 2840POPC   NC339599   8.409  37.276   5.348
 2840POPC   PO439600   7.967  37.730   4.997
 2840POPC   GL139601   8.067  37.846   5.567
 2840POPC   GL239602   8.318  37.607   5.764
 2840POPC   C1A39603   8.220  37.946   6.100
 2840POPC   D2A39604   8.149  38.054   6.559
 2840POPC   C3A39605   8.205  37.872   6.970
 2840POPC   C4A39606   8.210  37.921   7.414
 2840POPC   C1B39607   7.993  37.511   6.153
 2840POPC   C2B39608   8.054  37.466   6.644
 2840POPC   C3B39609   7.922  37.346   7.110
 2840POPC   C4B39610   8.063  37.437   7.570
 2841POPC   NC339611  17.134  43.770   5.337
 2841POPC   PO439612  17.486  44.371   5.428
 2841POPC   GL139613  17.297  44.064   5.740
 2841POPC   GL239614  17.446  43.698   5.745
 2841POPC   C1A39615  17.220  43.984   6.194
 2841POPC   D2A39616  17.421  43.936   6.623
 2841POPC   C3A39617  17.174  43.977   7.006
 2841POPC   C4A39618  17.104  44.025   7.460
 2841POPC   C1B39619  17.471  43.531   6.177
 2841POPC   C2B39620  17.663  43.496   6.604
 2841POPC   C3B39621  17.567  43.598   7.032
 2841POPC   C4B39622  17.789  43.461   7.399
 2842POPC   NC339623  38.292  34.392   5.390
 2842POPC   PO439624  38.798  34.612   5.779
 2842POPC   GL139625  38.380  34.442   5.913
 2842POPC   GL239626  38.059  34.603   5.905
 2842POPC   C1A39627  38.375  34.611   6.324
 2842POPC   D2A39628  38.701  34.721   6.591
 2842POPC   C3A39629  38.520  34.520   6.886
 2842POPC   C4A39630  38.608  34.562   7.274
 2842POPC   C1B39631  37.911  34.415   6.303
 2842POPC   C2B39632  38.019  34.454   6.751
 2842POPC   C3B39633  38.143  34.327   7.182
 2842POPC   C4B39634  38.208  34.472   7.622
 2843POPC   NC339635  18.874   6.846   5.431
 2843POPC   PO439636  18.822   6.170   5.520
 2843POPC   GL139637  18.811   6.442   5.838
 2843POPC   GL239638  19.091   6.663   5.890
 2843POPC   C1A39639  18.872   6.391   6.283
 2843POPC   D2A39640  19.173   6.491   6.606
 2843POPC   C3A39641  19.002   6.471   7.009
 2843POPC   C4A39642  18.646   6.397   7.236
 2843POPC   C1B39643  19.270   6.905   6.264
 2843POPC   C2B39644  19.339   6.979   6.720
 2843POPC   C3B39645  19.480   6.683   7.035
 2843POPC   C4B39646  19.291   6.622   7.416
 2844POPC   NC339647  10.240  11.154   5.451
 2844POPC   PO439648  11.088  11.233   5.618
 2844POPC   GL139649  10.755  11.326   5.888
 2844POPC   GL239650  10.483  11.107   5.899
 2844POPC   C1A39651  10.583  11.427   6.295
 2844POPC   D2A39652  10.325  11.228   6.605
 2844POPC   C3A39653  10.289  11.407   7.008
 2844POPC   C4A39654  10.446  11.444   7.439
 2844POPC   C1B39655  10.656  10.920   6.295
 2844POPC   C2B39656  10.799  10.983   6.729
 2844POPC   C3B39657  10.678  11.037   7.173
 2844POPC   C4B39658  10.799  11.126   7.633
 2845POPC   NC339659  36.145  37.927   5.252
 2845POPC   PO439660  36.301  37.484   5.760
 2845POPC   GL139661  35.937  37.696   5.839
 2845POPC   GL239662  36.065  38.006   5.741
 2845POPC   C1A39663  35.874  37.964   6.201
 2845POPC   D2A39664  36.010  38.119   6.584
 2845POPC   C3A39665  36.236  37.843   6.834
 2845POPC   C4A39666  36.061  37.506   7.061
 2845POPC   C1B39667  36.349  38.195   6.043
 2845POPC   C2B39668  36.378  38.432   6.417
 2845POPC   C3B39669  36.362  38.378   6.862
 2845POPC   C4B39670  36.559  38.167   7.207
 2846POPC   NC339671  30.980   3.671   5.411
 2846POPC   PO439672  30.554   3.145   5.282
 2846POPC   GL139673  30.632   3.404   5.715
 2846POPC   GL239674  30.807   3.744   5.867
 2846POPC   C1A39675  30.776   3.329   6.164
 2846POPC   D2A39676  30.790   3.503   6.559
 2846POPC   C3A39677  30.605   3.291   6.900
 2846POPC   C4A39678  30.750   3.280   7.316
 2846POPC   C1B39679  30.516   3.804   6.191
 2846POPC   C2B39680  30.630   3.973   6.580
 2846POPC   C3B39681  30.520   3.798   6.975
 2846POPC   C4B39682  30.655   3.754   7.393
 2847POPC   NC339683  32.640  31.587   5.441
 2847POPC   PO439684  31.990  31.925   5.474
 2847POPC   GL139685  32.003  31.592   5.833
 2847POPC   GL239686  32.314  31.475   5.809
 2847POPC   C1A39687  32.052  31.502   6.254
 2847POPC   D2A39688  31.916  31.589   6.644
 2847POPC   C3A39689  32.136  31.380   6.956
 2847POPC   C4A39690  31.943  31.471   7.330
 2847POPC   C1B39691  32.554  31.540   6.175
 2847POPC   C2B39692  32.666  31.253   6.527
 2847POPC   C3B39693  32.672  31.283   6.963
 2847POPC   C4B39694  32.495  31.540   7.291
 2848POPC   NC339695   7.883  17.748   5.320
 2848POPC   PO439696   8.330  17.268   5.514
 2848POPC   GL139697   8.037  17.441   5.791
 2848POPC   GL239698   8.019  17.797   5.800
 2848POPC   C1A39699   8.199  17.507   6.205
 2848POPC   D2A39700   8.229  17.263   6.547
 2848POPC   C3A39701   8.123  17.385   6.930
 2848POPC   C4A39702   8.386  17.255   7.258
 2848POPC   C1B39703   8.105  17.995   6.139
 2848POPC   C2B39704   7.942  17.868   6.529
 2848POPC   C3B39705   8.101  17.953   6.951
 2848POPC   C4B39706   8.170  17.719   7.322
 2849POPC   NC339707  11.619  15.851   5.421
 2849POPC   PO439708  12.269  15.978   5.518
 2849POPC   GL139709  12.081  16.232   5.869
 2849POPC   GL239710  11.713  16.205   5.833
 2849POPC   C1A39711  12.117  16.238   6.349
 2849POPC   D2A39712  12.442  16.139   6.689
 2849POPC   C3A39713  12.311  15.926   7.071
 2849POPC   C4A39714  12.150  16.182   7.400
 2849POPC   C1B39715  11.815  15.863   6.150
 2849POPC   C2B39716  11.899  15.838   6.613
 2849POPC   C3B39717  11.858  16.136   6.946
 2849POPC   C4B39718  11.655  16.031   7.314
 2850POPC   NC339719  40.279  35.676   5.414
 2850POPC   PO439720  39.851  35.173   5.432
 2850POPC   GL139721  40.048  35.249   5.837
 2850POPC   GL239722  40.167  35.589   5.914
 2850POPC   C1A39723  40.007  35.221   6.299
 2850POPC   D2A39724  39.759  34.979   6.610
 2850POPC   C3A39725  39.876  35.119   7.022
 2850POPC   C4A39726  40.193  35.397   7.165
 2850POPC   C1B39727  39.756  35.639   6.146
 2850POPC   C2B39728  39.663  35.511   6.605
 2850POPC   C3B39729  39.750  35.641   7.063
 2850POPC   C4B39730  40.074  35.823   7.424
 2851POPC   NC339731  23.923   0.301   5.216
 2851POPC   PO439732  23.341   0.367   5.456
 2851POPC   GL139733  23.574   0.347   5.834
 2851POPC   GL239734  23.922   0.254   5.739
 2851POPC   C1A39735  23.617   0.447   6.276
 2851POPC   D2A39736  23.758   0.582   6.673
 2851POPC   C3A39737  23.581   0.405   7.022
 2851POPC   C4A39738  23.496   0.199   7.401
 2851POPC   C1B39739  24.089   0.420   6.111
 2851POPC   C2B39740  24.159   0.294   6.514
 2851POPC   C3B39741  24.079   0.229   6.948
 2851POPC   C4B39742  24.043   0.517   7.276
 2852POPC   NC339743   1.854   9.522   5.385
 2852POPC   PO439744   2.253  10.052   5.543
 2852POPC   GL139745   2.163   9.763   5.915
 2852POPC   GL239746   2.131   9.406   5.851
 2852POPC   C1A39747   2.214   9.618   6.345
 2852POPC   D2A39748   2.184   9.856   6.743
 2852POPC   C3A39749   2.201   9.766   7.181
 2852POPC   C4A39750   2.017   9.699   7.591
 2852POPC   C1B39751   1.763   9.432   6.159
 2852POPC   C2B39752   1.717   9.551   6.615
 2852POPC   C3B39753   1.703   9.690   7.053
 2852POPC   C4B39754   1.519   9.729   7.483
 2853POPC   NC339755  27.525  10.040   5.647
 2853POPC   PO439756  27.740  10.671   5.363
 2853POPC   GL139757  27.582  10.739   5.734
 2853POPC   GL239758  27.706  10.447   5.869
 2853POPC   C1A39759  27.716  10.839   6.171
 2853POPC   D2A39760  27.597  10.800   6.572
 2853POPC   C3A39761  27.848  10.714   6.902
 2853POPC   C4A39762  27.763  10.859   7.303
 2853POPC   C1B39763  27.693  10.343   6.292
 2853POPC   C2B39764  27.565  10.293   6.714
 2853POPC   C3B39765  27.484  10.447   7.121
 2853POPC   C4B39766  27.794  10.379   7.449
 2854POPC   NC339767   3.677   2.732   5.317
 2854POPC   PO439768   3.798   3.413   5.511
 2854POPC   GL139769   3.622   3.005   5.773
 2854POPC   GL239770   3.540   2.599   5.780
 2854POPC   C1A39771   3.424   2.874   6.183
 2854POPC   D2A39772   3.293   2.981   6.585
 2854POPC   C3A39773   3.571   2.832   6.905
 2854POPC   C4A39774   3.349   2.772   7.259
 2854POPC   C1B39775   3.488   2.351   6.176
 2854POPC   C2B39776   3.404   2.187   6.605
 2854POPC   C3B39777   3.536   2.333   7.001
 2854POPC   C4B39778   3.949   2.468   7.154
 2855POPC   NC339779  33.947  34.366   5.414
 2855POPC   PO439780  33.580  34.940   5.464
 2855POPC   GL139781  33.506  34.731   5.846
 2855POPC   GL239782  33.834  34.579   5.868
 2855POPC   C1A39783  33.589  34.765   6.293
 2855POPC   D2A39784  33.798  34.473   6.570
 2855POPC   C3A39785  33.946  34.581   6.988
 2855POPC   C4A39786  33.599  34.515   7.288
 2855POPC   C1B39787  34.085  34.726   6.199
 2855POPC   C2B39788  34.051  34.925   6.611
 2855POPC   C3B39789  34.144  35.104   6.992
 2855POPC   C4B39790  34.238  34.870   7.371
 2856POPC   NC339791  28.095   4.541   5.532
 2856POPC   PO439792  28.738   4.212   5.384
 2856POPC   GL139793  28.617   4.216   5.812
 2856POPC   GL239794  28.813   3.921   5.946
 2856POPC   C1A39795  28.396   4.440   6.173
 2856POPC   D2A39796  28.289   4.249   6.583
 2856POPC   C3A39797  28.079   4.392   6.927
 2856POPC   C4A39798  28.218   4.345   7.340
 2856POPC   C1B39799  28.908   4.315   6.227
 2856POPC   C2B39800  28.744   4.538   6.612
 2856POPC   C3B39801  28.641   4.387   7.028
 2856POPC   C4B39802  28.713   4.367   7.476
 2857POPC   NC339803  18.554  41.872   5.484
 2857POPC   PO439804  17.971  41.608   5.324
 2857POPC   GL139805  18.193  41.597   5.728
 2857POPC   GL239806  18.105  41.252   5.769
 2857POPC   C1A39807  18.370  41.799   6.139
 2857POPC   D2A39808  18.197  41.893   6.565
 2857POPC   C3A39809  18.413  41.952   7.001
 2857POPC   C4A39810  18.487  41.882   7.443
 2857POPC   C1B39811  18.336  41.241   6.158
 2857POPC   C2B39812  18.497  41.180   6.563
 2857POPC   C3B39813  18.359  41.470   6.867
 2857POPC   C4B39814  18.210  41.502   7.297
 2858POPC   NC339815  43.778   4.607   5.377
 2858POPC   PO439816  43.618   5.326   5.325
 2858POPC   GL139817  43.804   5.067   5.697
 2858POPC   GL239818  43.596   4.795   5.822
 2858POPC   C1A39819  44.022   4.911   6.105
 2858POPC   D2A39820  43.981   5.123   6.518
 2858POPC   C3A39821  44.201   5.015   6.914
 2858POPC   C4A39822  44.151   5.068   7.375
 2858POPC   C1B39823  43.549   5.055   6.174
 2858POPC   C2B39824  43.413   5.219   6.514
 2858POPC   C3B39825  43.432   5.039   6.858
 2858POPC   C4B39826  43.727   5.050   7.113
 2859POPC   NC339827  16.062  28.902   5.416
 2859POPC   PO439828  15.630  28.392   5.502
 2859POPC   GL139829  15.910  28.477   5.889
 2859POPC   GL239830  16.210  28.704   5.858
 2859POPC   C1A39831  16.048  28.282   6.308
 2859POPC   D2A39832  16.152  28.173   6.752
 2859POPC   C3A39833  15.792  28.283   6.999
 2859POPC   C4A39834  15.633  28.134   7.404
 2859POPC   C1B39835  16.125  28.830   6.265
 2859POPC   C2B39836  16.294  28.687   6.660
 2859POPC   C3B39837  16.131  28.667   7.085
 2859POPC   C4B39838  15.778  28.640   7.379
 2860POPC   NC339839  21.007  29.923   5.336
 2860POPC   PO439840  21.460  29.465   5.498
 2860POPC   GL139841  21.177  29.713   5.782
 2860POPC   GL239842  21.376  29.990   5.783
 2860POPC   C1A39843  21.101  29.977   6.194
 2860POPC   D2A39844  21.191  29.750   6.575
 2860POPC   C3A39845  21.329  29.905   6.967
 2860POPC   C4A39846  21.454  30.209   7.270
 2860POPC   C1B39847  21.602  29.847   6.158
 2860POPC   C2B39848  21.843  30.028   6.514
 2860POPC   C3B39849  21.827  30.026   6.963
 2860POPC   C4B39850  21.717  29.764   7.344
 2861POPC   NC339851   7.669  40.904   5.468
 2861POPC   PO439852   7.151  40.556   5.212
 2861POPC   GL139853   7.264  40.679   5.702
 2861POPC   GL239854   7.387  40.928   5.882
 2861POPC   C1A39855   7.364  40.537   6.177
 2861POPC   D2A39856   7.618  40.498   6.544
 2861POPC   C3A39857   7.377  40.553   6.919
 2861POPC   C4A39858   7.500  40.571   7.309
 2861POPC   C1B39859   7.523  41.043   6.235
 2861POPC   C2B39860   7.393  40.962   6.612
 2861POPC   C3B39861   7.366  41.062   7.030
 2861POPC   C4B39862   7.493  41.074   7.453
 2862POPC   NC339863  13.892   1.012   5.512
 2862POPC   PO439864  13.289   1.151   5.594
 2862POPC   GL139865  13.449   1.415   5.849
 2862POPC   GL239866  13.789   1.467   5.761
 2862POPC   C1A39867  13.279   1.511   6.217
 2862POPC   D2A39868  13.419   1.493   6.611
 2862POPC   C3A39869  13.414   1.180   6.899
 2862POPC   C4A39870  13.258   1.335   7.245
 2862POPC   C1B39871  13.937   1.694   6.120
 2862POPC   C2B39872  13.833   1.805   6.565
 2862POPC   C3B39873  13.952   1.580   6.934
 2862POPC   C4B39874  13.776   1.285   7.251
 2863POPC   NC339875  11.026  14.949   5.539
 2863POPC   PO439876  11.459  15.413   5.363
 2863POPC   GL139877  11.401  15.214   5.774
 2863POPC   GL239878  11.473  14.868   5.862
 2863POPC   C1A39879  11.270  15.197   6.217
 2863POPC   D2A39880  11.056  15.268   6.622
 2863POPC   C3A39881  11.416  15.292   6.921
 2863POPC   C4A39882  11.717  15.120   7.202
 2863POPC   C1B39883  11.242  14.686   6.204
 2863POPC   C2B39884  10.997  14.649   6.599
 2863POPC   C3B39885  11.123  14.865   6.969
 2863POPC   C4B39886  11.469  14.670   7.168
 2864POPC   NC339887  36.236  10.061   5.442
 2864POPC   PO439888  36.326   9.428   5.415
 2864POPC   GL139889  36.117   9.648   5.764
 2864POPC   GL239890  35.900   9.922   5.819
 2864POPC   C1A39891  36.032   9.606   6.222
 2864POPC   D2A39892  35.891   9.775   6.599
 2864POPC   C3A39893  36.011   9.534   6.940
 2864POPC   C4A39894  36.304   9.623   7.283
 2864POPC   C1B39895  36.254  10.062   6.101
 2864POPC   C2B39896  36.409   9.894   6.496
 2864POPC   C3B39897  36.281   9.972   6.887
 2864POPC   C4B39898  36.245  10.126   7.274
 2865POPC   NC339899   5.803  16.131   5.360
 2865POPC   PO439900   5.537  15.542   5.431
 2865POPC   GL139901   5.770  15.789   5.744
 2865POPC   GL239902   5.596  16.101   5.817
 2865POPC   C1A39903   6.062  16.009   6.034
 2865POPC   D2A39904   6.089  16.091   6.483
 2865POPC   C3A39905   5.963  15.767   6.764
 2865POPC   C4A39906   6.032  15.909   7.171
 2865POPC   C1B39907   5.637  16.226   6.230
 2865POPC   C2B39908   5.458  16.090   6.599
 2865POPC   C3B39909   5.544  15.941   6.995
 2865POPC   C4B39910   5.632  16.149   7.384
 2866POPC   NC339911   7.484  13.099   5.278
 2866POPC   PO439912   7.051  12.720   5.615
 2866POPC   GL139913   7.459  12.852   5.752
 2866POPC   GL239914   7.427  12.590   5.998
 2866POPC   C1A39915   7.693  12.991   6.132
 2866POPC   D2A39916   7.565  12.835   6.544
 2866POPC   C3A39917   7.624  13.142   6.876
 2866POPC   C4A39918   7.794  13.199   7.280
 2866POPC   C1B39919   7.135  12.891   6.254
 2866POPC   C2B39920   7.115  13.038   6.690
 2866POPC   C3B39921   7.236  12.860   7.095
 2866POPC   C4B39922   7.239  12.693   7.546
 2867POPC   NC339923  10.273  16.126   5.576
 2867POPC   PO439924  10.618  15.505   5.517
 2867POPC   GL139925  10.546  15.750   5.857
 2867POPC   GL239926  10.728  16.048   5.777
 2867POPC   C1A39927  10.560  15.872   6.297
 2867POPC   D2A39928  10.797  15.803   6.704
 2867POPC   C3A39929  10.576  15.792   7.114
 2867POPC   C4A39930  10.156  15.633   7.281
 2867POPC   C1B39931  10.862  16.254   6.152
 2867POPC   C2B39932  10.661  16.292   6.570
 2867POPC   C3B39933  10.746  16.279   7.018
 2867POPC   C4B39934  10.669  16.183   7.485
 2868POPC   NC339935  41.177  22.692   5.559
 2868POPC   PO439936  41.857  22.649   5.506
 2868POPC   GL139937  41.655  22.882   5.866
 2868POPC   GL239938  41.405  23.143   5.838
 2868POPC   C1A39939  41.493  22.929   6.299
 2868POPC   D2A39940  41.201  22.726   6.595
 2868POPC   C3A39941  41.420  22.640   6.981
 2868POPC   C4A39942  41.730  22.754   7.286
 2868POPC   C1B39943  41.121  23.285   6.208
 2868POPC   C2B39944  41.086  23.232   6.681
 2868POPC   C3B39945  41.340  23.153   7.085
 2868POPC   C4B39946  41.357  23.245   7.572
 2869POPC   NC339947  28.007   9.484   5.670
 2869POPC   PO439948  27.989  10.153   5.560
 2869POPC   GL139949  28.367   9.967   5.736
 2869POPC   GL239950  28.560   9.651   5.653
 2869POPC   C1A39951  28.375   9.900   6.159
 2869POPC   D2A39952  28.061  10.010   6.472
 2869POPC   C3A39953  28.189   9.885   6.872
 2869POPC   C4A39954  28.156  10.067   7.261
 2869POPC   C1B39955  28.660   9.449   6.072
 2869POPC   C2B39956  28.481   9.512   6.491
 2869POPC   C3B39957  28.522   9.471   6.938
 2869POPC   C4B39958  28.521   9.716   7.289
 2870POPC   NC339959  30.921  19.471   5.545
 2870POPC   PO439960  30.621  18.936   5.528
 2870POPC   GL139961  30.703  19.143   5.877
 2870POPC   GL239962  31.019  18.974   5.891
 2870POPC   C1A39963  30.617  18.970   6.253
 2870POPC   D2A39964  30.610  18.722   6.603
 2870POPC   C3A39965  30.462  18.896   6.965
 2870POPC   C4A39966  30.539  19.105   7.341
 2870POPC   C1B39967  31.050  19.224   6.272
 2870POPC   C2B39968  30.879  19.167   6.694
 2870POPC   C3B39969  31.007  19.174   7.120
 2870POPC   C4B39970  30.897  19.403   7.525
 2871POPC   NC339971   1.415  16.697   5.445
 2871POPC   PO439972   0.797  16.981   5.379
 2871POPC   GL139973   1.080  16.944   5.748
 2871POPC   GL239974   1.109  16.587   5.844
 2871POPC   C1A39975   1.193  16.989   6.189
 2871POPC   D2A39976   0.926  16.921   6.546
 2871POPC   C3A39977   1.088  16.930   6.973
 2871POPC   C4A39978   1.475  16.752   7.142
 2871POPC   C1B39979   1.082  16.496   6.274
 2871POPC   C2B39980   1.301  16.577   6.658
 2871POPC   C3B39981   1.115  16.415   7.029
 2871POPC   C4B39982   1.072  16.197   7.410
 2872POPC   NC339983  27.389   6.378   5.427
 2872POPC   PO439984  27.706   5.724   5.356
 2872POPC   GL139985  27.693   5.977   5.755
 2872POPC   GL239986  27.902   6.231   5.894
 2872POPC   C1A39987  27.681   5.818   6.201
 2872POPC   D2A39988  27.585   5.565   6.585
 2872POPC   C3A39989  27.393   5.846   6.893
 2872POPC   C4A39990  27.600   6.000   7.214
 2872POPC   C1B39991  27.834   6.271   6.376
 2872POPC   C2B39992  27.816   6.285   6.835
 2872POPC   C3B39993  27.930   6.366   7.279
 2872POPC   C4B39994  27.949   6.327   7.763
 2873POPC   NC339995  37.767   5.805   5.258
 2873POPC   PO439996  37.370   6.324   5.353
 2873POPC   GL139997  37.543   6.087   5.689
 2873POPC   GL239998  37.904   6.101   5.661
 2873POPC   C1A39999  37.546   6.138   6.148
 2873POPC   D2A40000  37.790   6.059   6.538
 2873POPC   C3A40001  37.569   6.088   6.967
 2873POPC   C4A40002  37.698   6.172   7.382
 2873POPC   C1B40003  38.021   5.874   6.054
 2873POPC   C2B40004  38.155   5.700   6.452
 2873POPC   C3B40005  38.051   5.808   6.906
 2873POPC   C4B40006  37.784   5.690   7.221
 2874POPC   NC340007   2.118   4.663   5.666
 2874POPC   PO440008   1.647   5.035   5.389
 2874POPC   GL140009   1.862   5.079   5.818
 2874POPC   GL240010   1.775   4.786   6.030
 2874POPC   C1A40011   1.977   5.179   6.264
 2874POPC   D2A40012   1.954   4.964   6.667
 2874POPC   C3A40013   1.959   5.061   7.070
 2874POPC   C4A40014   1.701   4.890   7.389
 2874POPC   C1B40015   2.169   4.693   6.301
 2874POPC   C2B40016   2.460   4.938   6.581
 2874POPC   C3B40017   2.480   4.839   7.031
 2874POPC   C4B40018   2.241   4.779   7.408
 2875POPC   NC340019   9.756  33.708   5.396
 2875POPC   PO440020  10.053  34.386   5.518
 2875POPC   GL140021   9.990  34.193   5.912
 2875POPC   GL240022   9.888  33.841   5.873
 2875POPC   C1A40023  10.045  34.002   6.327
 2875POPC   D2A40024   9.780  33.973   6.663
 2875POPC   C3A40025   9.991  34.082   7.017
 2875POPC   C4A40026   9.889  33.961   7.394
 2875POPC   C1B40027   9.558  33.751   6.214
 2875POPC   C2B40028   9.437  33.560   6.627
 2875POPC   C3B40029   9.669  33.613   7.015
 2875POPC   C4B40030   9.908  33.364   7.271
 2876POPC   NC340031  24.773  13.092   5.441
 2876POPC   PO440032  24.447  12.517   5.561
 2876POPC   GL140033  24.402  12.699   5.970
 2876POPC   GL240034  24.225  13.001   5.867
 2876POPC   C1A40035  24.595  12.766   6.422
 2876POPC   D2A40036  25.015  12.939   6.579
 2876POPC   C3A40037  24.940  12.998   7.014
 2876POPC   C4A40038  24.578  12.749   7.105
 2876POPC   C1B40039  24.124  12.962   6.330
 2876POPC   C2B40040  24.199  12.914   6.809
 2876POPC   C3B40041  24.153  12.953   7.286
 2876POPC   C4B40042  24.055  13.047   7.754
 2877POPC   NC340043  23.507  15.033   4.926
 2877POPC   PO440044  23.642  15.402   5.435
 2877POPC   GL140045  23.631  15.111   5.811
 2877POPC   GL240046  23.390  14.853   5.899
 2877POPC   C1A40047  23.593  15.200   6.257
 2877POPC   D2A40048  23.828  15.207   6.634
 2877POPC   C3A40049  23.670  15.372   7.033
 2877POPC   C4A40050  23.628  15.342   7.473
 2877POPC   C1B40051  23.476  14.721   6.344
 2877POPC   C2B40052  23.761  14.700   6.745
 2877POPC   C3B40053  23.969  14.955   7.069
 2877POPC   C4B40054  24.128  15.253   7.388
 2878POPC   NC340055  34.900  35.037   5.423
 2878POPC   PO440056  34.295  34.691   5.362
 2878POPC   GL140057  34.369  34.607   5.773
 2878POPC   GL240058  34.712  34.718   5.790
 2878POPC   C1A40059  34.484  34.409   6.166
 2878POPC   D2A40060  34.310  34.475   6.587
 2878POPC   C3A40061  34.466  34.727   6.889
 2878POPC   C4A40062  34.535  34.468   7.216
 2878POPC   C1B40063  34.914  34.685   6.185
 2878POPC   C2B40064  34.884  34.562   6.615
 2878POPC   C3B40065  34.959  34.742   7.037
 2878POPC   C4B40066  34.783  34.855   7.459
 2879POPC   NC340067   6.022  15.424   5.409
 2879POPC   PO440068   5.974  14.841   5.151
 2879POPC   GL140069   5.934  15.037   5.686
 2879POPC   GL240070   5.680  15.278   5.844
 2879POPC   C1A40071   6.084  15.098   6.122
 2879POPC   D2A40072   6.244  15.125   6.568
 2879POPC   C3A40073   5.938  14.995   6.867
 2879POPC   C4A40074   5.905  14.878   7.290
 2879POPC   C1B40075   5.525  15.592   6.188
 2879POPC   C2B40076   5.430  15.554   6.653
 2879POPC   C3B40077   5.637  15.419   7.064
 2879POPC   C4B40078   6.090  15.372   7.210
 2880POPC   NC340079  14.559  44.729   5.482
 2880POPC   PO440080  13.858  44.781   5.363
 2880POPC   GL140081  13.934   0.024   5.775
 2880POPC   GL240082  14.262  44.918   5.862
 2880POPC   C1A40083  13.978  44.996   6.263
 2880POPC   D2A40084  14.300  44.992   6.589
 2880POPC   C3A40085  14.183  44.934   7.007
 2880POPC   C4A40086  14.015  44.623   7.294
 2880POPC   C1B40087  14.346  44.613   6.219
 2880POPC   C2B40088  14.530  44.496   6.639
 2880POPC   C3B40089  14.514  44.496   7.107
 2880POPC   C4B40090  14.493  44.545   7.559
 2881POPC   NC340091  20.679  23.778   5.277
 2881POPC   PO440092  20.141  23.546   5.485
 2881POPC   GL140093  20.416  23.691   5.808
 2881POPC   GL240094  20.780  23.815   5.819
 2881POPC   C1A40095  20.511  23.629   6.247
 2881POPC   D2A40096  20.662  23.898   6.576
 2881POPC   C3A40097  20.442  23.773   6.943
 2881POPC   C4A40098  20.458  23.534   7.332
 2881POPC   C1B40099  21.027  23.740   6.234
 2881POPC   C2B40100  21.108  23.624   6.692
 2881POPC   C3B40101  20.936  23.593   7.104
 2881POPC   C4B40102  20.937  23.565   7.572
 2882POPC   NC340103  40.567   9.022   5.444
 2882POPC   PO440104  41.088   8.567   5.391
 2882POPC   GL140105  40.983   8.918   5.741
 2882POPC   GL240106  40.666   9.003   5.932
 2882POPC   C1A40107  41.039   8.860   6.230
 2882POPC   D2A40108  41.132   9.007   6.658
 2882POPC   C3A40109  40.955   8.817   7.031
 2882POPC   C4A40110  40.810   8.817   7.444
 2882POPC   C1B40111  40.717   9.228   6.331
 2882POPC   C2B40112  40.555   9.215   6.750
 2882POPC   C3B40113  40.667   9.252   7.183
 2882POPC   C4B40114  40.546   9.221   7.617
 2883POPC   NC340115  44.923  20.623   5.590
 2883POPC   PO440116  44.324  20.379   5.505
 2883POPC   GL140117  44.538  20.378   5.859
 2883POPC   GL240118  44.633  20.726   6.010
 2883POPC   C1A40119  44.463  20.330   6.259
 2883POPC   D2A40120  44.751  20.588   6.515
 2883POPC   C3A40121  44.642  20.536   6.946
 2883POPC   C4A40122  44.495  20.863   7.162
 2883POPC   C1B40123   0.026  20.946   6.169
 2883POPC   C2B40124   0.113  20.981   6.588
 2883POPC   C3B40125  44.912  21.102   6.977
 2883POPC   C4B40126  44.962  20.862   7.385
 2884POPC   NC340127  42.611  27.485   5.070
 2884POPC   PO440128  42.088  27.777   5.300
 2884POPC   GL140129  42.424  27.625   5.630
 2884POPC   GL240130  42.370  27.299   5.797
 2884POPC   C1A40131  42.353  27.734   6.094
 2884POPC   D2A40132  42.059  27.698   6.476
 2884POPC   C3A40133  42.246  27.564   6.901
 2884POPC   C4A40134  42.586  27.660   7.200
 2884POPC   C1B40135  42.203  27.244   6.223
 2884POPC   C2B40136  42.436  27.073   6.581
 2884POPC   C3B40137  42.632  27.104   6.965
 2884POPC   C4B40138  42.630  27.186   7.380
 2885POPC   NC340139   7.632   1.054   5.729
 2885POPC   PO440140   7.089   1.253   5.393
 2885POPC   GL140141   7.200   1.299   5.829
 2885POPC   GL240142   7.087   0.946   5.821
 2885POPC   C1A40143   7.390   1.406   6.275
 2885POPC   D2A40144   7.513   1.426   6.743
 2885POPC   C3A40145   7.696   1.026   6.906
 2885POPC   C4A40146   7.885   0.860   7.273
 2885POPC   C1B40147   7.005   1.037   6.239
 2885POPC   C2B40148   7.231   1.009   6.630
 2885POPC   C3B40149   7.211   1.024   7.070
 2885POPC   C4B40150   7.405   1.339   7.320
 2886POPC   NC340151  24.754  11.072   5.444
 2886POPC   PO440152  25.245  11.405   5.223
 2886POPC   GL140153  25.259  11.149   5.641
 2886POPC   GL240154  24.986  11.196   5.865
 2886POPC   C1A40155  25.434  11.175   6.094
 2886POPC   D2A40156  25.285  11.200   6.539
 2886POPC   C3A40157  25.536  11.149   6.927
 2886POPC   C4A40158  25.405  10.858   7.233
 2886POPC   C1B40159  25.028  11.482   6.161
 2886POPC   C2B40160  24.757  11.594   6.434
 2886POPC   C3B40161  24.833  11.604   6.859
 2886POPC   C4B40162  25.014  11.584   7.242
 2887POPC   NC340163  15.907   3.212   5.183
 2887POPC   PO440164  16.109   2.635   5.508
 2887POPC   GL140165  16.214   2.603   5.913
 2887POPC   GL240166  15.939   2.845   5.938
 2887POPC   C1A40167  16.247   2.743   6.346
 2887POPC   D2A40168  15.965   2.696   6.728
 2887POPC   C3A40169  16.179   2.476   7.039
 2887POPC   C4A40170  16.482   2.765   7.118
 2887POPC   C1B40171  15.781   2.940   6.314
 2887POPC   C2B40172  15.849   3.209   6.666
 2887POPC   C3B40173  15.717   3.149   7.079
 2887POPC   C4B40174  15.608   2.739   7.145
 2888POPC   NC340175  25.829  23.269   5.389
 2888POPC   PO440176  26.318  22.878   5.367
 2888POPC   GL140177  26.193  23.046   5.751
 2888POPC   GL240178  26.411  23.317   5.807
 2888POPC   C1A40179  26.070  22.919   6.199
 2888POPC   D2A40180  25.740  22.896   6.523
 2888POPC   C3A40181  25.838  22.719   6.917
 2888POPC   C4A40182  26.120  22.771   7.253
 2888POPC   C1B40183  26.106  23.418   6.091
 2888POPC   C2B40184  25.939  23.360   6.478
 2888POPC   C3B40185  26.036  23.204   6.871
 2888POPC   C4B40186  25.765  23.157   7.185
 2889POPC   NC340187  37.014  39.462   5.412
 2889POPC   PO440188  37.151  38.787   5.182
 2889POPC   GL140189  37.224  38.987   5.657
 2889POPC   GL240190  37.205  39.319   5.839
 2889POPC   C1A40191  37.130  39.000   6.195
 2889POPC   D2A40192  36.831  39.158   6.586
 2889POPC   C3A40193  36.999  39.205   7.019
 2889POPC   C4A40194  36.925  39.022   7.438
 2889POPC   C1B40195  36.946  39.488   6.184
 2889POPC   C2B40196  36.789  39.675   6.568
 2889POPC   C3B40197  36.700  39.647   6.966
 2889POPC   C4B40198  37.077  39.702   7.168
 2890POPC   NC340199  43.655  17.860   5.414
 2890POPC   PO440200  44.099  18.480   5.469
 2890POPC   GL140201  43.805  18.368   5.804
 2890POPC   GL240202  43.494  18.568   5.807
 2890POPC   C1A40203  43.759  18.084   6.183
 2890POPC   D2A40204  44.018  18.031   6.538
 2890POPC   C3A40205  43.798  18.086   6.913
 2890POPC   C4A40206  43.865  18.212   7.311
 2890POPC   C1B40207  43.393  18.445   6.202
 2890POPC   C2B40208  43.636  18.431   6.572
 2890POPC   C3B40209  43.454  18.449   6.975
 2890POPC   C4B40210  43.533  18.589   7.389
 2891POPC   NC340211   1.705   7.545   5.649
 2891POPC   PO440212   2.224   7.221   5.434
 2891POPC   GL140213   2.193   7.237   5.853
 2891POPC   GL240214   2.229   7.587   5.852
 2891POPC   C1A40215   1.975   7.282   6.259
 2891POPC   D2A40216   1.991   7.487   6.678
 2891POPC   C3A40217   1.970   7.267   7.106
 2891POPC   C4A40218   1.753   7.347   7.530
 2891POPC   C1B40219   2.405   7.561   6.261
 2891POPC   C2B40220   2.507   7.460   6.682
 2891POPC   C3B40221   2.371   7.643   7.076
 2891POPC   C4B40222   2.431   7.506   7.517
 2892POPC   NC340223   9.719   4.733   5.648
 2892POPC   PO440224   9.699   4.189   5.477
 2892POPC   GL140225   9.590   4.242   5.915
 2892POPC   GL240226   9.320   4.471   5.898
 2892POPC   C1A40227   9.619   4.000   6.319
 2892POPC   D2A40228   9.655   4.196   6.718
 2892POPC   C3A40229   9.960   4.184   7.034
 2892POPC   C4A40230  10.175   4.117   7.427
 2892POPC   C1B40231   9.342   4.436   6.366
 2892POPC   C2B40232   9.288   4.521   6.825
 2892POPC   C3B40233   9.448   4.479   7.248
 2892POPC   C4B40234   9.546   4.427   7.695
 2893POPC   NC340235   2.918  30.887   5.260
 2893POPC   PO440236   2.517  30.424   5.469
 2893POPC   GL140237   2.846  30.604   5.749
 2893POPC   GL240238   2.872  30.958   5.779
 2893POPC   C1A40239   2.840  30.643   6.219
 2893POPC   D2A40240   2.941  30.527   6.662
 2893POPC   C3A40241   2.698  30.542   7.016
 2893POPC   C4A40242   2.614  30.690   7.420
 2893POPC   C1B40243   2.919  31.157   6.181
 2893POPC   C2B40244   3.047  31.002   6.538
 2893POPC   C3B40245   2.878  31.030   6.941
 2893POPC   C4B40246   3.012  31.004   7.324
 2894POPC   NC340247  17.816  29.256   5.460
 2894POPC   PO440248  17.144  29.566   5.482
 2894POPC   GL140249  17.350  29.463   5.878
 2894POPC   GL240250  17.501  29.122   5.854
 2894POPC   C1A40251  17.553  29.367   6.306
 2894POPC   D2A40252  17.787  29.458   6.697
 2894POPC   C3A40253  17.495  29.480   7.021
 2894POPC   C4A40254  17.050  29.478   7.027
 2894POPC   C1B40255  17.156  29.039   6.157
 2894POPC   C2B40256  17.115  29.170   6.599
 2894POPC   C3B40257  17.255  28.999   6.994
 2894POPC   C4B40258  17.668  29.015   7.170
 2895POPC   NC340259  15.287   0.060   5.295
 2895POPC   PO440260  14.963  44.486   5.441
 2895POPC   GL140261  15.150  44.494   5.843
 2895POPC   GL240262  15.361  44.758   5.761
 2895POPC   C1A40263  15.189  44.751   6.246
 2895POPC   D2A40264  15.082  44.922   6.650
 2895POPC   C3A40265  15.060  44.576   6.957
 2895POPC   C4A40266  14.986  44.591   7.399
 2895POPC   C1B40267  15.604  44.500   6.076
 2895POPC   C2B40268  15.582  44.514   6.519
 2895POPC   C3B40269  15.704  44.363   6.918
 2895POPC   C4B40270  15.468  44.476   7.262
 2896POPC   NC340271  23.151  42.236   5.196
 2896POPC   PO440272  23.791  42.406   5.363
 2896POPC   GL140273  23.609  42.291   5.741
 2896POPC   GL240274  23.698  42.584   5.944
 2896POPC   C1A40275  23.566  42.099   6.149
 2896POPC   D2A40276  23.712  41.945   6.547
 2896POPC   C3A40277  23.560  42.209   6.893
 2896POPC   C4A40278  23.756  42.357   7.289
 2896POPC   C1B40279  23.761  42.525   6.396
 2896POPC   C2B40280  23.802  42.638   6.824
 2896POPC   C3B40281  23.542  42.815   7.147
 2896POPC   C4B40282  23.540  42.733   7.591
 2897POPC   NC340283  10.555  32.639   5.503
 2897POPC   PO440284  10.435  33.278   5.387
 2897POPC   GL140285  10.295  33.043   5.766
 2897POPC   GL240286  10.645  32.987   5.859
 2897POPC   C1A40287  10.333  33.133   6.227
 2897POPC   D2A40288  10.604  33.167   6.593
 2897POPC   C3A40289  10.434  33.227   7.007
 2897POPC   C4A40290  10.547  32.932   7.317
 2897POPC   C1B40291  10.763  32.788   6.248
 2897POPC   C2B40292  11.027  32.729   6.595
 2897POPC   C3B40293  10.936  32.827   7.003
 2897POPC   C4B40294  11.042  33.098   7.318
 2898POPC   NC340295   7.773  21.781   5.435
 2898POPC   PO440296   7.157  21.429   5.321
 2898POPC   GL140297   7.286  21.447   5.764
 2898POPC   GL240298   6.931  21.367   5.852
 2898POPC   C1A40299   7.594  21.356   6.157
 2898POPC   D2A40300   7.773  21.445   6.611
 2898POPC   C3A40301   7.644  21.265   7.028
 2898POPC   C4A40302   7.269  21.364   7.279
 2898POPC   C1B40303   7.112  21.219   6.275
 2898POPC   C2B40304   7.214  21.181   6.744
 2898POPC   C3B40305   6.941  21.046   7.097
 2898POPC   C4B40306   6.964  21.089   7.586
 2899POPC   NC340307   8.697  12.040   5.496
 2899POPC   PO440308   9.424  12.186   5.394
 2899POPC   GL140309   9.107  12.246   5.744
 2899POPC   GL240310   9.083  11.899   5.892
 2899POPC   C1A40311   8.808  12.252   6.133
 2899POPC   D2A40312   8.908  12.141   6.571
 2899POPC   C3A40313   8.674  12.120   6.970
 2899POPC   C4A40314   8.703  12.079   7.417
 2899POPC   C1B40315   9.210  11.760   6.336
 2899POPC   C2B40316   9.315  11.854   6.768
 2899POPC   C3B40317   9.130  11.979   7.155
 2899POPC   C4B40318   9.083  11.755   7.557
 2900POPC   NC340319  32.912   0.945   5.261
 2900POPC   PO440320  32.787   1.600   5.300
 2900POPC   GL140321  32.816   1.443   5.766
 2900POPC   GL240322  32.848   1.097   5.780
 2900POPC   C1A40323  33.095   1.376   6.141
 2900POPC   D2A40324  33.212   1.245   6.589
 2900POPC   C3A40325  32.959   1.316   6.978
 2900POPC   C4A40326  32.869   1.399   7.399
 2900POPC   C1B40327  32.893   0.908   6.201
 2900POPC   C2B40328  32.790   0.934   6.661
 2900POPC   C3B40329  32.796   0.844   7.134
 2900POPC   C4B40330  32.923   0.920   7.592
 2901POPC   NC340331  38.213   9.129   5.411
 2901POPC   PO440332  38.770   8.758   5.480
 2901POPC   GL140333  38.633   9.012   5.792
 2901POPC   GL240334  38.340   8.888   5.852
 2901POPC   C1A40335  38.650   9.063   6.249
 2901POPC   D2A40336  38.827   9.187   6.645
 2901POPC   C3A40337  38.681   8.942   6.969
 2901POPC   C4A40338  38.340   9.063   7.188
 2901POPC   C1B40339  38.328   8.638   6.213
 2901POPC   C2B40340  38.299   8.805   6.617
 2901POPC   C3B40341  38.097   8.649   6.956
 2901POPC   C4B40342  38.182   8.613   7.355
 2902POPC   NC340343  13.984  35.728   5.667
 2902POPC   PO440344  14.617  35.913   5.331
 2902POPC   GL140345  14.416  36.005   5.761
 2902POPC   GL240346  14.094  36.240   5.756
 2902POPC   C1A40347  14.518  35.969   6.231
 2902POPC   D2A40348  14.726  35.953   6.652
 2902POPC   C3A40349  14.542  35.837   7.079
 2902POPC   C4A40350  14.361  35.986   7.501
 2902POPC   C1B40351  14.311  36.432   6.141
 2902POPC   C2B40352  14.392  36.370   6.617
 2902POPC   C3B40353  14.322  36.345   7.090
 2902POPC   C4B40354  14.064  36.387   7.519
 2903POPC   NC340355  13.269  41.692   5.329
 2903POPC   PO440356  12.664  41.260   5.294
 2903POPC   GL140357  12.733  41.446   5.724
 2903POPC   GL240358  12.906  41.771   5.749
 2903POPC   C1A40359  12.598  41.386   6.168
 2903POPC   D2A40360  12.831  41.357   6.558
 2903POPC   C3A40361  12.663  41.362   6.968
 2903POPC   C4A40362  12.912  41.378   7.351
 2903POPC   C1B40363  13.022  41.660   6.171
 2903POPC   C2B40364  12.919  41.860   6.575
 2903POPC   C3B40365  12.937  41.784   7.007
 2903POPC   C4B40366  13.011  41.900   7.410
 2904POPC   NC340367  15.078  24.223   5.471
 2904POPC   PO440368  15.325  24.934   5.501
 2904POPC   GL140369  15.181  24.673   5.790
 2904POPC   GL240370  14.854  24.603   5.739
 2904POPC   C1A40371  15.315  24.502   6.172
 2904POPC   D2A40372  15.185  24.284   6.539
 2904POPC   C3A40373  15.325  24.492   6.891
 2904POPC   C4A40374  15.595  24.449   7.231
 2904POPC   C1B40375  14.846  24.762   6.179
 2904POPC   C2B40376  14.762  24.590   6.638
 2904POPC   C3B40377  14.859  24.261   6.957
 2904POPC   C4B40378  15.116  24.317   7.319
 2905POPC   NC340379   8.512  32.564   5.544
 2905POPC   PO440380   9.154  32.216   5.423
 2905POPC   GL140381   9.017  32.360   5.796
 2905POPC   GL240382   8.716  32.167   5.794
 2905POPC   C1A40383   8.950  32.346   6.242
 2905POPC   D2A40384   9.086  32.103   6.625
 2905POPC   C3A40385   8.998  32.327   7.010
 2905POPC   C4A40386   9.210  32.415   7.377
 2905POPC   C1B40387   8.510  32.120   6.157
 2905POPC   C2B40388   8.597  31.991   6.561
 2905POPC   C3B40389   8.721  31.909   6.967
 2905POPC   C4B40390   8.665  32.121   7.358
 2906POPC   NC340391  42.340   8.434   4.939
 2906POPC   PO440392  42.446   7.932   5.482
 2906POPC   GL140393  42.274   8.138   5.815
 2906POPC   GL240394  41.898   8.069   5.789
 2906POPC   C1A40395  42.352   8.188   6.247
 2906POPC   D2A40396  42.538   8.360   6.587
 2906POPC   C3A40397  42.344   8.342   6.940
 2906POPC   C4A40398  42.558   8.413   7.329
 2906POPC   C1B40399  41.932   8.425   6.085
 2906POPC   C2B40400  41.912   8.423   6.535
 2906POPC   C3B40401  41.895   8.594   6.961
 2906POPC   C4B40402  42.054   8.472   7.351
 2907POPC   NC340403  17.748   1.112   5.324
 2907POPC   PO440404  17.153   0.879   5.404
 2907POPC   GL140405  17.313   1.054   5.793
 2907POPC   GL240406  17.658   1.182   5.813
 2907POPC   C1A40407  17.377   1.150   6.217
 2907POPC   D2A40408  17.509   0.954   6.561
 2907POPC   C3A40409  17.336   0.999   6.930
 2907POPC   C4A40410  17.660   1.005   7.268
 2907POPC   C1B40411  17.716   1.512   6.115
 2907POPC   C2B40412  17.562   1.544   6.530
 2907POPC   C3B40413  17.658   1.389   6.923
 2907POPC   C4B40414  17.341   1.383   7.256
 2908POPC   NC340415  43.408  24.323   5.440
 2908POPC   PO440416  42.918  24.804   5.271
 2908POPC   GL140417  43.113  24.654   5.734
 2908POPC   GL240418  43.183  24.299   5.879
 2908POPC   C1A40419  43.218  24.645   6.243
 2908POPC   D2A40420  43.461  24.543   6.679
 2908POPC   C3A40421  43.270  24.608   7.103
 2908POPC   C4A40422  42.911  24.872   7.256
 2908POPC   C1B40423  42.914  24.172   6.212
 2908POPC   C2B40424  42.914  24.000   6.621
 2908POPC   C3B40425  43.195  24.147   6.877
 2908POPC   C4B40426  43.185  24.157   7.316
 2909POPC   NC340427  19.450  42.305   5.307
 2909POPC   PO440428  18.853  42.162   5.274
 2909POPC   GL140429  18.965  42.342   5.698
 2909POPC   GL240430  19.313  42.399   5.788
 2909POPC   C1A40431  18.983  42.280   6.184
 2909POPC   D2A40432  19.104  42.058   6.591
 2909POPC   C3A40433  19.117  42.261   6.985
 2909POPC   C4A40434  18.938  42.141   7.354
 2909POPC   C1B40435  19.427  42.562   6.197
 2909POPC   C2B40436  19.451  42.444   6.613
 2909POPC   C3B40437  19.492  42.648   7.008
 2909POPC   C4B40438  19.328  42.576   7.417
 2910POPC   NC340439  20.942  25.149   5.325
 2910POPC   PO440440  20.413  24.805   5.450
 2910POPC   GL140441  20.494  25.096   5.786
 2910POPC   GL240442  20.674  25.406   5.695
 2910POPC   C1A40443  20.343  25.287   6.194
 2910POPC   D2A40444  20.214  25.572   6.553
 2910POPC   C3A40445  20.311  25.342   6.896
 2910POPC   C4A40446  20.530  25.235   7.213
 2910POPC   C1B40447  20.859  25.448   6.095
 2910POPC   C2B40448  20.996  25.206   6.432
 2910POPC   C3B40449  20.869  25.316   6.844
 2910POPC   C4B40450  20.974  25.543   7.235
 2911POPC   NC340451  18.549  16.153   5.055
 2911POPC   PO440452  18.070  15.864   5.184
 2911POPC   GL140453  18.261  15.822   5.643
 2911POPC   GL240454  18.496  15.581   5.629
 2911POPC   C1A40455  18.168  15.905   6.134
 2911POPC   D2A40456  18.457  16.023   6.504
 2911POPC   C3A40457  18.329  16.055   6.964
 2911POPC   C4A40458  18.243  16.376   7.296
 2911POPC   C1B40459  18.527  15.574   6.064
 2911POPC   C2B40460  18.465  15.516   6.495
 2911POPC   C3B40461  18.653  15.602   6.884
 2911POPC   C4B40462  18.405  15.620   7.248
 2912POPC   NC340463  20.315  30.148   5.479
 2912POPC   PO440464  20.720  29.592   5.506
 2912POPC   GL140465  20.646  29.795   5.864
 2912POPC   GL240466  20.735  30.118   5.846
 2912POPC   C1A40467  20.705  29.689   6.313
 2912POPC   D2A40468  20.777  29.466   6.683
 2912POPC   C3A40469  20.448  29.601   6.917
 2912POPC   C4A40470  20.481  29.925   7.157
 2912POPC   C1B40471  20.363  30.078   6.166
 2912POPC   C2B40472  20.423  30.057   6.617
 2912POPC   C3B40473  20.825  30.023   6.802
 2912POPC   C4B40474  20.949  30.131   7.207
 2913POPC   NC340475  10.220  21.706   5.371
 2913POPC   PO440476   9.656  21.245   5.246
 2913POPC   GL140477   9.557  21.297   5.771
 2913POPC   GL240478   9.882  21.405   6.000
 2913POPC   C1A40479   9.471  21.393   6.257
 2913POPC   D2A40480   9.889  21.346   6.516
 2913POPC   C3A40481   9.910  21.468   6.934
 2913POPC   C4A40482   9.905  21.579   7.386
 2913POPC   C1B40483  10.191  21.100   6.136
 2913POPC   C2B40484  10.215  20.912   6.513
 2913POPC   C3B40485  10.283  21.117   6.865
 2913POPC   C4B40486  10.193  21.175   7.238
 2914POPC   NC340487  18.731   3.658   5.524
 2914POPC   PO440488  19.226   3.249   5.395
 2914POPC   GL140489  19.107   3.379   5.806
 2914POPC   GL240490  18.792   3.226   5.860
 2914POPC   C1A40491  19.172   3.512   6.247
 2914POPC   D2A40492  18.996   3.265   6.610
 2914POPC   C3A40493  19.162   3.481   7.001
 2914POPC   C4A40494  19.256   3.308   7.385
 2914POPC   C1B40495  18.691   3.466   6.175
 2914POPC   C2B40496  18.767   3.707   6.573
 2914POPC   C3B40497  18.670   3.550   6.972
 2914POPC   C4B40498  18.816   3.596   7.398
 2915POPC   NC340499  25.826  42.062   5.279
 2915POPC   PO440500  26.149  41.409   5.266
 2915POPC   GL140501  26.051  41.710   5.609
 2915POPC   GL240502  26.127  41.434   5.796
 2915POPC   C1A40503  26.253  41.931   5.987
 2915POPC   D2A40504  26.321  41.888   6.446
 2915POPC   C3A40505  26.051  41.919   6.799
 2915POPC   C4A40506  26.096  41.777   7.246
 2915POPC   C1B40507  25.943  41.559   6.172
 2915POPC   C2B40508  26.105  41.430   6.548
 2915POPC   C3B40509  25.971  41.384   6.933
 2915POPC   C4B40510  25.764  41.367   7.304
 2916POPC   NC340511  41.504   4.492   5.248
 2916POPC   PO440512  42.099   4.572   5.448
 2916POPC   GL140513  41.739   4.525   5.710
 2916POPC   GL240514  41.580   4.187   5.665
 2916POPC   C1A40515  41.634   4.514   6.145
 2916POPC   D2A40516  41.285   4.519   6.436
 2916POPC   C3A40517  41.237   4.292   6.841
 2916POPC   C4A40518  41.469   4.291   7.240
 2916POPC   C1B40519  41.561   4.008   6.081
 2916POPC   C2B40520  41.391   3.956   6.480
 2916POPC   C3B40521  41.563   3.894   6.906
 2916POPC   C4B40522  41.666   3.838   7.350
 2917POPC   NC340523  12.006  22.677   5.453
 2917POPC   PO440524  12.334  23.182   5.353
 2917POPC   GL140525  12.210  23.034   5.786
 2917POPC   GL240526  12.046  22.738   5.940
 2917POPC   C1A40527  12.346  23.021   6.237
 2917POPC   D2A40528  12.181  22.819   6.572
 2917POPC   C3A40529  12.354  23.033   6.923
 2917POPC   C4A40530  12.258  22.926   7.305
 2917POPC   C1B40531  11.789  22.898   6.220
 2917POPC   C2B40532  11.613  22.842   6.597
 2917POPC   C3B40533  11.839  22.929   6.947
 2917POPC   C4B40534  11.782  22.763   7.309
 2918POPC   NC340535  38.122  15.404   5.097
 2918POPC   PO440536  38.617  15.812   5.423
 2918POPC   GL140537  38.690  16.072   5.803
 2918POPC   GL240538  38.940  15.806   5.903
 2918POPC   C1A40539  38.467  16.057   6.198
 2918POPC   D2A40540  38.289  15.685   6.419
 2918POPC   C3A40541  38.075  15.810   6.768
 2918POPC   C4A40542  38.269  15.897   7.163
 2918POPC   C1B40543  38.836  15.717   6.302
 2918POPC   C2B40544  38.691  15.919   6.650
 2918POPC   C3B40545  38.778  15.701   6.974
 2918POPC   C4B40546  39.030  15.704   7.275
 2919POPC   NC340547   6.698  44.903   5.233
 2919POPC   PO440548   6.993   0.527   4.980
 2919POPC   GL140549   6.779   0.527   5.500
 2919POPC   GL240550   6.698   0.181   5.690
 2919POPC   C1A40551   6.730   0.617   6.031
 2919POPC   D2A40552   6.511   0.518   6.491
 2919POPC   C3A40553   6.544   0.655   6.951
 2919POPC   C4A40554   6.567   0.824   7.374
 2919POPC   C1B40555   6.484   0.173   6.117
 2919POPC   C2B40556   6.314   0.038   6.513
 2919POPC   C3B40557   6.398   0.130   6.922
 2919POPC   C4B40558   6.620   0.271   7.279
 2920POPC   NC340559   1.701  20.192   5.370
 2920POPC   PO440560   1.960  20.925   5.501
 2920POPC   GL140561   1.953  20.618   5.829
 2920POPC   GL240562   2.081  20.275   5.701
 2920POPC   C1A40563   1.791  20.579   6.270
 2920POPC   D2A40564   1.863  20.732   6.694
 2920POPC   C3A40565   1.819  20.576   7.092
 2920POPC   C4A40566   2.140  20.794   7.246
 2920POPC   C1B40567   2.177  20.241   6.145
 2920POPC   C2B40568   2.120  20.251   6.588
 2920POPC   C3B40569   2.136  20.189   7.025
 2920POPC   C4B40570   1.818  20.075   7.252
 2921POPC   NC340571  37.117  10.695   5.614
 2921POPC   PO440572  36.537  10.415   5.367
 2921POPC   GL140573  36.666  10.373   5.788
 2921POPC   GL240574  37.002  10.222   5.869
 2921POPC   C1A40575  36.575  10.567   6.171
 2921POPC   D2A40576  36.742  10.773   6.536
 2921POPC   C3A40577  36.860  10.601   6.946
 2921POPC   C4A40578  36.669  10.391   7.319
 2921POPC   C1B40579  37.053  10.447   6.245
 2921POPC   C2B40580  36.774  10.259   6.533
 2921POPC   C3B40581  36.796  10.097   6.904
 2921POPC   C4B40582  37.141  10.237   7.198
 2922POPC   NC340583  16.919  14.616   5.502
 2922POPC   PO440584  16.938  13.998   5.385
 2922POPC   GL140585  16.691  14.108   5.779
 2922POPC   GL240586  17.006  14.299   5.913
 2922POPC   C1A40587  16.584  14.234   6.231
 2922POPC   D2A40588  16.920  14.333   6.553
 2922POPC   C3A40589  16.780  14.226   6.958
 2922POPC   C4A40590  16.354  14.232   7.104
 2922POPC   C1B40591  16.854  14.684   6.152
 2922POPC   C2B40592  16.462  14.730   6.386
 2922POPC   C3B40593  16.385  14.690   6.825
 2922POPC   C4B40594  16.634  14.677   7.204
 2923POPC   NC340595  23.235  13.573   5.487
 2923POPC   PO440596  22.826  14.081   5.488
 2923POPC   GL140597  22.908  13.931   5.887
 2923POPC   GL240598  22.954  13.551   5.957
 2923POPC   C1A40599  23.035  13.930   6.280
 2923POPC   D2A40600  23.026  13.668   6.595
 2923POPC   C3A40601  22.778  13.737   6.945
 2923POPC   C4A40602  23.101  13.786   7.190
 2923POPC   C1B40603  23.245  13.307   6.237
 2923POPC   C2B40604  23.482  13.376   6.608
 2923POPC   C3B40605  23.378  13.366   7.023
 2923POPC   C4B40606  23.302  13.027   7.298
 2924POPC   NC340607  27.531  27.671   5.345
 2924POPC   PO440608  27.450  27.062   5.504
 2924POPC   GL140609  27.581  27.426   5.804
 2924POPC   GL240610  27.354  27.751   5.822
 2924POPC   C1A40611  27.661  27.633   6.217
 2924POPC   D2A40612  27.456  27.629   6.614
 2924POPC   C3A40613  27.646  27.559   6.997
 2924POPC   C4A40614  27.538  27.254   7.285
 2924POPC   C1B40615  27.131  27.734   6.222
 2924POPC   C2B40616  27.033  27.888   6.675
 2924POPC   C3B40617  27.250  27.877   7.071
 2924POPC   C4B40618  27.361  27.705   7.467
 2925POPC   NC340619  39.891  31.653   5.473
 2925POPC   PO440620  40.400  31.129   5.561
 2925POPC   GL140621  40.013  31.284   5.825
 2925POPC   GL240622  39.682  31.078   5.897
 2925POPC   C1A40623  40.024  31.580   6.183
 2925POPC   D2A40624  39.838  31.745   6.564
 2925POPC   C3A40625  40.014  31.574   6.965
 2925POPC   C4A40626  40.405  31.671   7.199
 2925POPC   C1B40627  39.594  31.343   6.304
 2925POPC   C2B40628  39.557  31.380   6.793
 2925POPC   C3B40629  39.551  31.309   7.254
 2925POPC   C4B40630  39.726  31.216   7.713
 2926POPC   NC340631  10.833  12.647   5.391
 2926POPC   PO440632  11.494  12.897   5.327
 2926POPC   GL140633  11.234  12.848   5.681
 2926POPC   GL240634  11.383  12.536   5.787
 2926POPC   C1A40635  11.206  13.050   6.082
 2926POPC   D2A40636  11.414  13.024   6.463
 2926POPC   C3A40637  11.211  12.846   6.806
 2926POPC   C4A40638  11.280  12.932   7.232
 2926POPC   C1B40639  11.363  12.570   6.245
 2926POPC   C2B40640  11.601  12.573   6.637
 2926POPC   C3B40641  11.565  12.548   7.054
 2926POPC   C4B40642  11.633  12.270   7.397
 2927POPC   NC340643  19.347  14.252   5.155
 2927POPC   PO440644  18.807  14.343   5.546
 2927POPC   GL140645  19.120  14.585   5.824
 2927POPC   GL240646  18.948  14.905   5.815
 2927POPC   C1A40647  19.356  14.571   6.248
 2927POPC   D2A40648  19.587  14.517   6.638
 2927POPC   C3A40649  19.361  14.245   6.931
 2927POPC   C4A40650  19.082  14.074   7.253
 2927POPC   C1B40651  18.892  14.792   6.267
 2927POPC   C2B40652  19.016  14.577   6.687
 2927POPC   C3B40653  18.963  14.569   7.143
 2927POPC   C4B40654  19.049  14.857   7.484
 2928POPC   NC340655   1.098  36.601   5.799
 2928POPC   PO440656   1.274  36.070   5.414
 2928POPC   GL140657   1.403  36.062   5.809
 2928POPC   GL240658   1.586  36.374   5.835
 2928POPC   C1A40659   1.262  35.867   6.182
 2928POPC   D2A40660   1.167  36.039   6.604
 2928POPC   C3A40661   1.399  36.028   7.000
 2928POPC   C4A40662   1.187  35.958   7.402
 2928POPC   C1B40663   1.422  36.336   6.270
 2928POPC   C2B40664   1.452  36.504   6.660
 2928POPC   C3B40665   1.514  36.543   7.074
 2928POPC   C4B40666   1.303  36.461   7.469
 2929POPC   NC340667  44.282   0.086   5.465
 2929POPC   PO440668  43.713   0.484   5.529
 2929POPC   GL140669  43.953   0.267   5.828
 2929POPC   GL240670  43.948   0.530   6.037
 2929POPC   C1A40671  44.138   0.142   6.245
 2929POPC   D2A40672  43.858   0.309   6.558
 2929POPC   C3A40673  44.010   0.361   6.972
 2929POPC   C4A40674  43.761   0.127   7.258
 2929POPC   C1B40675  43.559   0.508   6.163
 2929POPC   C2B40676  43.453   0.688   6.520
 2929POPC   C3B40677  43.548   0.570   6.905
 2929POPC   C4B40678  43.375   0.564   7.262
 2930POPC   NC340679  38.384  17.427   5.214
 2930POPC   PO440680  38.852  17.864   5.434
 2930POPC   GL140681  38.547  17.805   5.764
 2930POPC   GL240682  38.372  17.475   5.722
 2930POPC   C1A40683  38.439  17.816   6.199
 2930POPC   D2A40684  38.176  17.875   6.588
 2930POPC   C3A40685  38.407  17.754   6.931
 2930POPC   C4A40686  38.692  17.722   7.217
 2930POPC   C1B40687  38.203  17.381   6.105
 2930POPC   C2B40688  38.318  17.371   6.526
 2930POPC   C3B40689  38.233  17.253   6.940
 2930POPC   C4B40690  38.365  16.917   7.225
 2931POPC   NC340691  28.109   8.606   5.529
 2931POPC   PO440692  28.340   9.189   5.523
 2931POPC   GL140693  28.105   9.003   5.848
 2931POPC   GL240694  28.418   8.933   5.976
 2931POPC   C1A40695  27.997   8.942   6.281
 2931POPC   D2A40696  28.266   9.065   6.609
 2931POPC   C3A40697  28.154   9.117   7.017
 2931POPC   C4A40698  28.395   8.882   7.271
 2931POPC   C1B40699  28.697   8.941   6.330
 2931POPC   C2B40700  28.842   9.160   6.679
 2931POPC   C3B40701  28.820   9.079   7.107
 2931POPC   C4B40702  28.695   9.246   7.554
 2932POPC   NC340703  33.278  35.314   5.559
 2932POPC   PO440704  33.859  35.591   5.389
 2932POPC   GL140705  33.736  35.435   5.804
 2932POPC   GL240706  33.894  35.100   5.833
 2932POPC   C1A40707  33.638  35.622   6.253
 2932POPC   D2A40708  33.726  35.746   6.684
 2932POPC   C3A40709  33.638  35.507   7.069
 2932POPC   C4A40710  33.627  35.672   7.490
 2932POPC   C1B40711  33.859  35.183   6.227
 2932POPC   C2B40712  33.627  35.228   6.597
 2932POPC   C3B40713  33.560  34.884   6.824
 2932POPC   C4B40714  33.687  35.002   7.176
 2933POPC   NC340715  18.739  28.020   5.618
 2933POPC   PO440716  18.081  28.103   5.429
 2933POPC   GL140717  17.995  28.191   5.826
 2933POPC   GL240718  18.331  28.300   5.843
 2933POPC   C1A40719  18.015  28.370   6.241
 2933POPC   D2A40720  18.109  28.517   6.635
 2933POPC   C3A40721  18.056  28.315   7.026
 2933POPC   C4A40722  18.031  28.261   7.454
 2933POPC   C1B40723  18.518  28.199   6.239
 2933POPC   C2B40724  18.614  28.368   6.625
 2933POPC   C3B40725  18.800  28.329   7.020
 2933POPC   C4B40726  18.515  28.400   7.360
 2934POPC   NC340727  10.507  44.957   5.604
 2934POPC   PO440728  10.742  44.398   5.414
 2934POPC   GL140729  10.651  44.514   5.852
 2934POPC   GL240730  10.301  44.530   5.839
 2934POPC   C1A40731  10.579  44.695   6.294
 2934POPC   D2A40732  10.396  44.795   6.739
 2934POPC   C3A40733  10.586  44.662   7.136
 2934POPC   C4A40734  10.835  44.318   7.256
 2934POPC   C1B40735  10.162  44.386   6.238
 2934POPC   C2B40736  10.255  44.174   6.629
 2934POPC   C3B40737  10.189  44.109   7.070
 2934POPC   C4B40738  10.333  44.262   7.470
 2935POPC   NC340739   4.046   1.429   5.338
 2935POPC   PO440740   4.662   1.409   5.599
 2935POPC   GL140741   4.320   1.466   5.812
 2935POPC   GL240742   4.196   1.172   5.764
 2935POPC   C1A40743   4.099   1.484   6.179
 2935POPC   D2A40744   4.263   1.340   6.546
 2935POPC   C3A40745   4.216   1.568   6.888
 2935POPC   C4A40746   4.478   1.556   7.229
 2935POPC   C1B40747   4.254   0.988   6.164
 2935POPC   C2B40748   4.297   0.820   6.565
 2935POPC   C3B40749   4.123   1.004   6.906
 2935POPC   C4B40750   4.280   1.096   7.252
 2936POPC   NC340751  30.951  12.350   5.137
 2936POPC   PO440752  30.651  11.766   5.349
 2936POPC   GL140753  30.727  11.908   5.739
 2936POPC   GL240754  30.411  12.065   5.743
 2936POPC   C1A40755  30.883  11.960   6.166
 2936POPC   D2A40756  31.092  12.022   6.556
 2936POPC   C3A40757  30.874  12.126   6.913
 2936POPC   C4A40758  30.637  12.229   7.252
 2936POPC   C1B40759  30.389  11.866   6.151
 2936POPC   C2B40760  30.531  11.964   6.577
 2936POPC   C3B40761  30.500  11.783   7.007
 2936POPC   C4B40762  30.263  11.870   7.377
 2937POPC   NC340763  43.813  16.203   5.413
 2937POPC   PO440764  43.587  16.787   5.320
 2937POPC   GL140765  43.728  16.722   5.741
 2937POPC   GL240766  43.516  16.448   5.785
 2937POPC   C1A40767  43.970  16.746   6.142
 2937POPC   D2A40768  44.006  16.656   6.598
 2937POPC   C3A40769  44.141  16.890   6.969
 2937POPC   C4A40770  44.147  16.663   7.375
 2937POPC   C1B40771  43.407  16.674   6.169
 2937POPC   C2B40772  43.492  16.782   6.578
 2937POPC   C3B40773  43.616  16.769   7.015
 2937POPC   C4B40774  43.746  16.973   7.390
 2938POPC   NC340775  36.374  13.092   5.503
 2938POPC   PO440776  35.684  13.142   5.567
 2938POPC   GL140777  35.997  12.916   5.816
 2938POPC   GL240778  36.322  12.699   5.816
 2938POPC   C1A40779  36.194  13.053   6.183
 2938POPC   D2A40780  36.005  12.928   6.548
 2938POPC   C3A40781  36.199  12.998   6.903
 2938POPC   C4A40782  35.937  13.161   7.210
 2938POPC   C1B40783  36.126  12.557   6.208
 2938POPC   C2B40784  36.007  12.396   6.602
 2938POPC   C3B40785  35.920  12.578   6.992
 2938POPC   C4B40786  36.166  12.717   7.313
 2939POPC   NC340787  37.463  32.890   5.451
 2939POPC   PO440788  38.055  33.291   5.439
 2939POPC   GL140789  37.715  33.260   5.723
 2939POPC   GL240790  37.867  32.925   5.766
 2939POPC   C1A40791  37.527  33.095   6.118
 2939POPC   D2A40792  37.721  33.134   6.518
 2939POPC   C3A40793  37.602  33.109   6.937
 2939POPC   C4A40794  37.845  33.345   7.228
 2939POPC   C1B40795  38.001  32.865   6.155
 2939POPC   C2B40796  38.011  32.717   6.551
 2939POPC   C3B40797  38.041  32.844   6.988
 2939POPC   C4B40798  37.919  32.699   7.419
 2940POPC   NC340799  13.268  36.397   5.467
 2940POPC   PO440800  12.692  36.056   5.284
 2940POPC   GL140801  12.747  35.995   5.732
 2940POPC   GL240802  12.781  36.354   5.723
 2940POPC   C1A40803  12.972  35.997   6.168
 2940POPC   D2A40804  13.052  36.186   6.592
 2940POPC   C3A40805  13.003  35.958   6.988
 2940POPC   C4A40806  13.177  36.162   7.373
 2940POPC   C1B40807  12.533  36.283   6.085
 2940POPC   C2B40808  12.558  36.124   6.477
 2940POPC   C3B40809  12.585  36.287   6.870
 2940POPC   C4B40810  12.699  36.277   7.275
 2941POPC   NC340811  13.090  26.961   5.255
 2941POPC   PO440812  13.323  26.322   5.433
 2941POPC   GL140813  13.259  26.593   5.782
 2941POPC   GL240814  13.082  26.922   5.791
 2941POPC   C1A40815  13.261  26.664   6.230
 2941POPC   D2A40816  13.006  26.759   6.588
 2941POPC   C3A40817  13.162  26.727   7.012
 2941POPC   C4A40818  13.034  26.491   7.384
 2941POPC   C1B40819  13.135  27.159   6.214
 2941POPC   C2B40820  13.013  27.268   6.678
 2941POPC   C3B40821  12.919  27.196   7.139
 2941POPC   C4B40822  12.951  27.417   7.551
 2942POPC   NC340823  30.189  38.290   5.474
 2942POPC   PO440824  29.499  38.269   5.345
 2942POPC   GL140825  29.565  38.503   5.772
 2942POPC   GL240826  29.824  38.707   5.982
 2942POPC   C1A40827  29.579  38.333   6.234
 2942POPC   D2A40828  29.605  38.285   6.698
 2942POPC   C3A40829  29.800  38.572   6.976
 2942POPC   C4A40830  29.838  38.406   7.381
 2942POPC   C1B40831  30.073  38.395   6.277
 2942POPC   C2B40832  30.135  38.286   6.707
 2942POPC   C3B40833  30.295  38.439   7.116
 2942POPC   C4B40834  30.275  38.305   7.592
 2943POPC   NC340835  37.650  29.678   5.578
 2943POPC   PO440836  37.610  30.216   5.174
 2943POPC   GL140837  37.767  30.168   5.653
 2943POPC   GL240838  38.077  29.896   5.655
 2943POPC   C1A40839  37.656  30.043   6.143
 2943POPC   D2A40840  37.359  29.921   6.530
 2943POPC   C3A40841  37.554  29.915   6.960
 2943POPC   C4A40842  37.762  30.210   7.229
 2943POPC   C1B40843  38.075  29.734   6.089
 2943POPC   C2B40844  37.999  29.765   6.540
 2943POPC   C3B40845  38.021  29.648   6.969
 2943POPC   C4B40846  37.882  29.704   7.384
 2944POPC   NC340847  40.887  30.969   5.484
 2944POPC   PO440848  41.047  31.562   5.248
 2944POPC   GL140849  41.064  31.400   5.739
 2944POPC   GL240850  40.771  31.199   5.908
 2944POPC   C1A40851  41.066  31.422   6.241
 2944POPC   D2A40852  40.854  31.214   6.617
 2944POPC   C3A40853  40.849  31.541   6.944
 2944POPC   C4A40854  40.930  31.660   7.394
 2944POPC   C1B40855  40.453  31.282   6.225
 2944POPC   C2B40856  40.404  31.503   6.606
 2944POPC   C3B40857  40.403  31.237   6.941
 2944POPC   C4B40858  40.636  31.208   7.275
 2945POPC   NC340859  17.642  41.281   5.308
 2945POPC   PO440860  17.338  41.832   5.450
 2945POPC   GL140861  17.374  41.494   5.736
 2945POPC   GL240862  17.687  41.581   5.787
 2945POPC   C1A40863  17.372  41.437   6.209
 2945POPC   D2A40864  17.220  41.684   6.586
 2945POPC   C3A40865  17.440  41.589   6.964
 2945POPC   C4A40866  17.412  41.365   7.376
 2945POPC   C1B40867  17.907  41.579   6.174
 2945POPC   C2B40868  17.870  41.479   6.611
 2945POPC   C3B40869  17.926  41.748   6.972
 2945POPC   C4B40870  17.747  41.717   7.357
 2946POPC   NC340871  24.824  14.301   5.658
 2946POPC   PO440872  24.455  14.203   5.131
 2946POPC   GL140873  24.284  14.283   5.629
 2946POPC   GL240874  24.410  14.577   5.839
 2946POPC   C1A40875  24.300  14.181   6.135
 2946POPC   D2A40876  24.643  14.099   6.489
 2946POPC   C3A40877  24.703  14.118   6.967
 2946POPC   C4A40878  24.334  14.321   7.141
 2946POPC   C1B40879  24.584  14.584   6.286
 2946POPC   C2B40880  24.571  14.551   6.739
 2946POPC   C3B40881  24.726  14.650   7.153
 2946POPC   C4B40882  25.002  14.867   7.467
 2947POPC   NC340883   3.116  35.486   5.118
 2947POPC   PO440884   2.666  35.134   5.447
 2947POPC   GL140885   2.745  35.376   5.859
 2947POPC   GL240886   3.062  35.289   6.006
 2947POPC   C1A40887   2.805  35.637   6.245
 2947POPC   D2A40888   2.718  35.468   6.651
 2947POPC   C3A40889   2.763  35.663   7.024
 2947POPC   C4A40890   3.056  35.608   7.314
 2947POPC   C1B40891   2.851  35.068   6.341
 2947POPC   C2B40892   2.615  34.988   6.739
 2947POPC   C3B40893   2.850  35.163   7.105
 2947POPC   C4B40894   2.682  35.327   7.497
 2948POPC   NC340895  34.668  23.813   5.347
 2948POPC   PO440896  35.109  24.187   5.425
 2948POPC   GL140897  34.930  23.852   5.792
 2948POPC   GL240898  34.591  23.650   5.827
 2948POPC   C1A40899  34.889  23.569   6.216
 2948POPC   D2A40900  34.667  23.595   6.653
 2948POPC   C3A40901  34.784  23.426   7.079
 2948POPC   C4A40902  34.681  23.472   7.527
 2948POPC   C1B40903  34.339  23.507   6.242
 2948POPC   C2B40904  34.164  23.503   6.703
 2948POPC   C3B40905  34.304  23.628   7.149
 2948POPC   C4B40906  34.230  23.717   7.607
 2949POPC   NC340907   1.779   8.530   5.489
 2949POPC   PO440908   2.128   9.154   5.380
 2949POPC   GL140909   2.102   8.887   5.737
 2949POPC   GL240910   2.267   8.566   5.710
 2949POPC   C1A40911   1.902   8.932   6.149
 2949POPC   D2A40912   2.024   9.168   6.524
 2949POPC   C3A40913   1.816   9.101   6.913
 2949POPC   C4A40914   1.871   9.282   7.300
 2949POPC   C1B40915   2.304   8.622   6.169
 2949POPC   C2B40916   2.113   8.666   6.597
 2949POPC   C3B40917   1.956   8.614   7.025
 2949POPC   C4B40918   1.797   8.762   7.447
 2950POPC   NC340919  15.253   1.508   5.499
 2950POPC   PO440920  14.698   1.116   5.437
 2950POPC   GL140921  15.008   1.113   5.798
 2950POPC   GL240922  15.409   1.133   5.825
 2950POPC   C1A40923  15.003   1.298   6.212
 2950POPC   D2A40924  14.838   1.362   6.613
 2950POPC   C3A40925  15.101   1.338   6.986
 2950POPC   C4A40926  15.057   1.176   7.394
 2950POPC   C1B40927  15.465   1.493   6.137
 2950POPC   C2B40928  15.289   1.629   6.566
 2950POPC   C3B40929  15.488   1.646   7.005
 2950POPC   C4B40930  15.546   1.239   7.248
 2951POPC   NC340931  17.104  10.487   5.429
 2951POPC   PO440932  17.526  10.097   5.322
 2951POPC   GL140933  17.440  10.334   5.754
 2951POPC   GL240934  17.299  10.643   5.870
 2951POPC   C1A40935  17.478  10.289   6.227
 2951POPC   D2A40936  17.621  10.082   6.620
 2951POPC   C3A40937  17.518  10.293   6.969
 2951POPC   C4A40938  17.678  10.697   7.110
 2951POPC   C1B40939  17.279  10.801   6.298
 2951POPC   C2B40940  17.290  10.803   6.751
 2951POPC   C3B40941  17.108  10.592   7.091
 2951POPC   C4B40942  17.160  10.595   7.526
 2952POPC   NC340943  27.893  12.829   5.641
 2952POPC   PO440944  27.269  12.836   5.412
 2952POPC   GL140945  27.423  12.625   5.785
 2952POPC   GL240946  27.446  12.976   5.869
 2952POPC   C1A40947  27.686  12.610   6.202
 2952POPC   D2A40948  27.925  12.632   6.578
 2952POPC   C3A40949  27.790  12.457   6.942
 2952POPC   C4A40950  27.789  12.654   7.316
 2952POPC   C1B40951  27.486  13.131   6.230
 2952POPC   C2B40952  27.572  13.001   6.581
 2952POPC   C3B40953  27.691  12.980   6.955
 2952POPC   C4B40954  27.504  13.081   7.348
 2953POPC   NC340955  43.555  41.171   5.456
 2953POPC   PO440956  43.992  40.687   5.444
 2953POPC   GL140957  44.016  40.916   5.811
 2953POPC   GL240958  43.669  40.821   5.847
 2953POPC   C1A40959  44.018  40.912   6.275
 2953POPC   D2A40960  43.971  40.679   6.683
 2953POPC   C3A40961  43.728  40.876   7.011
 2953POPC   C4A40962  43.892  41.080   7.330
 2953POPC   C1B40963  43.511  40.721   6.245
 2953POPC   C2B40964  43.389  40.613   6.665
 2953POPC   C3B40965  43.411  40.488   7.107
 2953POPC   C4B40966  43.597  40.694   7.517
 2954POPC   NC340967  41.398  16.539   4.992
 2954POPC   PO440968  41.732  16.881   5.572
 2954POPC   GL140969  41.648  16.831   5.931
 2954POPC   GL240970  41.293  16.790   5.968
 2954POPC   C1A40971  41.720  16.778   6.335
 2954POPC   D2A40972  41.557  16.945   6.676
 2954POPC   C3A40973  41.672  16.675   6.984
 2954POPC   C4A40974  41.651  16.833   7.397
 2954POPC   C1B40975  41.226  16.583   6.335
 2954POPC   C2B40976  41.187  16.583   6.758
 2954POPC   C3B40977  41.185  16.745   7.154
 2954POPC   C4B40978  41.237  16.595   7.555
 2955POPC   NC340979  28.064  32.484   5.630
 2955POPC   PO440980  28.681  32.185   5.516
 2955POPC   GL140981  28.498  32.050   5.866
 2955POPC   GL240982  28.423  32.392   5.988
 2955POPC   C1A40983  28.420  32.017   6.319
 2955POPC   D2A40984  28.391  32.365   6.606
 2955POPC   C3A40985  28.500  32.246   6.993
 2955POPC   C4A40986  28.251  32.006   7.256
 2955POPC   C1B40987  28.038  32.507   6.266
 2955POPC   C2B40988  27.872  32.529   6.673
 2955POPC   C3B40989  28.029  32.471   7.079
 2955POPC   C4B40990  28.314  32.493   7.416
 2956POPC   NC340991  24.455   0.042   5.380
 2956POPC   PO440992  24.851  44.511   5.191
 2956POPC   GL140993  24.556  44.572   5.625
 2956POPC   GL240994  24.297  44.830   5.823
 2956POPC   C1A40995  24.638  44.580   6.107
 2956POPC   D2A40996  24.436  44.653   6.533
 2956POPC   C3A40997  24.592  44.466   6.925
 2956POPC   C4A40998  24.686  44.462   7.395
 2956POPC   C1B40999  24.116  44.535   6.141
 2956POPC   C2B41000  23.896  44.593   6.540
 2956POPC   C3B41001  24.081  44.603   6.924
 2956POPC   C4B41002  24.209  44.441   7.299
 2957POPC   NC341003  37.918  36.248   5.381
 2957POPC   PO441004  37.549  35.703   5.265
 2957POPC   GL141005  37.534  35.900   5.705
 2957POPC   GL241006  37.527  36.270   5.753
 2957POPC   C1A41007  37.593  35.927   6.173
 2957POPC   D2A41008  37.709  35.810   6.615
 2957POPC   C3A41009  37.507  36.007   6.996
 2957POPC   C4A41010  37.411  35.759   7.376
 2957POPC   C1B41011  37.721  36.429   6.135
 2957POPC   C2B41012  37.871  36.292   6.522
 2957POPC   C3B41013  38.046  36.157   6.900
 2957POPC   C4B41014  37.899  36.325   7.253
 2958POPC   NC341015  33.560   9.910   5.406
 2958POPC   PO441016  34.184   9.905   5.429
 2958POPC   GL141017  33.899   9.686   5.718
 2958POPC   GL241018  33.931   9.978   5.928
 2958POPC   C1A41019  33.792   9.533   6.129
 2958POPC   D2A41020  33.727   9.669   6.556
 2958POPC   C3A41021  34.009   9.607   6.915
 2958POPC   C4A41022  33.797   9.536   7.273
 2958POPC   C1B41023  34.150   9.911   6.352
 2958POPC   C2B41024  33.983  10.083   6.762
 2958POPC   C3B41025  33.669  10.005   7.097
 2958POPC   C4B41026  33.729   9.988   7.571
 2959POPC   NC341027   8.108   7.259   5.195
 2959POPC   PO441028   7.934   7.741   5.641
 2959POPC   GL141029   7.997   7.558   5.982
 2959POPC   GL241030   8.336   7.677   5.966
 2959POPC   C1A41031   7.941   7.342   6.374
 2959POPC   D2A41032   8.248   7.248   6.681
 2959POPC   C3A41033   8.144   7.438   7.047
 2959POPC   C4A41034   7.821   7.350   7.336
 2959POPC   C1B41035   8.284   7.711   6.412
 2959POPC   C2B41036   8.510   7.686   6.791
 2959POPC   C3B41037   8.554   7.801   7.214
 2959POPC   C4B41038   8.499   7.772   7.652
 2960POPC   NC341039  11.235   1.531   5.519
 2960POPC   PO441040  11.158   0.864   5.408
 2960POPC   GL141041  11.430   0.964   5.734
 2960POPC   GL241042  11.537   1.297   5.850
 2960POPC   C1A41043  11.364   0.919   6.161
 2960POPC   D2A41044  11.345   1.217   6.487
 2960POPC   C3A41045  11.471   1.007   6.839
 2960POPC   C4A41046  11.357   1.020   7.253
 2960POPC   C1B41047  11.760   1.454   6.223
 2960POPC   C2B41048  11.811   1.403   6.674
 2960POPC   C3B41049  11.645   1.463   7.070
 2960POPC   C4B41050  11.638   1.353   7.505
 2961POPC   NC341051   5.585  27.892   5.386
 2961POPC   PO441052   5.458  28.574   5.377
 2961POPC   GL141053   5.321  28.439   5.795
 2961POPC   GL241054   5.322  28.087   5.792
 2961POPC   C1A41055   5.141  28.521   6.220
 2961POPC   D2A41056   4.816  28.450   6.563
 2961POPC   C3A41057   4.943  28.451   7.015
 2961POPC   C4A41058   5.139  28.421   7.442
 2961POPC   C1B41059   5.306  28.043   6.234
 2961POPC   C2B41060   5.255  28.185   6.643
 2961POPC   C3B41061   5.309  28.083   7.060
 2961POPC   C4B41062   5.371  27.954   7.480
 2962POPC   NC341063  13.871  32.572   5.524
 2962POPC   PO441064  13.367  32.120   5.504
 2962POPC   GL141065  13.614  32.235   5.832
 2962POPC   GL241066  13.794  31.950   5.904
 2962POPC   C1A41067  13.549  32.500   6.196
 2962POPC   D2A41068  13.496  32.708   6.595
 2962POPC   C3A41069  13.530  32.464   6.924
 2962POPC   C4A41070  13.370  32.346   7.287
 2962POPC   C1B41071  13.854  32.087   6.300
 2962POPC   C2B41072  13.783  32.043   6.725
 2962POPC   C3B41073  13.987  32.261   7.054
 2962POPC   C4B41074  13.855  32.400   7.446
 2963POPC   NC341075   9.108  42.096   5.440
 2963POPC   PO441076   9.019  41.438   5.351
 2963POPC   GL141077   9.103  41.599   5.761
 2963POPC   GL241078   8.794  41.784   5.744
 2963POPC   C1A41079   9.127  41.371   6.183
 2963POPC   D2A41080   9.324  41.245   6.608
 2963POPC   C3A41081   9.096  41.433   6.968
 2963POPC   C4A41082   8.737  41.358   7.223
 2963POPC   C1B41083   8.803  41.775   6.187
 2963POPC   C2B41084   8.736  41.586   6.602
 2963POPC   C3B41085   8.714  41.807   6.979
 2963POPC   C4B41086   8.874  41.838   7.396
 2964POPC   NC341087   5.522  43.016   4.909
 2964POPC   PO441088   5.936  42.892   5.427
 2964POPC   GL141089   5.881  43.139   5.804
 2964POPC   GL241090   6.171  43.347   5.804
 2964POPC   C1A41091   5.681  43.293   6.201
 2964POPC   D2A41092   5.523  43.261   6.637
 2964POPC   C3A41093   5.872  43.250   6.896
 2964POPC   C4A41094   5.932  43.094   7.323
 2964POPC   C1B41095   6.204  43.483   6.248
 2964POPC   C2B41096   6.323  43.563   6.687
 2964POPC   C3B41097   6.310  43.383   7.109
 2964POPC   C4B41098   6.328  43.323   7.559
 2965POPC   NC341099  10.004  21.290   5.540
 2965POPC   PO441100  10.649  21.585   5.470
 2965POPC   GL141101  10.427  21.455   5.826
 2965POPC   GL241102  10.243  21.744   5.877
 2965POPC   C1A41103  10.629  21.367   6.241
 2965POPC   D2A41104  10.921  21.466   6.585
 2965POPC   C3A41105  10.729  21.375   6.981
 2965POPC   C4A41106  10.667  21.269   7.418
 2965POPC   C1B41107  10.227  21.681   6.292
 2965POPC   C2B41108  10.383  21.595   6.686
 2965POPC   C3B41109  10.335  21.671   7.133
 2965POPC   C4B41110  10.346  21.772   7.585
 2966POPC   NC341111  15.385  30.320   5.559
 2966POPC   PO441112  15.924  30.793   5.446
 2966POPC   GL141113  15.786  30.554   5.795
 2966POPC   GL241114  16.086  30.577   5.963
 2966POPC   C1A41115  15.667  30.641   6.250
 2966POPC   D2A41116  15.932  30.867   6.539
 2966POPC   C3A41117  15.874  30.899   6.994
 2966POPC   C4A41118  15.949  30.802   7.447
 2966POPC   C1B41119  16.204  30.283   6.305
 2966POPC   C2B41120  16.255  30.441   6.728
 2966POPC   C3B41121  16.134  30.437   7.155
 2966POPC   C4B41122  16.147  30.361   7.618
 2967POPC   NC341123  13.010  31.990   5.237
 2967POPC   PO441124  12.642  31.438   5.406
 2967POPC   GL141125  12.919  31.440   5.760
 2967POPC   GL241126  12.942  31.802   5.763
 2967POPC   C1A41127  13.060  31.281   6.170
 2967POPC   D2A41128  13.152  31.290   6.621
 2967POPC   C3A41129  12.782  31.366   6.847
 2967POPC   C4A41130  12.714  31.367   7.266
 2967POPC   C1B41131  12.800  31.841   6.198
 2967POPC   C2B41132  12.710  31.958   6.635
 2967POPC   C3B41133  12.855  31.846   7.037
 2967POPC   C4B41134  13.167  31.557   7.164
 2968POPC   NC341135  30.322  29.610   5.458
 2968POPC   PO441136  30.952  29.526   5.545
 2968POPC   GL141137  30.644  29.468   5.891
 2968POPC   GL241138  30.627  29.095   5.988
 2968POPC   C1A41139  30.543  29.454   6.350
 2968POPC   D2A41140  30.781  29.442   6.741
 2968POPC   C3A41141  30.617  29.223   7.084
 2968POPC   C4A41142  30.524  29.411   7.485
 2968POPC   C1B41143  30.329  28.980   6.353
 2968POPC   C2B41144  30.181  28.965   6.788
 2968POPC   C3B41145  30.333  28.821   7.198
 2968POPC   C4B41146  30.710  28.598   7.383
 2969POPC   NC341147  25.713  24.322   5.046
 2969POPC   PO441148  26.244  24.368   5.510
 2969POPC   GL141149  25.986  24.625   5.809
 2969POPC   GL241150  26.251  24.741   5.950
 2969POPC   C1A41151  25.794  24.401   6.184
 2969POPC   D2A41152  25.954  24.199   6.544
 2969POPC   C3A41153  25.776  24.200   6.921
 2969POPC   C4A41154  25.685  24.319   7.300
 2969POPC   C1B41155  26.185  24.651   6.395
 2969POPC   C2B41156  26.157  24.559   6.825
 2969POPC   C3B41157  26.198  24.451   7.244
 2969POPC   C4B41158  26.311  24.732   7.609
 2970POPC   NC341159  32.044  33.448   5.350
 2970POPC   PO441160  32.481  33.934   5.432
 2970POPC   GL141161  32.186  33.883   5.824
 2970POPC   GL241162  31.966  33.583   5.842
 2970POPC   C1A41163  32.082  33.892   6.288
 2970POPC   D2A41164  32.042  34.022   6.742
 2970POPC   C3A41165  32.302  33.820   7.084
 2970POPC   C4A41166  32.372  33.897   7.530
 2970POPC   C1B41167  31.739  33.488   6.213
 2970POPC   C2B41168  31.751  33.604   6.625
 2970POPC   C3B41169  31.909  33.492   7.038
 2970POPC   C4B41170  31.977  33.598   7.500
 2971POPC   NC341171   7.469  22.637   5.524
 2971POPC   PO441172   7.238  23.284   5.360
 2971POPC   GL141173   7.345  23.034   5.790
 2971POPC   GL241174   7.104  22.727   5.841
 2971POPC   C1A41175   7.586  22.819   6.160
 2971POPC   D2A41176   7.804  22.673   6.559
 2971POPC   C3A41177   7.706  22.830   6.997
 2971POPC   C4A41178   7.618  22.552   7.350
 2971POPC   C1B41179   7.175  22.560   6.231
 2971POPC   C2B41180   7.295  22.756   6.605
 2971POPC   C3B41181   7.245  22.610   7.013
 2971POPC   C4B41182   7.213  22.837   7.429
 2972POPC   NC341183  43.240  21.050   5.428
 2972POPC   PO441184  43.114  20.402   5.432
 2972POPC   GL141185  42.880  20.525   5.770
 2972POPC   GL241186  43.131  20.770   5.857
 2972POPC   C1A41187  42.952  20.422   6.210
 2972POPC   D2A41188  43.194  20.452   6.595
 2972POPC   C3A41189  42.956  20.322   6.951
 2972POPC   C4A41190  42.872  20.437   7.372
 2972POPC   C1B41191  43.436  20.667   6.157
 2972POPC   C2B41192  43.703  20.618   6.497
 2972POPC   C3B41193  43.612  20.481   6.886
 2972POPC   C4B41194  43.370  20.573   7.260
 2973POPC   NC341195  11.245  13.302   5.411
 2973POPC   PO441196  11.006  14.009   5.468
 2973POPC   GL141197  11.224  13.716   5.731
 2973POPC   GL241198  10.998  13.450   5.822
 2973POPC   C1A41199  11.406  13.643   6.129
 2973POPC   D2A41200  11.294  13.504   6.529
 2973POPC   C3A41201  11.235  13.770   6.885
 2973POPC   C4A41202  10.938  13.746   7.224
 2973POPC   C1B41203  10.849  13.419   6.234
 2973POPC   C2B41204  10.818  13.534   6.662
 2973POPC   C3B41205  11.060  13.308   6.956
 2973POPC   C4B41206  11.468  13.413   7.167
 2974POPC   NC341207  15.773  13.557   5.116
 2974POPC   PO441208  15.203  13.796   5.442
 2974POPC   GL141209  15.158  13.666   5.836
 2974POPC   GL241210  15.473  13.560   5.826
 2974POPC   C1A41211  15.023  13.656   6.260
 2974POPC   D2A41212  15.127  13.438   6.602
 2974POPC   C3A41213  15.060  13.671   6.926
 2974POPC   C4A41214  15.161  13.655   7.313
 2974POPC   C1B41215  15.506  13.489   6.241
 2974POPC   C2B41216  15.522  13.740   6.612
 2974POPC   C3B41217  15.584  13.603   6.999
 2974POPC   C4B41218  15.634  13.759   7.410
 2975POPC   NC341219  10.654  19.582   5.452
 2975POPC   PO441220  10.422  20.185   5.437
 2975POPC   GL141221  10.593  19.996   5.820
 2975POPC   GL241222  10.454  19.676   5.909
 2975POPC   C1A41223  10.458  20.042   6.267
 2975POPC   D2A41224  10.539  19.877   6.672
 2975POPC   C3A41225  10.402  20.026   7.074
 2975POPC   C4A41226  10.783  19.962   7.298
 2975POPC   C1B41227  10.654  19.532   6.285
 2975POPC   C2B41228  10.491  19.366   6.672
 2975POPC   C3B41229  10.593  19.536   7.075
 2975POPC   C4B41230  10.728  19.485   7.502
 2976POPC   NC341231  12.558   0.472   5.301
 2976POPC   PO441232  11.927   0.271   5.463
 2976POPC   GL141233  12.119   0.472   5.836
 2976POPC   GL241234  12.364   0.766   5.780
 2976POPC   C1A41235  11.903   0.480   6.234
 2976POPC   D2A41236  11.762   0.553   6.663
 2976POPC   C3A41237  12.029   0.538   7.035
 2976POPC   C4A41238  11.952   0.586   7.456
 2976POPC   C1B41239  12.333   0.742   6.270
 2976POPC   C2B41240  12.275   0.376   6.606
 2976POPC   C3B41241  12.325   0.132   7.035
 2976POPC   C4B41242  12.344   0.260   7.514
 2977POPC   NC341243  13.418  25.788   5.423
 2977POPC   PO441244  13.790  25.170   5.128
 2977POPC   GL141245  13.629  25.327   5.576
 2977POPC   GL241246  13.552  25.066   5.840
 2977POPC   C1A41247  13.602  25.550   6.016
 2977POPC   D2A41248  13.458  25.326   6.408
 2977POPC   C3A41249  13.601  25.356   6.844
 2977POPC   C4A41250  13.715  25.055   7.152
 2977POPC   C1B41251  13.212  24.953   6.143
 2977POPC   C2B41252  13.097  24.960   6.620
 2977POPC   C3B41253  13.201  25.114   7.063
 2977POPC   C4B41254  13.469  25.450   7.329
 2978POPC   NC341255  16.588  32.408   5.483
 2978POPC   PO441256  16.870  31.781   5.369
 2978POPC   GL141257  16.831  32.040   5.798
 2978POPC   GL241258  16.478  32.154   5.924
 2978POPC   C1A41259  16.929  32.361   6.177
 2978POPC   D2A41260  17.028  32.508   6.650
 2978POPC   C3A41261  16.880  32.264   7.021
 2978POPC   C4A41262  16.768  31.861   7.203
 2978POPC   C1B41263  16.406  32.510   6.217
 2978POPC   C2B41264  16.437  32.703   6.648
 2978POPC   C3B41265  16.399  32.612   7.059
 2978POPC   C4B41266  16.389  32.199   7.206
 2979POPC   NC341267  40.430  29.353   5.594
 2979POPC   PO441268  40.889  28.944   5.251
 2979POPC   GL141269  40.904  29.073   5.722
 2979POPC   GL241270  40.906  29.412   5.872
 2979POPC   C1A41271  40.805  29.017   6.190
 2979POPC   D2A41272  40.798  28.669   6.493
 2979POPC   C3A41273  40.794  28.843   6.934
 2979POPC   C4A41274  40.630  28.847   7.374
 2979POPC   C1B41275  40.877  29.531   6.307
 2979POPC   C2B41276  40.754  29.292   6.680
 2979POPC   C3B41277  40.581  29.281   7.122
 2979POPC   C4B41278  40.439  29.393   7.570
 2980POPC   NC341279  25.792  24.242   5.562
 2980POPC   PO441280  26.187  23.633   5.424
 2980POPC   GL141281  26.093  23.871   5.765
 2980POPC   GL241282  26.402  23.816   5.954
 2980POPC   C1A41283  25.933  23.884   6.151
 2980POPC   D2A41284  26.210  23.775   6.498
 2980POPC   C3A41285  25.998  23.723   6.904
 2980POPC   C4A41286  26.042  23.938   7.293
 2980POPC   C1B41287  26.327  24.198   6.154
 2980POPC   C2B41288  26.474  24.229   6.553
 2980POPC   C3B41289  26.384  24.073   6.930
 2980POPC   C4B41290  26.573  23.958   7.309
 2981POPC   NC341291  44.479   3.194   5.524
 2981POPC   PO441292  44.857   2.700   5.252
 2981POPC   GL141293  44.613   2.677   5.703
 2981POPC   GL241294  44.899   2.661   5.940
 2981POPC   C1A41295  44.461   2.692   6.190
 2981POPC   D2A41296  44.487   2.924   6.598
 2981POPC   C3A41297  44.661   2.719   6.968
 2981POPC   C4A41298  44.578   2.892   7.364
 2981POPC   C1B41299  44.882   2.997   6.285
 2981POPC   C2B41300   0.000   2.980   6.679
 2981POPC   C3B41301  44.936   3.156   7.048
 2981POPC   C4B41302   0.047   3.042   7.479
 2982POPC   NC341303  41.956  35.410   5.500
 2982POPC   PO441304  41.375  35.653   5.247
 2982POPC   GL141305  41.451  35.377   5.610
 2982POPC   GL241306  41.192  35.569   5.750
 2982POPC   C1A41307  41.490  35.271   6.069
 2982POPC   D2A41308  41.687  35.035   6.394
 2982POPC   C3A41309  41.642  35.123   6.833
 2982POPC   C4A41310  41.476  35.165   7.227
 2982POPC   C1B41311  41.025  35.453   6.156
 2982POPC   C2B41312  41.242  35.334   6.524
 2982POPC   C3B41313  41.121  35.352   6.926
 2982POPC   C4B41314  41.181  35.565   7.278
 2983POPC   NC341315   6.500   9.245   5.471
 2983POPC   PO441316   6.605   8.627   5.388
 2983POPC   GL141317   6.405   8.670   5.791
 2983POPC   GL241318   6.587   8.963   5.920
 2983POPC   C1A41319   6.372   8.598   6.247
 2983POPC   D2A41320   6.735   8.620   6.528
 2983POPC   C3A41321   6.668   8.890   6.879
 2983POPC   C4A41322   6.342   8.836   7.209
 2983POPC   C1B41323   6.814   9.116   6.292
 2983POPC   C2B41324   6.843   9.388   6.657
 2983POPC   C3B41325   6.836   9.363   7.094
 2983POPC   C4B41326   6.815   8.990   7.356
 2984POPC   NC341327  26.369  30.941   5.398
 2984POPC   PO441328  26.265  31.674   5.382
 2984POPC   GL141329  26.273  31.372   5.732
 2984POPC   GL241330  25.976  31.115   5.746
 2984POPC   C1A41331  26.171  31.432   6.164
 2984POPC   D2A41332  26.105  31.685   6.514
 2984POPC   C3A41333  26.271  31.464   6.874
 2984POPC   C4A41334  26.246  31.662   7.265
 2984POPC   C1B41335  25.720  31.151   6.143
 2984POPC   C2B41336  25.779  31.298   6.576
 2984POPC   C3B41337  25.764  31.463   6.990
 2984POPC   C4B41338  25.569  31.183   7.236
 2985POPC   NC341339  18.681  38.022   5.496
 2985POPC   PO441340  18.104  37.805   5.220
 2985POPC   GL141341  18.171  38.027   5.590
 2985POPC   GL241342  18.335  37.736   5.721
 2985POPC   C1A41343  18.132  38.118   6.046
 2985POPC   D2A41344  18.028  37.966   6.470
 2985POPC   C3A41345  18.237  37.910   6.880
 2985POPC   C4A41346  18.401  37.724   7.243
 2985POPC   C1B41347  18.182  37.599   6.104
 2985POPC   C2B41348  18.359  37.531   6.500
 2985POPC   C3B41349  18.245  37.378   6.882
 2985POPC   C4B41350  18.546  37.242   7.120
 2986POPC   NC341351  10.878   3.442   5.405
 2986POPC   PO441352  10.218   3.426   5.453
 2986POPC   GL141353  10.366   3.379   5.892
 2986POPC   GL241354  10.665   3.538   5.873
 2986POPC   C1A41355  10.609   3.319   6.325
 2986POPC   D2A41356  10.306   3.352   6.626
 2986POPC   C3A41357  10.497   3.314   7.006
 2986POPC   C4A41358  10.441   3.561   7.380
 2986POPC   C1B41359  10.459   3.780   6.240
 2986POPC   C2B41360  10.603   3.745   6.698
 2986POPC   C3B41361  10.569   3.977   7.084
 2986POPC   C4B41362  10.679   4.023   7.522
 2987POPC   NC341363  34.772  22.073   5.361
 2987POPC   PO441364  35.138  22.558   5.544
 2987POPC   GL141365  34.892  22.217   5.845
 2987POPC   GL241366  34.798  21.844   5.819
 2987POPC   C1A41367  34.600  22.126   6.232
 2987POPC   D2A41368  34.478  22.326   6.649
 2987POPC   C3A41369  34.447  22.269   7.120
 2987POPC   C4A41370  34.385  22.497   7.528
 2987POPC   C1B41371  34.892  21.717   6.250
 2987POPC   C2B41372  34.753  21.850   6.681
 2987POPC   C3B41373  34.721  21.839   7.148
 2987POPC   C4B41374  34.933  22.110   7.473
 2988POPC   NC341375   6.398  42.934   5.344
 2988POPC   PO441376   6.660  43.538   5.182
 2988POPC   GL141377   6.677  43.296   5.642
 2988POPC   GL241378   6.528  42.961   5.805
 2988POPC   C1A41379   6.692  43.264   6.137
 2988POPC   D2A41380   6.821  43.043   6.518
 2988POPC   C3A41381   6.769  43.236   6.908
 2988POPC   C4A41382   6.704  43.062   7.313
 2988POPC   C1B41383   6.249  42.960   6.165
 2988POPC   C2B41384   6.280  43.075   6.592
 2988POPC   C3B41385   6.393  42.884   6.950
 2988POPC   C4B41386   6.269  42.711   7.314
 2989POPC   NC341387  38.122  42.689   5.490
 2989POPC   PO441388  38.304  43.342   5.464
 2989POPC   GL141389  38.288  43.060   5.827
 2989POPC   GL241390  38.579  42.848   5.885
 2989POPC   C1A41391  38.317  43.012   6.294
 2989POPC   D2A41392  38.211  42.971   6.738
 2989POPC   C3A41393  38.421  43.227   7.036
 2989POPC   C4A41394  38.551  43.277   7.483
 2989POPC   C1B41395  38.816  42.837   6.278
 2989POPC   C2B41396  38.749  42.935   6.736
 2989POPC   C3B41397  38.810  42.939   7.186
 2989POPC   C4B41398  38.910  42.871   7.651
 2990POPC   NC341399   0.367  18.941   5.343
 2990POPC   PO441400   0.989  18.969   5.535
 2990POPC   GL141401   0.746  18.911   5.876
 2990POPC   GL241402   0.521  19.192   5.815
 2990POPC   C1A41403   0.606  18.970   6.302
 2990POPC   D2A41404   0.421  19.307   6.572
 2990POPC   C3A41405   0.321  19.156   6.992
 2990POPC   C4A41406   0.547  18.883   7.312
 2990POPC   C1B41407   0.154  19.093   6.098
 2990POPC   C2B41408   0.084  18.911   6.510
 2990POPC   C3B41409   0.068  18.715   6.929
 2990POPC   C4B41410  44.879  18.584   7.336
 2991POPC   NC341411  35.359  43.658   5.235
 2991POPC   PO441412  34.880  43.926   5.452
 2991POPC   GL141413  35.051  43.871   5.858
 2991POPC   GL241414  35.084  43.532   5.895
 2991POPC   C1A41415  35.131  43.822   6.324
 2991POPC   D2A41416  35.423  43.649   6.637
 2991POPC   C3A41417  35.518  43.837   7.033
 2991POPC   C4A41418  35.784  44.002   7.393
 2991POPC   C1B41419  34.767  43.466   6.244
 2991POPC   C2B41420  34.928  43.459   6.684
 2991POPC   C3B41421  35.005  43.730   7.077
 2991POPC   C4B41422  34.834  43.684   7.525
 2992POPC   NC341423  37.897  37.850   5.395
 2992POPC   PO441424  37.257  37.526   5.376
 2992POPC   GL141425  37.534  37.753   5.759
 2992POPC   GL241426  37.901  37.743   5.893
 2992POPC   C1A41427  37.534  37.824   6.238
 2992POPC   D2A41428  37.708  37.974   6.641
 2992POPC   C3A41429  37.415  37.919   6.965
 2992POPC   C4A41430  37.429  37.635   7.267
 2992POPC   C1B41431  38.080  37.761   6.336
 2992POPC   C2B41432  38.113  37.504   6.731
 2992POPC   C3B41433  37.898  37.648   7.084
 2992POPC   C4B41434  37.867  38.084   7.178
 2993POPC   NC341435  13.318  15.926   5.401
 2993POPC   PO441436  13.983  15.990   5.368
 2993POPC   GL141437  13.728  16.081   5.696
 2993POPC   GL241438  13.586  15.772   5.803
 2993POPC   C1A41439  13.815  16.288   6.071
 2993POPC   D2A41440  13.651  16.398   6.456
 2993POPC   C3A41441  13.810  16.211   6.821
 2993POPC   C4A41442  13.571  16.138   7.192
 2993POPC   C1B41443  13.381  15.982   6.142
 2993POPC   C2B41444  13.384  15.919   6.587
 2993POPC   C3B41445  13.322  15.751   6.995
 2993POPC   C4B41446  13.766  15.643   7.112
 2994POPC   NC341447  42.839  18.615   5.440
 2994POPC   PO441448  43.212  18.033   5.348
 2994POPC   GL141449  43.102  18.234   5.742
 2994POPC   GL241450  43.402  18.051   5.837
 2994POPC   C1A41451  42.799  18.317   6.123
 2994POPC   D2A41452  42.746  18.157   6.573
 2994POPC   C3A41453  42.767  18.475   6.947
 2994POPC   C4A41454  43.028  18.469   7.327
 2994POPC   C1B41455  43.170  17.992   6.198
 2994POPC   C2B41456  43.288  18.056   6.593
 2994POPC   C3B41457  43.105  18.076   6.965
 2994POPC   C4B41458  43.361  18.074   7.305
 2995POPC   NC341459  22.480  29.196   5.042
 2995POPC   PO441460  22.136  29.477   5.521
 2995POPC   GL141461  22.407  29.248   5.800
 2995POPC   GL241462  22.533  28.945   5.623
 2995POPC   C1A41463  22.367  29.308   6.246
 2995POPC   D2A41464  22.073  29.246   6.580
 2995POPC   C3A41465  22.160  29.016   6.944
 2995POPC   C4A41466  21.922  28.786   7.224
 2995POPC   C1B41467  22.296  28.803   6.017
 2995POPC   C2B41468  22.433  28.600   6.409
 2995POPC   C3B41469  22.557  28.629   6.819
 2995POPC   C4B41470  22.385  28.581   7.218
 2996POPC   NC341471  31.194   6.115   5.412
 2996POPC   PO441472  31.847   5.904   5.409
 2996POPC   GL141473  31.557   5.739   5.738
 2996POPC   GL241474  31.253   5.872   5.862
 2996POPC   C1A41475  31.659   5.734   6.187
 2996POPC   D2A41476  31.476   5.877   6.565
 2996POPC   C3A41477  31.733   5.818   6.894
 2996POPC   C4A41478  31.563   5.959   7.222
 2996POPC   C1B41479  31.057   5.914   6.250
 2996POPC   C2B41480  31.001   6.067   6.652
 2996POPC   C3B41481  31.171   6.174   7.021
 2996POPC   C4B41482  31.139   6.164   7.506
 2997POPC   NC341483  28.022  36.668   5.438
 2997POPC   PO441484  28.543  37.152   5.338
 2997POPC   GL141485  28.327  37.010   5.693
 2997POPC   GL241486  28.154  37.266   5.830
 2997POPC   C1A41487  28.489  36.806   6.063
 2997POPC   D2A41488  28.708  36.745   6.449
 2997POPC   C3A41489  28.432  36.772   6.787
 2997POPC   C4A41490  28.388  36.821   7.213
 2997POPC   C1B41491  27.867  37.288   6.165
 2997POPC   C2B41492  27.999  37.113   6.555
 2997POPC   C3B41493  27.980  36.987   6.954
 2997POPC   C4B41494  28.093  37.238   7.279
 2998POPC   NC341495  13.895  12.253   5.445
 2998POPC   PO441496  14.554  12.304   5.191
 2998POPC   GL141497  14.612  12.026   5.558
 2998POPC   GL241498  14.295  12.049   5.751
 2998POPC   C1A41499  14.760  11.941   5.996
 2998POPC   D2A41500  14.820  11.778   6.432
 2998POPC   C3A41501  14.589  11.871   6.836
 2998POPC   C4A41502  14.756  11.928   7.253
 2998POPC   C1B41503  14.413  12.300   6.173
 2998POPC   C2B41504  14.326  12.470   6.604
 2998POPC   C3B41505  14.152  12.356   7.019
 2998POPC   C4B41506  14.232  12.055   7.399
 2999POPC   NC341507  11.482  19.317   4.957
 2999POPC   PO441508  11.379  19.918   5.328
 2999POPC   GL141509  11.211  19.923   5.765
 2999POPC   GL241510  11.462  19.700   5.925
 2999POPC   C1A41511  11.160  19.996   6.237
 2999POPC   D2A41512  11.393  19.796   6.615
 2999POPC   C3A41513  11.293  19.918   7.057
 2999POPC   C4A41514  11.237  19.830   7.515
 2999POPC   C1B41515  11.173  19.487   6.248
 2999POPC   C2B41516  11.028  19.411   6.707
 2999POPC   C3B41517  11.095  19.459   7.184
 2999POPC   C4B41518  11.156  19.374   7.724
 3000POPC   NC341519  25.008  11.840   5.331
 3000POPC   PO441520  25.402  12.264   5.710
 3000POPC   GL141521  25.146  11.950   5.886
 3000POPC   GL241522  25.264  11.648   5.731
 3000POPC   C1A41523  25.187  11.931   6.354
 3000POPC   D2A41524  25.322  12.129   6.759
 3000POPC   C3A41525  25.059  12.090   7.157
 3000POPC   C4A41526  24.939  12.142   7.617
 3000POPC   C1B41527  25.563  11.683   6.091
 3000POPC   C2B41528  25.550  11.630   6.543
 3000POPC   C3B41529  25.413  11.660   6.949
 3000POPC   C4B41530  25.578  11.979   7.199
 3001POPC   NC341531  44.696  29.267   5.259
 3001POPC   PO441532   0.036  29.351   5.758
 3001POPC   GL141533  44.601  29.200   5.773
 3001POPC   GL241534  44.343  29.427   5.637
 3001POPC   C1A41535  44.438  29.067   6.162
 3001POPC   D2A41536  44.582  29.238   6.551
 3001POPC   C3A41537  44.485  29.025   6.910
 3001POPC   C4A41538  44.567  28.883   7.282
 3001POPC   C1B41539  44.279  29.567   6.080
 3001POPC   C2B41540  44.319  29.695   6.518
 3001POPC   C3B41541  44.335  29.512   6.936
 3001POPC   C4B41542  44.422  29.427   7.353
 3002POPC   NC341543  14.740  15.107   5.467
 3002POPC   PO441544  14.046  14.996   5.415
 3002POPC   GL141545  14.277  15.220   5.772
 3002POPC   GL241546  14.554  15.026   5.921
 3002POPC   C1A41547  14.359  15.366   6.220
 3002POPC   D2A41548  14.467  15.197   6.611
 3002POPC   C3A41549  14.438  15.462   6.966
 3002POPC   C4A41550  14.310  15.305   7.365
 3002POPC   C1B41551  14.728  14.788   6.257
 3002POPC   C2B41552  14.748  14.744   6.697
 3002POPC   C3B41553  14.604  14.969   7.050
 3002POPC   C4B41554  14.573  14.880   7.486
 3003POPC   NC341555  17.413  13.958   5.436
 3003POPC   PO441556  17.742  13.420   5.244
 3003POPC   GL141557  17.490  13.533   5.700
 3003POPC   GL241558  17.318  13.279   5.875
 3003POPC   C1A41559  17.418  13.673   6.200
 3003POPC   D2A41560  17.300  13.833   6.645
 3003POPC   C3A41561  17.502  13.691   7.040
 3003POPC   C4A41562  17.844  13.519   7.330
 3003POPC   C1B41563  17.650  13.245   6.188
 3003POPC   C2B41564  17.672  13.432   6.630
 3003POPC   C3B41565  17.601  13.199   7.014
 3003POPC   C4B41566  17.351  13.261   7.398
 3004POPC   NC341567  41.527   8.744   5.432
 3004POPC   PO441568  41.810   9.337   5.479
 3004POPC   GL141569  41.818   8.983   5.775
 3004POPC   GL241570  41.483   8.924   5.924
 3004POPC   C1A41571  41.898   8.931   6.217
 3004POPC   D2A41572  41.685   8.988   6.613
 3004POPC   C3A41573  41.898   9.122   6.973
 3004POPC   C4A41574  41.906   8.944   7.372
 3004POPC   C1B41575  41.488   8.635   6.300
 3004POPC   C2B41576  41.431   8.557   6.736
 3004POPC   C3B41577  41.462   8.850   7.079
 3004POPC   C4B41578  41.306   8.810   7.490
 3005POPC   NC341579  22.384  14.671   5.332
 3005POPC   PO441580  21.852  14.295   5.560
 3005POPC   GL141581  22.173  14.500   5.772
 3005POPC   GL241582  22.329  14.201   5.864
 3005POPC   C1A41583  22.218  14.639   6.200
 3005POPC   D2A41584  21.811  14.652   6.447
 3005POPC   C3A41585  21.824  14.660   6.894
 3005POPC   C4A41586  21.897  14.288   7.102
 3005POPC   C1B41587  22.224  14.133   6.332
 3005POPC   C2B41588  22.255  14.392   6.727
 3005POPC   C3B41589  22.404  14.321   7.170
 3005POPC   C4B41590  22.462  14.570   7.567
 3006POPC   NC341591  22.246  12.423   5.383
 3006POPC   PO441592  22.129  11.781   5.328
 3006POPC   GL141593  22.133  12.014   5.720
 3006POPC   GL241594  22.413  12.262   5.831
 3006POPC   C1A41595  21.989  11.900   6.120
 3006POPC   D2A41596  22.033  12.103   6.517
 3006POPC   C3A41597  21.861  11.972   6.912
 3006POPC   C4A41598  21.717  12.158   7.316
 3006POPC   C1B41599  22.484  12.023   6.179
 3006POPC   C2B41600  22.531  11.871   6.583
 3006POPC   C3B41601  22.379  12.036   6.924
 3006POPC   C4B41602  22.488  12.100   7.306
 3007POPC   NC341603  14.820   0.648   5.590
 3007POPC   PO441604  15.468   0.482   5.367
 3007POPC   GL141605  15.348   0.291   5.774
 3007POPC   GL241606  15.273   0.628   5.845
 3007POPC   C1A41607  15.188   0.282   6.234
 3007POPC   D2A41608  15.231   0.519   6.639
 3007POPC   C3A41609  15.429   0.365   7.018
 3007POPC   C4A41610  15.157   0.069   7.230
 3007POPC   C1B41611  15.152   0.815   6.222
 3007POPC   C2B41612  15.240   1.038   6.615
 3007POPC   C3B41613  15.248   0.857   7.041
 3007POPC   C4B41614  15.013   0.623   7.292
 3008POPC   NC341615  26.358  40.947   5.300
 3008POPC   PO441616  26.111  40.323   5.353
 3008POPC   GL141617  26.025  40.582   5.704
 3008POPC   GL241618  26.060  40.926   5.729
 3008POPC   C1A41619  25.894  40.491   6.092
 3008POPC   D2A41620  25.805  40.570   6.504
 3008POPC   C3A41621  25.954  40.534   6.924
 3008POPC   C4A41622  26.015  40.911   7.162
 3008POPC   C1B41623  25.974  40.997   6.185
 3008POPC   C2B41624  26.171  40.918   6.600
 3008POPC   C3B41625  26.420  41.119   6.899
 3008POPC   C4B41626  26.345  41.329   7.294
 3009POPC   NC341627  39.819  26.862   5.612
 3009POPC   PO441628  40.405  26.494   5.471
 3009POPC   GL141629  40.239  26.702   5.891
 3009POPC   GL241630  39.948  26.590   6.020
 3009POPC   C1A41631  40.118  26.930   6.330
 3009POPC   D2A41632  39.758  27.000   6.579
 3009POPC   C3A41633  39.951  26.992   6.971
 3009POPC   C4A41634  39.858  27.270   7.283
 3009POPC   C1B41635  39.674  26.523   6.340
 3009POPC   C2B41636  39.909  26.519   6.648
 3009POPC   C3B41637  40.128  26.493   6.937
 3009POPC   C4B41638  39.962  26.591   7.313
 3010POPC   NC341639  33.221   1.571   5.502
 3010POPC   PO441640  33.265   2.183   5.134
 3010POPC   GL141641  33.048   2.288   5.667
 3010POPC   GL241642  32.685   2.293   5.771
 3010POPC   C1A41643  33.144   2.109   6.162
 3010POPC   D2A41644  33.043   1.757   6.465
 3010POPC   C3A41645  33.213   1.753   6.871
 3010POPC   C4A41646  33.015   1.834   7.225
 3010POPC   C1B41647  32.743   2.394   6.232
 3010POPC   C2B41648  32.963   2.227   6.645
 3010POPC   C3B41649  33.149   2.288   7.051
 3010POPC   C4B41650  32.996   2.602   7.350
 3011POPC   NC341651  25.729  41.260   5.457
 3011POPC   PO441652  25.246  41.747   5.395
 3011POPC   GL141653  25.111  41.542   5.786
 3011POPC   GL241654  25.268  41.203   5.751
 3011POPC   C1A41655  25.094  41.631   6.260
 3011POPC   D2A41656  25.237  41.937   6.595
 3011POPC   C3A41657  25.076  41.863   7.006
 3011POPC   C4A41658  25.344  41.646   7.296
 3011POPC   C1B41659  25.494  41.253   6.150
 3011POPC   C2B41660  25.478  41.446   6.579
 3011POPC   C3B41661  25.181  41.348   6.920
 3011POPC   C4B41662  25.283  41.148   7.328
 3012POPC   NC341663  23.308  30.176   5.645
 3012POPC   PO441664  23.803  29.797   5.353
 3012POPC   GL141665  23.857  29.847   5.814
 3012POPC   GL241666  23.785  30.200   5.916
 3012POPC   C1A41667  23.779  29.817   6.290
 3012POPC   D2A41668  23.644  30.109   6.673
 3012POPC   C3A41669  23.633  30.004   7.151
 3012POPC   C4A41670  23.470  30.111   7.596
 3012POPC   C1B41671  24.057  30.246   6.303
 3012POPC   C2B41672  24.148  30.043   6.715
 3012POPC   C3B41673  24.103  30.271   7.103
 3012POPC   C4B41674  23.932  30.298   7.521
 3013POPC   NC341675  26.188  44.271   5.657
 3013POPC   PO441676  25.809  44.573   5.207
 3013POPC   GL141677  25.851  44.646   5.697
 3013POPC   GL241678  26.140  44.822   5.753
 3013POPC   C1A41679  25.999  44.534   6.186
 3013POPC   D2A41680  26.238  44.704   6.573
 3013POPC   C3A41681  26.162  44.562   6.996
 3013POPC   C4A41682  25.759  44.432   7.122
 3013POPC   C1B41683  26.364  44.895   6.118
 3013POPC   C2B41684  26.348   0.181   6.464
 3013POPC   C3B41685  26.346   0.066   6.932
 3013POPC   C4B41686  26.258  44.909   7.373
 3014POPC   NC341687  28.916  15.308   5.570
 3014POPC   PO441688  28.368  15.042   5.405
 3014POPC   GL141689  28.420  15.194   5.827
 3014POPC   GL241690  28.668  14.938   5.815
 3014POPC   C1A41691  28.389  15.362   6.291
 3014POPC   D2A41692  28.125  15.379   6.689
 3014POPC   C3A41693  28.309  15.456   7.115
 3014POPC   C4A41694  28.743  15.369   7.257
 3014POPC   C1B41695  28.577  14.888   6.212
 3014POPC   C2B41696  28.719  15.080   6.564
 3014POPC   C3B41697  28.494  15.055   6.879
 3014POPC   C4B41698  28.457  14.935   7.267
 3015POPC   NC341699  29.993  30.282   5.392
 3015POPC   PO441700  29.858  29.537   5.427
 3015POPC   GL141701  29.780  29.899   5.699
 3015POPC   GL241702  30.122  29.965   5.795
 3015POPC   C1A41703  29.760  30.168   6.099
 3015POPC   D2A41704  29.979  30.182   6.505
 3015POPC   C3A41705  29.790  30.069   6.924
 3015POPC   C4A41706  29.994  29.872   7.269
 3015POPC   C1B41707  30.096  29.753   6.217
 3015POPC   C2B41708  30.076  29.459   6.606
 3015POPC   C3B41709  30.139  29.411   7.070
 3015POPC   C4B41710  30.027  29.297   7.502
 3016POPC   NC341711  30.565  14.691   5.460
 3016POPC   PO441712  30.936  14.173   5.225
 3016POPC   GL141713  30.855  14.242   5.734
 3016POPC   GL241714  30.611  14.482   5.902
 3016POPC   C1A41715  30.854  14.207   6.231
 3016POPC   D2A41716  30.849  14.515   6.579
 3016POPC   C3A41717  30.817  14.306   7.001
 3016POPC   C4A41718  30.638  13.913   7.152
 3016POPC   C1B41719  30.391  14.814   6.137
 3016POPC   C2B41720  30.413  14.765   6.592
 3016POPC   C3B41721  30.418  14.645   7.049
 3016POPC   C4B41722  30.313  14.770   7.480
 3017POPC   NC341723  42.854  23.312   5.614
 3017POPC   PO441724  43.244  23.879   5.462
 3017POPC   GL141725  43.149  23.778   5.877
 3017POPC   GL241726  43.222  23.441   5.927
 3017POPC   C1A41727  43.277  23.800   6.319
 3017POPC   D2A41728  43.431  23.663   6.732
 3017POPC   C3A41729  43.129  23.697   7.091
 3017POPC   C4A41730  42.731  23.943   7.145
 3017POPC   C1B41731  42.865  23.514   6.239
 3017POPC   C2B41732  42.959  23.460   6.657
 3017POPC   C3B41733  43.254  23.236   6.944
 3017POPC   C4B41734  43.197  23.164   7.382
 3018POPC   NC341735  16.986   7.899   5.274
 3018POPC   PO441736  16.534   7.871   5.748
 3018POPC   GL141737  16.678   7.484   5.932
 3018POPC   GL241738  16.940   7.323   5.834
 3018POPC   C1A41739  16.789   7.498   6.356
 3018POPC   D2A41740  16.632   7.833   6.598
 3018POPC   C3A41741  16.832   7.757   6.966
 3018POPC   C4A41742  16.821   7.640   7.379
 3018POPC   C1B41743  17.025   7.070   6.242
 3018POPC   C2B41744  17.157   7.218   6.660
 3018POPC   C3B41745  17.112   7.060   7.088
 3018POPC   C4B41746  17.144   7.016   7.544
 3019POPC   NC341747  11.711  42.673   4.974
 3019POPC   PO441748  11.306  42.295   5.290
 3019POPC   GL141749  11.232  42.233   5.722
 3019POPC   GL241750  11.355  42.563   5.813
 3019POPC   C1A41751  10.984  42.288   6.109
 3019POPC   D2A41752  10.962  42.152   6.544
 3019POPC   C3A41753  10.879  42.504   6.840
 3019POPC   C4A41754  11.090  42.460   7.205
 3019POPC   C1B41755  11.533  42.568   6.243
 3019POPC   C2B41756  11.376  42.486   6.663
 3019POPC   C3B41757  11.570  42.485   7.046
 3019POPC   C4B41758  11.924  42.696   7.122
 3020POPC   NC341759  24.776  13.721   5.153
 3020POPC   PO441760  24.323  13.245   5.385
 3020POPC   GL141761  24.469  13.436   5.721
 3020POPC   GL241762  24.389  13.771   5.623
 3020POPC   C1A41763  24.549  13.292   6.152
 3020POPC   D2A41764  24.823  13.406   6.497
 3020POPC   C3A41765  24.578  13.342   6.862
 3020POPC   C4A41766  24.575  13.639   7.180
 3020POPC   C1B41767  24.201  13.691   6.070
 3020POPC   C2B41768  24.371  13.674   6.483
 3020POPC   C3B41769  24.259  13.867   6.862
 3020POPC   C4B41770  24.110  13.891   7.289
 3021POPC   NC341771   3.290  31.655   5.586
 3021POPC   PO441772   3.976  31.347   5.391
 3021POPC   GL141773   3.702  31.325   5.732
 3021POPC   GL241774   3.734  31.643   5.858
 3021POPC   C1A41775   3.439  31.307   6.123
 3021POPC   D2A41776   3.234  31.467   6.490
 3021POPC   C3A41777   3.340  31.244   6.878
 3021POPC   C4A41778   3.417  31.346   7.291
 3021POPC   C1B41779   3.456  31.818   6.181
 3021POPC   C2B41780   3.367  31.967   6.579
 3021POPC   C3B41781   3.477  31.754   6.946
 3021POPC   C4B41782   3.448  31.878   7.343
 3022POPC   NC341783  41.755  12.911   5.417
 3022POPC   PO441784  41.197  12.883   5.391
 3022POPC   GL141785  41.217  12.820   5.863
 3022POPC   GL241786  41.573  12.793   5.923
 3022POPC   C1A41787  41.300  12.910   6.340
 3022POPC   D2A41788  41.339  12.679   6.770
 3022POPC   C3A41789  41.432  12.900   7.157
 3022POPC   C4A41790  41.530  13.353   7.211
 3022POPC   C1B41791  41.615  12.513   6.307
 3022POPC   C2B41792  41.762  12.384   6.732
 3022POPC   C3B41793  41.676  12.435   7.178
 3022POPC   C4B41794  41.465  12.570   7.568
 3023POPC   NC341795  10.159  15.445   5.566
 3023POPC   PO441796  10.570  14.864   5.457
 3023POPC   GL141797  10.536  15.117   5.824
 3023POPC   GL241798  10.872  15.269   5.896
 3023POPC   C1A41799  10.481  15.371   6.217
 3023POPC   D2A41800  10.349  15.546   6.626
 3023POPC   C3A41801  10.463  15.316   6.982
 3023POPC   C4A41802  10.239  15.071   7.262
 3023POPC   C1B41803  10.796  14.953   6.219
 3023POPC   C2B41804  10.576  15.003   6.588
 3023POPC   C3B41805  10.609  14.825   6.976
 3023POPC   C4B41806  10.765  14.939   7.370
 3024POPC   NC341807  31.991   9.477   5.512
 3024POPC   PO441808  31.326   9.788   5.382
 3024POPC   GL141809  31.511   9.796   5.749
 3024POPC   GL241810  31.556   9.452   5.816
 3024POPC   C1A41811  31.365   9.896   6.174
 3024POPC   D2A41812  31.497   9.685   6.564
 3024POPC   C3A41813  31.280   9.630   6.952
 3024POPC   C4A41814  31.036   9.581   7.332
 3024POPC   C1B41815  31.805   9.651   6.154
 3024POPC   C2B41816  31.955   9.458   6.530
 3024POPC   C3B41817  31.792   9.250   6.912
 3024POPC   C4B41818  31.466   9.245   7.241
 3025POPC   NC341819  43.797  38.029   5.416
 3025POPC   PO441820  43.954  37.361   5.420
 3025POPC   GL141821  43.809  37.609   5.730
 3025POPC   GL241822  44.163  37.706   5.769
 3025POPC   C1A41823  43.645  37.623   6.148
 3025POPC   D2A41824  43.873  37.611   6.586
 3025POPC   C3A41825  43.738  37.893   6.920
 3025POPC   C4A41826  43.917  38.159   7.229
 3025POPC   C1B41827  44.113  37.423   6.135
 3025POPC   C2B41828  44.129  37.173   6.536
 3025POPC   C3B41829  44.225  37.347   6.943
 3025POPC   C4B41830  44.167  37.689   7.231
 3026POPC   NC341831   9.399  13.363   5.379
 3026POPC   PO441832  10.104  13.578   5.438
 3026POPC   GL141833   9.784  13.716   5.761
 3026POPC   GL241834   9.576  13.439   5.871
 3026POPC   C1A41835   9.928  13.919   6.134
 3026POPC   D2A41836  10.048  13.685   6.516
 3026POPC   C3A41837   9.717  13.708   6.808
 3026POPC   C4A41838   9.773  13.825   7.233
 3026POPC   C1B41839   9.388  13.801   6.122
 3026POPC   C2B41840   9.260  13.956   6.561
 3026POPC   C3B41841   9.281  13.873   7.022
 3026POPC   C4B41842   9.414  13.472   7.194
 3027POPC   NC341843  41.202  36.061   5.415
 3027POPC   PO441844  40.603  36.311   5.507
 3027POPC   GL141845  40.469  36.007   5.810
 3027POPC   GL241846  40.689  35.706   5.814
 3027POPC   C1A41847  40.579  35.964   6.242
 3027POPC   D2A41848  40.444  36.158   6.595
 3027POPC   C3A41849  40.689  36.037   6.900
 3027POPC   C4A41850  40.663  35.921   7.282
 3027POPC   C1B41851  41.040  35.954   6.052
 3027POPC   C2B41852  41.078  36.072   6.500
 3027POPC   C3B41853  41.171  35.883   6.890
 3027POPC   C4B41854  41.150  36.076   7.293
 3028POPC   NC341855  32.662   5.343   5.659
 3028POPC   PO441856  33.343   5.085   5.519
 3028POPC   GL141857  33.042   5.008   5.875
 3028POPC   GL241858  32.879   4.667   5.813
 3028POPC   C1A41859  32.994   5.262   6.288
 3028POPC   D2A41860  33.220   5.319   6.689
 3028POPC   C3A41861  32.902   5.229   6.987
 3028POPC   C4A41862  32.828   5.235   7.414
 3028POPC   C1B41863  32.857   4.760   6.299
 3028POPC   C2B41864  33.051   4.837   6.702
 3028POPC   C3B41865  32.982   4.775   7.201
 3028POPC   C4B41866  32.698   4.780   7.618
 3029POPC   NC341867  40.152  32.673   5.476
 3029POPC   PO441868  40.165  32.016   5.445
 3029POPC   GL141869  39.961  32.266   5.764
 3029POPC   GL241870  39.664  32.450   5.637
 3029POPC   C1A41871  39.939  32.208   6.218
 3029POPC   D2A41872  40.057  32.369   6.607
 3029POPC   C3A41873  40.061  32.082   6.908
 3029POPC   C4A41874  40.134  32.073   7.322
 3029POPC   C1B41875  39.619  32.584   6.062
 3029POPC   C2B41876  39.626  32.678   6.505
 3029POPC   C3B41877  39.763  32.660   6.936
 3029POPC   C4B41878  39.708  32.330   7.209
 3030POPC   NC341879  39.505  38.078   5.478
 3030POPC   PO441880  38.964  38.698   5.506
 3030POPC   GL141881  39.162  38.596   5.870
 3030POPC   GL241882  39.331  38.904   5.862
 3030POPC   C1A41883  39.225  38.318   6.232
 3030POPC   D2A41884  39.390  38.040   6.557
 3030POPC   C3A41885  39.374  38.236   7.005
 3030POPC   C4A41886  39.559  38.622   7.198
 3030POPC   C1B41887  39.316  38.851   6.297
 3030POPC   C2B41888  39.417  38.604   6.642
 3030POPC   C3B41889  39.085  38.649   6.922
 3030POPC   C4B41890  39.065  38.815   7.318
 3031POPC   NC341891   9.894   3.098   5.422
 3031POPC   PO441892  10.075   2.494   5.543
 3031POPC   GL141893   9.689   2.556   5.800
 3031POPC   GL241894   9.527   2.883   5.727
 3031POPC   C1A41895   9.632   2.368   6.210
 3031POPC   D2A41896   9.408   2.361   6.590
 3031POPC   C3A41897   9.601   2.552   6.936
 3031POPC   C4A41898   9.928   2.746   7.164
 3031POPC   C1B41899   9.691   2.950   6.144
 3031POPC   C2B41900   9.523   2.919   6.557
 3031POPC   C3B41901   9.546   3.068   6.973
 3031POPC   C4B41902   9.401   2.851   7.323
 3032POPC   NC341903   7.508   8.371   4.847
 3032POPC   PO441904   7.354   8.004   5.421
 3032POPC   GL141905   7.169   8.137   5.771
 3032POPC   GL241906   7.443   8.331   5.825
 3032POPC   C1A41907   7.189   8.006   6.194
 3032POPC   D2A41908   7.017   8.155   6.571
 3032POPC   C3A41909   7.226   8.059   6.938
 3032POPC   C4A41910   7.134   8.156   7.316
 3032POPC   C1B41911   7.586   8.352   6.228
 3032POPC   C2B41912   7.567   8.217   6.604
 3032POPC   C3B41913   7.592   8.405   6.984
 3032POPC   C4B41914   7.784   8.175   7.239
 3033POPC   NC341915  17.289  26.748   5.368
 3033POPC   PO441916  17.866  27.033   5.352
 3033POPC   GL141917  17.613  26.916   5.760
 3033POPC   GL241918  17.294  26.700   5.886
 3033POPC   C1A41919  17.617  26.842   6.222
 3033POPC   D2A41920  17.380  26.858   6.599
 3033POPC   C3A41921  17.624  26.861   6.942
 3033POPC   C4A41922  17.604  26.848   7.334
 3033POPC   C1B41923  17.238  26.444   6.283
 3033POPC   C2B41924  17.102  26.441   6.732
 3033POPC   C3B41925  17.207  26.527   7.153
 3033POPC   C4B41926  17.272  26.333   7.591
 3034POPC   NC341927   7.555   5.088   5.340
 3034POPC   PO441928   6.994   5.421   5.548
 3034POPC   GL141929   7.158   5.157   5.832
 3034POPC   GL241930   7.334   4.867   5.759
 3034POPC   C1A41931   7.449   5.226   6.140
 3034POPC   D2A41932   7.514   5.080   6.551
 3034POPC   C3A41933   7.466   5.308   6.937
 3034POPC   C4A41934   7.337   5.143   7.318
 3034POPC   C1B41935   7.356   4.714   6.196
 3034POPC   C2B41936   7.580   4.579   6.589
 3034POPC   C3B41937   7.561   4.737   7.029
 3034POPC   C4B41938   7.265   4.645   7.355
 3035POPC   NC341939   3.053  16.982   5.431
 3035POPC   PO441940   2.775  16.410   5.467
 3035POPC   GL141941   2.720  16.665   5.807
 3035POPC   GL241942   2.547  16.964   5.799
 3035POPC   C1A41943   2.542  16.646   6.207
 3035POPC   D2A41944   2.698  16.830   6.551
 3035POPC   C3A41945   2.816  16.507   6.817
 3035POPC   C4A41946   2.861  16.512   7.257
 3035POPC   C1B41947   2.419  17.162   6.198
 3035POPC   C2B41948   2.238  17.078   6.617
 3035POPC   C3B41949   2.450  16.883   6.991
 3035POPC   C4B41950   2.924  16.970   7.024
 3036POPC   NC341951  28.965  32.693   5.565
 3036POPC   PO441952  29.373  33.139   5.280
 3036POPC   GL141953  29.405  33.064   5.756
 3036POPC   GL241954  29.314  32.744   5.941
 3036POPC   C1A41955  29.410  33.226   6.190
 3036POPC   D2A41956  29.477  33.456   6.596
 3036POPC   C3A41957  29.403  33.206   6.968
 3036POPC   C4A41958  29.296  32.802   7.176
 3036POPC   C1B41959  29.001  32.924   6.258
 3036POPC   C2B41960  29.018  33.097   6.657
 3036POPC   C3B41961  28.864  33.039   7.088
 3036POPC   C4B41962  28.740  32.753   7.414
 3037POPC   NC341963  42.663  33.352   5.421
 3037POPC   PO441964  42.854  32.710   5.388
 3037POPC   GL141965  43.142  32.907   5.707
 3037POPC   GL241966  43.144  33.265   5.632
 3037POPC   C1A41967  43.197  32.893   6.165
 3037POPC   D2A41968  43.481  32.966   6.522
 3037POPC   C3A41969  43.295  32.978   6.952
 3037POPC   C4A41970  43.340  32.854   7.409
 3037POPC   C1B41971  43.041  33.353   6.064
 3037POPC   C2B41972  43.144  33.351   6.522
 3037POPC   C3B41973  43.312  33.524   6.902
 3037POPC   C4B41974  43.296  33.359   7.304
 3038POPC   NC341975  30.810   6.716   5.252
 3038POPC   PO441976  30.290   6.231   5.576
 3038POPC   GL141977  30.410   6.574   5.819
 3038POPC   GL241978  30.727   6.761   5.771
 3038POPC   C1A41979  30.418   6.649   6.231
 3038POPC   D2A41980  30.634   6.828   6.541
 3038POPC   C3A41981  30.859   6.554   6.818
 3038POPC   C4A41982  31.003   6.598   7.236
 3038POPC   C1B41983  30.932   6.988   6.142
 3038POPC   C2B41984  31.077   7.056   6.600
 3038POPC   C3B41985  30.893   7.058   7.035
 3038POPC   C4B41986  30.935   7.038   7.512
 3039POPC   NC341987  33.382  16.643   5.246
 3039POPC   PO441988  33.988  17.009   5.489
 3039POPC   GL141989  33.894  16.797   5.861
 3039POPC   GL241990  33.824  16.465   5.715
 3039POPC   C1A41991  34.049  16.667   6.293
 3039POPC   D2A41992  34.046  16.540   6.758
 3039POPC   C3A41993  33.884  16.754   7.135
 3039POPC   C4A41994  33.785  16.759   7.577
 3039POPC   C1B41995  33.564  16.513   6.109
 3039POPC   C2B41996  33.585  16.697   6.505
 3039POPC   C3B41997  33.536  16.494   6.869
 3039POPC   C4B41998  33.433  16.587   7.261
 3040POPC   NC341999   3.688   4.646   5.570
 3040POPC   PO442000   3.748   4.069   5.240
 3040POPC   GL142001   3.495   4.094   5.655
 3040POPC   GL242002   3.324   4.372   5.784
 3040POPC   C1A42003   3.495   4.067   6.166
 3040POPC   D2A42004   3.837   4.227   6.462
 3040POPC   C3A42005   3.762   4.254   6.917
 3040POPC   C4A42006   3.468   4.136   7.230
 3040POPC   C1B42007   3.286   4.526   6.223
 3040POPC   C2B42008   3.478   4.593   6.657
 3040POPC   C3B42009   3.496   4.669   7.139
 3040POPC   C4B42010   3.324   4.865   7.550
 3041POPC   NC342011  33.263  31.074   5.384
 3041POPC   PO442012  33.098  31.736   5.464
 3041POPC   GL142013  33.013  31.495   5.851
 3041POPC   GL242014  32.782  31.220   5.877
 3041POPC   C1A42015  33.037  31.541   6.312
 3041POPC   D2A42016  33.322  31.762   6.537
 3041POPC   C3A42017  33.273  31.768   6.971
 3041POPC   C4A42018  33.381  31.448   7.268
 3041POPC   C1B42019  33.065  31.046   6.210
 3041POPC   C2B42020  33.313  31.177   6.586
 3041POPC   C3B42021  33.184  31.076   7.020
 3041POPC   C4B42022  32.905  31.215   7.411
 3042POPC   NC342023  34.825   7.865   5.246
 3042POPC   PO442024  34.902   8.475   5.561
 3042POPC   GL142025  34.545   8.217   5.698
 3042POPC   GL242026  34.598   7.909   5.815
 3042POPC   C1A42027  34.260   8.220   6.062
 3042POPC   D2A42028  34.396   8.457   6.423
 3042POPC   C3A42029  34.327   8.311   6.849
 3042POPC   C4A42030  34.388   8.325   7.270
 3042POPC   C1B42031  34.603   7.877   6.257
 3042POPC   C2B42032  34.413   7.829   6.653
 3042POPC   C3B42033  34.593   7.884   7.042
 3042POPC   C4B42034  34.946   7.995   7.253
 3043POPC   NC342035  32.468  37.793   5.363
 3043POPC   PO442036  32.083  37.289   5.417
 3043POPC   GL142037  32.228  37.530   5.736
 3043POPC   GL242038  32.554  37.542   5.796
 3043POPC   C1A42039  32.181  37.716   6.136
 3043POPC   D2A42040  32.149  38.026   6.491
 3043POPC   C3A42041  32.234  37.876   6.904
 3043POPC   C4A42042  31.983  37.732   7.252
 3043POPC   C1B42043  32.612  37.388   6.186
 3043POPC   C2B42044  32.483  37.580   6.542
 3043POPC   C3B42045  32.687  37.570   6.921
 3043POPC   C4B42046  32.469  37.572   7.264
 3044POPC   NC342047  35.495  36.483   5.407
 3044POPC   PO442048  35.031  37.084   5.420
 3044POPC   GL142049  35.383  37.001   5.730
 3044POPC   GL242050  35.582  36.711   5.848
 3044POPC   C1A42051  35.408  37.062   6.186
 3044POPC   D2A42052  35.406  36.836   6.580
 3044POPC   C3A42053  35.212  36.983   6.972
 3044POPC   C4A42054  35.124  36.930   7.414
 3044POPC   C1B42055  35.454  36.471   6.212
 3044POPC   C2B42056  35.585  36.264   6.590
 3044POPC   C3B42057  35.455  36.492   6.944
 3044POPC   C4B42058  35.573  36.752   7.262
 3045POPC   NC342059  35.882  14.657   5.472
 3045POPC   PO442060  36.410  14.222   5.329
 3045POPC   GL142061  36.269  14.247   5.803
 3045POPC   GL242062  35.918  14.339   5.854
 3045POPC   C1A42063  36.207  14.511   6.219
 3045POPC   D2A42064  36.015  14.414   6.613
 3045POPC   C3A42065  36.149  14.545   7.009
 3045POPC   C4A42066  36.298  14.406   7.423
 3045POPC   C1B42067  35.670  14.466   6.231
 3045POPC   C2B42068  35.528  14.246   6.579
 3045POPC   C3B42069  35.735  14.148   6.940
 3045POPC   C4B42070  35.810  14.332   7.315
 3046POPC   NC342071  30.471   4.532   5.393
 3046POPC   PO442072  31.029   4.127   5.359
 3046POPC   GL142073  30.890   4.340   5.747
 3046POPC   GL242074  30.923   4.719   5.732
 3046POPC   C1A42075  30.688   4.294   6.159
 3046POPC   D2A42076  30.392   4.423   6.468
 3046POPC   C3A42077  30.472   4.308   6.917
 3046POPC   C4A42078  30.762   4.194   7.210
 3046POPC   C1B42079  31.047   4.662   6.199
 3046POPC   C2B42080  30.939   4.456   6.632
 3046POPC   C3B42081  31.175   4.434   7.059
 3046POPC   C4B42082  31.084   4.459   7.537
 3047POPC   NC342083  37.700  17.166   5.482
 3047POPC   PO442084  37.907  16.514   5.363
 3047POPC   GL142085  37.893  16.669   5.775
 3047POPC   GL242086  38.095  16.996   5.774
 3047POPC   C1A42087  37.622  16.545   6.158
 3047POPC   D2A42088  37.614  16.762   6.574
 3047POPC   C3A42089  37.357  16.973   6.907
 3047POPC   C4A42090  37.462  16.894   7.353
 3047POPC   C1B42091  37.964  16.940   6.214
 3047POPC   C2B42092  38.127  16.839   6.632
 3047POPC   C3B42093  37.886  16.861   7.015
 3047POPC   C4B42094  37.889  17.161   7.333
 3048POPC   NC342095  44.727  36.356   5.255
 3048POPC   PO442096  44.744  37.058   5.365
 3048POPC   GL142097  44.841  37.003   5.816
 3048POPC   GL242098  44.619  37.270   5.859
 3048POPC   C1A42099  44.739  36.745   6.239
 3048POPC   D2A42100  44.409  36.738   6.602
 3048POPC   C3A42101  44.594  36.624   6.972
 3048POPC   C4A42102   0.036  36.741   7.094
 3048POPC   C1B42103  44.555  37.211   6.255
 3048POPC   C2B42104  44.681  37.188   6.653
 3048POPC   C3B42105  44.653  37.110   7.070
 3048POPC   C4B42106  44.533  37.123   7.498
 3049POPC   NC342107  14.368  23.590   5.374
 3049POPC   PO442108  14.722  24.084   5.744
 3049POPC   GL142109  14.289  23.868   5.851
 3049POPC   GL242110  14.172  23.475   5.850
 3049POPC   C1A42111  14.222  24.001   6.287
 3049POPC   D2A42112  14.551  24.005   6.619
 3049POPC   C3A42113  14.370  24.014   7.047
 3049POPC   C4A42114  14.488  23.781   7.417
 3049POPC   C1B42115  14.077  23.530   6.293
 3049POPC   C2B42116  14.152  23.656   6.714
 3049POPC   C3B42117  14.314  23.457   7.072
 3049POPC   C4B42118  14.164  23.279   7.460
 3050POPC   NC342119  35.401  18.866   5.266
 3050POPC   PO442120  35.852  19.271   5.444
 3050POPC   GL142121  35.601  18.967   5.736
 3050POPC   GL242122  35.270  18.753   5.740
 3050POPC   C1A42123  35.421  19.035   6.154
 3050POPC   D2A42124  35.177  19.207   6.488
 3050POPC   C3A42125  35.416  19.161   6.840
 3050POPC   C4A42126  35.306  19.179   7.236
 3050POPC   C1B42127  35.146  18.613   6.150
 3050POPC   C2B42128  35.317  18.719   6.578
 3050POPC   C3B42129  35.071  18.787   6.948
 3050POPC   C4B42130  35.096  18.727   7.391
 3051POPC   NC342131  24.618  28.120   5.407
 3051POPC   PO442132  24.412  28.720   5.511
 3051POPC   GL142133  24.516  28.415   5.820
 3051POPC   GL242134  24.244  28.146   5.795
 3051POPC   C1A42135  24.738  28.399   6.212
 3051POPC   D2A42136  24.423  28.326   6.514
 3051POPC   C3A42137  24.510  28.235   6.932
 3051POPC   C4A42138  24.430  28.350   7.403
 3051POPC   C1B42139  24.098  28.451   6.134
 3051POPC   C2B42140  23.941  28.537   6.566
 3051POPC   C3B42141  24.136  28.592   6.957
 3051POPC   C4B42142  24.163  28.832   7.327
 3052POPC   NC342143  11.095  36.267   5.241
 3052POPC   PO442144  11.733  36.531   5.420
 3052POPC   GL142145  11.450  36.241   5.669
 3052POPC   GL242146  11.113  36.291   5.748
 3052POPC   C1A42147  11.479  36.122   6.132
 3052POPC   D2A42148  11.494  35.746   6.402
 3052POPC   C3A42149  11.330  35.680   6.822
 3052POPC   C4A42150  11.402  35.896   7.210
 3052POPC   C1B42151  11.012  36.324   6.167
 3052POPC   C2B42152  11.083  36.063   6.497
 3052POPC   C3B42153  11.053  36.123   6.915
 3052POPC   C4B42154  10.833  36.018   7.267
 3053POPC   NC342155  30.385  40.883   5.632
 3053POPC   PO442156  30.734  40.501   5.161
 3053POPC   GL142157  30.887  40.764   5.597
 3053POPC   GL242158  30.809  40.447   5.712
 3053POPC   C1A42159  30.836  40.976   6.100
 3053POPC   D2A42160  30.773  41.169   6.559
 3053POPC   C3A42161  30.636  40.905   6.946
 3053POPC   C4A42162  30.386  40.522   7.069
 3053POPC   C1B42163  30.906  40.481   6.135
 3053POPC   C2B42164  30.838  40.641   6.541
 3053POPC   C3B42165  30.908  40.460   6.937
 3053POPC   C4B42166  30.810  40.399   7.326
 3054POPC   NC342167  27.215  10.641   5.335
 3054POPC   PO442168  26.549  10.461   5.405
 3054POPC   GL142169  26.892  10.448   5.710
 3054POPC   GL242170  27.028  10.797   5.789
 3054POPC   C1A42171  26.872  10.285   6.130
 3054POPC   D2A42172  26.621  10.392   6.467
 3054POPC   C3A42173  26.829  10.438   6.861
 3054POPC   C4A42174  26.635  10.378   7.243
 3054POPC   C1B42175  27.264  10.594   6.092
 3054POPC   C2B42176  27.173  10.547   6.501
 3054POPC   C3B42177  27.171  10.843   6.870
 3054POPC   C4B42178  27.065  10.662   7.267
 3055POPC   NC342179  17.216  11.480   5.463
 3055POPC   PO442180  17.410  10.831   5.369
 3055POPC   GL142181  17.529  11.109   5.702
 3055POPC   GL242182  17.237  11.153   5.875
 3055POPC   C1A42183  17.697  11.279   6.100
 3055POPC   D2A42184  17.495  11.245   6.523
 3055POPC   C3A42185  17.585  11.371   6.942
 3055POPC   C4A42186  17.860  11.170   7.247
 3055POPC   C1B42187  17.079  11.289   6.249
 3055POPC   C2B42188  17.002  11.311   6.670
 3055POPC   C3B42189  16.977  11.126   7.023
 3055POPC   C4B42190  17.321  11.031   7.258
 3056POPC   NC342191  33.041  11.578   5.373
 3056POPC   PO442192  33.201  10.931   5.253
 3056POPC   GL142193  33.048  11.105   5.724
 3056POPC   GL242194  33.081  11.454   5.857
 3056POPC   C1A42195  33.161  11.101   6.207
 3056POPC   D2A42196  33.194  11.381   6.589
 3056POPC   C3A42197  33.268  11.200   6.978
 3056POPC   C4A42198  33.129  11.235   7.410
 3056POPC   C1B42199  32.835  11.539   6.255
 3056POPC   C2B42200  32.659  11.363   6.653
 3056POPC   C3B42201  32.804  11.410   7.044
 3056POPC   C4B42202  32.723  11.532   7.450
 3057POPC   NC342203  18.255  14.175   5.416
 3057POPC   PO442204  18.188  14.759   5.130
 3057POPC   GL142205  18.142  14.636   5.621
 3057POPC   GL242206  18.049  14.826   5.935
 3057POPC   C1A42207  17.992  14.333   6.007
 3057POPC   D2A42208  18.107  14.300   6.455
 3057POPC   C3A42209  18.222  14.220   6.898
 3057POPC   C4A42210  18.131  14.422   7.305
 3057POPC   C1B42211  18.411  14.597   6.136
 3057POPC   C2B42212  18.510  14.612   6.589
 3057POPC   C3B42213  18.446  14.705   7.029
 3057POPC   C4B42214  18.550  14.674   7.485
 3058POPC   NC342215  24.562   9.242   5.152
 3058POPC   PO442216  24.753   9.054   5.691
 3058POPC   GL142217  24.517   8.966   6.001
 3058POPC   GL242218  24.466   8.625   5.919
 3058POPC   C1A42219  24.579   9.127   6.400
 3058POPC   D2A42220  24.827   9.200   6.737
 3058POPC   C3A42221  24.631   9.123   7.121
 3058POPC   C4A42222  24.552   8.976   7.525
 3058POPC   C1B42223  24.670   8.607   6.335
 3058POPC   C2B42224  24.574   8.738   6.756
 3058POPC   C3B42225  24.564   8.599   7.179
 3058POPC   C4B42226  24.267   8.533   7.518
 3059POPC   NC342227  14.960  36.459   5.286
 3059POPC   PO442228  15.475  35.925   5.472
 3059POPC   GL142229  15.245  36.032   5.831
 3059POPC   GL242230  15.289  36.365   5.745
 3059POPC   C1A42231  15.130  36.176   6.288
 3059POPC   D2A42232  14.935  36.433   6.633
 3059POPC   C3A42233  14.902  36.265   7.060
 3059POPC   C4A42234  14.889  36.013   7.424
 3059POPC   C1B42235  15.587  36.312   6.089
 3059POPC   C2B42236  15.628  36.099   6.477
 3059POPC   C3B42237  15.361  36.174   6.810
 3059POPC   C4B42238  15.439  36.279   7.216
 3060POPC   NC342239  30.798  38.453   5.361
 3060POPC   PO442240  30.259  38.702   5.721
 3060POPC   GL142241  30.476  38.430   5.930
 3060POPC   GL242242  30.810  38.408   5.873
 3060POPC   C1A42243  30.579  38.465   6.355
 3060POPC   D2A42244  30.862  38.677   6.623
 3060POPC   C3A42245  30.871  38.416   6.987
 3060POPC   C4A42246  30.721  38.449   7.379
 3060POPC   C1B42247  30.884  38.083   6.156
 3060POPC   C2B42248  30.906  38.129   6.565
 3060POPC   C3B42249  31.027  37.932   6.948
 3060POPC   C4B42250  31.083  38.018   7.372
 3061POPC   NC342251  31.463  42.145   5.264
 3061POPC   PO442252  31.075  42.799   5.373
 3061POPC   GL142253  31.278  42.523   5.685
 3061POPC   GL242254  31.539  42.264   5.749
 3061POPC   C1A42255  31.167  42.391   6.112
 3061POPC   D2A42256  31.304  42.155   6.467
 3061POPC   C3A42257  31.144  42.289   6.842
 3061POPC   C4A42258  31.353  42.369   7.196
 3061POPC   C1B42259  31.696  42.316   6.167
 3061POPC   C2B42260  31.915  42.326   6.573
 3061POPC   C3B42261  31.808  42.231   6.998
 3061POPC   C4B42262  31.835  42.519   7.361
 3062POPC   NC342263  39.413  38.655   5.413
 3062POPC   PO442264  39.221  39.260   5.172
 3062POPC   GL142265  39.304  39.356   5.614
 3062POPC   GL242266  39.005  39.309   5.803
 3062POPC   C1A42267  39.412  39.353   6.084
 3062POPC   D2A42268  39.232  39.321   6.502
 3062POPC   C3A42269  39.443  39.102   6.848
 3062POPC   C4A42270  39.316  39.252   7.256
 3062POPC   C1B42271  38.801  39.416   6.209
 3062POPC   C2B42272  38.839  39.640   6.637
 3062POPC   C3B42273  39.020  39.666   7.058
 3062POPC   C4B42274  39.027  39.589   7.496
 3063POPC   NC342275  42.770   7.585   5.423
 3063POPC   PO442276  43.377   7.297   5.409
 3063POPC   GL142277  43.159   7.156   5.786
 3063POPC   GL242278  42.800   7.188   5.800
 3063POPC   C1A42279  43.069   6.883   6.146
 3063POPC   D2A42280  42.876   6.879   6.559
 3063POPC   C3A42281  42.991   7.190   6.842
 3063POPC   C4A42282  43.240   7.209   7.192
 3063POPC   C1B42283  42.857   7.344   6.259
 3063POPC   C2B42284  43.063   7.621   6.564
 3063POPC   C3B42285  43.142   7.679   6.990
 3063POPC   C4B42286  42.828   7.485   7.268
 3064POPC   NC342287  27.990   5.356   5.325
 3064POPC   PO442288  27.649   4.728   5.410
 3064POPC   GL142289  27.717   4.940   5.795
 3064POPC   GL242290  27.822   4.696   5.979
 3064POPC   C1A42291  27.694   5.129   6.215
 3064POPC   D2A42292  27.651   4.910   6.632
 3064POPC   C3A42293  27.408   5.171   6.889
 3064POPC   C4A42294  27.512   5.464   7.224
 3064POPC   C1B42295  27.408   4.689   6.239
 3064POPC   C2B42296  27.151   4.771   6.624
 3064POPC   C3B42297  27.210   4.726   7.058
 3064POPC   C4B42298  27.438   4.967   7.363
 3065POPC   NC342299  17.188   1.447   5.488
 3065POPC   PO442300  16.537   1.311   5.315
 3065POPC   GL142301  16.647   1.148   5.724
 3065POPC   GL242302  16.830   0.852   5.834
 3065POPC   C1A42303  16.485   1.078   6.158
 3065POPC   D2A42304  16.590   1.099   6.604
 3065POPC   C3A42305  16.397   1.390   6.857
 3065POPC   C4A42306  16.489   1.311   7.261
 3065POPC   C1B42307  16.954   0.879   6.300
 3065POPC   C2B42308  17.064   1.264   6.592
 3065POPC   C3B42309  16.912   1.277   7.001
 3065POPC   C4B42310  16.951   1.092   7.410
 3066POPC   NC342311  38.739  43.182   5.492
 3066POPC   PO442312  39.360  43.159   5.362
 3066POPC   GL142313  39.236  42.869   5.715
 3066POPC   GL242314  39.058  43.120   5.905
 3066POPC   C1A42315  39.335  42.797   6.179
 3066POPC   D2A42316  39.209  43.042   6.529
 3066POPC   C3A42317  39.295  43.019   6.950
 3066POPC   C4A42318  39.270  43.120   7.385
 3066POPC   C1B42319  39.396  43.338   6.155
 3066POPC   C2B42320  39.583  43.393   6.584
 3066POPC   C3B42321  39.475  43.508   7.028
 3066POPC   C4B42322  39.393  43.607   7.489
 3067POPC   NC342323   6.334  32.363   5.504
 3067POPC   PO442324   7.080  32.283   5.519
 3067POPC   GL142325   6.781  32.206   5.839
 3067POPC   GL242326   6.518  31.979   5.770
 3067POPC   C1A42327   6.586  32.223   6.255
 3067POPC   D2A42328   6.375  32.452   6.575
 3067POPC   C3A42329   6.638  32.503   6.930
 3067POPC   C4A42330   6.515  32.376   7.326
 3067POPC   C1B42331   6.281  31.836   6.121
 3067POPC   C2B42332   6.200  31.943   6.564
 3067POPC   C3B42333   6.534  32.001   6.889
 3067POPC   C4B42334   6.651  31.885   7.330
 3068POPC   NC342335   6.515  16.282   5.452
 3068POPC   PO442336   6.737  16.951   5.337
 3068POPC   GL142337   6.558  16.774   5.707
 3068POPC   GL242338   6.780  16.542   5.862
 3068POPC   C1A42339   6.483  16.888   6.158
 3068POPC   D2A42340   6.758  16.900   6.526
 3068POPC   C3A42341   6.559  16.955   6.932
 3068POPC   C4A42342   6.653  16.804   7.350
 3068POPC   C1B42343   6.643  16.420   6.300
 3068POPC   C2B42344   6.397  16.513   6.673
 3068POPC   C3B42345   6.530  16.376   7.088
 3068POPC   C4B42346   6.873  16.343   7.437
 3069POPC   NC342347  35.168  39.057   5.258
 3069POPC   PO442348  35.795  39.382   5.420
 3069POPC   GL142349  35.557  39.376   5.783
 3069POPC   GL242350  35.230  39.226   5.725
 3069POPC   C1A42351  35.365  39.382   6.186
 3069POPC   D2A42352  35.426  39.217   6.560
 3069POPC   C3A42353  35.318  39.397   6.913
 3069POPC   C4A42354  35.431  39.189   7.278
 3069POPC   C1B42355  35.116  38.939   6.055
 3069POPC   C2B42356  34.979  38.909   6.465
 3069POPC   C3B42357  35.057  38.865   6.900
 3069POPC   C4B42358  34.902  39.182   7.170
 3070POPC   NC342359  34.204  38.342   5.368
 3070POPC   PO442360  33.583  38.398   5.450
 3070POPC   GL142361  33.891  38.403   5.810
 3070POPC   GL242362  33.904  38.725   6.000
 3070POPC   C1A42363  33.872  38.287   6.246
 3070POPC   D2A42364  33.879  38.573   6.593
 3070POPC   C3A42365  33.763  38.384   6.965
 3070POPC   C4A42366  33.676  38.448   7.369
 3070POPC   C1B42367  34.116  38.939   6.312
 3070POPC   C2B42368  33.958  39.088   6.689
 3070POPC   C3B42369  33.898  38.866   7.058
 3070POPC   C4B42370  34.139  38.605   7.346
 3071POPC   NC342371  31.930  19.225   5.509
 3071POPC   PO442372  31.364  18.929   5.476
 3071POPC   GL142373  31.517  19.085   5.848
 3071POPC   GL242374  31.803  18.896   5.874
 3071POPC   C1A42375  31.455  18.940   6.288
 3071POPC   D2A42376  31.300  18.826   6.717
 3071POPC   C3A42377  31.536  18.979   7.082
 3071POPC   C4A42378  31.423  19.265   7.412
 3071POPC   C1B42379  31.850  19.248   6.199
 3071POPC   C2B42380  31.856  19.196   6.664
 3071POPC   C3B42381  31.919  19.331   7.118
 3071POPC   C4B42382  31.894  19.077   7.499
 3072POPC   NC342383  29.644  34.314   5.529
 3072POPC   PO442384  30.166  34.565   5.206
 3072POPC   GL142385  30.083  34.651   5.661
 3072POPC   GL242386  30.081  34.341   5.844
 3072POPC   C1A42387  29.820  34.732   6.051
 3072POPC   D2A42388  29.632  34.716   6.480
 3072POPC   C3A42389  29.886  34.839   6.870
 3072POPC   C4A42390  29.861  34.801   7.326
 3072POPC   C1B42391  29.963  34.272   6.291
 3072POPC   C2B42392  29.889  34.335   6.741
 3072POPC   C3B42393  29.836  34.307   7.171
 3072POPC   C4B42394  30.142  34.172   7.491
 3073POPC   NC342395  26.738  31.732   5.320
 3073POPC   PO442396  26.886  31.043   5.399
 3073POPC   GL142397  26.839  31.384   5.693
 3073POPC   GL242398  27.149  31.491   5.867
 3073POPC   C1A42399  26.699  31.357   6.114
 3073POPC   D2A42400  26.616  31.555   6.490
 3073POPC   C3A42401  26.841  31.507   6.871
 3073POPC   C4A42402  26.656  31.323   7.244
 3073POPC   C1B42403  27.062  31.759   6.258
 3073POPC   C2B42404  26.981  32.010   6.651
 3073POPC   C3B42405  27.173  31.959   7.064
 3073POPC   C4B42406  27.156  31.555   7.297
 3074POPC   NC342407   1.416   6.275   5.402
 3074POPC   PO442408   1.095   5.597   5.375
 3074POPC   GL142409   1.248   5.696   5.794
 3074POPC   GL242410   1.157   6.035   5.887
 3074POPC   C1A42411   1.160   5.616   6.235
 3074POPC   D2A42412   0.903   5.659   6.640
 3074POPC   C3A42413   1.191   5.617   6.986
 3074POPC   C4A42414   1.464   5.872   7.233
 3074POPC   C1B42415   1.005   6.081   6.321
 3074POPC   C2B42416   1.159   6.107   6.730
 3074POPC   C3B42417   0.890   6.033   7.067
 3074POPC   C4B42418   1.001   5.821   7.430
 3075POPC   NC342419   4.112  35.103   5.475
 3075POPC   PO442420   3.970  35.712   5.614
 3075POPC   GL142421   4.256  35.584   5.837
 3075POPC   GL242422   4.436  35.292   5.835
 3075POPC   C1A42423   4.154  35.433   6.237
 3075POPC   D2A42424   4.364  35.313   6.603
 3075POPC   C3A42425   4.239  35.504   6.971
 3075POPC   C4A42426   4.192  35.129   7.223
 3075POPC   C1B42427   4.652  35.557   6.150
 3075POPC   C2B42428   4.882  35.613   6.529
 3075POPC   C3B42429   4.743  35.458   6.908
 3075POPC   C4B42430   4.585  35.435   7.331
 3076POPC   NC342431  19.485  30.704   5.529
 3076POPC   PO442432  20.122  30.575   5.380
 3076POPC   GL142433  19.912  30.714   5.816
 3076POPC   GL242434  19.635  30.995   5.898
 3076POPC   C1A42435  19.928  30.661   6.284
 3076POPC   D2A42436  20.017  30.973   6.641
 3076POPC   C3A42437  20.171  30.865   7.047
 3076POPC   C4A42438  19.908  30.671   7.351
 3076POPC   C1B42439  19.622  31.073   6.319
 3076POPC   C2B42440  19.502  30.885   6.673
 3076POPC   C3B42441  19.643  30.993   7.058
 3076POPC   C4B42442  19.610  31.048   7.510
 3077POPC   NC342443  10.616  35.845   5.524
 3077POPC   PO442444  10.754  36.543   5.437
 3077POPC   GL142445  10.614  36.266   5.832
 3077POPC   GL242446  10.738  35.951   6.002
 3077POPC   C1A42447  10.502  36.367   6.253
 3077POPC   D2A42448  10.562  36.118   6.610
 3077POPC   C3A42449  10.487  36.305   6.995
 3077POPC   C4A42450  10.343  36.101   7.353
 3077POPC   C1B42451  10.318  35.892   6.195
 3077POPC   C2B42452  10.207  35.722   6.605
 3077POPC   C3B42453  10.264  35.705   7.042
 3077POPC   C4B42454  10.509  35.610   7.411
 3078POPC   NC342455   6.673  30.375   5.523
 3078POPC   PO442456   6.420  30.970   5.372
 3078POPC   GL142457   6.425  30.749   5.775
 3078POPC   GL242458   6.786  30.782   5.825
 3078POPC   C1A42459   6.564  30.553   6.202
 3078POPC   D2A42460   6.571  30.383   6.605
 3078POPC   C3A42461   6.397  30.579   6.953
 3078POPC   C4A42462   6.329  30.432   7.359
 3078POPC   C1B42463   7.033  30.783   6.199
 3078POPC   C2B42464   6.881  30.836   6.608
 3078POPC   C3B42465   7.016  30.771   7.041
 3078POPC   C4B42466   6.834  30.903   7.437
 3079POPC   NC342467  39.262  18.962   5.328
 3079POPC   PO442468  39.674  19.338   5.646
 3079POPC   GL142469  39.297  19.208   5.789
 3079POPC   GL242470  39.182  18.864   5.823
 3079POPC   C1A42471  39.195  19.241   6.201
 3079POPC   D2A42472  39.326  19.131   6.588
 3079POPC   C3A42473  39.355  19.434   6.876
 3079POPC   C4A42474  39.198  19.242   7.227
 3079POPC   C1B42475  39.365  18.738   6.227
 3079POPC   C2B42476  39.685  18.759   6.562
 3079POPC   C3B42477  39.567  18.863   6.968
 3079POPC   C4B42478  39.270  18.710   7.231
 3080POPC   NC342479  40.201  25.396   5.417
 3080POPC   PO442480  39.638  24.962   5.348
 3080POPC   GL142481  39.916  25.152   5.745
 3080POPC   GL242482  40.050  25.514   5.891
 3080POPC   C1A42483  40.251  25.099   6.086
 3080POPC   D2A42484  40.316  25.395   6.452
 3080POPC   C3A42485  40.009  25.370   6.825
 3080POPC   C4A42486  40.073  25.220   7.265
 3080POPC   C1B42487  39.792  25.363   6.229
 3080POPC   C2B42488  39.553  25.592   6.534
 3080POPC   C3B42489  39.607  25.686   6.953
 3080POPC   C4B42490  39.597  25.425   7.277
 3081POPC   NC342491   4.827  21.525   5.254
 3081POPC   PO442492   5.103  20.987   5.521
 3081POPC   GL142493   5.028  21.396   5.712
 3081POPC   GL242494   5.352  21.581   5.720
 3081POPC   C1A42495   4.925  21.628   6.094
 3081POPC   D2A42496   4.995  21.772   6.519
 3081POPC   C3A42497   4.783  21.649   6.868
 3081POPC   C4A42498   4.894  21.528   7.248
 3081POPC   C1B42499   5.338  21.324   6.115
 3081POPC   C2B42500   5.367  21.442   6.518
 3081POPC   C3B42501   5.233  21.368   6.903
 3081POPC   C4B42502   5.407  21.505   7.263
 3082POPC   NC342503   1.474  34.461   5.121
 3082POPC   PO442504   1.166  34.064   5.574
 3082POPC   GL142505   0.990  34.380   5.825
 3082POPC   GL242506   1.121  34.644   5.626
 3082POPC   C1A42507   0.942  34.500   6.250
 3082POPC   D2A42508   1.144  34.708   6.597
 3082POPC   C3A42509   0.917  34.709   6.993
 3082POPC   C4A42510   0.907  34.529   7.436
 3082POPC   C1B42511   1.387  34.681   6.038
 3082POPC   C2B42512   1.531  34.407   6.407
 3082POPC   C3B42513   1.492  34.444   6.886
 3082POPC   C4B42514   1.533  34.841   7.165
 3083POPC   NC342515  11.945  34.321   5.073
 3083POPC   PO442516  12.048  33.729   5.379
 3083POPC   GL142517  12.072  33.640   5.816
 3083POPC   GL242518  11.781  33.809   5.944
 3083POPC   C1A42519  12.409  33.710   6.139
 3083POPC   D2A42520  12.454  33.921   6.560
 3083POPC   C3A42521  12.333  33.734   6.971
 3083POPC   C4A42522  12.153  33.907   7.357
 3083POPC   C1B42523  11.947  33.732   6.338
 3083POPC   C2B42524  11.960  33.515   6.709
 3083POPC   C3B42525  11.770  33.636   7.096
 3083POPC   C4B42526  11.684  33.778   7.515
 3084POPC   NC342527   3.167  15.371   5.251
 3084POPC   PO442528   2.466  15.524   5.425
 3084POPC   GL142529   2.771  15.329   5.769
 3084POPC   GL242530   2.880  14.954   5.824
 3084POPC   C1A42531   2.641  15.293   6.207
 3084POPC   D2A42532   2.654  14.984   6.568
 3084POPC   C3A42533   2.603  15.163   6.982
 3084POPC   C4A42534   2.789  15.005   7.362
 3084POPC   C1B42535   3.111  15.153   6.148
 3084POPC   C2B42536   3.033  15.310   6.537
 3084POPC   C3B42537   3.091  15.072   6.898
 3084POPC   C4B42538   3.258  15.177   7.237
 3085POPC   NC342539  16.154  27.424   5.475
 3085POPC   PO442540  15.559  27.420   5.725
 3085POPC   GL142541  15.927  27.531   5.944
 3085POPC   GL242542  15.997  27.183   5.897
 3085POPC   C1A42543  16.021  27.690   6.392
 3085POPC   D2A42544  15.753  27.784   6.768
 3085POPC   C3A42545  15.972  27.838   7.141
 3085POPC   C4A42546  16.294  27.796   7.379
 3085POPC   C1B42547  15.839  27.191   6.310
 3085POPC   C2B42548  16.002  27.248   6.718
 3085POPC   C3B42549  15.969  27.325   7.155
 3085POPC   C4B42550  15.984  27.408   7.581
 3086POPC   NC342551  44.077  28.512   5.044
 3086POPC   PO442552  44.345  28.147   5.577
 3086POPC   GL142553  44.243  28.345   5.938
 3086POPC   GL242554  44.513  28.561   5.987
 3086POPC   C1A42555  44.116  28.580   6.304
 3086POPC   D2A42556  44.163  28.673   6.731
 3086POPC   C3A42557  44.505  28.480   6.941
 3086POPC   C4A42558  44.589  28.382   7.361
 3086POPC   C1B42559  44.606  28.377   6.399
 3086POPC   C2B42560  44.705  28.044   6.731
 3086POPC   C3B42561  44.974  28.189   7.084
 3086POPC   C4B42562   0.040  28.199   7.549
 3087POPC   NC342563   1.247  42.510   5.067
 3087POPC   PO442564   0.826  42.032   5.257
 3087POPC   GL142565   0.976  42.214   5.709
 3087POPC   GL242566   1.129  42.574   5.709
 3087POPC   C1A42567   1.241  42.304   6.131
 3087POPC   D2A42568   1.394  42.528   6.532
 3087POPC   C3A42569   1.215  42.419   6.944
 3087POPC   C4A42570   1.330  42.477   7.386
 3087POPC   C1B42571   1.064  42.772   6.164
 3087POPC   C2B42572   0.860  42.653   6.587
 3087POPC   C3B42573   0.934  42.849   6.991
 3087POPC   C4B42574   1.282  42.926   7.178
 3088POPC   NC342575  28.689  24.439   5.179
 3088POPC   PO442576  28.130  24.642   5.510
 3088POPC   GL142577  28.148  24.485   5.879
 3088POPC   GL242578  28.022  24.813   5.993
 3088POPC   C1A42579  28.275  24.394   6.302
 3088POPC   D2A42580  28.254  24.114   6.659
 3088POPC   C3A42581  28.264  24.312   7.089
 3088POPC   C4A42582  28.404  24.449   7.540
 3088POPC   C1B42583  28.079  24.881   6.421
 3088POPC   C2B42584  28.340  24.702   6.749
 3088POPC   C3B42585  28.531  24.763   7.152
 3088POPC   C4B42586  28.666  24.964   7.531
 3089POPC   NC342587  13.809   4.228   5.433
 3089POPC   PO442588  13.161   4.289   5.442
 3089POPC   GL142589  13.275   4.022   5.784
 3089POPC   GL242590  13.532   4.271   5.862
 3089POPC   C1A42591  13.479   3.886   6.183
 3089POPC   D2A42592  13.751   4.057   6.490
 3089POPC   C3A42593  13.685   4.109   6.940
 3089POPC   C4A42594  13.989   4.436   7.139
 3089POPC   C1B42595  13.439   4.412   6.269
 3089POPC   C2B42596  13.526   4.514   6.684
 3089POPC   C3B42597  13.474   4.574   7.118
 3089POPC   C4B42598  13.273   4.879   7.410
 3090POPC   NC342599  10.506   2.595   5.696
 3090POPC   PO442600  11.050   3.017   5.516
 3090POPC   GL142601  10.961   2.750   5.881
 3090POPC   GL242602  10.668   2.970   5.982
 3090POPC   C1A42603  10.800   2.607   6.324
 3090POPC   D2A42604  10.559   2.893   6.643
 3090POPC   C3A42605  10.491   2.763   7.076
 3090POPC   C4A42606  10.803   2.636   7.407
 3090POPC   C1B42607  10.236   2.968   6.240
 3090POPC   C2B42608  10.022   2.939   6.685
 3090POPC   C3B42609  10.015   3.229   7.078
 3090POPC   C4B42610  10.169   3.151   7.531
 3091POPC   NC342611  29.036  31.876   5.585
 3091POPC   PO442612  29.437  32.420   5.535
 3091POPC   GL142613  29.329  32.194   5.898
 3091POPC   GL242614  28.976  32.300   5.929
 3091POPC   C1A42615  29.177  31.939   6.257
 3091POPC   D2A42616  28.982  32.044   6.681
 3091POPC   C3A42617  29.206  31.904   7.038
 3091POPC   C4A42618  29.155  31.984   7.488
 3091POPC   C1B42619  29.099  32.438   6.351
 3091POPC   C2B42620  28.942  32.576   6.770
 3091POPC   C3B42621  28.971  32.372   7.168
 3091POPC   C4B42622  29.194  32.483   7.567
 3092POPC   NC342623  38.387  20.851   5.284
 3092POPC   PO442624  38.849  20.317   5.305
 3092POPC   GL142625  38.500  20.456   5.653
 3092POPC   GL242626  38.417  20.813   5.801
 3092POPC   C1A42627  38.508  20.464   6.147
 3092POPC   D2A42628  38.633  20.657   6.550
 3092POPC   C3A42629  38.424  20.530   6.898
 3092POPC   C4A42630  38.333  20.729   7.269
 3092POPC   C1B42631  38.283  20.968   6.256
 3092POPC   C2B42632  38.213  20.976   6.731
 3092POPC   C3B42633  38.050  21.120   7.161
 3092POPC   C4B42634  38.211  21.041   7.656
 3093POPC   NC342635   1.349   7.229   5.260
 3093POPC   PO442636   0.761   7.619   5.396
 3093POPC   GL142637   1.038   7.432   5.776
 3093POPC   GL242638   1.337   7.506   6.004
 3093POPC   C1A42639   0.926   7.434   6.262
 3093POPC   D2A42640   1.118   7.686   6.599
 3093POPC   C3A42641   1.073   7.613   7.028
 3093POPC   C4A42642   1.087   7.247   7.214
 3093POPC   C1B42643   1.482   7.348   6.408
 3093POPC   C2B42644   1.515   7.379   6.859
 3093POPC   C3B42645   1.557   7.684   7.189
 3093POPC   C4B42646   1.288   7.581   7.547
 3094POPC   NC342647   3.977   3.855   5.588
 3094POPC   PO442648   4.577   3.576   5.502
 3094POPC   GL142649   4.417   3.624   5.904
 3094POPC   GL242650   4.101   3.470   5.926
 3094POPC   C1A42651   4.410   3.540   6.344
 3094POPC   D2A42652   4.266   3.278   6.666
 3094POPC   C3A42653   4.315   3.463   7.061
 3094POPC   C4A42654   4.407   3.300   7.478
 3094POPC   C1B42655   3.948   3.759   6.263
 3094POPC   C2B42656   4.036   3.797   6.703
 3094POPC   C3B42657   3.819   3.772   7.082
 3094POPC   C4B42658   3.911   3.508   7.400
 3095POPC   NC342659  23.175  22.555   5.560
 3095POPC   PO442660  22.653  22.203   5.385
 3095POPC   GL142661  22.759  22.357   5.804
 3095POPC   GL242662  22.989  22.108   5.829
 3095POPC   C1A42663  22.917  22.431   6.254
 3095POPC   D2A42664  22.694  22.483   6.661
 3095POPC   C3A42665  22.922  22.334   7.034
 3095POPC   C4A42666  23.346  22.432   7.130
 3095POPC   C1B42667  22.845  21.940   6.243
 3095POPC   C2B42668  22.767  21.933   6.709
 3095POPC   C3B42669  22.810  21.732   7.123
 3095POPC   C4B42670  23.000  21.728   7.552
 3096POPC   NC342671  34.734   3.588   5.410
 3096POPC   PO442672  34.357   4.044   5.394
 3096POPC   GL142673  34.510   3.878   5.801
 3096POPC   GL242674  34.441   3.532   5.854
 3096POPC   C1A42675  34.668   3.795   6.235
 3096POPC   D2A42676  34.636   3.491   6.595
 3096POPC   C3A42677  34.667   3.541   7.067
 3096POPC   C4A42678  34.340   3.442   7.375
 3096POPC   C1B42679  34.749   3.287   6.119
 3096POPC   C2B42680  34.879   3.045   6.508
 3096POPC   C3B42681  34.789   3.039   6.962
 3096POPC   C4B42682  34.734   3.105   7.413
 3097POPC   NC342683  10.846  38.705   5.634
 3097POPC   PO442684  10.302  38.541   5.209
 3097POPC   GL142685  10.342  38.543   5.667
 3097POPC   GL242686  10.374  38.189   5.749
 3097POPC   C1A42687  10.410  38.600   6.137
 3097POPC   D2A42688  10.632  38.429   6.513
 3097POPC   C3A42689  10.573  38.524   6.949
 3097POPC   C4A42690  10.675  38.253   7.311
 3097POPC   C1B42691  10.093  38.198   6.086
 3097POPC   C2B42692  10.084  38.371   6.506
 3097POPC   C3B42693  10.154  38.205   6.918
 3097POPC   C4B42694  10.198  38.442   7.285
 3098POPC   NC342695  10.744  39.341   5.173
 3098POPC   PO442696  10.158  39.288   5.492
 3098POPC   GL142697  10.459  39.121   5.831
 3098POPC   GL242698  10.804  39.240   5.719
 3098POPC   C1A42699  10.375  39.100   6.271
 3098POPC   D2A42700  10.294  38.855   6.639
 3098POPC   C3A42701  10.292  39.138   7.015
 3098POPC   C4A42702  10.532  39.192   7.402
 3098POPC   C1B42703  10.892  39.117   6.173
 3098POPC   C2B42704  10.762  39.159   6.633
 3098POPC   C3B42705  10.943  39.130   7.068
 3098POPC   C4B42706  10.988  39.428   7.412
 3099POPC   NC342707  42.177  40.341   5.492
 3099POPC   PO442708  42.015  39.649   5.568
 3099POPC   GL142709  42.324  39.742   5.924
 3099POPC   GL242710  42.652  39.830   5.751
 3099POPC   C1A42711  42.363  39.729   6.378
 3099POPC   D2A42712  42.057  39.894   6.690
 3099POPC   C3A42713  42.199  40.037   7.120
 3099POPC   C4A42714  42.167  39.856   7.553
 3099POPC   C1B42715  42.702  40.090   6.123
 3099POPC   C2B42716  42.577  40.207   6.533
 3099POPC   C3B42717  42.658  40.044   6.941
 3099POPC   C4B42718  42.656  40.014   7.392
 3100POPC   NC342719   7.149  36.060   5.326
 3100POPC   PO442720   7.663  36.371   5.607
 3100POPC   GL142721   7.342  36.239   5.867
 3100POPC   GL242722   7.347  35.899   5.763
 3100POPC   C1A42723   7.388  36.237   6.335
 3100POPC   D2A42724   7.567  36.056   6.729
 3100POPC   C3A42725   7.583  36.232   7.151
 3100POPC   C4A42726   7.565  36.042   7.580
 3100POPC   C1B42727   7.259  35.763   6.149
 3100POPC   C2B42728   7.073  35.822   6.510
 3100POPC   C3B42729   7.126  35.853   6.900
 3100POPC   C4B42730   7.436  35.744   7.185
 3101POPC   NC342731  34.318  40.321   5.493
 3101POPC   PO442732  34.533  41.013   5.399
 3101POPC   GL142733  34.503  40.732   5.765
 3101POPC   GL242734  34.172  40.690   5.860
 3101POPC   C1A42735  34.720  40.623   6.167
 3101POPC   D2A42736  35.021  40.627   6.508
 3101POPC   C3A42737  34.824  40.540   6.909
 3101POPC   C4A42738  34.741  40.638   7.340
 3101POPC   C1B42739  34.233  40.515   6.260
 3101POPC   C2B42740  34.365  40.460   6.681
 3101POPC   C3B42741  34.336  40.412   7.119
 3101POPC   C4B42742  34.233  40.718   7.414
 3102POPC   NC342743  18.811  28.010   5.094
 3102POPC   PO442744  18.939  28.594   5.339
 3102POPC   GL142745  19.081  28.397   5.686
 3102POPC   GL242746  18.833  28.431   5.923
 3102POPC   C1A42747  19.243  28.142   6.036
 3102POPC   D2A42748  19.068  28.206   6.420
 3102POPC   C3A42749  19.311  28.105   6.770
 3102POPC   C4A42750  19.274  28.157   7.208
 3102POPC   C1B42751  18.892  28.676   6.296
 3102POPC   C2B42752  18.914  28.777   6.736
 3102POPC   C3B42753  19.114  28.710   7.125
 3102POPC   C4B42754  19.015  28.483   7.525
 3103POPC   NC342755  39.505  11.719   5.392
 3103POPC   PO442756  38.783  11.718   5.455
 3103POPC   GL142757  39.033  11.925   5.784
 3103POPC   GL242758  39.385  12.080   5.772
 3103POPC   C1A42759  39.164  11.840   6.206
 3103POPC   D2A42760  39.094  12.068   6.584
 3103POPC   C3A42761  39.033  11.875   6.959
 3103POPC   C4A42762  39.243  11.787   7.334
 3103POPC   C1B42763  39.640  12.038   6.171
 3103POPC   C2B42764  39.557  11.841   6.572
 3103POPC   C3B42765  39.537  11.989   6.986
 3103POPC   C4B42766  39.773  12.263   7.238
 3104POPC   NC342767  12.955  40.097   5.320
 3104POPC   PO442768  13.388  39.576   5.537
 3104POPC   GL142769  13.057  39.738   5.779
 3104POPC   GL242770  12.714  39.895   5.713
 3104POPC   C1A42771  13.014  39.902   6.174
 3104POPC   D2A42772  12.945  40.116   6.519
 3104POPC   C3A42773  13.099  39.937   6.874
 3104POPC   C4A42774  13.026  39.867   7.264
 3104POPC   C1B42775  12.511  39.973   6.101
 3104POPC   C2B42776  12.500  39.856   6.539
 3104POPC   C3B42777  12.622  40.023   6.947
 3104POPC   C4B42778  12.386  40.135   7.276
 3105POPC   NC342779  33.138   2.600   5.257
 3105POPC   PO442780  33.020   3.177   5.277
 3105POPC   GL142781  33.210   2.944   5.630
 3105POPC   GL242782  32.907   2.784   5.754
 3105POPC   C1A42783  33.269   2.813   6.100
 3105POPC   D2A42784  33.301   2.574   6.502
 3105POPC   C3A42785  33.185   2.777   6.910
 3105POPC   C4A42786  32.829   3.004   7.056
 3105POPC   C1B42787  32.761   2.914   6.149
 3105POPC   C2B42788  32.808   2.794   6.573
 3105POPC   C3B42789  32.687   2.537   6.949
 3105POPC   C4B42790  32.500   2.765   7.351
 3106POPC   NC342791  35.863  40.837   5.162
 3106POPC   PO442792  36.483  40.821   5.291
 3106POPC   GL142793  36.256  40.738   5.675
 3106POPC   GL242794  36.382  41.020   5.858
 3106POPC   C1A42795  35.965  40.772   6.073
 3106POPC   D2A42796  35.843  40.926   6.519
 3106POPC   C3A42797  36.046  40.860   6.924
 3106POPC   C4A42798  35.933  40.597   7.269
 3106POPC   C1B42799  36.306  41.064   6.322
 3106POPC   C2B42800  36.415  41.178   6.757
 3106POPC   C3B42801  36.406  41.267   7.209
 3106POPC   C4B42802  36.257  41.088   7.642
 3107POPC   NC342803   1.149  31.316   5.158
 3107POPC   PO442804   0.946  31.329   5.798
 3107POPC   GL142805   1.133  31.676   6.001
 3107POPC   GL242806   1.389  31.869   5.860
 3107POPC   C1A42807   1.134  31.691   6.413
 3107POPC   D2A42808   1.269  31.428   6.741
 3107POPC   C3A42809   0.920  31.369   7.024
 3107POPC   C4A42810   0.862  31.200   7.436
 3107POPC   C1B42811   1.631  31.777   6.235
 3107POPC   C2B42812   1.772  31.585   6.626
 3107POPC   C3B42813   1.625  31.654   7.029
 3107POPC   C4B42814   1.661  32.092   7.145
 3108POPC   NC342815  11.163  43.370   5.435
 3108POPC   PO442816  11.786  42.987   5.316
 3108POPC   GL142817  11.586  43.028   5.749
 3108POPC   GL242818  11.226  43.072   5.832
 3108POPC   C1A42819  11.600  43.076   6.215
 3108POPC   D2A42820  11.704  42.934   6.637
 3108POPC   C3A42821  11.683  43.217   6.985
 3108POPC   C4A42822  11.640  43.112   7.416
 3108POPC   C1B42823  11.099  42.875   6.215
 3108POPC   C2B42824  11.178  42.957   6.650
 3108POPC   C3B42825  11.287  42.923   7.099
 3108POPC   C4B42826  11.154  43.055   7.556
 3109POPC   NC342827  22.059  16.412   5.216
 3109POPC   PO442828  21.838  15.824   5.404
 3109POPC   GL142829  21.891  15.758   5.837
 3109POPC   GL242830  22.041  16.088   5.925
 3109POPC   C1A42831  22.090  15.683   6.253
 3109POPC   D2A42832  22.304  15.863   6.615
 3109POPC   C3A42833  22.157  15.710   7.020
 3109POPC   C4A42834  22.074  15.879   7.438
 3109POPC   C1B42835  22.069  16.256   6.380
 3109POPC   C2B42836  22.048  16.269   6.859
 3109POPC   C3B42837  21.976  16.369   7.306
 3109POPC   C4B42838  21.901  16.263   7.756
 3110POPC   NC342839  16.892  23.490   5.536
 3110POPC   PO442840  16.544  24.013   5.454
 3110POPC   GL142841  16.691  23.860   5.867
 3110POPC   GL242842  16.541  23.535   5.930
 3110POPC   C1A42843  16.729  23.824   6.327
 3110POPC   D2A42844  16.480  23.755   6.708
 3110POPC   C3A42845  16.680  23.843   7.076
 3110POPC   C4A42846  17.101  23.862   7.026
 3110POPC   C1B42847  16.818  23.336   6.251
 3110POPC   C2B42848  16.886  23.465   6.679
 3110POPC   C3B42849  16.873  23.359   7.070
 3110POPC   C4B42850  17.211  23.168   7.295
 3111POPC   NC342851  28.563  33.389   5.468
 3111POPC   PO442852  28.239  32.825   5.376
 3111POPC   GL142853  28.465  32.873   5.779
 3111POPC   GL242854  28.441  33.217   5.923
 3111POPC   C1A42855  28.478  32.828   6.245
 3111POPC   D2A42856  28.251  32.870   6.612
 3111POPC   C3A42857  28.445  32.763   6.961
 3111POPC   C4A42858  28.348  33.049   7.247
 3111POPC   C1B42859  28.620  33.340   6.319
 3111POPC   C2B42860  28.548  33.269   6.764
 3111POPC   C3B42861  28.610  33.492   7.160
 3111POPC   C4B42862  28.700  33.266   7.568
 3112POPC   NC342863   0.717  30.524   5.446
 3112POPC   PO442864   0.180  30.874   5.343
 3112POPC   GL142865   0.190  30.749   5.770
 3112POPC   GL242866   0.273  30.406   5.860
 3112POPC   C1A42867   0.274  30.758   6.224
 3112POPC   D2A42868   0.254  30.480   6.601
 3112POPC   C3A42869   0.231  30.696   7.005
 3112POPC   C4A42870   0.585  30.948   7.113
 3112POPC   C1B42871   0.689  30.480   6.118
 3112POPC   C2B42872   0.894  30.406   6.534
 3112POPC   C3B42873   0.744  30.508   6.934
 3112POPC   C4B42874   0.552  30.405   7.327
 3113POPC   NC342875  27.328  33.681   5.157
 3113POPC   PO442876  27.942  33.508   5.405
 3113POPC   GL142877  27.740  33.733   5.745
 3113POPC   GL242878  27.397  33.716   5.768
 3113POPC   C1A42879  27.771  33.898   6.168
 3113POPC   D2A42880  27.995  33.917   6.555
 3113POPC   C3A42881  27.795  33.857   6.949
 3113POPC   C4A42882  27.747  34.015   7.386
 3113POPC   C1B42883  27.508  33.454   6.161
 3113POPC   C2B42884  27.519  33.514   6.610
 3113POPC   C3B42885  27.284  33.681   6.968
 3113POPC   C4B42886  27.401  33.654   7.380
 3114POPC   NC342887  27.389  42.178   5.363
 3114POPC   PO442888  27.995  42.009   5.471
 3114POPC   GL142889  27.824  42.346   5.771
 3114POPC   GL242890  27.455  42.309   5.846
 3114POPC   C1A42891  27.792  42.423   6.236
 3114POPC   D2A42892  27.970  42.322   6.662
 3114POPC   C3A42893  27.660  42.252   7.031
 3114POPC   C4A42894  27.359  41.929   7.143
 3114POPC   C1B42895  27.287  42.632   6.087
 3114POPC   C2B42896  27.288  42.712   6.510
 3114POPC   C3B42897  27.204  42.555   6.893
 3114POPC   C4B42898  27.378  42.649   7.230
 3115POPC   NC342899  23.028   0.710   5.394
 3115POPC   PO442900  22.668   0.151   5.096
 3115POPC   GL142901  22.736   0.152   5.633
 3115POPC   GL242902  23.026   0.241   5.818
 3115POPC   C1A42903  22.668   0.264   6.154
 3115POPC   D2A42904  22.800   0.562   6.540
 3115POPC   C3A42905  22.781   0.395   6.980
 3115POPC   C4A42906  22.493   0.052   7.127
 3115POPC   C1B42907  23.133   0.546   6.129
 3115POPC   C2B42908  23.287   0.762   6.508
 3115POPC   C3B42909  23.206   0.751   6.924
 3115POPC   C4B42910  23.159   0.554   7.300
 3116POPC   NC342911  18.698  42.604   5.303
 3116POPC   PO442912  18.223  42.205   5.518
 3116POPC   GL142913  18.188  42.491   5.819
 3116POPC   GL242914  17.822  42.457   5.768
 3116POPC   C1A42915  18.432  42.376   6.203
 3116POPC   D2A42916  18.608  42.218   6.600
 3116POPC   C3A42917  18.531  42.457   6.997
 3116POPC   C4A42918  18.454  42.375   7.428
 3116POPC   C1B42919  17.958  42.160   6.130
 3116POPC   C2B42920  18.018  42.373   6.524
 3116POPC   C3B42921  18.015  42.265   6.939
 3116POPC   C4B42922  18.022  42.128   7.354
 3117POPC   NC342923  26.419  14.663   5.422
 3117POPC   PO442924  25.966  14.069   5.511
 3117POPC   GL142925  26.052  14.303   5.872
 3117POPC   GL242926  26.289  14.544   5.891
 3117POPC   C1A42927  26.148  14.148   6.277
 3117POPC   D2A42928  25.954  14.109   6.680
 3117POPC   C3A42929  26.149  14.200   7.059
 3117POPC   C4A42930  26.135  13.996   7.411
 3117POPC   C1B42931  26.053  14.640   6.266
 3117POPC   C2B42932  25.885  14.639   6.686
 3117POPC   C3B42933  25.931  14.792   7.107
 3117POPC   C4B42934  25.962  14.536   7.494
 3118POPC   NC342935  17.474  34.881   5.368
 3118POPC   PO442936  17.645  34.194   5.354
 3118POPC   GL142937  17.542  34.476   5.741
 3118POPC   GL242938  17.590  34.844   5.860
 3118POPC   C1A42939  17.437  34.392   6.179
 3118POPC   D2A42940  17.725  34.203   6.473
 3118POPC   C3A42941  17.613  34.215   6.916
 3118POPC   C4A42942  17.400  34.474   7.226
 3118POPC   C1B42943  17.605  34.891   6.304
 3118POPC   C2B42944  17.525  34.650   6.672
 3118POPC   C3B42945  17.815  34.678   7.022
 3118POPC   C4B42946  17.767  34.890   7.412
 3119POPC   NC342947  42.408  36.401   5.484
 3119POPC   PO442948  42.091  35.830   5.370
 3119POPC   GL142949  42.124  36.054   5.786
 3119POPC   GL242950  42.032  36.421   5.809
 3119POPC   C1A42951  42.314  35.994   6.209
 3119POPC   D2A42952  42.549  36.233   6.553
 3119POPC   C3A42953  42.661  36.059   6.977
 3119POPC   C4A42954  42.473  35.737   7.211
 3119POPC   C1B42955  42.169  36.494   6.210
 3119POPC   C2B42956  42.020  36.262   6.557
 3119POPC   C3B42957  42.115  36.082   6.956
 3119POPC   C4B42958  42.054  36.282   7.347
 3120POPC   NC342959   8.898  20.956   5.420
 3120POPC   PO442960   8.862  20.316   5.514
 3120POPC   GL142961   8.950  20.636   5.843
 3120POPC   GL242962   9.301  20.770   5.839
 3120POPC   C1A42963   8.857  20.507   6.262
 3120POPC   D2A42964   9.083  20.250   6.585
 3120POPC   C3A42965   8.997  20.417   7.011
 3120POPC   C4A42966   8.708  20.736   7.210
 3120POPC   C1B42967   9.353  20.599   6.281
 3120POPC   C2B42968   9.115  20.742   6.650
 3120POPC   C3B42969   9.179  20.909   7.041
 3120POPC   C4B42970   8.997  21.262   7.222
 3121POPC   NC342971  33.217  12.533   5.473
 3121POPC   PO442972  33.899  12.246   5.373
 3121POPC   GL142973  33.607  12.139   5.717
 3121POPC   GL242974  33.452  11.804   5.748
 3121POPC   C1A42975  33.690  12.074   6.179
 3121POPC   D2A42976  33.808  12.228   6.605
 3121POPC   C3A42977  33.852  12.033   7.003
 3121POPC   C4A42978  33.846  12.238   7.415
 3121POPC   C1B42979  33.399  11.658   6.199
 3121POPC   C2B42980  33.610  11.684   6.620
 3121POPC   C3B42981  33.377  11.723   6.990
 3121POPC   C4B42982  33.413  12.056   7.251
 3122POPC   NC342983  29.546   9.712   5.519
 3122POPC   PO442984  30.080  10.103   5.370
 3122POPC   GL142985  29.957   9.905   5.755
 3122POPC   GL242986  29.750  10.194   5.781
 3122POPC   C1A42987  29.986   9.615   6.162
 3122POPC   D2A42988  29.814   9.421   6.537
 3122POPC   C3A42989  29.924   9.573   6.919
 3122POPC   C4A42990  30.240   9.469   7.211
 3122POPC   C1B42991  29.794  10.077   6.205
 3122POPC   C2B42992  29.822   9.990   6.610
 3122POPC   C3B42993  29.742  10.092   7.024
 3122POPC   C4B42994  29.930   9.852   7.355
 3123POPC   NC342995   6.422  22.188   5.455
 3123POPC   PO442996   7.070  22.421   5.410
 3123POPC   GL142997   6.739  22.372   5.804
 3123POPC   GL242998   6.400  22.185   5.946
 3123POPC   C1A42999   6.757  22.301   6.268
 3123POPC   D2A43000   6.855  22.507   6.645
 3123POPC   C3A43001   6.692  22.318   6.969
 3123POPC   C4A43002   6.487  22.453   7.320
 3123POPC   C1B43003   6.363  22.009   6.362
 3123POPC   C2B43004   6.216  21.857   6.728
 3123POPC   C3B43005   6.396  21.740   7.072
 3123POPC   C4B43006   6.655  21.958   7.317
 3124POPC   NC343007  35.657   7.541   5.367
 3124POPC   PO443008  35.008   7.216   5.539
 3124POPC   GL143009  35.260   7.235   5.954
 3124POPC   GL243010  35.377   7.565   6.087
 3124POPC   C1A43011  35.538   7.147   6.337
 3124POPC   D2A43012  35.623   7.415   6.687
 3124POPC   C3A43013  35.541   7.161   7.020
 3124POPC   C4A43014  35.284   7.166   7.375
 3124POPC   C1B43015  35.124   7.846   6.352
 3124POPC   C2B43016  35.065   7.772   6.768
 3124POPC   C3B43017  35.356   7.743   7.098
 3124POPC   C4B43018  35.269   7.640   7.530
 3125POPC   NC343019  21.532  10.793   5.697
 3125POPC   PO443020  21.267  11.329   5.294
 3125POPC   GL143021  21.418  11.401   5.757
 3125POPC   GL243022  21.808  11.511   5.753
 3125POPC   C1A43023  21.263  11.283   6.211
 3125POPC   D2A43024  21.232  11.478   6.653
 3125POPC   C3A43025  21.037  11.469   7.067
 3125POPC   C4A43026  21.314  11.448   7.422
 3125POPC   C1B43027  21.859  11.386   6.167
 3125POPC   C2B43028  21.689  11.228   6.531
 3125POPC   C3B43029  21.703  11.462   6.877
 3125POPC   C4B43030  21.788  11.394   7.267
 3126POPC   NC343031  11.537  37.785   5.230
 3126POPC   PO443032  12.217  37.977   5.296
 3126POPC   GL143033  12.131  37.691   5.713
 3126POPC   GL243034  11.866  37.408   5.752
 3126POPC   C1A43035  12.177  37.617   6.170
 3126POPC   D2A43036  12.264  37.809   6.555
 3126POPC   C3A43037  12.265  37.610   6.954
 3126POPC   C4A43038  12.141  37.701   7.407
 3126POPC   C1B43039  11.780  37.297   6.209
 3126POPC   C2B43040  11.880  37.371   6.677
 3126POPC   C3B43041  11.872  37.338   7.155
 3126POPC   C4B43042  11.758  37.411   7.612
 3127POPC   NC343043  43.168  25.800   5.500
 3127POPC   PO443044  42.804  26.123   5.099
 3127POPC   GL143045  42.754  26.074   5.598
 3127POPC   GL243046  43.015  26.196   5.787
 3127POPC   C1A43047  42.748  25.893   6.078
 3127POPC   D2A43048  42.936  25.815   6.498
 3127POPC   C3A43049  42.859  26.007   6.900
 3127POPC   C4A43050  42.982  25.881   7.337
 3127POPC   C1B43051  43.256  26.097   6.161
 3127POPC   C2B43052  43.423  25.978   6.565
 3127POPC   C3B43053  43.352  25.865   6.973
 3127POPC   C4B43054  43.438  26.149   7.294
 3128POPC   NC343055   1.682   1.760   5.610
 3128POPC   PO443056   1.043   1.809   5.418
 3128POPC   GL143057   1.232   1.962   5.766
 3128POPC   GL243058   1.341   2.300   5.688
 3128POPC   C1A43059   1.160   1.839   6.178
 3128POPC   D2A43060   0.909   1.928   6.529
 3128POPC   C3A43061   1.157   1.960   6.880
 3128POPC   C4A43062   1.005   2.194   7.198
 3128POPC   C1B43063   1.512   2.235   6.110
 3128POPC   C2B43064   1.543   2.008   6.490
 3128POPC   C3B43065   1.630   2.126   6.889
 3128POPC   C4B43066   1.556   1.967   7.290
 3129POPC   NC343067  19.573  19.462   5.623
 3129POPC   PO443068  20.128  19.494   5.593
 3129POPC   GL143069  19.975  19.719   5.971
 3129POPC   GL243070  19.667  19.896   5.915
 3129POPC   C1A43071  19.935  19.921   6.399
 3129POPC   D2A43072  19.970  20.074   6.825
 3129POPC   C3A43073  20.013  19.749   7.121
 3129POPC   C4A43074  19.842  19.734   7.522
 3129POPC   C1B43075  19.503  19.677   6.297
 3129POPC   C2B43076  19.603  19.703   6.766
 3129POPC   C3B43077  19.522  19.923   7.162
 3129POPC   C4B43078  19.330  19.797   7.561
 3130POPC   NC343079  18.916   0.992   5.057
 3130POPC   PO443080  18.593   1.260   5.584
 3130POPC   GL143081  18.744   1.030   5.936
 3130POPC   GL243082  18.902   1.364   6.005
 3130POPC   C1A43083  18.872   1.076   6.381
 3130POPC   D2A43084  18.814   1.441   6.575
 3130POPC   C3A43085  19.021   1.308   6.903
 3130POPC   C4A43086  19.007   1.034   7.232
 3130POPC   C1B43087  19.276   1.419   6.273
 3130POPC   C2B43088  19.480   1.478   6.662
 3130POPC   C3B43089  19.299   1.716   6.987
 3130POPC   C4B43090  19.051   1.589   7.328
 3131POPC   NC343091   8.223   0.931   5.421
 3131POPC   PO443092   7.798   1.465   5.581
 3131POPC   GL143093   8.190   1.321   5.802
 3131POPC   GL243094   8.159   0.993   5.924
 3131POPC   C1A43095   8.434   1.331   6.235
 3131POPC   D2A43096   8.595   1.269   6.683
 3131POPC   C3A43097   8.307   1.449   7.000
 3131POPC   C4A43098   7.905   1.384   7.207
 3131POPC   C1B43099   8.238   0.762   6.309
 3131POPC   C2B43100   8.154   0.658   6.762
 3131POPC   C3B43101   8.369   0.922   7.066
 3131POPC   C4B43102   8.284   1.106   7.472
 3132POPC   NC343103  33.103  36.589   5.399
 3132POPC   PO443104  32.968  35.952   5.115
 3132POPC   GL143105  33.121  36.006   5.643
 3132POPC   GL243106  33.164  36.314   5.825
 3132POPC   C1A43107  32.868  35.977   6.094
 3132POPC   D2A43108  32.939  36.063   6.532
 3132POPC   C3A43109  32.772  35.970   6.921
 3132POPC   C4A43110  33.004  36.181   7.186
 3132POPC   C1B43111  32.970  36.473   6.217
 3132POPC   C2B43112  33.043  36.602   6.635
 3132POPC   C3B43113  33.019  36.672   7.071
 3132POPC   C4B43114  33.290  36.509   7.440
 3133POPC   NC343115  34.502  19.128   5.195
 3133POPC   PO443116  34.981  18.669   5.255
 3133POPC   GL143117  34.815  18.980   5.607
 3133POPC   GL243118  34.446  18.983   5.721
 3133POPC   C1A43119  34.874  19.065   6.062
 3133POPC   D2A43120  34.805  18.842   6.472
 3133POPC   C3A43121  34.673  19.114   6.822
 3133POPC   C4A43122  34.789  19.115   7.264
 3133POPC   C1B43123  34.346  19.273   6.075
 3133POPC   C2B43124  34.278  19.381   6.535
 3133POPC   C3B43125  34.154  19.184   6.958
 3133POPC   C4B43126  34.270  19.189   7.407
 3134POPC   NC343127  35.583  21.490   5.404
 3134POPC   PO443128  35.061  21.081   5.520
 3134POPC   GL143129  35.238  21.207   5.889
 3134POPC   GL243130  35.215  21.532   5.817
 3134POPC   C1A43131  35.420  21.054   6.302
 3134POPC   D2A43132  35.618  21.224   6.711
 3134POPC   C3A43133  35.407  21.185   7.135
 3134POPC   C4A43134  35.465  20.942   7.531
 3134POPC   C1B43135  35.365  21.570   6.220
 3134POPC   C2B43136  35.154  21.396   6.562
 3134POPC   C3B43137  35.087  21.549   6.925
 3134POPC   C4B43138  35.173  21.669   7.293
 3135POPC   NC343139  41.576  17.141   5.234
 3135POPC   PO443140  41.203  17.663   5.241
 3135POPC   GL143141  41.476  17.592   5.632
 3135POPC   GL243142  41.379  17.248   5.721
 3135POPC   C1A43143  41.698  17.639   6.079
 3135POPC   D2A43144  41.530  17.617   6.537
 3135POPC   C3A43145  41.742  17.389   6.910
 3135POPC   C4A43146  41.808  17.605   7.320
 3135POPC   C1B43147  41.431  17.217   6.189
 3135POPC   C2B43148  41.158  17.264   6.522
 3135POPC   C3B43149  41.232  17.415   6.918
 3135POPC   C4B43150  41.391  17.267   7.290
 3136POPC   NC343151  12.412  39.000   5.545
 3136POPC   PO443152  12.790  39.537   5.327
 3136POPC   GL143153  12.686  39.378   5.748
 3136POPC   GL243154  12.830  39.053   5.856
 3136POPC   C1A43155  12.712  39.488   6.172
 3136POPC   D2A43156  12.954  39.570   6.558
 3136POPC   C3A43157  12.836  39.444   6.992
 3136POPC   C4A43158  13.076  39.109   7.239
 3136POPC   C1B43159  12.603  38.947   6.239
 3136POPC   C2B43160  12.451  38.831   6.672
 3136POPC   C3B43161  12.608  38.876   7.122
 3136POPC   C4B43162  12.476  39.086   7.517
 3137POPC   NC343163  13.908   1.837   5.402
 3137POPC   PO443164  13.252   1.884   5.469
 3137POPC   GL143165  13.535   1.926   5.804
 3137POPC   GL243166  13.779   2.191   5.779
 3137POPC   C1A43167  13.519   2.014   6.227
 3137POPC   D2A43168  13.494   2.204   6.623
 3137POPC   C3A43169  13.428   1.902   6.899
 3137POPC   C4A43170  13.594   1.758   7.232
 3137POPC   C1B43171  14.032   2.192   6.157
 3137POPC   C2B43172  14.062   2.266   6.595
 3137POPC   C3B43173  13.894   2.130   6.982
 3137POPC   C4B43174  13.875   2.150   7.420
 3138POPC   NC343175  41.731  33.526   5.421
 3138POPC   PO443176  41.510  32.876   5.371
 3138POPC   GL143177  41.594  33.039   5.764
 3138POPC   GL243178  41.960  33.015   5.817
 3138POPC   C1A43179  41.318  33.163   6.121
 3138POPC   D2A43180  41.250  33.226   6.574
 3138POPC   C3A43181  41.437  33.025   6.960
 3138POPC   C4A43182  41.572  33.105   7.401
 3138POPC   C1B43183  41.786  32.961   6.243
 3138POPC   C2B43184  41.800  33.202   6.630
 3138POPC   C3B43185  41.954  33.186   7.075
 3138POPC   C4B43186  42.069  32.962   7.499
 3139POPC   NC343187  39.065  16.017   5.461
 3139POPC   PO443188  39.555  15.640   5.119
 3139POPC   GL143189  39.592  16.050   5.577
 3139POPC   GL243190  39.307  16.180   5.859
 3139POPC   C1A43191  39.691  16.018   6.114
 3139POPC   D2A43192  39.345  15.907   6.461
 3139POPC   C3A43193  39.440  15.718   6.903
 3139POPC   C4A43194  39.516  15.890   7.330
 3139POPC   C1B43195  38.976  16.231   6.217
 3139POPC   C2B43196  38.993  16.353   6.661
 3139POPC   C3B43197  39.161  16.140   7.020
 3139POPC   C4B43198  39.040  16.152   7.496
 3140POPC   NC343199   4.526  41.119   5.394
 3140POPC   PO443200   4.231  41.725   5.495
 3140POPC   GL143201   4.350  41.565   5.857
 3140POPC   GL243202   4.237  41.235   5.886
 3140POPC   C1A43203   4.469  41.758   6.231
 3140POPC   D2A43204   4.584  41.639   6.632
 3140POPC   C3A43205   4.443  41.883   6.916
 3140POPC   C4A43206   4.602  41.816   7.262
 3140POPC   C1B43207   4.097  41.413   6.292
 3140POPC   C2B43208   4.150  41.376   6.720
 3140POPC   C3B43209   4.416  41.354   7.049
 3140POPC   C4B43210   4.245  41.492   7.420
 3141POPC   NC343211  18.982  17.076   5.484
 3141POPC   PO443212  18.835  17.730   5.554
 3141POPC   GL143213  18.949  17.405   5.883
 3141POPC   GL243214  19.236  17.218   5.922
 3141POPC   C1A43215  18.796  17.033   6.138
 3141POPC   D2A43216  18.862  16.902   6.587
 3141POPC   C3A43217  18.815  17.164   6.978
 3141POPC   C4A43218  18.964  17.429   7.350
 3141POPC   C1B43219  19.095  17.336   6.399
 3141POPC   C2B43220  19.016  17.609   6.776
 3141POPC   C3B43221  19.239  17.801   7.164
 3141POPC   C4B43222  19.472  17.643   7.554
 3142POPC   NC343223   5.186  39.566   5.262
 3142POPC   PO443224   4.856  39.001   5.442
 3142POPC   GL143225   5.161  39.121   5.753
 3142POPC   GL243226   5.359  39.433   5.732
 3142POPC   C1A43227   5.082  39.145   6.185
 3142POPC   D2A43228   4.907  39.052   6.573
 3142POPC   C3A43229   4.819  39.364   6.894
 3142POPC   C4A43230   5.030  39.257   7.255
 3142POPC   C1B43231   5.556  39.302   6.119
 3142POPC   C2B43232   5.430  39.392   6.531
 3142POPC   C3B43233   5.621  39.457   6.917
 3142POPC   C4B43234   5.527  39.338   7.318
 3143POPC   NC343235  14.712  41.990   5.721
 3143POPC   PO443236  14.526  41.449   5.274
 3143POPC   GL143237  14.442  41.343   5.720
 3143POPC   GL243238  14.674  41.495   5.974
 3143POPC   C1A43239  14.211  41.362   6.123
 3143POPC   D2A43240  14.353  41.349   6.556
 3143POPC   C3A43241  14.212  41.530   6.948
 3143POPC   C4A43242  14.341  41.542   7.389
 3143POPC   C1B43243  14.539  41.776   6.324
 3143POPC   C2B43244  14.598  41.788   6.756
 3143POPC   C3B43245  14.477  41.965   7.131
 3143POPC   C4B43246  14.561  41.985   7.599
 3144POPC   NC343247  39.920   9.303   5.396
 3144POPC   PO443248  40.203   8.721   5.339
 3144POPC   GL143249  40.143   8.896   5.766
 3144POPC   GL243250  40.210   9.247   5.828
 3144POPC   C1A43251  39.789   8.963   6.100
 3144POPC   D2A43252  39.640   8.822   6.517
 3144POPC   C3A43253  39.698   8.968   6.944
 3144POPC   C4A43254  39.772   8.764   7.324
 3144POPC   C1B43255  40.257   9.051   6.246
 3144POPC   C2B43256  40.058   9.170   6.630
 3144POPC   C3B43257  40.158   9.157   7.096
 3144POPC   C4B43258  40.321   8.825   7.325
 3145POPC   NC343259  21.053  10.619   5.152
 3145POPC   PO443260  21.544  10.342   5.488
 3145POPC   GL143261  21.459  10.189   5.903
 3145POPC   GL243262  21.236  10.425   5.994
 3145POPC   C1A43263  21.380  10.173   6.399
 3145POPC   D2A43264  21.336  10.440   6.768
 3145POPC   C3A43265  21.164  10.543   7.179
 3145POPC   C4A43266  21.325  10.436   7.606
 3145POPC   C1B43267  21.348  10.722   6.320
 3145POPC   C2B43268  21.246  10.961   6.678
 3145POPC   C3B43269  21.390  11.089   7.066
 3145POPC   C4B43270  21.310  10.937   7.483
 3146POPC   NC343271  42.628  44.772   5.429
 3146POPC   PO443272  42.017  44.488   5.527
 3146POPC   GL143273  42.283  44.715   5.802
 3146POPC   GL243274  42.229   0.083   5.776
 3146POPC   C1A43275  42.479  44.612   6.195
 3146POPC   D2A43276  42.662  44.572   6.600
 3146POPC   C3A43277  42.524  44.319   6.943
 3146POPC   C4A43278  42.148  44.185   7.177
 3146POPC   C1B43279  41.993  44.889   6.169
 3146POPC   C2B43280  42.122  44.692   6.577
 3146POPC   C3B43281  42.339  44.803   6.950
 3146POPC   C4B43282  42.192   0.017   7.272
 3147POPC   NC343283   3.803  41.926   5.406
 3147POPC   PO443284   3.387  41.326   5.236
 3147POPC   GL143285   3.472  41.591   5.603
 3147POPC   GL243286   3.815  41.543   5.769
 3147POPC   C1A43287   3.397  41.616   6.050
 3147POPC   D2A43288   3.593  41.571   6.431
 3147POPC   C3A43289   3.269  41.522   6.710
 3147POPC   C4A43290   3.352  41.648   7.102
 3147POPC   C1B43291   3.715  41.191   6.069
 3147POPC   C2B43292   3.718  41.079   6.530
 3147POPC   C3B43293   3.697  41.307   6.921
 3147POPC   C4B43294   3.722  41.435   7.375
 3148POPC   NC343295  19.738  34.083   5.297
 3148POPC   PO443296  19.563  33.437   5.313
 3148POPC   GL143297  19.614  33.702   5.668
 3148POPC   GL243298  19.971  33.656   5.777
 3148POPC   C1A43299  19.624  33.777   6.132
 3148POPC   D2A43300  19.582  34.003   6.525
 3148POPC   C3A43301  19.644  33.764   6.933
 3148POPC   C4A43302  19.845  33.939   7.330
 3148POPC   C1B43303  20.144  33.410   6.173
 3148POPC   C2B43304  20.200  33.362   6.659
 3148POPC   C3B43305  20.131  33.565   7.106
 3148POPC   C4B43306  20.122  33.464   7.610
 3149POPC   NC343307  43.751  43.481   5.037
 3149POPC   PO443308  44.096  42.963   5.417
 3149POPC   GL143309  44.148  43.075   5.822
 3149POPC   GL243310  44.284  43.409   5.777
 3149POPC   C1A43311  43.782  43.078   6.128
 3149POPC   D2A43312  43.672  43.242   6.524
 3149POPC   C3A43313  43.698  42.910   6.836
 3149POPC   C4A43314  43.587  43.055   7.240
 3149POPC   C1B43315  44.153  43.414   6.213
 3149POPC   C2B43316  44.173  43.327   6.625
 3149POPC   C3B43317  43.944  43.359   6.970
 3149POPC   C4B43318  44.137  43.088   7.266
 3150POPC   NC343319  12.022  33.255   5.345
 3150POPC   PO443320  12.450  32.848   5.574
 3150POPC   GL143321  12.251  33.139   5.841
 3150POPC   GL243322  12.024  32.882   5.985
 3150POPC   C1A43323  12.177  33.267   6.281
 3150POPC   D2A43324  11.852  33.050   6.505
 3150POPC   C3A43325  11.863  33.067   6.950
 3150POPC   C4A43326  12.144  33.295   7.160
 3150POPC   C1B43327  12.406  32.806   6.228
 3150POPC   C2B43328  12.608  32.954   6.580
 3150POPC   C3B43329  12.379  32.903   6.943
 3150POPC   C4B43330  12.328  32.638   7.267
 3151POPC   NC343331  30.784  44.963   5.046
 3151POPC   PO443332  30.613  44.377   5.392
 3151POPC   GL143333  30.591  44.546   5.809
 3151POPC   GL243334  30.944  44.548   5.852
 3151POPC   C1A43335  30.623  44.395   6.229
 3151POPC   D2A43336  30.777  44.624   6.566
 3151POPC   C3A43337  30.770  44.495   6.944
 3151POPC   C4A43338  30.455  44.611   7.214
 3151POPC   C1B43339  30.927  44.907   6.166
 3151POPC   C2B43340  31.115  44.993   6.585
 3151POPC   C3B43341  30.978  44.986   7.009
 3151POPC   C4B43342  30.909  44.717   7.392
 3152POPC   NC343343  24.144  11.361   5.484
 3152POPC   PO443344  24.721  11.555   5.567
 3152POPC   GL143345  24.535  11.466   5.949
 3152POPC   GL243346  24.379  11.191   5.878
 3152POPC   C1A43347  24.269  11.344   6.333
 3152POPC   D2A43348  24.380  11.380   6.722
 3152POPC   C3A43349  24.474  11.058   7.012
 3152POPC   C4A43350  24.418  11.073   7.472
 3152POPC   C1B43351  24.640  11.019   6.193
 3152POPC   C2B43352  24.793  11.071   6.601
 3152POPC   C3B43353  25.004  11.115   7.002
 3152POPC   C4B43354  24.920  10.919   7.398
 3153POPC   NC343355  15.125  13.253   5.492
 3153POPC   PO443356  15.404  12.547   5.449
 3153POPC   GL143357  15.247  12.765   5.795
 3153POPC   GL243358  15.453  13.056   5.909
 3153POPC   C1A43359  15.262  12.705   6.244
 3153POPC   D2A43360  15.256  12.950   6.621
 3153POPC   C3A43361  15.263  12.736   7.002
 3153POPC   C4A43362  14.904  12.807   7.226
 3153POPC   C1B43363  15.057  13.165   6.139
 3153POPC   C2B43364  14.715  13.191   6.447
 3153POPC   C3B43365  14.790  13.195   6.904
 3153POPC   C4B43366  15.239  13.216   7.093
 3154POPC   NC343367  31.848  12.501   5.552
 3154POPC   PO443368  31.983  11.771   5.514
 3154POPC   GL143369  32.053  12.116   5.793
 3154POPC   GL243370  32.386  12.251   5.860
 3154POPC   C1A43371  32.014  12.361   6.187
 3154POPC   D2A43372  32.343  12.355   6.494
 3154POPC   C3A43373  32.235  12.226   6.894
 3154POPC   C4A43374  32.070  12.339   7.302
 3154POPC   C1B43375  32.311  11.874   6.152
 3154POPC   C2B43376  32.397  11.790   6.564
 3154POPC   C3B43377  32.348  11.670   6.981
 3154POPC   C4B43378  32.419  11.956   7.282
 3155POPC   NC343379  30.396  35.864   5.404
 3155POPC   PO443380  29.806  36.102   5.094
 3155POPC   GL143381  30.013  36.145   5.562
 3155POPC   GL243382  29.866  36.373   5.804
 3155POPC   C1A43383  30.145  35.997   5.990
 3155POPC   D2A43384  30.071  36.103   6.403
 3155POPC   C3A43385  30.194  35.817   6.731
 3155POPC   C4A43386  30.027  35.870   7.147
 3155POPC   C1B43387  29.670  36.636   6.151
 3155POPC   C2B43388  29.569  36.826   6.561
 3155POPC   C3B43389  29.676  36.724   7.003
 3155POPC   C4B43390  29.944  36.452   7.278
 3156POPC   NC343391  17.317  38.893   5.600
 3156POPC   PO443392  17.788  39.294   5.305
 3156POPC   GL143393  17.629  39.327   5.751
 3156POPC   GL243394  17.311  39.492   5.742
 3156POPC   C1A43395  17.616  39.271   6.212
 3156POPC   D2A43396  17.468  39.076   6.596
 3156POPC   C3A43397  17.565  39.097   7.030
 3156POPC   C4A43398  17.934  39.202   7.257
 3156POPC   C1B43399  17.240  39.627   6.167
 3156POPC   C2B43400  17.399  39.605   6.573
 3156POPC   C3B43401  17.303  39.532   7.006
 3156POPC   C4B43402  17.252  39.731   7.388
 3157POPC   NC343403  22.546  13.730   5.598
 3157POPC   PO443404  21.971  13.574   5.376
 3157POPC   GL143405  22.015  13.818   5.762
 3157POPC   GL243406  22.273  13.715   6.019
 3157POPC   C1A43407  21.816  13.835   6.176
 3157POPC   D2A43408  22.064  13.616   6.502
 3157POPC   C3A43409  22.258  13.856   6.829
 3157POPC   C4A43410  22.007  13.817   7.185
 3157POPC   C1B43411  22.567  13.658   6.348
 3157POPC   C2B43412  22.499  13.393   6.715
 3157POPC   C3B43413  22.337  13.416   7.149
 3157POPC   C4B43414  22.470  13.364   7.602
 3158POPC   NC343415  13.342   3.083   5.583
 3158POPC   PO443416  13.976   3.063   5.644
 3158POPC   GL143417  13.750   3.343   5.946
 3158POPC   GL243418  13.420   3.504   5.858
 3158POPC   C1A43419  13.703   3.482   6.390
 3158POPC   D2A43420  13.403   3.703   6.670
 3158POPC   C3A43421  13.591   3.590   7.052
 3158POPC   C4A43422  14.020   3.438   7.184
 3158POPC   C1B43423  13.243   3.363   6.257
 3158POPC   C2B43424  13.371   3.187   6.686
 3158POPC   C3B43425  13.177   3.260   7.113
 3158POPC   C4B43426  13.207   3.547   7.460
 3159POPC   NC343427  25.776  33.123   5.474
 3159POPC   PO443428  26.411  32.927   5.468
 3159POPC   GL143429  26.387  33.020   5.904
 3159POPC   GL243430  26.094  33.196   5.866
 3159POPC   C1A43431  26.132  32.882   6.278
 3159POPC   D2A43432  25.969  32.641   6.634
 3159POPC   C3A43433  26.140  32.825   6.987
 3159POPC   C4A43434  26.372  32.688   7.314
 3159POPC   C1B43435  25.820  33.279   6.227
 3159POPC   C2B43436  25.756  33.104   6.658
 3159POPC   C3B43437  25.690  33.050   7.109
 3159POPC   C4B43438  25.632  33.305   7.479
 3160POPC   NC343439  33.143  37.256   5.324
 3160POPC   PO443440  32.714  36.811   5.129
 3160POPC   GL143441  32.818  37.004   5.612
 3160POPC   GL243442  32.521  37.032   5.786
 3160POPC   C1A43443  32.946  36.992   6.083
 3160POPC   D2A43444  33.113  37.117   6.492
 3160POPC   C3A43445  33.091  37.177   6.937
 3160POPC   C4A43446  33.376  36.977   7.265
 3160POPC   C1B43447  32.484  36.824   6.229
 3160POPC   C2B43448  32.630  36.934   6.667
 3160POPC   C3B43449  32.616  37.091   7.106
 3160POPC   C4B43450  32.534  37.167   7.561
 3161POPC   NC343451   5.658   8.805   5.498
 3161POPC   PO443452   6.043   9.326   5.584
 3161POPC   GL143453   6.082   9.088   5.929
 3161POPC   GL243454   5.727   9.106   5.992
 3161POPC   C1A43455   6.072   9.159   6.374
 3161POPC   D2A43456   5.701   9.108   6.597
 3161POPC   C3A43457   5.789   9.254   6.975
 3161POPC   C4A43458   6.014   9.205   7.328
 3161POPC   C1B43459   5.797   8.744   6.229
 3161POPC   C2B43460   5.581   8.590   6.591
 3161POPC   C3B43461   5.778   8.693   6.982
 3161POPC   C4B43462   5.642   8.871   7.338
 3162POPC   NC343463  21.002  30.733   5.321
 3162POPC   PO443464  21.523  30.256   5.395
 3162POPC   GL143465  21.260  30.512   5.710
 3162POPC   GL243466  21.525  30.750   5.885
 3162POPC   C1A43467  21.085  30.724   6.099
 3162POPC   D2A43468  21.296  30.831   6.489
 3162POPC   C3A43469  21.127  30.898   6.898
 3162POPC   C4A43470  21.102  30.603   7.224
 3162POPC   C1B43471  21.484  30.366   6.159
 3162POPC   C2B43472  21.395  30.289   6.599
 3162POPC   C3B43473  21.554  30.568   6.928
 3162POPC   C4B43474  21.842  30.543   7.284
 3163POPC   NC343475   5.657  14.039   5.246
 3163POPC   PO443476   5.771  14.584   5.601
 3163POPC   GL143477   5.805  14.262   5.893
 3163POPC   GL243478   5.958  14.561   6.067
 3163POPC   C1A43479   5.739  14.182   6.340
 3163POPC   D2A43480   5.833  14.553   6.563
 3163POPC   C3A43481   5.798  14.494   6.971
 3163POPC   C4A43482   5.491  14.601   7.261
 3163POPC   C1B43483   6.231  14.236   6.214
 3163POPC   C2B43484   6.298  14.105   6.604
 3163POPC   C3B43485   6.240  14.238   7.009
 3163POPC   C4B43486   5.906  14.156   7.347
 3164POPC   NC343487  18.139  30.203   5.482
 3164POPC   PO443488  18.410  30.819   5.293
 3164POPC   GL143489  18.275  30.884   5.763
 3164POPC   GL243490  18.094  30.582   5.812
 3164POPC   C1A43491  18.256  30.795   6.241
 3164POPC   D2A43492  18.271  30.542   6.621
 3164POPC   C3A43493  18.239  30.748   6.999
 3164POPC   C4A43494  18.397  30.911   7.351
 3164POPC   C1B43495  18.024  30.346   6.185
 3164POPC   C2B43496  17.777  30.447   6.536
 3164POPC   C3B43497  17.900  30.359   6.961
 3164POPC   C4B43498  18.012  30.529   7.406
 3165POPC   NC343499   6.064   5.643   5.344
 3165POPC   PO443500   5.996   6.331   5.613
 3165POPC   GL143501   5.847   5.894   5.750
 3165POPC   GL243502   6.088   5.612   5.830
 3165POPC   C1A43503   5.751   5.716   6.177
 3165POPC   D2A43504   6.009   5.904   6.489
 3165POPC   C3A43505   5.843   6.052   6.874
 3165POPC   C4A43506   5.683   5.820   7.201
 3165POPC   C1B43507   6.217   5.455   6.189
 3165POPC   C2B43508   6.044   5.372   6.590
 3165POPC   C3B43509   6.061   5.590   6.911
 3165POPC   C4B43510   6.094   5.457   7.263
 3166POPC   NC343511  32.388  18.342   5.431
 3166POPC   PO443512  31.805  18.033   5.428
 3166POPC   GL143513  32.035  18.070   5.780
 3166POPC   GL243514  32.026  18.419   5.829
 3166POPC   C1A43515  32.250  17.881   6.138
 3166POPC   D2A43516  32.507  18.079   6.479
 3166POPC   C3A43517  32.418  17.925   6.887
 3166POPC   C4A43518  32.280  18.077   7.275
 3166POPC   C1B43519  32.114  18.343   6.294
 3166POPC   C2B43520  32.156  18.348   6.758
 3166POPC   C3B43521  32.465  18.495   7.048
 3166POPC   C4B43522  32.309  18.587   7.448
 3167POPC   NC343523  44.145  30.284   5.248
 3167POPC   PO443524  43.646  29.798   5.416
 3167POPC   GL143525  43.844  29.963   5.792
 3167POPC   GL243526  44.227  29.990   5.742
 3167POPC   C1A43527  43.614  30.091   6.196
 3167POPC   D2A43528  43.392  30.244   6.577
 3167POPC   C3A43529  43.621  30.120   6.944
 3167POPC   C4A43530  43.748  29.969   7.333
 3167POPC   C1B43531  44.101  30.206   6.157
 3167POPC   C2B43532  44.050  30.116   6.611
 3167POPC   C3B43533  44.182  29.984   7.051
 3167POPC   C4B43534  44.199  29.928   7.521
 3168POPC   NC343535  20.246   5.825   5.522
 3168POPC   PO443536  19.614   5.663   5.439
 3168POPC   GL143537  19.608   5.861   5.859
 3168POPC   GL243538  19.590   6.217   5.845
 3168POPC   C1A43539  19.748   5.728   6.280
 3168POPC   D2A43540  19.857   5.522   6.677
 3168POPC   C3A43541  19.697   5.717   7.026
 3168POPC   C4A43542  19.979   5.902   7.330
 3168POPC   C1B43543  19.876   6.230   6.223
 3168POPC   C2B43544  19.845   6.086   6.649
 3168POPC   C3B43545  19.874   6.287   7.025
 3168POPC   C4B43546  19.964   6.651   7.216
 3169POPC   NC343547  11.546  16.848   5.390
 3169POPC   PO443548  12.200  16.803   5.333
 3169POPC   GL143549  12.124  16.743   5.760
 3169POPC   GL243550  11.796  16.709   5.898
 3169POPC   C1A43551  12.246  16.710   6.175
 3169POPC   D2A43552  12.137  17.022   6.471
 3169POPC   C3A43553  12.125  16.932   6.903
 3169POPC   C4A43554  12.293  16.541   7.071
 3169POPC   C1B43555  11.633  16.923   6.278
 3169POPC   C2B43556  11.542  16.725   6.677
 3169POPC   C3B43557  11.714  16.656   7.086
 3169POPC   C4B43558  11.851  17.043   7.327
 3170POPC   NC343559  36.641   9.195   5.151
 3170POPC   PO443560  37.013   8.701   5.452
 3170POPC   GL143561  37.096   9.038   5.800
 3170POPC   GL243562  36.918   8.806   5.977
 3170POPC   C1A43563  37.032   9.203   6.254
 3170POPC   D2A43564  37.033   8.886   6.618
 3170POPC   C3A43565  36.895   8.953   7.076
 3170POPC   C4A43566  36.907   9.059   7.569
 3170POPC   C1B43567  36.751   8.518   6.266
 3170POPC   C2B43568  36.481   8.461   6.611
 3170POPC   C3B43569  36.463   8.611   7.026
 3170POPC   C4B43570  36.314   8.481   7.438
 3171POPC   NC343571  29.910  38.928   5.504
 3171POPC   PO443572  30.127  39.617   5.380
 3171POPC   GL143573  30.017  39.358   5.775
 3171POPC   GL243574  30.331  39.182   5.878
 3171POPC   C1A43575  29.925  39.199   6.229
 3171POPC   D2A43576  30.081  39.279   6.686
 3171POPC   C3A43577  29.773  39.304   7.052
 3171POPC   C4A43578  29.605  39.531   7.410
 3171POPC   C1B43579  30.428  38.983   6.291
 3171POPC   C2B43580  30.260  38.779   6.671
 3171POPC   C3B43581  30.173  38.952   7.087
 3171POPC   C4B43582  30.307  38.817   7.489
 3172POPC   NC343583  26.446  13.149   5.483
 3172POPC   PO443584  26.589  12.512   5.406
 3172POPC   GL143585  26.740  12.547   5.852
 3172POPC   GL243586  26.944  12.839   5.865
 3172POPC   C1A43587  26.706  12.614   6.330
 3172POPC   D2A43588  26.828  12.893   6.662
 3172POPC   C3A43589  26.687  12.774   7.092
 3172POPC   C4A43590  26.449  12.721   7.481
 3172POPC   C1B43591  27.190  12.689   6.237
 3172POPC   C2B43592  27.270  12.625   6.671
 3172POPC   C3B43593  27.190  12.873   7.017
 3172POPC   C4B43594  27.072  12.825   7.450
 3173POPC   NC343595  30.649  37.465   5.406
 3173POPC   PO443596  31.032  38.051   5.374
 3173POPC   GL143597  30.913  37.783   5.715
 3173POPC   GL243598  30.629  37.963   5.735
 3173POPC   C1A43599  30.706  37.591   6.112
 3173POPC   D2A43600  30.841  37.623   6.563
 3173POPC   C3A43601  30.675  37.536   6.992
 3173POPC   C4A43602  30.376  37.417   7.320
 3173POPC   C1B43603  30.335  37.960   6.082
 3173POPC   C2B43604  30.401  37.891   6.489
 3173POPC   C3B43605  30.524  38.020   6.873
 3173POPC   C4B43606  30.556  37.975   7.263
 3174POPC   NC343607   2.473  18.626   5.426
 3174POPC   PO443608   2.189  19.160   5.472
 3174POPC   GL143609   1.891  19.009   5.747
 3174POPC   GL243610   1.790  19.308   5.847
 3174POPC   C1A43611   1.717  18.856   6.142
 3174POPC   D2A43612   1.927  18.848   6.518
 3174POPC   C3A43613   1.777  18.648   6.890
 3174POPC   C4A43614   2.083  18.715   7.185
 3174POPC   C1B43615   2.033  19.275   6.192
 3174POPC   C2B43616   1.948  19.385   6.590
 3174POPC   C3B43617   1.979  19.147   6.938
 3174POPC   C4B43618   1.674  19.078   7.211
 3175POPC   NC343619  43.246  22.005   5.132
 3175POPC   PO443620  42.642  22.246   5.233
 3175POPC   GL143621  42.800  22.131   5.714
 3175POPC   GL243622  43.137  22.007   5.789
 3175POPC   C1A43623  42.830  21.961   6.191
 3175POPC   D2A43624  42.912  21.679   6.572
 3175POPC   C3A43625  42.876  21.869   6.977
 3175POPC   C4A43626  42.897  22.193   7.307
 3175POPC   C1B43627  43.353  22.167   6.164
 3175POPC   C2B43628  43.336  22.011   6.581
 3175POPC   C3B43629  43.291  22.173   6.978
 3175POPC   C4B43630  43.410  22.157   7.400
 3176POPC   NC343631  29.432  13.143   5.477
 3176POPC   PO443632  29.438  13.825   5.321
 3176POPC   GL143633  29.160  13.644   5.692
 3176POPC   GL243634  29.007  13.288   5.737
 3176POPC   C1A43635  29.154  13.701   6.165
 3176POPC   D2A43636  29.431  13.903   6.507
 3176POPC   C3A43637  29.386  13.766   6.960
 3176POPC   C4A43638  29.246  13.711   7.404
 3176POPC   C1B43639  29.131  13.190   6.182
 3176POPC   C2B43640  29.168  13.379   6.617
 3176POPC   C3B43641  29.088  13.335   7.079
 3176POPC   C4B43642  28.832  13.398   7.461
 3177POPC   NC343643  44.074   1.681   5.433
 3177POPC   PO443644  43.742   2.265   5.216
 3177POPC   GL143645  43.825   2.086   5.652
 3177POPC   GL243646  44.164   2.171   5.777
 3177POPC   C1A43647  43.809   1.893   6.105
 3177POPC   D2A43648  43.529   1.935   6.484
 3177POPC   C3A43649  43.615   1.949   6.958
 3177POPC   C4A43650  44.005   1.893   7.198
 3177POPC   C1B43651  44.050   2.334   6.218
 3177POPC   C2B43652  43.922   2.228   6.665
 3177POPC   C3B43653  43.852   2.382   7.114
 3177POPC   C4B43654  44.115   2.264   7.497
 3178POPC   NC343655  38.743  10.554   5.374
 3178POPC   PO443656  38.153  10.257   5.534
 3178POPC   GL143657  38.250  10.557   5.839
 3178POPC   GL243658  38.573  10.608   5.840
 3178POPC   C1A43659  38.303  10.637   6.278
 3178POPC   D2A43660  38.195  10.389   6.630
 3178POPC   C3A43661  38.395  10.570   6.960
 3178POPC   C4A43662  38.268  10.779   7.322
 3178POPC   C1B43663  38.764  10.418   6.172
 3178POPC   C2B43664  38.751  10.415   6.599
 3178POPC   C3B43665  38.912  10.536   6.997
 3178POPC   C4B43666  38.757  10.817   7.265
 3179POPC   NC343667  25.811  30.134   5.207
 3179POPC   PO443668  26.380  29.784   5.498
 3179POPC   GL143669  26.339  29.632   5.934
 3179POPC   GL243670  26.023  29.790   6.003
 3179POPC   C1A43671  26.252  29.613   6.395
 3179POPC   D2A43672  25.827  29.810   6.563
 3179POPC   C3A43673  25.889  29.918   6.991
 3179POPC   C4A43674  26.269  29.704   7.113
 3179POPC   C1B43675  25.996  30.173   6.256
 3179POPC   C2B43676  25.867  30.333   6.633
 3179POPC   C3B43677  26.015  30.435   7.020
 3179POPC   C4B43678  25.778  30.741   7.164
 3180POPC   NC343679  36.259   5.458   5.657
 3180POPC   PO443680  35.909   4.913   5.471
 3180POPC   GL143681  35.920   5.125   5.873
 3180POPC   GL243682  36.260   4.992   5.894
 3180POPC   C1A43683  36.098   5.230   6.313
 3180POPC   D2A43684  36.311   5.299   6.722
 3180POPC   C3A43685  36.035   5.195   7.033
 3180POPC   C4A43686  35.804   5.444   7.365
 3180POPC   C1B43687  36.321   4.703   6.239
 3180POPC   C2B43688  36.235   4.805   6.660
 3180POPC   C3B43689  36.473   4.836   7.017
 3180POPC   C4B43690  36.453   4.679   7.453
 3181POPC   NC343691  27.871  12.280   5.033
 3181POPC   PO443692  27.387  11.910   5.412
 3181POPC   GL143693  27.558  12.008   5.758
 3181POPC   GL243694  27.576  11.706   5.940
 3181POPC   C1A43695  27.405  12.162   6.145
 3181POPC   D2A43696  27.578  12.236   6.535
 3181POPC   C3A43697  27.357  12.178   6.892
 3181POPC   C4A43698  27.324  12.432   7.243
 3181POPC   C1B43699  27.717  11.781   6.398
 3181POPC   C2B43700  27.670  11.787   6.855
 3181POPC   C3B43701  27.731  12.041   7.266
 3181POPC   C4B43702  28.085  11.937   7.595
 3182POPC   NC343703   7.430  21.062   5.378
 3182POPC   PO443704   7.244  20.434   5.371
 3182POPC   GL143705   7.435  20.660   5.755
 3182POPC   GL243706   7.238  20.941   5.845
 3182POPC   C1A43707   7.653  20.817   6.182
 3182POPC   D2A43708   7.505  20.677   6.626
 3182POPC   C3A43709   7.599  20.761   7.100
 3182POPC   C4A43710   7.534  21.018   7.526
 3182POPC   C1B43711   7.158  20.708   6.210
 3182POPC   C2B43712   6.987  20.750   6.597
 3182POPC   C3B43713   7.130  20.584   6.976
 3182POPC   C4B43714   6.945  20.603   7.365
 3183POPC   NC343715  43.930  39.943   5.197
 3183POPC   PO443716  43.965  39.264   5.313
 3183POPC   GL143717  44.086  39.298   5.760
 3183POPC   GL243718  44.082  39.649   5.807
 3183POPC   C1A43719  44.213  39.064   6.156
 3183POPC   D2A43720  43.996  39.006   6.570
 3183POPC   C3A43721  44.206  39.113   6.957
 3183POPC   C4A43722  43.956  39.087   7.321
 3183POPC   C1B43723  43.936  39.485   6.211
 3183POPC   C2B43724  44.058  39.535   6.632
 3183POPC   C3B43725  43.898  39.526   7.044
 3183POPC   C4B43726  43.708  39.520   7.452
 3184POPC   NC343727  15.008  38.125   5.303
 3184POPC   PO443728  15.302  38.613   5.541
 3184POPC   GL143729  15.348  38.310   5.872
 3184POPC   GL243730  15.052  38.088   5.843
 3184POPC   C1A43731  15.419  38.377   6.329
 3184POPC   D2A43732  15.317  38.463   6.775
 3184POPC   C3A43733  15.095  38.801   6.990
 3184POPC   C4A43734  15.396  38.816   7.308
 3184POPC   C1B43735  14.968  38.095   6.294
 3184POPC   C2B43736  15.231  37.977   6.627
 3184POPC   C3B43737  15.337  38.048   7.063
 3184POPC   C4B43738  15.109  38.358   7.263
 3185POPC   NC343739  16.327   3.029   5.616
 3185POPC   PO443740  16.889   2.652   5.401
 3185POPC   GL143741  17.026   2.710   5.804
 3185POPC   GL243742  16.694   2.814   5.867
 3185POPC   C1A43743  16.933   2.651   6.259
 3185POPC   D2A43744  16.701   2.747   6.612
 3185POPC   C3A43745  16.964   2.661   6.938
 3185POPC   C4A43746  16.928   2.846   7.310
 3185POPC   C1B43747  16.682   3.125   6.174
 3185POPC   C2B43748  16.882   3.224   6.531
 3185POPC   C3B43749  16.778   3.166   6.932
 3185POPC   C4B43750  16.685   3.296   7.323
 3186POPC   NC343751  34.685  35.897   5.376
 3186POPC   PO443752  34.312  36.379   5.417
 3186POPC   GL143753  34.501  36.123   5.800
 3186POPC   GL243754  34.714  35.776   5.856
 3186POPC   C1A43755  34.443  36.008   6.246
 3186POPC   D2A43756  34.518  35.785   6.650
 3186POPC   C3A43757  34.529  36.096   6.941
 3186POPC   C4A43758  34.423  36.241   7.343
 3186POPC   C1B43759  34.688  35.551   6.236
 3186POPC   C2B43760  34.988  35.635   6.563
 3186POPC   C3B43761  34.906  35.653   6.987
 3186POPC   C4B43762  34.873  36.004   7.283
 3187POPC   NC343763  20.763  39.296   5.452
 3187POPC   PO443764  20.163  39.627   5.456
 3187POPC   GL143765  20.349  39.324   5.764
 3187POPC   GL243766  20.633  39.412   5.927
 3187POPC   C1A43767  20.291  39.171   6.220
 3187POPC   D2A43768  20.461  39.290   6.626
 3187POPC   C3A43769  20.377  39.155   7.059
 3187POPC   C4A43770  20.541  38.980   7.461
 3187POPC   C1B43771  20.822  39.681   6.220
 3187POPC   C2B43772  20.663  39.760   6.623
 3187POPC   C3B43773  20.769  39.549   6.991
 3187POPC   C4B43774  20.562  39.574   7.351
 3188POPC   NC343775  26.517   9.994   5.434
 3188POPC   PO443776  27.170  10.156   5.382
 3188POPC   GL143777  27.033   9.927   5.800
 3188POPC   GL243778  26.682   9.801   5.878
 3188POPC   C1A43779  26.981   9.811   6.279
 3188POPC   D2A43780  26.574   9.886   6.543
 3188POPC   C3A43781  26.711   9.946   6.965
 3188POPC   C4A43782  27.177  10.021   6.994
 3188POPC   C1B43783  26.623   9.451   6.186
 3188POPC   C2B43784  26.791   9.436   6.606
 3188POPC   C3B43785  26.904   9.485   7.028
 3188POPC   C4B43786  26.580   9.561   7.329
 3189POPC   NC343787  20.564  19.514   5.503
 3189POPC   PO443788  20.926  20.080   5.449
 3189POPC   GL143789  20.726  19.886   5.811
 3189POPC   GL243790  20.384  19.955   5.727
 3189POPC   C1A43791  20.725  19.680   6.240
 3189POPC   D2A43792  20.906  19.586   6.671
 3189POPC   C3A43793  20.745  19.726   7.081
 3189POPC   C4A43794  20.807  19.967   7.461
 3189POPC   C1B43795  20.374  20.038   6.183
 3189POPC   C2B43796  20.443  19.922   6.656
 3189POPC   C3B43797  20.402  20.089   7.108
 3189POPC   C4B43798  20.098  20.162   7.442
 3190POPC   NC343799  20.606  32.522   5.419
 3190POPC   PO443800  20.396  33.144   5.562
 3190POPC   GL143801  20.593  33.060   5.937
 3190POPC   GL243802  20.737  32.776   5.848
 3190POPC   C1A43803  20.589  33.149   6.356
 3190POPC   D2A43804  20.481  32.893   6.694
 3190POPC   C3A43805  20.538  33.153   7.013
 3190POPC   C4A43806  20.897  33.292   7.197
 3190POPC   C1B43807  20.773  32.679   6.285
 3190POPC   C2B43808  20.819  32.507   6.708
 3190POPC   C3B43809  20.715  32.663   7.138
 3190POPC   C4B43810  20.973  32.839   7.463
 3191POPC   NC343811  10.060  31.272   4.906
 3191POPC   PO443812   9.836  31.630   5.393
 3191POPC   GL143813   9.867  31.571   5.842
 3191POPC   GL243814   9.816  31.846   6.080
 3191POPC   C1A43815   9.924  31.390   6.272
 3191POPC   D2A43816   9.781  31.375   6.705
 3191POPC   C3A43817   9.997  31.230   7.073
 3191POPC   C4A43818  10.110  31.462   7.421
 3191POPC   C1B43819   9.502  31.679   6.384
 3191POPC   C2B43820   9.383  31.684   6.799
 3191POPC   C3B43821   9.686  31.646   7.142
 3191POPC   C4B43822   9.621  31.505   7.548
 3192POPC   NC343823  25.751  16.126   4.955
 3192POPC   PO443824  26.069  15.815   5.319
 3192POPC   GL143825  25.981  15.757   5.773
 3192POPC   GL243826  25.845  15.434   5.860
 3192POPC   C1A43827  26.067  15.767   6.242
 3192POPC   D2A43828  26.131  15.960   6.663
 3192POPC   C3A43829  26.272  15.701   7.031
 3192POPC   C4A43830  26.662  15.773   7.296
 3192POPC   C1B43831  25.626  15.518   6.295
 3192POPC   C2B43832  25.675  15.732   6.694
 3192POPC   C3B43833  25.536  15.710   7.116
 3192POPC   C4B43834  25.664  15.546   7.509
 3193POPC   NC343835  22.558  11.929   5.423
 3193POPC   PO443836  23.117  11.625   5.301
 3193POPC   GL143837  23.006  11.983   5.635
 3193POPC   GL243838  22.800  11.799   5.846
 3193POPC   C1A43839  22.942  12.230   6.063
 3193POPC   D2A43840  23.164  12.312   6.457
 3193POPC   C3A43841  22.890  12.208   6.771
 3193POPC   C4A43842  22.935  12.251   7.173
 3193POPC   C1B43843  22.871  11.661   6.259
 3193POPC   C2B43844  22.896  11.507   6.694
 3193POPC   C3B43845  23.012  11.766   7.037
 3193POPC   C4B43846  22.929  11.855   7.471
 3194POPC   NC343847  11.550   9.778   5.050
 3194POPC   PO443848  11.467   9.506   5.388
 3194POPC   GL143849  11.504   9.688   5.831
 3194POPC   GL243850  11.344  10.021   5.867
 3194POPC   C1A43851  11.474   9.689   6.324
 3194POPC   D2A43852  11.316   9.439   6.694
 3194POPC   C3A43853  11.305   9.616   7.142
 3194POPC   C4A43854  11.559   9.853   7.455
 3194POPC   C1B43855  11.236  10.134   6.307
 3194POPC   C2B43856  11.152   9.957   6.726
 3194POPC   C3B43857  11.231  10.133   7.134
 3194POPC   C4B43858  11.169  10.353   7.534
 3195POPC   NC343859   6.906  10.011   5.444
 3195POPC   PO443860   6.389   9.626   5.247
 3195POPC   GL143861   6.583   9.727   5.728
 3195POPC   GL243862   6.792   9.441   5.843
 3195POPC   C1A43863   6.772   9.782   6.218
 3195POPC   D2A43864   6.794  10.036   6.572
 3195POPC   C3A43865   6.621   9.809   6.914
 3195POPC   C4A43866   6.759   9.842   7.338
 3195POPC   C1B43867   6.429   9.430   6.116
 3195POPC   C2B43868   6.385   9.563   6.517
 3195POPC   C3B43869   6.311   9.368   6.898
 3195POPC   C4B43870   6.383   9.530   7.283
 3196POPC   NC343871  21.502  23.224   5.404
 3196POPC   PO443872  21.144  23.798   5.380
 3196POPC   GL143873  21.252  24.012   5.761
 3196POPC   GL243874  21.358  23.685   5.853
 3196POPC   C1A43875  21.414  24.097   6.159
 3196POPC   D2A43876  21.513  23.798   6.420
 3196POPC   C3A43877  21.560  23.840   6.854
 3196POPC   C4A43878  21.866  23.620   7.101
 3196POPC   C1B43879  21.524  23.382   6.129
 3196POPC   C2B43880  21.591  23.326   6.583
 3196POPC   C3B43881  21.448  23.341   6.987
 3196POPC   C4B43882  21.207  23.215   7.325
 3197POPC   NC343883  14.368  24.333   5.595
 3197POPC   PO443884  14.551  24.950   5.466
 3197POPC   GL143885  14.405  24.788   5.865
 3197POPC   GL243886  14.066  24.894   5.821
 3197POPC   C1A43887  14.473  24.439   6.238
 3197POPC   D2A43888  14.254  24.412   6.659
 3197POPC   C3A43889  14.438  24.529   7.075
 3197POPC   C4A43890  14.632  24.285   7.449
 3197POPC   C1B43891  14.147  24.802   6.292
 3197POPC   C2B43892  14.098  24.905   6.713
 3197POPC   C3B43893  13.922  24.606   7.016
 3197POPC   C4B43894  13.900  24.272   7.304
 3198POPC   NC343895  12.814  21.426   5.245
 3198POPC   PO443896  13.417  21.178   5.250
 3198POPC   GL143897  13.053  21.184   5.627
 3198POPC   GL243898  12.913  21.521   5.741
 3198POPC   C1A43899  12.858  21.168   6.080
 3198POPC   D2A43900  13.004  21.371   6.481
 3198POPC   C3A43901  12.775  21.346   6.862
 3198POPC   C4A43902  12.888  21.157   7.246
 3198POPC   C1B43903  12.788  21.701   6.160
 3198POPC   C2B43904  12.680  21.891   6.581
 3198POPC   C3B43905  12.565  21.796   7.020
 3198POPC   C4B43906  12.576  21.539   7.380
 3199POPC   NC343907  21.059  41.699   5.497
 3199POPC   PO443908  20.443  41.337   5.383
 3199POPC   GL143909  20.432  41.385   5.833
 3199POPC   GL243910  20.655  41.664   5.813
 3199POPC   C1A43911  20.527  41.556   6.291
 3199POPC   D2A43912  20.430  41.795   6.703
 3199POPC   C3A43913  20.469  41.572   7.103
 3199POPC   C4A43914  20.633  41.443   7.546
 3199POPC   C1B43915  20.930  41.833   6.144
 3199POPC   C2B43916  20.884  42.001   6.569
 3199POPC   C3B43917  20.827  41.947   7.030
 3199POPC   C4B43918  20.910  41.859   7.510
 3200POPC   NC343919  18.919  31.590   5.383
 3200POPC   PO443920  19.406  31.890   5.750
 3200POPC   GL143921  19.170  31.503   5.839
 3200POPC   GL243922  18.795  31.391   5.830
 3200POPC   C1A43923  19.177  31.227   6.129
 3200POPC   D2A43924  19.031  31.250   6.505
 3200POPC   C3A43925  19.087  31.071   6.888
 3200POPC   C4A43926  19.260  31.274   7.244
 3200POPC   C1B43927  18.608  31.444   6.231
 3200POPC   C2B43928  18.653  31.544   6.664
 3200POPC   C3B43929  19.019  31.587   6.910
 3200POPC   C4B43930  18.784  31.437   7.234
 3201POPC   NC343931   7.140  11.536   5.169
 3201POPC   PO443932   6.503  11.210   5.282
 3201POPC   GL143933   6.594  11.467   5.648
 3201POPC   GL243934   6.870  11.716   5.626
 3201POPC   C1A43935   6.602  11.322   6.097
 3201POPC   D2A43936   6.514  11.014   6.438
 3201POPC   C3A43937   6.655  11.149   6.845
 3201POPC   C4A43938   6.621  11.037   7.261
 3201POPC   C1B43939   7.063  11.554   6.020
 3201POPC   C2B43940   6.981  11.411   6.461
 3201POPC   C3B43941   6.959  11.570   6.893
 3201POPC   C4B43942   7.036  11.429   7.312
 3202POPC   NC343943  10.963  44.799   5.193
 3202POPC   PO443944  11.529  44.449   5.463
 3202POPC   GL143945  11.218  44.545   5.850
 3202POPC   GL243946  11.018  44.849   5.710
 3202POPC   C1A43947  11.195  44.475   6.351
 3202POPC   D2A43948  11.472  44.714   6.679
 3202POPC   C3A43949  11.546  44.713   7.165
 3202POPC   C4A43950  11.542  44.833   7.622
 3202POPC   C1B43951  11.018  44.952   6.152
 3202POPC   C2B43952  10.937  44.922   6.603
 3202POPC   C3B43953  11.061  44.704   6.977
 3202POPC   C4B43954  11.066  44.733   7.427
 3203POPC   NC343955  31.835  11.269   5.505
 3203POPC   PO443956  31.170  11.338   5.345
 3203POPC   GL143957  31.371  11.432   5.739
 3203POPC   GL243958  31.133  11.624   5.891
 3203POPC   C1A43959  31.466  11.207   6.142
 3203POPC   D2A43960  31.589  11.146   6.581
 3203POPC   C3A43961  31.396  11.266   6.960
 3203POPC   C4A43962  31.454  11.483   7.344
 3203POPC   C1B43963  31.320  11.678   6.253
 3203POPC   C2B43964  31.513  11.676   6.637
 3203POPC   C3B43965  31.303  11.810   6.999
 3203POPC   C4B43966  31.085  11.977   7.343
 3204POPC   NC343967  29.734  32.054   5.543
 3204POPC   PO443968  30.114  32.583   5.458
 3204POPC   GL143969  30.128  32.537   5.870
 3204POPC   GL243970  29.779  32.488   5.904
 3204POPC   C1A43971  30.130  32.364   6.276
 3204POPC   D2A43972  30.038  32.142   6.639
 3204POPC   C3A43973  29.971  32.392   6.998
 3204POPC   C4A43974  30.097  32.177   7.355
 3204POPC   C1B43975  29.616  32.507   6.328
 3204POPC   C2B43976  29.482  32.537   6.770
 3204POPC   C3B43977  29.472  32.319   7.158
 3204POPC   C4B43978  29.635  32.111   7.538
 3205POPC   NC343979  30.308  22.883   5.381
 3205POPC   PO443980  30.890  22.967   5.310
 3205POPC   GL143981  30.695  22.744   5.722
 3205POPC   GL243982  30.450  22.956   5.894
 3205POPC   C1A43983  30.516  22.526   6.144
 3205POPC   D2A43984  30.325  22.456   6.565
 3205POPC   C3A43985  30.511  22.636   6.935
 3205POPC   C4A43986  30.462  23.012   7.171
 3205POPC   C1B43987  30.618  22.971   6.363
 3205POPC   C2B43988  30.702  23.204   6.771
 3205POPC   C3B43989  30.921  23.236   7.211
 3205POPC   C4B43990  31.084  23.055   7.628
 3206POPC   NC343991  29.279  38.643   5.228
 3206POPC   PO443992  28.803  38.117   5.335
 3206POPC   GL143993  29.062  38.310   5.644
 3206POPC   GL243994  28.799  38.228   5.856
 3206POPC   C1A43995  29.139  38.527   6.056
 3206POPC   D2A43996  29.131  38.365   6.478
 3206POPC   C3A43997  28.978  38.518   6.847
 3206POPC   C4A43998  29.310  38.489   7.144
 3206POPC   C1B43999  28.767  37.960   6.192
 3206POPC   C2B44000  28.773  38.012   6.636
 3206POPC   C3B44001  28.710  38.134   7.056
 3206POPC   C4B44002  29.003  38.104   7.340
 3207POPC   NC344003  17.696  15.632   5.027
 3207POPC   PO444004  17.300  15.860   5.541
 3207POPC   GL144005  17.421  15.905   5.933
 3207POPC   GL244006  17.086  15.967   6.029
 3207POPC   C1A44007  17.670  15.805   6.298
 3207POPC   D2A44008  17.953  16.016   6.613
 3207POPC   C3A44009  17.827  16.204   7.028
 3207POPC   C4A44010  17.741  16.242   7.485
 3207POPC   C1B44011  17.147  15.655   6.337
 3207POPC   C2B44012  17.446  15.474   6.628
 3207POPC   C3B44013  17.660  15.726   6.940
 3207POPC   C4B44014  17.384  15.959   7.218
 3208POPC   NC344015   3.187  43.446   5.384
 3208POPC   PO444016   3.781  43.185   5.450
 3208POPC   GL144017   3.477  43.228   5.774
 3208POPC   GL244018   3.393  42.891   5.822
 3208POPC   C1A44019   3.360  43.307   6.217
 3208POPC   D2A44020   3.273  43.050   6.613
 3208POPC   C3A44021   3.351  43.085   7.074
 3208POPC   C4A44022   3.449  43.339   7.475
 3208POPC   C1B44023   3.616  42.871   6.230
 3208POPC   C2B44024   3.713  42.761   6.652
 3208POPC   C3B44025   3.647  42.664   7.096
 3208POPC   C4B44026   3.824  43.008   7.324
 3209POPC   NC344027  28.489  44.253   5.423
 3209POPC   PO444028  28.744  43.621   5.403
 3209POPC   GL144029  28.555  43.848   5.755
 3209POPC   GL244030  28.227  43.905   5.777
 3209POPC   C1A44031  28.561  44.145   6.113
 3209POPC   D2A44032  28.526  44.298   6.547
 3209POPC   C3A44033  28.466  44.101   6.971
 3209POPC   C4A44034  28.186  44.008   7.346
 3209POPC   C1B44035  28.203  43.791   6.208
 3209POPC   C2B44036  28.100  43.933   6.623
 3209POPC   C3B44037  28.184  43.659   6.970
 3209POPC   C4B44038  28.076  43.468   7.361
 3210POPC   NC344039   5.791  37.299   5.150
 3210POPC   PO444040   6.267  37.841   5.072
 3210POPC   GL144041   5.903  37.675   5.462
 3210POPC   GL244042   6.082  37.354   5.635
 3210POPC   C1A44043   5.806  37.662   5.979
 3210POPC   D2A44044   5.837  37.730   6.483
 3210POPC   C3A44045   5.703  37.548   6.936
 3210POPC   C4A44046   5.519  37.738   7.367
 3210POPC   C1B44047   6.126  37.258   6.120
 3210POPC   C2B44048   6.197  37.342   6.587
 3210POPC   C3B44049   6.207  37.738   6.844
 3210POPC   C4B44050   6.020  37.815   7.246
 3211POPC   NC344051   7.108  21.896   5.431
 3211POPC   PO444052   7.691  22.252   5.414
 3211POPC   GL144053   7.573  22.230   5.823
 3211POPC   GL244054   7.223  22.202   5.845
 3211POPC   C1A44055   7.629  22.306   6.247
 3211POPC   D2A44056   7.870  22.168   6.597
 3211POPC   C3A44057   7.683  22.156   7.007
 3211POPC   C4A44058   7.539  21.762   7.111
 3211POPC   C1B44059   7.188  22.030   6.254
 3211POPC   C2B44060   7.292  22.218   6.648
 3211POPC   C3B44061   7.152  22.104   7.048
 3211POPC   C4B44062   7.029  22.317   7.410
 3212POPC   NC344063  10.716  38.342   5.135
 3212POPC   PO444064  10.289  37.815   5.320
 3212POPC   GL144065  10.244  37.685   5.776
 3212POPC   GL244066  10.180  37.322   5.894
 3212POPC   C1A44067  10.485  37.847   6.122
 3212POPC   D2A44068  10.386  37.968   6.510
 3212POPC   C3A44069  10.638  37.969   6.865
 3212POPC   C4A44070  10.378  37.805   7.175
 3212POPC   C1B44071  10.484  37.358   6.247
 3212POPC   C2B44072  10.625  37.179   6.631
 3212POPC   C3B44073  10.648  37.399   7.015
 3212POPC   C4B44074  10.524  37.402   7.450
 3213POPC   NC344075  20.177  29.372   5.422
 3213POPC   PO444076  19.862  28.759   5.585
 3213POPC   GL144077  19.856  29.135   5.797
 3213POPC   GL244078  19.697  29.424   5.644
 3213POPC   C1A44079  19.953  29.121   6.238
 3213POPC   D2A44080  19.790  28.886   6.578
 3213POPC   C3A44081  19.973  28.851   6.974
 3213POPC   C4A44082  20.000  28.768   7.419
 3213POPC   C1B44083  19.584  29.462   6.105
 3213POPC   C2B44084  19.666  29.423   6.574
 3213POPC   C3B44085  19.712  29.327   7.024
 3213POPC   C4B44086  20.058  29.258   7.270
 3214POPC   NC344087   5.244   8.426   5.064
 3214POPC   PO444088   5.100   7.837   5.496
 3214POPC   GL144089   5.023   8.184   5.801
 3214POPC   GL244090   4.682   8.242   5.904
 3214POPC   C1A44091   5.067   8.203   6.259
 3214POPC   D2A44092   5.389   8.091   6.556
 3214POPC   C3A44093   5.274   7.814   6.892
 3214POPC   C4A44094   5.053   7.930   7.246
 3214POPC   C1B44095   4.582   7.920   6.196
 3214POPC   C2B44096   4.812   7.902   6.589
 3214POPC   C3B44097   4.932   8.227   6.815
 3214POPC   C4B44098   4.856   8.397   7.219
 3215POPC   NC344099  14.874  11.440   5.382
 3215POPC   PO444100  14.223  11.073   5.363
 3215POPC   GL144101  14.365  11.430   5.648
 3215POPC   GL244102  14.613  11.212   5.829
 3215POPC   C1A44103  14.382  11.589   6.098
 3215POPC   D2A44104  14.490  11.404   6.512
 3215POPC   C3A44105  14.215  11.371   6.875
 3215POPC   C4A44106  14.384  11.570   7.220
 3215POPC   C1B44107  14.608  10.965   6.255
 3215POPC   C2B44108  14.505  10.938   6.736
 3215POPC   C3B44109  14.470  11.024   7.193
 3215POPC   C4B44110  14.629  10.873   7.630
 3216POPC   NC344111  44.548  42.845   5.475
 3216POPC   PO444112  44.942  43.421   5.343
 3216POPC   GL144113  44.784  43.223   5.737
 3216POPC   GL244114  44.909  42.877   5.822
 3216POPC   C1A44115  44.608  43.163   6.158
 3216POPC   D2A44116  44.681  43.391   6.549
 3216POPC   C3A44117  44.576  43.298   6.967
 3216POPC   C4A44118  44.749  43.598   7.241
 3216POPC   C1B44119   0.042  42.881   6.210
 3216POPC   C2B44120  44.811  42.891   6.578
 3216POPC   C3B44121  44.919  42.816   6.986
 3216POPC   C4B44122  44.639  42.879   7.259
 3217POPC   NC344123  41.480   6.938   5.520
 3217POPC   PO444124  41.524   7.602   5.281
 3217POPC   GL144125  41.456   7.730   5.698
 3217POPC   GL244126  41.324   7.389   5.757
 3217POPC   C1A44127  41.615   7.645   6.126
 3217POPC   D2A44128  41.819   7.398   6.453
 3217POPC   C3A44129  41.765   7.588   6.835
 3217POPC   C4A44130  41.823   7.643   7.249
 3217POPC   C1B44131  41.247   7.289   6.202
 3217POPC   C2B44132  41.319   7.470   6.604
 3217POPC   C3B44133  41.348   7.419   7.038
 3217POPC   C4B44134  41.484   7.226   7.374
 3218POPC   NC344135  37.034  35.234   5.289
 3218POPC   PO444136  36.592  35.643   5.547
 3218POPC   GL144137  36.784  35.392   5.812
 3218POPC   GL244138  36.725  35.094   5.671
 3218POPC   C1A44139  36.926  35.362   6.227
 3218POPC   D2A44140  36.894  35.539   6.600
 3218POPC   C3A44141  37.027  35.333   6.946
 3218POPC   C4A44142  36.956  35.565   7.292
 3218POPC   C1B44143  36.553  35.004   6.102
 3218POPC   C2B44144  36.559  35.153   6.536
 3218POPC   C3B44145  36.633  34.991   6.929
 3218POPC   C4B44146  36.990  34.904   7.221
 3219POPC   NC344147  11.394  29.694   5.448
 3219POPC   PO444148  10.826  30.075   5.369
 3219POPC   GL144149  11.027  30.022   5.821
 3219POPC   GL244150  11.229  29.756   5.917
 3219POPC   C1A44151  11.233  30.162   6.229
 3219POPC   D2A44152  11.423  29.807   6.482
 3219POPC   C3A44153  11.427  29.860   6.940
 3219POPC   C4A44154  11.178  30.158   7.150
 3219POPC   C1B44155  10.938  29.754   6.276
 3219POPC   C2B44156  10.968  29.885   6.726
 3219POPC   C3B44157  10.951  29.709   7.145
 3219POPC   C4B44158  10.985  29.832   7.598
 3220POPC   NC344159  34.251  39.340   5.371
 3220POPC   PO444160  34.987  39.493   5.260
 3220POPC   GL144161  34.735  39.371   5.621
 3220POPC   GL244162  34.725  39.001   5.668
 3220POPC   C1A44163  34.836  39.363   6.068
 3220POPC   D2A44164  34.962  39.425   6.503
 3220POPC   C3A44165  34.691  39.535   6.815
 3220POPC   C4A44166  34.518  39.572   7.188
 3220POPC   C1B44167  34.592  38.934   6.121
 3220POPC   C2B44168  34.520  39.153   6.527
 3220POPC   C3B44169  34.423  39.071   6.963
 3220POPC   C4B44170  34.610  38.729   7.197
 3221POPC   NC344171  19.927  33.175   5.545
 3221POPC   PO444172  19.535  32.705   5.303
 3221POPC   GL144173  19.803  32.703   5.707
 3221POPC   GL244174  20.196  32.707   5.733
 3221POPC   C1A44175  19.739  32.906   6.134
 3221POPC   D2A44176  19.707  33.301   6.430
 3221POPC   C3A44177  19.765  33.209   6.873
 3221POPC   C4A44178  19.608  32.938   7.183
 3221POPC   C1B44179  20.259  32.760   6.186
 3221POPC   C2B44180  20.001  32.859   6.566
 3221POPC   C3B44181  20.055  32.762   6.990
 3221POPC   C4B44182  20.100  33.099   7.249
 3222POPC   NC344183  38.268  27.528   5.359
 3222POPC   PO444184  38.893  27.444   5.290
 3222POPC   GL144185  38.718  27.638   5.720
 3222POPC   GL244186  38.348  27.598   5.848
 3222POPC   C1A44187  38.654  27.882   6.151
 3222POPC   D2A44188  38.498  27.741   6.592
 3222POPC   C3A44189  38.698  27.818   7.005
 3222POPC   C4A44190  38.716  27.575   7.439
 3222POPC   C1B44191  38.569  27.384   6.183
 3222POPC   C2B44192  38.583  27.238   6.612
 3222POPC   C3B44193  38.493  27.356   7.016
 3222POPC   C4B44194  38.224  27.260   7.357
 3223POPC   NC344195  16.152  16.904   5.072
 3223POPC   PO444196  15.999  16.487   5.602
 3223POPC   GL144197  16.017  16.587   5.971
 3223POPC   GL244198  16.192  16.901   5.851
 3223POPC   C1A44199  15.754  16.540   6.328
 3223POPC   D2A44200  15.531  16.687   6.699
 3223POPC   C3A44201  15.774  16.755   7.051
 3223POPC   C4A44202  16.123  16.475   7.177
 3223POPC   C1B44203  15.992  16.993   6.257
 3223POPC   C2B44204  16.061  16.852   6.651
 3223POPC   C3B44205  16.233  16.967   7.068
 3223POPC   C4B44206  16.055  17.040   7.462
 3224POPC   NC344207   0.573  29.584   5.138
 3224POPC   PO444208   0.358  30.170   5.413
 3224POPC   GL144209   0.480  29.938   5.808
 3224POPC   GL244210   0.219  29.771   5.986
 3224POPC   C1A44211   0.593  29.998   6.262
 3224POPC   D2A44212   0.784  29.861   6.628
 3224POPC   C3A44213   0.587  30.019   6.975
 3224POPC   C4A44214   0.696  29.898   7.393
 3224POPC   C1B44215   0.094  30.085   6.234
 3224POPC   C2B44216   0.170  29.976   6.657
 3224POPC   C3B44217   0.145  29.817   7.083
 3224POPC   C4B44218   0.091  30.212   7.215
 3225POPC   NC344219  42.848   2.295   5.477
 3225POPC   PO444220  42.232   1.916   5.516
 3225POPC   GL144221  42.531   2.050   5.832
 3225POPC   GL244222  42.593   1.715   5.907
 3225POPC   C1A44223  42.610   2.039   6.292
 3225POPC   D2A44224  42.392   1.959   6.672
 3225POPC   C3A44225  42.478   2.020   7.103
 3225POPC   C4A44226  42.138   2.199   7.362
 3225POPC   C1B44227  42.236   1.693   6.205
 3225POPC   C2B44228  42.051   1.584   6.621
 3225POPC   C3B44229  42.052   1.759   7.068
 3225POPC   C4B44230  41.898   1.757   7.508
 3226POPC   NC344231   1.085  19.411   5.468
 3226POPC   PO444232   1.598  18.944   5.323
 3226POPC   GL144233   1.409  18.839   5.747
 3226POPC   GL244234   1.327  19.128   5.846
 3226POPC   C1A44235   1.199  18.804   6.180
 3226POPC   D2A44236   1.412  18.820   6.575
 3226POPC   C3A44237   1.261  18.798   6.996
 3226POPC   C4A44238   1.458  18.661   7.397
 3226POPC   C1B44239   1.007  19.293   6.134
 3226POPC   C2B44240   1.022  19.152   6.536
 3226POPC   C3B44241   0.819  19.079   6.894
 3226POPC   C4B44242   0.993  19.151   7.278
 3227POPC   NC344243  33.572   5.492   5.628
 3227POPC   PO444244  33.743   6.027   5.343
 3227POPC   GL144245  33.839   6.061   5.811
 3227POPC   GL244246  34.059   6.368   5.835
 3227POPC   C1A44247  33.853   5.742   6.214
 3227POPC   D2A44248  33.607   5.638   6.574
 3227POPC   C3A44249  33.801   5.786   6.948
 3227POPC   C4A44250  34.052   5.609   7.281
 3227POPC   C1B44251  34.057   6.214   6.236
 3227POPC   C2B44252  33.877   6.119   6.573
 3227POPC   C3B44253  34.030   6.282   6.930
 3227POPC   C4B44254  33.978   6.124   7.308
 3228POPC   NC344255  18.724   5.033   5.481
 3228POPC   PO444256  19.364   4.823   5.468
 3228POPC   GL144257  19.048   4.877   5.841
 3228POPC   GL244258  19.008   5.256   5.876
 3228POPC   C1A44259  18.774   4.979   6.236
 3228POPC   D2A44260  18.885   5.235   6.594
 3228POPC   C3A44261  18.751   5.059   6.960
 3228POPC   C4A44262  18.932   5.177   7.329
 3228POPC   C1B44263  19.258   5.088   6.263
 3228POPC   C2B44264  19.362   5.026   6.718
 3228POPC   C3B44265  19.311   4.890   7.156
 3228POPC   C4B44266  19.277   4.905   7.610
 3229POPC   NC344267   5.039  10.109   5.176
 3229POPC   PO444268   5.077  10.665   5.438
 3229POPC   GL144269   4.935  10.343   5.730
 3229POPC   GL244270   5.236  10.358   5.958
 3229POPC   C1A44271   4.779  10.231   6.166
 3229POPC   D2A44272   5.021  10.339   6.542
 3229POPC   C3A44273   4.849  10.427   6.972
 3229POPC   C4A44274   5.049  10.382   7.381
 3229POPC   C1B44275   5.419  10.038   6.214
 3229POPC   C2B44276   5.325   9.916   6.592
 3229POPC   C3B44277   5.309  10.175   6.955
 3229POPC   C4B44278   5.460  10.075   7.344
 3230POPC   NC344279   2.500   8.859   5.318
 3230POPC   PO444280   3.164   8.952   5.228
 3230POPC   GL144281   2.899   8.962   5.671
 3230POPC   GL244282   2.571   9.147   5.740
 3230POPC   C1A44283   2.824   8.841   6.126
 3230POPC   D2A44284   3.128   8.815   6.508
 3230POPC   C3A44285   2.947   8.876   6.899
 3230POPC   C4A44286   2.722   9.100   7.170
 3230POPC   C1B44287   2.415   9.130   6.193
 3230POPC   C2B44288   2.484   9.036   6.662
 3230POPC   C3B44289   2.284   9.282   7.005
 3230POPC   C4B44290   2.409   9.398   7.462
 3231POPC   NC344291  21.954  26.570   5.540
 3231POPC   PO444292  22.392  26.209   5.126
 3231POPC   GL144293  22.383  25.993   5.653
 3231POPC   GL244294  22.474  26.210   6.021
 3231POPC   C1A44295  22.172  25.796   5.988
 3231POPC   D2A44296  22.183  25.713   6.420
 3231POPC   C3A44297  22.147  25.947   6.790
 3231POPC   C4A44298  22.185  25.956   7.231
 3231POPC   C1B44299  22.039  26.267   6.190
 3231POPC   C2B44300  21.811  26.261   6.580
 3231POPC   C3B44301  21.928  26.346   7.014
 3231POPC   C4B44302  21.983  26.510   7.457
 3232POPC   NC344303  14.632   4.858   5.396
 3232POPC   PO444304  14.188   4.485   5.447
 3232POPC   GL144305  14.255   4.845   5.751
 3232POPC   GL244306  14.622   4.923   5.899
 3232POPC   C1A44307  14.207   4.966   6.187
 3232POPC   D2A44308  14.458   4.965   6.564
 3232POPC   C3A44309  14.249   5.084   6.980
 3232POPC   C4A44310  14.118   4.880   7.381
 3232POPC   C1B44311  14.675   5.284   6.201
 3232POPC   C2B44312  14.567   5.466   6.630
 3232POPC   C3B44313  14.678   5.369   7.055
 3232POPC   C4B44314  14.591   5.078   7.380
 3233POPC   NC344315   4.963   3.799   5.376
 3233POPC   PO444316   5.130   3.112   5.447
 3233POPC   GL144317   5.192   3.301   5.838
 3233POPC   GL244318   4.933   3.548   5.854
 3233POPC   C1A44319   5.072   3.283   6.265
 3233POPC   D2A44320   4.820   3.350   6.633
 3233POPC   C3A44321   4.982   3.449   7.052
 3233POPC   C4A44322   5.344   3.418   7.324
 3233POPC   C1B44323   4.812   3.834   6.205
 3233POPC   C2B44324   4.704   3.828   6.657
 3233POPC   C3B44325   4.712   3.932   7.062
 3233POPC   C4B44326   4.708   3.713   7.436
 3234POPC   NC344327  11.004  21.276   5.513
 3234POPC   PO444328  11.638  21.530   5.338
 3234POPC   GL144329  11.464  21.315   5.724
 3234POPC   GL244330  11.481  21.653   5.877
 3234POPC   C1A44331  11.214  21.298   6.139
 3234POPC   D2A44332  11.452  21.350   6.504
 3234POPC   C3A44333  11.286  21.185   6.883
 3234POPC   C4A44334  11.156  21.377   7.261
 3234POPC   C1B44335  11.712  21.892   6.206
 3234POPC   C2B44336  11.799  21.726   6.629
 3234POPC   C3B44337  11.606  21.665   7.056
 3234POPC   C4B44338  11.711  21.807   7.479
 3235POPC   NC344339   2.085   4.684   5.146
 3235POPC   PO444340   1.678   4.223   5.493
 3235POPC   GL144341   1.658   4.294   5.912
 3235POPC   GL244342   2.022   4.249   5.979
 3235POPC   C1A44343   1.710   4.409   6.355
 3235POPC   D2A44344   2.018   4.344   6.650
 3235POPC   C3A44345   2.030   4.562   7.001
 3235POPC   C4A44346   1.850   4.405   7.372
 3235POPC   C1B44347   2.369   4.212   6.283
 3235POPC   C2B44348   2.500   4.177   6.743
 3235POPC   C3B44349   2.221   4.113   7.124
 3235POPC   C4B44350   2.285   4.299   7.576
 3236POPC   NC344351   9.413  15.692   5.591
 3236POPC   PO444352   9.780  15.160   5.496
 3236POPC   GL144353   9.788  15.123   5.912
 3236POPC   GL244354   9.685  14.770   5.901
 3236POPC   C1A44355   9.848  15.511   6.185
 3236POPC   D2A44356   9.829  15.725   6.587
 3236POPC   C3A44357   9.931  15.375   6.876
 3236POPC   C4A44358   9.758  15.281   7.260
 3236POPC   C1B44359   9.391  14.806   6.263
 3236POPC   C2B44360   9.449  14.979   6.698
 3236POPC   C3B44361   9.583  14.762   7.077
 3236POPC   C4B44362   9.825  14.831   7.460
 3237POPC   NC344363  27.709  35.747   5.163
 3237POPC   PO444364  27.914  35.233   5.547
 3237POPC   GL144365  27.780  35.469   5.893
 3237POPC   GL244366  27.467  35.629   5.773
 3237POPC   C1A44367  27.857  35.658   6.308
 3237POPC   D2A44368  27.610  35.712   6.685
 3237POPC   C3A44369  27.579  35.355   7.009
 3237POPC   C4A44370  27.667  35.318   7.477
 3237POPC   C1B44371  27.154  35.863   6.043
 3237POPC   C2B44372  27.143  35.909   6.513
 3237POPC   C3B44373  27.213  35.815   6.972
 3237POPC   C4B44374  27.220  35.526   7.352
 3238POPC   NC344375  32.025  13.272   5.527
 3238POPC   PO444376  32.304  12.577   5.429
 3238POPC   GL144377  32.305  12.848   5.773
 3238POPC   GL244378  32.568  13.100   5.654
 3238POPC   C1A44379  32.216  12.836   6.224
 3238POPC   D2A44380  32.068  12.954   6.629
 3238POPC   C3A44381  32.228  12.755   6.962
 3238POPC   C4A44382  32.064  12.876   7.331
 3238POPC   C1B44383  32.645  13.097   6.091
 3238POPC   C2B44384  32.532  13.165   6.509
 3238POPC   C3B44385  32.660  13.011   6.890
 3238POPC   C4B44386  32.571  12.943   7.302
 3239POPC   NC344387  27.472  11.452   5.426
 3239POPC   PO444388  28.119  11.181   5.492
 3239POPC   GL144389  27.788  11.232   5.814
 3239POPC   GL244390  27.401  11.196   5.857
 3239POPC   C1A44391  27.729  11.322   6.244
 3239POPC   D2A44392  27.546  11.305   6.652
 3239POPC   C3A44393  27.837  11.267   6.977
 3239POPC   C4A44394  27.992  11.602   7.221
 3239POPC   C1B44395  27.250  11.085   6.264
 3239POPC   C2B44396  27.035  11.329   6.570
 3239POPC   C3B44397  27.161  11.437   6.981
 3239POPC   C4B44398  27.400  11.210   7.246
 3240POPC   NC344399  39.380   1.179   5.327
 3240POPC   PO444400  38.953   1.550   5.301
 3240POPC   GL144401  39.120   1.390   5.737
 3240POPC   GL244402  39.206   1.029   5.797
 3240POPC   C1A44403  39.370   1.346   6.168
 3240POPC   D2A44404  39.342   1.160   6.624
 3240POPC   C3A44405  39.458   1.331   7.065
 3240POPC   C4A44406  39.367   1.377   7.511
 3240POPC   C1B44407  38.997   0.987   6.222
 3240POPC   C2B44408  38.876   0.925   6.672
 3240POPC   C3B44409  39.021   1.064   7.071
 3240POPC   C4B44410  39.264   0.905   7.388
 3241POPC   NC344411  13.154  14.258   5.560
 3241POPC   PO444412  13.717  14.453   5.253
 3241POPC   GL144413  13.649  14.457   5.704
 3241POPC   GL244414  13.510  14.767   5.791
 3241POPC   C1A44415  13.572  14.459   6.191
 3241POPC   D2A44416  13.782  14.461   6.619
 3241POPC   C3A44417  13.569  14.249   6.991
 3241POPC   C4A44418  13.674  14.008   7.401
 3241POPC   C1B44419  13.683  14.982   6.148
 3241POPC   C2B44420  13.748  14.985   6.567
 3241POPC   C3B44421  13.542  14.796   6.923
 3241POPC   C4B44422  13.701  14.655   7.276
 3242POPC   NC344423  23.453  40.971   5.358
 3242POPC   PO444424  22.817  40.946   5.417
 3242POPC   GL144425  23.092  41.140   5.727
 3242POPC   GL244426  22.971  40.868   5.931
 3242POPC   C1A44427  23.368  41.125   6.123
 3242POPC   D2A44428  23.189  40.879   6.458
 3242POPC   C3A44429  23.141  40.912   6.940
 3242POPC   C4A44430  22.979  40.755   7.376
 3242POPC   C1B44431  22.918  40.516   6.202
 3242POPC   C2B44432  22.756  40.344   6.573
 3242POPC   C3B44433  22.815  40.465   6.990
 3242POPC   C4B44434  22.820  40.270   7.396
 3243POPC   NC344435   2.845  33.322   5.480
 3243POPC   PO444436   2.486  32.860   5.494
 3243POPC   GL144437   2.636  33.032   5.877
 3243POPC   GL244438   2.751  33.368   5.974
 3243POPC   C1A44439   2.544  33.038   6.303
 3243POPC   D2A44440   2.550  33.174   6.705
 3243POPC   C3A44441   2.771  32.953   6.923
 3243POPC   C4A44442   2.680  32.944   7.308
 3243POPC   C1B44443   3.056  33.250   6.292
 3243POPC   C2B44444   3.254  33.275   6.722
 3243POPC   C3B44445   3.146  33.221   7.175
 3243POPC   C4B44446   3.097  33.037   7.582
 3244POPC   NC344447   4.686  22.400   5.346
 3244POPC   PO444448   5.127  21.875   5.318
 3244POPC   GL144449   5.034  21.993   5.733
 3244POPC   GL244450   5.064  22.344   5.741
 3244POPC   C1A44451   5.136  22.092   6.168
 3244POPC   D2A44452   5.427  22.170   6.501
 3244POPC   C3A44453   5.246  22.007   6.894
 3244POPC   C4A44454   5.072  22.152   7.264
 3244POPC   C1B44455   5.041  22.574   6.171
 3244POPC   C2B44456   5.003  22.424   6.610
 3244POPC   C3B44457   5.121  22.609   6.999
 3244POPC   C4B44458   5.029  22.639   7.424
 3245POPC   NC344459  16.867  22.743   4.871
 3245POPC   PO444460  16.938  23.106   5.310
 3245POPC   GL144461  16.943  23.026   5.793
 3245POPC   GL244462  16.596  23.010   5.911
 3245POPC   C1A44463  16.963  22.848   6.253
 3245POPC   D2A44464  16.719  22.959   6.660
 3245POPC   C3A44465  16.835  22.845   7.103
 3245POPC   C4A44466  17.084  22.717   7.493
 3245POPC   C1B44467  16.462  22.730   6.257
 3245POPC   C2B44468  16.416  22.503   6.647
 3245POPC   C3B44469  16.336  22.674   7.059
 3245POPC   C4B44470  16.301  22.914   7.450
 3246POPC   NC344471  41.044   7.500   5.295
 3246POPC   PO444472  40.456   7.160   5.495
 3246POPC   GL144473  40.651   7.495   5.765
 3246POPC   GL244474  40.933   7.721   5.820
 3246POPC   C1A44475  40.580   7.568   6.210
 3246POPC   D2A44476  40.313   7.641   6.583
 3246POPC   C3A44477  40.436   7.596   7.059
 3246POPC   C4A44478  40.569   7.544   7.527
 3246POPC   C1B44479  41.040   7.786   6.292
 3246POPC   C2B44480  40.828   7.545   6.665
 3246POPC   C3B44481  40.860   7.337   7.080
 3246POPC   C4B44482  41.065   7.473   7.480
 3247POPC   NC344483  41.712  35.929   5.093
 3247POPC   PO444484  41.353  36.500   5.293
 3247POPC   GL144485  41.558  36.271   5.710
 3247POPC   GL244486  41.641  35.884   5.683
 3247POPC   C1A44487  41.649  36.404   6.170
 3247POPC   D2A44488  41.515  36.645   6.554
 3247POPC   C3A44489  41.365  36.369   6.878
 3247POPC   C4A44490  41.624  36.119   7.145
 3247POPC   C1B44491  41.764  35.902   6.161
 3247POPC   C2B44492  41.614  35.936   6.633
 3247POPC   C3B44493  41.643  35.637   7.024
 3247POPC   C4B44494  41.961  35.764   7.371
 3248POPC   NC344495  19.318   9.210   5.306
 3248POPC   PO444496  18.786   8.952   5.567
 3248POPC   GL144497  19.212   8.943   5.774
 3248POPC   GL244498  19.472   9.187   5.786
 3248POPC   C1A44499  19.250   8.891   6.215
 3248POPC   D2A44500  19.010   8.851   6.569
 3248POPC   C3A44501  19.178   8.946   6.967
 3248POPC   C4A44502  19.096   9.185   7.295
 3248POPC   C1B44503  19.388   9.367   6.167
 3248POPC   C2B44504  19.292   9.296   6.616
 3248POPC   C3B44505  19.529   9.322   7.042
 3248POPC   C4B44506  19.513   9.269   7.534
 3249POPC   NC344507  12.479  20.499   5.410
 3249POPC   PO444508  11.830  20.552   5.275
 3249POPC   GL144509  12.099  20.794   5.594
 3249POPC   GL244510  12.052  20.502   5.766
 3249POPC   C1A44511  12.098  20.900   6.066
 3249POPC   D2A44512  12.214  20.701   6.485
 3249POPC   C3A44513  12.049  20.801   6.855
 3249POPC   C4A44514  12.050  20.828   7.265
 3249POPC   C1B44515  11.975  20.353   6.183
 3249POPC   C2B44516  12.196  20.153   6.539
 3249POPC   C3B44517  12.475  20.357   6.857
 3249POPC   C4B44518  12.360  20.418   7.287
 3250POPC   NC344519   8.704  11.329   5.233
 3250POPC   PO444520   8.169  11.770   5.352
 3250POPC   GL144521   8.131  11.456   5.736
 3250POPC   GL244522   7.956  11.128   5.676
 3250POPC   C1A44523   8.254  11.263   6.150
 3250POPC   D2A44524   8.326  11.447   6.564
 3250POPC   C3A44525   8.367  11.249   6.992
 3250POPC   C4A44526   8.451  11.425   7.392
 3250POPC   C1B44527   7.786  11.038   6.094
 3250POPC   C2B44528   7.821  11.294   6.458
 3250POPC   C3B44529   7.905  11.431   6.862
 3250POPC   C4B44530   7.932  11.497   7.290
 3251POPC   NC344531   0.761  37.813   5.390
 3251POPC   PO444532   1.320  37.533   5.385
 3251POPC   GL144533   1.148  37.610   5.795
 3251POPC   GL244534   1.417  37.840   5.921
 3251POPC   C1A44535   1.190  37.540   6.249
 3251POPC   D2A44536   1.174  37.827   6.586
 3251POPC   C3A44537   1.145  37.578   6.956
 3251POPC   C4A44538   0.898  37.417   7.281
 3251POPC   C1B44539   1.644  37.816   6.339
 3251POPC   C2B44540   1.627  37.937   6.800
 3251POPC   C3B44541   1.268  38.069   7.056
 3251POPC   C4B44542   1.169  37.850   7.428
 3252POPC   NC344543  40.784  39.360   5.370
 3252POPC   PO444544  40.685  38.735   5.290
 3252POPC   GL144545  40.818  38.990   5.723
 3252POPC   GL244546  40.751  39.362   5.860
 3252POPC   C1A44547  40.966  39.018   6.153
 3252POPC   D2A44548  40.730  39.126   6.526
 3252POPC   C3A44549  40.953  39.020   6.887
 3252POPC   C4A44550  41.085  39.069   7.281
 3252POPC   C1B44551  40.871  39.591   6.222
 3252POPC   C2B44552  40.667  39.619   6.604
 3252POPC   C3B44553  40.883  39.525   6.954
 3252POPC   C4B44554  40.631  39.288   7.213
 3253POPC   NC344555  42.342  31.262   5.558
 3253POPC   PO444556  42.738  31.796   5.631
 3253POPC   GL144557  42.327  31.667   5.874
 3253POPC   GL244558  42.343  31.313   6.065
 3253POPC   C1A44559  42.042  31.742   6.246
 3253POPC   D2A44560  42.205  31.904   6.646
 3253POPC   C3A44561  42.316  31.551   6.917
 3253POPC   C4A44562  42.159  31.452   7.310
 3253POPC   C1B44563  42.483  30.935   6.346
 3253POPC   C2B44564  42.777  30.981   6.717
 3253POPC   C3B44565  42.798  31.229   7.063
 3253POPC   C4B44566  42.584  31.189   7.454
 3254POPC   NC344567  20.314   7.844   5.424
 3254POPC   PO444568  20.142   7.195   5.499
 3254POPC   GL144569  20.391   7.320   5.843
 3254POPC   GL244570  20.709   7.418   5.799
 3254POPC   C1A44571  20.311   7.490   6.257
 3254POPC   D2A44572  20.242   7.720   6.619
 3254POPC   C3A44573  20.212   7.444   6.966
 3254POPC   C4A44574  20.430   7.322   7.360
 3254POPC   C1B44575  20.820   7.466   6.251
 3254POPC   C2B44576  20.676   7.452   6.709
 3254POPC   C3B44577  20.867   7.451   7.149
 3254POPC   C4B44578  21.001   7.627   7.566
 3255POPC   NC344579  26.488  11.327   5.299
 3255POPC   PO444580  27.128  11.129   5.366
 3255POPC   GL144581  26.903  11.291   5.712
 3255POPC   GL244582  26.850  11.585   5.559
 3255POPC   C1A44583  26.757  11.162   6.129
 3255POPC   D2A44584  26.802  10.892   6.490
 3255POPC   C3A44585  26.648  11.150   6.837
 3255POPC   C4A44586  26.854  11.115   7.223
 3255POPC   C1B44587  26.601  11.631   5.969
 3255POPC   C2B44588  26.681  11.697   6.425
 3255POPC   C3B44589  26.475  11.661   6.826
 3255POPC   C4B44590  26.646  11.577   7.199
 3256POPC   NC344591  23.358  10.459   5.460
 3256POPC   PO444592  22.767  10.351   5.609
 3256POPC   GL144593  22.740  10.515   5.980
 3256POPC   GL244594  22.916  10.795   5.919
 3256POPC   C1A44595  22.806  10.626   6.405
 3256POPC   D2A44596  22.537  10.737   6.734
 3256POPC   C3A44597  22.671  10.616   7.129
 3256POPC   C4A44598  22.783  10.242   7.318
 3256POPC   C1B44599  23.219  10.460   6.117
 3256POPC   C2B44600  23.164  10.264   6.519
 3256POPC   C3B44601  23.112  10.520   6.877
 3256POPC   C4B44602  23.185  10.610   7.288
 3257POPC   NC344603  19.526  38.665   4.952
 3257POPC   PO444604  19.817  38.411   5.476
 3257POPC   GL144605  19.666  38.632   5.832
 3257POPC   GL244606  19.854  38.386   6.003
 3257POPC   C1A44607  19.696  38.839   6.249
 3257POPC   D2A44608  19.781  38.596   6.634
 3257POPC   C3A44609  19.897  38.467   7.072
 3257POPC   C4A44610  20.013  38.332   7.507
 3257POPC   C1B44611  19.466  38.383   6.235
 3257POPC   C2B44612  19.273  38.645   6.558
 3257POPC   C3B44613  19.403  38.609   7.024
 3257POPC   C4B44614  19.511  38.404   7.439
 3258POPC   NC344615  35.330  30.182   5.437
 3258POPC   PO444616  35.888  29.798   5.522
 3258POPC   GL144617  35.475  29.705   5.819
 3258POPC   GL244618  35.186  29.955   5.875
 3258POPC   C1A44619  35.258  29.672   6.282
 3258POPC   D2A44620  35.274  29.967   6.668
 3258POPC   C3A44621  35.398  29.850   7.116
 3258POPC   C4A44622  35.098  29.644   7.408
 3258POPC   C1B44623  34.949  30.127   6.231
 3258POPC   C2B44624  34.796  30.209   6.669
 3258POPC   C3B44625  34.918  30.006   7.062
 3258POPC   C4B44626  35.089  30.178   7.474
 3259POPC   NC344627  32.448  20.105   5.580
 3259POPC   PO444628  32.048  19.656   5.421
 3259POPC   GL144629  32.183  19.600   5.803
 3259POPC   GL244630  32.536  19.623   5.730
 3259POPC   C1A44631  32.002  19.734   6.185
 3259POPC   D2A44632  32.185  19.784   6.547
 3259POPC   C3A44633  31.996  19.856   6.930
 3259POPC   C4A44634  32.236  19.748   7.257
 3259POPC   C1B44635  32.516  19.777   6.150
 3259POPC   C2B44636  32.676  20.048   6.470
 3259POPC   C3B44637  32.557  19.924   6.875
 3259POPC   C4B44638  32.765  20.088   7.246
 3260POPC   NC344639   0.660  43.862   5.416
 3260POPC   PO444640   0.191  44.257   5.361
 3260POPC   GL144641   0.379  44.120   5.784
 3260POPC   GL244642   0.766  44.166   5.818
 3260POPC   C1A44643   0.364  43.888   6.218
 3260POPC   D2A44644   0.366  43.957   6.687
 3260POPC   C3A44645   0.244  43.792   7.090
 3260POPC   C4A44646   0.176  44.188   7.290
 3260POPC   C1B44647   0.859  43.803   6.107
 3260POPC   C2B44648   0.718  43.627   6.489
 3260POPC   C3B44649   0.778  43.738   6.913
 3260POPC   C4B44650   0.687  43.716   7.329
 3261POPC   NC344651  29.283  35.199   5.377
 3261POPC   PO444652  29.216  34.510   5.519
 3261POPC   GL144653  29.040  34.523   5.913
 3261POPC   GL244654  29.305  34.769   6.006
 3261POPC   C1A44655  29.021  34.552   6.364
 3261POPC   D2A44656  29.112  34.874   6.640
 3261POPC   C3A44657  28.915  34.730   7.003
 3261POPC   C4A44658  28.889  34.575   7.399
 3261POPC   C1B44659  29.446  34.330   6.170
 3261POPC   C2B44660  29.405  34.246   6.606
 3261POPC   C3B44661  29.447  34.580   6.937
 3261POPC   C4B44662  29.379  34.649   7.359
 3262POPC   NC344663  34.848  12.932   5.572
 3262POPC   PO444664  34.321  13.009   5.155
 3262POPC   GL144665  34.380  12.914   5.685
 3262POPC   GL244666  34.480  12.625   5.811
 3262POPC   C1A44667  34.437  13.018   6.137
 3262POPC   D2A44668  34.185  13.106   6.507
 3262POPC   C3A44669  34.338  12.990   6.907
 3262POPC   C4A44670  34.698  13.142   7.117
 3262POPC   C1B44671  34.698  12.530   6.204
 3262POPC   C2B44672  34.681  12.720   6.621
 3262POPC   C3B44673  34.800  12.639   7.054
 3262POPC   C4B44674  34.633  12.489   7.427
 3263POPC   NC344675   1.384  31.222   5.695
 3263POPC   PO444676   1.163  30.647   5.321
 3263POPC   GL144677   1.230  30.733   5.767
 3263POPC   GL244678   1.595  30.704   5.718
 3263POPC   C1A44679   1.152  30.806   6.254
 3263POPC   D2A44680   1.009  30.917   6.714
 3263POPC   C3A44681   1.307  31.024   7.066
 3263POPC   C4A44682   1.444  30.874   7.454
 3263POPC   C1B44683   1.528  30.474   6.101
 3263POPC   C2B44684   1.498  30.550   6.560
 3263POPC   C3B44685   1.274  30.512   6.941
 3263POPC   C4B44686   1.061  30.141   7.103
 3264POPC   NC344687   4.589  39.407   5.436
 3264POPC   PO444688   4.044  38.963   5.359
 3264POPC   GL144689   4.188  39.178   5.729
 3264POPC   GL244690   4.556  39.122   5.851
 3264POPC   C1A44691   4.212  39.344   6.158
 3264POPC   D2A44692   4.457  39.300   6.517
 3264POPC   C3A44693   4.228  39.362   6.903
 3264POPC   C4A44694   4.395  39.424   7.311
 3264POPC   C1B44695   4.714  38.779   6.100
 3264POPC   C2B44696   4.529  38.701   6.497
 3264POPC   C3B44697   4.504  38.911   6.906
 3264POPC   C4B44698   4.636  38.951   7.339
 3265POPC   NC344699   0.808  40.021   5.402
 3265POPC   PO444700   1.494  40.219   5.404
 3265POPC   GL144701   1.203  40.054   5.730
 3265POPC   GL244702   0.880  40.256   5.843
 3265POPC   C1A44703   1.168  39.974   6.161
 3265POPC   D2A44704   1.399  40.063   6.525
 3265POPC   C3A44705   1.354  39.763   6.838
 3265POPC   C4A44706   1.307  39.862   7.264
 3265POPC   C1B44707   0.669  40.270   6.234
 3265POPC   C2B44708   0.858  40.037   6.585
 3265POPC   C3B44709   0.864  40.140   7.028
 3265POPC   C4B44710   0.634  40.518   7.182
 3266POPC   NC344711  15.805  24.996   5.534
 3266POPC   PO444712  16.082  24.477   5.191
 3266POPC   GL144713  16.015  24.469   5.660
 3266POPC   GL244714  15.678  24.549   5.757
 3266POPC   C1A44715  16.016  24.409   6.112
 3266POPC   D2A44716  16.208  24.498   6.506
 3266POPC   C3A44717  16.025  24.436   6.906
 3266POPC   C4A44718  16.151  24.626   7.264
 3266POPC   C1B44719  15.731  24.821   6.155
 3266POPC   C2B44720  15.682  24.653   6.560
 3266POPC   C3B44721  15.709  24.847   6.967
 3266POPC   C4B44722  15.775  24.873   7.464
 3267POPC   NC344723  24.769  20.797   5.318
 3267POPC   PO444724  24.733  20.262   5.449
 3267POPC   GL144725  24.637  20.357   5.890
 3267POPC   GL244726  24.740  20.700   5.831
 3267POPC   C1A44727  24.631  20.306   6.368
 3267POPC   D2A44728  24.314  20.336   6.692
 3267POPC   C3A44729  24.407  20.554   7.072
 3267POPC   C4A44730  24.747  20.492   7.338
 3267POPC   C1B44731  24.480  20.758   6.191
 3267POPC   C2B44732  24.558  20.773   6.622
 3267POPC   C3B44733  24.713  20.960   7.013
 3267POPC   C4B44734  24.522  20.962   7.428
 3268POPC   NC344735  11.248   2.433   5.461
 3268POPC   PO444736  11.086   1.833   5.186
 3268POPC   GL144737  11.235   1.983   5.691
 3268POPC   GL244738  10.969   1.810   5.842
 3268POPC   C1A44739  11.200   2.120   6.183
 3268POPC   D2A44740  10.978   2.148   6.598
 3268POPC   C3A44741  11.180   2.005   6.982
 3268POPC   C4A44742  11.587   2.200   7.082
 3268POPC   C1B44743  11.281   1.629   6.156
 3268POPC   C2B44744  11.400   1.725   6.590
 3268POPC   C3B44745  11.162   1.495   6.923
 3268POPC   C4B44746  11.104   1.461   7.356
 3269POPC   NC344747  28.829  18.373   5.454
 3269POPC   PO444748  28.198  18.209   5.297
 3269POPC   GL144749  28.398  18.237   5.721
 3269POPC   GL244750  28.648  17.998   5.843
 3269POPC   C1A44751  28.325  18.284   6.188
 3269POPC   D2A44752  28.322  18.181   6.662
 3269POPC   C3A44753  28.216  18.507   6.997
 3269POPC   C4A44754  28.140  18.407   7.432
 3269POPC   C1B44755  28.787  18.063   6.300
 3269POPC   C2B44756  28.860  18.045   6.766
 3269POPC   C3B44757  28.591  18.197   7.125
 3269POPC   C4B44758  28.663  18.395   7.513
 3270POPC   NC344759   5.670   5.164   5.054
 3270POPC   PO444760   5.078   4.849   5.378
 3270POPC   GL144761   5.092   5.165   5.726
 3270POPC   GL244762   5.191   4.926   5.931
 3270POPC   C1A44763   5.322   5.402   6.089
 3270POPC   D2A44764   5.475   5.462   6.547
 3270POPC   C3A44765   5.187   5.331   6.874
 3270POPC   C4A44766   5.176   5.203   7.317
 3270POPC   C1B44767   5.297   4.945   6.324
 3270POPC   C2B44768   5.112   4.832   6.680
 3270POPC   C3B44769   5.313   4.787   7.057
 3270POPC   C4B44770   5.041   4.716   7.379
 3271POPC   NC344771  24.425  32.364   5.362
 3271POPC   PO444772  25.044  31.952   5.278
 3271POPC   GL144773  24.686  31.947   5.612
 3271POPC   GL244774  24.358  31.968   5.697
 3271POPC   C1A44775  24.665  31.916   6.108
 3271POPC   D2A44776  24.539  31.958   6.569
 3271POPC   C3A44777  24.609  32.281   6.858
 3271POPC   C4A44778  24.668  32.298   7.287
 3271POPC   C1B44779  24.331  32.287   6.025
 3271POPC   C2B44780  24.247  32.360   6.485
 3271POPC   C3B44781  24.078  32.295   6.927
 3271POPC   C4B44782  23.885  32.552   7.264
 3272POPC   NC344783  43.030  39.911   5.391
 3272POPC   PO444784  43.502  40.322   5.552
 3272POPC   GL144785  43.158  40.115   5.829
 3272POPC   GL244786  43.164  39.745   5.832
 3272POPC   C1A44787  43.201  40.040   6.282
 3272POPC   D2A44788  43.090  40.197   6.680
 3272POPC   C3A44789  43.179  40.014   7.054
 3272POPC   C4A44790  43.143  40.214   7.442
 3272POPC   C1B44791  42.906  39.622   6.158
 3272POPC   C2B44792  42.850  39.757   6.569
 3272POPC   C3B44793  42.902  39.595   6.984
 3272POPC   C4B44794  43.017  39.558   7.445
 3273POPC   NC344795   9.821  20.813   5.159
 3273POPC   PO444796   9.565  20.232   5.284
 3273POPC   GL144797   9.700  20.453   5.682
 3273POPC   GL244798   9.811  20.824   5.707
 3273POPC   C1A44799   9.860  20.441   6.115
 3273POPC   D2A44800   9.849  20.558   6.550
 3273POPC   C3A44801   9.531  20.480   6.855
 3273POPC   C4A44802   9.801  20.289   7.186
 3273POPC   C1B44803   9.701  20.943   6.139
 3273POPC   C2B44804   9.558  20.975   6.566
 3273POPC   C3B44805   9.767  20.956   6.952
 3273POPC   C4B44806   9.591  20.740   7.296
 3274POPC   NC344807  31.552   8.644   5.397
 3274POPC   PO444808  31.123   8.079   5.416
 3274POPC   GL144809  31.331   8.339   5.747
 3274POPC   GL244810  31.578   8.101   5.890
 3274POPC   C1A44811  31.489   8.540   6.151
 3274POPC   D2A44812  31.567   8.296   6.511
 3274POPC   C3A44813  31.532   8.390   6.916
 3274POPC   C4A44814  31.818   8.215   7.155
 3274POPC   C1B44815  31.485   7.869   6.256
 3274POPC   C2B44816  31.244   7.903   6.587
 3274POPC   C3B44817  31.444   7.885   6.930
 3274POPC   C4B44818  31.327   7.802   7.276
 3275POPC   NC344819   8.698  13.671   5.417
 3275POPC   PO444820   9.385  13.864   5.373
 3275POPC   GL144821   9.143  13.681   5.689
 3275POPC   GL244822   8.953  13.958   5.775
 3275POPC   C1A44823   8.923  13.532   6.056
 3275POPC   D2A44824   8.732  13.553   6.459
 3275POPC   C3A44825   8.905  13.301   6.795
 3275POPC   C4A44826   8.928  13.370   7.236
 3275POPC   C1B44827   8.650  13.968   6.128
 3275POPC   C2B44828   8.737  14.075   6.563
 3275POPC   C3B44829   8.785  13.805   6.931
 3275POPC   C4B44830   8.892  13.847   7.392
 3276POPC   NC344831  23.334  23.465   5.290
 3276POPC   PO444832  22.780  23.812   5.505
 3276POPC   GL144833  22.989  23.779   5.869
 3276POPC   GL244834  23.321  23.832   5.904
 3276POPC   C1A44835  22.979  23.658   6.278
 3276POPC   D2A44836  23.200  23.800   6.626
 3276POPC   C3A44837  22.911  23.716   6.937
 3276POPC   C4A44838  22.711  23.893   7.260
 3276POPC   C1B44839  23.477  23.512   6.259
 3276POPC   C2B44840  23.205  23.282   6.535
 3276POPC   C3B44841  23.209  23.298   6.962
 3276POPC   C4B44842  23.217  23.550   7.298
 3277POPC   NC344843   5.576  21.944   5.379
 3277POPC   PO444844   6.023  22.404   5.409
 3277POPC   GL144845   5.895  22.149   5.769
 3277POPC   GL244846   5.534  22.139   5.852
 3277POPC   C1A44847   5.899  22.163   6.222
 3277POPC   D2A44848   5.898  22.409   6.580
 3277POPC   C3A44849   6.180  22.328   6.908
 3277POPC   C4A44850   6.119  22.114   7.295
 3277POPC   C1B44851   5.549  21.791   6.157
 3277POPC   C2B44852   5.742  21.780   6.577
 3277POPC   C3B44853   5.748  22.055   6.929
 3277POPC   C4B44854   5.566  21.980   7.327
 3278POPC   NC344855  43.887  33.323   5.223
 3278POPC   PO444856  43.883  34.000   5.322
 3278POPC   GL144857  43.952  33.733   5.704
 3278POPC   GL244858  44.242  33.528   5.705
 3278POPC   C1A44859  43.922  33.755   6.167
 3278POPC   D2A44860  43.807  33.990   6.528
 3278POPC   C3A44861  43.842  33.807   6.936
 3278POPC   C4A44862  43.985  34.004   7.310
 3278POPC   C1B44863  44.415  33.599   6.148
 3278POPC   C2B44864  44.209  33.557   6.590
 3278POPC   C3B44865  44.189  33.448   7.052
 3278POPC   C4B44866  44.311  33.618   7.435
 3279POPC   NC344867   8.921   2.317   5.284
 3279POPC   PO444868   9.365   1.744   5.426
 3279POPC   GL144869   9.201   2.044   5.752
 3279POPC   GL244870   8.833   2.138   5.776
 3279POPC   C1A44871   9.185   2.064   6.233
 3279POPC   D2A44872   9.210   1.816   6.647
 3279POPC   C3A44873   9.290   1.725   7.132
 3279POPC   C4A44874   9.055   1.636   7.536
 3279POPC   C1B44875   8.808   2.385   6.166
 3279POPC   C2B44876   8.873   2.246   6.612
 3279POPC   C3B44877   9.119   2.198   6.981
 3279POPC   C4B44878   9.135   2.140   7.422
 3280POPC   NC344879   8.441   9.663   5.528
 3280POPC   PO444880   7.892   9.433   5.463
 3280POPC   GL144881   8.029   9.568   5.858
 3280POPC   GL244882   8.029   9.893   5.916
 3280POPC   C1A44883   8.098   9.551   6.326
 3280POPC   D2A44884   8.214   9.767   6.720
 3280POPC   C3A44885   8.011   9.782   7.116
 3280POPC   C4A44886   8.260   9.802   7.515
 3280POPC   C1B44887   8.283  10.042   6.280
 3280POPC   C2B44888   8.467  10.213   6.672
 3280POPC   C3B44889   8.314  10.188   7.092
 3280POPC   C4B44890   7.995  10.224   7.456
 3281POPC   NC344891  26.979  28.482   5.542
 3281POPC   PO444892  26.498  28.116   5.542
 3281POPC   GL144893  26.756  28.143   5.876
 3281POPC   GL244894  26.674  28.485   5.945
 3281POPC   C1A44895  26.863  28.175   6.298
 3281POPC   D2A44896  26.758  28.348   6.680
 3281POPC   C3A44897  26.821  28.141   7.071
 3281POPC   C4A44898  26.551  27.990   7.353
 3281POPC   C1B44899  26.540  28.686   6.303
 3281POPC   C2B44900  26.517  28.804   6.734
 3281POPC   C3B44901  26.521  28.548   7.110
 3281POPC   C4B44902  26.978  28.604   7.250
 3282POPC   NC344903  39.316  27.241   4.883
 3282POPC   PO444904  39.323  26.762   5.352
 3282POPC   GL144905  39.313  26.883   5.768
 3282POPC   GL244906  39.010  26.723   5.870
 3282POPC   C1A44907  39.384  26.941   6.211
 3282POPC   D2A44908  39.045  27.033   6.512
 3282POPC   C3A44909  39.076  26.871   6.947
 3282POPC   C4A44910  39.493  26.884   7.209
 3282POPC   C1B44911  39.156  26.483   6.203
 3282POPC   C2B44912  39.140  26.384   6.621
 3282POPC   C3B44913  39.312  26.421   7.031
 3282POPC   C4B44914  39.024  26.335   7.344
 3283POPC   NC344915  24.828  32.978   5.448
 3283POPC   PO444916  24.209  32.771   5.428
 3283POPC   GL144917  24.515  32.724   5.782
 3283POPC   GL244918  24.562  33.064   5.952
 3283POPC   C1A44919  24.616  32.651   6.249
 3283POPC   D2A44920  24.487  32.797   6.678
 3283POPC   C3A44921  24.371  32.689   7.107
 3283POPC   C4A44922  24.293  33.011   7.413
 3283POPC   C1B44923  24.359  33.202   6.379
 3283POPC   C2B44924  24.301  33.351   6.845
 3283POPC   C3B44925  24.222  33.509   7.305
 3283POPC   C4B44926  24.114  33.371   7.751
 3284POPC   NC344927  31.422   4.421   5.341
 3284POPC   PO444928  31.799   3.917   5.496
 3284POPC   GL144929  31.385   4.085   5.746
 3284POPC   GL244930  31.377   4.477   5.831
 3284POPC   C1A44931  31.179   4.131   6.167
 3284POPC   D2A44932  31.454   4.017   6.518
 3284POPC   C3A44933  31.396   3.975   6.965
 3284POPC   C4A44934  31.607   4.120   7.322
 3284POPC   C1B44935  31.575   4.462   6.207
 3284POPC   C2B44936  31.458   4.551   6.607
 3284POPC   C3B44937  31.680   4.472   6.964
 3284POPC   C4B44938  31.549   4.632   7.367
 3285POPC   NC344939  11.173  30.356   5.490
 3285POPC   PO444940  11.120  30.908   5.564
 3285POPC   GL144941  11.340  30.903   5.979
 3285POPC   GL244942  11.731  30.834   6.047
 3285POPC   C1A44943  11.067  30.719   6.329
 3285POPC   D2A44944  11.039  30.390   6.670
 3285POPC   C3A44945  10.973  30.614   7.075
 3285POPC   C4A44946  11.122  30.975   7.310
 3285POPC   C1B44947  11.537  30.590   6.365
 3285POPC   C2B44948  11.402  30.733   6.775
 3285POPC   C3B44949  11.487  30.603   7.182
 3285POPC   C4B44950  11.557  30.754   7.580
 3286POPC   NC344951   5.045  28.760   5.400
 3286POPC   PO444952   5.341  29.379   5.233
 3286POPC   GL144953   5.194  29.219   5.636
 3286POPC   GL244954   5.106  29.517   5.814
 3286POPC   C1A44955   5.068  29.030   6.034
 3286POPC   D2A44956   4.969  28.935   6.457
 3286POPC   C3A44957   5.092  29.032   6.865
 3286POPC   C4A44958   5.009  28.888   7.265
 3286POPC   C1B44959   4.837  29.479   6.189
 3286POPC   C2B44960   4.812  29.397   6.619
 3286POPC   C3B44961   4.994  29.526   6.971
 3286POPC   C4B44962   4.918  29.390   7.342
 3287POPC   NC344963  30.578  31.663   5.258
 3287POPC   PO444964  30.990  31.121   5.173
 3287POPC   GL144965  30.737  31.299   5.588
 3287POPC   GL244966  30.771  31.647   5.738
 3287POPC   C1A44967  30.570  31.301   6.045
 3287POPC   D2A44968  30.695  31.479   6.476
 3287POPC   C3A44969  30.558  31.282   6.884
 3287POPC   C4A44970  30.695  31.183   7.311
 3287POPC   C1B44971  30.546  31.827   6.084
 3287POPC   C2B44972  30.540  31.978   6.521
 3287POPC   C3B44973  30.656  31.796   6.929
 3287POPC   C4B44974  30.444  31.802   7.310
 3288POPC   NC344975  34.696  36.667   5.422
 3288POPC   PO444976  34.271  37.220   5.584
 3288POPC   GL144977  34.505  37.114   5.994
 3288POPC   GL244978  34.879  37.011   5.923
 3288POPC   C1A44979  34.425  36.862   6.386
 3288POPC   D2A44980  34.596  36.449   6.552
 3288POPC   C3A44981  34.854  36.522   6.931
 3288POPC   C4A44982  34.666  36.828   7.196
 3288POPC   C1B44983  34.933  36.945   6.377
 3288POPC   C2B44984  34.752  37.106   6.760
 3288POPC   C3B44985  34.836  37.309   7.158
 3288POPC   C4B44986  34.706  37.170   7.594
 3289POPC   NC344987  27.370   0.613   5.399
 3289POPC   PO444988  27.550  44.979   5.254
 3289POPC   GL144989  27.659   0.279   5.653
 3289POPC   GL244990  27.353   0.239   5.831
 3289POPC   C1A44991  27.681   0.505   6.108
 3289POPC   D2A44992  27.587   0.565   6.558
 3289POPC   C3A44993  27.508   0.181   6.833
 3289POPC   C4A44994  27.743   0.274   7.207
 3289POPC   C1B44995  27.250   0.265   6.288
 3289POPC   C2B44996  27.093   0.501   6.646
 3289POPC   C3B44997  27.296   0.598   7.010
 3289POPC   C4B44998  27.270   0.332   7.336
 3290POPC   NC344999  11.677  21.998   5.351
 3290POPC   PO445000  11.175  22.415   5.284
 3290POPC   GL145001  11.279  22.357   5.734
 3290POPC   GL245002  11.654  22.423   5.765
 3290POPC   C1A45003  11.214  22.062   6.117
 3290POPC   D2A45004  11.290  21.845   6.512
 3290POPC   C3A45005  11.305  22.054   6.899
 3290POPC   C4A45006  11.230  21.936   7.308
 3290POPC   C1B45007  11.483  22.490   6.185
 3290POPC   C2B45008  11.248  22.435   6.557
 3290POPC   C3B45009  11.412  22.546   6.987
 3290POPC   C4B45010  11.589  22.294   7.328
 3291POPC   NC345011  31.055  33.495   5.265
 3291POPC   PO445012  31.679  33.760   5.271
 3291POPC   GL145013  31.661  33.966   5.692
 3291POPC   GL245014  31.468  33.667   5.768
 3291POPC   C1A45015  31.598  34.006   6.184
 3291POPC   D2A45016  31.384  33.971   6.618
 3291POPC   C3A45017  31.604  33.952   7.033
 3291POPC   C4A45018  31.572  33.952   7.493
 3291POPC   C1B45019  31.227  33.618   6.139
 3291POPC   C2B45020  31.193  33.495   6.556
 3291POPC   C3B45021  31.377  33.510   6.951
 3291POPC   C4B45022  31.520  33.465   7.376
 3292POPC   NC345023  44.118  21.939   5.460
 3292POPC   PO445024  43.522  22.124   5.497
 3292POPC   GL145025  43.778  22.043   5.860
 3292POPC   GL245026  44.040  22.327   5.826
 3292POPC   C1A45027  43.780  21.889   6.306
 3292POPC   D2A45028  43.867  22.101   6.702
 3292POPC   C3A45029  43.805  21.955   7.120
 3292POPC   C4A45030  43.900  22.067   7.563
 3292POPC   C1B45031  43.849  22.392   6.246
 3292POPC   C2B45032  43.559  22.491   6.598
 3292POPC   C3B45033  43.685  22.465   7.051
 3292POPC   C4B45034  44.031  22.522   7.281
 3293POPC   NC345035  28.109  13.804   5.433
 3293POPC   PO445036  28.192  13.132   5.478
 3293POPC   GL145037  28.282  13.453   5.790
 3293POPC   GL245038  28.590  13.611   5.698
 3293POPC   C1A45039  28.305  13.739   6.182
 3293POPC   D2A45040  28.477  13.864   6.618
 3293POPC   C3A45041  28.195  13.862   7.013
 3293POPC   C4A45042  28.123  13.902   7.488
 3293POPC   C1B45043  28.686  13.408   6.121
 3293POPC   C2B45044  28.641  13.263   6.560
 3293POPC   C3B45045  28.590  13.471   6.969
 3293POPC   C4B45046  28.334  13.487   7.342
 3294POPC   NC345047  30.196  18.792   5.426
 3294POPC   PO445048  29.822  19.280   5.057
 3294POPC   GL145049  29.882  19.191   5.525
 3294POPC   GL245050  30.231  19.278   5.669
 3294POPC   C1A45051  29.853  19.040   5.975
 3294POPC   D2A45052  30.116  18.873   6.338
 3294POPC   C3A45053  29.970  19.009   6.752
 3294POPC   C4A45054  29.961  18.859   7.167
 3294POPC   C1B45055  30.269  19.359   6.131
 3294POPC   C2B45056  30.382  19.277   6.581
 3294POPC   C3B45057  30.251  19.371   7.003
 3294POPC   C4B45058  29.926  19.358   7.296
 3295POPC   NC345059  20.981  15.463   5.465
 3295POPC   PO445060  20.312  15.243   5.337
 3295POPC   GL145061  20.588  15.157   5.672
 3295POPC   GL245062  20.613  15.472   5.797
 3295POPC   C1A45063  20.662  15.023   6.106
 3295POPC   D2A45064  20.564  14.797   6.514
 3295POPC   C3A45065  20.778  14.971   6.877
 3295POPC   C4A45066  20.708  15.091   7.306
 3295POPC   C1B45067  20.546  15.525   6.188
 3295POPC   C2B45068  20.625  15.329   6.549
 3295POPC   C3B45069  20.618  15.467   6.956
 3295POPC   C4B45070  20.824  15.637   7.295
 3296POPC   NC345071  17.967   0.148   5.479
 3296POPC   PO445072  18.318  44.599   5.337
 3296POPC   GL145073  18.365  44.822   5.736
 3296POPC   GL245074  18.044  44.746   5.802
 3296POPC   C1A45075  18.319  44.923   6.199
 3296POPC   D2A45076  18.529  44.856   6.592
 3296POPC   C3A45077  18.413  44.954   7.007
 3296POPC   C4A45078  18.363  44.704   7.356
 3296POPC   C1B45079  18.079  44.457   6.138
 3296POPC   C2B45080  18.103  44.513   6.574
 3296POPC   C3B45081  17.983  44.701   6.966
 3296POPC   C4B45082  17.830  44.669   7.393
 3297POPC   NC345083  43.407   6.143   5.404
 3297POPC   PO445084  43.000   5.661   5.482
 3297POPC   GL145085  42.986   5.957   5.822
 3297POPC   GL245086  42.623   5.989   5.908
 3297POPC   C1A45087  42.979   6.007   6.280
 3297POPC   D2A45088  42.948   5.989   6.739
 3297POPC   C3A45089  43.366   6.046   6.920
 3297POPC   C4A45090  43.528   5.954   7.332
 3297POPC   C1B45091  42.765   5.572   6.109
 3297POPC   C2B45092  42.781   5.417   6.528
 3297POPC   C3B45093  42.991   5.404   6.907
 3297POPC   C4B45094  43.057   5.746   7.213
 3298POPC   NC345095  12.525  37.688   5.111
 3298POPC   PO445096  13.112  37.603   5.538
 3298POPC   GL145097  12.906  37.829   5.818
 3298POPC   GL245098  12.613  37.902   5.619
 3298POPC   C1A45099  12.839  37.655   6.213
 3298POPC   D2A45100  12.683  37.528   6.596
 3298POPC   C3A45101  12.921  37.490   6.942
 3298POPC   C4A45102  12.648  37.529   7.270
 3298POPC   C1B45103  12.503  38.030   6.079
 3298POPC   C2B45104  12.725  38.053   6.510
 3298POPC   C3B45105  12.670  37.950   6.934
 3298POPC   C4B45106  12.461  38.065   7.299
 3299POPC   NC345107  40.254   7.614   5.452
 3299POPC   PO445108  39.785   7.173   5.527
 3299POPC   GL145109  39.874   7.530   5.793
 3299POPC   GL245110  40.163   7.424   5.918
 3299POPC   C1A45111  39.744   7.564   6.215
 3299POPC   D2A45112  39.888   7.335   6.591
 3299POPC   C3A45113  39.803   7.533   6.950
 3299POPC   C4A45114  39.615   7.514   7.356
 3299POPC   C1B45115  40.253   7.178   6.271
 3299POPC   C2B45116  40.457   7.149   6.665
 3299POPC   C3B45117  40.193   7.173   6.998
 3299POPC   C4B45118  40.132   7.333   7.412
 3300POPC   NC345119   8.507  41.311   5.338
 3300POPC   PO445120   8.550  42.077   5.392
 3300POPC   GL145121   8.275  41.727   5.652
 3300POPC   GL245122   7.909  41.549   5.732
 3300POPC   C1A45123   8.249  41.594   6.124
 3300POPC   D2A45124   8.058  41.601   6.564
 3300POPC   C3A45125   8.293  41.487   6.941
 3300POPC   C4A45126   8.373  41.686   7.337
 3300POPC   C1B45127   7.728  41.534   6.171
 3300POPC   C2B45128   7.547  41.441   6.584
 3300POPC   C3B45129   7.790  41.354   6.944
 3300POPC   C4B45130   7.904  41.491   7.333
 3301POPC   NC345131  24.494  26.341   5.654
 3301POPC   PO445132  24.796  26.714   5.236
 3301POPC   GL145133  24.739  26.744   5.810
 3301POPC   GL245134  24.382  26.926   5.935
 3301POPC   C1A45135  24.703  26.893   6.303
 3301POPC   D2A45136  24.547  27.135   6.705
 3301POPC   C3A45137  24.748  26.941   7.093
 3301POPC   C4A45138  24.787  26.623   7.423
 3301POPC   C1B45139  24.272  26.548   6.224
 3301POPC   C2B45140  24.399  26.400   6.664
 3301POPC   C3B45141  24.327  26.644   7.058
 3301POPC   C4B45142  24.182  27.078   7.081
 3302POPC   NC345143   6.780  15.512   5.511
 3302POPC   PO445144   6.212  15.872   5.394
 3302POPC   GL145145   6.455  15.763   5.797
 3302POPC   GL245146   6.598  16.065   5.926
 3302POPC   C1A45147   6.819  15.667   6.139
 3302POPC   D2A45148   6.965  15.859   6.533
 3302POPC   C3A45149   6.577  16.010   6.676
 3302POPC   C4A45150   6.438  15.701   6.978
 3302POPC   C1B45151   7.042  16.147   6.107
 3302POPC   C2B45152   7.153  16.339   6.493
 3302POPC   C3B45153   7.011  16.316   6.890
 3302POPC   C4B45154   6.856  15.975   7.084
 3303POPC   NC345155  16.350  43.876   5.485
 3303POPC   PO445156  16.929  44.193   5.248
 3303POPC   GL145157  16.731  44.176   5.732
 3303POPC   GL245158  16.470  44.000   5.965
 3303POPC   C1A45159  16.812  44.317   6.161
 3303POPC   D2A45160  16.585  44.356   6.524
 3303POPC   C3A45161  16.685  44.065   6.825
 3303POPC   C4A45162  16.711  44.237   7.208
 3303POPC   C1B45163  16.726  43.840   6.331
 3303POPC   C2B45164  17.055  43.589   6.542
 3303POPC   C3B45165  17.070  43.473   6.971
 3303POPC   C4B45166  16.770  43.709   7.248
 3304POPC   NC345167  35.262  10.551   4.923
 3304POPC   PO445168  35.443  10.889   5.469
 3304POPC   GL145169  35.322  10.593   5.805
 3304POPC   GL245170  35.612  10.359   5.859
 3304POPC   C1A45171  35.303  10.406   6.238
 3304POPC   D2A45172  35.417  10.597   6.628
 3304POPC   C3A45173  35.345  10.431   7.043
 3304POPC   C4A45174  34.984  10.615   7.280
 3304POPC   C1B45175  35.741  10.132   6.258
 3304POPC   C2B45176  35.815  10.271   6.693
 3304POPC   C3B45177  35.868  10.674   6.879
 3304POPC   C4B45178  35.754  10.768   7.289
 3305POPC   NC345179  14.589  27.006   5.716
 3305POPC   PO445180  14.339  27.499   5.292
 3305POPC   GL145181  14.539  27.524   5.677
 3305POPC   GL245182  14.240  27.480   5.817
 3305POPC   C1A45183  14.630  27.522   6.149
 3305POPC   D2A45184  14.408  27.360   6.511
 3305POPC   C3A45185  14.509  27.535   6.907
 3305POPC   C4A45186  14.153  27.483   7.176
 3305POPC   C1B45187  14.172  27.727   6.205
 3305POPC   C2B45188  14.020  27.705   6.621
 3305POPC   C3B45189  14.148  27.927   6.947
 3305POPC   C4B45190  14.544  27.959   7.186
 3306POPC   NC345191  16.242   6.884   5.181
 3306POPC   PO445192  16.095   6.259   5.407
 3306POPC   GL145193  16.239   6.570   5.740
 3306POPC   GL245194  16.068   6.893   5.683
 3306POPC   C1A45195  16.112   6.557   6.215
 3306POPC   D2A45196  15.735   6.754   6.494
 3306POPC   C3A45197  15.700   6.666   6.962
 3306POPC   C4A45198  15.533   6.461   7.349
 3306POPC   C1B45199  16.000   7.028   6.137
 3306POPC   C2B45200  16.199   6.919   6.583
 3306POPC   C3B45201  16.072   7.038   7.007
 3306POPC   C4B45202  15.924   6.784   7.413
 3307POPC   NC345203  36.085  31.979   5.160
 3307POPC   PO445204  36.442  32.407   5.472
 3307POPC   GL145205  36.201  32.249   5.773
 3307POPC   GL245206  36.457  32.023   5.850
 3307POPC   C1A45207  35.912  32.244   6.131
 3307POPC   D2A45208  35.681  32.403   6.496
 3307POPC   C3A45209  35.689  32.152   6.861
 3307POPC   C4A45210  35.691  32.134   7.304
 3307POPC   C1B45211  36.436  32.248   6.240
 3307POPC   C2B45212  36.170  32.169   6.623
 3307POPC   C3B45213  36.121  32.318   7.067
 3307POPC   C4B45214  36.372  32.448   7.429
 3308POPC   NC345215  20.398  35.675   5.008
 3308POPC   PO445216  20.751  35.510   5.416
 3308POPC   GL145217  20.641  35.294   5.830
 3308POPC   GL245218  20.365  35.062   5.847
 3308POPC   C1A45219  20.532  35.389   6.299
 3308POPC   D2A45220  20.432  35.531   6.752
 3308POPC   C3A45221  20.668  35.331   7.100
 3308POPC   C4A45222  20.839  34.907   7.179
 3308POPC   C1B45223  20.571  34.887   6.239
 3308POPC   C2B45224  20.600  34.998   6.693
 3308POPC   C3B45225  20.332  34.902   7.067
 3308POPC   C4B45226  20.406  34.675   7.453
 3309POPC   NC345227  39.719  16.978   5.207
 3309POPC   PO445228  39.226  16.512   5.480
 3309POPC   GL145229  39.003  16.610   5.855
 3309POPC   GL245230  39.278  16.821   5.955
 3309POPC   C1A45231  38.951  16.765   6.297
 3309POPC   D2A45232  39.195  17.045   6.543
 3309POPC   C3A45233  39.006  16.881   6.906
 3309POPC   C4A45234  38.960  16.589   7.228
 3309POPC   C1B45235  39.415  16.497   6.239
 3309POPC   C2B45236  39.512  16.364   6.624
 3309POPC   C3B45237  39.445  16.610   6.959
 3309POPC   C4B45238  39.452  16.422   7.314
 3310POPC   NC345239   9.808  18.195   5.408
 3310POPC   PO445240   9.988  18.791   5.263
 3310POPC   GL145241   9.794  18.612   5.721
 3310POPC   GL245242   9.600  18.258   5.837
 3310POPC   C1A45243   9.614  18.601   6.186
 3310POPC   D2A45244   9.681  18.675   6.603
 3310POPC   C3A45245   9.595  18.469   6.975
 3310POPC   C4A45246   9.926  18.362   7.261
 3310POPC   C1B45247   9.480  18.019   6.184
 3310POPC   C2B45248   9.631  18.144   6.561
 3310POPC   C3B45249   9.600  17.974   6.946
 3310POPC   C4B45250   9.478  18.101   7.374
 3311POPC   NC345251  40.989  25.525   5.404
 3311POPC   PO445252  40.526  25.048   5.401
 3311POPC   GL145253  40.688  25.224   5.774
 3311POPC   GL245254  40.581  25.528   5.933
 3311POPC   C1A45255  40.757  25.116   6.216
 3311POPC   D2A45256  40.959  25.191   6.599
 3311POPC   C3A45257  40.680  25.344   6.931
 3311POPC   C4A45258  40.686  25.038   7.256
 3311POPC   C1B45259  41.010  25.550   6.150
 3311POPC   C2B45260  41.316  25.545   6.532
 3311POPC   C3B45261  41.180  25.518   6.950
 3311POPC   C4B45262  40.978  25.447   7.341
 3312POPC   NC345263  42.591  40.973   5.635
 3312POPC   PO445264  42.744  40.322   5.440
 3312POPC   GL145265  42.581  40.509   5.866
 3312POPC   GL245266  42.683  40.828   6.097
 3312POPC   C1A45267  42.239  40.351   6.158
 3312POPC   D2A45268  42.031  40.392   6.562
 3312POPC   C3A45269  42.338  40.503   6.880
 3312POPC   C4A45270  42.252  40.535   7.287
 3312POPC   C1B45271  42.361  40.786   6.420
 3312POPC   C2B45272  42.017  40.898   6.722
 3312POPC   C3B45273  42.222  41.001   7.076
 3312POPC   C4B45274  42.671  40.925   7.143
 3313POPC   NC345275   4.106  31.790   5.429
 3313POPC   PO445276   4.320  32.378   5.413
 3313POPC   GL145277   4.418  32.052   5.752
 3313POPC   GL245278   4.103  32.014   5.889
 3313POPC   C1A45279   4.505  31.910   6.200
 3313POPC   D2A45280   4.296  32.073   6.544
 3313POPC   C3A45281   4.401  32.067   6.937
 3313POPC   C4A45282   4.296  32.372   7.227
 3313POPC   C1B45283   4.241  32.398   6.149
 3313POPC   C2B45284   4.058  32.552   6.578
 3313POPC   C3B45285   3.884  32.626   7.015
 3313POPC   C4B45286   3.962  32.813   7.442
 3314POPC   NC345287  41.854   2.196   5.455
 3314POPC   PO445288  41.379   1.761   5.127
 3314POPC   GL145289  41.495   1.864   5.606
 3314POPC   GL245290  41.437   2.205   5.776
 3314POPC   C1A45291  41.776   1.896   6.022
 3314POPC   D2A45292  41.952   2.102   6.402
 3314POPC   C3A45293  41.698   1.938   6.739
 3314POPC   C4A45294  41.680   2.074   7.151
 3314POPC   C1B45295  41.447   2.207   6.285
 3314POPC   C2B45296  41.432   2.376   6.752
 3314POPC   C3B45297  41.189   2.160   7.108
 3314POPC   C4B45298  41.038   2.221   7.551
 3315POPC   NC345299  44.982  21.580   5.778
 3315POPC   PO445300   0.399  21.259   5.361
 3315POPC   GL145301   0.477  21.238   5.828
 3315POPC   GL245302   0.787  21.000   5.883
 3315POPC   C1A45303   0.353  21.379   6.280
 3315POPC   D2A45304   0.080  21.505   6.639
 3315POPC   C3A45305   0.239  21.693   7.033
 3315POPC   C4A45306   0.486  21.574   7.409
 3315POPC   C1B45307   0.561  20.926   6.251
 3315POPC   C2B45308   0.600  21.108   6.652
 3315POPC   C3B45309   0.641  21.223   7.063
 3315POPC   C4B45310   0.431  21.083   7.414
 3316POPC   NC345311   7.685  38.209   5.420
 3316POPC   PO445312   8.368  38.368   5.539
 3316POPC   GL145313   8.265  38.386   5.905
 3316POPC   GL245314   7.932  38.282   5.859
 3316POPC   C1A45315   8.435  38.409   6.283
 3316POPC   D2A45316   8.417  38.702   6.594
 3316POPC   C3A45317   8.185  38.475   6.853
 3316POPC   C4A45318   8.245  38.410   7.232
 3316POPC   C1B45319   7.811  38.303   6.275
 3316POPC   C2B45320   7.705  38.351   6.707
 3316POPC   C3B45321   7.778  38.209   7.141
 3316POPC   C4B45322   7.748  38.172   7.630
 3317POPC   NC345323  25.222  26.597   5.382
 3317POPC   PO445324  24.940  27.157   5.607
 3317POPC   GL145325  25.236  26.938   5.852
 3317POPC   GL245326  25.289  26.584   5.878
 3317POPC   C1A45327  25.233  26.859   6.299
 3317POPC   D2A45328  25.072  27.062   6.656
 3317POPC   C3A45329  25.329  26.913   6.966
 3317POPC   C4A45330  25.237  26.875   7.382
 3317POPC   C1B45331  25.409  26.328   6.216
 3317POPC   C2B45332  25.335  26.109   6.608
 3317POPC   C3B45333  25.457  26.149   7.033
 3317POPC   C4B45334  25.594  26.526   7.201
 3318POPC   NC345335  35.496  39.835   5.425
 3318POPC   PO445336  34.880  40.247   5.428
 3318POPC   GL145337  35.051  40.082   5.806
 3318POPC   GL245338  35.179  39.733   5.846
 3318POPC   C1A45339  35.218  40.105   6.227
 3318POPC   D2A45340  35.318  39.780   6.513
 3318POPC   C3A45341  35.087  39.861   6.880
 3318POPC   C4A45342  35.043  39.669   7.270
 3318POPC   C1B45343  35.621  39.814   6.080
 3318POPC   C2B45344  35.770  40.028   6.488
 3318POPC   C3B45345  35.612  39.920   6.906
 3318POPC   C4B45346  35.626  39.657   7.256
 3319POPC   NC345347  12.308  13.785   5.522
 3319POPC   PO445348  11.646  13.546   5.434
 3319POPC   GL145349  11.908  13.586   5.794
 3319POPC   GL245350  12.151  13.319   5.788
 3319POPC   C1A45351  11.911  13.738   6.236
 3319POPC   D2A45352  11.614  13.902   6.549
 3319POPC   C3A45353  11.735  13.813   6.979
 3319POPC   C4A45354  12.105  13.888   7.177
 3319POPC   C1B45355  12.255  13.344   6.259
 3319POPC   C2B45356  12.259  13.313   6.715
 3319POPC   C3B45357  12.029  13.364   7.113
 3319POPC   C4B45358  12.121  13.159   7.525
 3320POPC   NC345359  39.605  29.311   5.376
 3320POPC   PO445360  40.207  28.929   5.453
 3320POPC   GL145361  40.044  29.079   5.839
 3320POPC   GL245362  39.681  28.990   5.796
 3320POPC   C1A45363  40.261  29.276   6.219
 3320POPC   D2A45364  40.283  29.498   6.607
 3320POPC   C3A45365  40.114  29.221   6.923
 3320POPC   C4A45366  40.025  29.441   7.264
 3320POPC   C1B45367  39.639  29.309   6.074
 3320POPC   C2B45368  39.797  29.334   6.482
 3320POPC   C3B45369  39.758  29.568   6.834
 3320POPC   C4B45370  39.499  29.456   7.194
 3321POPC   NC345371  30.112  22.041   5.584
 3321POPC   PO445372  29.432  22.258   5.505
 3321POPC   GL145373  29.691  22.130   5.832
 3321POPC   GL245374  29.700  21.745   5.741
 3321POPC   C1A45375  29.917  22.308   6.211
 3321POPC   D2A45376  30.026  22.061   6.584
 3321POPC   C3A45377  29.829  22.164   6.938
 3321POPC   C4A45378  30.187  22.233   7.163
 3321POPC   C1B45379  29.844  21.803   6.175
 3321POPC   C2B45380  29.601  21.822   6.555
 3321POPC   C3B45381  29.720  21.632   6.962
 3321POPC   C4B45382  29.958  21.795   7.274
 3322POPC   NC345383  18.572  26.734   5.437
 3322POPC   PO445384  19.200  26.899   5.434
 3322POPC   GL145385  19.153  26.623   5.763
 3322POPC   GL245386  18.908  26.370   5.615
 3322POPC   C1A45387  19.115  26.767   6.206
 3322POPC   D2A45388  18.988  26.729   6.630
 3322POPC   C3A45389  19.308  26.719   6.910
 3322POPC   C4A45390  19.264  26.923   7.284
 3322POPC   C1B45391  18.747  26.430   6.038
 3322POPC   C2B45392  18.765  26.281   6.466
 3322POPC   C3B45393  18.635  26.458   6.872
 3322POPC   C4B45394  18.943  26.506   7.189
 3323POPC   NC345395  40.543   3.177   5.235
 3323POPC   PO445396  40.724   3.736   5.482
 3323POPC   GL145397  40.860   3.652   5.925
 3323POPC   GL245398  40.925   3.294   5.949
 3323POPC   C1A45399  40.876   3.672   6.393
 3323POPC   D2A45400  41.024   3.769   6.790
 3323POPC   C3A45401  40.751   3.644   7.158
 3323POPC   C4A45402  40.855   3.711   7.624
 3323POPC   C1B45403  41.028   3.183   6.395
 3323POPC   C2B45404  40.963   3.254   6.857
 3323POPC   C3B45405  40.971   3.226   7.351
 3323POPC   C4B45406  41.098   3.126   7.813
 3324POPC   NC345407  30.426  40.836   5.095
 3324POPC   PO445408  30.296  40.393   5.571
 3324POPC   GL145409  29.959  40.631   5.835
 3324POPC   GL245410  29.619  40.476   5.869
 3324POPC   C1A45411  29.951  40.934   6.226
 3324POPC   D2A45412  30.219  41.103   6.590
 3324POPC   C3A45413  30.142  40.997   7.052
 3324POPC   C4A45414  29.790  41.035   7.331
 3324POPC   C1B45415  29.627  40.546   6.343
 3324POPC   C2B45416  29.768  40.773   6.748
 3324POPC   C3B45417  29.880  40.539   7.148
 3324POPC   C4B45418  29.807  40.373   7.577
 3325POPC   NC345419  33.892   2.081   5.281
 3325POPC   PO445420  33.418   1.969   5.617
 3325POPC   GL145421  33.795   2.012   5.803
 3325POPC   GL245422  33.865   1.687   5.636
 3325POPC   C1A45423  33.809   2.097   6.272
 3325POPC   D2A45424  33.503   2.093   6.631
 3325POPC   C3A45425  33.610   2.031   7.104
 3325POPC   C4A45426  33.551   2.019   7.569
 3325POPC   C1B45427  33.734   1.604   6.102
 3325POPC   C2B45428  33.871   1.671   6.554
 3325POPC   C3B45429  33.964   1.661   7.013
 3325POPC   C4B45430  33.649   1.571   7.352
 3326POPC   NC345431  24.780  25.396   5.493
 3326POPC   PO445432  24.103  25.251   5.469
 3326POPC   GL145433  24.378  25.089   5.814
 3326POPC   GL245434  24.723  25.086   5.878
 3326POPC   C1A45435  24.256  25.132   6.271
 3326POPC   D2A45436  24.216  25.474   6.573
 3326POPC   C3A45437  24.120  25.336   6.985
 3326POPC   C4A45438  24.239  25.467   7.363
 3326POPC   C1B45439  24.735  24.909   6.284
 3326POPC   C2B45440  24.808  24.984   6.726
 3326POPC   C3B45441  24.822  24.993   7.176
 3326POPC   C4B45442  24.659  25.256   7.533
 3327POPC   NC345443   5.029  34.786   5.500
 3327POPC   PO445444   4.608  34.363   5.579
 3327POPC   GL145445   4.933  34.442   5.872
 3327POPC   GL245446   5.246  34.273   5.718
 3327POPC   C1A45447   4.899  34.724   6.254
 3327POPC   D2A45448   4.832  35.001   6.629
 3327POPC   C3A45449   5.122  34.823   6.940
 3327POPC   C4A45450   4.919  34.492   7.218
 3327POPC   C1B45451   5.365  34.309   6.160
 3327POPC   C2B45452   5.283  34.489   6.557
 3327POPC   C3B45453   5.343  34.345   6.989
 3327POPC   C4B45454   5.347  34.347   7.470
 3328POPC   NC345455  33.043  15.858   5.474
 3328POPC   PO445456  33.611  16.197   5.301
 3328POPC   GL145457  33.352  16.232   5.730
 3328POPC   GL245458  32.973  16.179   5.845
 3328POPC   C1A45459  33.318  16.060   6.171
 3328POPC   D2A45460  33.194  16.247   6.546
 3328POPC   C3A45461  33.340  16.016   6.872
 3328POPC   C4A45462  33.356  16.043   7.283
 3328POPC   C1B45463  32.773  16.187   6.213
 3328POPC   C2B45464  32.691  16.408   6.595
 3328POPC   C3B45465  32.825  16.132   6.931
 3328POPC   C4B45466  32.728  16.013   7.318
 3329POPC   NC345467  23.245  15.157   5.476
 3329POPC   PO445468  22.713  15.524   5.783
 3329POPC   GL145469  22.908  15.123   5.862
 3329POPC   GL245470  23.172  15.307   5.974
 3329POPC   C1A45471  22.899  14.769   6.161
 3329POPC   D2A45472  22.690  14.681   6.582
 3329POPC   C3A45473  22.892  14.935   6.918
 3329POPC   C4A45474  23.114  15.278   7.176
 3329POPC   C1B45475  23.089  15.162   6.406
 3329POPC   C2B45476  23.362  15.048   6.746
 3329POPC   C3B45477  23.476  14.900   7.159
 3329POPC   C4B45478  23.287  14.976   7.549
 3330POPC   NC345479  42.561  21.786   5.347
 3330POPC   PO445480  42.075  21.427   5.144
 3330POPC   GL145481  42.145  21.321   5.634
 3330POPC   GL245482  42.505  21.447   5.713
 3330POPC   C1A45483  42.219  21.372   6.118
 3330POPC   D2A45484  42.368  21.704   6.430
 3330POPC   C3A45485  42.439  21.590   6.880
 3330POPC   C4A45486  42.255  21.189   7.056
 3330POPC   C1B45487  42.727  21.443   6.126
 3330POPC   C2B45488  42.632  21.252   6.526
 3330POPC   C3B45489  42.780  21.219   6.952
 3330POPC   C4B45490  42.641  21.272   7.376
 3331POPC   NC345491   5.077  19.395   5.337
 3331POPC   PO445492   5.386  18.798   5.444
 3331POPC   GL145493   5.279  19.123   5.735
 3331POPC   GL245494   4.900  19.118   5.739
 3331POPC   C1A45495   5.248  19.061   6.157
 3331POPC   D2A45496   5.303  18.796   6.505
 3331POPC   C3A45497   5.153  18.957   6.885
 3331POPC   C4A45498   5.258  18.852   7.295
 3331POPC   C1B45499   4.797  19.325   6.119
 3331POPC   C2B45500   4.940  19.271   6.524
 3331POPC   C3B45501   4.714  19.343   6.891
 3331POPC   C4B45502   4.860  19.203   7.265
 3332POPC   NC345503  20.329   1.647   5.505
 3332POPC   PO445504  20.994   1.877   5.417
 3332POPC   GL145505  20.784   1.789   5.812
 3332POPC   GL245506  20.499   1.992   5.839
 3332POPC   C1A45507  20.794   1.813   6.264
 3332POPC   D2A45508  20.578   1.702   6.634
 3332POPC   C3A45509  20.722   1.946   6.977
 3332POPC   C4A45510  20.913   1.848   7.358
 3332POPC   C1B45511  20.275   1.805   6.178
 3332POPC   C2B45512  20.180   2.020   6.549
 3332POPC   C3B45513  20.200   1.926   6.969
 3332POPC   C4B45514  20.398   1.543   7.095
 3333POPC   NC345515  36.883  12.364   5.293
 3333POPC   PO445516  36.861  13.076   5.370
 3333POPC   GL145517  36.886  12.880   5.745
 3333POPC   GL245518  37.102  13.153   5.838
 3333POPC   C1A45519  36.704  12.950   6.147
 3333POPC   D2A45520  36.512  12.812   6.525
 3333POPC   C3A45521  36.774  12.765   6.876
 3333POPC   C4A45522  36.686  12.703   7.301
 3333POPC   C1B45523  37.190  13.114   6.233
 3333POPC   C2B45524  36.965  13.228   6.579
 3333POPC   C3B45525  37.148  13.267   6.962
 3333POPC   C4B45526  37.121  13.032   7.322
 3334POPC   NC345527  27.743   2.127   5.466
 3334POPC   PO445528  27.421   1.497   5.358
 3334POPC   GL145529  27.509   1.723   5.765
 3334POPC   GL245530  27.425   2.091   5.847
 3334POPC   C1A45531  27.710   1.709   6.188
 3334POPC   D2A45532  27.872   1.850   6.616
 3334POPC   C3A45533  27.649   1.789   7.049
 3334POPC   C4A45534  27.747   1.744   7.519
 3334POPC   C1B45535  27.602   2.208   6.242
 3334POPC   C2B45536  27.443   2.113   6.658
 3334POPC   C3B45537  27.528   2.304   7.047
 3334POPC   C4B45538  27.856   2.240   7.337
 3335POPC   NC345539  28.870  21.075   5.469
 3335POPC   PO445540  29.267  21.482   5.210
 3335POPC   GL145541  29.275  21.330   5.675
 3335POPC   GL245542  29.032  21.526   5.746
 3335POPC   C1A45543  29.069  21.160   6.092
 3335POPC   D2A45544  28.836  21.169   6.474
 3335POPC   C3A45545  29.083  21.095   6.871
 3335POPC   C4A45546  29.254  21.353   7.215
 3335POPC   C1B45547  28.893  21.664   6.157
 3335POPC   C2B45548  28.781  21.671   6.591
 3335POPC   C3B45549  28.825  21.524   7.008
 3335POPC   C4B45550  28.975  21.783   7.352
 3336POPC   NC345551  44.337  31.236   5.465
 3336POPC   PO445552  43.655  31.482   5.386
 3336POPC   GL145553  43.746  31.531   5.844
 3336POPC   GL245554  43.943  31.257   5.785
 3336POPC   C1A45555  44.020  31.576   6.254
 3336POPC   D2A45556  44.193  31.627   6.693
 3336POPC   C3A45557  43.921  31.628   7.086
 3336POPC   C4A45558  43.817  31.627   7.583
 3336POPC   C1B45559  43.854  31.107   6.175
 3336POPC   C2B45560  43.909  31.174   6.590
 3336POPC   C3B45561  43.671  31.168   6.924
 3336POPC   C4B45562  43.468  31.397   7.235
 3337POPC   NC345563  33.230  32.848   5.148
 3337POPC   PO445564  32.897  33.333   5.348
 3337POPC   GL145565  33.132  33.335   5.742
 3337POPC   GL245566  33.209  33.034   5.944
 3337POPC   C1A45567  32.927  33.406   6.151
 3337POPC   D2A45568  32.726  33.407   6.540
 3337POPC   C3A45569  32.923  33.258   6.929
 3337POPC   C4A45570  32.747  32.922   7.146
 3337POPC   C1B45571  33.018  32.907   6.329
 3337POPC   C2B45572  33.253  32.935   6.705
 3337POPC   C3B45573  33.246  32.802   7.121
 3337POPC   C4B45574  33.164  32.682   7.553
 3338POPC   NC345575  15.670   1.839   5.257
 3338POPC   PO445576  15.026   1.901   5.413
 3338POPC   GL145577  15.229   2.161   5.693
 3338POPC   GL245578  15.279   1.869   5.871
 3338POPC   C1A45579  15.301   2.298   6.118
 3338POPC   D2A45580  15.078   2.259   6.505
 3338POPC   C3A45581  15.174   2.028   6.875
 3338POPC   C4A45582  15.306   2.120   7.265
 3338POPC   C1B45583  14.964   1.828   6.197
 3338POPC   C2B45584  14.777   1.862   6.612
 3338POPC   C3B45585  14.785   1.704   7.046
 3338POPC   C4B45586  15.052   1.702   7.428
 3339POPC   NC345587  17.068   6.939   5.541
 3339POPC   PO445588  17.682   6.804   5.258
 3339POPC   GL145589  17.511   6.693   5.649
 3339POPC   GL245590  17.524   6.372   5.736
 3339POPC   C1A45591  17.608   6.701   6.115
 3339POPC   D2A45592  17.499   6.871   6.499
 3339POPC   C3A45593  17.568   6.696   6.918
 3339POPC   C4A45594  17.584   6.946   7.255
 3339POPC   C1B45595  17.506   6.220   6.197
 3339POPC   C2B45596  17.444   6.319   6.592
 3339POPC   C3B45597  17.657   6.152   6.936
 3339POPC   C4B45598  17.669   6.339   7.308
 3340POPC   NC345599  21.016  14.639   5.257
 3340POPC   PO445600  20.346  14.577   5.345
 3340POPC   GL145601  20.346  14.457   5.772
 3340POPC   GL245602  20.609  14.178   5.856
 3340POPC   C1A45603  20.315  14.439   6.215
 3340POPC   D2A45604  20.545  14.257   6.555
 3340POPC   C3A45605  20.372  14.297   6.927
 3340POPC   C4A45606  20.431  14.695   7.089
 3340POPC   C1B45607  20.928  14.166   6.200
 3340POPC   C2B45608  21.017  14.417   6.585
 3340POPC   C3B45609  20.881  14.412   7.025
 3340POPC   C4B45610  21.112  14.258   7.418
 3341POPC   NC345611  21.816  42.867   5.211
 3341POPC   PO445612  22.281  43.268   5.462
 3341POPC   GL145613  21.980  43.214   5.802
 3341POPC   GL245614  21.772  42.892   5.797
 3341POPC   C1A45615  21.939  43.413   6.207
 3341POPC   D2A45616  21.841  43.221   6.600
 3341POPC   C3A45617  22.039  43.410   6.938
 3341POPC   C4A45618  21.944  43.338   7.315
 3341POPC   C1B45619  22.004  42.894   6.209
 3341POPC   C2B45620  22.072  42.577   6.530
 3341POPC   C3B45621  21.869  42.501   6.920
 3341POPC   C4B45622  21.819  42.802   7.260
 3342POPC   NC345623   2.376   0.515   4.896
 3342POPC   PO445624   2.176   0.168   5.486
 3342POPC   GL145625   2.056   0.467   5.797
 3342POPC   GL245626   1.690   0.596   5.808
 3342POPC   C1A45627   2.277   0.555   6.171
 3342POPC   D2A45628   2.130   0.546   6.591
 3342POPC   C3A45629   2.292   0.356   6.939
 3342POPC   C4A45630   2.253   0.493   7.354
 3342POPC   C1B45631   1.743   0.423   6.240
 3342POPC   C2B45632   1.641   0.619   6.656
 3342POPC   C3B45633   1.810   0.656   7.087
 3342POPC   C4B45634   1.766   0.346   7.404
 3343POPC   NC345635  10.761  14.412   5.357
 3343POPC   PO445636  11.390  14.725   5.391
 3343POPC   GL145637  11.209  14.434   5.727
 3343POPC   GL245638  10.887  14.590   5.845
 3343POPC   C1A45639  11.413  14.206   6.115
 3343POPC   D2A45640  11.538  14.420   6.522
 3343POPC   C3A45641  11.431  14.249   6.891
 3343POPC   C4A45642  11.329  14.107   7.280
 3343POPC   C1B45643  10.906  14.294   6.159
 3343POPC   C2B45644  11.075  14.082   6.507
 3343POPC   C3B45645  10.935  14.171   6.909
 3343POPC   C4B45646  10.953  14.476   7.242
 3344POPC   NC345647   5.671  32.419   5.431
 3344POPC   PO445648   6.239  32.773   5.723
 3344POPC   GL145649   5.954  32.442   5.857
 3344POPC   GL245650   5.630  32.612   5.913
 3344POPC   C1A45651   5.895  32.253   6.257
 3344POPC   D2A45652   5.804  32.405   6.688
 3344POPC   C3A45653   5.748  32.127   7.064
 3344POPC   C4A45654   6.164  32.016   7.238
 3344POPC   C1B45655   5.404  32.440   6.262
 3344POPC   C2B45656   5.270  32.427   6.680
 3344POPC   C3B45657   5.475  32.574   7.034
 3344POPC   C4B45658   5.498  32.459   7.437
 3345POPC   NC345659  44.021  35.423   5.374
 3345POPC   PO445660  43.611  35.041   5.795
 3345POPC   GL145661  43.995  35.218   5.860
 3345POPC   GL245662  44.043  35.579   5.906
 3345POPC   C1A45663  44.071  35.234   6.298
 3345POPC   D2A45664  43.829  35.391   6.634
 3345POPC   C3A45665  43.924  35.216   7.030
 3345POPC   C4A45666  43.614  35.149   7.333
 3345POPC   C1B45667  44.339  35.652   6.299
 3345POPC   C2B45668  44.296  35.520   6.750
 3345POPC   C3B45669  44.086  35.705   7.139
 3345POPC   C4B45670  44.165  35.977   7.516
 3346POPC   NC345671   4.750  36.193   5.390
 3346POPC   PO445672   5.375  35.841   5.329
 3346POPC   GL145673   5.085  35.879   5.645
 3346POPC   GL245674   5.081  36.217   5.789
 3346POPC   C1A45675   5.107  35.788   6.089
 3346POPC   D2A45676   5.215  36.057   6.457
 3346POPC   C3A45677   5.194  35.917   6.893
 3346POPC   C4A45678   5.154  36.127   7.311
 3346POPC   C1B45679   4.933  36.503   6.094
 3346POPC   C2B45680   4.912  36.590   6.528
 3346POPC   C3B45681   5.001  36.484   6.954
 3346POPC   C4B45682   4.787  36.627   7.313
 3347POPC   NC345683  15.940  17.583   4.786
 3347POPC   PO445684  15.902  17.137   5.387
 3347POPC   GL145685  15.866  17.306   5.833
 3347POPC   GL245686  16.039  17.628   5.881
 3347POPC   C1A45687  15.703  17.409   6.268
 3347POPC   D2A45688  15.649  17.170   6.657
 3347POPC   C3A45689  15.782  17.266   7.076
 3347POPC   C4A45690  15.765  17.513   7.452
 3347POPC   C1B45691  16.215  17.453   6.270
 3347POPC   C2B45692  16.146  17.360   6.721
 3347POPC   C3B45693  16.256  17.481   7.172
 3347POPC   C4B45694  16.620  17.693   7.436
 3348POPC   NC345695   4.712  30.376   5.521
 3348POPC   PO445696   4.433  29.810   5.262
 3348POPC   GL145697   4.392  30.012   5.677
 3348POPC   GL245698   4.073  30.086   5.713
 3348POPC   C1A45699   4.551  29.905   6.093
 3348POPC   D2A45700   4.655  29.876   6.513
 3348POPC   C3A45701   4.527  29.744   6.891
 3348POPC   C4A45702   4.529  29.923   7.266
 3348POPC   C1B45703   4.051  29.974   6.143
 3348POPC   C2B45704   4.045  29.845   6.584
 3348POPC   C3B45705   4.081  30.049   6.959
 3348POPC   C4B45706   4.116  30.246   7.341
 3349POPC   NC345707  28.667  35.985   5.325
 3349POPC   PO445708  28.155  36.289   5.664
 3349POPC   GL145709  28.331  36.054   5.945
 3349POPC   GL245710  28.645  35.923   5.858
 3349POPC   C1A45711  28.310  36.142   6.370
 3349POPC   D2A45712  27.974  36.075   6.600
 3349POPC   C3A45713  28.069  35.814   6.887
 3349POPC   C4A45714  28.183  35.905   7.262
 3349POPC   C1B45715  28.725  36.321   6.118
 3349POPC   C2B45716  28.786  36.260   6.570
 3349POPC   C3B45717  28.453  36.236   6.890
 3349POPC   C4B45718  28.433  36.333   7.325
 3350POPC   NC345719   6.796   0.960   5.180
 3350POPC   PO445720   6.163   0.954   5.340
 3350POPC   GL145721   6.451   0.977   5.746
 3350POPC   GL245722   6.677   1.290   5.817
 3350POPC   C1A45723   6.458   1.058   6.235
 3350POPC   D2A45724   6.709   1.014   6.646
 3350POPC   C3A45725   6.745   1.231   7.068
 3350POPC   C4A45726   6.525   1.300   7.491
 3350POPC   C1B45727   6.903   1.546   6.158
 3350POPC   C2B45728   6.997   1.485   6.610
 3350POPC   C3B45729   7.024   1.722   6.997
 3350POPC   C4B45730   6.934   1.604   7.404
 3351POPC   NC345731  42.095  38.428   5.575
 3351POPC   PO445732  42.785  38.351   5.472
 3351POPC   GL145733  42.514  38.379   5.872
 3351POPC   GL245734  42.228  38.147   5.990
 3351POPC   C1A45735  42.400  38.567   6.293
 3351POPC   D2A45736  42.481  38.347   6.682
 3351POPC   C3A45737  42.393  38.437   7.122
 3351POPC   C4A45738  42.502  38.249   7.534
 3351POPC   C1B45739  41.871  38.392   6.216
 3351POPC   C2B45740  41.699  38.486   6.620
 3351POPC   C3B45741  41.867  38.357   7.012
 3351POPC   C4B45742  42.034  38.139   7.387
 3352POPC   NC345743  33.997  30.778   5.402
 3352POPC   PO445744  33.295  30.532   5.349
 3352POPC   GL145745  33.555  30.768   5.690
 3352POPC   GL245746  33.785  30.559   5.833
 3352POPC   C1A45747  33.619  30.930   6.161
 3352POPC   D2A45748  33.835  30.984   6.582
 3352POPC   C3A45749  33.685  30.922   7.012
 3352POPC   C4A45750  33.756  30.721   7.415
 3352POPC   C1B45751  33.773  30.402   6.286
 3352POPC   C2B45752  33.848  30.481   6.745
 3352POPC   C3B45753  33.827  30.275   7.165
 3352POPC   C4B45754  33.813  30.269   7.644
 3353POPC   NC345755  23.861  11.122   5.047
 3353POPC   PO445756  23.874  11.727   5.343
 3353POPC   GL145757  23.902  11.611   5.815
 3353POPC   GL245758  23.663  11.318   5.736
 3353POPC   C1A45759  23.807  11.552   6.225
 3353POPC   D2A45760  23.919  11.635   6.601
 3353POPC   C3A45761  23.641  11.668   6.915
 3353POPC   C4A45762  23.741  11.448   7.255
 3353POPC   C1B45763  23.893  11.077   6.040
 3353POPC   C2B45764  23.822  11.054   6.456
 3353POPC   C3B45765  23.917  11.188   6.842
 3353POPC   C4B45766  23.996  11.004   7.197
 3354POPC   NC345767   2.278  14.358   5.720
 3354POPC   PO445768   2.077  14.886   5.329
 3354POPC   GL145769   1.907  14.764   5.802
 3354POPC   GL245770   1.780  14.437   5.928
 3354POPC   C1A45771   2.004  14.736   6.305
 3354POPC   D2A45772   2.165  14.396   6.638
 3354POPC   C3A45773   2.340  14.503   7.072
 3354POPC   C4A45774   2.384  14.710   7.466
 3354POPC   C1B45775   1.591  14.473   6.371
 3354POPC   C2B45776   1.735  14.643   6.784
 3354POPC   C3B45777   1.844  14.438   7.166
 3354POPC   C4B45778   1.642  14.114   7.447
 3355POPC   NC345779   4.469  38.630   5.356
 3355POPC   PO445780   4.014  38.072   5.397
 3355POPC   GL145781   4.302  38.249   5.688
 3355POPC   GL245782   4.125  38.587   5.736
 3355POPC   C1A45783   4.367  38.339   6.127
 3355POPC   D2A45784   4.132  38.349   6.516
 3355POPC   C3A45785   4.395  38.390   6.881
 3355POPC   C4A45786   4.242  38.490   7.255
 3355POPC   C1B45787   4.194  38.830   6.110
 3355POPC   C2B45788   4.047  38.996   6.498
 3355POPC   C3B45789   3.985  38.872   6.886
 3355POPC   C4B45790   4.135  38.983   7.283
 3356POPC   NC345791  21.635  30.699   5.394
 3356POPC   PO445792  22.285  30.895   5.289
 3356POPC   GL145793  22.130  30.598   5.621
 3356POPC   GL245794  22.409  30.596   5.823
 3356POPC   C1A45795  21.963  30.575   6.080
 3356POPC   D2A45796  21.799  30.753   6.482
 3356POPC   C3A45797  22.051  30.787   6.874
 3356POPC   C4A45798  22.342  30.542   7.139
 3356POPC   C1B45799  22.340  30.909   6.167
 3356POPC   C2B45800  22.452  31.089   6.570
 3356POPC   C3B45801  22.521  31.007   6.999
 3356POPC   C4B45802  22.293  30.978   7.392
 3357POPC   NC345803  19.406  36.361   5.613
 3357POPC   PO445804  19.090  35.917   5.166
 3357POPC   GL145805  18.936  35.954   5.640
 3357POPC   GL245806  18.920  36.307   5.759
 3357POPC   C1A45807  18.870  35.868   6.115
 3357POPC   D2A45808  18.890  35.676   6.560
 3357POPC   C3A45809  19.030  35.904   6.940
 3357POPC   C4A45810  19.342  35.842   7.297
 3357POPC   C1B45811  19.133  36.314   6.194
 3357POPC   C2B45812  19.196  36.523   6.625
 3357POPC   C3B45813  19.110  36.409   7.039
 3357POPC   C4B45814  18.944  36.165   7.374
 3358POPC   NC345815  15.448  41.454   5.467
 3358POPC   PO445816  16.152  41.559   5.434
 3358POPC   GL145817  15.889  41.577   5.719
 3358POPC   GL245818  15.841  41.235   5.727
 3358POPC   C1A45819  15.952  41.643   6.135
 3358POPC   D2A45820  16.166  41.557   6.499
 3358POPC   C3A45821  16.231  41.794   6.877
 3358POPC   C4A45822  16.154  41.640   7.307
 3358POPC   C1B45823  15.872  41.145   6.164
 3358POPC   C2B45824  15.675  41.360   6.501
 3358POPC   C3B45825  15.816  41.497   6.895
 3358POPC   C4B45826  15.650  41.731   7.199
 3359POPC   NC345827  15.108  20.730   5.131
 3359POPC   PO445828  15.509  20.502   5.604
 3359POPC   GL145829  15.201  20.585   5.884
 3359POPC   GL245830  15.148  20.917   5.778
 3359POPC   C1A45831  15.025  20.558   6.319
 3359POPC   D2A45832  14.974  20.463   6.784
 3359POPC   C3A45833  15.221  20.665   7.119
 3359POPC   C4A45834  15.473  20.505   7.498
 3359POPC   C1B45835  15.096  21.053   6.223
 3359POPC   C2B45836  15.064  20.949   6.660
 3359POPC   C3B45837  15.172  21.177   7.016
 3359POPC   C4B45838  14.944  21.373   7.344
 3360POPC   NC345839   3.280  36.899   5.383
 3360POPC   PO445840   3.811  36.698   5.641
 3360POPC   GL145841   3.430  36.766   5.857
 3360POPC   GL245842   3.393  37.147   5.816
 3360POPC   C1A45843   3.417  36.574   6.260
 3360POPC   D2A45844   3.722  36.677   6.556
 3360POPC   C3A45845   3.596  36.769   6.960
 3360POPC   C4A45846   3.794  36.781   7.322
 3360POPC   C1B45847   3.540  37.117   6.239
 3360POPC   C2B45848   3.603  37.386   6.596
 3360POPC   C3B45849   3.765  37.258   6.982
 3360POPC   C4B45850   3.422  37.209   7.223
 3361POPC   NC345851  24.961  40.629   5.350
 3361POPC   PO445852  25.607  40.813   5.464
 3361POPC   GL145853  25.467  40.643   5.835
 3361POPC   GL245854  25.098  40.730   5.838
 3361POPC   C1A45855  25.371  40.671   6.264
 3361POPC   D2A45856  25.221  40.986   6.521
 3361POPC   C3A45857  25.196  40.831   6.912
 3361POPC   C4A45858  25.494  40.679   7.191
 3361POPC   C1B45859  24.858  40.771   6.216
 3361POPC   C2B45860  24.941  40.524   6.573
 3361POPC   C3B45861  24.779  40.391   6.930
 3361POPC   C4B45862  24.971  40.564   7.273
 3362POPC   NC345863  35.166   6.080   5.488
 3362POPC   PO445864  35.176   5.477   5.235
 3362POPC   GL145865  35.326   5.603   5.724
 3362POPC   GL245866  35.527   5.923   5.802
 3362POPC   C1A45867  35.175   5.813   6.180
 3362POPC   D2A45868  34.827   5.873   6.542
 3362POPC   C3A45869  34.953   5.968   6.975
 3362POPC   C4A45870  35.076   5.677   7.323
 3362POPC   C1B45871  35.754   6.185   6.129
 3362POPC   C2B45872  35.719   6.177   6.593
 3362POPC   C3B45873  35.740   5.905   6.979
 3362POPC   C4B45874  35.543   5.886   7.387
 3363POPC   NC345875   6.426  35.767   5.398
 3363POPC   PO445876   6.812  36.389   5.342
 3363POPC   GL145877   6.581  36.198   5.675
 3363POPC   GL245878   6.838  35.978   5.753
 3363POPC   C1A45879   6.392  36.060   6.085
 3363POPC   D2A45880   6.404  36.202   6.525
 3363POPC   C3A45881   6.627  36.038   6.889
 3363POPC   C4A45882   6.407  35.840   7.218
 3363POPC   C1B45883   6.894  36.176   6.170
 3363POPC   C2B45884   6.962  36.315   6.614
 3363POPC   C3B45885   7.073  36.336   7.046
 3363POPC   C4B45886   7.087  36.063   7.407
 3364POPC   NC345887   5.631  29.019   5.304
 3364POPC   PO445888   6.245  29.185   5.449
 3364POPC   GL145889   5.977  29.402   5.773
 3364POPC   GL245890   5.656  29.424   5.656
 3364POPC   C1A45891   5.964  29.421   6.253
 3364POPC   D2A45892   6.044  29.586   6.732
 3364POPC   C3A45893   5.895  29.306   7.103
 3364POPC   C4A45894   5.865  29.156   7.538
 3364POPC   C1B45895   5.503  29.290   6.059
 3364POPC   C2B45896   5.293  29.346   6.434
 3364POPC   C3B45897   5.464  29.393   6.839
 3364POPC   C4B45898   5.399  29.237   7.274
 3365POPC   NC345899  18.755  28.999   5.229
 3365POPC   PO445900  19.255  29.323   5.374
 3365POPC   GL145901  19.298  29.104   5.810
 3365POPC   GL245902  18.995  28.905   5.806
 3365POPC   C1A45903  19.242  29.073   6.307
 3365POPC   D2A45904  19.346  29.044   6.779
 3365POPC   C3A45905  19.206  29.308   7.133
 3365POPC   C4A45906  19.335  29.470   7.593
 3365POPC   C1B45907  18.724  29.138   6.135
 3365POPC   C2B45908  18.795  29.265   6.589
 3365POPC   C3B45909  18.656  29.190   7.024
 3365POPC   C4B45910  18.697  28.881   7.398
 3366POPC   NC345911  30.199  12.731   5.064
 3366POPC   PO445912  29.888  13.286   5.363
 3366POPC   GL145913  29.886  12.870   5.604
 3366POPC   GL245914  30.178  12.619   5.580
 3366POPC   C1A45915  29.851  12.807   6.085
 3366POPC   D2A45916  30.029  13.028   6.477
 3366POPC   C3A45917  30.041  12.815   6.882
 3366POPC   C4A45918  29.770  12.793   7.239
 3366POPC   C1B45919  30.204  12.437   6.020
 3366POPC   C2B45920  30.264  12.557   6.455
 3366POPC   C3B45921  30.345  12.397   6.866
 3366POPC   C4B45922  30.373  12.668   7.274
 3367POPC   NC345923  41.053  32.699   5.446
 3367POPC   PO445924  40.451  32.929   5.739
 3367POPC   GL145925  40.848  32.972   5.892
 3367POPC   GL245926  40.853  33.352   5.821
 3367POPC   C1A45927  40.978  32.836   6.320
 3367POPC   D2A45928  41.003  32.814   6.757
 3367POPC   C3A45929  40.634  32.891   6.990
 3367POPC   C4A45930  40.634  32.885   7.419
 3367POPC   C1B45931  40.811  33.333   6.269
 3367POPC   C2B45932  40.647  33.312   6.677
 3367POPC   C3B45933  40.921  33.306   7.009
 3367POPC   C4B45934  41.235  33.422   7.211
 3368POPC   NC345935  33.275  39.458   5.184
 3368POPC   PO445936  32.924  38.844   5.279
 3368POPC   GL145937  33.085  39.110   5.617
 3368POPC   GL245938  32.780  39.314   5.763
 3368POPC   C1A45939  33.206  39.064   6.073
 3368POPC   D2A45940  32.933  38.938   6.416
 3368POPC   C3A45941  32.953  38.966   6.872
 3368POPC   C4A45942  33.098  39.130   7.269
 3368POPC   C1B45943  32.856  39.442   6.209
 3368POPC   C2B45944  33.064  39.405   6.622
 3368POPC   C3B45945  32.830  39.471   7.004
 3368POPC   C4B45946  32.559  39.168   7.187
 3369POPC   NC345947  34.017  11.700   5.552
 3369POPC   PO445948  34.672  11.628   5.519
 3369POPC   GL145949  34.869  11.482   5.874
 3369POPC   GL245950  34.749  11.145   5.886
 3369POPC   C1A45951  34.768  11.483   6.314
 3369POPC   D2A45952  34.552  11.358   6.677
 3369POPC   C3A45953  34.770  11.226   7.052
 3369POPC   C4A45954  34.810  11.649   7.218
 3369POPC   C1B45955  34.691  10.964   6.277
 3369POPC   C2B45956  34.526  10.860   6.675
 3369POPC   C3B45957  34.289  11.042   6.995
 3369POPC   C4B45958  34.312  11.308   7.313
 3370POPC   NC345959  40.530  27.038   5.499
 3370POPC   PO445960  41.099  26.680   5.376
 3370POPC   GL145961  40.923  26.797   5.775
 3370POPC   GL245962  40.703  26.524   5.893
 3370POPC   C1A45963  40.959  27.120   6.110
 3370POPC   D2A45964  41.023  26.995   6.539
 3370POPC   C3A45965  40.902  27.126   6.937
 3370POPC   C4A45966  40.950  26.816   7.252
 3370POPC   C1B45967  40.601  26.796   6.268
 3370POPC   C2B45968  40.549  26.770   6.747
 3370POPC   C3B45969  40.440  26.785   7.214
 3370POPC   C4B45970  40.225  26.988   7.537
 3371POPC   NC345971  13.422  33.458   5.408
 3371POPC   PO445972  13.436  32.806   5.408
 3371POPC   GL145973  13.574  32.864   5.816
 3371POPC   GL245974  13.706  33.221   5.795
 3371POPC   C1A45975  13.505  33.032   6.212
 3371POPC   D2A45976  13.627  33.304   6.554
 3371POPC   C3A45977  13.562  33.082   6.932
 3371POPC   C4A45978  13.581  32.812   7.299
 3371POPC   C1B45979  13.990  33.284   6.163
 3371POPC   C2B45980  14.142  33.214   6.588
 3371POPC   C3B45981  14.029  33.233   6.995
 3371POPC   C4B45982  13.784  33.275   7.400
 3372POPC   NC345983   7.518   3.414   5.280
 3372POPC   PO445984   7.134   3.874   5.436
 3372POPC   GL145985   7.311   3.711   5.840
 3372POPC   GL245986   7.596   3.464   5.825
 3372POPC   C1A45987   7.221   3.561   6.275
 3372POPC   D2A45988   7.311   3.342   6.681
 3372POPC   C3A45989   7.259   3.647   7.003
 3372POPC   C4A45990   7.337   3.875   7.372
 3372POPC   C1B45991   7.721   3.713   6.222
 3372POPC   C2B45992   7.678   3.722   6.698
 3372POPC   C3B45993   7.761   3.681   7.149
 3372POPC   C4B45994   7.598   3.256   7.191
 3373POPC   NC345995   3.374  20.007   5.465
 3373POPC   PO445996   3.931  19.891   5.137
 3373POPC   GL145997   3.779  19.677   5.614
 3373POPC   GL245998   3.444  19.508   5.653
 3373POPC   C1A45999   3.879  19.738   6.081
 3373POPC   D2A46000   3.660  20.012   6.415
 3373POPC   C3A46001   3.706  19.927   6.865
 3373POPC   C4A46002   3.448  20.067   7.234
 3373POPC   C1B46003   3.398  19.655   6.100
 3373POPC   C2B46004   3.552  19.540   6.526
 3373POPC   C3B46005   3.359  19.571   6.951
 3373POPC   C4B46006   3.653  19.384   7.237
 3374POPC   NC346007  22.813  26.245   5.609
 3374POPC   PO446008  23.381  26.181   5.265
 3374POPC   GL146009  23.291  26.225   5.771
 3374POPC   GL246010  23.082  25.908   5.877
 3374POPC   C1A46011  23.101  26.258   6.257
 3374POPC   D2A46012  22.924  26.356   6.708
 3374POPC   C3A46013  22.998  26.230   7.170
 3374POPC   C4A46014  22.975  26.354   7.626
 3374POPC   C1B46015  22.712  25.807   6.170
 3374POPC   C2B46016  22.627  25.914   6.591
 3374POPC   C3B46017  22.755  25.825   7.000
 3374POPC   C4B46018  22.654  25.947   7.431
 3375POPC   NC346019  39.594  10.748   5.614
 3375POPC   PO446020  39.143  10.245   5.394
 3375POPC   GL146021  39.073  10.421   5.772
 3375POPC   GL246022  39.077  10.099   5.907
 3375POPC   C1A46023  39.194  10.694   6.142
 3375POPC   D2A46024  39.252  10.635   6.602
 3375POPC   C3A46025  39.337  10.910   6.939
 3375POPC   C4A46026  39.251  10.835   7.349
 3375POPC   C1B46027  39.208  10.205   6.317
 3375POPC   C2B46028  39.176  10.163   6.753
 3375POPC   C3B46029  39.270  10.235   7.206
 3375POPC   C4B46030  38.986  10.427   7.523
 3376POPC   NC346031  21.610  13.898   5.443
 3376POPC   PO446032  21.007  13.474   5.532
 3376POPC   GL146033  21.301  13.660   5.802
 3376POPC   GL246034  21.623  13.493   5.771
 3376POPC   C1A46035  21.314  13.744   6.235
 3376POPC   D2A46036  21.560  13.616   6.600
 3376POPC   C3A46037  21.491  13.817   6.988
 3376POPC   C4A46038  21.148  13.773   7.275
 3376POPC   C1B46039  21.663  13.320   6.176
 3376POPC   C2B46040  21.783  13.148   6.579
 3376POPC   C3B46041  21.848  13.366   6.969
 3376POPC   C4B46042  21.661  13.492   7.352
 3377POPC   NC346043   7.751  13.897   5.641
 3377POPC   PO446044   7.285  13.550   5.294
 3377POPC   GL146045   7.326  13.568   5.708
 3377POPC   GL246046   7.099  13.834   5.705
 3377POPC   C1A46047   7.318  13.357   6.118
 3377POPC   D2A46048   7.202  13.525   6.529
 3377POPC   C3A46049   7.532  13.652   6.805
 3377POPC   C4A46050   7.483  13.637   7.247
 3377POPC   C1B46051   7.260  13.861   6.136
 3377POPC   C2B46052   7.239  14.055   6.560
 3377POPC   C3B46053   7.083  13.884   6.941
 3377POPC   C4B46054   6.863  13.778   7.305
 3378POPC   NC346055  31.384  40.676   5.390
 3378POPC   PO446056  31.230  41.218   5.651
 3378POPC   GL146057  31.323  40.894   5.908
 3378POPC   GL246058  31.325  40.567   5.867
 3378POPC   C1A46059  31.285  40.810   6.340
 3378POPC   D2A46060  31.609  40.912   6.617
 3378POPC   C3A46061  31.584  41.057   7.041
 3378POPC   C4A46062  31.518  40.823   7.399
 3378POPC   C1B46063  31.371  40.311   6.211
 3378POPC   C2B46064  31.281  40.352   6.606
 3378POPC   C3B46065  31.417  40.556   6.958
 3378POPC   C4B46066  31.322  40.347   7.323
 3379POPC   NC346067  10.688  33.661   5.408
 3379POPC   PO446068  10.133  33.898   5.216
 3379POPC   GL146069  10.369  33.973   5.656
 3379POPC   GL246070  10.762  34.034   5.784
 3379POPC   C1A46071  10.420  33.740   6.056
 3379POPC   D2A46072  10.521  33.673   6.496
 3379POPC   C3A46073  10.211  33.672   6.807
 3379POPC   C4A46074  10.290  33.702   7.241
 3379POPC   C1B46075  10.965  34.138   6.216
 3379POPC   C2B46076  10.937  33.993   6.632
 3379POPC   C3B46077  10.739  33.883   7.027
 3379POPC   C4B46078  10.846  34.005   7.466
 3380POPC   NC346079   5.582   3.219   5.508
 3380POPC   PO446080   5.477   3.906   5.216
 3380POPC   GL146081   5.681   3.770   5.674
 3380POPC   GL246082   5.868   3.490   5.824
 3380POPC   C1A46083   5.873   3.876   6.118
 3380POPC   D2A46084   5.753   3.776   6.527
 3380POPC   C3A46085   5.903   3.904   6.913
 3380POPC   C4A46086   5.681   3.834   7.273
 3380POPC   C1B46087   5.594   3.420   6.163
 3380POPC   C2B46088   5.676   3.262   6.557
 3380POPC   C3B46089   5.694   3.421   6.954
 3380POPC   C4B46090   6.061   3.424   7.210
 3381POPC   NC346091  28.397  38.309   5.466
 3381POPC   PO446092  28.191  38.815   5.705
 3381POPC   GL146093  28.386  38.518   5.928
 3381POPC   GL246094  28.368  38.733   6.188
 3381POPC   C1A46095  28.254  38.186   6.224
 3381POPC   D2A46096  27.892  38.261   6.489
 3381POPC   C3A46097  27.977  38.410   6.909
 3381POPC   C4A46098  28.198  38.199   7.229
 3381POPC   C1B46099  28.660  38.453   6.349
 3381POPC   C2B46100  28.445  38.393   6.704
 3381POPC   C3B46101  28.467  38.619   7.078
 3381POPC   C4B46102  28.827  38.591   7.333
 3382POPC   NC346103  13.587  29.546   5.400
 3382POPC   PO446104  13.912  28.994   5.306
 3382POPC   GL146105  13.527  29.074   5.675
 3382POPC   GL246106  13.279  29.405   5.765
 3382POPC   C1A46107  13.574  28.946   6.139
 3382POPC   D2A46108  13.499  29.101   6.585
 3382POPC   C3A46109  13.653  28.912   7.003
 3382POPC   C4A46110  13.928  29.152   7.306
 3382POPC   C1B46111  13.589  29.466   6.101
 3382POPC   C2B46112  13.766  29.547   6.512
 3382POPC   C3B46113  13.668  29.432   6.944
 3382POPC   C4B46114  13.478  29.403   7.371
 3383POPC   NC346115   4.917  29.563   5.309
 3383POPC   PO446116   5.136  30.273   5.325
 3383POPC   GL146117   5.106  30.029   5.690
 3383POPC   GL246118   5.365  30.223   5.851
 3383POPC   C1A46119   5.061  29.932   6.147
 3383POPC   D2A46120   5.157  29.824   6.566
 3383POPC   C3A46121   5.010  30.038   6.904
 3383POPC   C4A46122   5.028  29.900   7.324
 3383POPC   C1B46123   5.460  30.219   6.316
 3383POPC   C2B46124   5.439  30.333   6.762
 3383POPC   C3B46125   5.382  30.253   7.231
 3383POPC   C4B46126   5.446  30.009   7.645
 3384POPC   NC346127   8.892  18.555   5.586
 3384POPC   PO446128   9.299  18.140   5.414
 3384POPC   GL146129   9.104  18.098   5.814
 3384POPC   GL246130   8.740  18.080   5.839
 3384POPC   C1A46131   9.029  18.269   6.226
 3384POPC   D2A46132   9.196  18.393   6.607
 3384POPC   C3A46133   8.935  18.281   6.939
 3384POPC   C4A46134   9.128  18.433   7.259
 3384POPC   C1B46135   8.657  17.899   6.281
 3384POPC   C2B46136   8.593  17.906   6.765
 3384POPC   C3B46137   8.660  17.839   7.224
 3384POPC   C4B46138   8.806  18.163   7.540
 3385POPC   NC346139   2.454  39.373   5.255
 3385POPC   PO446140   1.738  39.310   5.360
 3385POPC   GL146141   2.068  39.393   5.659
 3385POPC   GL246142   2.069  39.107   5.880
 3385POPC   C1A46143   2.156  39.552   6.086
 3385POPC   D2A46144   1.964  39.298   6.416
 3385POPC   C3A46145   2.147  39.256   6.807
 3385POPC   C4A46146   2.278  39.561   7.094
 3385POPC   C1B46147   2.310  38.957   6.248
 3385POPC   C2B46148   2.407  38.805   6.686
 3385POPC   C3B46149   2.335  38.879   7.139
 3385POPC   C4B46150   2.580  39.018   7.480
 3386POPC   NC346151  32.976  32.145   5.298
 3386POPC   PO446152  33.051  32.739   5.569
 3386POPC   GL146153  33.155  32.461   5.920
 3386POPC   GL246154  33.176  32.116   5.792
 3386POPC   C1A46155  33.098  32.371   6.370
 3386POPC   D2A46156  32.977  32.503   6.779
 3386POPC   C3A46157  33.117  32.299   7.162
 3386POPC   C4A46158  32.744  32.458   7.380
 3386POPC   C1B46159  32.886  31.977   6.108
 3386POPC   C2B46160  32.844  31.975   6.589
 3386POPC   C3B46161  32.741  31.950   7.053
 3386POPC   C4B46162  32.964  31.733   7.400
 3387POPC   NC346163  12.269  38.449   5.383
 3387POPC   PO446164  11.706  38.774   5.618
 3387POPC   GL146165  12.025  38.552   5.833
 3387POPC   GL246166  12.007  38.192   5.738
 3387POPC   C1A46167  12.285  38.531   6.220
 3387POPC   D2A46168  12.301  38.309   6.631
 3387POPC   C3A46169  12.257  38.495   7.050
 3387POPC   C4A46170  12.340  38.576   7.491
 3387POPC   C1B46171  11.990  38.113   6.179
 3387POPC   C2B46172  11.799  38.020   6.579
 3387POPC   C3B46173  11.996  38.033   6.989
 3387POPC   C4B46174  11.984  38.199   7.400
 3388POPC   NC346175   7.519  39.945   5.361
 3388POPC   PO446176   7.019  40.248   5.680
 3388POPC   GL146177   7.438  40.189   5.800
 3388POPC   GL246178   7.360  39.823   5.854
 3388POPC   C1A46179   7.693  40.136   6.158
 3388POPC   D2A46180   7.691  39.851   6.500
 3388POPC   C3A46181   7.630  40.079   6.883
 3388POPC   C4A46182   7.334  40.079   7.195
 3388POPC   C1B46183   6.965  39.700   6.092
 3388POPC   C2B46184   6.829  39.744   6.507
 3388POPC   C3B46185   7.092  39.724   6.863
 3388POPC   C4B46186   6.960  39.733   7.253
 3389POPC   NC346187  31.738  17.613   5.646
 3389POPC   PO446188  32.299  17.165   5.454
 3389POPC   GL146189  32.306  17.184   5.864
 3389POPC   GL246190  32.070  17.428   5.964
 3389POPC   C1A46191  32.525  17.401   6.176
 3389POPC   D2A46192  32.346  17.556   6.526
 3389POPC   C3A46193  32.409  17.355   6.886
 3389POPC   C4A46194  32.310  17.565   7.257
 3389POPC   C1B46195  31.861  17.426   6.352
 3389POPC   C2B46196  31.947  17.188   6.726
 3389POPC   C3B46197  31.891  17.310   7.144
 3389POPC   C4B46198  32.068  17.282   7.602
 3390POPC   NC346199   5.856  13.295   5.586
 3390POPC   PO446200   6.145  13.860   5.237
 3390POPC   GL146201   5.999  13.823   5.670
 3390POPC   GL246202   6.304  13.909   5.839
 3390POPC   C1A46203   5.753  13.734   6.075
 3390POPC   D2A46204   5.486  13.507   6.424
 3390POPC   C3A46205   5.611  13.499   6.883
 3390POPC   C4A46206   5.560  13.779   7.230
 3390POPC   C1B46207   6.298  13.706   6.263
 3390POPC   C2B46208   5.968  13.700   6.541
 3390POPC   C3B46209   5.833  13.973   6.834
 3390POPC   C4B46210   6.050  13.701   7.107
 3391POPC   NC346211  16.475  26.700   5.245
 3391POPC   PO446212  15.894  27.062   5.349
 3391POPC   GL146213  15.945  26.724   5.681
 3391POPC   GL246214  16.299  26.792   5.728
 3391POPC   C1A46215  15.833  26.684   6.135
 3391POPC   D2A46216  15.785  26.781   6.593
 3391POPC   C3A46217  16.064  26.667   6.901
 3391POPC   C4A46218  15.916  26.539   7.276
 3391POPC   C1B46219  16.314  26.899   6.169
 3391POPC   C2B46220  16.409  26.897   6.592
 3391POPC   C3B46221  16.404  27.073   7.003
 3391POPC   C4B46222  16.217  26.934   7.408
 3392POPC   NC346223  27.726  34.796   5.473
 3392POPC   PO446224  27.553  34.034   5.372
 3392POPC   GL146225  27.574  34.252   5.810
 3392POPC   GL246226  27.576  34.612   5.922
 3392POPC   C1A46227  27.463  34.279   6.265
 3392POPC   D2A46228  27.412  34.018   6.603
 3392POPC   C3A46229  27.419  34.184   7.024
 3392POPC   C4A46230  27.552  34.518   7.317
 3392POPC   C1B46231  27.654  34.757   6.352
 3392POPC   C2B46232  27.787  34.890   6.782
 3392POPC   C3B46233  27.837  34.913   7.223
 3392POPC   C4B46234  27.685  34.862   7.693
 3393POPC   NC346235   0.441  42.095   5.489
 3393POPC   PO446236   0.042  42.638   5.387
 3393POPC   GL146237   0.282  42.500   5.826
 3393POPC   GL246238   0.369  42.117   5.975
 3393POPC   C1A46239   0.370  42.487   6.303
 3393POPC   D2A46240   0.115  42.491   6.651
 3393POPC   C3A46241   0.276  42.389   7.048
 3393POPC   C4A46242   0.744  42.417   7.172
 3393POPC   C1B46243   0.399  41.825   6.314
 3393POPC   C2B46244   0.413  41.838   6.748
 3393POPC   C3B46245   0.528  41.962   7.165
 3393POPC   C4B46246   0.181  42.040   7.467
 3394POPC   NC346247  10.066  14.793   5.487
 3394POPC   PO446248  10.330  14.191   5.368
 3394POPC   GL146249  10.481  14.283   5.762
 3394POPC   GL246250  10.374  14.628   5.876
 3394POPC   C1A46251  10.411  14.218   6.167
 3394POPC   D2A46252  10.497  14.505   6.501
 3394POPC   C3A46253  10.472  14.349   6.920
 3394POPC   C4A46254  10.591  14.127   7.279
 3394POPC   C1B46255  10.217  14.920   6.202
 3394POPC   C2B46256  10.046  14.882   6.640
 3394POPC   C3B46257  10.076  14.639   7.025
 3394POPC   C4B46258  10.386  14.599   7.388
 3395POPC   NC346259  32.876  33.781   5.212
 3395POPC   PO446260  33.455  34.154   5.373
 3395POPC   GL146261  33.215  33.858   5.634
 3395POPC   GL246262  32.864  33.777   5.741
 3395POPC   C1A46263  33.267  33.796   6.083
 3395POPC   D2A46264  33.086  33.758   6.492
 3395POPC   C3A46265  33.290  33.645   6.890
 3395POPC   C4A46266  33.175  33.685   7.345
 3395POPC   C1B46267  32.618  33.838   6.136
 3395POPC   C2B46268  32.569  33.954   6.574
 3395POPC   C3B46269  32.780  33.754   6.942
 3395POPC   C4B46270  32.698  33.541   7.332
 3396POPC   NC346271  33.569  12.306   5.042
 3396POPC   PO446272  32.952  12.048   5.335
 3396POPC   GL146273  33.040  12.130   5.756
 3396POPC   GL246274  32.796  11.922   5.896
 3396POPC   C1A46275  33.199  12.291   6.144
 3396POPC   D2A46276  33.294  12.079   6.538
 3396POPC   C3A46277  33.109  12.269   6.905
 3396POPC   C4A46278  33.043  12.355   7.366
 3396POPC   C1B46279  32.783  12.056   6.342
 3396POPC   C2B46280  32.887  11.826   6.735
 3396POPC   C3B46281  32.911  11.902   7.180
 3396POPC   C4B46282  32.781  12.014   7.635
 3397POPC   NC346283  39.976  15.706   5.429
 3397POPC   PO446284  40.065  16.412   5.497
 3397POPC   GL146285  40.142  16.066   5.839
 3397POPC   GL246286  40.234  15.679   5.859
 3397POPC   C1A46287  40.221  16.108   6.306
 3397POPC   D2A46288  40.245  16.140   6.769
 3397POPC   C3A46289  39.860  16.269   7.011
 3397POPC   C4A46290  39.895  16.226   7.459
 3397POPC   C1B46291  40.080  15.599   6.269
 3397POPC   C2B46292  39.862  15.821   6.602
 3397POPC   C3B46293  39.936  15.774   7.044
 3397POPC   C4B46294  40.105  15.774   7.463
 3398POPC   NC346295   2.063  44.663   5.255
 3398POPC   PO446296   2.431  44.216   5.656
 3398POPC   GL146297   2.186  44.494   5.897
 3398POPC   GL246298   2.021  44.778   5.764
 3398POPC   C1A46299   2.026  44.575   6.266
 3398POPC   D2A46300   1.851  44.409   6.581
 3398POPC   C3A46301   2.107  44.581   6.858
 3398POPC   C4A46302   2.155  44.532   7.246
 3398POPC   C1B46303   2.175   0.041   6.127
 3398POPC   C2B46304   1.989   0.059   6.533
 3398POPC   C3B46305   1.766   0.170   6.875
 3398POPC   C4B46306   2.004  44.997   7.146
 3399POPC   NC346307  43.388  34.136   5.286
 3399POPC   PO446308  42.930  33.702   5.279
 3399POPC   GL146309  42.986  33.963   5.647
 3399POPC   GL246310  42.818  33.735   5.845
 3399POPC   C1A46311  43.222  34.040   6.045
 3399POPC   D2A46312  43.348  33.823   6.446
 3399POPC   C3A46313  43.383  34.030   6.880
 3399POPC   C4A46314  43.450  33.882   7.284
 3399POPC   C1B46315  42.872  33.755   6.318
 3399POPC   C2B46316  42.925  33.809   6.745
 3399POPC   C3B46317  42.956  33.761   7.195
 3399POPC   C4B46318  42.705  33.714   7.568
 3400POPC   NC346319  11.376  38.589   5.357
 3400POPC   PO446320  10.842  38.248   5.576
 3400POPC   GL146321  11.167  38.405   5.859
 3400POPC   GL246322  11.515  38.351   5.852
 3400POPC   C1A46323  11.066  38.593   6.255
 3400POPC   D2A46324  11.316  38.594   6.616
 3400POPC   C3A46325  11.087  38.508   6.990
 3400POPC   C4A46326  11.227  38.576   7.383
 3400POPC   C1B46327  11.366  38.163   6.273
 3400POPC   C2B46328  11.300  38.095   6.729
 3400POPC   C3B46329  11.545  38.261   7.094
 3400POPC   C4B46330  11.521  38.223   7.582
 3401POPC   NC346331  39.102  27.873   5.406
 3401POPC   PO446332  39.580  27.469   5.190
 3401POPC   GL146333  39.283  27.408   5.610
 3401POPC   GL246334  39.220  27.720   5.855
 3401POPC   C1A46335  39.056  27.296   6.039
 3401POPC   D2A46336  38.974  27.575   6.435
 3401POPC   C3A46337  39.027  27.423   6.875
 3401POPC   C4A46338  39.079  27.245   7.297
 3401POPC   C1B46339  39.464  27.878   6.165
 3401POPC   C2B46340  39.329  27.924   6.574
 3401POPC   C3B46341  39.199  27.924   6.961
 3401POPC   C4B46342  39.463  28.076   7.268
 3402POPC   NC346343  22.769  43.105   5.395
 3402POPC   PO446344  23.080  42.470   5.606
 3402POPC   GL146345  23.002  42.919   5.818
 3402POPC   GL246346  22.657  43.121   5.870
 3402POPC   C1A46347  23.027  43.208   6.205
 3402POPC   D2A46348  22.902  43.072   6.619
 3402POPC   C3A46349  22.676  43.257   6.958
 3402POPC   C4A46350  22.826  43.185   7.362
 3402POPC   C1B46351  22.456  43.310   6.201
 3402POPC   C2B46352  22.345  43.159   6.574
 3402POPC   C3B46353  22.190  42.924   6.905
 3402POPC   C4B46354  22.340  43.021   7.290
 3403POPC   NC346355   5.012  12.538   5.526
 3403POPC   PO446356   5.329  13.175   5.652
 3403POPC   GL146357   5.227  13.162   6.027
 3403POPC   GL246358   5.013  12.865   5.968
 3403POPC   C1A46359   5.223  13.055   6.428
 3403POPC   D2A46360   5.063  12.730   6.676
 3403POPC   C3A46361   4.955  12.919   7.065
 3403POPC   C4A46362   5.047  13.060   7.508
 3403POPC   C1B46363   4.737  12.573   6.204
 3403POPC   C2B46364   4.759  12.314   6.602
 3403POPC   C3B46365   4.682  12.457   7.022
 3403POPC   C4B46366   4.803  12.620   7.439
 3404POPC   NC346367   9.387  43.955   5.410
 3404POPC   PO446368  10.048  43.682   5.395
 3404POPC   GL146369   9.779  43.878   5.758
 3404POPC   GL246370   9.805  44.257   5.872
 3404POPC   C1A46371   9.726  43.768   6.210
 3404POPC   D2A46372  10.031  43.718   6.588
 3404POPC   C3A46373   9.949  43.644   7.052
 3404POPC   C4A46374  10.123  43.787   7.463
 3404POPC   C1B46375   9.651  44.261   6.334
 3404POPC   C2B46376   9.567  43.932   6.681
 3404POPC   C3B46377   9.485  43.831   7.104
 3404POPC   C4B46378   9.712  44.081   7.391
 3405POPC   NC346379  35.728  29.407   5.338
 3405POPC   PO446380  35.173  28.973   5.408
 3405POPC   GL146381  35.377  29.172   5.759
 3405POPC   GL246382  35.714  29.056   5.741
 3405POPC   C1A46383  35.407  29.149   6.228
 3405POPC   D2A46384  35.182  29.142   6.637
 3405POPC   C3A46385  35.357  29.338   7.014
 3405POPC   C4A46386  35.244  29.134   7.395
 3405POPC   C1B46387  35.809  28.821   6.129
 3405POPC   C2B46388  35.793  28.955   6.595
 3405POPC   C3B46389  35.596  28.888   7.001
 3405POPC   C4B46390  35.743  28.998   7.416
 3406POPC   NC346391  11.239  40.848   5.194
 3406POPC   PO446392  10.547  40.745   5.336
 3406POPC   GL146393  10.485  40.848   5.760
 3406POPC   GL246394  10.816  40.970   5.831
 3406POPC   C1A46395  10.403  40.736   6.195
 3406POPC   D2A46396  10.152  40.709   6.563
 3406POPC   C3A46397  10.349  40.901   6.906
 3406POPC   C4A46398  10.794  40.941   7.048
 3406POPC   C1B46399  10.886  40.592   6.095
 3406POPC   C2B46400  10.786  40.464   6.529
 3406POPC   C3B46401  11.040  40.490   6.897
 3406POPC   C4B46402  10.912  40.476   7.299
 3407POPC   NC346403   0.102  37.902   5.313
 3407POPC   PO446404   0.512  37.419   5.365
 3407POPC   GL146405   0.483  37.671   5.777
 3407POPC   GL246406   0.247  37.918   5.789
 3407POPC   C1A46407   0.756  37.791   6.134
 3407POPC   D2A46408   0.695  37.634   6.570
 3407POPC   C3A46409   0.766  37.912   6.924
 3407POPC   C4A46410   0.649  37.871   7.343
 3407POPC   C1B46411   0.297  37.973   6.221
 3407POPC   C2B46412   0.469  38.163   6.581
 3407POPC   C3B46413   0.277  38.099   6.977
 3407POPC   C4B46414   0.178  37.707   7.168
 3408POPC   NC346415  39.566  22.895   5.610
 3408POPC   PO446416  40.138  22.852   5.201
 3408POPC   GL146417  40.095  22.874   5.672
 3408POPC   GL246418  39.957  23.183   5.770
 3408POPC   C1A46419  40.148  22.872   6.143
 3408POPC   D2A46420  40.207  23.081   6.544
 3408POPC   C3A46421  40.117  22.977   6.982
 3408POPC   C4A46422  40.324  23.217   7.320
 3408POPC   C1B46423  39.676  23.104   6.191
 3408POPC   C2B46424  39.725  23.286   6.592
 3408POPC   C3B46425  39.611  23.486   6.954
 3408POPC   C4B46426  39.828  23.289   7.275
 3409POPC   NC346427   8.480  38.812   5.496
 3409POPC   PO446428   7.993  39.283   5.688
 3409POPC   GL146429   8.259  39.046   5.873
 3409POPC   GL246430   8.005  38.788   5.802
 3409POPC   C1A46431   8.434  39.115   6.253
 3409POPC   D2A46432   8.226  39.187   6.635
 3409POPC   C3A46433   8.415  39.351   6.998
 3409POPC   C4A46434   8.266  39.571   7.328
 3409POPC   C1B46435   8.029  38.766   6.248
 3409POPC   C2B46436   7.861  38.835   6.665
 3409POPC   C3B46437   8.073  38.928   7.052
 3409POPC   C4B46438   8.515  38.841   7.081
 3410POPC   NC346439  10.335  23.195   5.405
 3410POPC   PO446440  10.770  22.766   5.191
 3410POPC   GL146441  10.632  22.855   5.646
 3410POPC   GL246442  10.720  22.523   5.713
 3410POPC   C1A46443  10.659  22.934   6.117
 3410POPC   D2A46444  10.379  22.926   6.526
 3410POPC   C3A46445  10.514  22.977   6.988
 3410POPC   C4A46446  10.372  23.007   7.446
 3410POPC   C1B46447  10.915  22.476   6.104
 3410POPC   C2B46448  10.775  22.603   6.480
 3410POPC   C3B46449  10.672  22.492   6.858
 3410POPC   C4B46450  10.924  22.647   7.152
 3411POPC   NC346451  16.487  24.477   5.424
 3411POPC   PO446452  17.109  24.831   5.338
 3411POPC   GL146453  16.762  24.819   5.685
 3411POPC   GL246454  16.872  25.062   5.882
 3411POPC   C1A46455  16.503  24.590   6.056
 3411POPC   D2A46456  16.678  24.321   6.402
 3411POPC   C3A46457  16.559  24.308   6.853
 3411POPC   C4A46458  16.856  24.339   7.208
 3411POPC   C1B46459  16.921  24.790   6.249
 3411POPC   C2B46460  16.713  24.773   6.652
 3411POPC   C3B46461  16.631  24.799   7.081
 3411POPC   C4B46462  16.860  25.034   7.397
 3412POPC   NC346463  36.731  11.068   5.151
 3412POPC   PO446464  37.089  11.525   5.281
 3412POPC   GL146465  37.092  11.282   5.707
 3412POPC   GL246466  37.154  11.493   6.002
 3412POPC   C1A46467  36.866  11.096   6.123
 3412POPC   D2A46468  36.711  11.276   6.542
 3412POPC   C3A46469  36.951  11.120   6.910
 3412POPC   C4A46470  37.097  11.166   7.329
 3412POPC   C1B46471  36.723  11.613   6.148
 3412POPC   C2B46472  36.532  11.798   6.522
 3412POPC   C3B46473  36.691  11.840   6.960
 3412POPC   C4B46474  37.079  11.604   7.047
 3413POPC   NC346475  16.855   9.879   5.426
 3413POPC   PO446476  16.921   9.309   5.176
 3413POPC   GL146477  16.708   9.407   5.645
 3413POPC   GL246478  16.900   9.297   5.951
 3413POPC   C1A46479  16.616   9.702   6.046
 3413POPC   D2A46480  16.731   9.896   6.461
 3413POPC   C3A46481  16.510   9.782   6.846
 3413POPC   C4A46482  16.595   9.901   7.271
 3413POPC   C1B46483  17.180   9.303   6.302
 3413POPC   C2B46484  17.013   9.449   6.704
 3413POPC   C3B46485  16.929   9.552   7.124
 3413POPC   C4B46486  16.892   9.558   7.584
 3414POPC   NC346487  17.787  42.005   5.472
 3414POPC   PO446488  17.392  42.572   5.434
 3414POPC   GL146489  17.316  42.391   5.828
 3414POPC   GL246490  17.434  42.090   5.858
 3414POPC   C1A46491  17.564  42.475   6.213
 3414POPC   D2A46492  17.648  42.754   6.559
 3414POPC   C3A46493  17.597  42.588   6.969
 3414POPC   C4A46494  17.531  42.494   7.407
 3414POPC   C1B46495  17.520  41.919   6.221
 3414POPC   C2B46496  17.664  42.007   6.627
 3414POPC   C3B46497  17.537  42.090   7.062
 3414POPC   C4B46498  17.256  41.919   7.359
 3415POPC   NC346499  40.423  43.585   5.225
 3415POPC   PO446500  40.762  44.094   5.474
 3415POPC   GL146501  40.758  43.917   5.846
 3415POPC   GL246502  40.820  43.574   5.794
 3415POPC   C1A46503  40.832  44.042   6.276
 3415POPC   D2A46504  41.081  44.055   6.674
 3415POPC   C3A46505  40.854  44.059   7.086
 3415POPC   C4A46506  40.994  44.412   7.353
 3415POPC   C1B46507  40.607  43.576   6.190
 3415POPC   C2B46508  40.810  43.642   6.582
 3415POPC   C3B46509  40.617  43.608   6.923
 3415POPC   C4B46510  40.735  43.557   7.318
 3416POPC   NC346511   7.971  12.226   5.309
 3416POPC   PO446512   8.607  12.509   5.498
 3416POPC   GL146513   8.277  12.264   5.793
 3416POPC   GL246514   7.993  11.975   5.787
 3416POPC   C1A46515   8.199  12.295   6.259
 3416POPC   D2A46516   8.384  12.448   6.680
 3416POPC   C3A46517   8.172  12.279   7.082
 3416POPC   C4A46518   8.106  12.357   7.550
 3416POPC   C1B46519   8.286  11.802   6.121
 3416POPC   C2B46520   8.397  11.941   6.566
 3416POPC   C3B46521   8.303  11.766   6.993
 3416POPC   C4B46522   8.243  11.882   7.434
 3417POPC   NC346523  38.291  13.151   5.569
 3417POPC   PO446524  38.732  12.681   5.400
 3417POPC   GL146525  38.617  12.818   5.786
 3417POPC   GL246526  38.522  12.496   5.904
 3417POPC   C1A46527  38.389  12.880   6.209
 3417POPC   D2A46528  38.190  12.642   6.553
 3417POPC   C3A46529  38.106  12.909   6.912
 3417POPC   C4A46530  38.339  12.935   7.284
 3417POPC   C1B46531  38.860  12.696   6.201
 3417POPC   C2B46532  38.882  12.995   6.553
 3417POPC   C3B46533  38.780  13.061   7.012
 3417POPC   C4B46534  38.817  12.712   7.322
 3418POPC   NC346535  35.300  31.866   5.364
 3418POPC   PO446536  35.717  32.374   5.174
 3418POPC   GL146537  35.603  32.244   5.658
 3418POPC   GL246538  35.235  32.125   5.796
 3418POPC   C1A46539  35.445  32.494   6.054
 3418POPC   D2A46540  35.138  32.442   6.421
 3418POPC   C3A46541  35.304  32.494   6.851
 3418POPC   C4A46542  35.349  32.539   7.287
 3418POPC   C1B46543  35.380  32.005   6.245
 3418POPC   C2B46544  35.241  32.002   6.689
 3418POPC   C3B46545  35.144  32.075   7.125
 3418POPC   C4B46546  35.301  31.903   7.519
 3419POPC   NC346547  39.501  34.862   5.299
 3419POPC   PO446548  38.943  34.476   5.275
 3419POPC   GL146549  39.284  34.615   5.684
 3419POPC   GL246550  39.489  34.368   5.868
 3419POPC   C1A46551  39.326  34.719   6.187
 3419POPC   D2A46552  39.282  34.469   6.613
 3419POPC   C3A46553  39.201  34.665   7.033
 3419POPC   C4A46554  39.420  34.608   7.417
 3419POPC   C1B46555  39.152  34.235   6.169
 3419POPC   C2B46556  38.826  34.214   6.502
 3419POPC   C3B46557  38.928  34.239   6.939
 3419POPC   C4B46558  39.028  34.289   7.366
 3420POPC   NC346559  33.111  43.359   5.337
 3420POPC   PO446560  32.738  42.799   5.422
 3420POPC   GL146561  33.049  42.985   5.692
 3420POPC   GL246562  32.822  43.223   5.745
 3420POPC   C1A46563  33.072  42.998   6.162
 3420POPC   D2A46564  33.077  42.758   6.561
 3420POPC   C3A46565  33.089  43.042   6.934
 3420POPC   C4A46566  33.155  42.985   7.413
 3420POPC   C1B46567  32.837  43.468   6.094
 3420POPC   C2B46568  32.879  43.400   6.512
 3420POPC   C3B46569  32.701  43.434   6.908
 3420POPC   C4B46570  32.879  43.398   7.278
 3421POPC   NC346571  32.456  38.979   5.494
 3421POPC   PO446572  32.415  39.661   5.548
 3421POPC   GL146573  32.205  39.353   5.821
 3421POPC   GL246574  31.847  39.211   5.774
 3421POPC   C1A46575  32.326  39.378   6.254
 3421POPC   D2A46576  32.553  39.262   6.613
 3421POPC   C3A46577  32.281  39.454   6.863
 3421POPC   C4A46578  31.936  39.381   7.160
 3421POPC   C1B46579  32.009  38.978   6.172
 3421POPC   C2B46580  32.027  39.074   6.606
 3421POPC   C3B46581  32.142  38.912   7.018
 3421POPC   C4B46582  32.246  38.868   7.476
 3422POPC   NC346583  14.683  30.905   5.444
 3422POPC   PO446584  14.165  30.479   5.346
 3422POPC   GL146585  14.399  30.553   5.705
 3422POPC   GL246586  14.707  30.353   5.654
 3422POPC   C1A46587  14.315  30.819   6.096
 3422POPC   D2A46588  14.141  31.080   6.437
 3422POPC   C3A46589  14.196  30.883   6.849
 3422POPC   C4A46590  14.129  30.507   7.120
 3422POPC   C1B46591  14.620  30.326   6.111
 3422POPC   C2B46592  14.378  30.453   6.494
 3422POPC   C3B46593  14.581  30.550   6.878
 3422POPC   C4B46594  14.616  30.848   7.196
 3423POPC   NC346595   2.112  33.151   5.449
 3423POPC   PO446596   1.683  32.615   5.431
 3423POPC   GL146597   1.780  32.893   5.782
 3423POPC   GL246598   1.848  33.213   5.872
 3423POPC   C1A46599   2.052  32.850   6.169
 3423POPC   D2A46600   2.071  33.034   6.592
 3423POPC   C3A46601   2.220  32.848   6.984
 3423POPC   C4A46602   2.066  32.972   7.389
 3423POPC   C1B46603   1.964  33.397   6.234
 3423POPC   C2B46604   1.822  33.510   6.630
 3423POPC   C3B46605   1.909  33.300   7.028
 3423POPC   C4B46606   2.365  33.334   7.211
 3424POPC   NC346607  41.838  20.603   5.443
 3424POPC   PO446608  41.265  20.850   5.243
 3424POPC   GL146609  41.318  20.626   5.684
 3424POPC   GL246610  41.536  20.384   5.774
 3424POPC   C1A46611  41.280  20.514   6.180
 3424POPC   D2A46612  41.446  20.326   6.590
 3424POPC   C3A46613  41.484  20.571   6.978
 3424POPC   C4A46614  41.235  20.902   7.129
 3424POPC   C1B46615  41.781  20.369   6.183
 3424POPC   C2B46616  41.948  20.394   6.630
 3424POPC   C3B46617  41.861  20.241   7.063
 3424POPC   C4B46618  41.649  20.277   7.457
 3425POPC   NC346619   3.400   7.647   5.150
 3425POPC   PO446620   3.690   7.143   5.525
 3425POPC   GL146621   3.584   7.370   5.893
 3425POPC   GL246622   3.495   7.733   5.777
 3425POPC   C1A46623   3.608   7.282   6.347
 3425POPC   D2A46624   3.888   7.381   6.701
 3425POPC   C3A46625   3.642   7.362   7.068
 3425POPC   C4A46626   3.202   7.274   7.117
 3425POPC   C1B46627   3.559   7.784   6.234
 3425POPC   C2B46628   3.336   7.834   6.642
 3425POPC   C3B46629   3.405   7.961   7.077
 3425POPC   C4B46630   3.791   7.810   7.242
 3426POPC   NC346631  34.973  40.694   5.537
 3426POPC   PO446632  35.503  40.989   5.399
 3426POPC   GL146633  35.446  41.096   5.792
 3426POPC   GL246634  35.115  41.149   5.806
 3426POPC   C1A46635  35.443  40.905   6.163
 3426POPC   D2A46636  35.338  41.038   6.530
 3426POPC   C3A46637  35.447  40.807   6.868
 3426POPC   C4A46638  35.503  40.925   7.279
 3426POPC   C1B46639  34.935  41.086   6.223
 3426POPC   C2B46640  34.834  41.095   6.674
 3426POPC   C3B46641  35.001  41.009   7.081
 3426POPC   C4B46642  35.076  40.946   7.536
 3427POPC   NC346643  13.230  43.949   5.332
 3427POPC   PO446644  13.622  43.511   5.295
 3427POPC   GL146645  13.728  43.692   5.707
 3427POPC   GL246646  13.575  44.016   5.723
 3427POPC   C1A46647  13.555  43.726   6.167
 3427POPC   D2A46648  13.545  43.570   6.597
 3427POPC   C3A46649  13.561  43.891   6.907
 3427POPC   C4A46650  13.416  43.837   7.350
 3427POPC   C1B46651  13.939  44.030   6.043
 3427POPC   C2B46652  13.895  44.036   6.507
 3427POPC   C3B46653  14.076  44.065   6.925
 3427POPC   C4B46654  13.938  43.776   7.244
 3428POPC   NC346655  28.026  33.964   5.352
 3428POPC   PO446656  28.696  33.860   5.425
 3428POPC   GL146657  28.600  33.734   5.843
 3428POPC   GL246658  28.260  33.702   5.754
 3428POPC   C1A46659  28.399  33.817   6.229
 3428POPC   D2A46660  28.467  33.751   6.650
 3428POPC   C3A46661  28.332  33.983   6.958
 3428POPC   C4A46662  28.680  34.037   7.210
 3428POPC   C1B46663  28.042  33.483   6.072
 3428POPC   C2B46664  28.119  33.412   6.491
 3428POPC   C3B46665  28.090  33.425   6.928
 3428POPC   C4B46666  28.113  33.653   7.293
 3429POPC   NC346667   5.313  31.515   5.197
 3429POPC   PO446668   5.452  31.415   5.810
 3429POPC   GL146669   5.066  31.390   5.996
 3429POPC   GL246670   4.904  31.158   5.785
 3429POPC   C1A46671   4.931  31.566   6.382
 3429POPC   D2A46672   4.647  31.659   6.696
 3429POPC   C3A46673   4.924  31.653   7.042
 3429POPC   C4A46674   5.374  31.619   7.152
 3429POPC   C1B46675   4.800  30.976   6.172
 3429POPC   C2B46676   4.966  31.055   6.568
 3429POPC   C3B46677   5.205  31.220   6.901
 3429POPC   C4B46678   5.106  31.218   7.358
 3430POPC   NC346679  33.745   6.461   5.450
 3430POPC   PO446680  34.211   6.843   5.683
 3430POPC   GL146681  33.843   6.863   5.877
 3430POPC   GL246682  33.561   6.960   5.684
 3430POPC   C1A46683  33.820   6.666   6.263
 3430POPC   D2A46684  34.159   6.658   6.568
 3430POPC   C3A46685  33.999   6.811   6.958
 3430POPC   C4A46686  33.800   6.612   7.273
 3430POPC   C1B46687  33.412   6.981   6.130
 3430POPC   C2B46688  33.302   6.932   6.573
 3430POPC   C3B46689  33.439   6.897   6.997
 3430POPC   C4B46690  33.202   6.939   7.354
 3431POPC   NC346691  41.986  32.846   5.289
 3431POPC   PO446692  42.216  33.392   5.577
 3431POPC   GL146693  42.454  33.322   5.907
 3431POPC   GL246694  42.661  33.018   5.841
 3431POPC   C1A46695  42.216  33.269   6.279
 3431POPC   D2A46696  42.238  32.916   6.539
 3431POPC   C3A46697  42.429  33.026   6.903
 3431POPC   C4A46698  42.439  32.798   7.227
 3431POPC   C1B46699  42.695  33.062   6.299
 3431POPC   C2B46700  42.634  33.385   6.595
 3431POPC   C3B46701  42.847  33.316   6.983
 3431POPC   C4B46702  42.783  33.163   7.397
 3432POPC   NC346703  42.029   7.670   5.251
 3432POPC   PO446704  42.555   7.106   5.342
 3432POPC   GL146705  42.308   7.351   5.641
 3432POPC   GL246706  42.477   7.586   5.865
 3432POPC   C1A46707  42.136   7.244   6.064
 3432POPC   D2A46708  42.353   7.417   6.442
 3432POPC   C3A46709  42.194   7.330   6.860
 3432POPC   C4A46710  42.328   7.490   7.248
 3432POPC   C1B46711  42.128   7.750   6.119
 3432POPC   C2B46712  42.036   7.902   6.525
 3432POPC   C3B46713  42.176   7.860   6.928
 3432POPC   C4B46714  42.234   7.997   7.306
 3433POPC   NC346715   8.839   8.357   5.412
 3433POPC   PO446716   9.371   8.267   5.547
 3433POPC   GL146717   9.035   8.189   5.869
 3433POPC   GL246718   8.751   7.973   5.790
 3433POPC   C1A46719   8.870   8.288   6.295
 3433POPC   D2A46720   8.581   8.163   6.638
 3433POPC   C3A46721   8.696   8.283   7.064
 3433POPC   C4A46722   9.122   8.383   7.281
 3433POPC   C1B46723   8.766   7.796   6.236
 3433POPC   C2B46724   8.982   7.852   6.639
 3433POPC   C3B46725   9.051   7.911   7.082
 3433POPC   C4B46726   8.997   7.778   7.515
 3434POPC   NC346727  29.524  18.140   5.470
 3434POPC   PO446728  29.115  18.579   5.149
 3434POPC   GL146729  29.260  18.541   5.645
 3434POPC   GL246730  29.026  18.390   5.943
 3434POPC   C1A46731  29.491  18.534   6.059
 3434POPC   D2A46732  29.324  18.560   6.493
 3434POPC   C3A46733  29.377  18.270   6.836
 3434POPC   C4A46734  29.090  18.286   7.177
 3434POPC   C1B46735  29.299  18.078   6.230
 3434POPC   C2B46736  29.318  17.808   6.595
 3434POPC   C3B46737  29.251  17.816   7.058
 3434POPC   C4B46738  28.882  17.826   7.309
 3435POPC   NC346739  42.763   8.280   5.527
 3435POPC   PO446740  43.172   7.823   5.344
 3435POPC   GL146741  43.159   7.920   5.772
 3435POPC   GL246742  43.008   7.651   5.888
 3435POPC   C1A46743  43.233   7.978   6.236
 3435POPC   D2A46744  43.014   8.124   6.633
 3435POPC   C3A46745  43.235   8.204   7.031
 3435POPC   C4A46746  43.087   8.471   7.387
 3435POPC   C1B46747  42.734   7.850   6.209
 3435POPC   C2B46748  42.585   7.844   6.641
 3435POPC   C3B46749  42.716   7.972   7.083
 3435POPC   C4B46750  43.056   7.954   7.432
 3436POPC   NC346751   5.567   6.463   5.474
 3436POPC   PO446752   6.078   6.744   5.117
 3436POPC   GL146753   6.027   6.879   5.580
 3436POPC   GL246754   5.739   6.789   5.810
 3436POPC   C1A46755   6.138   6.967   6.033
 3436POPC   D2A46756   5.949   6.815   6.435
 3436POPC   C3A46757   5.979   6.865   6.897
 3436POPC   C4A46758   6.109   6.437   7.097
 3436POPC   C1B46759   5.463   6.673   6.185
 3436POPC   C2B46760   5.463   6.461   6.600
 3436POPC   C3B46761   5.594   6.471   7.032
 3436POPC   C4B46762   5.396   6.546   7.417
 3437POPC   NC346763  38.357  33.091   5.147
 3437POPC   PO446764  38.731  32.570   5.550
 3437POPC   GL146765  38.382  32.713   5.813
 3437POPC   GL246766  38.382  33.080   5.867
 3437POPC   C1A46767  38.461  32.730   6.298
 3437POPC   D2A46768  38.642  32.625   6.730
 3437POPC   C3A46769  38.565  32.930   7.056
 3437POPC   C4A46770  38.265  33.085   7.373
 3437POPC   C1B46771  38.637  33.321   6.198
 3437POPC   C2B46772  38.733  33.362   6.684
 3437POPC   C3B46773  38.737  33.404   7.155
 3437POPC   C4B46774  38.706  33.203   7.576
 3438POPC   NC346775   4.189  29.323   5.382
 3438POPC   PO446776   4.780  29.123   5.369
 3438POPC   GL146777   4.664  29.225   5.767
 3438POPC   GL246778   4.575  29.542   5.706
 3438POPC   C1A46779   4.547  29.065   6.192
 3438POPC   D2A46780   4.505  28.958   6.650
 3438POPC   C3A46781   4.571  29.142   7.058
 3438POPC   C4A46782   4.134  29.092   7.289
 3438POPC   C1B46783   4.268  29.486   6.034
 3438POPC   C2B46784   4.339  29.454   6.456
 3438POPC   C3B46785   4.192  29.384   6.854
 3438POPC   C4B46786   4.092  29.612   7.220
 3439POPC   NC346787  17.585  28.088   5.451
 3439POPC   PO446788  17.669  28.798   5.478
 3439POPC   GL146789  17.790  28.673   5.869
 3439POPC   GL246790  17.529  28.418   5.855
 3439POPC   C1A46791  17.613  28.791   6.240
 3439POPC   D2A46792  17.340  28.684   6.554
 3439POPC   C3A46793  17.585  28.591   6.906
 3439POPC   C4A46794  17.341  28.534   7.248
 3439POPC   C1B46795  17.524  28.290   6.269
 3439POPC   C2B46796  17.709  28.175   6.654
 3439POPC   C3B46797  17.565  28.091   7.095
 3439POPC   C4B46798  17.567  28.111   7.558
 3440POPC   NC346799  24.128  10.523   5.515
 3440POPC   PO446800  23.563  10.863   5.286
 3440POPC   GL146801  23.707  10.770   5.690
 3440POPC   GL246802  23.399  10.874   5.789
 3440POPC   C1A46803  23.734  10.584   6.124
 3440POPC   D2A46804  23.950  10.378   6.472
 3440POPC   C3A46805  23.655  10.352   6.834
 3440POPC   C4A46806  23.711  10.563   7.246
 3440POPC   C1B46807  23.373  10.939   6.192
 3440POPC   C2B46808  23.438  10.718   6.537
 3440POPC   C3B46809  23.505  10.885   6.927
 3440POPC   C4B46810  23.516  11.012   7.362
 3441POPC   NC346811   5.890  19.971   5.420
 3441POPC   PO446812   6.185  19.328   5.471
 3441POPC   GL146813   5.973  19.576   5.772
 3441POPC   GL246814   6.177  19.884   5.831
 3441POPC   C1A46815   5.728  19.795   6.101
 3441POPC   D2A46816   5.540  20.034   6.465
 3441POPC   C3A46817   5.576  19.862   6.917
 3441POPC   C4A46818   5.773  19.881   7.370
 3441POPC   C1B46819   6.196  19.711   6.250
 3441POPC   C2B46820   5.892  19.618   6.571
 3441POPC   C3B46821   6.045  19.642   7.001
 3441POPC   C4B46822   6.131  19.519   7.414
 3442POPC   NC346823   5.625  30.157   5.175
 3442POPC   PO446824   6.220  30.184   5.502
 3442POPC   GL146825   6.137  29.898   5.802
 3442POPC   GL246826   5.788  29.924   5.702
 3442POPC   C1A46827   6.047  29.927   6.230
 3442POPC   D2A46828   5.919  30.193   6.566
 3442POPC   C3A46829   6.047  30.140   7.003
 3442POPC   C4A46830   5.999  29.776   7.258
 3442POPC   C1B46831   5.558  29.785   6.044
 3442POPC   C2B46832   5.634  29.742   6.468
 3442POPC   C3B46833   5.619  29.878   6.877
 3442POPC   C4B46834   5.493  29.722   7.242
 3443POPC   NC346835  33.500  30.104   5.444
 3443POPC   PO446836  34.149  30.299   5.496
 3443POPC   GL146837  34.055  30.148   5.913
 3443POPC   GL246838  33.747  29.997   5.900
 3443POPC   C1A46839  34.071  29.920   6.281
 3443POPC   D2A46840  33.829  29.976   6.654
 3443POPC   C3A46841  34.037  29.826   7.028
 3443POPC   C4A46842  34.142  29.938   7.437
 3443POPC   C1B46843  33.593  29.714   6.249
 3443POPC   C2B46844  33.591  29.541   6.693
 3443POPC   C3B46845  33.517  29.842   7.049
 3443POPC   C4B46846  33.621  29.839   7.479
 3444POPC   NC346847   4.102  40.252   5.654
 3444POPC   PO446848   4.210  40.711   5.202
 3444POPC   GL146849   4.258  40.757   5.654
 3444POPC   GL246850   3.928  40.826   5.773
 3444POPC   C1A46851   4.490  40.820   6.068
 3444POPC   D2A46852   4.467  41.080   6.447
 3444POPC   C3A46853   4.236  40.876   6.807
 3444POPC   C4A46854   4.378  40.609   7.164
 3444POPC   C1B46855   3.992  40.752   6.236
 3444POPC   C2B46856   3.815  40.573   6.650
 3444POPC   C3B46857   3.775  40.771   7.057
 3444POPC   C4B46858   4.032  41.067   7.234
 3445POPC   NC346859  29.191  11.514   5.439
 3445POPC   PO446860  29.504  10.909   5.311
 3445POPC   GL146861  29.319  11.122   5.710
 3445POPC   GL246862  29.472  11.411   5.851
 3445POPC   C1A46863  29.023  11.319   6.063
 3445POPC   D2A46864  29.015  11.174   6.506
 3445POPC   C3A46865  28.966  11.418   6.889
 3445POPC   C4A46866  28.772  11.279   7.277
 3445POPC   C1B46867  29.480  11.360   6.301
 3445POPC   C2B46868  29.646  11.421   6.717
 3445POPC   C3B46869  29.461  11.444   7.123
 3445POPC   C4B46870  29.136  11.605   7.351
 3446POPC   NC346871  35.133  17.979   5.606
 3446POPC   PO446872  35.647  18.470   5.395
 3446POPC   GL146873  35.700  18.441   5.803
 3446POPC   GL246874  35.582  18.115   5.873
 3446POPC   C1A46875  35.641  18.514   6.228
 3446POPC   D2A46876  35.580  18.235   6.592
 3446POPC   C3A46877  35.393  18.373   6.977
 3446POPC   C4A46878  35.572  18.762   7.125
 3446POPC   C1B46879  35.243  18.118   6.226
 3446POPC   C2B46880  35.023  18.315   6.561
 3446POPC   C3B46881  34.872  18.290   6.954
 3446POPC   C4B46882  35.034  18.195   7.343
 3447POPC   NC346883  15.477  12.106   5.290
 3447POPC   PO446884  16.179  11.920   5.367
 3447POPC   GL146885  16.046  12.108   5.762
 3447POPC   GL246886  15.748  12.310   5.736
 3447POPC   C1A46887  15.925  12.016   6.165
 3447POPC   D2A46888  15.722  11.787   6.453
 3447POPC   C3A46889  15.816  12.012   6.802
 3447POPC   C4A46890  15.896  11.993   7.214
 3447POPC   C1B46891  15.839  12.520   6.130
 3447POPC   C2B46892  16.017  12.469   6.573
 3447POPC   C3B46893  15.832  12.494   6.993
 3447POPC   C4B46894  15.581  12.359   7.379
 3448POPC   NC346895  42.378  28.111   5.477
 3448POPC   PO446896  42.568  28.688   5.291
 3448POPC   GL146897  42.360  28.626   5.717
 3448POPC   GL246898  42.096  28.387   5.818
 3448POPC   C1A46899  42.480  28.614   6.166
 3448POPC   D2A46900  42.575  28.448   6.591
 3448POPC   C3A46901  42.328  28.583   6.952
 3448POPC   C4A46902  42.258  28.464   7.354
 3448POPC   C1B46903  42.136  28.221   6.243
 3448POPC   C2B46904  42.041  28.257   6.677
 3448POPC   C3B46905  42.145  28.057   7.067
 3448POPC   C4B46906  41.914  27.853   7.404
 3449POPC   NC346907  44.854  35.468   5.641
 3449POPC   PO446908  44.617  35.915   5.146
 3449POPC   GL146909  44.734  35.971   5.618
 3449POPC   GL246910   0.027  35.893   5.845
 3449POPC   C1A46911  44.528  36.031   6.019
 3449POPC   D2A46912  44.398  36.336   6.292
 3449POPC   C3A46913  44.339  36.212   6.714
 3449POPC   C4A46914  44.327  36.202   7.114
 3449POPC   C1B46915  44.952  36.262   6.153
 3449POPC   C2B46916  44.814  36.334   6.585
 3449POPC   C3B46917  44.861  36.198   7.022
 3449POPC   C4B46918   0.052  36.313   7.402
 3450POPC   NC346919   7.775  15.427   5.566
 3450POPC   PO446920   7.276  15.061   5.391
 3450POPC   GL146921   7.359  15.091   5.833
 3450POPC   GL246922   7.041  15.257   5.887
 3450POPC   C1A46923   7.652  15.172   6.197
 3450POPC   D2A46924   7.703  15.496   6.497
 3450POPC   C3A46925   7.657  15.507   6.931
 3450POPC   C4A46926   7.871  15.263   7.200
 3450POPC   C1B46927   7.105  15.225   6.314
 3450POPC   C2B46928   7.216  15.390   6.694
 3450POPC   C3B46929   7.332  15.132   7.079
 3450POPC   C4B46930   7.255  14.776   7.361
 3451POPC   NC346931   9.404  31.814   5.414
 3451POPC   PO446932   8.854  31.419   5.446
 3451POPC   GL146933   9.018  31.746   5.756
 3451POPC   GL246934   9.351  31.684   5.894
 3451POPC   C1A46935   8.959  31.829   6.203
 3451POPC   D2A46936   8.912  31.564   6.577
 3451POPC   C3A46937   8.963  31.461   7.021
 3451POPC   C4A46938   9.207  31.693   7.303
 3451POPC   C1B46939   9.180  31.353   6.171
 3451POPC   C2B46940   9.295  31.207   6.608
 3451POPC   C3B46941   9.424  31.220   7.062
 3451POPC   C4B46942   9.193  31.165   7.446
 3452POPC   NC346943  10.015   0.488   5.469
 3452POPC   PO446944   9.346   0.328   5.474
 3452POPC   GL146945   9.644   0.353   5.825
 3452POPC   GL246946   9.796   0.690   5.882
 3452POPC   C1A46947   9.741   0.313   6.256
 3452POPC   D2A46948   9.522   0.306   6.628
 3452POPC   C3A46949   9.666   0.414   7.046
 3452POPC   C4A46950   9.757   0.465   7.483
 3452POPC   C1B46951  10.029   0.754   6.260
 3452POPC   C2B46952  10.000   0.662   6.698
 3452POPC   C3B46953  10.027   0.765   7.129
 3452POPC   C4B46954  10.188   0.326   7.214
 3453POPC   NC346955   6.155  11.545   5.345
 3453POPC   PO446956   5.737  10.910   5.493
 3453POPC   GL146957   6.016  11.168   5.669
 3453POPC   GL246958   5.770  11.432   5.692
 3453POPC   C1A46959   6.073  11.271   6.093
 3453POPC   D2A46960   5.827  11.202   6.464
 3453POPC   C3A46961   6.109  11.096   6.790
 3453POPC   C4A46962   6.131  11.270   7.174
 3453POPC   C1B46963   5.643  11.580   6.096
 3453POPC   C2B46964   5.624  11.672   6.540
 3453POPC   C3B46965   5.680  11.436   6.940
 3453POPC   C4B46966   5.795  11.671   7.304
 3454POPC   NC346967   1.795   1.066   5.495
 3454POPC   PO446968   2.100   1.637   5.410
 3454POPC   GL146969   2.091   1.380   5.812
 3454POPC   GL246970   2.184   0.987   5.810
 3454POPC   C1A46971   1.910   1.426   6.244
 3454POPC   D2A46972   1.944   1.722   6.608
 3454POPC   C3A46973   1.780   1.596   7.008
 3454POPC   C4A46974   2.070   1.513   7.358
 3454POPC   C1B46975   1.915   0.912   6.160
 3454POPC   C2B46976   1.965   1.023   6.565
 3454POPC   C3B46977   1.699   1.113   6.874
 3454POPC   C4B46978   1.697   1.178   7.303
 3455POPC   NC346979   1.995  37.932   5.318
 3455POPC   PO446980   1.964  37.331   5.092
 3455POPC   GL146981   2.094  37.480   5.594
 3455POPC   GL246982   1.939  37.780   5.803
 3455POPC   C1A46983   2.186  37.459   6.100
 3455POPC   D2A46984   2.204  37.259   6.562
 3455POPC   C3A46985   2.013  37.432   6.963
 3455POPC   C4A46986   1.608  37.550   7.168
 3455POPC   C1B46987   2.128  37.957   6.207
 3455POPC   C2B46988   2.126  37.837   6.656
 3455POPC   C3B46989   2.086  37.928   7.123
 3455POPC   C4B46990   2.040  37.694   7.550
 3456POPC   NC346991   3.742  33.593   5.217
 3456POPC   PO446992   3.170  33.565   5.701
 3456POPC   GL146993   3.451  33.834   5.928
 3456POPC   GL246994   3.741  33.917   5.667
 3456POPC   C1A46995   3.559  33.807   6.388
 3456POPC   D2A46996   3.731  33.524   6.726
 3456POPC   C3A46997   3.565  33.583   7.144
 3456POPC   C4A46998   3.715  33.739   7.529
 3456POPC   C1B46999   3.885  34.083   6.074
 3456POPC   C2B47000   3.814  34.240   6.505
 3456POPC   C3B47001   3.698  34.027   6.904
 3456POPC   C4B47002   3.755  34.207   7.338
 3457POPC   NC347003   2.060  16.977   5.546
 3457POPC   PO447004   1.802  16.427   5.400
 3457POPC   GL147005   1.905  16.578   5.814
 3457POPC   GL247006   1.605  16.794   5.916
 3457POPC   C1A47007   2.033  16.802   6.205
 3457POPC   D2A47008   1.791  16.767   6.583
 3457POPC   C3A47009   1.885  17.001   6.975
 3457POPC   C4A47010   2.139  17.018   7.383
 3457POPC   C1B47011   1.551  16.377   6.104
 3457POPC   C2B47012   1.674  16.243   6.489
 3457POPC   C3B47013   1.751  16.372   6.898
 3457POPC   C4B47014   1.960  16.562   7.211
 3458POPC   NC347015  39.699  22.950   5.034
 3458POPC   PO447016  39.157  22.856   5.411
 3458POPC   GL147017  39.091  22.926   5.828
 3458POPC   GL247018  39.102  23.313   5.807
 3458POPC   C1A47019  39.179  22.661   6.247
 3458POPC   D2A47020  39.023  22.448   6.667
 3458POPC   C3A47021  39.301  22.579   7.008
 3458POPC   C4A47022  39.567  22.958   6.999
 3458POPC   C1B47023  39.056  23.194   6.239
 3458POPC   C2B47024  39.260  23.046   6.602
 3458POPC   C3B47025  39.030  23.025   6.982
 3458POPC   C4B47026  38.992  22.845   7.368
 3459POPC   NC347027  28.307  31.975   5.338
 3459POPC   PO447028  28.516  31.348   5.408
 3459POPC   GL147029  28.344  31.373   5.809
 3459POPC   GL247030  28.155  31.680   5.717
 3459POPC   C1A47031  28.408  31.240   6.268
 3459POPC   D2A47032  28.454  31.255   6.749
 3459POPC   C3A47033  28.501  31.694   6.932
 3459POPC   C4A47034  28.740  31.870   7.239
 3459POPC   C1B47035  28.079  31.628   6.140
 3459POPC   C2B47036  28.175  31.630   6.540
 3459POPC   C3B47037  28.023  31.522   6.923
 3459POPC   C4B47038  28.256  31.330   7.229
 3460POPC   NC347039  19.210   5.906   5.477
 3460POPC   PO447040  18.634   5.505   5.516
 3460POPC   GL147041  18.817   5.772   5.893
 3460POPC   GL247042  19.105   6.039   5.941
 3460POPC   C1A47043  18.891   5.875   6.354
 3460POPC   D2A47044  18.923   5.727   6.738
 3460POPC   C3A47045  18.945   5.931   7.083
 3460POPC   C4A47046  19.026   5.681   7.437
 3460POPC   C1B47047  19.369   6.092   6.303
 3460POPC   C2B47048  19.345   6.020   6.731
 3460POPC   C3B47049  19.397   6.160   7.126
 3460POPC   C4B47050  19.472   5.889   7.449
 3461POPC   NC347051  29.517  36.168   5.461
 3461POPC   PO447052  28.888  36.434   5.309
 3461POPC   GL147053  29.056  36.172   5.690
 3461POPC   GL247054  29.331  36.341   5.875
 3461POPC   C1A47055  29.092  35.992   6.154
 3461POPC   D2A47056  29.209  35.911   6.602
 3461POPC   C3A47057  29.068  36.108   6.998
 3461POPC   C4A47058  28.719  35.912   7.214
 3461POPC   C1B47059  29.591  36.110   6.163
 3461POPC   C2B47060  29.570  36.295   6.561
 3461POPC   C3B47061  29.604  36.185   6.979
 3461POPC   C4B47062  29.514  36.189   7.415
 3462POPC   NC347063  38.744   6.843   5.560
 3462POPC   PO447064  38.257   6.441   5.408
 3462POPC   GL147065  38.364   6.639   5.836
 3462POPC   GL247066  38.099   6.839   5.940
 3462POPC   C1A47067  38.679   6.673   6.203
 3462POPC   D2A47068  38.524   6.624   6.634
 3462POPC   C3A47069  38.743   6.635   7.025
 3462POPC   C4A47070  38.636   6.726   7.474
 3462POPC   C1B47071  38.269   6.967   6.298
 3462POPC   C2B47072  38.145   6.980   6.720
 3462POPC   C3B47073  38.261   6.835   7.103
 3462POPC   C4B47074  38.343   7.185   7.363
 3463POPC   NC347075  37.033  23.454   5.537
 3463POPC   PO447076  36.871  24.077   5.259
 3463POPC   GL147077  36.959  23.942   5.684
 3463POPC   GL247078  37.292  23.793   5.854
 3463POPC   C1A47079  36.809  23.836   6.087
 3463POPC   D2A47080  37.005  23.917   6.468
 3463POPC   C3A47081  36.917  23.746   6.852
 3463POPC   C4A47082  37.130  23.849   7.198
 3463POPC   C1B47083  37.166  23.480   6.205
 3463POPC   C2B47084  37.089  23.297   6.635
 3463POPC   C3B47085  37.157  23.349   7.078
 3463POPC   C4B47086  37.255  23.421   7.478
 3464POPC   NC347087  39.756  36.721   4.893
 3464POPC   PO447088  40.229  36.876   5.345
 3464POPC   GL147089  40.132  37.009   5.774
 3464POPC   GL247090  39.862  36.831   5.935
 3464POPC   C1A47091  40.233  36.974   6.235
 3464POPC   D2A47092  39.832  36.930   6.499
 3464POPC   C3A47093  39.891  37.082   6.886
 3464POPC   C4A47094  40.001  37.112   7.290
 3464POPC   C1B47095  39.987  36.507   6.270
 3464POPC   C2B47096  40.064  36.495   6.705
 3464POPC   C3B47097  40.291  36.741   7.038
 3464POPC   C4B47098  40.198  36.663   7.471
 3465POPC   NC347099  14.384  28.954   5.284
 3465POPC   PO447100  14.676  29.620   5.314
 3465POPC   GL147101  14.495  29.365   5.646
 3465POPC   GL247102  14.564  29.021   5.758
 3465POPC   C1A47103  14.432  29.380   6.112
 3465POPC   D2A47104  14.534  29.227   6.538
 3465POPC   C3A47105  14.183  29.233   6.853
 3465POPC   C4A47106  14.129  29.576   7.150
 3465POPC   C1B47107  14.442  28.694   6.078
 3465POPC   C2B47108  14.349  28.720   6.530
 3465POPC   C3B47109  14.571  28.862   6.921
 3465POPC   C4B47110  14.475  29.027   7.340
 3466POPC   NC347111  25.404   8.758   5.391
 3466POPC   PO447112  25.026   9.303   5.154
 3466POPC   GL147113  25.267   9.187   5.624
 3466POPC   GL247114  25.191   8.872   5.835
 3466POPC   C1A47115  25.404   9.253   6.083
 3466POPC   D2A47116  25.239   9.397   6.479
 3466POPC   C3A47117  25.315   9.161   6.852
 3466POPC   C4A47118  25.114   9.318   7.149
 3466POPC   C1B47119  25.068   8.937   6.286
 3466POPC   C2B47120  25.074   8.737   6.671
 3466POPC   C3B47121  25.042   8.792   7.109
 3466POPC   C4B47122  25.364   8.717   7.387
 3467POPC   NC347123  42.937  41.911   5.636
 3467POPC   PO447124  43.288  41.486   5.229
 3467POPC   GL147125  43.373  41.607   5.689
 3467POPC   GL247126  43.176  41.455   5.913
 3467POPC   C1A47127  43.468  41.770   6.141
 3467POPC   D2A47128  43.336  41.572   6.528
 3467POPC   C3A47129  43.353  41.861   6.884
 3467POPC   C4A47130  43.392  41.728   7.310
 3467POPC   C1B47131  42.905  41.549   6.255
 3467POPC   C2B47132  42.858  41.685   6.683
 3467POPC   C3B47133  43.065  41.467   7.031
 3467POPC   C4B47134  42.940  41.283   7.415
 3468POPC   NC347135  25.322  10.280   5.464
 3468POPC   PO447136  24.693  10.576   5.377
 3468POPC   GL147137  25.001  10.695   5.754
 3468POPC   GL247138  25.382  10.661   5.814
 3468POPC   C1A47139  25.099  10.796   6.223
 3468POPC   D2A47140  25.020  10.465   6.541
 3468POPC   C3A47141  25.051  10.578   6.985
 3468POPC   C4A47142  25.185  10.407   7.367
 3468POPC   C1B47143  25.521  10.508   6.235
 3468POPC   C2B47144  25.459  10.702   6.656
 3468POPC   C3B47145  25.559  10.420   6.999
 3468POPC   C4B47146  25.714  10.035   7.204
 3469POPC   NC347147   7.998  22.545   5.231
 3469POPC   PO447148   8.233  21.873   5.322
 3469POPC   GL147149   8.173  22.040   5.752
 3469POPC   GL247150   8.121  22.378   5.710
 3469POPC   C1A47151   8.210  21.943   6.221
 3469POPC   D2A47152   8.180  21.759   6.656
 3469POPC   C3A47153   8.197  21.984   7.073
 3469POPC   C4A47154   8.001  21.917   7.515
 3469POPC   C1B47155   8.128  22.448   6.177
 3469POPC   C2B47156   8.319  22.407   6.602
 3469POPC   C3B47157   8.071  22.478   6.959
 3469POPC   C4B47158   8.102  22.397   7.386
 3470POPC   NC347159  41.373  18.775   5.192
 3470POPC   PO447160  41.676  19.190   5.461
 3470POPC   GL147161  41.607  18.918   5.808
 3470POPC   GL247162  41.295  19.023   5.966
 3470POPC   C1A47163  41.707  18.941   6.247
 3470POPC   D2A47164  41.416  19.092   6.569
 3470POPC   C3A47165  41.608  19.018   6.969
 3470POPC   C4A47166  41.852  19.290   7.229
 3470POPC   C1B47167  41.496  19.417   6.129
 3470POPC   C2B47168  41.479  19.603   6.530
 3470POPC   C3B47169  41.458  19.513   6.960
 3470POPC   C4B47170  41.350  19.364   7.399
 3471POPC   NC347171  14.103  39.364   5.513
 3471POPC   PO447172  14.490  38.826   5.303
 3471POPC   GL147173  14.431  38.978   5.763
 3471POPC   GL247174  14.738  38.981   5.946
 3471POPC   C1A47175  14.372  39.241   6.187
 3471POPC   D2A47176  14.574  39.254   6.626
 3471POPC   C3A47177  14.334  39.379   6.996
 3471POPC   C4A47178  14.127  39.156   7.342
 3471POPC   C1B47179  14.483  38.749   6.267
 3471POPC   C2B47180  14.393  38.779   6.725
 3471POPC   C3B47181  14.561  38.934   7.137
 3471POPC   C4B47182  14.489  38.916   7.625
 3472POPC   NC347183  24.059  23.933   5.065
 3472POPC   PO447184  24.645  24.060   5.427
 3472POPC   GL147185  24.497  24.009   5.825
 3472POPC   GL247186  24.612  23.668   5.792
 3472POPC   C1A47187  24.417  24.077   6.257
 3472POPC   D2A47188  24.509  23.834   6.619
 3472POPC   C3A47189  24.266  23.933   6.979
 3472POPC   C4A47190  24.450  24.064   7.362
 3472POPC   C1B47191  24.628  23.508   6.187
 3472POPC   C2B47192  24.491  23.317   6.545
 3472POPC   C3B47193  24.456  23.340   6.979
 3472POPC   C4B47194  24.493  23.578   7.313
 3473POPC   NC347195  17.425  37.186   5.321
 3473POPC   PO447196  17.306  37.830   5.242
 3473POPC   GL147197  17.357  37.936   5.681
 3473POPC   GL247198  17.716  37.841   5.757
 3473POPC   C1A47199  17.301  37.669   6.067
 3473POPC   D2A47200  17.189  37.719   6.494
 3473POPC   C3A47201  17.271  37.504   6.881
 3473POPC   C4A47202  17.545  37.516   7.232
 3473POPC   C1B47203  17.613  38.073   6.141
 3473POPC   C2B47204  17.532  38.070   6.579
 3473POPC   C3B47205  17.726  37.795   6.859
 3473POPC   C4B47206  17.911  37.866   7.271
 3474POPC   NC347207   3.481   3.702   5.314
 3474POPC   PO447208   2.997   3.999   5.634
 3474POPC   GL147209   3.233   3.699   5.888
 3474POPC   GL247210   3.592   3.653   5.891
 3474POPC   C1A47211   3.301   3.629   6.330
 3474POPC   D2A47212   3.497   3.876   6.666
 3474POPC   C3A47213   3.309   3.689   7.003
 3474POPC   C4A47214   3.297   3.245   7.018
 3474POPC   C1B47215   3.682   3.324   6.190
 3474POPC   C2B47216   3.643   3.373   6.625
 3474POPC   C3B47217   3.825   3.272   6.970
 3474POPC   C4B47218   4.036   3.017   7.229
 3475POPC   NC347219  21.144  26.751   5.348
 3475POPC   PO447220  21.812  26.998   5.373
 3475POPC   GL147221  21.689  26.926   5.812
 3475POPC   GL247222  21.342  26.857   5.809
 3475POPC   C1A47223  21.637  26.677   6.205
 3475POPC   D2A47224  21.338  26.439   6.471
 3475POPC   C3A47225  21.453  26.544   6.884
 3475POPC   C4A47226  21.708  26.824   7.167
 3475POPC   C1B47227  21.120  26.805   6.189
 3475POPC   C2B47228  21.289  26.957   6.584
 3475POPC   C3B47229  21.283  27.056   7.019
 3475POPC   C4B47230  21.216  26.709   7.299
 3476POPC   NC347231  10.188  43.159   5.372
 3476POPC   PO447232  10.879  42.943   5.364
 3476POPC   GL147233  10.706  43.187   5.715
 3476POPC   GL247234  10.373  43.056   5.842
 3476POPC   C1A47235  10.743  43.284   6.170
 3476POPC   D2A47236  10.656  43.154   6.602
 3476POPC   C3A47237  10.898  43.245   6.967
 3476POPC   C4A47238  10.805  42.891   7.244
 3476POPC   C1B47239  10.409  42.859   6.250
 3476POPC   C2B47240  10.156  42.717   6.619
 3476POPC   C3B47241  10.364  42.893   6.983
 3476POPC   C4B47242  10.316  42.870   7.428
 3477POPC   NC347243  18.497  41.029   5.475
 3477POPC   PO447244  17.890  40.868   5.189
 3477POPC   GL147245  18.113  40.728   5.683
 3477POPC   GL247246  18.470  40.540   5.746
 3477POPC   C1A47247  18.135  40.759   6.204
 3477POPC   D2A47248  18.001  40.953   6.658
 3477POPC   C3A47249  18.268  41.011   7.045
 3477POPC   C4A47250  18.316  41.045   7.482
 3477POPC   C1B47251  18.463  40.368   6.190
 3477POPC   C2B47252  18.373  40.556   6.631
 3477POPC   C3B47253  18.157  40.527   7.052
 3477POPC   C4B47254  18.319  40.546   7.495
 3478POPC   NC347255  16.941  35.685   5.104
 3478POPC   PO447256  16.858  35.212   5.507
 3478POPC   GL147257  16.667  35.134   5.866
 3478POPC   GL247258  16.786  35.462   6.009
 3478POPC   C1A47259  16.653  35.043   6.281
 3478POPC   D2A47260  16.843  35.213   6.624
 3478POPC   C3A47261  16.594  35.230   7.000
 3478POPC   C4A47262  16.542  34.972   7.331
 3478POPC   C1B47263  16.997  35.776   6.270
 3478POPC   C2B47264  17.114  35.787   6.692
 3478POPC   C3B47265  17.024  35.513   6.992
 3478POPC   C4B47266  17.016  35.489   7.394
 3479POPC   NC347267   5.983  12.314   5.435
 3479POPC   PO447268   5.697  11.739   5.270
 3479POPC   GL147269   5.716  11.958   5.718
 3479POPC   GL247270   6.048  12.026   5.889
 3479POPC   C1A47271   5.637  12.088   6.189
 3479POPC   D2A47272   5.889  12.120   6.580
 3479POPC   C3A47273   5.676  12.015   6.950
 3479POPC   C4A47274   5.670  12.340   7.261
 3479POPC   C1B47275   6.088  11.753   6.277
 3479POPC   C2B47276   6.114  11.638   6.733
 3479POPC   C3B47277   6.176  11.943   7.054
 3479POPC   C4B47278   6.193  12.418   7.121
 3480POPC   NC347279  10.779  31.892   4.978
 3480POPC   PO447280  10.812  31.641   5.625
 3480POPC   GL147281  10.434  31.525   5.849
 3480POPC   GL247282  10.295  31.853   5.877
 3480POPC   C1A47283  10.406  31.571   6.299
 3480POPC   D2A47284  10.681  31.803   6.567
 3480POPC   C3A47285  10.745  31.644   7.001
 3480POPC   C4A47286  10.586  31.247   7.210
 3480POPC   C1B47287  10.260  32.060   6.276
 3480POPC   C2B47288  10.029  31.830   6.581
 3480POPC   C3B47289  10.173  31.716   6.982
 3480POPC   C4B47290  10.033  31.975   7.329
 3481POPC   NC347291  38.020  30.027   5.111
 3481POPC   PO447292  38.414  29.584   5.398
 3481POPC   GL147293  38.553  29.736   5.870
 3481POPC   GL247294  38.437  30.077   5.941
 3481POPC   C1A47295  38.509  29.812   6.378
 3481POPC   D2A47296  38.463  29.548   6.711
 3481POPC   C3A47297  38.496  29.576   7.121
 3481POPC   C4A47298  38.395  29.655   7.561
 3481POPC   C1B47299  38.782  30.156   6.158
 3481POPC   C2B47300  38.690  30.313   6.595
 3481POPC   C3B47301  38.407  30.066   6.849
 3481POPC   C4B47302  38.236  30.045   7.236
 3482POPC   NC347303  13.577  37.219   5.414
 3482POPC   PO447304  13.846  36.536   5.332
 3482POPC   GL147305  13.736  36.817   5.673
 3482POPC   GL247306  14.038  36.764   5.788
 3482POPC   C1A47307  13.530  36.843   6.096
 3482POPC   D2A47308  13.412  36.610   6.499
 3482POPC   C3A47309  13.484  36.876   6.858
 3482POPC   C4A47310  13.563  37.092   7.247
 3482POPC   C1B47311  14.039  36.919   6.183
 3482POPC   C2B47312  13.938  36.826   6.581
 3482POPC   C3B47313  13.964  37.077   6.929
 3482POPC   C4B47314  14.072  36.787   7.205
 3483POPC   NC347315  18.406   7.950   5.251
 3483POPC   PO447316  18.471   8.489   5.668
 3483POPC   GL147317  18.191   8.282   5.885
 3483POPC   GL247318  18.206   7.932   5.758
 3483POPC   C1A47319  18.285   8.380   6.294
 3483POPC   D2A47320  18.437   8.185   6.644
 3483POPC   C3A47321  18.331   8.400   6.978
 3483POPC   C4A47322  18.389   8.308   7.376
 3483POPC   C1B47323  18.241   7.866   6.216
 3483POPC   C2B47324  18.147   7.781   6.645
 3483POPC   C3B47325  18.095   7.952   7.061
 3483POPC   C4B47326  17.799   8.062   7.376
 3484POPC   NC347327  44.281   7.511   5.487
 3484POPC   PO447328  44.956   7.425   5.311
 3484POPC   GL147329  44.783   7.310   5.729
 3484POPC   GL247330  44.733   7.636   5.874
 3484POPC   C1A47331  44.694   7.220   6.176
 3484POPC   D2A47332  44.496   7.403   6.484
 3484POPC   C3A47333  44.766   7.426   6.798
 3484POPC   C4A47334  44.606   7.277   7.154
 3484POPC   C1B47335  44.769   7.790   6.331
 3484POPC   C2B47336  44.551   7.879   6.774
 3484POPC   C3B47337  44.455   7.785   7.252
 3484POPC   C4B47338  44.456   7.858   7.754
 3485POPC   NC347339   6.535  13.037   5.501
 3485POPC   PO447340   6.972  12.619   5.107
 3485POPC   GL147341   6.613  12.527   5.570
 3485POPC   GL247342   6.288  12.532   5.776
 3485POPC   C1A47343   6.641  12.735   6.078
 3485POPC   D2A47344   6.688  12.674   6.532
 3485POPC   C3A47345   6.668  12.913   6.902
 3485POPC   C4A47346   6.794  12.839   7.359
 3485POPC   C1B47347   6.144  12.765   6.173
 3485POPC   C2B47348   6.356  13.094   6.472
 3485POPC   C3B47349   6.288  13.271   6.912
 3485POPC   C4B47350   6.312  12.956   7.258
 3486POPC   NC347351  13.027  35.764   5.377
 3486POPC   PO447352  12.846  35.174   5.261
 3486POPC   GL147353  12.841  35.375   5.710
 3486POPC   GL247354  13.070  35.613   5.852
 3486POPC   C1A47355  12.958  35.264   6.190
 3486POPC   D2A47356  12.957  35.586   6.574
 3486POPC   C3A47357  12.763  35.423   6.981
 3486POPC   C4A47358  12.411  35.191   7.152
 3486POPC   C1B47359  13.359  35.581   6.191
 3486POPC   C2B47360  13.395  35.310   6.570
 3486POPC   C3B47361  13.263  35.473   6.991
 3486POPC   C4B47362  13.075  35.437   7.406
 3487POPC   NC347363  23.868  24.843   5.425
 3487POPC   PO447364  23.605  24.230   5.519
 3487POPC   GL147365  23.529  24.351   5.921
 3487POPC   GL247366  23.859  24.491   5.886
 3487POPC   C1A47367  23.452  24.293   6.371
 3487POPC   D2A47368  23.297  24.575   6.695
 3487POPC   C3A47369  23.490  24.530   7.097
 3487POPC   C4A47370  23.421  24.808   7.469
 3487POPC   C1B47371  23.970  24.344   6.294
 3487POPC   C2B47372  23.905  24.492   6.713
 3487POPC   C3B47373  24.061  24.421   7.127
 3487POPC   C4B47374  23.960  24.137   7.463
 3488POPC   NC347375  42.250   3.979   5.416
 3488POPC   PO447376  42.470   3.302   5.425
 3488POPC   GL147377  42.357   3.390   5.817
 3488POPC   GL247378  42.149   3.647   5.793
 3488POPC   C1A47379  42.463   3.271   6.235
 3488POPC   D2A47380  42.480   3.493   6.631
 3488POPC   C3A47381  42.243   3.397   6.989
 3488POPC   C4A47382  42.528   3.331   7.324
 3488POPC   C1B47383  42.257   3.745   6.231
 3488POPC   C2B47384  41.989   3.761   6.633
 3488POPC   C3B47385  42.087   3.889   7.057
 3488POPC   C4B47386  42.144   3.664   7.436
 3489POPC   NC347387  10.552   1.736   5.389
 3489POPC   PO447388  10.844   2.288   5.670
 3489POPC   GL147389  10.507   2.049   5.900
 3489POPC   GL247390  10.320   1.704   5.856
 3489POPC   C1A47391  10.549   2.033   6.356
 3489POPC   D2A47392  10.515   2.361   6.694
 3489POPC   C3A47393  10.726   2.264   7.065
 3489POPC   C4A47394  10.543   2.215   7.463
 3489POPC   C1B47395  10.658   1.570   6.132
 3489POPC   C2B47396  10.894   1.621   6.487
 3489POPC   C3B47397  10.703   1.785   6.819
 3489POPC   C4B47398  10.710   1.757   7.218
 3490POPC   NC347399  31.794  43.654   5.557
 3490POPC   PO447400  31.533  44.242   5.330
 3490POPC   GL147401  31.417  44.109   5.775
 3490POPC   GL247402  31.451  43.781   5.927
 3490POPC   C1A47403  31.499  44.136   6.267
 3490POPC   D2A47404  31.473  43.833   6.576
 3490POPC   C3A47405  31.469  43.982   6.983
 3490POPC   C4A47406  31.270  43.880   7.360
 3490POPC   C1B47407  31.818  43.743   6.180
 3490POPC   C2B47408  31.900  43.552   6.538
 3490POPC   C3B47409  31.805  43.601   6.924
 3490POPC   C4B47410  31.900  43.775   7.294
 3491POPC   NC347411  23.681   9.633   5.416
 3491POPC   PO447412  23.761  10.258   5.553
 3491POPC   GL147413  23.533  10.109   5.853
 3491POPC   GL247414  23.764   9.826   5.890
 3491POPC   C1A47415  23.579  10.109   6.284
 3491POPC   D2A47416  23.875   9.870   6.547
 3491POPC   C3A47417  23.874   9.913   7.004
 3491POPC   C4A47418  23.550  10.086   7.276
 3491POPC   C1B47419  23.500   9.624   6.202
 3491POPC   C2B47420  23.350   9.771   6.613
 3491POPC   C3B47421  23.423   9.642   7.038
 3491POPC   C4B47422  23.503   9.522   7.472
 3492POPC   NC347423  36.288  19.453   5.373
 3492POPC   PO447424  36.029  20.164   5.394
 3492POPC   GL147425  36.212  19.918   5.781
 3492POPC   GL247426  36.110  19.533   5.872
 3492POPC   C1A47427  36.061  19.888   6.226
 3492POPC   D2A47428  36.053  19.558   6.532
 3492POPC   C3A47429  35.946  19.693   6.943
 3492POPC   C4A47430  36.143  20.009   7.163
 3492POPC   C1B47431  36.380  19.304   6.227
 3492POPC   C2B47432  36.563  19.372   6.657
 3492POPC   C3B47433  36.461  19.627   7.018
 3492POPC   C4B47434  36.261  19.515   7.402
 3493POPC   NC347435   7.843  35.964   5.653
 3493POPC   PO447436   8.420  35.967   5.304
 3493POPC   GL147437   8.365  35.957   5.751
 3493POPC   GL247438   8.240  36.281   5.751
 3493POPC   C1A47439   8.236  35.871   6.195
 3493POPC   D2A47440   8.053  35.924   6.602
 3493POPC   C3A47441   8.261  35.780   6.986
 3493POPC   C4A47442   7.981  35.900   7.318
 3493POPC   C1B47443   8.082  36.360   6.169
 3493POPC   C2B47444   8.264  36.398   6.575
 3493POPC   C3B47445   8.119  36.267   6.997
 3493POPC   C4B47446   8.341  36.305   7.423
 3494POPC   NC347447  42.854  22.920   5.083
 3494POPC   PO447448  43.350  23.106   5.534
 3494POPC   GL147449  43.106  22.903   5.827
 3494POPC   GL247450  43.120  22.544   5.764
 3494POPC   C1A47451  43.025  23.018   6.245
 3494POPC   D2A47452  42.938  22.940   6.670
 3494POPC   C3A47453  43.271  22.738   6.943
 3494POPC   C4A47454  43.250  22.653   7.366
 3494POPC   C1B47455  42.946  22.487   6.187
 3494POPC   C2B47456  42.985  22.429   6.646
 3494POPC   C3B47457  42.797  22.631   7.053
 3494POPC   C4B47458  42.725  22.653   7.503
 3495POPC   NC347459  16.278  42.005   5.375
 3495POPC   PO447460  15.855  42.479   5.178
 3495POPC   GL147461  15.947  42.361   5.600
 3495POPC   GL247462  16.224  42.527   5.770
 3495POPC   C1A47463  15.873  42.143   5.996
 3495POPC   D2A47464  15.947  42.043   6.450
 3495POPC   C3A47465  15.842  42.182   6.849
 3495POPC   C4A47466  15.969  42.117   7.218
 3495POPC   C1B47467  16.112  42.537   6.209
 3495POPC   C2B47468  15.931  42.620   6.594
 3495POPC   C3B47469  16.121  42.667   6.996
 3495POPC   C4B47470  16.185  42.530   7.404
 3496POPC   NC347471  13.637  18.473   5.185
 3496POPC   PO447472  13.178  18.195   5.558
 3496POPC   GL147473  13.281  18.490   5.798
 3496POPC   GL247474  13.613  18.533   5.716
 3496POPC   C1A47475  13.495  18.308   6.168
 3496POPC   D2A47476  13.649  18.124   6.496
 3496POPC   C3A47477  13.579  18.280   6.868
 3496POPC   C4A47478  13.423  18.057   7.177
 3496POPC   C1B47479  13.876  18.637   6.126
 3496POPC   C2B47480  14.003  18.480   6.581
 3496POPC   C3B47481  13.941  18.600   7.021
 3496POPC   C4B47482  13.873  18.258   7.317
 3497POPC   NC347483  16.103  40.423   5.511
 3497POPC   PO447484  15.425  40.090   5.427
 3497POPC   GL147485  15.776  40.089   5.727
 3497POPC   GL247486  15.952  39.765   5.832
 3497POPC   C1A47487  15.973  40.185   6.154
 3497POPC   D2A47488  15.911  39.950   6.547
 3497POPC   C3A47489  16.054  40.049   6.962
 3497POPC   C4A47490  16.081  40.042   7.420
 3497POPC   C1B47491  16.231  39.711   6.235
 3497POPC   C2B47492  16.250  39.568   6.690
 3497POPC   C3B47493  16.296  39.659   7.146
 3497POPC   C4B47494  16.400  39.701   7.613
 3498POPC   NC347495  30.061  19.656   5.338
 3498POPC   PO447496  29.632  20.126   5.556
 3498POPC   GL147497  29.862  19.977   5.906
 3498POPC   GL247498  30.130  19.771   5.835
 3498POPC   C1A47499  29.825  19.677   6.251
 3498POPC   D2A47500  29.930  19.535   6.651
 3498POPC   C3A47501  29.638  19.634   6.994
 3498POPC   C4A47502  29.414  19.483   7.383
 3498POPC   C1B47503  30.285  19.879   6.269
 3498POPC   C2B47504  30.394  19.777   6.684
 3498POPC   C3B47505  30.292  19.932   7.079
 3498POPC   C4B47506  29.947  19.971   7.382
 3499POPC   NC347507  27.131  24.404   5.298
 3499POPC   PO447508  26.751  24.851   5.339
 3499POPC   GL147509  26.679  24.606   5.715
 3499POPC   GL247510  26.936  24.373   5.804
 3499POPC   C1A47511  26.660  24.586   6.196
 3499POPC   D2A47512  26.856  24.540   6.614
 3499POPC   C3A47513  26.650  24.533   7.008
 3499POPC   C4A47514  26.704  24.460   7.448
 3499POPC   C1B47515  27.161  24.578   6.189
 3499POPC   C2B47516  27.368  24.505   6.593
 3499POPC   C3B47517  27.185  24.472   7.015
 3499POPC   C4B47518  27.225  24.578   7.457
 3500POPC   NC347519  21.797   8.847   5.306
 3500POPC   PO447520  21.350   9.234   5.450
 3500POPC   GL147521  21.245   9.250   5.855
 3500POPC   GL247522  21.596   9.296   5.898
 3500POPC   C1A47523  21.098   8.963   6.223
 3500POPC   D2A47524  21.317   8.879   6.631
 3500POPC   C3A47525  21.253   9.006   7.065
 3500POPC   C4A47526  21.276   8.708   7.422
 3500POPC   C1B47527  21.483   9.287   6.337
 3500POPC   C2B47528  21.468   9.385   6.755
 3500POPC   C3B47529  21.744   9.244   7.077
 3500POPC   C4B47530  21.620   9.080   7.441
 3501POPC   NC347531  33.764  39.879   5.330
 3501POPC   PO447532  33.943  40.595   5.400
 3501POPC   GL147533  33.856  40.273   5.755
 3501POPC   GL247534  33.979  39.910   5.831
 3501POPC   C1A47535  33.824  40.208   6.213
 3501POPC   D2A47536  33.578  40.098   6.596
 3501POPC   C3A47537  33.740  40.267   7.005
 3501POPC   C4A47538  33.533  40.234   7.397
 3501POPC   C1B47539  33.836  39.698   6.238
 3501POPC   C2B47540  33.635  39.573   6.631
 3501POPC   C3B47541  33.641  39.756   7.053
 3501POPC   C4B47542  33.828  39.849   7.460
 3502POPC   NC347543  39.848  40.195   5.459
 3502POPC   PO447544  40.148  39.574   5.375
 3502POPC   GL147545  40.046  39.765   5.768
 3502POPC   GL247546  39.700  39.679   5.705
 3502POPC   C1A47547  40.069  40.096   6.115
 3502POPC   D2A47548  39.774  40.168   6.474
 3502POPC   C3A47549  39.875  40.011   6.850
 3502POPC   C4A47550  40.070  39.989   7.233
 3502POPC   C1B47551  39.661  39.797   6.127
 3502POPC   C2B47552  39.628  39.649   6.535
 3502POPC   C3B47553  39.517  39.619   6.952
 3502POPC   C4B47554  39.668  39.638   7.379
 3503POPC   NC347555  40.952  15.757   5.398
 3503POPC   PO447556  41.004  16.430   5.297
 3503POPC   GL147557  40.925  16.242   5.703
 3503POPC   GL247558  40.669  15.959   5.786
 3503POPC   C1A47559  40.947  16.183   6.165
 3503POPC   D2A47560  40.766  16.366   6.544
 3503POPC   C3A47561  40.815  16.243   6.996
 3503POPC   C4A47562  40.975  15.857   7.187
 3503POPC   C1B47563  40.607  15.769   6.211
 3503POPC   C2B47564  40.661  15.843   6.665
 3503POPC   C3B47565  40.474  15.764   7.068
 3503POPC   C4B47566  40.548  15.540   7.464
 3504POPC   NC347567  17.967  12.013   5.435
 3504POPC   PO447568  18.634  12.250   5.460
 3504POPC   GL147569  18.351  12.199   5.835
 3504POPC   GL247570  17.987  12.267   5.862
 3504POPC   C1A47571  18.411  11.949   6.203
 3504POPC   D2A47572  18.646  11.827   6.561
 3504POPC   C3A47573  18.418  11.951   6.928
 3504POPC   C4A47574  18.161  12.014   7.297
 3504POPC   C1B47575  17.938  12.129   6.297
 3504POPC   C2B47576  17.922  12.037   6.764
 3504POPC   C3B47577  17.765  12.257   7.121
 3504POPC   C4B47578  17.906  12.458   7.515
 3505POPC   NC347579  14.709  43.767   5.254
 3505POPC   PO447580  14.106  43.975   5.377
 3505POPC   GL147581  14.335  43.669   5.670
 3505POPC   GL247582  14.724  43.671   5.751
 3505POPC   C1A47583  14.357  43.692   6.113
 3505POPC   D2A47584  14.404  43.979   6.459
 3505POPC   C3A47585  14.451  43.743   6.824
 3505POPC   C4A47586  14.459  43.867   7.235
 3505POPC   C1B47587  14.836  43.890   6.120
 3505POPC   C2B47588  14.891  43.830   6.555
 3505POPC   C3B47589  14.784  44.113   6.873
 3505POPC   C4B47590  14.892  44.138   7.269
 3506POPC   NC347591  36.622  41.469   5.002
 3506POPC   PO447592  37.137  41.437   5.407
 3506POPC   GL147593  37.004  41.573   5.786
 3506POPC   GL247594  36.931  41.300   5.892
 3506POPC   C1A47595  37.049  41.652   6.221
 3506POPC   D2A47596  36.829  41.617   6.598
 3506POPC   C3A47597  37.088  41.645   6.976
 3506POPC   C4A47598  36.764  41.630   7.264
 3506POPC   C1B47599  37.228  41.162   6.159
 3506POPC   C2B47600  37.074  41.169   6.560
 3506POPC   C3B47601  36.875  41.191   6.967
 3506POPC   C4B47602  37.147  41.235   7.319
 3507POPC   NC347603  19.378  14.882   5.468
 3507POPC   PO447604  18.898  15.338   5.382
 3507POPC   GL147605  19.236  15.331   5.719
 3507POPC   GL247606  18.959  15.409   5.902
 3507POPC   C1A47607  19.324  15.074   6.131
 3507POPC   D2A47608  19.217  15.027   6.609
 3507POPC   C3A47609  19.265  15.252   7.034
 3507POPC   C4A47610  19.446  15.162   7.443
 3507POPC   C1B47611  18.902  15.321   6.329
 3507POPC   C2B47612  18.714  15.087   6.650
 3507POPC   C3B47613  18.808  15.050   7.048
 3507POPC   C4B47614  18.859  15.362   7.326
 3508POPC   NC347615  30.692  36.673   5.203
 3508POPC   PO447616  31.070  37.136   5.478
 3508POPC   GL147617  30.699  37.007   5.711
 3508POPC   GL247618  30.684  36.652   5.752
 3508POPC   C1A47619  30.527  37.044   6.149
 3508POPC   D2A47620  30.493  36.846   6.581
 3508POPC   C3A47621  30.532  37.034   7.029
 3508POPC   C4A47622  30.785  37.136   7.456
 3508POPC   C1B47623  30.829  36.604   6.167
 3508POPC   C2B47624  31.014  36.777   6.532
 3508POPC   C3B47625  30.845  36.642   6.924
 3508POPC   C4B47626  30.891  36.663   7.345
 3509POPC   NC347627   5.308  41.919   5.459
 3509POPC   PO447628   4.848  41.462   5.366
 3509POPC   GL147629   4.884  41.552   5.855
 3509POPC   GL247630   5.143  41.834   5.985
 3509POPC   C1A47631   4.885  41.452   6.277
 3509POPC   D2A47632   4.935  41.202   6.639
 3509POPC   C3A47633   4.920  41.417   7.023
 3509POPC   C4A47634   5.097  41.747   7.235
 3509POPC   C1B47635   5.379  41.563   6.308
 3509POPC   C2B47636   5.337  41.607   6.721
 3509POPC   C3B47637   5.573  41.695   7.057
 3509POPC   C4B47638   5.480  41.462   7.411
 3510POPC   NC347639  18.650   9.679   5.450
 3510POPC   PO447640  18.128  10.153   5.487
 3510POPC   GL147641  18.359  10.070   5.877
 3510POPC   GL247642  18.179   9.784   5.964
 3510POPC   C1A47643  18.495   9.991   6.352
 3510POPC   D2A47644  18.437   9.708   6.759
 3510POPC   C3A47645  18.434   9.891   7.197
 3510POPC   C4A47646  18.564   9.997   7.668
 3510POPC   C1B47647  18.366   9.508   6.271
 3510POPC   C2B47648  18.155   9.248   6.533
 3510POPC   C3B47649  17.966   9.347   6.883
 3510POPC   C4B47650  18.264   9.403   7.180
 3511POPC   NC347651  25.046  22.804   4.976
 3511POPC   PO447652  25.257  23.274   5.350
 3511POPC   GL147653  25.057  23.265   5.800
 3511POPC   GL247654  25.121  23.552   5.922
 3511POPC   C1A47655  25.029  23.188   6.299
 3511POPC   D2A47656  25.227  22.859   6.595
 3511POPC   C3A47657  25.351  22.853   7.051
 3511POPC   C4A47658  25.591  22.720   7.415
 3511POPC   C1B47659  25.485  23.381   6.190
 3511POPC   C2B47660  25.454  23.317   6.650
 3511POPC   C3B47661  25.294  23.354   7.064
 3511POPC   C4B47662  25.023  23.460   7.386
 3512POPC   NC347663  20.818   8.642   5.543
 3512POPC   PO447664  20.502   9.219   5.313
 3512POPC   GL147665  20.382   9.003   5.692
 3512POPC   GL247666  20.325   8.651   5.815
 3512POPC   C1A47667  20.527   9.062   6.125
 3512POPC   D2A47668  20.302   8.986   6.501
 3512POPC   C3A47669  20.408   8.931   6.939
 3512POPC   C4A47670  20.477   9.283   7.214
 3512POPC   C1B47671  20.535   8.554   6.211
 3512POPC   C2B47672  20.764   8.738   6.595
 3512POPC   C3B47673  20.842   8.675   7.059
 3512POPC   C4B47674  20.567   8.647   7.428
 3513POPC   NC347675  33.422  23.071   5.546
 3513POPC   PO447676  33.434  22.421   5.306
 3513POPC   GL147677  33.622  22.497   5.747
 3513POPC   GL247678  33.690  22.813   5.898
 3513POPC   C1A47679  33.911  22.445   6.159
 3513POPC   D2A47680  34.030  22.607   6.576
 3513POPC   C3A47681  33.705  22.759   6.862
 3513POPC   C4A47682  33.548  22.821   7.242
 3513POPC   C1B47683  33.618  22.838   6.348
 3513POPC   C2B47684  33.739  23.199   6.627
 3513POPC   C3B47685  33.749  23.289   7.080
 3513POPC   C4B47686  33.830  23.238   7.530
 3514POPC   NC347687  40.085  27.714   5.313
 3514POPC   PO447688  40.154  27.177   5.723
 3514POPC   GL147689  40.029  27.604   5.836
 3514POPC   GL247690  39.710  27.721   5.689
 3514POPC   C1A47691  39.917  27.650   6.272
 3514POPC   D2A47692  40.063  27.407   6.609
 3514POPC   C3A47693  40.144  27.671   6.929
 3514POPC   C4A47694  39.909  27.815   7.240
 3514POPC   C1B47695  39.580  27.383   6.009
 3514POPC   C2B47696  39.465  27.413   6.443
 3514POPC   C3B47697  39.616  27.541   6.846
 3514POPC   C4B47698  39.451  27.573   7.244
 3515POPC   NC347699  31.777  31.528   5.404
 3515POPC   PO447700  31.189  31.503   5.514
 3515POPC   GL147701  31.497  31.358   5.838
 3515POPC   GL247702  31.228  31.528   6.021
 3515POPC   C1A47703  31.581  31.270   6.274
 3515POPC   D2A47704  31.419  31.530   6.595
 3515POPC   C3A47705  31.550  31.456   7.011
 3515POPC   C4A47706  31.440  31.697   7.371
 3515POPC   C1B47707  31.051  31.151   6.135
 3515POPC   C2B47708  31.088  31.133   6.567
 3515POPC   C3B47709  31.048  31.390   6.955
 3515POPC   C4B47710  31.194  31.262   7.363
 3516POPC   NC347711  42.819  16.099   5.374
 3516POPC   PO447712  43.472  15.794   5.348
 3516POPC   GL147713  43.164  15.807   5.665
 3516POPC   GL247714  43.097  16.144   5.809
 3516POPC   C1A47715  43.145  15.713   6.107
 3516POPC   D2A47716  42.847  15.671   6.442
 3516POPC   C3A47717  42.841  15.929   6.791
 3516POPC   C4A47718  43.031  15.885   7.180
 3516POPC   C1B47719  42.950  16.177   6.240
 3516POPC   C2B47720  42.998  16.401   6.626
 3516POPC   C3B47721  42.931  16.383   7.089
 3516POPC   C4B47722  42.654  16.202   7.379
 3517POPC   NC347723  13.382  32.423   5.156
 3517POPC   PO447724  12.700  32.386   5.232
 3517POPC   GL147725  12.856  32.296   5.670
 3517POPC   GL247726  12.690  32.533   5.891
 3517POPC   C1A47727  13.069  32.291   6.105
 3517POPC   D2A47728  13.023  32.530   6.505
 3517POPC   C3A47729  12.990  32.341   6.923
 3517POPC   C4A47730  12.885  32.265   7.362
 3517POPC   C1B47731  12.562  32.321   6.271
 3517POPC   C2B47732  12.550  32.458   6.703
 3517POPC   C3B47733  12.474  32.207   7.051
 3517POPC   C4B47734  12.395  32.188   7.491
 3518POPC   NC347735  34.294  16.626   5.488
 3518POPC   PO447736  34.922  16.936   5.367
 3518POPC   GL147737  34.697  16.879   5.762
 3518POPC   GL247738  34.363  16.976   5.845
 3518POPC   C1A47739  34.691  16.606   6.123
 3518POPC   D2A47740  34.505  16.566   6.528
 3518POPC   C3A47741  34.703  16.508   6.906
 3518POPC   C4A47742  34.558  16.549   7.323
 3518POPC   C1B47743  34.486  17.052   6.248
 3518POPC   C2B47744  34.410  17.040   6.654
 3518POPC   C3B47745  34.349  16.888   7.028
 3518POPC   C4B47746  34.275  16.927   7.484
 3519POPC   NC347747  23.474  21.319   5.412
 3519POPC   PO447748  23.878  21.682   5.136
 3519POPC   GL147749  23.854  21.624   5.613
 3519POPC   GL247750  24.014  21.848   5.850
 3519POPC   C1A47751  23.765  21.386   6.005
 3519POPC   D2A47752  23.741  21.361   6.465
 3519POPC   C3A47753  23.378  21.465   6.743
 3519POPC   C4A47754  23.252  21.449   7.188
 3519POPC   C1B47755  23.756  21.843   6.233
 3519POPC   C2B47756  23.670  21.886   6.671
 3519POPC   C3B47757  23.731  21.672   7.100
 3519POPC   C4B47758  23.900  21.805   7.541
 3520POPC   NC347759  22.754  23.366   5.687
 3520POPC   PO447760  23.073  22.891   5.253
 3520POPC   GL147761  22.946  22.913   5.798
 3520POPC   GL247762  22.598  22.915   5.932
 3520POPC   C1A47763  23.029  22.915   6.247
 3520POPC   D2A47764  23.173  22.726   6.672
 3520POPC   C3A47765  23.000  22.845   7.084
 3520POPC   C4A47766  23.085  23.098   7.484
 3520POPC   C1B47767  22.532  22.974   6.398
 3520POPC   C2B47768  22.725  23.261   6.720
 3520POPC   C3B47769  22.741  23.278   7.166
 3520POPC   C4B47770  22.577  23.094   7.578
 3521POPC   NC347771  38.376   8.510   5.519
 3521POPC   PO447772  38.528   7.978   5.157
 3521POPC   GL147773  38.579   8.052   5.636
 3521POPC   GL247774  38.808   8.315   5.756
 3521POPC   C1A47775  38.420   8.083   6.123
 3521POPC   D2A47776  38.241   8.258   6.573
 3521POPC   C3A47777  38.178   8.043   7.022
 3521POPC   C4A47778  38.252   7.971   7.502
 3521POPC   C1B47779  38.836   8.574   6.135
 3521POPC   C2B47780  38.772   8.569   6.614
 3521POPC   C3B47781  38.537   8.409   7.005
 3521POPC   C4B47782  38.598   8.355   7.499
 3522POPC   NC347783   4.983   7.409   5.588
 3522POPC   PO447784   5.413   7.075   5.249
 3522POPC   GL147785   5.370   7.133   5.734
 3522POPC   GL247786   5.380   7.506   5.891
 3522POPC   C1A47787   5.152   7.131   6.167
 3522POPC   D2A47788   5.304   7.397   6.519
 3522POPC   C3A47789   5.137   7.229   6.889
 3522POPC   C4A47790   5.228   7.422   7.279
 3522POPC   C1B47791   5.003   7.628   6.186
 3522POPC   C2B47792   4.794   7.408   6.554
 3522POPC   C3B47793   4.788   7.576   6.982
 3522POPC   C4B47794   4.689   7.630   7.432
 3523POPC   NC347795  39.377  20.987   5.290
 3523POPC   PO447796  39.289  21.691   5.321
 3523POPC   GL147797  39.236  21.377   5.642
 3523POPC   GL247798  39.518  21.196   5.737
 3523POPC   C1A47799  39.161  21.330   6.087
 3523POPC   D2A47800  39.260  21.430   6.508
 3523POPC   C3A47801  39.003  21.436   6.871
 3523POPC   C4A47802  39.009  21.308   7.292
 3523POPC   C1B47803  39.698  21.222   6.163
 3523POPC   C2B47804  39.651  21.114   6.581
 3523POPC   C3B47805  39.591  21.311   6.980
 3523POPC   C4B47806  39.609  21.090   7.370
 3524POPC   NC347807  44.096   0.858   5.279
 3524POPC   PO447808  43.762   1.365   5.603
 3524POPC   GL147809  44.059   1.280   5.865
 3524POPC   GL247810  44.012   0.943   5.777
 3524POPC   C1A47811  44.030   1.446   6.278
 3524POPC   D2A47812  43.907   1.643   6.655
 3524POPC   C3A47813  44.003   1.437   7.025
 3524POPC   C4A47814  43.802   1.461   7.433
 3524POPC   C1B47815  43.724   1.006   6.158
 3524POPC   C2B47816  43.669   1.177   6.568
 3524POPC   C3B47817  43.775   1.009   6.943
 3524POPC   C4B47818  43.577   1.032   7.298
 3525POPC   NC347819   6.419  29.616   5.451
 3525POPC   PO447820   6.826  30.071   5.222
 3525POPC   GL147821   6.685  29.940   5.706
 3525POPC   GL247822   6.993  29.997   5.803
 3525POPC   C1A47823   6.556  30.027   6.130
 3525POPC   D2A47824   6.781  29.934   6.533
 3525POPC   C3A47825   6.501  29.937   6.902
 3525POPC   C4A47826   6.471  29.933   7.354
 3525POPC   C1B47827   7.007  30.271   6.170
 3525POPC   C2B47828   7.089  30.379   6.618
 3525POPC   C3B47829   6.883  30.272   7.029
 3525POPC   C4B47830   6.982  29.953   7.357
 3526POPC   NC347831  33.000  22.437   5.521
 3526POPC   PO447832  32.636  21.957   5.427
 3526POPC   GL147833  32.949  22.001   5.795
 3526POPC   GL247834  33.308  22.072   5.733
 3526POPC   C1A47835  32.980  22.082   6.253
 3526POPC   D2A47836  33.056  22.304   6.666
 3526POPC   C3A47837  32.842  22.207   7.033
 3526POPC   C4A47838  32.993  22.266   7.425
 3526POPC   C1B47839  33.440  22.270   6.154
 3526POPC   C2B47840  33.560  22.364   6.592
 3526POPC   C3B47841  33.422  22.308   7.051
 3526POPC   C4B47842  33.487  22.401   7.513
 3527POPC   NC347843  34.411  10.321   5.396
 3527POPC   PO447844  34.958  10.715   5.228
 3527POPC   GL147845  34.824  10.561   5.656
 3527POPC   GL247846  34.507  10.670   5.814
 3527POPC   C1A47847  34.833  10.318   6.064
 3527POPC   D2A47848  34.879  10.520   6.485
 3527POPC   C3A47849  34.846  10.343   6.874
 3527POPC   C4A47850  34.593  10.270   7.235
 3527POPC   C1B47851  34.415  10.533   6.248
 3527POPC   C2B47852  34.359  10.395   6.671
 3527POPC   C3B47853  34.202  10.555   7.070
 3527POPC   C4B47854  34.262  10.581   7.517
 3528POPC   NC347855  23.086  32.000   5.503
 3528POPC   PO447856  23.306  32.588   5.492
 3528POPC   GL147857  23.404  32.263   5.860
 3528POPC   GL247858  23.273  31.919   5.957
 3528POPC   C1A47859  23.372  32.232   6.350
 3528POPC   D2A47860  23.037  32.287   6.645
 3528POPC   C3A47861  23.010  32.268   7.093
 3528POPC   C4A47862  22.706  32.456   7.364
 3528POPC   C1B47863  22.880  32.135   6.142
 3528POPC   C2B47864  22.585  32.103   6.500
 3528POPC   C3B47865  22.519  32.198   6.922
 3528POPC   C4B47866  22.593  31.958   7.281
 3529POPC   NC347867   0.634  28.945   5.386
 3529POPC   PO447868   0.157  29.380   5.177
 3529POPC   GL147869   0.498  29.423   5.617
 3529POPC   GL247870   0.461  29.120   5.829
 3529POPC   C1A47871   0.643  29.518   6.083
 3529POPC   D2A47872   0.385  29.541   6.494
 3529POPC   C3A47873   0.417  29.388   6.960
 3529POPC   C4A47874   0.216  29.081   7.306
 3529POPC   C1B47875   0.535  29.051   6.264
 3529POPC   C2B47876   0.651  28.979   6.689
 3529POPC   C3B47877   0.725  29.018   7.133
 3529POPC   C4B47878   0.915  29.385   7.313
 3530POPC   NC347879   9.853  36.447   5.286
 3530POPC   PO447880   9.655  37.042   5.314
 3530POPC   GL147881   9.611  37.017   5.781
 3530POPC   GL247882   9.556  36.668   5.695
 3530POPC   C1A47883   9.744  37.112   6.259
 3530POPC   D2A47884  10.007  37.021   6.650
 3530POPC   C3A47885   9.831  36.926   7.061
 3530POPC   C4A47886   9.665  37.319   7.265
 3530POPC   C1B47887   9.480  36.651   6.161
 3530POPC   C2B47888   9.525  36.728   6.622
 3530POPC   C3B47889   9.537  36.485   7.014
 3530POPC   C4B47890   9.499  36.642   7.434
 3531POPC   NC347891  35.464  35.783   5.068
 3531POPC   PO447892  35.248  35.308   5.585
 3531POPC   GL147893  35.137  35.437   5.963
 3531POPC   GL247894  34.847  35.207   5.926
 3531POPC   C1A47895  35.419  35.489   6.334
 3531POPC   D2A47896  35.644  35.239   6.648
 3531POPC   C3A47897  35.618  35.332   7.090
 3531POPC   C4A47898  35.564  35.156   7.524
 3531POPC   C1B47899  35.008  35.149   6.373
 3531POPC   C2B47900  35.143  35.212   6.812
 3531POPC   C3B47901  35.131  35.235   7.248
 3531POPC   C4B47902  34.918  35.543   7.493
 3532POPC   NC347903  15.935  25.949   5.555
 3532POPC   PO447904  16.532  26.301   5.470
 3532POPC   GL147905  16.301  26.318   5.905
 3532POPC   GL247906  16.008  26.105   6.025
 3532POPC   C1A47907  16.208  26.424   6.355
 3532POPC   D2A47908  15.825  26.287   6.524
 3532POPC   C3A47909  15.871  26.158   6.932
 3532POPC   C4A47910  15.600  26.124   7.294
 3532POPC   C1B47911  15.877  25.811   6.364
 3532POPC   C2B47912  15.920  25.537   6.716
 3532POPC   C3B47913  15.787  25.695   7.112
 3532POPC   C4B47914  16.001  25.895   7.481
 3533POPC   NC347915   7.751  11.571   5.412
 3533POPC   PO447916   7.398  11.108   5.208
 3533POPC   GL147917   7.207  11.239   5.609
 3533POPC   GL247918   7.490  11.343   5.785
 3533POPC   C1A47919   7.152  11.050   6.058
 3533POPC   D2A47920   7.361  11.052   6.464
 3533POPC   C3A47921   7.189  11.126   6.885
 3533POPC   C4A47922   7.478  11.101   7.202
 3533POPC   C1B47923   7.628  11.639   6.073
 3533POPC   C2B47924   7.366  11.806   6.378
 3533POPC   C3B47925   7.430  11.558   6.701
 3533POPC   C4B47926   7.474  11.595   7.108
 3534POPC   NC347927  39.330  17.887   5.356
 3534POPC   PO447928  39.042  18.561   5.424
 3534POPC   GL147929  39.165  18.211   5.754
 3534POPC   GL247930  39.383  17.884   5.858
 3534POPC   C1A47931  39.252  18.225   6.202
 3534POPC   D2A47932  39.556  18.273   6.496
 3534POPC   C3A47933  39.429  18.239   6.892
 3534POPC   C4A47934  39.574  18.285   7.284
 3534POPC   C1B47935  38.979  17.816   6.069
 3534POPC   C2B47936  38.844  17.965   6.455
 3534POPC   C3B47937  38.972  17.926   6.847
 3534POPC   C4B47938  39.108  18.031   7.228
 3535POPC   NC347939  34.031  21.398   5.371
 3535POPC   PO447940  33.508  21.736   5.393
 3535POPC   GL147941  33.578  21.320   5.650
 3535POPC   GL247942  33.890  21.255   5.827
 3535POPC   C1A47943  33.451  21.246   6.104
 3535POPC   D2A47944  33.551  21.454   6.524
 3535POPC   C3A47945  33.461  21.342   6.931
 3535POPC   C4A47946  33.619  21.172   7.282
 3535POPC   C1B47947  33.921  21.467   6.189
 3535POPC   C2B47948  34.069  21.472   6.611
 3535POPC   C3B47949  33.974  21.491   7.040
 3535POPC   C4B47950  34.081  21.889   7.229
 3536POPC   NC347951   8.304  19.489   5.057
 3536POPC   PO447952   7.993  20.029   5.310
 3536POPC   GL147953   8.145  19.842   5.691
 3536POPC   GL247954   7.925  19.597   5.832
 3536POPC   C1A47955   8.341  19.781   6.102
 3536POPC   D2A47956   8.197  19.830   6.525
 3536POPC   C3A47957   8.417  19.792   6.916
 3536POPC   C4A47958   8.268  19.994   7.318
 3536POPC   C1B47959   7.809  19.855   6.166
 3536POPC   C2B47960   7.700  19.725   6.586
 3536POPC   C3B47961   7.893  19.779   7.010
 3536POPC   C4B47962   7.891  19.716   7.484
 3537POPC   NC347963  16.244  44.977   5.479
 3537POPC   PO447964  15.625  44.749   5.314
 3537POPC   GL147965  15.867  44.667   5.674
 3537POPC   GL247966  15.807   0.008   5.751
 3537POPC   C1A47967  16.075  44.715   6.103
 3537POPC   D2A47968  16.091  44.519   6.523
 3537POPC   C3A47969  16.037  44.776   6.891
 3537POPC   C4A47970  16.077  44.551   7.250
 3537POPC   C1B47971  15.632   0.001   6.139
 3537POPC   C2B47972  15.574   0.110   6.553
 3537POPC   C3B47973  15.522  44.862   6.908
 3537POPC   C4B47974  15.671  44.942   7.284
 3538POPC   NC347975  37.324  17.587   5.066
 3538POPC   PO447976  37.929  17.510   5.281
 3538POPC   GL147977  37.858  17.599   5.724
 3538POPC   GL247978  38.044  17.918   5.713
 3538POPC   C1A47979  37.689  17.393   6.137
 3538POPC   D2A47980  37.805  17.263   6.588
 3538POPC   C3A47981  37.625  17.465   6.955
 3538POPC   C4A47982  37.409  17.432   7.353
 3538POPC   C1B47983  37.934  17.869   6.143
 3538POPC   C2B47984  37.624  17.786   6.455
 3538POPC   C3B47985  37.332  17.890   6.748
 3538POPC   C4B47986  37.556  17.994   7.105
 3539POPC   NC347987  42.999  42.728   5.362
 3539POPC   PO447988  43.524  43.134   5.250
 3539POPC   GL147989  43.269  43.266   5.647
 3539POPC   GL247990  43.070  42.973   5.809
 3539POPC   C1A47991  43.295  43.282   6.129
 3539POPC   D2A47992  43.272  42.949   6.455
 3539POPC   C3A47993  43.242  43.125   6.848
 3539POPC   C4A47994  43.089  43.120   7.226
 3539POPC   C1B47995  42.831  43.022   6.189
 3539POPC   C2B47996  42.792  43.159   6.611
 3539POPC   C3B47997  42.650  42.979   7.026
 3539POPC   C4B47998  42.689  43.113   7.529
 3540POPC   NC347999  30.217   2.251   5.325
 3540POPC   PO448000  29.648   1.899   5.266
 3540POPC   GL148001  29.924   1.989   5.667
 3540POPC   GL248002  29.664   2.205   5.789
 3540POPC   C1A48003  30.102   1.932   6.123
 3540POPC   D2A48004  30.079   2.047   6.589
 3540POPC   C3A48005  30.261   1.940   7.006
 3540POPC   C4A48006  30.339   2.002   7.475
 3540POPC   C1B48007  29.751   2.307   6.214
 3540POPC   C2B48008  29.627   2.257   6.630
 3540POPC   C3B48009  29.820   2.238   7.014
 3540POPC   C4B48010  29.767   2.603   7.240
 3541POPC   NC348011  36.300  30.412   5.357
 3541POPC   PO448012  35.813  30.773   5.311
 3541POPC   GL148013  35.930  30.805   5.734
 3541POPC   GL248014  36.276  30.808   5.789
 3541POPC   C1A48015  35.906  30.757   6.177
 3541POPC   D2A48016  36.042  30.528   6.530
 3541POPC   C3A48017  36.043  30.769   6.912
 3541POPC   C4A48018  36.201  30.815   7.328
 3541POPC   C1B48019  36.362  30.519   6.098
 3541POPC   C2B48020  36.554  30.533   6.490
 3541POPC   C3B48021  36.442  30.438   6.889
 3541POPC   C4B48022  36.649  30.465   7.233
 3542POPC   NC348023  21.498  15.585   5.183
 3542POPC   PO448024  21.241  15.022   5.384
 3542POPC   GL148025  21.415  15.131   5.764
 3542POPC   GL248026  21.098  15.182   5.884
 3542POPC   C1A48027  21.489  14.995   6.209
 3542POPC   D2A48028  21.654  15.108   6.645
 3542POPC   C3A48029  21.574  15.034   7.136
 3542POPC   C4A48030  21.588  14.999   7.563
 3542POPC   C1B48031  21.037  15.396   6.248
 3542POPC   C2B48032  21.119  15.338   6.688
 3542POPC   C3B48033  21.135  15.289   7.087
 3542POPC   C4B48034  21.366  15.505   7.354
 3543POPC   NC348035  35.484  23.931   5.394
 3543POPC   PO448036  34.949  23.463   5.436
 3543POPC   GL148037  35.235  23.430   5.815
 3543POPC   GL248038  35.437  23.736   5.846
 3543POPC   C1A48039  35.391  23.465   6.264
 3543POPC   D2A48040  35.541  23.589   6.668
 3543POPC   C3A48041  35.294  23.478   7.020
 3543POPC   C4A48042  35.170  23.321   7.431
 3543POPC   C1B48043  35.248  23.951   6.186
 3543POPC   C2B48044  35.114  23.831   6.593
 3543POPC   C3B48045  34.952  23.901   6.987
 3543POPC   C4B48046  35.053  23.815   7.395
 3544POPC   NC348047   5.237  23.229   5.445
 3544POPC   PO448048   5.062  22.664   5.318
 3544POPC   GL148049   5.093  22.839   5.733
 3544POPC   GL248050   4.733  22.752   5.802
 3544POPC   C1A48051   5.274  23.027   6.137
 3544POPC   D2A48052   5.053  22.937   6.552
 3544POPC   C3A48053   5.136  23.169   6.912
 3544POPC   C4A48054   5.031  23.166   7.350
 3544POPC   C1B48055   4.612  22.926   6.219
 3544POPC   C2B48056   4.581  23.097   6.651
 3544POPC   C3B48057   4.706  22.913   7.047
 3544POPC   C4B48058   4.534  22.780   7.432
 3545POPC   NC348059  26.885   3.485   5.441
 3545POPC   PO448060  26.857   4.122   5.492
 3545POPC   GL148061  26.996   3.826   5.879
 3545POPC   GL248062  27.055   3.427   5.928
 3545POPC   C1A48063  27.020   3.726   6.333
 3545POPC   D2A48064  27.070   3.366   6.596
 3545POPC   C3A48065  26.944   3.400   7.030
 3545POPC   C4A48066  26.870   3.764   7.276
 3545POPC   C1B48067  26.685   3.351   6.222
 3545POPC   C2B48068  26.576   3.290   6.684
 3545POPC   C3B48069  26.445   3.525   7.061
 3545POPC   C4B48070  26.414   3.767   7.499
 3546POPC   NC348071  26.552  23.304   5.323
 3546POPC   PO448072  27.174  23.047   5.510
 3546POPC   GL148073  26.931  23.088   5.845
 3546POPC   GL248074  26.676  22.868   5.765
 3546POPC   C1A48075  27.086  23.130   6.259
 3546POPC   D2A48076  26.997  23.317   6.636
 3546POPC   C3A48077  27.035  23.141   7.018
 3546POPC   C4A48078  26.946  22.934   7.406
 3546POPC   C1B48079  26.570  23.024   6.202
 3546POPC   C2B48080  26.492  23.175   6.631
 3546POPC   C3B48081  26.550  22.972   7.066
 3546POPC   C4B48082  26.584  22.558   7.328
 3547POPC   NC348083  13.857  30.834   5.370
 3547POPC   PO448084  13.179  30.596   5.358
 3547POPC   GL148085  13.481  30.668   5.688
 3547POPC   GL248086  13.455  31.016   5.685
 3547POPC   C1A48087  13.672  30.498   6.066
 3547POPC   D2A48088  13.846  30.659   6.460
 3547POPC   C3A48089  13.713  30.491   6.841
 3547POPC   C4A48090  13.666  30.321   7.253
 3547POPC   C1B48091  13.724  31.018   6.069
 3547POPC   C2B48092  13.620  31.134   6.473
 3547POPC   C3B48093  13.708  31.021   6.869
 3547POPC   C4B48094  13.691  30.817   7.254
 3548POPC   NC348095  19.865  12.574   5.388
 3548POPC   PO448096  20.119  13.140   5.504
 3548POPC   GL148097  19.992  13.026   5.903
 3548POPC   GL248098  19.850  12.672   5.896
 3548POPC   C1A48099  19.985  12.973   6.346
 3548POPC   D2A48100  20.033  12.592   6.589
 3548POPC   C3A48101  20.012  12.742   6.992
 3548POPC   C4A48102  20.142  13.171   7.121
 3548POPC   C1B48103  19.617  12.584   6.272
 3548POPC   C2B48104  19.553  12.829   6.650
 3548POPC   C3B48105  19.522  12.885   7.086
 3548POPC   C4B48106  19.460  12.546   7.374
 3549POPC   NC348107   4.128  15.853   5.594
 3549POPC   PO448108   4.703  16.090   5.495
 3549POPC   GL148109   4.562  15.955   5.889
 3549POPC   GL248110   4.655  15.637   5.786
 3549POPC   C1A48111   4.235  15.912   6.258
 3549POPC   D2A48112   3.986  15.678   6.604
 3549POPC   C3A48113   3.913  15.921   6.982
 3549POPC   C4A48114   4.215  16.221   7.165
 3549POPC   C1B48115   4.546  15.480   6.183
 3549POPC   C2B48116   4.532  15.656   6.589
 3549POPC   C3B48117   4.370  15.687   6.987
 3549POPC   C4B48118   4.591  15.832   7.318
 3550POPC   NC348119  11.220  31.344   5.621
 3550POPC   PO448120  11.199  31.816   5.153
 3550POPC   GL148121  11.313  31.822   5.717
 3550POPC   GL248122  11.625  31.620   5.851
 3550POPC   C1A48123  11.228  31.801   6.193
 3550POPC   D2A48124  11.162  31.553   6.595
 3550POPC   C3A48125  11.282  31.649   7.045
 3550POPC   C4A48126  11.048  31.476   7.417
 3550POPC   C1B48127  11.524  31.355   6.251
 3550POPC   C2B48128  11.555  31.243   6.732
 3550POPC   C3B48129  11.608  31.135   7.204
 3550POPC   C4B48130  11.427  31.228   7.650
 3551POPC   NC348131  26.797  32.706   5.321
 3551POPC   PO448132  27.379  32.981   5.221
 3551POPC   GL148133  27.152  32.890   5.662
 3551POPC   GL248134  26.859  33.114   5.692
 3551POPC   C1A48135  26.824  32.750   6.038
 3551POPC   D2A48136  26.645  32.998   6.419
 3551POPC   C3A48137  26.687  32.879   6.890
 3551POPC   C4A48138  26.950  32.803   7.298
 3551POPC   C1B48139  27.045  33.198   6.113
 3551POPC   C2B48140  27.125  33.153   6.582
 3551POPC   C3B48141  26.972  33.275   7.005
 3551POPC   C4B48142  27.041  33.302   7.425
 3552POPC   NC348143   5.333   4.367   5.083
 3552POPC   PO448144   4.780   4.233   5.352
 3552POPC   GL148145   4.998   4.420   5.691
 3552POPC   GL248146   5.240   4.149   5.689
 3552POPC   C1A48147   5.025   4.487   6.165
 3552POPC   D2A48148   5.016   4.213   6.553
 3552POPC   C3A48149   5.023   4.349   7.003
 3552POPC   C4A48150   4.872   4.253   7.453
 3552POPC   C1B48151   5.308   3.825   6.028
 3552POPC   C2B48152   5.244   3.721   6.476
 3552POPC   C3B48153   5.344   3.906   6.873
 3552POPC   C4B48154   5.175   3.902   7.279
 3553POPC   NC348155  36.883  37.382   5.106
 3553POPC   PO448156  36.552  36.819   5.318
 3553POPC   GL148157  36.603  36.654   5.743
 3553POPC   GL248158  36.940  36.789   5.902
 3553POPC   C1A48159  36.611  36.495   6.160
 3553POPC   D2A48160  36.560  36.723   6.549
 3553POPC   C3A48161  36.896  36.933   6.771
 3553POPC   C4A48162  37.198  36.834   7.120
 3553POPC   C1B48163  36.754  37.111   6.207
 3553POPC   C2B48164  36.653  37.392   6.575
 3553POPC   C3B48165  36.544  37.326   7.019
 3553POPC   C4B48166  36.728  37.017   7.269
 3554POPC   NC348167  20.083  41.038   5.566
 3554POPC   PO448168  19.636  41.537   5.364
 3554POPC   GL148169  19.842  41.464   5.782
 3554POPC   GL248170  19.771  41.143   5.984
 3554POPC   C1A48171  19.849  41.620   6.227
 3554POPC   D2A48172  19.769  41.374   6.628
 3554POPC   C3A48173  19.850  41.617   7.005
 3554POPC   C4A48174  19.795  41.620   7.442
 3554POPC   C1B48175  20.145  41.209   6.238
 3554POPC   C2B48176  20.281  41.305   6.655
 3554POPC   C3B48177  20.126  41.180   7.021
 3554POPC   C4B48178  20.177  41.297   7.410
 3555POPC   NC348179  27.466  37.944   5.466
 3555POPC   PO448180  27.843  37.336   5.439
 3555POPC   GL148181  27.762  37.631   5.748
 3555POPC   GL248182  27.481  37.486   5.852
 3555POPC   C1A48183  27.720  37.893   6.140
 3555POPC   D2A48184  27.900  37.672   6.519
 3555POPC   C3A48185  27.820  37.552   6.941
 3555POPC   C4A48186  27.947  37.735   7.320
 3555POPC   C1B48187  27.316  37.617   6.250
 3555POPC   C2B48188  27.420  37.803   6.663
 3555POPC   C3B48189  27.313  37.662   7.072
 3555POPC   C4B48190  27.355  37.370   7.398
 3556POPC   NC348191  15.857  31.942   4.983
 3556POPC   PO448192  15.932  32.508   5.401
 3556POPC   GL148193  15.926  32.314   5.841
 3556POPC   GL248194  16.009  31.959   5.803
 3556POPC   C1A48195  15.908  32.186   6.275
 3556POPC   D2A48196  16.194  32.221   6.615
 3556POPC   C3A48197  15.955  32.199   6.965
 3556POPC   C4A48198  15.777  32.258   7.332
 3556POPC   C1B48199  16.013  31.710   6.196
 3556POPC   C2B48200  15.888  31.763   6.658
 3556POPC   C3B48201  15.809  31.744   7.131
 3556POPC   C4B48202  15.853  31.850   7.616
 3557POPC   NC348203  11.104  22.802   5.513
 3557POPC   PO448204  11.687  23.005   5.520
 3557POPC   GL148205  11.406  22.923   5.882
 3557POPC   GL248206  11.089  23.162   5.853
 3557POPC   C1A48207  11.183  22.898   6.291
 3557POPC   D2A48208  11.106  22.890   6.735
 3557POPC   C3A48209  11.368  23.080   7.038
 3557POPC   C4A48210  11.314  22.872   7.390
 3557POPC   C1B48211  10.950  23.350   6.221
 3557POPC   C2B48212  10.774  23.241   6.588
 3557POPC   C3B48213  10.911  23.286   6.990
 3557POPC   C4B48214  10.874  23.099   7.384
 3558POPC   NC348215  32.704  12.696   5.074
 3558POPC   PO448216  33.207  12.999   5.508
 3558POPC   GL148217  32.998  12.816   5.840
 3558POPC   GL248218  32.756  12.577   5.699
 3558POPC   C1A48219  33.130  12.815   6.267
 3558POPC   D2A48220  33.147  13.003   6.687
 3558POPC   C3A48221  33.107  12.767   7.061
 3558POPC   C4A48222  33.020  12.830   7.501
 3558POPC   C1B48223  32.686  12.557   6.158
 3558POPC   C2B48224  32.810  12.580   6.610
 3558POPC   C3B48225  32.660  12.482   7.038
 3558POPC   C4B48226  32.557  12.449   7.476
 3559POPC   NC348227   5.196  38.092   5.084
 3559POPC   PO448228   5.370  37.449   5.280
 3559POPC   GL148229   5.183  37.527   5.734
 3559POPC   GL248230   4.830  37.682   5.730
 3559POPC   C1A48231   5.322  37.566   6.229
 3559POPC   D2A48232   5.330  37.776   6.672
 3559POPC   C3A48233   5.178  37.510   7.044
 3559POPC   C4A48234   5.101  37.454   7.523
 3559POPC   C1B48235   4.834  37.436   6.114
 3559POPC   C2B48236   4.854  37.610   6.527
 3559POPC   C3B48237   4.849  37.877   6.889
 3559POPC   C4B48238   4.676  37.596   7.183
 3560POPC   NC348239  29.174  20.123   5.505
 3560POPC   PO448240  29.350  20.830   5.473
 3560POPC   GL148241  29.256  20.770   5.809
 3560POPC   GL248242  28.944  20.568   5.702
 3560POPC   C1A48243  29.461  20.574   6.171
 3560POPC   D2A48244  29.394  20.354   6.565
 3560POPC   C3A48245  29.415  20.648   6.905
 3560POPC   C4A48246  29.275  20.832   7.280
 3560POPC   C1B48247  28.957  20.615   6.159
 3560POPC   C2B48248  28.988  20.678   6.581
 3560POPC   C3B48249  28.897  20.606   7.000
 3560POPC   C4B48250  29.120  20.316   7.220
 3561POPC   NC348251  31.969  44.048   5.192
 3561POPC   PO448252  32.281  43.622   5.567
 3561POPC   GL148253  32.180  43.899   5.841
 3561POPC   GL248254  31.925  44.142   5.692
 3561POPC   C1A48255  32.338  43.777   6.234
 3561POPC   D2A48256  32.557  43.840   6.611
 3561POPC   C3A48257  32.298  43.748   6.968
 3561POPC   C4A48258  32.383  43.686   7.430
 3561POPC   C1B48259  31.957  44.257   6.115
 3561POPC   C2B48260  32.011  44.062   6.534
 3561POPC   C3B48261  31.966  44.173   6.957
 3561POPC   C4B48262  32.216  44.180   7.317
 3562POPC   NC348263  43.305   4.071   5.468
 3562POPC   PO448264  42.642   4.161   5.228
 3562POPC   GL148265  42.916   4.305   5.707
 3562POPC   GL248266  43.295   4.371   5.877
 3562POPC   C1A48267  42.944   4.237   6.209
 3562POPC   D2A48268  42.776   4.450   6.622
 3562POPC   C3A48269  42.990   4.344   7.015
 3562POPC   C4A48270  43.340   4.073   7.082
 3562POPC   C1B48271  43.241   4.652   6.232
 3562POPC   C2B48272  43.311   4.555   6.666
 3562POPC   C3B48273  43.468   4.568   7.082
 3562POPC   C4B48274  43.366   4.791   7.422
 3563POPC   NC348275  39.761  14.327   5.156
 3563POPC   PO448276  39.341  14.897   5.305
 3563POPC   GL148277  39.696  14.723   5.653
 3563POPC   GL248278  39.855  14.369   5.648
 3563POPC   C1A48279  40.013  14.610   6.060
 3563POPC   D2A48280  40.141  14.368   6.484
 3563POPC   C3A48281  40.234  14.484   6.948
 3563POPC   C4A48282  40.163  14.708   7.382
 3563POPC   C1B48283  39.887  14.074   6.025
 3563POPC   C2B48284  39.864  13.966   6.474
 3563POPC   C3B48285  39.815  14.121   6.890
 3563POPC   C4B48286  40.057  14.142   7.284
 3564POPC   NC348287  29.748  28.849   5.155
 3564POPC   PO448288  29.433  28.351   5.400
 3564POPC   GL148289  29.599  28.359   5.854
 3564POPC   GL248290  29.607  28.692   5.978
 3564POPC   C1A48291  29.929  28.351   6.236
 3564POPC   D2A48292  30.253  28.488   6.568
 3564POPC   C3A48293  30.143  28.376   7.028
 3564POPC   C4A48294  30.291  28.300   7.455
 3564POPC   C1B48295  29.797  28.827   6.362
 3564POPC   C2B48296  29.790  28.602   6.723
 3564POPC   C3B48297  29.822  28.770   7.114
 3564POPC   C4B48298  29.953  28.681   7.528
 3565POPC   NC348299  27.801  41.570   5.484
 3565POPC   PO448300  27.059  41.858   5.337
 3565POPC   GL148301  27.385  41.798   5.746
 3565POPC   GL248302  27.725  41.871   5.896
 3565POPC   C1A48303  27.502  41.487   6.130
 3565POPC   D2A48304  27.779  41.361   6.510
 3565POPC   C3A48305  27.578  41.365   6.930
 3565POPC   C4A48306  27.448  41.474   7.345
 3565POPC   C1B48307  27.750  41.908   6.365
 3565POPC   C2B48308  27.806  41.816   6.817
 3565POPC   C3B48309  27.847  41.795   7.267
 3565POPC   C4B48310  27.979  41.986   7.678
 3566POPC   NC348311   5.066  15.636   5.428
 3566POPC   PO448312   5.347  16.341   5.416
 3566POPC   GL148313   5.093  16.154   5.800
 3566POPC   GL248314   5.164  15.816   5.885
 3566POPC   C1A48315   5.132  16.289   6.232
 3566POPC   D2A48316   4.988  16.349   6.664
 3566POPC   C3A48317   5.239  16.343   7.016
 3566POPC   C4A48318   5.126  16.202   7.425
 3566POPC   C1B48319   4.908  15.835   6.238
 3566POPC   C2B48320   4.998  15.845   6.637
 3566POPC   C3B48321   5.010  15.888   7.035
 3566POPC   C4B48322   5.267  15.705   7.327
 3567POPC   NC348323   9.371  14.973   5.387
 3567POPC   PO448324   8.761  15.065   5.518
 3567POPC   GL148325   8.876  15.268   5.885
 3567POPC   GL248326   9.219  15.102   5.869
 3567POPC   C1A48327   8.715  15.300   6.326
 3567POPC   D2A48328   8.589  15.306   6.800
 3567POPC   C3A48329   8.833  15.231   7.183
 3567POPC   C4A48330   8.680  15.416   7.590
 3567POPC   C1B48331   9.240  15.311   6.267
 3567POPC   C2B48332   9.091  15.396   6.676
 3567POPC   C3B48333   9.291  15.441   7.044
 3567POPC   C4B48334   9.293  15.084   7.318
 3568POPC   NC348335  15.662  43.473   5.325
 3568POPC   PO448336  15.882  44.095   5.491
 3568POPC   GL148337  15.702  44.000   5.861
 3568POPC   GL248338  15.730  43.649   5.800
 3568POPC   C1A48339  15.811  44.085   6.301
 3568POPC   D2A48340  16.191  43.999   6.541
 3568POPC   C3A48341  16.169  44.111   6.978
 3568POPC   C4A48342  16.331  43.960   7.362
 3568POPC   C1B48343  15.797  43.571   6.229
 3568POPC   C2B48344  15.647  43.705   6.638
 3568POPC   C3B48345  15.646  43.503   7.031
 3568POPC   C4B48346  15.976  43.613   7.270
 3569POPC   NC348347  25.686  29.244   5.383
 3569POPC   PO448348  25.111  28.945   5.290
 3569POPC   GL148349  25.297  29.096   5.700
 3569POPC   GL248350  25.609  28.949   5.804
 3569POPC   C1A48351  25.280  29.227   6.137
 3569POPC   D2A48352  25.008  29.152   6.509
 3569POPC   C3A48353  25.106  29.392   6.875
 3569POPC   C4A48354  24.956  29.340   7.274
 3569POPC   C1B48355  25.641  28.879   6.230
 3569POPC   C2B48356  25.568  29.072   6.605
 3569POPC   C3B48357  25.613  28.912   7.005
 3569POPC   C4B48358  25.428  29.158   7.307
 3570POPC   NC348359   3.426  10.119   5.381
 3570POPC   PO448360   3.817  10.663   5.293
 3570POPC   GL148361   3.683  10.478   5.718
 3570POPC   GL248362   3.412  10.655   5.937
 3570POPC   C1A48363   3.814  10.475   6.173
 3570POPC   D2A48364   3.701  10.685   6.512
 3570POPC   C3A48365   3.670  10.553   6.921
 3570POPC   C4A48366   3.407  10.758   7.199
 3570POPC   C1B48367   3.353  10.261   6.195
 3570POPC   C2B48368   3.204  10.237   6.619
 3570POPC   C3B48369   3.275  10.262   7.062
 3570POPC   C4B48370   3.017  10.295   7.402
 3571POPC   NC348371  28.844  10.121   5.365
 3571POPC   PO448372  29.083   9.580   5.429
 3571POPC   GL148373  29.035   9.846   5.770
 3571POPC   GL248374  29.339   9.943   5.931
 3571POPC   C1A48375  28.903   9.901   6.187
 3571POPC   D2A48376  28.975   9.638   6.527
 3571POPC   C3A48377  28.945   9.803   6.941
 3571POPC   C4A48378  28.982   9.525   7.254
 3571POPC   C1B48379  29.441   9.730   6.314
 3571POPC   C2B48380  29.432   9.704   6.777
 3571POPC   C3B48381  29.423   9.756   7.215
 3571POPC   C4B48382  29.520  10.037   7.564
 3572POPC   NC348383   4.105  30.110   5.108
 3572POPC   PO448384   3.593  29.943   5.496
 3572POPC   GL148385   3.572  30.082   5.927
 3572POPC   GL248386   3.336  30.374   5.883
 3572POPC   C1A48387   3.597  29.994   6.380
 3572POPC   D2A48388   3.471  29.714   6.715
 3572POPC   C3A48389   3.632  29.829   7.112
 3572POPC   C4A48390   3.753  29.890   7.539
 3572POPC   C1B48391   3.328  30.417   6.351
 3572POPC   C2B48392   3.324  30.206   6.769
 3572POPC   C3B48393   3.191  30.112   7.195
 3572POPC   C4B48394   3.277  30.067   7.652
 3573POPC   NC348395  39.287  25.366   5.339
 3573POPC   PO448396  39.854  25.713   5.467
 3573POPC   GL148397  39.530  25.493   5.785
 3573POPC   GL248398  39.397  25.111   5.762
 3573POPC   C1A48399  39.215  25.568   6.130
 3573POPC   D2A48400  39.017  25.337   6.498
 3573POPC   C3A48401  39.153  25.425   6.932
 3573POPC   C4A48402  39.159  25.170   7.325
 3573POPC   C1B48403  39.338  25.080   6.161
 3573POPC   C2B48404  39.487  25.072   6.550
 3573POPC   C3B48405  39.497  25.010   6.960
 3573POPC   C4B48406  39.650  24.913   7.338
 3574POPC   NC348407  42.025  18.821   5.506
 3574POPC   PO448408  42.596  18.904   5.167
 3574POPC   GL148409  42.449  19.069   5.657
 3574POPC   GL248410  42.525  18.888   5.982
 3574POPC   C1A48411  42.128  19.214   6.047
 3574POPC   D2A48412  41.943  19.354   6.488
 3574POPC   C3A48413  42.233  19.335   6.869
 3574POPC   C4A48414  42.370  19.306   7.324
 3574POPC   C1B48415  42.177  18.720   6.247
 3574POPC   C2B48416  42.027  18.860   6.665
 3574POPC   C3B48417  42.282  18.814   7.043
 3574POPC   C4B48418  42.335  18.464   7.343
 3575POPC   NC348419  42.203  37.440   5.460
 3575POPC   PO448420  42.306  36.803   5.289
 3575POPC   GL148421  42.216  36.916   5.725
 3575POPC   GL248422  42.559  36.840   5.773
 3575POPC   C1A48423  42.305  37.007   6.192
 3575POPC   D2A48424  42.384  37.236   6.594
 3575POPC   C3A48425  42.288  37.014   6.982
 3575POPC   C4A48426  42.162  36.788   7.344
 3575POPC   C1B48427  42.670  36.626   6.161
 3575POPC   C2B48428  42.539  36.742   6.585
 3575POPC   C3B48429  42.422  36.517   6.984
 3575POPC   C4B48430  42.527  36.424   7.435
 3576POPC   NC348431   9.974  20.052   5.435
 3576POPC   PO448432  10.244  19.360   5.528
 3576POPC   GL148433   9.957  19.655   5.792
 3576POPC   GL248434   9.631  19.878   5.761
 3576POPC   C1A48435   9.862  19.793   6.229
 3576POPC   D2A48436  10.025  19.998   6.632
 3576POPC   C3A48437   9.917  19.804   7.048
 3576POPC   C4A48438   9.875  19.613   7.453
 3576POPC   C1B48439   9.430  20.156   6.040
 3576POPC   C2B48440   9.550  20.126   6.465
 3576POPC   C3B48441   9.445  19.969   6.877
 3576POPC   C4B48442   9.320  20.139   7.262
 3577POPC   NC348443   7.154  36.714   5.392
 3577POPC   PO448444   7.741  36.673   5.103
 3577POPC   GL148445   7.734  36.878   5.599
 3577POPC   GL248446   7.426  36.795   5.804
 3577POPC   C1A48447   7.814  36.813   6.126
 3577POPC   D2A48448   7.762  36.541   6.552
 3577POPC   C3A48449   7.499  36.686   6.908
 3577POPC   C4A48450   7.439  36.709   7.350
 3577POPC   C1B48451   7.196  36.885   6.187
 3577POPC   C2B48452   7.087  36.826   6.629
 3577POPC   C3B48453   6.993  36.835   7.074
 3577POPC   C4B48454   7.035  37.043   7.467
 3578POPC   NC348455  22.942   1.556   5.017
 3578POPC   PO448456  22.805   1.113   5.332
 3578POPC   GL148457  22.989   1.076   5.768
 3578POPC   GL248458  23.083   1.402   5.918
 3578POPC   C1A48459  22.940   1.024   6.243
 3578POPC   D2A48460  22.703   1.110   6.626
 3578POPC   C3A48461  22.858   1.095   7.045
 3578POPC   C4A48462  22.770   0.856   7.406
 3578POPC   C1B48463  22.907   1.541   6.353
 3578POPC   C2B48464  22.855   1.568   6.833
 3578POPC   C3B48465  23.049   1.528   7.239
 3578POPC   C4B48466  22.997   1.473   7.695
 3579POPC   NC348467  34.718  42.105   5.524
 3579POPC   PO448468  34.257  42.519   5.289
 3579POPC   GL148469  34.265  42.477   5.750
 3579POPC   GL248470  34.270  42.134   5.804
 3579POPC   C1A48471  34.308  42.502   6.238
 3579POPC   D2A48472  34.331  42.701   6.690
 3579POPC   C3A48473  34.455  42.542   7.138
 3579POPC   C4A48474  34.742  42.717   7.475
 3579POPC   C1B48475  34.441  41.978   6.209
 3579POPC   C2B48476  34.424  41.972   6.669
 3579POPC   C3B48477  34.508  41.941   7.112
 3579POPC   C4B48478  34.281  42.071   7.487
 3580POPC   NC348479  40.980  19.776   5.398
 3580POPC   PO448480  40.625  20.386   5.224
 3580POPC   GL148481  40.530  20.206   5.718
 3580POPC   GL248482  40.684  19.843   5.815
 3580POPC   C1A48483  40.382  20.037   6.159
 3580POPC   D2A48484  40.594  19.763   6.471
 3580POPC   C3A48485  40.461  19.844   6.900
 3580POPC   C4A48486  40.583  19.871   7.326
 3580POPC   C1B48487  40.984  19.628   6.145
 3580POPC   C2B48488  40.993  19.447   6.594
 3580POPC   C3B48489  40.958  19.656   7.017
 3580POPC   C4B48490  41.091  19.828   7.425
 3581POPC   NC348491  18.325  37.392   5.277
 3581POPC   PO448492  18.578  36.742   5.408
 3581POPC   GL148493  18.610  36.771   5.842
 3581POPC   GL248494  18.239  36.775   5.841
 3581POPC   C1A48495  18.457  36.980   6.243
 3581POPC   D2A48496  18.120  36.927   6.517
 3581POPC   C3A48497  18.264  36.843   6.893
 3581POPC   C4A48498  18.219  36.808   7.290
 3581POPC   C1B48499  18.143  36.492   6.183
 3581POPC   C2B48500  18.253  36.367   6.605
 3581POPC   C3B48501  18.134  36.349   7.053
 3581POPC   C4B48502  17.899  36.420   7.423
 3582POPC   NC348503   3.363  29.555   5.495
 3582POPC   PO448504   3.783  29.055   5.349
 3582POPC   GL148505   3.740  29.237   5.747
 3582POPC   GL248506   3.883  29.586   5.706
 3582POPC   C1A48507   3.608  29.078   6.191
 3582POPC   D2A48508   3.342  29.147   6.593
 3582POPC   C3A48509   3.343  28.990   7.053
 3582POPC   C4A48510   3.254  29.099   7.504
 3582POPC   C1B48511   3.744  29.574   6.132
 3582POPC   C2B48512   3.817  29.390   6.521
 3582POPC   C3B48513   3.708  29.316   6.934
 3582POPC   C4B48514   3.659  29.347   7.330
 3583POPC   NC348515   4.880   1.584   5.230
 3583POPC   PO448516   5.162   2.197   5.240
 3583POPC   GL148517   5.131   2.068   5.697
 3583POPC   GL248518   5.082   1.692   5.777
 3583POPC   C1A48519   5.068   2.194   6.150
 3583POPC   D2A48520   5.212   2.031   6.570
 3583POPC   C3A48521   5.317   2.284   6.949
 3583POPC   C4A48522   5.215   2.003   7.282
 3583POPC   C1B48523   4.819   1.724   6.195
 3583POPC   C2B48524   4.729   1.630   6.665
 3583POPC   C3B48525   4.962   1.581   7.047
 3583POPC   C4B48526   4.935   1.591   7.498
 3584POPC   NC348527   8.343  39.575   5.677
 3584POPC   PO448528   7.979  40.110   5.436
 3584POPC   GL148529   8.072  39.970   5.865
 3584POPC   GL248530   7.854  39.689   5.963
 3584POPC   C1A48531   8.394  40.025   6.204
 3584POPC   D2A48532   8.498  40.193   6.619
 3584POPC   C3A48533   8.156  40.163   6.881
 3584POPC   C4A48534   8.079  40.032   7.276
 3584POPC   C1B48535   8.125  39.593   6.321
 3584POPC   C2B48536   8.095  39.673   6.764
 3584POPC   C3B48537   7.834  39.648   7.091
 3584POPC   C4B48538   7.841  39.689   7.586
 3585POPC   NC348539   0.704  34.164   5.463
 3585POPC   PO448540   0.713  33.504   5.501
 3585POPC   GL148541   0.549  33.790   5.809
 3585POPC   GL248542   0.444  34.153   5.895
 3585POPC   C1A48543   0.444  33.755   6.227
 3585POPC   D2A48544   0.286  33.659   6.614
 3585POPC   C3A48545   0.655  33.680   6.863
 3585POPC   C4A48546   0.654  33.541   7.284
 3585POPC   C1B48547   0.114  34.152   6.263
 3585POPC   C2B48548   0.063  34.136   6.717
 3585POPC   C3B48549   0.291  33.952   7.058
 3585POPC   C4B48550   0.206  33.925   7.463
 3586POPC   NC348551  21.654  40.884   5.337
 3586POPC   PO448552  21.018  40.605   5.207
 3586POPC   GL148553  21.320  40.579   5.615
 3586POPC   GL248554  21.371  40.914   5.745
 3586POPC   C1A48555  21.584  40.581   6.053
 3586POPC   D2A48556  21.708  40.765   6.464
 3586POPC   C3A48557  21.511  40.744   6.842
 3586POPC   C4A48558  21.641  40.533   7.215
 3586POPC   C1B48559  21.581  41.118   6.116
 3586POPC   C2B48560  21.488  41.239   6.549
 3586POPC   C3B48561  21.181  41.130   6.856
 3586POPC   C4B48562  21.119  40.826   7.197
 3587POPC   NC348563  26.937   2.487   5.471
 3587POPC   PO448564  26.620   3.106   5.428
 3587POPC   GL148565  26.850   2.897   5.822
 3587POPC   GL248566  27.062   2.562   5.947
 3587POPC   C1A48567  26.901   2.903   6.279
 3587POPC   D2A48568  26.713   2.699   6.610
 3587POPC   C3A48569  26.811   2.893   6.990
 3587POPC   C4A48570  26.698   2.845   7.414
 3587POPC   C1B48571  27.169   2.462   6.376
 3587POPC   C2B48572  27.093   2.447   6.811
 3587POPC   C3B48573  27.083   2.523   7.238
 3587POPC   C4B48574  27.043   2.590   7.666
 3588POPC   NC348575  32.746  39.965   5.603
 3588POPC   PO448576  33.271  39.920   5.101
 3588POPC   GL148577  33.330  40.163   5.560
 3588POPC   GL248578  33.052  40.385   5.752
 3588POPC   C1A48579  33.357  40.112   6.048
 3588POPC   D2A48580  33.157  39.853   6.387
 3588POPC   C3A48581  33.182  39.842   6.857
 3588POPC   C4A48582  33.186  39.717   7.305
 3588POPC   C1B48583  32.879  40.278   6.214
 3588POPC   C2B48584  32.924  40.246   6.692
 3588POPC   C3B48585  32.947  40.195   7.163
 3588POPC   C4B48586  32.692  39.975   7.487
 3589POPC   NC348587  29.578  35.682   5.046
 3589POPC   PO448588  28.971  35.552   5.321
 3589POPC   GL148589  29.066  35.621   5.773
 3589POPC   GL248590  29.244  35.319   5.874
 3589POPC   C1A48591  28.896  35.525   6.222
 3589POPC   D2A48592  28.744  35.276   6.579
 3589POPC   C3A48593  28.944  35.247   6.980
 3589POPC   C4A48594  29.135  35.588   7.139
 3589POPC   C1B48595  29.408  35.572   6.200
 3589POPC   C2B48596  29.305  35.405   6.605
 3589POPC   C3B48597  29.468  35.141   6.907
 3589POPC   C4B48598  29.409  35.171   7.320
 3590POPC   NC348599  43.556  30.618   5.554
 3590POPC   PO448600  43.099  30.968   5.201
 3590POPC   GL148601  43.187  30.912   5.693
 3590POPC   GL248602  43.472  31.076   5.798
 3590POPC   C1A48603  43.171  30.608   6.091
 3590POPC   D2A48604  42.907  30.590   6.434
 3590POPC   C3A48605  43.010  30.542   6.873
 3590POPC   C4A48606  42.758  30.736   7.209
 3590POPC   C1B48607  43.343  31.051   6.239
 3590POPC   C2B48608  43.358  30.843   6.633
 3590POPC   C3B48609  43.237  30.947   7.062
 3590POPC   C4B48610  43.093  31.062   7.448
 3591POPC   NC348611  26.520  22.461   5.436
 3591POPC   PO448612  27.168  22.068   5.358
 3591POPC   GL148613  26.982  22.069   5.785
 3591POPC   GL248614  26.906  22.400   5.790
 3591POPC   C1A48615  26.808  22.150   6.236
 3591POPC   D2A48616  26.638  22.337   6.631
 3591POPC   C3A48617  26.725  22.168   7.043
 3591POPC   C4A48618  26.922  21.833   7.187
 3591POPC   C1B48619  26.944  22.655   6.169
 3591POPC   C2B48620  26.857  22.805   6.595
 3591POPC   C3B48621  26.959  22.626   6.984
 3591POPC   C4B48622  27.074  22.436   7.383
 3592POPC   NC348623  12.029  18.852   5.455
 3592POPC   PO448624  11.725  19.446   5.446
 3592POPC   GL148625  11.906  19.164   5.807
 3592POPC   GL248626  12.254  19.169   5.889
 3592POPC   C1A48627  11.952  18.850   6.161
 3592POPC   D2A48628  12.178  18.862   6.579
 3592POPC   C3A48629  11.894  19.056   6.890
 3592POPC   C4A48630  11.728  18.818   7.252
 3592POPC   C1B48631  12.145  19.299   6.292
 3592POPC   C2B48632  12.342  19.348   6.679
 3592POPC   C3B48633  12.347  19.390   7.091
 3592POPC   C4B48634  11.990  19.426   7.244
 3593POPC   NC348635   7.249  33.497   5.533
 3593POPC   PO448636   7.686  33.986   5.485
 3593POPC   GL148637   7.524  33.817   5.865
 3593POPC   GL248638   7.263  34.064   5.856
 3593POPC   C1A48639   7.358  33.626   6.286
 3593POPC   D2A48640   6.970  33.524   6.566
 3593POPC   C3A48641   7.045  33.588   7.018
 3593POPC   C4A48642   7.414  33.544   7.330
 3593POPC   C1B48643   7.489  34.133   6.252
 3593POPC   C2B48644   7.639  33.990   6.597
 3593POPC   C3B48645   7.515  33.862   6.960
 3593POPC   C4B48646   7.676  33.981   7.349
 3594POPC   NC348647  44.805  38.497   5.131
 3594POPC   PO448648  44.579  38.939   5.584
 3594POPC   GL148649  44.733  38.581   5.793
 3594POPC   GL248650  44.959  38.327   5.607
 3594POPC   C1A48651  44.698  38.604   6.238
 3594POPC   D2A48652  44.410  38.710   6.536
 3594POPC   C3A48653  44.570  38.722   6.925
 3594POPC   C4A48654  44.504  38.510   7.316
 3594POPC   C1B48655  44.857  38.140   6.016
 3594POPC   C2B48656  44.820  38.058   6.466
 3594POPC   C3B48657  44.605  38.181   6.859
 3594POPC   C4B48658  44.805  38.070   7.235
 3595POPC   NC348659  39.031   9.158   5.441
 3595POPC   PO448660  39.229   8.577   5.160
 3595POPC   GL148661  39.237   8.640   5.655
 3595POPC   GL248662  39.135   8.975   5.890
 3595POPC   C1A48663  39.394   8.611   6.094
 3595POPC   D2A48664  39.147   8.870   6.406
 3595POPC   C3A48665  39.192   8.833   6.845
 3595POPC   C4A48666  39.291   8.907   7.274
 3595POPC   C1B48667  39.374   9.272   6.194
 3595POPC   C2B48668  39.395   9.273   6.668
 3595POPC   C3B48669  39.119   9.337   7.051
 3595POPC   C4B48670  38.863   9.154   7.394
 3596POPC   NC348671  19.598  36.004   5.006
 3596POPC   PO448672  19.854  36.336   5.577
 3596POPC   GL148673  19.793  36.221   5.961
 3596POPC   GL248674  19.548  35.958   5.894
 3596POPC   C1A48675  19.610  36.320   6.346
 3596POPC   D2A48676  19.373  36.049   6.601
 3596POPC   C3A48677  19.550  36.161   6.983
 3596POPC   C4A48678  19.947  36.352   7.045
 3596POPC   C1B48679  19.737  35.824   6.290
 3596POPC   C2B48680  19.919  35.971   6.680
 3596POPC   C3B48681  19.938  35.838   7.120
 3596POPC   C4B48682  19.759  35.542   7.445
 3597POPC   NC348683  17.841   9.785   5.473
 3597POPC   PO448684  17.176   9.629   5.655
 3597POPC   GL148685  17.314   9.870   5.964
 3597POPC   GL248686  17.673   9.929   5.913
 3597POPC   C1A48687  17.259   9.809   6.395
 3597POPC   D2A48688  17.515   9.569   6.699
 3597POPC   C3A48689  17.391   9.780   7.065
 3597POPC   C4A48690  17.087  10.088   7.229
 3597POPC   C1B48691  17.743   9.719   6.243
 3597POPC   C2B48692  17.989   9.739   6.557
 3597POPC   C3B48693  17.939   9.837   6.998
 3597POPC   C4B48694  17.759   9.779   7.410
 3598POPC   NC348695  39.649  10.817   4.984
 3598POPC   PO448696  39.829  10.401   5.440
 3598POPC   GL148697  39.901  10.462   5.891
 3598POPC   GL248698  39.556  10.310   5.921
 3598POPC   C1A48699  40.145  10.469   6.326
 3598POPC   D2A48700  40.159  10.185   6.711
 3598POPC   C3A48701  40.175  10.406   7.125
 3598POPC   C4A48702  40.279  10.839   7.363
 3598POPC   C1B48703  39.640  10.496   6.314
 3598POPC   C2B48704  39.780  10.547   6.739
 3598POPC   C3B48705  39.675  10.534   7.154
 3598POPC   C4B48706  39.758  10.873   7.387
 3599POPC   NC348707  34.109  37.637   5.473
 3599POPC   PO448708  33.522  37.403   5.532
 3599POPC   GL148709  33.713  37.600   5.838
 3599POPC   GL248710  33.708  37.932   5.744
 3599POPC   C1A48711  33.882  37.456   6.221
 3599POPC   D2A48712  34.089  37.612   6.583
 3599POPC   C3A48713  33.935  37.418   6.932
 3599POPC   C4A48714  33.965  37.567   7.325
 3599POPC   C1B48715  33.475  37.960   6.154
 3599POPC   C2B48716  33.529  38.068   6.584
 3599POPC   C3B48717  33.672  37.884   6.960
 3599POPC   C4B48718  33.592  37.890   7.391
 3600POPC   NC348719   0.751  35.076   5.436
 3600POPC   PO448720   0.083  35.182   5.349
 3600POPC   GL148721   0.363  35.443   5.691
 3600POPC   GL248722   0.690  35.346   5.863
 3600POPC   C1A48723   0.311  35.532   6.160
 3600POPC   D2A48724   0.116  35.398   6.576
 3600POPC   C3A48725   0.197  35.511   7.029
 3600POPC   C4A48726   0.100  35.138   7.309
 3600POPC   C1B48727   0.813  35.584   6.257
 3600POPC   C2B48728   0.626  35.563   6.691
 3600POPC   C3B48729   0.673  35.326   7.112
 3600POPC   C4B48730   0.466  35.401   7.536
 3601POPC   NC348731  14.625  10.684   5.424
 3601POPC   PO448732  15.187  10.410   5.003
 3601POPC   GL148733  15.207  10.592   5.556
 3601POPC   GL248734  15.386  10.415   5.797
 3601POPC   C1A48735  15.059  10.714   6.039
 3601POPC   D2A48736  14.955  10.625   6.490
 3601POPC   C3A48737  15.201  10.698   6.885
 3601POPC   C4A48738  14.996  10.958   7.214
 3601POPC   C1B48739  15.205  10.179   6.120
 3601POPC   C2B48740  15.244  10.206   6.554
 3601POPC   C3B48741  15.267  10.173   6.982
 3601POPC   C4B48742  15.335  10.352   7.374
 3602POPC   NC348743   6.844  35.013   5.578
 3602POPC   PO448744   6.170  35.241   5.415
 3602POPC   GL148745   6.428  35.218   5.799
 3602POPC   GL248746   6.646  35.476   5.762
 3602POPC   C1A48747   6.504  35.234   6.265
 3602POPC   D2A48748   6.277  35.272   6.665
 3602POPC   C3A48749   6.475  35.040   6.985
 3602POPC   C4A48750   6.896  35.106   7.118
 3602POPC   C1B48751   6.735  35.679   6.132
 3602POPC   C2B48752   6.573  35.694   6.515
 3602POPC   C3B48753   6.633  35.527   6.924
 3602POPC   C4B48754   6.917  35.588   7.258
 3603POPC   NC348755  19.395  28.752   5.433
 3603POPC   PO448756  19.896  28.364   5.161
 3603POPC   GL148757  19.921  28.273   5.639
 3603POPC   GL248758  19.575  28.345   5.705
 3603POPC   C1A48759  19.857  28.370   6.114
 3603POPC   D2A48760  19.912  28.379   6.562
 3603POPC   C3A48761  19.845  28.064   6.858
 3603POPC   C4A48762  19.943  28.284   7.229
 3603POPC   C1B48763  19.387  28.620   6.078
 3603POPC   C2B48764  19.374  28.588   6.540
 3603POPC   C3B48765  19.568  28.530   6.957
 3603POPC   C4B48766  19.526  28.563   7.432
 3604POPC   NC348767   8.741  17.037   5.421
 3604POPC   PO448768   9.346  16.662   5.326
 3604POPC   GL148769   9.138  16.809   5.720
 3604POPC   GL248770   8.827  16.692   5.798
 3604POPC   C1A48771   9.068  16.858   6.207
 3604POPC   D2A48772   8.827  16.785   6.610
 3604POPC   C3A48773   9.053  16.865   7.036
 3604POPC   C4A48774   9.025  16.836   7.503
 3604POPC   C1B48775   8.657  16.470   6.151
 3604POPC   C2B48776   8.602  16.298   6.547
 3604POPC   C3B48777   8.530  16.465   6.954
 3604POPC   C4B48778   8.598  16.792   7.241
 3605POPC   NC348779  44.842  32.098   5.505
 3605POPC   PO448780  44.392  32.521   5.277
 3605POPC   GL148781  44.467  32.415   5.743
 3605POPC   GL248782  44.730  32.599   5.966
 3605POPC   C1A48783  44.355  32.295   6.153
 3605POPC   D2A48784  44.565  32.371   6.518
 3605POPC   C3A48785  44.399  32.137   6.867
 3605POPC   C4A48786  44.362  32.266   7.283
 3605POPC   C1B48787  44.968  32.280   6.192
 3605POPC   C2B48788   0.181  32.210   6.584
 3605POPC   C3B48789  44.896  32.253   6.912
 3605POPC   C4B48790  44.804  32.040   7.291
 3606POPC   NC348791  41.142   8.137   5.593
 3606POPC   PO448792  40.635   7.871   5.346
 3606POPC   GL148793  40.628   8.139   5.721
 3606POPC   GL248794  40.642   8.517   5.702
 3606POPC   C1A48795  40.608   8.074   6.142
 3606POPC   D2A48796  40.589   8.236   6.542
 3606POPC   C3A48797  40.662   7.991   6.859
 3606POPC   C4A48798  40.757   7.944   7.279
 3606POPC   C1B48799  40.569   8.590   6.168
 3606POPC   C2B48800  40.658   8.730   6.605
 3606POPC   C3B48801  40.566   8.481   7.015
 3606POPC   C4B48802  40.540   8.387   7.470
 3607POPC   NC348803   1.339  42.000   5.411
 3607POPC   PO448804   0.984  41.405   5.390
 3607POPC   GL148805   1.061  41.653   5.756
 3607POPC   GL248806   1.325  41.860   5.899
 3607POPC   C1A48807   1.178  41.458   6.177
 3607POPC   D2A48808   0.982  41.093   6.411
 3607POPC   C3A48809   1.135  41.172   6.809
 3607POPC   C4A48810   1.124  41.375   7.195
 3607POPC   C1B48811   0.895  41.926   6.144
 3607POPC   C2B48812   0.841  42.090   6.575
 3607POPC   C3B48813   1.056  41.877   6.927
 3607POPC   C4B48814   1.473  41.774   7.167
 3608POPC   NC348815  11.678  35.736   5.465
 3608POPC   PO448816  11.047  35.811   5.313
 3608POPC   GL148817  11.194  35.768   5.775
 3608POPC   GL248818  11.466  35.487   5.880
 3608POPC   C1A48819  11.061  35.579   6.193
 3608POPC   D2A48820  11.294  35.266   6.475
 3608POPC   C3A48821  11.124  34.970   6.782
 3608POPC   C4A48822  11.177  35.213   7.141
 3608POPC   C1B48823  11.552  35.038   6.098
 3608POPC   C2B48824  11.566  34.822   6.518
 3608POPC   C3B48825  11.616  35.062   6.945
 3608POPC   C4B48826  11.586  35.053   7.422
 3609POPC   NC348827  39.926  24.467   5.217
 3609POPC   PO448828  39.615  24.070   5.657
 3609POPC   GL148829  39.955  24.323   5.834
 3609POPC   GL248830  40.022  24.652   5.727
 3609POPC   C1A48831  40.177  24.506   6.201
 3609POPC   D2A48832  40.145  24.279   6.565
 3609POPC   C3A48833  40.303  24.389   6.921
 3609POPC   C4A48834  40.022  24.298   7.242
 3609POPC   C1B48835  39.807  24.847   6.125
 3609POPC   C2B48836  39.988  24.938   6.525
 3609POPC   C3B48837  40.000  24.813   6.964
 3609POPC   C4B48838  40.286  24.739   7.294
 3610POPC   NC348839  19.305  38.721   5.487
 3610POPC   PO448840  19.049  38.133   5.227
 3610POPC   GL148841  19.094  38.292   5.665
 3610POPC   GL248842  19.420  38.155   5.740
 3610POPC   C1A48843  19.004  38.541   6.087
 3610POPC   D2A48844  18.728  38.568   6.489
 3610POPC   C3A48845  18.896  38.588   6.906
 3610POPC   C4A48846  18.992  38.452   7.314
 3610POPC   C1B48847  19.116  38.023   6.085
 3610POPC   C2B48848  19.063  38.182   6.489
 3610POPC   C3B48849  19.160  38.017   6.873
 3610POPC   C4B48850  19.247  38.008   7.293
 3611POPC   NC348851  36.282   5.795   5.062
 3611POPC   PO448852  35.838   5.581   5.531
 3611POPC   GL148853  36.010   5.804   5.905
 3611POPC   GL248854  36.214   5.985   5.674
 3611POPC   C1A48855  36.133   5.842   6.358
 3611POPC   D2A48856  36.442   5.797   6.695
 3611POPC   C3A48857  36.213   5.679   7.086
 3611POPC   C4A48858  36.053   5.937   7.429
 3611POPC   C1B48859  36.289   6.225   6.054
 3611POPC   C2B48860  36.171   6.390   6.475
 3611POPC   C3B48861  36.165   6.187   6.888
 3611POPC   C4B48862  36.505   6.083   7.133
 3612POPC   NC348863  14.007  17.333   5.375
 3612POPC   PO448864  13.346  17.380   5.442
 3612POPC   GL148865  13.640  17.468   5.724
 3612POPC   GL248866  13.716  17.120   5.763
 3612POPC   C1A48867  13.684  17.754   6.063
 3612POPC   D2A48868  13.818  17.653   6.450
 3612POPC   C3A48869  13.700  17.739   6.875
 3612POPC   C4A48870  13.838  17.526   7.256
 3612POPC   C1B48871  13.578  17.224   6.184
 3612POPC   C2B48872  13.445  17.341   6.595
 3612POPC   C3B48873  13.511  17.183   7.000
 3612POPC   C4B48874  13.242  17.102   7.330
 3613POPC   NC348875  13.144  19.297   5.303
 3613POPC   PO448876  12.451  19.123   5.439
 3613POPC   GL148877  12.738  18.909   5.699
 3613POPC   GL248878  12.986  19.117   5.751
 3613POPC   C1A48879  12.833  18.822   6.133
 3613POPC   D2A48880  12.718  18.743   6.553
 3613POPC   C3A48881  12.948  18.890   6.883
 3613POPC   C4A48882  12.736  19.087   7.199
 3613POPC   C1B48883  13.158  19.251   6.154
 3613POPC   C2B48884  13.286  19.132   6.554
 3613POPC   C3B48885  13.270  19.307   6.923
 3613POPC   C4B48886  13.237  19.141   7.287
 3614POPC   NC348887   8.371  21.410   5.328
 3614POPC   PO448888   7.782  21.319   5.498
 3614POPC   GL148889   8.078  21.533   5.783
 3614POPC   GL248890   8.445  21.581   5.813
 3614POPC   C1A48891   8.146  21.438   6.207
 3614POPC   D2A48892   8.159  21.128   6.483
 3614POPC   C3A48893   8.231  21.302   6.864
 3614POPC   C4A48894   8.056  21.507   7.216
 3614POPC   C1B48895   8.583  21.188   6.060
 3614POPC   C2B48896   8.623  20.928   6.442
 3614POPC   C3B48897   8.691  21.074   6.854
 3614POPC   C4B48898   8.502  21.202   7.282
 3615POPC   NC348899  34.489  15.004   5.465
 3615POPC   PO448900  35.037  15.430   5.454
 3615POPC   GL148901  34.761  15.248   5.820
 3615POPC   GL248902  34.502  15.450   5.986
 3615POPC   C1A48903  34.511  14.977   6.142
 3615POPC   D2A48904  34.369  15.110   6.563
 3615POPC   C3A48905  34.418  14.895   6.928
 3615POPC   C4A48906  34.622  14.926   7.353
 3615POPC   C1B48907  34.669  15.799   6.232
 3615POPC   C2B48908  34.984  15.749   6.561
 3615POPC   C3B48909  34.821  15.407   6.785
 3615POPC   C4B48910  34.543  15.363   7.108
 3616POPC   NC348911  19.803  13.469   5.450
 3616POPC   PO448912  19.564  14.125   5.544
 3616POPC   GL148913  19.873  13.867   5.766
 3616POPC   GL248914  20.131  14.010   5.900
 3616POPC   C1A48915  20.002  13.542   6.063
 3616POPC   D2A48916  20.030  13.573   6.487
 3616POPC   C3A48917  19.823  13.292   6.744
 3616POPC   C4A48918  19.608  13.375   7.120
 3616POPC   C1B48919  20.380  13.896   6.250
 3616POPC   C2B48920  20.424  13.784   6.703
 3616POPC   C3B48921  20.119  13.738   7.023
 3616POPC   C4B48922  20.175  13.934   7.437
 3617POPC   NC348923   0.077  31.277   5.572
 3617POPC   PO448924   0.698  31.460   5.216
 3617POPC   GL148925   0.490  31.554   5.681
 3617POPC   GL248926   0.248  31.805   5.681
 3617POPC   C1A48927   0.417  31.382   6.154
 3617POPC   D2A48928   0.396  31.121   6.564
 3617POPC   C3A48929   0.306  31.327   6.938
 3617POPC   C4A48930   0.502  31.554   7.268
 3617POPC   C1B48931   0.158  31.818   6.122
 3617POPC   C2B48932   0.265  31.699   6.553
 3617POPC   C3B48933   0.130  31.794   6.977
 3617POPC   C4B48934  44.959  31.529   7.323
 3618POPC   NC348935  37.572  16.195   5.367
 3618POPC   PO448936  37.765  15.536   5.375
 3618POPC   GL148937  37.832  15.887   5.708
 3618POPC   GL248938  37.503  16.047   5.851
 3618POPC   C1A48939  37.897  15.932   6.178
 3618POPC   D2A48940  37.715  15.597   6.447
 3618POPC   C3A48941  37.550  15.751   6.834
 3618POPC   C4A48942  37.759  16.060   7.108
 3618POPC   C1B48943  37.397  16.032   6.297
 3618POPC   C2B48944  37.581  16.249   6.636
 3618POPC   C3B48945  37.512  16.481   7.013
 3618POPC   C4B48946  37.268  16.178   7.269
 3619POPC   NC348947  33.660  10.866   5.131
 3619POPC   PO448948  33.668  11.382   5.546
 3619POPC   GL148949  33.594  11.242   5.951
 3619POPC   GL248950  33.886  10.999   5.906
 3619POPC   C1A48951  33.680  11.228   6.389
 3619POPC   D2A48952  34.033  11.337   6.646
 3619POPC   C3A48953  33.914  11.508   7.043
 3619POPC   C4A48954  33.604  11.384   7.315
 3619POPC   C1B48955  34.128  10.956   6.272
 3619POPC   C2B48956  33.974  10.793   6.633
 3619POPC   C3B48957  33.783  11.009   6.967
 3619POPC   C4B48958  33.933  10.965   7.396
 3620POPC   NC348959   6.937   4.302   5.361
 3620POPC   PO448960   7.604   4.583   5.400
 3620POPC   GL148961   7.596   4.429   5.830
 3620POPC   GL248962   7.316   4.236   5.754
 3620POPC   C1A48963   7.513   4.208   6.230
 3620POPC   D2A48964   7.284   4.039   6.576
 3620POPC   C3A48965   7.504   4.129   6.954
 3620POPC   C4A48966   7.647   4.314   7.313
 3620POPC   C1B48967   7.012   4.186   6.093
 3620POPC   C2B48968   6.991   4.463   6.463
 3620POPC   C3B48969   7.139   4.487   6.867
 3620POPC   C4B48970   7.017   4.226   7.196
 3621POPC   NC348971  33.241  41.483   5.304
 3621POPC   PO448972  32.811  42.011   5.212
 3621POPC   GL148973  32.917  41.639   5.627
 3621POPC   GL248974  32.659  41.380   5.743
 3621POPC   C1A48975  33.062  41.573   6.043
 3621POPC   D2A48976  33.035  41.462   6.459
 3621POPC   C3A48977  33.120  41.800   6.757
 3621POPC   C4A48978  33.070  41.674   7.164
 3621POPC   C1B48979  32.714  41.163   6.155
 3621POPC   C2B48980  32.648  41.170   6.636
 3621POPC   C3B48981  32.742  41.279   7.100
 3621POPC   C4B48982  32.678  41.324   7.589
 3622POPC   NC348983  43.157  42.066   4.944
 3622POPC   PO448984  43.347  42.096   5.546
 3622POPC   GL148985  43.265  42.192   5.923
 3622POPC   GL248986  43.017  42.427   5.799
 3622POPC   C1A48987  43.029  42.043   6.274
 3622POPC   D2A48988  43.004  42.216   6.639
 3622POPC   C3A48989  42.897  42.095   6.987
 3622POPC   C4A48990  43.161  42.183   7.288
 3622POPC   C1B48991  43.054  42.563   6.209
 3622POPC   C2B48992  42.832  42.671   6.570
 3622POPC   C3B48993  43.055  42.648   6.945
 3622POPC   C4B48994  42.896  42.656   7.328
 3623POPC   NC348995   3.308  20.670   5.581
 3623POPC   PO448996   3.775  20.179   5.620
 3623POPC   GL148997   3.461  20.273   5.943
 3623POPC   GL248998   3.611  20.597   5.992
 3623POPC   C1A48999   3.341  20.437   6.395
 3623POPC   D2A49000   3.373  20.834   6.682
 3623POPC   C3A49001   3.402  20.804   7.145
 3623POPC   C4A49002   3.442  20.530   7.501
 3623POPC   C1B49003   3.950  20.370   6.244
 3623POPC   C2B49004   4.023  20.303   6.713
 3623POPC   C3B49005   3.918  20.288   7.173
 3623POPC   C4B49006   3.855  20.274   7.612
 3624POPC   NC349007   5.044   9.414   5.130
 3624POPC   PO449008   5.214   8.819   5.348
 3624POPC   GL149009   5.269   8.969   5.800
 3624POPC   GL249010   5.390   8.641   5.927
 3624POPC   C1A49011   5.265   9.003   6.291
 3624POPC   D2A49012   4.885   9.141   6.558
 3624POPC   C3A49013   4.869   9.253   7.045
 3624POPC   C4A49014   4.936   9.148   7.521
 3624POPC   C1B49015   4.934   8.661   6.065
 3624POPC   C2B49016   4.736   8.610   6.484
 3624POPC   C3B49017   4.942   8.743   6.867
 3624POPC   C4B49018   5.158   8.791   7.241
 3625POPC   NC349019   7.949   1.908   5.476
 3625POPC   PO449020   8.590   2.007   5.337
 3625POPC   GL149021   8.414   1.800   5.715
 3625POPC   GL249022   8.312   2.113   5.789
 3625POPC   C1A49023   8.105   1.724   6.099
 3625POPC   D2A49024   8.190   1.725   6.547
 3625POPC   C3A49025   7.967   1.993   6.839
 3625POPC   C4A49026   8.067   1.863   7.214
 3625POPC   C1B49027   8.426   2.079   6.186
 3625POPC   C2B49028   8.358   2.230   6.545
 3625POPC   C3B49029   8.466   2.061   6.907
 3625POPC   C4B49030   8.657   2.219   7.239
 3626POPC   NC349031  22.150  19.068   5.149
 3626POPC   PO449032  21.684  18.797   5.261
 3626POPC   GL149033  22.018  18.979   5.624
 3626POPC   GL249034  22.166  18.730   5.846
 3626POPC   C1A49035  22.141  19.186   6.075
 3626POPC   D2A49036  22.304  19.199   6.543
 3626POPC   C3A49037  22.226  19.170   7.015
 3626POPC   C4A49038  21.964  18.965   7.376
 3626POPC   C1B49039  22.361  18.763   6.265
 3626POPC   C2B49040  22.411  18.703   6.710
 3626POPC   C3B49041  22.306  18.677   7.138
 3626POPC   C4B49042  22.435  18.825   7.564
 3627POPC   NC349043   0.816   5.938   5.517
 3627POPC   PO449044   0.237   6.105   5.429
 3627POPC   GL149045   0.305   5.897   5.851
 3627POPC   GL249046   0.649   5.918   5.992
 3627POPC   C1A49047   0.310   5.597   6.241
 3627POPC   D2A49048   0.394   5.699   6.701
 3627POPC   C3A49049   0.560   5.598   7.112
 3627POPC   C4A49050   0.196   5.635   7.417
 3627POPC   C1B49051   0.411   6.084   6.326
 3627POPC   C2B49052   0.417   6.207   6.728
 3627POPC   C3B49053   0.310   6.065   7.111
 3627POPC   C4B49054   0.538   6.026   7.444
 3628POPC   NC349055  24.147  12.146   5.389
 3628POPC   PO449056  24.754  12.230   5.179
 3628POPC   GL149057  24.648  12.064   5.672
 3628POPC   GL249058  24.294  12.150   5.869
 3628POPC   C1A49059  24.721  12.062   6.161
 3628POPC   D2A49060  24.797  12.078   6.642
 3628POPC   C3A49061  24.486  12.305   6.872
 3628POPC   C4A49062  24.565  12.282   7.313
 3628POPC   C1B49063  24.254  11.827   6.150
 3628POPC   C2B49064  24.354  11.881   6.547
 3628POPC   C3B49065  24.385  11.823   6.982
 3628POPC   C4B49066  24.237  11.480   7.197
 3629POPC   NC349067   5.451  12.949   5.281
 3629POPC   PO449068   6.080  12.883   5.439
 3629POPC   GL149069   5.771  12.826   5.773
 3629POPC   GL249070   5.779  12.481   5.872
 3629POPC   C1A49071   5.718  13.074   6.184
 3629POPC   D2A49072   5.864  13.173   6.579
 3629POPC   C3A49073   5.954  12.875   6.900
 3629POPC   C4A49074   5.869  13.180   7.218
 3629POPC   C1B49075   5.473  12.637   6.149
 3629POPC   C2B49076   5.582  12.725   6.564
 3629POPC   C3B49077   5.455  12.995   6.904
 3629POPC   C4B49078   5.466  12.832   7.306
 3630POPC   NC349079  28.412  41.916   5.270
 3630POPC   PO449080  28.208  41.277   5.345
 3630POPC   GL149081  28.287  41.565   5.684
 3630POPC   GL249082  28.650  41.643   5.633
 3630POPC   C1A49083  28.077  41.573   6.109
 3630POPC   D2A49084  28.208  41.685   6.532
 3630POPC   C3A49085  28.219  41.530   6.987
 3630POPC   C4A49086  27.985  41.265   7.278
 3630POPC   C1B49087  28.598  41.750   6.063
 3630POPC   C2B49088  28.712  41.680   6.474
 3630POPC   C3B49089  28.725  41.673   6.877
 3630POPC   C4B49090  28.606  41.832   7.250
 3631POPC   NC349091  28.058  40.869   5.182
 3631POPC   PO449092  27.553  41.028   5.577
 3631POPC   GL149093  27.445  40.788   5.900
 3631POPC   GL249094  27.423  40.458   5.724
 3631POPC   C1A49095  27.668  40.851   6.309
 3631POPC   D2A49096  27.951  40.761   6.676
 3631POPC   C3A49097  27.749  40.868   7.070
 3631POPC   C4A49098  27.316  41.001   7.197
 3631POPC   C1B49099  27.230  40.413   6.151
 3631POPC   C2B49100  27.210  40.699   6.512
 3631POPC   C3B49101  27.365  40.596   6.894
 3631POPC   C4B49102  27.321  40.273   7.183
 3632POPC   NC349103  17.872   7.528   5.453
 3632POPC   PO449104  17.204   7.341   5.307
 3632POPC   GL149105  17.510   7.238   5.660
 3632POPC   GL249106  17.386   7.099   5.919
 3632POPC   C1A49107  17.795   7.301   6.097
 3632POPC   D2A49108  17.654   7.397   6.541
 3632POPC   C3A49109  17.912   7.414   6.922
 3632POPC   C4A49110  17.796   7.565   7.325
 3632POPC   C1B49111  17.302   7.504   6.158
 3632POPC   C2B49112  17.215   7.728   6.556
 3632POPC   C3B49113  17.316   7.605   6.980
 3632POPC   C4B49114  17.308   7.451   7.355
 3633POPC   NC349115  38.512  25.820   5.322
 3633POPC   PO449116  38.733  26.470   5.450
 3633POPC   GL149117  38.524  26.173   5.712
 3633POPC   GL249118  38.218  26.275   5.868
 3633POPC   C1A49119  38.506  25.837   6.038
 3633POPC   D2A49120  38.588  25.651   6.469
 3633POPC   C3A49121  38.597  25.799   6.926
 3633POPC   C4A49122  38.856  25.651   7.300
 3633POPC   C1B49123  38.160  26.106   6.292
 3633POPC   C2B49124  38.168  25.985   6.709
 3633POPC   C3B49125  37.967  26.093   7.094
 3633POPC   C4B49126  38.053  26.111   7.535
 3634POPC   NC349127  16.083  24.051   5.360
 3634POPC   PO449128  15.568  23.775   5.453
 3634POPC   GL149129  15.803  24.011   5.799
 3634POPC   GL249130  16.185  23.991   5.861
 3634POPC   C1A49131  15.746  23.990   6.249
 3634POPC   D2A49132  15.554  23.750   6.573
 3634POPC   C3A49133  15.485  23.997   6.946
 3634POPC   C4A49134  15.839  24.034   7.209
 3634POPC   C1B49135  16.253  24.010   6.321
 3634POPC   C2B49136  16.024  23.953   6.736
 3634POPC   C3B49137  16.166  23.673   7.118
 3634POPC   C4B49138  16.438  23.607   7.476
 3635POPC   NC349139  39.013  24.411   5.225
 3635POPC   PO449140  38.309  24.400   5.270
 3635POPC   GL149141  38.323  24.395   5.738
 3635POPC   GL249142  38.669  24.364   5.705
 3635POPC   C1A49143  38.406  24.647   6.143
 3635POPC   D2A49144  38.677  24.601   6.516
 3635POPC   C3A49145  38.552  24.744   6.896
 3635POPC   C4A49146  38.257  24.697   7.237
 3635POPC   C1B49147  38.798  24.307   6.118
 3635POPC   C2B49148  38.843  24.118   6.546
 3635POPC   C3B49149  38.755  24.264   6.962
 3635POPC   C4B49150  38.700  24.488   7.358
 3636POPC   NC349151  40.248  37.411   5.424
 3636POPC   PO449152  39.584  37.594   5.606
 3636POPC   GL149153  39.917  37.746   5.876
 3636POPC   GL249154  40.219  37.497   5.926
 3636POPC   C1A49155  40.117  37.866   6.259
 3636POPC   D2A49156  40.162  38.053   6.657
 3636POPC   C3A49157  39.771  37.950   6.883
 3636POPC   C4A49158  39.617  37.880   7.297
 3636POPC   C1B49159  39.883  37.365   6.212
 3636POPC   C2B49160  39.897  37.539   6.617
 3636POPC   C3B49161  40.080  37.567   7.029
 3636POPC   C4B49162  40.446  37.397   7.238
 3637POPC   NC349163  42.128   2.989   5.487
 3637POPC   PO449164  42.722   2.742   5.408
 3637POPC   GL149165  42.399   2.596   5.703
 3637POPC   GL249166  42.496   2.885   5.879
 3637POPC   C1A49167  42.245   2.520   6.174
 3637POPC   D2A49168  42.290   2.473   6.656
 3637POPC   C3A49169  42.289   2.879   6.914
 3637POPC   C4A49170  42.140   2.964   7.337
 3637POPC   C1B49171  42.733   2.497   6.066
 3637POPC   C2B49172  42.779   2.477   6.481
 3637POPC   C3B49173  42.763   2.394   6.899
 3637POPC   C4B49174  42.494   2.542   7.239
 3638POPC   NC349175   5.415  30.979   5.704
 3638POPC   PO449176   4.792  30.829   5.417
 3638POPC   GL149177   5.043  30.644   5.813
 3638POPC   GL249178   4.876  30.381   5.995
 3638POPC   C1A49179   5.199  30.666   6.283
 3638POPC   D2A49180   5.458  30.854   6.624
 3638POPC   C3A49181   5.386  30.755   7.067
 3638POPC   C4A49182   5.145  30.698   7.453
 3638POPC   C1B49183   4.826  30.338   6.424
 3638POPC   C2B49184   4.982  30.548   6.772
 3638POPC   C3B49185   4.880  30.852   7.040
 3638POPC   C4B49186   4.675  31.215   6.991
 3639POPC   NC349187  21.379  42.425   5.407
 3639POPC   PO449188  21.509  41.799   5.581
 3639POPC   GL149189  21.362  42.111   5.845
 3639POPC   GL249190  21.390  42.494   5.894
 3639POPC   C1A49191  21.274  42.179   6.262
 3639POPC   D2A49192  21.230  42.386   6.607
 3639POPC   C3A49193  21.341  42.133   6.926
 3639POPC   C4A49194  21.174  42.219   7.288
 3639POPC   C1B49195  21.611  42.580   6.270
 3639POPC   C2B49196  21.538  42.787   6.662
 3639POPC   C3B49197  21.390  42.627   7.067
 3639POPC   C4B49198  21.432  42.577   7.531
 3640POPC   NC349199  29.836  14.057   5.481
 3640POPC   PO449200  30.109  14.677   5.529
 3640POPC   GL149201  30.077  14.476   5.878
 3640POPC   GL249202  30.206  14.150   5.865
 3640POPC   C1A49203  29.792  14.279   6.152
 3640POPC   D2A49204  29.885  14.139   6.539
 3640POPC   C3A49205  29.650  14.221   6.902
 3640POPC   C4A49206  29.734  14.079   7.308
 3640POPC   C1B49207  30.308  14.328   6.294
 3640POPC   C2B49208  30.380  14.234   6.704
 3640POPC   C3B49209  30.192  14.177   7.091
 3640POPC   C4B49210  30.408  14.259   7.474
 3641POPC   NC349211   4.362  37.724   5.462
 3641POPC   PO449212   3.920  37.234   5.200
 3641POPC   GL149213   4.044  37.299   5.666
 3641POPC   GL249214   4.368  37.431   5.875
 3641POPC   C1A49215   3.959  37.406   6.130
 3641POPC   D2A49216   4.377  37.403   6.387
 3641POPC   C3A49217   4.358  37.355   6.833
 3641POPC   C4A49218   4.172  37.507   7.217
 3641POPC   C1B49219   4.486  37.827   6.101
 3641POPC   C2B49220   4.506  37.995   6.508
 3641POPC   C3B49221   4.336  37.889   6.909
 3641POPC   C4B49222   4.394  38.000   7.337
 3642POPC   NC349223  30.506  15.410   5.212
 3642POPC   PO449224  30.988  14.986   5.329
 3642POPC   GL149225  30.906  14.907   5.786
 3642POPC   GL249226  30.723  15.225   5.834
 3642POPC   C1A49227  30.853  14.940   6.252
 3642POPC   D2A49228  30.640  15.217   6.531
 3642POPC   C3A49229  30.744  15.013   6.915
 3642POPC   C4A49230  30.556  15.204   7.250
 3642POPC   C1B49231  30.552  15.543   6.138
 3642POPC   C2B49232  30.302  15.668   6.525
 3642POPC   C3B49233  30.243  15.495   6.942
 3642POPC   C4B49234  30.273  15.628   7.367
 3643POPC   NC349235   2.693   2.610   5.445
 3643POPC   PO449236   2.718   1.931   5.322
 3643POPC   GL149237   2.609   1.825   5.727
 3643POPC   GL249238   2.566   2.186   5.759
 3643POPC   C1A49239   2.778   1.769   6.145
 3643POPC   D2A49240   2.926   2.054   6.484
 3643POPC   C3A49241   2.932   2.054   6.942
 3643POPC   C4A49242   2.915   2.039   7.407
 3643POPC   C1B49243   2.517   2.229   6.196
 3643POPC   C2B49244   2.573   2.434   6.589
 3643POPC   C3B49245   2.498   2.299   7.001
 3643POPC   C4B49246   2.471   2.281   7.415
 3644POPC   NC349247  32.439  11.904   5.488
 3644POPC   PO449248  32.677  11.304   5.436
 3644POPC   GL149249  32.563  11.454   5.830
 3644POPC   GL249250  32.228  11.445   5.797
 3644POPC   C1A49251  32.386  11.274   6.241
 3644POPC   D2A49252  32.046  10.989   6.416
 3644POPC   C3A49253  31.997  10.966   6.880
 3644POPC   C4A49254  32.349  11.154   7.172
 3644POPC   C1B49255  31.926  11.459   6.158
 3644POPC   C2B49256  32.000  11.474   6.598
 3644POPC   C3B49257  31.866  11.469   7.006
 3644POPC   C4B49258  31.869  11.188   7.335
 3645POPC   NC349259  30.539  10.066   5.455
 3645POPC   PO449260  30.718   9.369   5.602
 3645POPC   GL149261  31.034   9.589   5.872
 3645POPC   GL249262  30.996   9.914   5.741
 3645POPC   C1A49263  31.091   9.479   6.295
 3645POPC   D2A49264  30.723   9.422   6.541
 3645POPC   C3A49265  30.699   9.563   6.961
 3645POPC   C4A49266  30.556   9.853   7.286
 3645POPC   C1B49267  30.865   9.981   6.181
 3645POPC   C2B49268  31.009   9.924   6.625
 3645POPC   C3B49269  30.996  10.033   7.088
 3645POPC   C4B49270  31.162  10.070   7.540
 3646POPC   NC349271   1.961   3.132   5.407
 3646POPC   PO449272   2.411   2.866   5.206
 3646POPC   GL149273   2.244   2.762   5.687
 3646POPC   GL249274   1.981   2.967   5.888
 3646POPC   C1A49275   2.277   2.676   6.181
 3646POPC   D2A49276   2.189   2.910   6.566
 3646POPC   C3A49277   2.216   2.726   6.976
 3646POPC   C4A49278   1.922   2.429   7.175
 3646POPC   C1B49279   1.774   2.671   6.217
 3646POPC   C2B49280   1.679   2.606   6.659
 3646POPC   C3B49281   1.717   2.871   7.034
 3646POPC   C4B49282   1.693   2.811   7.497
 3647POPC   NC349283  17.157  44.748   5.141
 3647POPC   PO449284  16.586  44.667   5.585
 3647POPC   GL149285  16.773  44.761   5.924
 3647POPC   GL249286  17.069  44.935   5.893
 3647POPC   C1A49287  16.704  44.925   6.287
 3647POPC   D2A49288  16.879  44.780   6.648
 3647POPC   C3A49289  16.562  44.675   6.969
 3647POPC   C4A49290  16.466   0.062   7.214
 3647POPC   C1B49291  17.199  44.642   6.233
 3647POPC   C2B49292  17.115  44.336   6.585
 3647POPC   C3B49293  17.113  44.488   7.009
 3647POPC   C4B49294  16.983  44.914   7.129
 3648POPC   NC349295   4.183  13.363   5.407
 3648POPC   PO449296   4.663  12.874   5.523
 3648POPC   GL149297   4.278  12.927   5.782
 3648POPC   GL249298   3.965  12.731   5.682
 3648POPC   C1A49299   4.336  12.904   6.248
 3648POPC   D2A49300   4.556  12.785   6.644
 3648POPC   C3A49301   4.394  12.909   7.027
 3648POPC   C4A49302   3.952  13.012   7.054
 3648POPC   C1B49303   4.178  12.469   6.036
 3648POPC   C2B49304   4.258  12.396   6.497
 3648POPC   C3B49305   4.141  12.477   6.946
 3648POPC   C4B49306   3.821  12.560   7.285
 3649POPC   NC349307  14.484   1.047   5.038
 3649POPC   PO449308  14.142   1.435   5.387
 3649POPC   GL149309  14.296   1.301   5.769
 3649POPC   GL249310  14.370   0.949   5.791
 3649POPC   C1A49311  14.492   1.366   6.161
 3649POPC   D2A49312  14.370   1.165   6.541
 3649POPC   C3A49313  14.435   1.370   6.919
 3649POPC   C4A49314  14.268   1.340   7.273
 3649POPC   C1B49315  14.606   0.851   6.182
 3649POPC   C2B49316  14.771   0.835   6.595
 3649POPC   C3B49317  14.752   0.973   6.996
 3649POPC   C4B49318  14.588   0.944   7.398
 3650POPC   NC349319  41.829  22.166   5.392
 3650POPC   PO449320  41.288  21.830   5.436
 3650POPC   GL149321  41.519  22.023   5.803
 3650POPC   GL249322  41.513  22.374   5.795
 3650POPC   C1A49323  41.509  22.008   6.273
 3650POPC   D2A49324  41.481  21.778   6.688
 3650POPC   C3A49325  41.602  22.059   7.023
 3650POPC   C4A49326  41.318  22.258   7.300
 3650POPC   C1B49327  41.737  22.486   6.172
 3650POPC   C2B49328  41.711  22.471   6.592
 3650POPC   C3B49329  41.956  22.435   6.947
 3650POPC   C4B49330  41.940  22.303   7.363
 3651POPC   NC349331  27.573  33.264   5.533
 3651POPC   PO449332  27.618  32.577   5.576
 3651POPC   GL149333  27.658  32.863   5.848
 3651POPC   GL249334  27.970  33.040   5.757
 3651POPC   C1A49335  27.448  32.907   6.250
 3651POPC   D2A49336  27.405  32.728   6.680
 3651POPC   C3A49337  27.376  32.978   7.070
 3651POPC   C4A49338  27.403  32.954   7.541
 3651POPC   C1B49339  27.970  33.006   6.207
 3651POPC   C2B49340  27.777  33.059   6.610
 3651POPC   C3B49341  27.879  32.963   7.016
 3651POPC   C4B49342  27.759  33.275   7.339
 3652POPC   NC349343  12.765  25.046   5.649
 3652POPC   PO449344  13.113  24.496   5.424
 3652POPC   GL149345  12.884  24.551   5.822
 3652POPC   GL249346  12.864  24.205   5.925
 3652POPC   C1A49347  12.779  24.702   6.261
 3652POPC   D2A49348  12.642  24.579   6.674
 3652POPC   C3A49349  12.833  24.739   7.036
 3652POPC   C4A49350  12.958  24.629   7.437
 3652POPC   C1B49351  12.815  24.191   6.381
 3652POPC   C2B49352  12.726  24.083   6.811
 3652POPC   C3B49353  12.592  24.298   7.200
 3652POPC   C4B49354  12.582  24.288   7.651
 3653POPC   NC349355  42.293   6.710   5.348
 3653POPC   PO449356  42.329   6.092   5.502
 3653POPC   GL149357  42.298   6.476   5.806
 3653POPC   GL249358  42.392   6.852   5.810
 3653POPC   C1A49359  42.132   6.633   6.210
 3653POPC   D2A49360  41.872   6.657   6.605
 3653POPC   C3A49361  42.105   6.723   6.989
 3653POPC   C4A49362  42.415   6.514   7.196
 3653POPC   C1B49363  42.536   6.954   6.188
 3653POPC   C2B49364  42.361   6.917   6.580
 3653POPC   C3B49365  42.549   6.977   6.958
 3653POPC   C4B49366  42.435   6.994   7.352
 3654POPC   NC349367   2.455  21.070   5.611
 3654POPC   PO449368   2.867  20.522   5.406
 3654POPC   GL149369   2.911  20.447   5.839
 3654POPC   GL249370   2.867  20.824   5.858
 3654POPC   C1A49371   2.648  20.501   6.211
 3654POPC   D2A49372   2.328  20.681   6.449
 3654POPC   C3A49373   2.400  20.595   6.866
 3654POPC   C4A49374   2.639  20.273   7.047
 3654POPC   C1B49375   3.026  20.835   6.282
 3654POPC   C2B49376   2.895  20.598   6.667
 3654POPC   C3B49377   2.869  20.747   7.093
 3654POPC   C4B49378   3.013  20.832   7.503
 3655POPC   NC349379   0.419  22.441   5.519
 3655POPC   PO449380   0.256  21.854   5.528
 3655POPC   GL149381   0.427  21.768   5.919
 3655POPC   GL249382   0.648  22.032   5.924
 3655POPC   C1A49383   0.265  21.891   6.325
 3655POPC   D2A49384   0.209  22.288   6.515
 3655POPC   C3A49385   0.302  22.224   6.928
 3655POPC   C4A49386   0.536  22.042   7.263
 3655POPC   C1B49387   0.695  22.186   6.359
 3655POPC   C2B49388   0.782  22.103   6.797
 3655POPC   C3B49389   0.953  22.304   7.169
 3655POPC   C4B49390   0.751  22.362   7.603
 3656POPC   NC349391   1.691   0.157   5.530
 3656POPC   PO449392   1.205   0.578   5.420
 3656POPC   GL149393   1.138   0.538   5.863
 3656POPC   GL249394   1.309   0.216   5.939
 3656POPC   C1A49395   1.248   0.564   6.315
 3656POPC   D2A49396   1.269   0.245   6.670
 3656POPC   C3A49397   1.340   0.391   7.106
 3656POPC   C4A49398   1.323   0.578   7.546
 3656POPC   C1B49399   0.919   0.174   6.226
 3656POPC   C2B49400   0.774   0.012   6.637
 3656POPC   C3B49401   0.879   0.168   7.031
 3656POPC   C4B49402   1.049   0.075   7.453
 3657POPC   NC349403   7.147  17.100   5.518
 3657POPC   PO449404   7.664  16.607   5.488
 3657POPC   GL149405   7.437  16.779   5.821
 3657POPC   GL249406   7.516  17.123   5.874
 3657POPC   C1A49407   7.152  16.738   6.170
 3657POPC   D2A49408   7.289  16.824   6.587
 3657POPC   C3A49409   7.069  16.820   6.972
 3657POPC   C4A49410   7.173  16.777   7.405
 3657POPC   C1B49411   7.240  17.247   6.246
 3657POPC   C2B49412   7.096  17.279   6.699
 3657POPC   C3B49413   7.365  17.258   7.091
 3657POPC   C4B49414   7.358  17.232   7.569
 3658POPC   NC349415   6.170  31.378   5.456
 3658POPC   PO449416   5.968  32.048   5.426
 3658POPC   GL149417   5.892  31.764   5.803
 3658POPC   GL249418   5.987  31.410   5.933
 3658POPC   C1A49419   5.772  31.758   6.256
 3658POPC   D2A49420   5.598  31.483   6.568
 3658POPC   C3A49421   5.813  31.640   6.913
 3658POPC   C4A49422   5.837  31.673   7.360
 3658POPC   C1B49423   6.144  31.419   6.378
 3658POPC   C2B49424   6.276  31.493   6.816
 3658POPC   C3B49425   6.189  31.374   7.189
 3658POPC   C4B49426   5.976  31.245   7.583
 3659POPC   NC349427  41.491  39.738   5.473
 3659POPC   PO449428  41.756  40.333   5.289
 3659POPC   GL149429  41.765  40.094   5.735
 3659POPC   GL249430  41.416  40.015   5.885
 3659POPC   C1A49431  41.813  40.047   6.209
 3659POPC   D2A49432  41.525  40.199   6.551
 3659POPC   C3A49433  41.723  40.186   6.961
 3659POPC   C4A49434  41.805  40.193   7.415
 3659POPC   C1B49435  41.389  39.753   6.264
 3659POPC   C2B49436  41.560  39.710   6.697
 3659POPC   C3B49437  41.337  39.813   7.091
 3659POPC   C4B49438  41.396  39.930   7.544
 3660POPC   NC349439  17.991  27.402   5.650
 3660POPC   PO449440  18.647  27.637   5.346
 3660POPC   GL149441  18.591  27.548   5.782
 3660POPC   GL249442  18.319  27.774   5.800
 3660POPC   C1A49443  18.550  27.494   6.258
 3660POPC   D2A49444  18.677  27.369   6.731
 3660POPC   C3A49445  18.314  27.440   7.021
 3660POPC   C4A49446  17.964  27.209   7.215
 3660POPC   C1B49447  18.120  27.853   6.197
 3660POPC   C2B49448  18.207  28.010   6.603
 3660POPC   C3B49449  18.439  27.977   6.961
 3660POPC   C4B49450  18.308  27.868   7.307
 3661POPC   NC349451  31.545  32.722   5.521
 3661POPC   PO449452  30.977  33.048   5.262
 3661POPC   GL149453  31.246  33.198   5.720
 3661POPC   GL249454  31.642  33.156   5.818
 3661POPC   C1A49455  31.331  33.114   6.225
 3661POPC   D2A49456  31.566  33.114   6.657
 3661POPC   C3A49457  31.494  32.824   7.035
 3661POPC   C4A49458  31.071  32.663   7.215
 3661POPC   C1B49459  31.852  32.980   6.198
 3661POPC   C2B49460  32.064  33.110   6.569
 3661POPC   C3B49461  32.004  32.977   6.967
 3661POPC   C4B49462  31.838  33.064   7.353
 3662POPC   NC349463   2.452  30.004   5.313
 3662POPC   PO449464   1.847  30.139   5.375
 3662POPC   GL149465   1.839  30.121   5.858
 3662POPC   GL249466   2.216  30.094   5.852
 3662POPC   C1A49467   1.659  30.030   6.333
 3662POPC   D2A49468   1.511  29.965   6.803
 3662POPC   C3A49469   1.808  30.084   7.137
 3662POPC   C4A49470   2.177  30.006   7.422
 3662POPC   C1B49471   2.117  29.812   6.217
 3662POPC   C2B49472   1.978  29.730   6.662
 3662POPC   C3B49473   2.155  29.621   7.076
 3662POPC   C4B49474   2.221  29.503   7.533
 3663POPC   NC349475   6.474  18.579   5.535
 3663POPC   PO449476   6.952  18.994   5.232
 3663POPC   GL149477   6.880  18.904   5.662
 3663POPC   GL249478   6.947  19.230   5.718
 3663POPC   C1A49479   6.754  18.912   6.121
 3663POPC   D2A49480   6.536  18.909   6.559
 3663POPC   C3A49481   6.691  18.767   6.943
 3663POPC   C4A49482   6.817  18.914   7.317
 3663POPC   C1B49483   7.002  19.423   6.071
 3663POPC   C2B49484   6.786  19.333   6.437
 3663POPC   C3B49485   6.804  19.305   6.894
 3663POPC   C4B49486   7.058  19.367   7.286
 3664POPC   NC349487  27.317   8.038   5.309
 3664POPC   PO449488  27.807   7.569   5.287
 3664POPC   GL149489  27.705   7.485   5.756
 3664POPC   GL249490  27.380   7.350   5.793
 3664POPC   C1A49491  27.817   7.551   6.186
 3664POPC   D2A49492  27.611   7.595   6.566
 3664POPC   C3A49493  27.731   7.401   6.945
 3664POPC   C4A49494  27.377   7.519   7.229
 3664POPC   C1B49495  27.440   7.213   6.236
 3664POPC   C2B49496  27.494   7.057   6.659
 3664POPC   C3B49497  27.349   7.046   7.096
 3664POPC   C4B49498  27.071   7.121   7.443
 3665POPC   NC349499  38.207  28.524   5.294
 3665POPC   PO449500  38.730  28.155   5.428
 3665POPC   GL149501  38.625  28.484   5.778
 3665POPC   GL249502  38.280  28.624   5.783
 3665POPC   C1A49503  38.595  28.501   6.244
 3665POPC   D2A49504  38.316  28.203   6.431
 3665POPC   C3A49505  38.236  28.108   6.863
 3665POPC   C4A49506  38.365  28.260   7.232
 3665POPC   C1B49507  38.216  28.868   6.128
 3665POPC   C2B49508  38.131  28.716   6.513
 3665POPC   C3B49509  38.375  28.610   6.856
 3665POPC   C4B49510  38.237  28.761   7.239
 3666POPC   NC349511  18.038  31.118   5.362
 3666POPC   PO449512  18.465  31.688   5.439
 3666POPC   GL149513  18.267  31.437   5.724
 3666POPC   GL249514  18.031  31.686   5.788
 3666POPC   C1A49515  18.117  31.278   6.109
 3666POPC   D2A49516  18.255  31.218   6.533
 3666POPC   C3A49517  18.050  31.422   6.860
 3666POPC   C4A49518  17.988  31.208   7.241
 3666POPC   C1B49519  18.348  31.860   6.075
 3666POPC   C2B49520  18.319  31.905   6.510
 3666POPC   C3B49521  18.207  31.963   6.948
 3666POPC   C4B49522  18.288  31.638   7.271
 3667POPC   NC349523   5.178   2.668   5.293
 3667POPC   PO449524   4.542   2.630   5.521
 3667POPC   GL149525   4.945   2.595   5.762
 3667POPC   GL249526   5.299   2.765   5.793
 3667POPC   C1A49527   4.966   2.716   6.193
 3667POPC   D2A49528   5.131   2.544   6.552
 3667POPC   C3A49529   4.981   2.688   6.957
 3667POPC   C4A49530   4.979   2.459   7.321
 3667POPC   C1B49531   5.443   2.916   6.221
 3667POPC   C2B49532   5.253   3.021   6.660
 3667POPC   C3B49533   5.413   2.948   7.078
 3667POPC   C4B49534   5.232   2.923   7.501
 3668POPC   NC349535  19.987  16.569   5.539
 3668POPC   PO449536  19.438  16.934   5.502
 3668POPC   GL149537  19.653  16.750   5.878
 3668POPC   GL249538  19.714  16.387   5.911
 3668POPC   C1A49539  19.950  16.742   6.227
 3668POPC   D2A49540  19.895  16.970   6.607
 3668POPC   C3A49541  20.054  16.754   6.955
 3668POPC   C4A49542  20.162  16.783   7.411
 3668POPC   C1B49543  19.518  16.430   6.265
 3668POPC   C2B49544  19.692  16.501   6.655
 3668POPC   C3B49545  19.547  16.605   7.053
 3668POPC   C4B49546  19.680  16.880   7.330
 3669POPC   NC349547  13.396  21.637   5.180
 3669POPC   PO449548  13.985  21.591   5.498
 3669POPC   GL149549  13.742  21.524   5.866
 3669POPC   GL249550  13.430  21.502   5.755
 3669POPC   C1A49551  13.783  21.428   6.270
 3669POPC   D2A49552  13.540  21.443   6.598
 3669POPC   C3A49553  13.801  21.454   6.922
 3669POPC   C4A49554  13.716  21.462   7.316
 3669POPC   C1B49555  13.357  21.191   6.126
 3669POPC   C2B49556  13.333  20.984   6.577
 3669POPC   C3B49557  13.320  21.221   7.006
 3669POPC   C4B49558  13.339  21.151   7.480
 3670POPC   NC349559  36.443  24.213   5.383
 3670POPC   PO449560  35.930  23.769   5.398
 3670POPC   GL149561  35.995  23.621   5.834
 3670POPC   GL249562  35.759  23.346   5.883
 3670POPC   C1A49563  36.344  23.604   6.165
 3670POPC   D2A49564  36.589  23.474   6.542
 3670POPC   C3A49565  36.436  23.598   6.973
 3670POPC   C4A49566  36.344  23.544   7.424
 3670POPC   C1B49567  35.893  23.427   6.307
 3670POPC   C2B49568  36.038  23.682   6.651
 3670POPC   C3B49569  35.892  23.518   7.081
 3670POPC   C4B49570  35.565  23.673   7.401
 3671POPC   NC349571  27.813  28.552   5.145
 3671POPC   PO449572  27.629  29.186   5.268
 3671POPC   GL149573  27.673  29.090   5.711
 3671POPC   GL249574  27.756  29.420   5.859
 3671POPC   C1A49575  27.492  29.016   6.123
 3671POPC   D2A49576  27.327  29.111   6.528
 3671POPC   C3A49577  27.478  28.972   6.953
 3671POPC   C4A49578  27.684  28.917   7.330
 3671POPC   C1B49579  27.572  29.507   6.296
 3671POPC   C2B49580  27.648  29.432   6.762
 3671POPC   C3B49581  27.652  29.430   7.234
 3671POPC   C4B49582  27.749  29.660   7.647
 3672POPC   NC349583   6.885  39.173   5.311
 3672POPC   PO449584   6.373  39.503   5.515
 3672POPC   GL149585   6.656  39.385   5.808
 3672POPC   GL249586   6.595  39.052   5.801
 3672POPC   C1A49587   6.623  39.289   6.255
 3672POPC   D2A49588   6.368  39.392   6.600
 3672POPC   C3A49589   6.598  39.501   6.967
 3672POPC   C4A49590   6.511  39.539   7.412
 3672POPC   C1B49591   6.466  38.796   6.165
 3672POPC   C2B49592   6.354  38.837   6.584
 3672POPC   C3B49593   6.647  39.003   6.860
 3672POPC   C4B49594   6.681  39.079   7.297
 3673POPC   NC349595  38.143  29.204   5.355
 3673POPC   PO449596  38.599  28.845   5.306
 3673POPC   GL149597  38.636  28.999   5.707
 3673POPC   GL249598  38.414  29.241   5.796
 3673POPC   C1A49599  38.747  28.989   6.135
 3673POPC   D2A49600  38.573  28.961   6.538
 3673POPC   C3A49601  38.811  28.903   6.919
 3673POPC   C4A49602  38.635  29.115   7.249
 3673POPC   C1B49603  38.382  29.345   6.226
 3673POPC   C2B49604  38.105  29.244   6.559
 3673POPC   C3B49605  38.215  29.141   6.924
 3673POPC   C4B49606  38.135  29.267   7.332
 3674POPC   NC349607  35.575  25.437   5.521
 3674POPC   PO449608  34.991  25.510   5.676
 3674POPC   GL149609  35.318  25.333   5.940
 3674POPC   GL249610  35.409  25.661   5.992
 3674POPC   C1A49611  35.455  25.271   6.387
 3674POPC   D2A49612  35.448  25.473   6.804
 3674POPC   C3A49613  35.461  25.276   7.240
 3674POPC   C4A49614  35.186  24.984   7.465
 3674POPC   C1B49615  35.672  25.754   6.356
 3674POPC   C2B49616  35.668  25.930   6.784
 3674POPC   C3B49617  35.441  25.820   7.170
 3674POPC   C4B49618  35.367  25.654   7.580
 3675POPC   NC349619  42.356  16.496   5.281
 3675POPC   PO449620  41.819  16.764   5.095
 3675POPC   GL149621  42.033  16.521   5.641
 3675POPC   GL249622  42.365  16.755   5.773
 3675POPC   C1A49623  42.124  16.511   6.125
 3675POPC   D2A49624  42.464  16.717   6.386
 3675POPC   C3A49625  42.557  16.624   6.825
 3675POPC   C4A49626  42.548  16.712   7.252
 3675POPC   C1B49627  42.131  17.028   6.133
 3675POPC   C2B49628  42.099  16.997   6.612
 3675POPC   C3B49629  42.111  16.976   7.048
 3675POPC   C4B49630  42.194  17.251   7.376
 3676POPC   NC349631  17.743  14.900   5.149
 3676POPC   PO449632  17.354  14.432   5.470
 3676POPC   GL149633  17.514  14.409   5.845
 3676POPC   GL249634  17.529  14.065   5.908
 3676POPC   C1A49635  17.471  14.629   6.232
 3676POPC   D2A49636  17.698  14.574   6.626
 3676POPC   C3A49637  17.416  14.429   6.928
 3676POPC   C4A49638  17.137  14.602   7.252
 3676POPC   C1B49639  17.618  14.137   6.328
 3676POPC   C2B49640  17.776  14.001   6.711
 3676POPC   C3B49641  17.776  14.089   7.145
 3676POPC   C4B49642  17.615  14.409   7.410
 3677POPC   NC349643  17.705  38.098   5.290
 3677POPC   PO449644  17.104  38.499   5.469
 3677POPC   GL149645  17.381  38.443   5.842
 3677POPC   GL249646  17.733  38.361   5.733
 3677POPC   C1A49647  17.342  38.677   6.250
 3677POPC   D2A49648  17.136  38.709   6.679
 3677POPC   C3A49649  17.436  38.560   6.998
 3677POPC   C4A49650  17.412  38.109   7.127
 3677POPC   C1B49651  17.832  38.537   6.137
 3677POPC   C2B49652  17.717  38.535   6.562
 3677POPC   C3B49653  17.880  38.285   6.907
 3677POPC   C4B49654  17.810  38.371   7.319
 3678POPC   NC349655  38.801  34.924   5.440
 3678POPC   PO449656  38.300  35.468   5.461
 3678POPC   GL149657  38.342  35.348   5.875
 3678POPC   GL249658  38.413  34.979   5.838
 3678POPC   C1A49659  38.208  35.486   6.289
 3678POPC   D2A49660  38.220  35.736   6.661
 3678POPC   C3A49661  38.374  35.541   7.028
 3678POPC   C4A49662  38.276  35.365   7.434
 3678POPC   C1B49663  38.561  35.097   6.256
 3678POPC   C2B49664  38.392  35.161   6.659
 3678POPC   C3B49665  38.421  35.016   7.068
 3678POPC   C4B49666  38.863  35.049   7.145
 3679POPC   NC349667   3.256  19.219   5.239
 3679POPC   PO449668   3.883  19.005   5.424
 3679POPC   GL149669   3.737  19.023   5.811
 3679POPC   GL249670   3.377  18.975   5.725
 3679POPC   C1A49671   3.811  18.832   6.235
 3679POPC   D2A49672   3.628  18.981   6.600
 3679POPC   C3A49673   3.797  18.946   6.996
 3679POPC   C4A49674   3.930  18.971   7.417
 3679POPC   C1B49675   3.414  19.163   6.172
 3679POPC   C2B49676   3.171  19.231   6.584
 3679POPC   C3B49677   3.297  19.071   6.991
 3679POPC   C4B49678   3.431  18.871   7.358
 3680POPC   NC349679   7.900  17.041   5.484
 3680POPC   PO449680   8.509  16.628   5.408
 3680POPC   GL149681   8.318  16.822   5.793
 3680POPC   GL249682   7.964  16.723   5.914
 3680POPC   C1A49683   8.352  16.858   6.246
 3680POPC   D2A49684   8.049  16.796   6.574
 3680POPC   C3A49685   8.174  16.847   6.969
 3680POPC   C4A49686   8.103  16.511   7.241
 3680POPC   C1B49687   7.898  17.083   6.178
 3680POPC   C2B49688   7.681  17.164   6.567
 3680POPC   C3B49689   7.668  16.892   6.928
 3680POPC   C4B49690   7.835  17.099   7.269
 3681POPC   NC349691   0.717  20.896   5.393
 3681POPC   PO449692   0.322  20.311   5.478
 3681POPC   GL149693   0.608  20.501   5.781
 3681POPC   GL249694   0.359  20.734   5.825
 3681POPC   C1A49695   0.782  20.471   6.231
 3681POPC   D2A49696   0.549  20.591   6.631
 3681POPC   C3A49697   0.614  20.707   7.045
 3681POPC   C4A49698   0.451  20.578   7.458
 3681POPC   C1B49699   0.244  20.477   6.213
 3681POPC   C2B49700   0.152  20.286   6.643
 3681POPC   C3B49701   0.132  20.463   7.069
 3681POPC   C4B49702  44.995  20.362   7.508
 3682POPC   NC349703  36.768  31.992   5.443
 3682POPC   PO449704  37.192  32.524   5.572
 3682POPC   GL149705  36.885  32.340   5.830
 3682POPC   GL249706  37.073  32.012   5.857
 3682POPC   C1A49707  36.970  32.367   6.279
 3682POPC   D2A49708  37.338  32.195   6.525
 3682POPC   C3A49709  37.225  32.182   6.945
 3682POPC   C4A49710  37.023  31.880   7.157
 3682POPC   C1B49711  36.811  31.885   6.191
 3682POPC   C2B49712  36.694  31.989   6.598
 3682POPC   C3B49713  36.590  32.136   6.981
 3682POPC   C4B49714  36.828  32.435   7.200
 3683POPC   NC349715   0.939   6.927   5.592
 3683POPC   PO449716   1.495   6.792   5.261
 3683POPC   GL149717   1.379   6.666   5.743
 3683POPC   GL249718   1.489   6.406   5.931
 3683POPC   C1A49719   1.485   6.792   6.237
 3683POPC   D2A49720   1.358   6.583   6.619
 3683POPC   C3A49721   1.306   6.891   6.931
 3683POPC   C4A49722   1.481   6.952   7.344
 3683POPC   C1B49723   1.054   6.543   6.145
 3683POPC   C2B49724   0.821   6.506   6.556
 3683POPC   C3B49725   0.948   6.533   6.972
 3683POPC   C4B49726   1.320   6.391   7.157
 3684POPC   NC349727   5.721  27.298   4.916
 3684POPC   PO449728   6.014  27.751   5.264
 3684POPC   GL149729   5.943  27.649   5.701
 3684POPC   GL249730   5.793  27.909   5.887
 3684POPC   C1A49731   5.884  27.441   6.097
 3684POPC   D2A49732   5.998  27.533   6.531
 3684POPC   C3A49733   5.885  27.430   6.974
 3684POPC   C4A49734   6.107  27.535   7.378
 3684POPC   C1B49735   5.786  27.953   6.344
 3684POPC   C2B49736   5.625  27.809   6.744
 3684POPC   C3B49737   5.783  27.900   7.152
 3684POPC   C4B49738   5.883  27.968   7.572
 3685POPC   NC349739  27.887   2.844   5.496
 3685POPC   PO449740  27.401   2.486   5.507
 3685POPC   GL149741  27.577   2.600   5.877
 3685POPC   GL249742  27.912   2.420   5.870
 3685POPC   C1A49743  27.431   2.887   6.237
 3685POPC   D2A49744  27.237   2.899   6.664
 3685POPC   C3A49745  27.490   2.818   7.011
 3685POPC   C4A49746  27.676   3.086   7.334
 3685POPC   C1B49747  27.914   2.681   6.232
 3685POPC   C2B49748  27.690   2.581   6.589
 3685POPC   C3B49749  27.977   2.366   6.827
 3685POPC   C4B49750  28.008   2.676   7.143
 3686POPC   NC349751  19.664  35.065   5.465
 3686POPC   PO449752  19.668  34.517   5.178
 3686POPC   GL149753  19.671  34.508   5.662
 3686POPC   GL249754  19.774  34.175   5.830
 3686POPC   C1A49755  19.500  34.498   6.109
 3686POPC   D2A49756  19.600  34.516   6.558
 3686POPC   C3A49757  19.470  34.769   6.897
 3686POPC   C4A49758  19.462  34.966   7.294
 3686POPC   C1B49759  19.959  34.276   6.276
 3686POPC   C2B49760  20.074  34.491   6.722
 3686POPC   C3B49761  19.897  34.562   7.161
 3686POPC   C4B49762  19.996  34.391   7.582
 3687POPC   NC349763  38.149  36.885   5.464
 3687POPC   PO449764  38.812  37.136   5.507
 3687POPC   GL149765  38.533  36.955   5.791
 3687POPC   GL249766  38.545  36.603   5.790
 3687POPC   C1A49767  38.368  36.893   6.193
 3687POPC   D2A49768  38.635  36.951   6.567
 3687POPC   C3A49769  38.408  37.050   6.892
 3687POPC   C4A49770  38.356  36.947   7.318
 3687POPC   C1B49771  38.747  36.551   6.228
 3687POPC   C2B49772  38.842  36.497   6.695
 3687POPC   C3B49773  38.847  36.783   7.057
 3687POPC   C4B49774  38.748  36.755   7.551
 3688POPC   NC349775   6.015  22.863   5.398
 3688POPC   PO449776   5.647  23.404   5.552
 3688POPC   GL149777   5.729  23.023   5.813
 3688POPC   GL249778   5.598  22.673   5.723
 3688POPC   C1A49779   6.010  22.860   6.158
 3688POPC   D2A49780   5.942  22.931   6.611
 3688POPC   C3A49781   6.053  23.059   7.036
 3688POPC   C4A49782   6.034  22.665   7.266
 3688POPC   C1B49783   5.566  22.574   6.181
 3688POPC   C2B49784   5.478  22.684   6.628
 3688POPC   C3B49785   5.566  22.919   7.019
 3688POPC   C4B49786   5.524  23.318   7.233
 3689POPC   NC349787   6.898  43.785   5.515
 3689POPC   PO449788   7.476  44.102   5.558
 3689POPC   GL149789   7.275  43.824   5.869
 3689POPC   GL249790   7.102  43.499   5.887
 3689POPC   C1A49791   7.140  43.930   6.273
 3689POPC   D2A49792   7.155  44.246   6.567
 3689POPC   C3A49793   7.153  44.100   6.982
 3689POPC   C4A49794   7.502  43.890   7.154
 3689POPC   C1B49795   7.136  43.428   6.322
 3689POPC   C2B49796   7.077  43.614   6.732
 3689POPC   C3B49797   7.198  43.446   7.134
 3689POPC   C4B49798   7.179  43.646   7.512
 3690POPC   NC349799  26.294  25.944   5.626
 3690POPC   PO449800  26.757  25.671   5.194
 3690POPC   GL149801  26.796  25.645   5.714
 3690POPC   GL249802  26.523  25.722   6.004
 3690POPC   C1A49803  26.983  25.662   6.182
 3690POPC   D2A49804  27.054  25.989   6.533
 3690POPC   C3A49805  26.981  26.122   6.978
 3690POPC   C4A49806  26.808  25.835   7.279
 3690POPC   C1B49807  26.701  26.142   6.182
 3690POPC   C2B49808  26.716  26.395   6.577
 3690POPC   C3B49809  26.520  26.385   6.959
 3690POPC   C4B49810  26.569  26.273   7.380
 3691POPC   NC349811  40.572  18.831   5.192
 3691POPC   PO449812  40.648  19.453   5.451
 3691POPC   GL149813  40.795  19.199   5.816
 3691POPC   GL249814  40.907  18.832   5.690
 3691POPC   C1A49815  40.615  19.258   6.253
 3691POPC   D2A49816  40.362  19.319   6.633
 3691POPC   C3A49817  40.657  19.237   6.954
 3691POPC   C4A49818  41.103  19.136   7.014
 3691POPC   C1B49819  40.854  18.800   6.153
 3691POPC   C2B49820  40.879  18.929   6.591
 3691POPC   C3B49821  40.784  18.728   7.003
 3691POPC   C4B49822  40.434  18.612   7.238
 3692POPC   NC349823  15.770   0.848   5.351
 3692POPC   PO449824  16.307   0.467   5.450
 3692POPC   GL149825  16.128   0.389   5.828
 3692POPC   GL249826  15.813   0.529   5.761
 3692POPC   C1A49827  16.093   0.255   6.264
 3692POPC   D2A49828  15.960   0.470   6.652
 3692POPC   C3A49829  15.966   0.303   7.073
 3692POPC   C4A49830  16.115   0.499   7.444
 3692POPC   C1B49831  15.649   0.501   6.161
 3692POPC   C2B49832  15.632   0.791   6.434
 3692POPC   C3B49833  15.697   0.880   6.847
 3692POPC   C4B49834  15.739   0.761   7.245
 3693POPC   NC349835   6.346  27.436   5.190
 3693POPC   PO449836   6.965  27.452   5.339
 3693POPC   GL149837   6.656  27.540   5.707
 3693POPC   GL249838   6.829  27.722   5.977
 3693POPC   C1A49839   6.397  27.511   6.140
 3693POPC   D2A49840   6.428  27.288   6.566
 3693POPC   C3A49841   6.384  27.541   6.947
 3693POPC   C4A49842   6.657  27.863   7.070
 3693POPC   C1B49843   6.870  27.463   6.363
 3693POPC   C2B49844   6.866  27.414   6.829
 3693POPC   C3B49845   7.060  27.541   7.219
 3693POPC   C4B49846   7.084  27.469   7.680
 3694POPC   NC349847  39.195  26.346   5.517
 3694POPC   PO449848  39.010  25.740   5.315
 3694POPC   GL149849  38.992  25.910   5.734
 3694POPC   GL249850  39.347  25.977   5.833
 3694POPC   C1A49851  38.956  26.018   6.179
 3694POPC   D2A49852  39.088  25.840   6.567
 3694POPC   C3A49853  39.075  25.979   6.962
 3694POPC   C4A49854  39.326  25.917   7.322
 3694POPC   C1B49855  39.466  26.047   6.267
 3694POPC   C2B49856  39.589  26.118   6.696
 3694POPC   C3B49857  39.748  26.158   7.143
 3694POPC   C4B49858  39.513  26.390   7.513
 3695POPC   NC349859  18.665  44.897   5.317
 3695POPC   PO449860  19.293  44.731   5.511
 3695POPC   GL149861  18.953  44.589   5.781
 3695POPC   GL249862  19.226  44.611   6.035
 3695POPC   C1A49863  18.740  44.567   6.194
 3695POPC   D2A49864  19.026  44.705   6.523
 3695POPC   C3A49865  18.916  44.777   6.935
 3695POPC   C4A49866  18.838  44.544   7.274
 3695POPC   C1B49867  19.498  44.546   6.426
 3695POPC   C2B49868  19.394  44.300   6.819
 3695POPC   C3B49869  19.354  44.376   7.283
 3695POPC   C4B49870  19.603  44.425   7.687
 3696POPC   NC349871   1.844  42.731   5.340
 3696POPC   PO449872   2.006  43.440   5.433
 3696POPC   GL149873   2.030  43.080   5.708
 3696POPC   GL249874   1.716  42.949   5.780
 3696POPC   C1A49875   2.092  43.093   6.166
 3696POPC   D2A49876   2.366  43.147   6.543
 3696POPC   C3A49877   2.159  43.116   6.961
 3696POPC   C4A49878   2.014  43.238   7.380
 3696POPC   C1B49879   1.699  42.763   6.189
 3696POPC   C2B49880   1.869  42.876   6.602
 3696POPC   C3B49881   1.777  42.764   7.050
 3696POPC   C4B49882   1.672  42.894   7.492
 3697POPC   NC349883   3.588  12.518   5.353
 3697POPC   PO449884   3.765  13.179   5.206
 3697POPC   GL149885   3.779  13.217   5.686
 3697POPC   GL249886   3.448  13.179   5.758
 3697POPC   C1A49887   3.844  12.996   6.124
 3697POPC   D2A49888   3.923  12.802   6.569
 3697POPC   C3A49889   3.553  12.765   6.879
 3697POPC   C4A49890   3.243  12.605   7.201
 3697POPC   C1B49891   3.463  13.345   6.196
 3697POPC   C2B49892   3.579  13.224   6.616
 3697POPC   C3B49893   3.330  13.224   7.007
 3697POPC   C4B49894   3.300  13.387   7.405
 3698POPC   NC349895  38.292  31.488   5.191
 3698POPC   PO449896  38.843  31.238   5.386
 3698POPC   GL149897  38.513  31.331   5.708
 3698POPC   GL249898  38.393  31.646   5.687
 3698POPC   C1A49899  38.431  31.351   6.197
 3698POPC   D2A49900  38.759  31.434   6.511
 3698POPC   C3A49901  38.664  31.575   6.916
 3698POPC   C4A49902  38.405  31.480   7.227
 3698POPC   C1B49903  38.469  31.853   6.115
 3698POPC   C2B49904  38.338  31.740   6.540
 3698POPC   C3B49905  38.256  31.890   6.946
 3698POPC   C4B49906  38.355  31.961   7.381
 3699POPC   NC349907  31.708  20.065   5.380
 3699POPC   PO449908  31.096  19.891   5.615
 3699POPC   GL149909  31.341  19.595   5.826
 3699POPC   GL249910  31.675  19.719   5.789
 3699POPC   C1A49911  31.446  19.560   6.240
 3699POPC   D2A49912  31.669  19.673   6.587
 3699POPC   C3A49913  31.461  19.483   6.924
 3699POPC   C4A49914  31.198  19.671   7.203
 3699POPC   C1B49915  31.597  20.053   6.123
 3699POPC   C2B49916  31.658  20.210   6.575
 3699POPC   C3B49917  31.518  20.104   7.024
 3699POPC   C4B49918  31.325  20.107   7.455
 3700POPC   NC349919   3.588  38.364   5.414
 3700POPC   PO449920   3.024  38.757   5.448
 3700POPC   GL149921   3.282  38.789   5.818
 3700POPC   GL249922   3.650  38.852   5.697
 3700POPC   C1A49923   3.224  38.628   6.263
 3700POPC   D2A49924   3.291  38.360   6.660
 3700POPC   C3A49925   3.723  38.270   6.843
 3700POPC   C4A49926   3.878  38.117   7.259
 3700POPC   C1B49927   3.675  38.879   6.154
 3700POPC   C2B49928   3.530  38.911   6.590
 3700POPC   C3B49929   3.426  38.746   6.965
 3700POPC   C4B49930   3.750  38.614   7.240
 3701POPC   NC349931  24.752   1.891   5.288
 3701POPC   PO449932  24.937   2.422   5.539
 3701POPC   GL149933  24.704   2.122   5.769
 3701POPC   GL249934  24.570   2.336   6.026
 3701POPC   C1A49935  24.684   1.786   6.077
 3701POPC   D2A49936  24.815   1.733   6.536
 3701POPC   C3A49937  24.617   1.970   6.896
 3701POPC   C4A49938  24.558   2.237   7.280
 3701POPC   C1B49939  24.450   2.109   6.419
 3701POPC   C2B49940  24.126   2.030   6.764
 3701POPC   C3B49941  24.061   2.035   7.225
 3701POPC   C4B49942  24.149   2.259   7.623
 3702POPC   NC349943  21.812  41.453   5.590
 3702POPC   PO449944  22.349  41.829   5.374
 3702POPC   GL149945  22.229  41.682   5.774
 3702POPC   GL249946  22.399  41.889   5.986
 3702POPC   C1A49947  21.962  41.626   6.166
 3702POPC   D2A49948  21.823  41.642   6.554
 3702POPC   C3A49949  21.933  41.338   6.827
 3702POPC   C4A49950  21.903  41.507   7.229
 3702POPC   C1B49951  22.430  41.479   6.230
 3702POPC   C2B49952  22.443  41.274   6.630
 3702POPC   C3B49953  22.412  41.436   7.028
 3702POPC   C4B49954  22.460  41.842   7.143
 3703POPC   NC349955   8.317  34.933   5.354
 3703POPC   PO449956   8.419  34.283   5.335
 3703POPC   GL149957   8.342  34.504   5.712
 3703POPC   GL249958   8.041  34.761   5.749
 3703POPC   C1A49959   8.213  34.387   6.119
 3703POPC   D2A49960   8.228  34.543   6.539
 3703POPC   C3A49961   8.400  34.326   6.917
 3703POPC   C4A49962   8.272  34.293   7.366
 3703POPC   C1B49963   8.342  34.898   6.056
 3703POPC   C2B49964   8.441  35.003   6.493
 3703POPC   C3B49965   8.539  34.805   6.877
 3703POPC   C4B49966   8.743  34.837   7.233
 3704POPC   NC349967  14.120  27.092   5.298
 3704POPC   PO449968  13.476  27.032   5.483
 3704POPC   GL149969  13.628  26.938   5.885
 3704POPC   GL249970  13.879  27.160   5.942
 3704POPC   C1A49971  13.756  26.617   6.178
 3704POPC   D2A49972  13.780  26.364   6.554
 3704POPC   C3A49973  13.679  26.643   6.890
 3704POPC   C4A49974  13.946  26.831   7.179
 3704POPC   C1B49975  13.657  27.239   6.303
 3704POPC   C2B49976  13.465  26.994   6.589
 3704POPC   C3B49977  13.420  27.158   6.971
 3704POPC   C4B49978  13.696  27.280   7.233
 3705POPC   NC349979  14.975  35.683   5.539
 3705POPC   PO449980  15.165  35.084   5.444
 3705POPC   GL149981  15.404  35.162   5.795
 3705POPC   GL249982  15.400  35.515   5.795
 3705POPC   C1A49983  15.267  35.207   6.223
 3705POPC   D2A49984  15.102  35.233   6.643
 3705POPC   C3A49985  15.355  35.372   6.974
 3705POPC   C4A49986  15.306  35.229   7.381
 3705POPC   C1B49987  15.408  35.709   6.197
 3705POPC   C2B49988  15.197  35.735   6.573
 3705POPC   C3B49989  15.077  35.797   6.979
 3705POPC   C4B49990  15.339  35.776   7.294
 3706POPC   NC349991  33.480  28.185   5.299
 3706POPC   PO449992  33.655  28.700   5.375
 3706POPC   GL149993  33.736  28.532   5.795
 3706POPC   GL249994  33.622  28.180   5.832
 3706POPC   C1A49995  33.811  28.430   6.243
 3706POPC   D2A49996  33.683  28.371   6.643
 3706POPC   C3A49997  33.934  28.454   6.985
 3706POPC   C4A49998  34.222  28.525   7.308
 3706POPC   C1B49999  33.438  28.064   6.255
 3706POPC   C2B50000  33.544  27.879   6.662
 3706POPC   C3B50001  33.532  28.113   7.059
 3706POPC   C4B50002  33.439  28.568   7.077
 3707POPC   NC350003  38.724   7.586   5.332
 3707POPC   PO450004  38.355   7.092   5.589
 3707POPC   GL150005  38.382   7.466   5.798
 3707POPC   GL250006  38.707   7.615   5.866
 3707POPC   C1A50007  38.255   7.513   6.228
 3707POPC   D2A50008  38.323   7.732   6.600
 3707POPC   C3A50009  38.198   7.499   6.951
 3707POPC   C4A50010  37.936   7.647   7.278
 3707POPC   C1B50011  38.706   7.244   6.154
 3707POPC   C2B50012  38.586   7.245   6.595
 3707POPC   C3B50013  38.716   7.535   6.905
 3707POPC   C4B50014  38.578   7.653   7.297
 3708POPC   NC350015   2.723  36.324   5.498
 3708POPC   PO450016   2.977  35.645   5.516
 3708POPC   GL150017   2.840  35.916   5.820
 3708POPC   GL250018   2.494  35.908   5.833
 3708POPC   C1A50019   2.762  36.219   6.167
 3708POPC   D2A50020   3.007  36.404   6.520
 3708POPC   C3A50021   3.004  36.076   6.812
 3708POPC   C4A50022   2.776  36.156   7.153
 3708POPC   C1B50023   2.335  35.852   6.207
 3708POPC   C2B50024   2.545  35.933   6.580
 3708POPC   C3B50025   2.301  35.836   6.897
 3708POPC   C4B50026   2.266  36.097   7.203
 3709POPC   NC350027  29.753  10.455   5.348
 3709POPC   PO450028  30.273  10.900   5.395
 3709POPC   GL150029  30.016  10.675   5.725
 3709POPC   GL250030  29.644  10.718   5.795
 3709POPC   C1A50031  30.016  10.529   6.142
 3709POPC   D2A50032  29.796  10.522   6.529
 3709POPC   C3A50033  29.994  10.556   6.949
 3709POPC   C4A50034  30.086  10.335   7.334
 3709POPC   C1B50035  29.458  10.427   6.118
 3709POPC   C2B50036  29.366  10.240   6.538
 3709POPC   C3B50037  29.455  10.516   6.910
 3709POPC   C4B50038  29.591  10.504   7.340
 3710POPC   NC350039   3.863  37.689   5.194
 3710POPC   PO450040   3.281  37.994   5.324
 3710POPC   GL150041   3.412  37.673   5.659
 3710POPC   GL250042   3.773  37.733   5.713
 3710POPC   C1A50043   3.488  37.639   6.143
 3710POPC   D2A50044   3.500  37.896   6.538
 3710POPC   C3A50045   3.353  37.790   6.972
 3710POPC   C4A50046   3.206  37.879   7.446
 3710POPC   C1B50047   3.975  37.924   6.085
 3710POPC   C2B50048   4.027  37.769   6.504
 3710POPC   C3B50049   3.850  37.752   6.901
 3710POPC   C4B50050   3.685  37.657   7.315
 3711POPC   NC350051  39.258  34.143   5.449
 3711POPC   PO450052  39.005  33.531   5.595
 3711POPC   GL150053  39.016  33.846   5.840
 3711POPC   GL250054  39.362  33.878   5.872
 3711POPC   C1A50055  39.012  33.759   6.267
 3711POPC   D2A50056  39.245  33.918   6.596
 3711POPC   C3A50057  39.045  33.752   6.912
 3711POPC   C4A50058  39.066  33.768   7.327
 3711POPC   C1B50059  39.631  34.031   6.242
 3711POPC   C2B50060  39.710  34.139   6.703
 3711POPC   C3B50061  39.427  34.175   7.068
 3711POPC   C4B50062  39.451  34.089   7.540
 3712POPC   NC350063  28.332  35.151   5.388
 3712POPC   PO450064  28.149  35.805   5.292
 3712POPC   GL150065  28.288  35.571   5.727
 3712POPC   GL250066  28.608  35.367   5.799
 3712POPC   C1A50067  28.384  35.627   6.211
 3712POPC   D2A50068  28.598  35.776   6.625
 3712POPC   C3A50069  28.485  35.510   6.989
 3712POPC   C4A50070  28.074  35.368   7.154
 3712POPC   C1B50071  28.748  35.002   6.104
 3712POPC   C2B50072  28.601  34.801   6.517
 3712POPC   C3B50073  28.456  34.978   6.934
 3712POPC   C4B50074  28.621  35.051   7.353
 3713POPC   NC350075   7.692  41.806   5.348
 3713POPC   PO450076   7.347  41.249   5.515
 3713POPC   GL150077   7.324  41.436   5.893
 3713POPC   GL250078   7.395  41.758   5.817
 3713POPC   C1A50079   7.108  41.344   6.268
 3713POPC   D2A50080   7.008  41.311   6.689
 3713POPC   C3A50081   7.156  41.704   6.835
 3713POPC   C4A50082   7.393  41.558   7.157
 3713POPC   C1B50083   7.303  41.831   6.261
 3713POPC   C2B50084   7.618  41.943   6.582
 3713POPC   C3B50085   7.762  41.895   7.009
 3713POPC   C4B50086   7.502  41.986   7.370
 3714POPC   NC350087  37.445  27.934   5.454
 3714POPC   PO450088  37.627  28.615   5.343
 3714POPC   GL150089  37.611  28.366   5.744
 3714POPC   GL250090  37.869  28.113   5.762
 3714POPC   C1A50091  37.872  28.444   6.151
 3714POPC   D2A50092  37.839  28.288   6.569
 3714POPC   C3A50093  37.864  28.536   6.923
 3714POPC   C4A50094  37.818  28.483   7.343
 3714POPC   C1B50095  37.650  27.973   6.160
 3714POPC   C2B50096  37.504  27.925   6.614
 3714POPC   C3B50097  37.717  28.026   7.057
 3714POPC   C4B50098  37.509  28.085   7.499
 3715POPC   NC350099  44.991  34.478   5.690
 3715POPC   PO450100   0.587  34.622   5.376
 3715POPC   GL150101   0.556  34.694   5.796
 3715POPC   GL250102   0.301  34.942   5.790
 3715POPC   C1A50103   0.435  34.540   6.205
 3715POPC   D2A50104   0.573  34.247   6.549
 3715POPC   C3A50105   0.516  34.395   6.981
 3715POPC   C4A50106   0.114  34.407   7.182
 3715POPC   C1B50107   0.481  35.048   6.211
 3715POPC   C2B50108   0.606  34.824   6.582
 3715POPC   C3B50109   0.415  34.903   6.953
 3715POPC   C4B50110   0.535  34.858   7.351
 3716POPC   NC350111  37.708  18.162   5.383
 3716POPC   PO450112  37.089  17.985   5.155
 3716POPC   GL150113  37.242  17.966   5.713
 3716POPC   GL250114  37.585  18.150   5.861
 3716POPC   C1A50115  37.268  18.113   6.230
 3716POPC   D2A50116  37.452  18.397   6.580
 3716POPC   C3A50117  37.613  18.486   7.019
 3716POPC   C4A50118  37.420  18.391   7.428
 3716POPC   C1B50119  37.830  18.367   6.218
 3716POPC   C2B50120  37.985  18.388   6.676
 3716POPC   C3B50121  38.091  18.163   7.063
 3716POPC   C4B50122  37.894  18.209   7.453
 3717POPC   NC350123  27.462  22.686   5.535
 3717POPC   PO450124  27.703  23.201   5.132
 3717POPC   GL150125  27.702  23.146   5.652
 3717POPC   GL250126  27.463  22.981   5.932
 3717POPC   C1A50127  27.870  23.198   6.112
 3717POPC   D2A50128  27.547  23.232   6.451
 3717POPC   C3A50129  27.619  23.244   6.931
 3717POPC   C4A50130  27.815  23.061   7.332
 3717POPC   C1B50131  27.485  22.743   6.312
 3717POPC   C2B50132  27.347  22.854   6.729
 3717POPC   C3B50133  27.439  22.749   7.173
 3717POPC   C4B50134  27.516  22.574   7.606
 3718POPC   NC350135  36.563  40.352   5.351
 3718POPC   PO450136  35.886  40.069   5.310
 3718POPC   GL150137  36.147  39.998   5.726
 3718POPC   GL250138  36.430  40.221   5.816
 3718POPC   C1A50139  36.136  39.840   6.184
 3718POPC   D2A50140  36.318  39.881   6.608
 3718POPC   C3A50141  36.109  39.795   7.005
 3718POPC   C4A50142  35.908  40.068   7.288
 3718POPC   C1B50143  36.429  40.551   6.128
 3718POPC   C2B50144  36.238  40.576   6.530
 3718POPC   C3B50145  36.197  40.313   6.908
 3718POPC   C4B50146  36.339  40.289   7.344
 3719POPC   NC350147  43.017   7.055   5.278
 3719POPC   PO450148  43.371   6.546   5.199
 3719POPC   GL150149  43.226   6.644   5.620
 3719POPC   GL250150  42.865   6.683   5.683
 3719POPC   C1A50151  43.232   6.404   6.018
 3719POPC   D2A50152  43.136   6.448   6.476
 3719POPC   C3A50153  43.275   6.695   6.854
 3719POPC   C4A50154  43.256   6.412   7.230
 3719POPC   C1B50155  42.724   6.482   6.088
 3719POPC   C2B50156  42.592   6.439   6.516
 3719POPC   C3B50157  42.823   6.473   6.905
 3719POPC   C4B50158  42.899   6.756   7.248
 3720POPC   NC350159  27.944  15.108   5.558
 3720POPC   PO450160  27.416  15.264   5.192
 3720POPC   GL150161  27.477  15.141   5.711
 3720POPC   GL250162  27.738  15.288   5.980
 3720POPC   C1A50163  27.452  14.898   6.126
 3720POPC   D2A50164  27.325  14.900   6.550
 3720POPC   C3A50165  27.501  15.135   6.893
 3720POPC   C4A50166  27.536  15.128   7.335
 3720POPC   C1B50167  28.003  14.986   6.246
 3720POPC   C2B50168  28.035  14.816   6.692
 3720POPC   C3B50169  27.978  15.070   7.067
 3720POPC   C4B50170  27.798  15.523   7.134
 3721POPC   NC350171  36.934   6.167   5.452
 3721POPC   PO450172  36.562   5.668   5.391
 3721POPC   GL150173  36.694   5.897   5.825
 3721POPC   GL250174  37.071   5.924   5.884
 3721POPC   C1A50175  36.778   6.201   6.215
 3721POPC   D2A50176  36.704   6.281   6.691
 3721POPC   C3A50177  37.000   6.081   7.025
 3721POPC   C4A50178  36.833   5.736   7.324
 3721POPC   C1B50179  37.170   5.838   6.329
 3721POPC   C2B50180  37.438   5.685   6.677
 3721POPC   C3B50181  37.296   5.629   7.108
 3721POPC   C4B50182  37.352   5.805   7.503
 3722POPC   NC350183   6.365   6.529   5.412
 3722POPC   PO450184   6.958   6.312   5.336
 3722POPC   GL150185   6.738   6.384   5.746
 3722POPC   GL250186   6.622   6.754   5.844
 3722POPC   C1A50187   6.870   6.429   6.176
 3722POPC   D2A50188   6.851   6.707   6.525
 3722POPC   C3A50189   6.937   6.629   6.962
 3722POPC   C4A50190   6.969   6.931   7.302
 3722POPC   C1B50191   6.413   6.625   6.268
 3722POPC   C2B50192   6.415   6.672   6.748
 3722POPC   C3B50193   6.468   6.760   7.206
 3722POPC   C4B50194   6.241   6.551   7.621
 3723POPC   NC350195  38.891  26.921   5.415
 3723POPC   PO450196  38.196  27.064   5.452
 3723POPC   GL150197  38.419  27.061   5.813
 3723POPC   GL250198  38.497  26.718   5.808
 3723POPC   C1A50199  38.408  26.913   6.253
 3723POPC   D2A50200  38.634  26.711   6.587
 3723POPC   C3A50201  38.475  26.854   6.969
 3723POPC   C4A50202  38.669  26.967   7.345
 3723POPC   C1B50203  38.622  26.424   6.153
 3723POPC   C2B50204  38.639  26.186   6.553
 3723POPC   C3B50205  38.633  26.336   6.980
 3723POPC   C4B50206  38.333  26.496   7.301
 3724POPC   NC350207  30.869  11.488   5.015
 3724POPC   PO450208  30.220  11.454   5.056
 3724POPC   GL150209  30.389  11.368   5.546
 3724POPC   GL250210  30.759  11.362   5.658
 3724POPC   C1A50211  30.420  11.358   6.034
 3724POPC   D2A50212  30.729  11.512   6.368
 3724POPC   C3A50213  30.669  11.345   6.787
 3724POPC   C4A50214  30.492  11.166   7.167
 3724POPC   C1B50215  30.949  11.154   6.075
 3724POPC   C2B50216  31.080  10.939   6.523
 3724POPC   C3B50217  30.978  10.980   7.001
 3724POPC   C4B50218  30.954  11.411   7.218
 3725POPC   NC350219  27.017  12.328   5.447
 3725POPC   PO450220  26.490  11.890   5.248
 3725POPC   GL150221  26.667  12.045   5.676
 3725POPC   GL250222  27.032  11.978   5.812
 3725POPC   C1A50223  26.681  12.127   6.145
 3725POPC   D2A50224  27.007  12.232   6.470
 3725POPC   C3A50225  26.877  12.360   6.889
 3725POPC   C4A50226  26.610  12.090   7.133
 3725POPC   C1B50227  27.109  11.641   6.112
 3725POPC   C2B50228  27.232  11.780   6.520
 3725POPC   C3B50229  26.958  11.862   6.843
 3725POPC   C4B50230  27.108  11.933   7.262
 3726POPC   NC350231  32.489  41.746   5.425
 3726POPC   PO450232  32.115  41.218   5.592
 3726POPC   GL150233  32.196  41.405   6.002
 3726POPC   GL250234  32.292  41.736   5.901
 3726POPC   C1A50235  32.032  41.728   6.331
 3726POPC   D2A50236  32.085  41.783   6.760
 3726POPC   C3A50237  32.229  41.380   6.909
 3726POPC   C4A50238  32.249  41.359   7.317
 3726POPC   C1B50239  32.564  41.653   6.278
 3726POPC   C2B50240  32.615  41.661   6.738
 3726POPC   C3B50241  32.557  41.756   7.155
 3726POPC   C4B50242  32.799  42.110   7.159
 3727POPC   NC350243  29.931  11.175   5.265
 3727POPC   PO450244  29.654  11.730   5.447
 3727POPC   GL150245  29.947  11.544   5.761
 3727POPC   GL250246  29.934  11.182   5.779
 3727POPC   C1A50247  29.958  11.516   6.215
 3727POPC   D2A50248  30.243  11.538   6.541
 3727POPC   C3A50249  30.131  11.418   6.929
 3727POPC   C4A50250  29.927  11.497   7.299
 3727POPC   C1B50251  29.841  11.007   6.189
 3727POPC   C2B50252  30.006  11.013   6.622
 3727POPC   C3B50253  29.814  11.028   7.037
 3727POPC   C4B50254  29.616  11.035   7.418
 3728POPC   NC350255  19.423   9.935   5.474
 3728POPC   PO450256  19.020   9.532   5.170
 3728POPC   GL150257  19.144   9.554   5.658
 3728POPC   GL250258  18.927   9.378   5.814
 3728POPC   C1A50259  19.076   9.757   6.126
 3728POPC   D2A50260  18.925   9.669   6.557
 3728POPC   C3A50261  18.845  10.001   6.856
 3728POPC   C4A50262  18.922  10.037   7.291
 3728POPC   C1B50263  18.879   9.262   6.240
 3728POPC   C2B50264  18.649   9.206   6.623
 3728POPC   C3B50265  18.764   9.386   6.980
 3728POPC   C4B50266  19.137   9.640   7.059
 3729POPC   NC350267  38.163  38.550   5.427
 3729POPC   PO450268  38.283  37.976   5.628
 3729POPC   GL150269  38.324  38.364   5.889
 3729POPC   GL250270  38.509  38.682   5.802
 3729POPC   C1A50271  38.225  38.587   6.273
 3729POPC   D2A50272  38.204  38.837   6.665
 3729POPC   C3A50273  38.109  38.542   7.020
 3729POPC   C4A50274  38.388  38.318   7.325
 3729POPC   C1B50275  38.739  38.546   6.206
 3729POPC   C2B50276  38.614  38.510   6.668
 3729POPC   C3B50277  38.586  38.756   7.079
 3729POPC   C4B50278  38.604  38.846   7.545
 3730POPC   NC350279  23.282  20.404   5.663
 3730POPC   PO450280  23.127  21.034   5.489
 3730POPC   GL150281  22.919  20.979   5.889
 3730POPC   GL250282  22.881  20.645   5.936
 3730POPC   C1A50283  22.818  21.063   6.336
 3730POPC   D2A50284  23.070  21.039   6.743
 3730POPC   C3A50285  22.864  20.924   7.155
 3730POPC   C4A50286  22.823  20.472   7.321
 3730POPC   C1B50287  23.138  20.676   6.313
 3730POPC   C2B50288  23.090  20.529   6.754
 3730POPC   C3B50289  23.285  20.636   7.147
 3730POPC   C4B50290  23.469  20.993   7.361
 3731POPC   NC350291   6.171   8.009   5.175
 3731POPC   PO450292   5.690   8.447   5.216
 3731POPC   GL150293   5.805   8.322   5.669
 3731POPC   GL250294   6.155   8.162   5.689
 3731POPC   C1A50295   5.726   8.254   6.137
 3731POPC   D2A50296   6.002   8.299   6.529
 3731POPC   C3A50297   5.760   8.182   6.897
 3731POPC   C4A50298   5.368   8.338   7.053
 3731POPC   C1B50299   6.179   8.020   6.120
 3731POPC   C2B50300   6.132   7.801   6.538
 3731POPC   C3B50301   6.223   7.918   6.917
 3731POPC   C4B50302   6.004   7.968   7.278
 3732POPC   NC350303  13.267  43.211   5.323
 3732POPC   PO450304  13.879  42.853   5.496
 3732POPC   GL150305  13.622  43.131   5.751
 3732POPC   GL250306  13.571  42.828   5.918
 3732POPC   C1A50307  13.670  43.223   6.220
 3732POPC   D2A50308  13.872  43.045   6.602
 3732POPC   C3A50309  13.588  43.049   6.915
 3732POPC   C4A50310  13.590  43.418   7.094
 3732POPC   C1B50311  13.915  42.735   6.203
 3732POPC   C2B50312  13.937  42.525   6.636
 3732POPC   C3B50313  13.983  42.749   7.057
 3732POPC   C4B50314  13.997  43.125   7.335
 3733POPC   NC350315  38.546  30.856   5.303
 3733POPC   PO450316  38.194  30.312   5.415
 3733POPC   GL150317  38.421  30.548   5.724
 3733POPC   GL250318  38.267  30.881   5.719
 3733POPC   C1A50319  38.429  30.519   6.197
 3733POPC   D2A50320  38.152  30.433   6.546
 3733POPC   C3A50321  38.316  30.581   6.935
 3733POPC   C4A50322  38.612  30.457   7.214
 3733POPC   C1B50323  38.623  30.935   6.013
 3733POPC   C2B50324  38.683  30.914   6.487
 3733POPC   C3B50325  38.528  31.063   6.908
 3733POPC   C4B50326  38.255  30.999   7.297
 3734POPC   NC350327  33.948  36.048   5.443
 3734POPC   PO450328  33.546  36.533   5.530
 3734POPC   GL150329  33.693  36.269   5.868
 3734POPC   GL250330  33.609  35.936   5.818
 3734POPC   C1A50331  33.891  36.073   6.253
 3734POPC   D2A50332  34.117  36.076   6.645
 3734POPC   C3A50333  33.987  36.112   7.067
 3734POPC   C4A50334  33.746  36.481   7.185
 3734POPC   C1B50335  33.371  36.065   6.230
 3734POPC   C2B50336  33.419  36.163   6.695
 3734POPC   C3B50337  33.492  36.029   7.139
 3734POPC   C4B50338  33.659  36.172   7.574
 3735POPC   NC350339  25.626  13.720   5.519
 3735POPC   PO450340  26.156  13.513   5.252
 3735POPC   GL150341  26.031  13.473   5.710
 3735POPC   GL250342  26.072  13.789   5.906
 3735POPC   C1A50343  26.079  13.386   6.176
 3735POPC   D2A50344  26.175  13.683   6.506
 3735POPC   C3A50345  26.117  13.578   6.909
 3735POPC   C4A50346  25.867  13.353   7.201
 3735POPC   C1B50347  25.763  13.802   6.242
 3735POPC   C2B50348  25.605  13.736   6.686
 3735POPC   C3B50349  25.741  13.856   7.119
 3735POPC   C4B50350  25.727  13.729   7.590
 3736POPC   NC350351  33.577  13.301   5.490
 3736POPC   PO450352  33.981  13.868   5.070
 3736POPC   GL150353  33.963  13.737   5.594
 3736POPC   GL250354  33.789  13.535   5.869
 3736POPC   C1A50355  34.039  13.896   6.077
 3736POPC   D2A50356  34.007  13.577   6.438
 3736POPC   C3A50357  33.871  13.511   6.887
 3736POPC   C4A50358  33.872  13.772   7.262
 3736POPC   C1B50359  33.545  13.694   6.207
 3736POPC   C2B50360  33.592  13.874   6.623
 3736POPC   C3B50361  33.378  13.809   7.008
 3736POPC   C4B50362  33.458  13.476   7.274
 3737POPC   NC350363  20.113  14.889   5.071
 3737POPC   PO450364  19.716  15.224   5.526
 3737POPC   GL150365  19.832  15.202   5.921
 3737POPC   GL250366  20.131  15.358   5.877
 3737POPC   C1A50367  19.733  15.291   6.331
 3737POPC   D2A50368  19.704  15.038   6.684
 3737POPC   C3A50369  19.766  15.253   7.040
 3737POPC   C4A50370  19.614  15.626   7.170
 3737POPC   C1B50371  20.213  15.153   6.283
 3737POPC   C2B50372  20.192  15.144   6.727
 3737POPC   C3B50373  20.241  15.158   7.139
 3737POPC   C4B50374  20.340  15.481   7.396
 3738POPC   NC350375  22.955  28.660   5.469
 3738POPC   PO450376  22.877  29.280   5.244
 3738POPC   GL150377  22.934  29.293   5.737
 3738POPC   GL250378  23.028  28.975   5.885
 3738POPC   C1A50379  22.946  29.408   6.211
 3738POPC   D2A50380  23.086  29.244   6.632
 3738POPC   C3A50381  22.945  29.449   7.041
 3738POPC   C4A50382  22.987  29.298   7.495
 3738POPC   C1B50383  22.738  28.961   6.251
 3738POPC   C2B50384  22.596  29.120   6.680
 3738POPC   C3B50385  22.676  29.014   7.142
 3738POPC   C4B50386  22.801  28.724   7.483
 3739POPC   NC350387  15.858   9.893   5.353
 3739POPC   PO450388  16.254   9.400   5.379
 3739POPC   GL150389  15.984   9.551   5.727
 3739POPC   GL250390  16.200   9.854   5.806
 3739POPC   C1A50391  15.898   9.646   6.155
 3739POPC   D2A50392  16.153   9.552   6.500
 3739POPC   C3A50393  16.033   9.505   6.911
 3739POPC   C4A50394  16.112   9.786   7.227
 3739POPC   C1B50395  16.231  10.018   6.286
 3739POPC   C2B50396  16.061  10.035   6.748
 3739POPC   C3B50397  15.760  10.146   7.132
 3739POPC   C4B50398  15.775  10.218   7.614
 3740POPC   NC350399  41.909  33.978   5.083
 3740POPC   PO450400  41.369  33.881   5.369
 3740POPC   GL150401  41.556  33.857   5.762
 3740POPC   GL250402  41.631  34.221   5.723
 3740POPC   C1A50403  41.689  33.517   6.073
 3740POPC   D2A50404  41.687  33.691   6.456
 3740POPC   C3A50405  41.521  33.593   6.830
 3740POPC   C4A50406  41.693  33.619   7.227
 3740POPC   C1B50407  41.537  34.192   6.178
 3740POPC   C2B50408  41.389  34.097   6.599
 3740POPC   C3B50409  41.583  34.131   7.002
 3740POPC   C4B50410  41.717  34.348   7.358
 3741POPC   NC350411  35.985  33.447   5.471
 3741POPC   PO450412  36.482  33.949   5.389
 3741POPC   GL150413  36.223  33.942   5.788
 3741POPC   GL250414  36.209  33.607   5.917
 3741POPC   C1A50415  36.100  34.054   6.223
 3741POPC   D2A50416  36.188  33.691   6.513
 3741POPC   C3A50417  36.146  33.823   6.918
 3741POPC   C4A50418  36.239  33.757   7.334
 3741POPC   C1B50419  35.820  33.646   6.177
 3741POPC   C2B50420  35.676  33.789   6.619
 3741POPC   C3B50421  35.683  33.700   7.097
 3741POPC   C4B50422  35.798  33.959   7.458
 3742POPC   NC350423  33.900  13.247   5.118
 3742POPC   PO450424  33.382  12.712   5.086
 3742POPC   GL150425  33.671  12.792   5.558
 3742POPC   GL250426  33.508  12.632   5.856
 3742POPC   C1A50427  33.707  13.032   6.064
 3742POPC   D2A50428  33.654  13.042   6.531
 3742POPC   C3A50429  33.919  12.723   6.731
 3742POPC   C4A50430  34.092  12.581   7.132
 3742POPC   C1B50431  33.613  12.577   6.275
 3742POPC   C2B50432  33.410  12.565   6.636
 3742POPC   C3B50433  33.567  12.511   7.026
 3742POPC   C4B50434  33.715  12.933   7.186
 3743POPC   NC350435   2.611  21.115   5.019
 3743POPC   PO450436   2.881  21.330   5.584
 3743POPC   GL150437   2.729  21.320   5.949
 3743POPC   GL250438   2.664  21.636   5.975
 3743POPC   C1A50439   2.577  21.084   6.286
 3743POPC   D2A50440   2.611  21.037   6.740
 3743POPC   C3A50441   2.785  21.369   7.024
 3743POPC   C4A50442   3.095  21.717   7.075
 3743POPC   C1B50443   2.781  21.529   6.399
 3743POPC   C2B50444   2.434  21.505   6.658
 3743POPC   C3B50445   2.365  21.680   7.046
 3743POPC   C4B50446   2.488  21.639   7.476
 3744POPC   NC350447  19.099  33.586   5.423
 3744POPC   PO450448  19.343  34.147   5.519
 3744POPC   GL150449  19.142  33.889   5.842
 3744POPC   GL250450  18.773  33.851   5.737
 3744POPC   C1A50451  19.128  33.714   6.265
 3744POPC   D2A50452  19.150  33.821   6.695
 3744POPC   C3A50453  19.020  33.989   7.058
 3744POPC   C4A50454  19.335  33.842   7.362
 3744POPC   C1B50455  18.658  33.903   6.173
 3744POPC   C2B50456  18.697  33.664   6.556
 3744POPC   C3B50457  18.811  33.522   6.994
 3744POPC   C4B50458  18.884  33.660   7.468
 3745POPC   NC350459  25.972  38.235   5.666
 3745POPC   PO450460  26.244  37.738   5.873
 3745POPC   GL150461  26.316  38.185   6.045
 3745POPC   GL250462  26.294  38.562   5.915
 3745POPC   C1A50463  26.191  38.460   6.400
 3745POPC   D2A50464  25.909  38.704   6.668
 3745POPC   C3A50465  26.099  38.698   7.079
 3745POPC   C4A50466  26.253  38.287   7.259
 3745POPC   C1B50467  25.997  38.878   6.169
 3745POPC   C2B50468  25.843  39.194   6.511
 3745POPC   C3B50469  25.785  39.149   6.980
 3745POPC   C4B50470  25.562  38.904   7.325
 3746POPC   NC350471  33.244  38.080   5.555
 3746POPC   PO450472  32.876  37.797   5.078
 3746POPC   GL150473  32.978  37.658   5.572
 3746POPC   GL250474  33.094  37.387   5.810
 3746POPC   C1A50475  32.981  37.780   6.064
 3746POPC   D2A50476  32.985  37.636   6.491
 3746POPC   C3A50477  33.135  37.852   6.844
 3746POPC   C4A50478  33.061  37.759   7.260
 3746POPC   C1B50479  33.360  37.452   6.200
 3746POPC   C2B50480  33.482  37.509   6.655
 3746POPC   C3B50481  33.467  37.458   7.139
 3746POPC   C4B50482  33.541  37.391   7.600
 3747POPC   NC350483   1.040  15.618   5.589
 3747POPC   PO450484   1.092  16.287   5.420
 3747POPC   GL150485   0.943  16.094   5.777
 3747POPC   GL250486   1.312  15.999   5.834
 3747POPC   C1A50487   0.993  15.994   6.224
 3747POPC   D2A50488   1.201  16.075   6.624
 3747POPC   C3A50489   0.978  15.926   6.983
 3747POPC   C4A50490   1.119  15.622   7.286
 3747POPC   C1B50491   1.475  15.817   6.257
 3747POPC   C2B50492   1.620  15.785   6.723
 3747POPC   C3B50493   1.461  16.019   7.098
 3747POPC   C4B50494   1.573  16.302   7.418
 3748POPC   NC350495  27.797  32.800   5.209
 3748POPC   PO450496  27.874  32.115   5.420
 3748POPC   GL150497  27.721  32.174   5.876
 3748POPC   GL250498  28.000  32.094   5.977
 3748POPC   C1A50499  27.514  32.375   6.270
 3748POPC   D2A50500  27.473  32.206   6.718
 3748POPC   C3A50501  27.504  32.468   7.119
 3748POPC   C4A50502  27.282  32.457   7.528
 3748POPC   C1B50503  27.868  32.026   6.391
 3748POPC   C2B50504  27.988  32.032   6.793
 3748POPC   C3B50505  27.755  32.022   7.139
 3748POPC   C4B50506  27.822  32.291   7.518
 3749POPC   NC350507  40.230  30.728   5.423
 3749POPC   PO450508  39.713  30.404   5.502
 3749POPC   GL150509  39.979  30.562   5.861
 3749POPC   GL250510  40.214  30.829   5.919
 3749POPC   C1A50511  40.181  30.486   6.274
 3749POPC   D2A50512  39.990  30.610   6.629
 3749POPC   C3A50513  40.121  30.396   6.942
 3749POPC   C4A50514  39.948  30.389   7.332
 3749POPC   C1B50515  40.017  30.988   6.257
 3749POPC   C2B50516  40.000  31.209   6.598
 3749POPC   C3B50517  39.924  31.045   6.992
 3749POPC   C4B50518  40.223  30.819   7.204
 3750POPC   NC350519  32.096   0.630   5.461
 3750POPC   PO450520  32.670   0.223   5.450
 3750POPC   GL150521  32.438   0.421   5.791
 3750POPC   GL250522  32.435   0.768   5.861
 3750POPC   C1A50523  32.120   0.349   6.109
 3750POPC   D2A50524  31.957   0.160   6.481
 3750POPC   C3A50525  32.176   0.190   6.849
 3750POPC   C4A50526  32.107   0.261   7.261
 3750POPC   C1B50527  32.420   0.718   6.313
 3750POPC   C2B50528  32.356   0.666   6.765
 3750POPC   C3B50529  32.256   0.739   7.177
 3750POPC   C4B50530  32.482   0.637   7.560
 3751POPC   NC350531   8.071   2.844   5.266
 3751POPC   PO450532   8.655   3.004   5.298
 3751POPC   GL150533   8.414   2.631   5.600
 3751POPC   GL250534   8.033   2.496   5.634
 3751POPC   C1A50535   8.334   2.578   6.069
 3751POPC   D2A50536   8.348   2.779   6.487
 3751POPC   C3A50537   8.591   2.613   6.841
 3751POPC   C4A50538   8.493   2.748   7.238
 3751POPC   C1B50539   7.890   2.286   6.047
 3751POPC   C2B50540   7.868   2.378   6.490
 3751POPC   C3B50541   8.067   2.535   6.842
 3751POPC   C4B50542   8.165   2.365   7.177
 3752POPC   NC350543   9.457  11.722   5.589
 3752POPC   PO450544   9.979  11.944   5.213
 3752POPC   GL150545   9.909  11.975   5.703
 3752POPC   GL250546   9.593  12.103   5.871
 3752POPC   C1A50547   9.916  11.919   6.181
 3752POPC   D2A50548   9.741  12.064   6.567
 3752POPC   C3A50549   9.911  11.818   6.911
 3752POPC   C4A50550  10.065  11.759   7.320
 3752POPC   C1B50551   9.328  12.225   6.214
 3752POPC   C2B50552   9.338  12.406   6.604
 3752POPC   C3B50553   9.501  12.299   6.980
 3752POPC   C4B50554   9.611  11.975   7.261
 3753POPC   NC350555   2.528  44.663   5.564
 3753POPC   PO450556   3.204  44.474   5.508
 3753POPC   GL150557   2.976  44.652   5.829
 3753POPC   GL250558   2.821  44.348   5.962
 3753POPC   C1A50559   2.685  44.786   6.182
 3753POPC   D2A50560   2.416  44.777   6.529
 3753POPC   C3A50561   2.540  44.899   6.957
 3753POPC   C4A50562   2.990  44.909   7.132
 3753POPC   C1B50563   2.478  44.302   6.295
 3753POPC   C2B50564   2.476  44.168   6.721
 3753POPC   C3B50565   2.561  44.245   7.154
 3753POPC   C4B50566   2.646  44.611   7.370
 3754POPC   NC350567  42.272  26.938   5.445
 3754POPC   PO450568  42.290  26.262   5.442
 3754POPC   GL150569  42.181  26.533   5.781
 3754POPC   GL250570  41.908  26.638   5.993
 3754POPC   C1A50571  42.380  26.777   6.103
 3754POPC   D2A50572  42.441  26.567   6.498
 3754POPC   C3A50573  42.691  26.609   6.841
 3754POPC   C4A50574  42.408  26.651   7.175
 3754POPC   C1B50575  41.979  26.800   6.422
 3754POPC   C2B50576  41.954  27.195   6.686
 3754POPC   C3B50577  42.138  27.078   7.067
 3754POPC   C4B50578  41.903  26.766   7.258
 3755POPC   NC350579   2.562   0.487   5.521
 3755POPC   PO450580   2.816  44.883   5.286
 3755POPC   GL150581   2.892   0.145   5.675
 3755POPC   GL250582   3.007   0.547   5.753
 3755POPC   C1A50583   2.784   0.273   6.112
 3755POPC   D2A50584   2.558   0.268   6.491
 3755POPC   C3A50585   2.815   0.331   6.840
 3755POPC   C4A50586   2.751   0.346   7.273
 3755POPC   C1B50587   2.751   0.783   6.112
 3755POPC   C2B50588   2.546   0.850   6.539
 3755POPC   C3B50589   2.579   0.780   7.011
 3755POPC   C4B50590   2.662   0.817   7.475
 3756POPC   NC350591  36.233  29.529   5.650
 3756POPC   PO450592  36.598  30.050   5.343
 3756POPC   GL150593  36.353  30.057   5.732
 3756POPC   GL250594  36.039  30.280   5.766
 3756POPC   C1A50595  36.260  30.023   6.162
 3756POPC   D2A50596  36.334  30.058   6.575
 3756POPC   C3A50597  36.143  29.737   6.816
 3756POPC   C4A50598  35.974  29.771   7.214
 3756POPC   C1B50599  35.774  30.234   6.131
 3756POPC   C2B50600  35.806  30.068   6.553
 3756POPC   C3B50601  35.960  30.222   6.950
 3756POPC   C4B50602  35.720  30.208   7.320
 3757POPC   NC350603  30.534  39.229   5.399
 3757POPC   PO450604  30.389  38.662   5.237
 3757POPC   GL150605  30.743  38.856   5.650
 3757POPC   GL250606  30.859  39.225   5.770
 3757POPC   C1A50607  30.915  38.859   6.104
 3757POPC   D2A50608  30.893  39.197   6.421
 3757POPC   C3A50609  30.611  39.132   6.763
 3757POPC   C4A50610  30.677  38.869   7.101
 3757POPC   C1B50611  30.692  39.518   6.083
 3757POPC   C2B50612  30.610  39.643   6.519
 3757POPC   C3B50613  30.727  39.579   6.945
 3757POPC   C4B50614  30.541  39.314   7.296
 3758POPC   NC350615  12.839  29.415   5.380
 3758POPC   PO450616  13.029  28.812   5.464
 3758POPC   GL150617  12.993  28.998   5.862
 3758POPC   GL250618  12.780  29.322   5.897
 3758POPC   C1A50619  13.144  29.216   6.234
 3758POPC   D2A50620  12.972  29.220   6.633
 3758POPC   C3A50621  13.199  29.184   7.004
 3758POPC   C4A50622  13.077  29.091   7.426
 3758POPC   C1B50623  12.775  29.589   6.301
 3758POPC   C2B50624  12.746  29.633   6.768
 3758POPC   C3B50625  12.708  29.328   7.107
 3758POPC   C4B50626  12.636  29.327   7.565
 3759POPC   NC350627  36.069  16.474   5.472
 3759POPC   PO450628  36.167  15.784   5.536
 3759POPC   GL150629  35.966  15.971   5.875
 3759POPC   GL250630  36.121  16.220   5.938
 3759POPC   C1A50631  35.927  15.825   6.261
 3759POPC   D2A50632  36.227  15.791   6.560
 3759POPC   C3A50633  36.021  15.976   6.851
 3759POPC   C4A50634  35.760  15.935   7.203
 3759POPC   C1B50635  36.190  16.305   6.391
 3759POPC   C2B50636  36.171  16.456   6.812
 3759POPC   C3B50637  36.184  16.273   7.213
 3759POPC   C4B50638  36.361  16.368   7.591
 3760POPC   NC350639  40.126   6.895   5.688
 3760POPC   PO450640  39.751   6.438   5.398
 3760POPC   GL150641  39.966   6.410   5.812
 3760POPC   GL250642  40.277   6.490   5.951
 3760POPC   C1A50643  39.872   6.516   6.265
 3760POPC   D2A50644  39.689   6.368   6.660
 3760POPC   C3A50645  39.764   6.604   7.026
 3760POPC   C4A50646  39.909   6.902   7.298
 3760POPC   C1B50647  40.360   6.684   6.336
 3760POPC   C2B50648  40.087   6.790   6.669
 3760POPC   C3B50649  40.283   6.659   7.064
 3760POPC   C4B50650  40.448   6.258   7.202
 3761POPC   NC350651  24.109  30.755   5.497
 3761POPC   PO450652  23.433  30.608   5.507
 3761POPC   GL150653  23.693  30.706   5.840
 3761POPC   GL250654  23.540  30.986   6.010
 3761POPC   C1A50655  23.947  30.753   6.207
 3761POPC   D2A50656  23.800  30.912   6.575
 3761POPC   C3A50657  23.758  30.627   6.894
 3761POPC   C4A50658  23.949  30.740   7.260
 3761POPC   C1B50659  23.300  30.941   6.380
 3761POPC   C2B50660  23.347  30.966   6.819
 3761POPC   C3B50661  23.446  31.030   7.231
 3761POPC   C4B50662  23.598  31.069   7.638
 3762POPC   NC350663  42.105   8.243   5.348
 3762POPC   PO450664  41.539   8.281   5.469
 3762POPC   GL150665  41.499   8.412   5.840
 3762POPC   GL250666  41.186   8.502   5.912
 3762POPC   C1A50667  41.505   8.144   6.192
 3762POPC   D2A50668  41.524   7.935   6.562
 3762POPC   C3A50669  41.707   8.105   6.946
 3762POPC   C4A50670  41.547   8.381   7.266
 3762POPC   C1B50671  41.028   8.344   6.272
 3762POPC   C2B50672  41.088   8.189   6.660
 3762POPC   C3B50673  41.172   7.884   6.952
 3762POPC   C4B50674  41.369   7.877   7.344
 3763POPC   NC350675  35.602  34.997   5.492
 3763POPC   PO450676  35.046  34.584   5.406
 3763POPC   GL150677  35.281  34.576   5.772
 3763POPC   GL250678  35.241  34.890   5.857
 3763POPC   C1A50679  35.374  34.472   6.201
 3763POPC   D2A50680  35.581  34.306   6.550
 3763POPC   C3A50681  35.340  34.363   6.924
 3763POPC   C4A50682  35.595  34.399   7.307
 3763POPC   C1B50683  35.475  34.976   6.219
 3763POPC   C2B50684  35.348  34.797   6.614
 3763POPC   C3B50685  35.466  34.850   7.054
 3763POPC   C4B50686  35.271  34.759   7.451
 3764POPC   NC350687  12.805  44.673   5.240
 3764POPC   PO450688  13.062  44.248   5.651
 3764POPC   GL150689  13.048  44.728   5.730
 3764POPC   GL250690  12.745  44.829   5.725
 3764POPC   C1A50691  13.032  44.914   6.171
 3764POPC   D2A50692  12.850  44.643   6.550
 3764POPC   C3A50693  13.138  44.349   6.823
 3764POPC   C4A50694  13.207  44.294   7.269
 3764POPC   C1B50695  12.529  44.878   6.137
 3764POPC   C2B50696  12.343  44.829   6.549
 3764POPC   C3B50697  12.467  44.637   6.947
 3764POPC   C4B50698  12.505  44.782   7.404
 3765POPC   NC350699  31.630  38.961   5.365
 3765POPC   PO450700  31.640  39.641   5.313
 3765POPC   GL150701  31.344  39.364   5.616
 3765POPC   GL250702  31.335  39.036   5.762
 3765POPC   C1A50703  31.252  39.379   6.096
 3765POPC   D2A50704  31.406  39.272   6.521
 3765POPC   C3A50705  31.132  39.120   6.862
 3765POPC   C4A50706  31.044  39.326   7.250
 3765POPC   C1B50707  31.499  38.926   6.146
 3765POPC   C2B50708  31.567  38.792   6.558
 3765POPC   C3B50709  31.637  39.015   6.935
 3765POPC   C4B50710  31.409  38.985   7.283
 3766POPC   NC350711   8.958  19.510   5.299
 3766POPC   PO450712   8.622  18.948   5.579
 3766POPC   GL150713   8.790  19.305   5.753
 3766POPC   GL250714   9.111  19.220   5.699
 3766POPC   C1A50715   8.744  19.471   6.158
 3766POPC   D2A50716   8.534  19.341   6.556
 3766POPC   C3A50717   8.724  19.215   6.962
 3766POPC   C4A50718   8.755  18.769   7.141
 3766POPC   C1B50719   9.176  19.187   6.142
 3766POPC   C2B50720   9.239  18.892   6.470
 3766POPC   C3B50721   9.223  18.821   6.917
 3766POPC   C4B50722   9.148  19.112   7.246
 3767POPC   NC350723  12.306  41.680   5.220
 3767POPC   PO450724  11.685  41.463   5.325
 3767POPC   GL150725  11.994  41.599   5.691
 3767POPC   GL250726  12.340  41.797   5.723
 3767POPC   C1A50727  12.113  41.545   6.157
 3767POPC   D2A50728  12.196  41.236   6.532
 3767POPC   C3A50729  12.147  41.371   6.997
 3767POPC   C4A50730  11.961  41.734   7.219
 3767POPC   C1B50731  12.531  41.910   6.137
 3767POPC   C2B50732  12.434  41.717   6.547
 3767POPC   C3B50733  12.427  41.835   6.963
 3767POPC   C4B50734  12.466  41.650   7.360
 3768POPC   NC350735   4.911  20.603   5.355
 3768POPC   PO450736   5.501  20.562   5.239
 3768POPC   GL150737   5.263  20.575   5.767
 3768POPC   GL250738   4.929  20.593   5.853
 3768POPC   C1A50739   5.229  20.496   6.242
 3768POPC   D2A50740   4.857  20.589   6.516
 3768POPC   C3A50741   4.917  20.380   6.887
 3768POPC   C4A50742   5.167  20.462   7.212
 3768POPC   C1B50743   4.987  20.955   6.172
 3768POPC   C2B50744   4.874  21.145   6.583
 3768POPC   C3B50745   4.918  20.944   7.009
 3768POPC   C4B50746   5.063  20.854   7.487
 3769POPC   NC350747  27.152   1.118   5.451
 3769POPC   PO450748  26.556   1.398   5.248
 3769POPC   GL150749  26.724   1.291   5.673
 3769POPC   GL250750  27.000   1.548   5.711
 3769POPC   C1A50751  26.792   1.060   6.108
 3769POPC   D2A50752  26.849   0.942   6.572
 3769POPC   C3A50753  26.733   1.190   6.921
 3769POPC   C4A50754  26.708   1.135   7.372
 3769POPC   C1B50755  27.225   1.433   6.104
 3769POPC   C2B50756  27.371   1.549   6.539
 3769POPC   C3B50757  27.189   1.510   6.951
 3769POPC   C4B50758  26.792   1.627   7.198
 3770POPC   NC350759  34.502   9.581   5.337
 3770POPC   PO450760  34.844  10.090   5.434
 3770POPC   GL150761  34.580   9.908   5.773
 3770POPC   GL250762  34.385   9.586   5.822
 3770POPC   C1A50763  34.672   9.803   6.198
 3770POPC   D2A50764  34.835   9.933   6.571
 3770POPC   C3A50765  34.501   9.932   6.856
 3770POPC   C4A50766  34.453   9.671   7.184
 3770POPC   C1B50767  34.302   9.421   6.203
 3770POPC   C2B50768  34.467   9.481   6.601
 3770POPC   C3B50769  34.368   9.226   6.936
 3770POPC   C4B50770  34.202   9.204   7.332
 3771POPC   NC350771  40.717  23.984   5.584
 3771POPC   PO450772  40.387  23.507   5.610
 3771POPC   GL150773  40.755  23.540   5.852
 3771POPC   GL250774  41.103  23.549   5.706
 3771POPC   C1A50775  40.689  23.626   6.258
 3771POPC   D2A50776  40.589  23.411   6.600
 3771POPC   C3A50777  40.776  23.581   6.922
 3771POPC   C4A50778  40.912  24.009   7.044
 3771POPC   C1B50779  41.148  23.787   6.101
 3771POPC   C2B50780  41.079  23.844   6.542
 3771POPC   C3B50781  41.292  23.672   6.884
 3771POPC   C4B50782  41.147  23.602   7.269
 3772POPC   NC350783  22.649  21.150   5.458
 3772POPC   PO450784  22.174  20.733   5.520
 3772POPC   GL150785  22.402  20.853   5.894
 3772POPC   GL250786  22.454  21.205   5.935
 3772POPC   C1A50787  22.517  20.653   6.315
 3772POPC   D2A50788  22.562  20.834   6.747
 3772POPC   C3A50789  22.388  20.693   7.165
 3772POPC   C4A50790  22.363  20.478   7.588
 3772POPC   C1B50791  22.302  21.114   6.345
 3772POPC   C2B50792  22.168  21.183   6.765
 3772POPC   C3B50793  22.023  21.049   7.172
 3772POPC   C4B50794  21.911  20.664   7.399
 3773POPC   NC350795  27.066  41.091   5.575
 3773POPC   PO450796  26.802  40.552   5.240
 3773POPC   GL150797  26.895  40.602   5.665
 3773POPC   GL250798  26.538  40.625   5.700
 3773POPC   C1A50799  26.887  40.782   6.107
 3773POPC   D2A50800  26.694  40.914   6.499
 3773POPC   C3A50801  26.887  40.869   6.910
 3773POPC   C4A50802  26.657  40.903   7.286
 3773POPC   C1B50803  26.381  40.639   6.121
 3773POPC   C2B50804  26.305  40.422   6.509
 3773POPC   C3B50805  26.458  40.578   6.899
 3773POPC   C4B50806  26.323  40.531   7.314
 3774POPC   NC350807  40.484  41.863   5.305
 3774POPC   PO450808  39.871  41.611   5.350
 3774POPC   GL150809  40.084  41.624   5.731
 3774POPC   GL250810  40.332  41.890   5.782
 3774POPC   C1A50811  40.205  41.547   6.167
 3774POPC   D2A50812  40.464  41.427   6.518
 3774POPC   C3A50813  40.188  41.454   6.881
 3774POPC   C4A50814  40.358  41.445   7.292
 3774POPC   C1B50815  40.306  42.097   6.185
 3774POPC   C2B50816  40.252  41.897   6.587
 3774POPC   C3B50817  40.275  42.107   6.979
 3774POPC   C4B50818  40.207  41.931   7.369
 3775POPC   NC350819   7.933  44.094   5.455
 3775POPC   PO450820   8.235  43.541   5.234
 3775POPC   GL150821   8.096  43.599   5.703
 3775POPC   GL250822   7.727  43.531   5.752
 3775POPC   C1A50823   8.202  43.726   6.179
 3775POPC   D2A50824   8.432  44.012   6.522
 3775POPC   C3A50825   8.368  43.948   6.967
 3775POPC   C4A50826   8.014  43.811   7.244
 3775POPC   C1B50827   7.649  43.699   6.180
 3775POPC   C2B50828   7.551  43.778   6.601
 3775POPC   C3B50829   7.880  43.984   6.793
 3775POPC   C4B50830   8.007  44.289   7.106
 3776POPC   NC350831   1.505  16.098   5.340
 3776POPC   PO450832   1.482  15.499   5.592
 3776POPC   GL150833   1.791  15.772   5.862
 3776POPC   GL250834   2.096  16.012   5.829
 3776POPC   C1A50835   1.987  15.814   6.305
 3776POPC   D2A50836   2.107  16.056   6.684
 3776POPC   C3A50837   2.001  15.936   7.075
 3776POPC   C4A50838   2.158  15.531   7.223
 3776POPC   C1B50839   2.129  16.306   6.220
 3776POPC   C2B50840   2.246  16.540   6.638
 3776POPC   C3B50841   2.386  16.361   7.053
 3776POPC   C4B50842   2.398  16.589   7.464
 3777POPC   NC350843   7.361  12.491   5.364
 3777POPC   PO450844   7.354  11.799   5.497
 3777POPC   GL150845   7.414  12.112   5.788
 3777POPC   GL250846   7.070  12.224   5.850
 3777POPC   C1A50847   7.693  12.151   6.165
 3777POPC   D2A50848   7.896  11.836   6.470
 3777POPC   C3A50849   7.803  11.937   6.888
 3777POPC   C4A50850   7.760  12.005   7.313
 3777POPC   C1B50851   7.018  12.387   6.264
 3777POPC   C2B50852   7.158  12.522   6.682
 3777POPC   C3B50853   7.307  12.356   7.086
 3777POPC   C4B50854   7.660  12.517   7.313
 3778POPC   NC350855  38.663  37.697   5.576
 3778POPC   PO450856  38.019  37.362   5.517
 3778POPC   GL150857  38.308  37.419   5.896
 3778POPC   GL250858  38.488  37.755   6.036
 3778POPC   C1A50859  38.426  37.369   6.334
 3778POPC   D2A50860  38.556  37.699   6.576
 3778POPC   C3A50861  38.638  37.538   6.943
 3778POPC   C4A50862  38.342  37.431   7.215
 3778POPC   C1B50863  38.460  38.120   6.305
 3778POPC   C2B50864  38.205  38.170   6.652
 3778POPC   C3B50865  38.332  37.939   6.991
 3778POPC   C4B50866  38.724  37.925   7.273
 3779POPC   NC350867  43.976  42.545   5.258
 3779POPC   PO450868  43.597  42.171   4.988
 3779POPC   GL150869  43.835  42.172   5.533
 3779POPC   GL250870  43.662  42.490   5.669
 3779POPC   C1A50871  43.915  42.200   6.013
 3779POPC   D2A50872  43.997  42.467   6.404
 3779POPC   C3A50873  44.034  42.343   6.861
 3779POPC   C4A50874  43.923  42.624   7.209
 3779POPC   C1B50875  43.558  42.592   6.096
 3779POPC   C2B50876  43.469  42.343   6.457
 3779POPC   C3B50877  43.494  42.370   6.912
 3779POPC   C4B50878  43.702  42.136   7.241
 3780POPC   NC350879  20.260  38.444   5.595
 3780POPC   PO450880  20.721  38.838   5.493
 3780POPC   GL150881  20.498  38.839   5.891
 3780POPC   GL250882  20.116  38.867   5.856
 3780POPC   C1A50883  20.656  38.834   6.343
 3780POPC   D2A50884  20.756  38.905   6.795
 3780POPC   C3A50885  20.887  38.589   7.089
 3780POPC   C4A50886  20.982  38.698   7.494
 3780POPC   C1B50887  20.175  38.672   6.271
 3780POPC   C2B50888  20.262  38.783   6.696
 3780POPC   C3B50889  20.386  38.638   7.086
 3780POPC   C4B50890  20.508  38.468   7.483
 3781POPC   NC350891  41.789  30.557   5.613
 3781POPC   PO450892  41.464  30.021   5.363
 3781POPC   GL150893  41.358  29.858   5.765
 3781POPC   GL250894  41.397  30.174   5.888
 3781POPC   C1A50895  41.477  29.720   6.181
 3781POPC   D2A50896  41.722  29.631   6.563
 3781POPC   C3A50897  41.568  29.789   6.952
 3781POPC   C4A50898  41.306  29.741   7.304
 3781POPC   C1B50899  41.738  30.196   6.187
 3781POPC   C2B50900  41.868  30.284   6.593
 3781POPC   C3B50901  41.668  30.328   6.982
 3781POPC   C4B50902  41.636  30.118   7.351
 3782POPC   NC350903  16.001  29.584   5.533
 3782POPC   PO450904  15.597  29.109   5.454
 3782POPC   GL150905  15.770  28.976   5.836
 3782POPC   GL250906  15.976  29.228   5.908
 3782POPC   C1A50907  15.630  29.065   6.264
 3782POPC   D2A50908  15.526  29.199   6.680
 3782POPC   C3A50909  15.675  28.918   6.954
 3782POPC   C4A50910  15.825  29.139   7.314
 3782POPC   C1B50911  16.326  29.346   6.169
 3782POPC   C2B50912  16.396  29.195   6.541
 3782POPC   C3B50913  16.160  29.147   6.904
 3782POPC   C4B50914  16.339  29.113   7.314
 3783POPC   NC350915  19.502  26.399   5.286
 3783POPC   PO450916  20.081  26.489   5.673
 3783POPC   GL150917  19.801  26.212   5.851
 3783POPC   GL250918  19.971  25.895   5.902
 3783POPC   C1A50919  19.819  26.192   6.318
 3783POPC   D2A50920  19.798  26.114   6.760
 3783POPC   C3A50921  20.136  25.972   7.002
 3783POPC   C4A50922  20.121  26.377   7.180
 3783POPC   C1B50923  19.542  25.827   6.095
 3783POPC   C2B50924  19.453  25.812   6.545
 3783POPC   C3B50925  19.447  25.827   6.990
 3783POPC   C4B50926  19.761  25.889   7.334
 3784POPC   NC350927  32.613   8.389   5.064
 3784POPC   PO450928  31.964   8.407   5.329
 3784POPC   GL150929  31.912   8.478   5.773
 3784POPC   GL250930  32.284   8.353   5.807
 3784POPC   C1A50931  31.965   8.340   6.204
 3784POPC   D2A50932  32.180   8.514   6.550
 3784POPC   C3A50933  32.261   8.295   6.905
 3784POPC   C4A50934  32.256   8.449   7.330
 3784POPC   C1B50935  32.489   8.254   6.209
 3784POPC   C2B50936  32.457   7.917   6.507
 3784POPC   C3B50937  32.542   7.834   6.933
 3784POPC   C4B50938  32.322   7.947   7.277
 3785POPC   NC350939  41.837   9.726   5.252
 3785POPC   PO450940  42.412   9.577   5.202
 3785POPC   GL150941  42.288   9.701   5.656
 3785POPC   GL250942  42.524   9.497   5.852
 3785POPC   C1A50943  42.352   9.891   6.109
 3785POPC   D2A50944  42.221   9.708   6.519
 3785POPC   C3A50945  42.227   9.786   6.979
 3785POPC   C4A50946  41.921   9.702   7.326
 3785POPC   C1B50947  42.693   9.549   6.299
 3785POPC   C2B50948  42.688   9.740   6.711
 3785POPC   C3B50949  42.701   9.635   7.140
 3785POPC   C4B50950  42.911   9.771   7.538
 3786POPC   NC350951  13.877  11.392   5.429
 3786POPC   PO450952  13.265  11.332   5.467
 3786POPC   GL150953  13.509  11.459   5.844
 3786POPC   GL250954  13.837  11.605   5.887
 3786POPC   C1A50955  13.704  11.302   6.278
 3786POPC   D2A50956  13.446  11.152   6.637
 3786POPC   C3A50957  13.537  11.130   7.075
 3786POPC   C4A50958  13.418  11.389   7.449
 3786POPC   C1B50959  13.557  11.776   6.236
 3786POPC   C2B50960  13.683  11.702   6.627
 3786POPC   C3B50961  13.573  11.627   7.023
 3786POPC   C4B50962  13.895  11.524   7.332
 3787POPC   NC350963  33.343  22.638   4.905
 3787POPC   PO450964  33.039  22.876   5.412
 3787POPC   GL150965  33.177  22.757   5.867
 3787POPC   GL250966  33.258  23.070   6.029
 3787POPC   C1A50967  33.139  22.655   6.307
 3787POPC   D2A50968  32.930  22.812   6.676
 3787POPC   C3A50969  33.069  22.672   7.062
 3787POPC   C4A50970  33.095  22.749   7.474
 3787POPC   C1B50971  33.243  23.167   6.457
 3787POPC   C2B50972  33.300  23.103   6.894
 3787POPC   C3B50973  33.240  23.217   7.340
 3787POPC   C4B50974  33.337  23.415   7.744
 3788POPC   NC350975  12.988   1.502   5.516
 3788POPC   PO450976  12.659   0.933   5.306
 3788POPC   GL150977  12.787   1.060   5.716
 3788POPC   GL250978  12.543   1.316   5.754
 3788POPC   C1A50979  12.935   0.948   6.140
 3788POPC   D2A50980  13.111   0.990   6.543
 3788POPC   C3A50981  12.796   1.061   6.877
 3788POPC   C4A50982  12.807   1.126   7.298
 3788POPC   C1B50983  12.737   1.510   6.112
 3788POPC   C2B50984  12.854   1.430   6.506
 3788POPC   C3B50985  12.958   1.539   6.894
 3788POPC   C4B50986  12.655   1.597   7.216
 3789POPC   NC350987  44.426   4.344   5.718
 3789POPC   PO450988  43.805   4.138   5.422
 3789POPC   GL150989  43.897   4.081   5.845
 3789POPC   GL250990  43.948   4.437   5.873
 3789POPC   C1A50991  44.131   4.102   6.264
 3789POPC   D2A50992  44.173   4.285   6.684
 3789POPC   C3A50993  43.852   4.128   6.944
 3789POPC   C4A50994  43.813   4.039   7.361
 3789POPC   C1B50995  43.739   4.518   6.278
 3789POPC   C2B50996  43.812   4.682   6.706
 3789POPC   C3B50997  43.981   4.598   7.117
 3789POPC   C4B50998  43.874   4.630   7.556
 3790POPC   NC350999  38.302  13.844   5.347
 3790POPC   PO451000  38.745  13.379   5.550
 3790POPC   GL151001  38.583  13.775   5.766
 3790POPC   GL251002  38.204  13.886   5.830
 3790POPC   C1A51003  38.626  13.796   6.183
 3790POPC   D2A51004  38.628  13.461   6.494
 3790POPC   C3A51005  38.575  13.564   6.938
 3790POPC   C4A51006  38.197  13.400   7.116
 3790POPC   C1B51007  38.123  13.683   6.207
 3790POPC   C2B51008  38.292  13.838   6.595
 3790POPC   C3B51009  38.112  13.883   6.977
 3790POPC   C4B51010  38.306  13.829   7.363
 3791POPC   NC351011  20.722  17.209   5.316
 3791POPC   PO451012  20.734  17.753   5.371
 3791POPC   GL151013  20.558  17.464   5.745
 3791POPC   GL251014  20.749  17.174   5.860
 3791POPC   C1A51015  20.401  17.392   6.208
 3791POPC   D2A51016  20.545  17.508   6.663
 3791POPC   C3A51017  20.587  17.566   7.145
 3791POPC   C4A51018  20.718  17.620   7.594
 3791POPC   C1B51019  20.849  17.192   6.349
 3791POPC   C2B51020  20.863  17.136   6.814
 3791POPC   C3B51021  20.875  17.140   7.279
 3791POPC   C4B51022  20.932  17.166   7.721
 3792POPC   NC351023   5.678  18.410   5.405
 3792POPC   PO451024   6.306  18.140   5.553
 3792POPC   GL151025   6.061  18.303   5.877
 3792POPC   GL251026   5.698  18.279   5.893
 3792POPC   C1A51027   5.951  18.334   6.306
 3792POPC   D2A51028   5.654  18.421   6.595
 3792POPC   C3A51029   5.823  18.312   7.000
 3792POPC   C4A51030   6.060  18.201   7.401
 3792POPC   C1B51031   5.578  17.998   6.270
 3792POPC   C2B51032   5.546  17.939   6.731
 3792POPC   C3B51033   5.774  17.824   7.112
 3792POPC   C4B51034   5.661  17.933   7.559
 3793POPC   NC351035  40.475  42.831   5.555
 3793POPC   PO451036  40.890  43.334   5.311
 3793POPC   GL151037  40.995  43.098   5.727
 3793POPC   GL251038  40.888  42.760   5.843
 3793POPC   C1A51039  40.819  43.121   6.167
 3793POPC   D2A51040  40.592  43.208   6.554
 3793POPC   C3A51041  40.812  43.148   6.939
 3793POPC   C4A51042  40.646  43.007   7.315
 3793POPC   C1B51043  41.146  42.691   6.170
 3793POPC   C2B51044  41.322  42.655   6.560
 3793POPC   C3B51045  41.103  42.723   6.925
 3793POPC   C4B51046  40.973  42.546   7.297
 3794POPC   NC351047  39.548  29.999   5.366
 3794POPC   PO451048  40.046  29.476   5.331
 3794POPC   GL151049  39.915  29.585   5.749
 3794POPC   GL251050  39.869  29.948   5.763
 3794POPC   C1A51051  39.966  29.712   6.207
 3794POPC   D2A51052  40.131  30.022   6.529
 3794POPC   C3A51053  40.137  29.889   6.971
 3794POPC   C4A51054  39.756  29.915   7.233
 3794POPC   C1B51055  39.784  30.180   6.143
 3794POPC   C2B51056  39.630  30.235   6.544
 3794POPC   C3B51057  39.586  30.365   6.963
 3794POPC   C4B51058  39.443  30.318   7.395
 3795POPC   NC351059  36.247  37.140   5.453
 3795POPC   PO451060  35.927  36.642   5.372
 3795POPC   GL151061  36.077  36.814   5.788
 3795POPC   GL251062  35.894  37.144   5.851
 3795POPC   C1A51063  36.247  36.913   6.194
 3795POPC   D2A51064  36.225  37.102   6.632
 3795POPC   C3A51065  36.332  36.851   6.990
 3795POPC   C4A51066  36.059  36.903   7.331
 3795POPC   C1B51067  35.860  37.272   6.306
 3795POPC   C2B51068  35.700  37.214   6.761
 3795POPC   C3B51069  35.667  37.232   7.217
 3795POPC   C4B51070  35.937  37.380   7.550
 3796POPC   NC351071   0.379  17.100   5.223
 3796POPC   PO451072   0.642  17.700   5.350
 3796POPC   GL151073   0.436  17.673   5.736
 3796POPC   GL251074   0.249  17.374   5.671
 3796POPC   C1A51075   0.532  17.708   6.216
 3796POPC   D2A51076   0.399  17.626   6.649
 3796POPC   C3A51077   0.599  17.623   7.039
 3796POPC   C4A51078   0.649  17.673   7.488
 3796POPC   C1B51079   0.539  17.247   5.985
 3796POPC   C2B51080   0.490  17.185   6.415
 3796POPC   C3B51081   0.579  17.154   6.848
 3796POPC   C4B51082   0.518  17.033   7.261
 3797POPC   NC351083   7.592  39.068   5.628
 3797POPC   PO451084   7.141  39.568   5.367
 3797POPC   GL151085   7.167  39.320   5.786
 3797POPC   GL251086   7.100  38.936   5.750
 3797POPC   C1A51087   7.392  39.384   6.211
 3797POPC   D2A51088   7.725  39.320   6.550
 3797POPC   C3A51089   7.609  39.203   6.983
 3797POPC   C4A51090   7.420  39.491   7.289
 3797POPC   C1B51091   7.031  38.972   6.207
 3797POPC   C2B51092   7.029  39.271   6.580
 3797POPC   C3B51093   7.082  39.229   7.017
 3797POPC   C4B51094   7.081  38.812   7.143
 3798POPC   NC351095   1.834  40.441   5.608
 3798POPC   PO451096   2.042  41.053   5.362
 3798POPC   GL151097   1.843  40.927   5.778
 3798POPC   GL251098   2.131  40.793   5.852
 3798POPC   C1A51099   1.809  40.672   6.219
 3798POPC   D2A51100   1.968  40.777   6.629
 3798POPC   C3A51101   1.971  40.591   7.030
 3798POPC   C4A51102   1.862  40.810   7.393
 3798POPC   C1B51103   2.135  41.068   6.195
 3798POPC   C2B51104   2.333  41.116   6.570
 3798POPC   C3B51105   2.391  40.906   6.941
 3798POPC   C4B51106   2.362  40.885   7.373
 3799POPC   NC351107  27.683   7.112   5.411
 3799POPC   PO451108  27.840   6.449   5.417
 3799POPC   GL151109  27.661   6.678   5.748
 3799POPC   GL251110  27.933   6.839   5.782
 3799POPC   C1A51111  27.492   6.572   6.145
 3799POPC   D2A51112  27.356   6.350   6.533
 3799POPC   C3A51113  27.415   6.590   6.888
 3799POPC   C4A51114  27.487   6.612   7.329
 3799POPC   C1B51115  27.852   6.931   6.207
 3799POPC   C2B51116  27.912   6.750   6.623
 3799POPC   C3B51117  27.836   6.869   7.069
 3799POPC   C4B51118  27.888   6.802   7.549
 3800POPC   NC351119   5.453  23.831   5.582
 3800POPC   PO451120   5.956  24.021   5.141
 3800POPC   GL151121   5.971  23.833   5.633
 3800POPC   GL251122   6.068  23.484   5.827
 3800POPC   C1A51123   5.821  23.860   6.095
 3800POPC   D2A51124   5.790  23.785   6.540
 3800POPC   C3A51125   5.703  24.013   6.955
 3800POPC   C4A51126   5.568  23.829   7.338
 3800POPC   C1B51127   5.805  23.342   6.231
 3800POPC   C2B51128   5.630  23.331   6.688
 3800POPC   C3B51129   5.905  23.552   6.997
 3800POPC   C4B51130   6.080  23.486   7.398
 3801POPC   NC351131  41.308  42.296   5.416
 3801POPC   PO451132  41.921  42.578   5.404
 3801POPC   GL151133  41.795  42.444   5.808
 3801POPC   GL251134  41.719  42.160   5.741
 3801POPC   C1A51135  41.486  42.295   6.192
 3801POPC   D2A51136  41.230  42.165   6.600
 3801POPC   C3A51137  41.355  42.298   7.023
 3801POPC   C4A51138  41.621  42.344   7.382
 3801POPC   C1B51139  41.813  41.906   6.082
 3801POPC   C2B51140  41.649  41.881   6.482
 3801POPC   C3B51141  41.687  41.927   6.920
 3801POPC   C4B51142  41.877  41.918   7.325
 3802POPC   NC351143   4.177  35.663   5.215
 3802POPC   PO451144   4.322  36.322   5.279
 3802POPC   GL151145   4.297  36.115   5.702
 3802POPC   GL251146   4.611  35.972   5.831
 3802POPC   C1A51147   4.229  35.976   6.165
 3802POPC   D2A51148   4.384  35.809   6.533
 3802POPC   C3A51149   4.285  36.009   6.890
 3802POPC   C4A51150   4.186  36.022   7.318
 3802POPC   C1B51151   4.726  36.078   6.260
 3802POPC   C2B51152   4.761  36.101   6.705
 3802POPC   C3B51153   4.719  35.924   7.125
 3802POPC   C4B51154   4.673  36.151   7.500
 3803POPC   NC351155  38.144  26.559   5.432
 3803POPC   PO451156  37.397  26.669   5.397
 3803POPC   GL151157  37.649  26.808   5.797
 3803POPC   GL251158  37.989  26.749   5.875
 3803POPC   C1A51159  37.743  27.001   6.247
 3803POPC   D2A51160  38.062  27.041   6.635
 3803POPC   C3A51161  37.823  27.119   7.050
 3803POPC   C4A51162  37.486  26.835   7.261
 3803POPC   C1B51163  38.035  26.586   6.300
 3803POPC   C2B51164  38.177  26.509   6.728
 3803POPC   C3B51165  37.904  26.606   7.080
 3803POPC   C4B51166  37.901  26.626   7.549
 3804POPC   NC351167  13.995  41.379   5.386
 3804POPC   PO451168  13.648  41.924   5.207
 3804POPC   GL151169  13.692  41.714   5.636
 3804POPC   GL251170  13.397  41.559   5.809
 3804POPC   C1A51171  13.869  41.744   6.062
 3804POPC   D2A51172  13.893  41.584   6.504
 3804POPC   C3A51173  13.724  41.668   6.929
 3804POPC   C4A51174  13.852  41.457   7.314
 3804POPC   C1B51175  13.485  41.436   6.225
 3804POPC   C2B51176  13.328  41.549   6.602
 3804POPC   C3B51177  13.210  41.343   6.940
 3804POPC   C4B51178  13.366  41.560   7.287
 3805POPC   NC351179  26.601  37.863   5.625
 3805POPC   PO451180  27.142  37.594   5.457
 3805POPC   GL151181  27.013  37.694   5.858
 3805POPC   GL251182  27.153  37.995   5.913
 3805POPC   C1A51183  26.798  37.688   6.268
 3805POPC   D2A51184  26.712  37.484   6.675
 3805POPC   C3A51185  26.775  37.691   7.085
 3805POPC   C4A51186  26.950  37.651   7.494
 3805POPC   C1B51187  27.105  38.080   6.362
 3805POPC   C2B51188  26.999  38.078   6.821
 3805POPC   C3B51189  27.101  38.081   7.276
 3805POPC   C4B51190  27.092  38.072   7.743
 3806POPC   NC351191  44.772  28.000   5.549
 3806POPC   PO451192  44.512  27.481   5.507
 3806POPC   GL151193  44.454  27.722   5.892
 3806POPC   GL251194  44.637  28.021   6.025
 3806POPC   C1A51195  44.597  27.582   6.296
 3806POPC   D2A51196  44.637  27.280   6.622
 3806POPC   C3A51197  44.725  27.476   7.008
 3806POPC   C4A51198  44.616  27.355   7.441
 3806POPC   C1B51199  44.288  27.990   6.290
 3806POPC   C2B51200  44.217  28.165   6.644
 3806POPC   C3B51201  44.305  28.020   7.087
 3806POPC   C4B51202  44.656  27.874   7.314
 3807POPC   NC351203  12.805  30.170   5.408
 3807POPC   PO451204  12.440  29.608   5.323
 3807POPC   GL151205  12.594  29.831   5.739
 3807POPC   GL251206  12.921  29.806   5.825
 3807POPC   C1A51207  12.692  30.096   6.158
 3807POPC   D2A51208  12.947  30.061   6.562
 3807POPC   C3A51209  12.789  30.059   7.027
 3807POPC   C4A51210  12.554  29.838   7.364
 3807POPC   C1B51211  13.209  29.802   6.169
 3807POPC   C2B51212  13.271  29.633   6.570
 3807POPC   C3B51213  13.223  29.712   6.989
 3807POPC   C4B51214  13.019  29.628   7.361
 3808POPC   NC351215   5.355  17.474   5.548
 3808POPC   PO451216   4.698  17.799   5.437
 3808POPC   GL151217   4.924  17.732   5.816
 3808POPC   GL251218   4.921  17.375   5.866
 3808POPC   C1A51219   5.198  17.663   6.187
 3808POPC   D2A51220   5.331  17.503   6.587
 3808POPC   C3A51221   5.086  17.726   6.888
 3808POPC   C4A51222   4.855  17.626   7.259
 3808POPC   C1B51223   4.860  17.234   6.287
 3808POPC   C2B51224   5.088  17.061   6.649
 3808POPC   C3B51225   5.047  17.212   7.063
 3808POPC   C4B51226   4.604  17.157   7.248
 3809POPC   NC351227  23.918  25.632   5.670
 3809POPC   PO451228  23.582  25.201   5.279
 3809POPC   GL151229  23.637  25.203   5.774
 3809POPC   GL251230  23.894  25.007   5.899
 3809POPC   C1A51231  23.743  25.342   6.266
 3809POPC   D2A51232  23.698  25.514   6.733
 3809POPC   C3A51233  23.470  25.274   7.086
 3809POPC   C4A51234  23.435  25.385   7.557
 3809POPC   C1B51235  23.809  24.825   6.281
 3809POPC   C2B51236  23.860  25.010   6.664
 3809POPC   C3B51237  23.841  24.896   7.075
 3809POPC   C4B51238  23.847  25.124   7.412
 3810POPC   NC351239  27.246  13.300   5.389
 3810POPC   PO451240  27.643  13.866   5.393
 3810POPC   GL151241  27.534  13.580   5.746
 3810POPC   GL251242  27.781  13.334   5.725
 3810POPC   C1A51243  27.361  13.629   6.188
 3810POPC   D2A51244  27.354  13.936   6.547
 3810POPC   C3A51245  27.695  13.943   6.840
 3810POPC   C4A51246  27.722  14.066   7.259
 3810POPC   C1B51247  27.874  13.449   6.163
 3810POPC   C2B51248  27.680  13.493   6.590
 3810POPC   C3B51249  27.537  13.487   7.025
 3810POPC   C4B51250  27.702  13.562   7.434
 3811POPC   NC351251  41.576  36.907   5.254
 3811POPC   PO451252  41.735  37.458   5.330
 3811POPC   GL151253  41.666  37.174   5.722
 3811POPC   GL251254  41.681  36.798   5.756
 3811POPC   C1A51255  41.357  37.116   6.093
 3811POPC   D2A51256  41.355  37.307   6.517
 3811POPC   C3A51257  41.475  37.060   6.904
 3811POPC   C4A51258  41.808  37.131   7.224
 3811POPC   C1B51259  41.814  36.897   6.185
 3811POPC   C2B51260  42.019  36.806   6.589
 3811POPC   C3B51261  41.899  36.582   6.944
 3811POPC   C4B51262  41.603  36.635   7.242
 3812POPC   NC351263  31.712  35.846   5.432
 3812POPC   PO451264  31.075  36.209   5.420
 3812POPC   GL151265  31.437  36.217   5.747
 3812POPC   GL251266  31.375  35.881   5.827
 3812POPC   C1A51267  31.674  36.221   6.194
 3812POPC   D2A51268  31.869  36.176   6.647
 3812POPC   C3A51269  31.556  36.281   7.004
 3812POPC   C4A51270  31.369  36.453   7.405
 3812POPC   C1B51271  31.481  35.751   6.226
 3812POPC   C2B51272  31.455  35.895   6.651
 3812POPC   C3B51273  31.698  35.785   7.029
 3812POPC   C4B51274  31.642  35.513   7.423
 3813POPC   NC351275   2.674   3.265   5.208
 3813POPC   PO451276   3.130   2.724   5.375
 3813POPC   GL151277   3.039   2.809   5.828
 3813POPC   GL251278   2.708   2.662   5.938
 3813POPC   C1A51279   2.916   3.028   6.230
 3813POPC   D2A51280   2.718   2.928   6.626
 3813POPC   C3A51281   2.844   2.984   7.063
 3813POPC   C4A51282   2.533   2.807   7.393
 3813POPC   C1B51283   2.992   2.335   6.037
 3813POPC   C2B51284   3.073   2.543   6.412
 3813POPC   C3B51285   3.087   2.560   6.838
 3813POPC   C4B51286   2.911   2.507   7.223
 3814POPC   NC351287  22.783  42.085   5.635
 3814POPC   PO451288  22.817  42.555   5.160
 3814POPC   GL151289  22.598  42.564   5.691
 3814POPC   GL251290  22.289  42.767   5.782
 3814POPC   C1A51291  22.724  42.360   6.187
 3814POPC   D2A51292  22.774  42.206   6.617
 3814POPC   C3A51293  23.080  42.437   6.851
 3814POPC   C4A51294  23.245  42.445   7.257
 3814POPC   C1B51295  22.498  42.798   6.228
 3814POPC   C2B51296  22.582  42.680   6.682
 3814POPC   C3B51297  22.754  42.732   7.129
 3814POPC   C4B51298  23.014  42.763   7.562
 3815POPC   NC351299  28.271  37.530   5.381
 3815POPC   PO451300  27.941  38.195   5.441
 3815POPC   GL151301  28.154  37.965   5.762
 3815POPC   GL251302  28.505  37.834   5.729
 3815POPC   C1A51303  28.183  37.692   6.094
 3815POPC   D2A51304  28.409  37.701   6.455
 3815POPC   C3A51305  28.270  37.900   6.811
 3815POPC   C4A51306  28.437  37.730   7.176
 3815POPC   C1B51307  28.629  37.456   6.018
 3815POPC   C2B51308  28.501  37.208   6.407
 3815POPC   C3B51309  28.400  37.312   6.857
 3815POPC   C4B51310  28.612  37.260   7.281
 3816POPC   NC351311  34.806   5.301   5.457
 3816POPC   PO451312  34.272   4.966   5.436
 3816POPC   GL151313  34.514   5.080   5.839
 3816POPC   GL251314  34.818   5.310   5.950
 3816POPC   C1A51315  34.434   5.268   6.265
 3816POPC   D2A51316  34.553   5.388   6.683
 3816POPC   C3A51317  34.326   5.196   7.058
 3816POPC   C4A51318  34.359   5.004   7.487
 3816POPC   C1B51319  34.860   4.964   6.241
 3816POPC   C2B51320  34.828   4.955   6.720
 3816POPC   C3B51321  34.816   5.003   7.207
 3816POPC   C4B51322  35.122   4.825   7.541
 3817POPC   NC351323  36.794  33.512   5.349
 3817POPC   PO451324  37.234  34.038   5.435
 3817POPC   GL151325  37.066  33.877   5.839
 3817POPC   GL251326  36.722  33.740   5.811
 3817POPC   C1A51327  37.068  33.851   6.311
 3817POPC   D2A51328  37.150  34.000   6.747
 3817POPC   C3A51329  36.988  33.698   7.033
 3817POPC   C4A51330  36.554  33.493   7.021
 3817POPC   C1B51331  36.592  33.960   6.188
 3817POPC   C2B51332  36.640  33.877   6.646
 3817POPC   C3B51333  36.599  34.017   7.065
 3817POPC   C4B51334  36.738  33.834   7.452
 3818POPC   NC351335  34.556  32.041   5.265
 3818POPC   PO451336  33.980  32.195   5.495
 3818POPC   GL151337  34.306  32.079   5.736
 3818POPC   GL251338  34.472  32.386   5.805
 3818POPC   C1A51339  34.544  31.916   6.083
 3818POPC   D2A51340  34.795  32.045   6.450
 3818POPC   C3A51341  34.613  32.026   6.878
 3818POPC   C4A51342  34.539  32.166   7.287
 3818POPC   C1B51343  34.430  32.384   6.281
 3818POPC   C2B51344  34.663  32.519   6.684
 3818POPC   C3B51345  34.848  32.522   7.109
 3818POPC   C4B51346  34.591  32.617   7.498
 3819POPC   NC351347   0.105  19.905   5.389
 3819POPC   PO451348   0.672  19.627   5.408
 3819POPC   GL151349   0.407  19.729   5.793
 3819POPC   GL251350   0.209  20.045   5.900
 3819POPC   C1A51351   0.195  19.609   6.187
 3819POPC   D2A51352   0.107  19.779   6.615
 3819POPC   C3A51353   0.443  19.726   6.892
 3819POPC   C4A51354   0.601  19.509   7.237
 3819POPC   C1B51355   0.509  20.019   6.257
 3819POPC   C2B51356   0.719  20.110   6.650
 3819POPC   C3B51357   0.563  20.188   7.066
 3819POPC   C4B51358   0.302  20.002   7.334
 3820POPC   NC351359  12.891  32.767   5.476
 3820POPC   PO451360  12.942  33.415   5.410
 3820POPC   GL151361  12.815  33.159   5.784
 3820POPC   GL251362  13.169  33.164   5.802
 3820POPC   C1A51363  12.936  32.910   6.169
 3820POPC   D2A51364  13.126  33.078   6.557
 3820POPC   C3A51365  13.110  32.844   6.934
 3820POPC   C4A51366  12.815  32.834   7.242
 3820POPC   C1B51367  13.283  33.473   6.109
 3820POPC   C2B51368  13.197  33.595   6.552
 3820POPC   C3B51369  13.152  33.427   6.949
 3820POPC   C4B51370  13.243  33.199   7.304
 3821POPC   NC351371  16.690  28.155   5.373
 3821POPC   PO451372  16.546  28.791   5.460
 3821POPC   GL151373  16.683  28.495   5.789
 3821POPC   GL251374  17.023  28.350   5.723
 3821POPC   C1A51375  16.521  28.434   6.212
 3821POPC   D2A51376  16.653  28.263   6.614
 3821POPC   C3A51377  16.606  28.461   7.020
 3821POPC   C4A51378  16.605  28.221   7.387
 3821POPC   C1B51379  17.026  28.338   6.180
 3821POPC   C2B51380  17.150  28.108   6.566
 3821POPC   C3B51381  17.058  28.193   7.002
 3821POPC   C4B51382  17.085  28.138   7.462
 3822POPC   NC351383   5.603   7.515   5.265
 3822POPC   PO451384   6.187   7.661   5.486
 3822POPC   GL151385   6.007   7.618   5.842
 3822POPC   GL251386   5.848   7.316   5.777
 3822POPC   C1A51387   6.082   7.427   6.223
 3822POPC   D2A51388   5.847   7.345   6.604
 3822POPC   C3A51389   5.774   7.632   6.932
 3822POPC   C4A51390   5.747   7.388   7.289
 3822POPC   C1B51391   5.653   7.149   6.182
 3822POPC   C2B51392   5.508   6.959   6.634
 3822POPC   C3B51393   5.507   6.975   7.102
 3822POPC   C4B51394   5.436   7.028   7.577
 3823POPC   NC351395   3.885   5.323   5.358
 3823POPC   PO451396   3.272   4.933   5.405
 3823POPC   GL151397   3.343   4.947   5.842
 3823POPC   GL251398   3.658   5.127   5.834
 3823POPC   C1A51399   3.264   5.019   6.288
 3823POPC   D2A51400   3.307   5.068   6.730
 3823POPC   C3A51401   3.727   5.065   6.900
 3823POPC   C4A51402   3.657   5.165   7.321
 3823POPC   C1B51403   3.736   4.827   6.205
 3823POPC   C2B51404   4.014   4.703   6.537
 3823POPC   C3B51405   4.082   4.655   6.947
 3823POPC   C4B51406   3.972   4.796   7.315
 3824POPC   NC351407  21.822  29.828   5.466
 3824POPC   PO451408  22.507  30.051   5.385
 3824POPC   GL151409  22.313  30.086   5.792
 3824POPC   GL251410  21.948  30.120   5.866
 3824POPC   C1A51411  22.370  30.266   6.215
 3824POPC   D2A51412  22.244  30.358   6.638
 3824POPC   C3A51413  22.343  30.060   6.980
 3824POPC   C4A51414  22.115  30.110   7.383
 3824POPC   C1B51415  22.124  29.778   6.152
 3824POPC   C2B51416  22.274  29.725   6.585
 3824POPC   C3B51417  22.112  29.581   6.997
 3824POPC   C4B51418  22.301  29.329   7.323
 3825POPC   NC351419  25.441   1.476   5.324
 3825POPC   PO451420  25.275   0.865   5.216
 3825POPC   GL151421  25.178   0.975   5.664
 3825POPC   GL251422  25.448   1.207   5.754
 3825POPC   C1A51423  25.210   0.919   6.149
 3825POPC   D2A51424  25.196   0.829   6.601
 3825POPC   C3A51425  25.064   1.155   6.911
 3825POPC   C4A51426  25.331   1.149   7.192
 3825POPC   C1B51427  25.510   1.332   6.174
 3825POPC   C2B51428  25.360   1.417   6.589
 3825POPC   C3B51429  25.581   1.531   6.967
 3825POPC   C4B51430  25.546   1.545   7.425
 3826POPC   NC351431  20.797  27.615   5.346
 3826POPC   PO451432  20.416  27.145   5.661
 3826POPC   GL151433  20.457  27.504   5.810
 3826POPC   GL251434  20.735  27.717   5.855
 3826POPC   C1A51435  20.405  27.582   6.227
 3826POPC   D2A51436  20.646  27.625   6.580
 3826POPC   C3A51437  20.509  27.345   6.876
 3826POPC   C4A51438  20.471  27.472   7.265
 3826POPC   C1B51439  20.719  27.993   6.193
 3826POPC   C2B51440  20.998  28.030   6.517
 3826POPC   C3B51441  20.852  27.984   6.909
 3826POPC   C4B51442  20.770  27.873   7.315
 3827POPC   NC351443  44.429  37.400   5.410
 3827POPC   PO451444  44.663  38.051   5.276
 3827POPC   GL151445  44.741  37.755   5.655
 3827POPC   GL251446   0.004  37.482   5.595
 3827POPC   C1A51447  44.562  37.718   6.100
 3827POPC   D2A51448  44.413  37.637   6.529
 3827POPC   C3A51449  44.721  37.661   6.864
 3827POPC   C4A51450  44.678  37.579   7.287
 3827POPC   C1B51451   0.035  37.538   6.060
 3827POPC   C2B51452   0.126  37.549   6.522
 3827POPC   C3B51453   0.145  37.261   6.901
 3827POPC   C4B51454   0.043  37.233   7.352
 3828POPC   NC351455  34.103  17.948   5.513
 3828POPC   PO451456  33.640  18.372   5.537
 3828POPC   GL151457  33.891  18.281   5.880
 3828POPC   GL251458  33.825  17.926   5.940
 3828POPC   C1A51459  33.805  18.288   6.325
 3828POPC   D2A51460  33.700  18.077   6.702
 3828POPC   C3A51461  33.817  18.369   7.017
 3828POPC   C4A51462  33.644  18.505   7.412
 3828POPC   C1B51463  34.198  18.001   6.195
 3828POPC   C2B51464  34.199  18.021   6.640
 3828POPC   C3B51465  34.064  17.908   7.074
 3828POPC   C4B51466  34.039  18.200   7.438
 3829POPC   NC351467  29.256  16.004   5.183
 3829POPC   PO451468  29.032  15.470   5.149
 3829POPC   GL151469  29.106  15.777   5.597
 3829POPC   GL251470  29.262  16.125   5.687
 3829POPC   C1A51471  29.123  15.787   6.060
 3829POPC   D2A51472  29.128  15.560   6.475
 3829POPC   C3A51473  29.111  15.795   6.873
 3829POPC   C4A51474  29.050  15.793   7.297
 3829POPC   C1B51475  29.455  16.180   6.098
 3829POPC   C2B51476  29.318  16.070   6.485
 3829POPC   C3B51477  29.443  16.245   6.862
 3829POPC   C4B51478  29.208  16.420   7.199
 3830POPC   NC351479  43.323  32.696   5.272
 3830POPC   PO451480  43.200  31.988   5.313
 3830POPC   GL151481  43.179  32.048   5.770
 3830POPC   GL251482  43.071  32.398   5.873
 3830POPC   C1A51483  43.245  31.969   6.233
 3830POPC   D2A51484  43.489  32.210   6.565
 3830POPC   C3A51485  43.271  32.400   6.923
 3830POPC   C4A51486  43.216  32.297   7.375
 3830POPC   C1B51487  43.080  32.451   6.362
 3830POPC   C2B51488  42.886  32.710   6.725
 3830POPC   C3B51489  42.920  32.691   7.199
 3830POPC   C4B51490  42.985  32.613   7.685
 3831POPC   NC351491   0.216  43.069   5.466
 3831POPC   PO451492   0.718  43.435   5.578
 3831POPC   GL151493   0.633  43.084   5.821
 3831POPC   GL251494   0.309  43.221   5.926
 3831POPC   C1A51495   0.579  42.953   6.255
 3831POPC   D2A51496   0.318  42.961   6.624
 3831POPC   C3A51497   0.435  42.878   7.016
 3831POPC   C4A51498   0.594  43.264   7.134
 3831POPC   C1B51499   0.085  43.417   6.233
 3831POPC   C2B51500   0.191  43.469   6.665
 3831POPC   C3B51501   0.097  43.284   7.050
 3831POPC   C4B51502   0.139  43.426   7.480
 3832POPC   NC351503  36.641  15.848   5.480
 3832POPC   PO451504  37.133  16.312   5.436
 3832POPC   GL151505  36.981  16.168   5.851
 3832POPC   GL251506  36.626  16.224   5.884
 3832POPC   C1A51507  36.952  15.806   6.144
 3832POPC   D2A51508  37.117  15.618   6.546
 3832POPC   C3A51509  37.048  15.780   7.003
 3832POPC   C4A51510  37.074  15.775   7.489
 3832POPC   C1B51511  36.702  16.228   6.359
 3832POPC   C2B51512  36.559  16.112   6.805
 3832POPC   C3B51513  36.643  16.025   7.247
 3832POPC   C4B51514  36.853  16.240   7.565
 3833POPC   NC351515   2.852  42.224   5.318
 3833POPC   PO451516   2.315  42.663   5.472
 3833POPC   GL151517   2.507  42.413   5.815
 3833POPC   GL251518   2.729  42.104   5.808
 3833POPC   C1A51519   2.753  42.439   6.177
 3833POPC   D2A51520   2.827  42.338   6.556
 3833POPC   C3A51521   2.601  42.224   6.879
 3833POPC   C4A51522   2.740  42.371   7.260
 3833POPC   C1B51523   3.090  42.034   6.074
 3833POPC   C2B51524   3.238  42.007   6.507
 3833POPC   C3B51525   3.131  42.182   6.931
 3833POPC   C4B51526   3.066  41.992   7.318
 3834POPC   NC351527  44.755   5.095   5.479
 3834POPC   PO451528  44.269   4.623   5.395
 3834POPC   GL151529  44.325   5.032   5.726
 3834POPC   GL251530  44.623   4.969   5.970
 3834POPC   C1A51531  44.325   5.311   6.154
 3834POPC   D2A51532  44.526   5.097   6.519
 3834POPC   C3A51533  44.628   5.315   6.896
 3834POPC   C4A51534  44.559   5.409   7.302
 3834POPC   C1B51535  44.965   4.819   6.275
 3834POPC   C2B51536   0.213   4.827   6.660
 3834POPC   C3B51537   0.001   4.781   7.051
 3834POPC   C4B51538  44.603   4.884   7.219
 3835POPC   NC351539  32.881  13.591   5.421
 3835POPC   PO451540  33.536  13.686   5.257
 3835POPC   GL151541  33.290  13.639   5.735
 3835POPC   GL251542  33.040  13.359   5.848
 3835POPC   C1A51543  33.050  13.838   6.116
 3835POPC   D2A51544  33.085  13.967   6.577
 3835POPC   C3A51545  32.859  13.880   6.988
 3835POPC   C4A51546  32.987  13.740   7.393
 3835POPC   C1B51547  33.052  13.353   6.309
 3835POPC   C2B51548  32.906  13.450   6.739
 3835POPC   C3B51549  33.005  13.266   7.172
 3835POPC   C4B51550  32.822  13.287   7.601
 3836POPC   NC351551  22.236  26.957   5.210
 3836POPC   PO451552  22.417  26.481   5.621
 3836POPC   GL151553  22.303  26.745   5.905
 3836POPC   GL251554  22.202  27.020   5.711
 3836POPC   C1A51555  22.146  26.769   6.313
 3836POPC   D2A51556  21.904  26.750   6.678
 3836POPC   C3A51557  22.204  26.758   7.039
 3836POPC   C4A51558  22.291  26.963   7.427
 3836POPC   C1B51559  22.062  27.202   6.066
 3836POPC   C2B51560  22.199  27.271   6.473
 3836POPC   C3B51561  22.008  27.207   6.861
 3836POPC   C4B51562  21.928  27.295   7.259
 3837POPC   NC351563   4.646  14.870   5.409
 3837POPC   PO451564   4.202  15.404   5.583
 3837POPC   GL151565   4.344  15.050   5.784
 3837POPC   GL251566   4.097  14.808   5.655
 3837POPC   C1A51567   4.398  14.992   6.207
 3837POPC   D2A51568   4.289  15.223   6.581
 3837POPC   C3A51569   4.573  15.211   6.937
 3837POPC   C4A51570   4.387  15.278   7.323
 3837POPC   C1B51571   3.977  14.739   6.085
 3837POPC   C2B51572   4.027  14.782   6.551
 3837POPC   C3B51573   4.125  14.954   6.995
 3837POPC   C4B51574   4.187  14.816   7.434
 3838POPC   NC351575  41.763  37.917   5.330
 3838POPC   PO451576  41.217  38.179   5.441
 3838POPC   GL151577  41.411  37.766   5.669
 3838POPC   GL251578  41.795  37.671   5.790
 3838POPC   C1A51579  41.387  37.635   6.102
 3838POPC   D2A51580  41.126  37.804   6.441
 3838POPC   C3A51581  41.272  37.711   6.842
 3838POPC   C4A51582  41.433  37.494   7.212
 3838POPC   C1B51583  41.833  37.877   6.193
 3838POPC   C2B51584  41.651  37.966   6.590
 3838POPC   C3B51585  41.756  37.854   7.023
 3838POPC   C4B51586  41.855  37.673   7.424
 3839POPC   NC351587   7.031  31.831   5.441
 3839POPC   PO451588   7.516  32.204   5.178
 3839POPC   GL151589   7.530  32.137   5.687
 3839POPC   GL251590   7.239  31.963   5.889
 3839POPC   C1A51591   7.606  32.141   6.162
 3839POPC   D2A51592   7.514  31.893   6.538
 3839POPC   C3A51593   7.693  32.030   6.918
 3839POPC   C4A51594   7.503  32.281   7.203
 3839POPC   C1B51595   7.116  32.208   6.289
 3839POPC   C2B51596   7.058  32.184   6.764
 3839POPC   C3B51597   7.000  32.240   7.229
 3839POPC   C4B51598   7.141  32.379   7.639
 3840POPC   NC351599  28.553   2.106   5.381
 3840POPC   PO451600  28.033   1.728   5.546
 3840POPC   GL151601  28.300   1.897   5.859
 3840POPC   GL251602  28.452   2.243   5.856
 3840POPC   C1A51603  28.300   1.744   6.292
 3840POPC   D2A51604  28.377   1.965   6.676
 3840POPC   C3A51605  28.165   1.910   7.050
 3840POPC   C4A51606  28.227   1.944   7.487
 3840POPC   C1B51607  28.327   2.303   6.278
 3840POPC   C2B51608  28.539   2.444   6.660
 3840POPC   C3B51609  28.416   2.343   7.096
 3840POPC   C4B51610  28.642   2.258   7.445
 3841POPC   NC351611  38.707   4.581   5.417
 3841POPC   PO451612  38.490   4.018   5.234
 3841POPC   GL151613  38.357   4.192   5.679
 3841POPC   GL251614  38.424   4.542   5.852
 3841POPC   C1A51615  38.300   4.155   6.174
 3841POPC   D2A51616  38.558   4.237   6.558
 3841POPC   C3A51617  38.428   4.230   7.010
 3841POPC   C4A51618  38.660   4.202   7.412
 3841POPC   C1B51619  38.410   4.756   6.287
 3841POPC   C2B51620  38.483   4.718   6.755
 3841POPC   C3B51621  38.720   4.660   7.162
 3841POPC   C4B51622  38.684   4.687   7.628
 3842POPC   NC351623  41.022  38.482   4.966
 3842POPC   PO451624  41.656  38.516   5.382
 3842POPC   GL151625  41.523  38.467   5.783
 3842POPC   GL251626  41.700  38.171   5.794
 3842POPC   C1A51627  41.374  38.656   6.197
 3842POPC   D2A51628  41.353  38.878   6.607
 3842POPC   C3A51629  41.442  38.725   7.041
 3842POPC   C4A51630  41.312  38.670   7.483
 3842POPC   C1B51631  41.388  38.143   6.142
 3842POPC   C2B51632  41.233  38.285   6.553
 3842POPC   C3B51633  41.362  38.208   6.969
 3842POPC   C4B51634  41.510  38.184   7.373
 3843POPC   NC351635  10.989  23.770   5.493
 3843POPC   PO451636  11.453  23.402   5.163
 3843POPC   GL151637  11.491  23.461   5.687
 3843POPC   GL251638  11.237  23.654   5.919
 3843POPC   C1A51639  11.492  23.316   6.169
 3843POPC   D2A51640  11.316  23.328   6.578
 3843POPC   C3A51641  11.491  23.582   6.888
 3843POPC   C4A51642  11.599  23.489   7.322
 3843POPC   C1B51643  11.446  23.797   6.334
 3843POPC   C2B51644  11.311  24.054   6.692
 3843POPC   C3B51645  11.348  24.001   7.148
 3843POPC   C4B51646  11.065  24.124   7.483
 3844POPC   NC351647  11.868  42.608   5.579
 3844POPC   PO451648  12.242  42.136   5.286
 3844POPC   GL151649  12.266  42.312   5.755
 3844POPC   GL251650  12.454  42.575   5.922
 3844POPC   C1A51651  12.109  42.331   6.215
 3844POPC   D2A51652  11.932  42.473   6.628
 3844POPC   C3A51653  11.989  42.187   6.975
 3844POPC   C4A51654  12.250  42.137   7.327
 3844POPC   C1B51655  12.610  42.430   6.291
 3844POPC   C2B51656  12.450  42.247   6.638
 3844POPC   C3B51657  12.382  42.519   6.966
 3844POPC   C4B51658  12.415  42.647   7.366
 3845POPC   NC351659  44.690  43.791   5.184
 3845POPC   PO451660  44.674  44.457   5.339
 3845POPC   GL151661  44.757  44.126   5.623
 3845POPC   GL251662  44.531  43.857   5.671
 3845POPC   C1A51663  44.924  44.057   6.032
 3845POPC   D2A51664  44.896  43.856   6.458
 3845POPC   C3A51665  44.821  43.977   6.876
 3845POPC   C4A51666  44.627  44.076   7.274
 3845POPC   C1B51667  44.581  43.680   6.099
 3845POPC   C2B51668  44.367  43.790   6.508
 3845POPC   C3B51669  44.341  43.772   6.931
 3845POPC   C4B51670  44.258  43.582   7.308
 3846POPC   NC351671  18.206  32.100   5.408
 3846POPC   PO451672  18.617  32.626   5.411
 3846POPC   GL151673  18.353  32.593   5.782
 3846POPC   GL251674  18.504  32.281   5.820
 3846POPC   C1A51675  18.175  32.496   6.226
 3846POPC   D2A51676  17.973  32.297   6.581
 3846POPC   C3A51677  17.934  32.447   6.988
 3846POPC   C4A51678  17.887  32.253   7.385
 3846POPC   C1B51679  18.632  32.279   6.262
 3846POPC   C2B51680  18.476  32.355   6.681
 3846POPC   C3B51681  18.435  32.493   7.094
 3846POPC   C4B51682  18.444  32.376   7.529
 3847POPC   NC351683  43.644   7.693   5.330
 3847POPC   PO451684  44.143   7.174   5.190
 3847POPC   GL151685  43.837   7.323   5.640
 3847POPC   GL251686  43.527   7.550   5.807
 3847POPC   C1A51687  43.899   7.422   6.119
 3847POPC   D2A51688  43.993   7.284   6.530
 3847POPC   C3A51689  44.167   7.523   6.862
 3847POPC   C4A51690  44.087   7.238   7.178
 3847POPC   C1B51691  43.385   7.446   6.214
 3847POPC   C2B51692  43.462   7.274   6.648
 3847POPC   C3B51693  43.644   7.466   7.013
 3847POPC   C4B51694  43.539   7.784   7.332
 3848POPC   NC351695   4.085  14.229   5.654
 3848POPC   PO451696   4.577  13.655   5.530
 3848POPC   GL151697   4.381  13.662   5.878
 3848POPC   GL251698   4.457  14.020   5.908
 3848POPC   C1A51699   4.417  13.428   6.276
 3848POPC   D2A51700   4.250  13.210   6.645
 3848POPC   C3A51701   4.190  13.456   7.005
 3848POPC   C4A51702   4.273  13.493   7.443
 3848POPC   C1B51703   4.254  13.933   6.287
 3848POPC   C2B51704   4.437  13.786   6.660
 3848POPC   C3B51705   4.246  13.957   6.983
 3848POPC   C4B51706   4.005  13.882   7.262
 3849POPC   NC351707  41.895  34.662   5.444
 3849POPC   PO451708  41.334  34.880   5.358
 3849POPC   GL151709  41.499  34.836   5.783
 3849POPC   GL251710  41.847  35.003   5.833
 3849POPC   C1A51711  41.324  34.721   6.214
 3849POPC   D2A51712  41.203  34.825   6.659
 3849POPC   C3A51713  41.425  34.681   7.039
 3849POPC   C4A51714  41.426  34.751   7.517
 3849POPC   C1B51715  41.832  34.623   6.121
 3849POPC   C2B51716  41.682  34.544   6.552
 3849POPC   C3B51717  41.913  34.591   6.908
 3849POPC   C4B51718  41.867  34.851   7.247
 3850POPC   NC351719  17.846  35.613   5.524
 3850POPC   PO451720  17.370  36.018   5.593
 3850POPC   GL151721  17.340  36.072   6.030
 3850POPC   GL251722  17.672  36.221   6.091
 3850POPC   C1A51723  17.424  36.140   6.505
 3850POPC   D2A51724  17.809  36.118   6.729
 3850POPC   C3A51725  17.654  36.048   7.127
 3850POPC   C4A51726  17.180  35.972   7.198
 3850POPC   C1B51727  17.310  36.540   6.211
 3850POPC   C2B51728  17.116  36.527   6.648
 3850POPC   C3B51729  17.347  36.454   7.055
 3850POPC   C4B51730  17.456  36.664   7.468
 3851POPC   NC351731  39.987  13.288   5.428
 3851POPC   PO451732  40.340  13.847   5.441
 3851POPC   GL151733  40.179  13.669   5.846
 3851POPC   GL251734  39.839  13.550   5.860
 3851POPC   C1A51735  40.147  13.555   6.297
 3851POPC   D2A51736  39.896  13.496   6.673
 3851POPC   C3A51737  40.072  13.675   7.043
 3851POPC   C4A51738  40.330  13.611   7.418
 3851POPC   C1B51739  39.615  13.604   6.243
 3851POPC   C2B51740  39.419  13.771   6.615
 3851POPC   C3B51741  39.555  13.665   7.007
 3851POPC   C4B51742  39.670  13.231   7.118
 3852POPC   NC351743   1.602  37.151   5.330
 3852POPC   PO451744   2.095  36.638   5.359
 3852POPC   GL151745   2.057  36.962   5.670
 3852POPC   GL251746   1.781  36.858   5.803
 3852POPC   C1A51747   2.138  36.953   6.150
 3852POPC   D2A51748   2.280  36.708   6.525
 3852POPC   C3A51749   2.126  36.672   6.969
 3852POPC   C4A51750   2.201  36.993   7.300
 3852POPC   C1B51751   1.664  36.773   6.218
 3852POPC   C2B51752   1.779  36.924   6.623
 3852POPC   C3B51753   1.756  37.004   7.061
 3852POPC   C4B51754   1.749  36.736   7.467
 3853POPC   NC351755  18.279  25.651   5.564
 3853POPC   PO451756  18.408  26.290   5.391
 3853POPC   GL151757  18.353  26.111   5.749
 3853POPC   GL251758  18.647  25.946   5.761
 3853POPC   C1A51759  18.349  26.145   6.167
 3853POPC   D2A51760  18.243  26.269   6.563
 3853POPC   C3A51761  18.182  26.057   6.911
 3853POPC   C4A51762  18.117  26.159   7.307
 3853POPC   C1B51763  18.571  25.697   6.120
 3853POPC   C2B51764  18.489  25.820   6.530
 3853POPC   C3B51765  18.683  25.956   6.871
 3853POPC   C4B51766  18.611  26.109   7.241
 3854POPC   NC351767  32.677  36.108   5.469
 3854POPC   PO451768  32.045  36.157   5.440
 3854POPC   GL151769  31.988  36.004   5.842
 3854POPC   GL251770  32.355  36.017   5.869
 3854POPC   C1A51771  32.045  35.865   6.266
 3854POPC   D2A51772  32.391  35.887   6.574
 3854POPC   C3A51773  32.258  36.018   6.982
 3854POPC   C4A51774  32.044  36.378   7.111
 3854POPC   C1B51775  32.347  36.291   6.203
 3854POPC   C2B51776  32.570  36.405   6.543
 3854POPC   C3B51777  32.549  36.493   6.944
 3854POPC   C4B51778  32.536  36.323   7.331
 3855POPC   NC351779  18.967  27.293   5.462
 3855POPC   PO451780  19.152  27.957   5.403
 3855POPC   GL151781  19.122  27.710   5.778
 3855POPC   GL251782  19.378  27.477   5.744
 3855POPC   C1A51783  19.027  27.711   6.234
 3855POPC   D2A51784  18.746  27.860   6.579
 3855POPC   C3A51785  18.940  27.780   6.984
 3855POPC   C4A51786  19.110  27.377   7.109
 3855POPC   C1B51787  19.353  27.297   6.172
 3855POPC   C2B51788  19.208  27.215   6.594
 3855POPC   C3B51789  19.526  27.177   6.890
 3855POPC   C4B51790  19.697  27.230   7.272
 3856POPC   NC351791  30.551  32.630   5.582
 3856POPC   PO451792  30.758  32.092   5.215
 3856POPC   GL151793  30.743  32.158   5.689
 3856POPC   GL251794  31.062  32.297   5.785
 3856POPC   C1A51795  30.670  32.326   6.142
 3856POPC   D2A51796  30.995  32.385   6.466
 3856POPC   C3A51797  30.839  32.294   6.876
 3856POPC   C4A51798  30.518  32.424   7.161
 3856POPC   C1B51799  31.059  31.986   6.122
 3856POPC   C2B51800  31.050  31.875   6.573
 3856POPC   C3B51801  31.159  31.909   7.011
 3856POPC   C4B51802  30.981  32.158   7.357
 3857POPC   NC351803  34.819  31.317   5.213
 3857POPC   PO451804  35.531  31.447   5.302
 3857POPC   GL151805  35.251  31.457   5.664
 3857POPC   GL251806  35.473  31.679   5.828
 3857POPC   C1A51807  35.220  31.317   6.095
 3857POPC   D2A51808  35.187  31.540   6.467
 3857POPC   C3A51809  35.317  31.286   6.824
 3857POPC   C4A51810  35.448  31.181   7.253
 3857POPC   C1B51811  35.685  31.574   6.215
 3857POPC   C2B51812  35.659  31.672   6.647
 3857POPC   C3B51813  35.497  31.700   7.056
 3857POPC   C4B51814  35.720  31.595   7.399
 3858POPC   NC351815   3.434   0.928   5.306
 3858POPC   PO451816   3.157   1.483   5.361
 3858POPC   GL151817   3.436   1.286   5.702
 3858POPC   GL251818   3.375   0.921   5.810
 3858POPC   C1A51819   3.606   1.351   6.140
 3858POPC   D2A51820   3.754   1.559   6.558
 3858POPC   C3A51821   3.633   1.425   6.971
 3858POPC   C4A51822   3.446   1.414   7.410
 3858POPC   C1B51823   3.662   0.841   6.143
 3858POPC   C2B51824   3.802   1.035   6.508
 3858POPC   C3B51825   3.608   0.915   6.915
 3858POPC   C4B51826   3.789   1.064   7.299
 3859POPC   NC351827  40.174  18.417   5.439
 3859POPC   PO451828  39.789  17.898   5.468
 3859POPC   GL151829  39.754  18.241   5.782
 3859POPC   GL251830  40.063  18.115   5.861
 3859POPC   C1A51831  39.911  18.467   6.182
 3859POPC   D2A51832  40.097  18.289   6.584
 3859POPC   C3A51833  39.927  18.483   6.940
 3859POPC   C4A51834  39.884  18.692   7.341
 3859POPC   C1B51835  39.889  17.947   6.243
 3859POPC   C2B51836  39.748  17.834   6.680
 3859POPC   C3B51837  40.001  17.958   7.029
 3859POPC   C4B51838  40.115  18.241   7.354
 3860POPC   NC351839  32.835   2.073   5.263
 3860POPC   PO451840  32.130   2.032   5.179
 3860POPC   GL151841  32.194   2.000   5.640
 3860POPC   GL251842  32.488   1.822   5.654
 3860POPC   C1A51843  32.255   2.180   6.089
 3860POPC   D2A51844  32.017   2.121   6.511
 3860POPC   C3A51845  32.221   1.998   6.914
 3860POPC   C4A51846  32.580   2.112   7.204
 3860POPC   C1B51847  32.690   1.867   6.059
 3860POPC   C2B51848  32.559   1.970   6.481
 3860POPC   C3B51849  32.651   1.720   6.854
 3860POPC   C4B51850  32.432   1.615   7.240
 3861POPC   NC351851  31.362  34.174   5.266
 3861POPC   PO451852  31.745  34.569   5.552
 3861POPC   GL151853  31.481  34.794   5.842
 3861POPC   GL251854  31.773  34.951   6.019
 3861POPC   C1A51855  31.355  34.756   6.285
 3861POPC   D2A51856  31.464  34.910   6.703
 3861POPC   C3A51857  31.316  34.623   7.019
 3861POPC   C4A51858  31.133  34.211   7.011
 3861POPC   C1B51859  31.822  34.549   6.202
 3861POPC   C2B51860  31.668  34.409   6.571
 3861POPC   C3B51861  31.795  34.433   6.963
 3861POPC   C4B51862  32.001  34.167   7.281
 3862POPC   NC351863  38.837  21.548   5.374
 3862POPC   PO451864  38.257  21.238   5.505
 3862POPC   GL151865  38.416  21.321   5.880
 3862POPC   GL251866  38.744  21.246   5.785
 3862POPC   C1A51867  38.492  21.546   6.239
 3862POPC   D2A51868  38.670  21.753   6.595
 3862POPC   C3A51869  38.498  21.630   6.976
 3862POPC   C4A51870  38.664  21.689   7.384
 3862POPC   C1B51871  38.776  21.008   6.157
 3862POPC   C2B51872  38.676  21.177   6.557
 3862POPC   C3B51873  38.698  21.007   6.959
 3862POPC   C4B51874  38.519  21.210   7.288
 3863POPC   NC351875  40.921  37.741   5.391
 3863POPC   PO451876  40.277  37.856   5.538
 3863POPC   GL151877  40.576  37.879   5.878
 3863POPC   GL251878  40.951  37.865   5.902
 3863POPC   C1A51879  40.616  37.808   6.309
 3863POPC   D2A51880  40.415  37.610   6.637
 3863POPC   C3A51881  40.612  37.809   6.974
 3863POPC   C4A51882  40.583  37.939   7.398
 3863POPC   C1B51883  40.917  37.447   6.145
 3863POPC   C2B51884  40.869  37.393   6.631
 3863POPC   C3B51885  40.944  37.420   7.108
 3863POPC   C4B51886  41.046  37.447   7.573
 3864POPC   NC351887   9.178   5.188   5.377
 3864POPC   PO451888   9.718   5.178   5.628
 3864POPC   GL151889   9.743   5.006   6.076
 3864POPC   GL251890   9.909   4.669   6.118
 3864POPC   C1A51891   9.614   4.856   6.497
 3864POPC   D2A51892   9.787   4.673   6.882
 3864POPC   C3A51893   9.631   4.947   7.197
 3864POPC   C4A51894   9.353   4.895   7.579
 3864POPC   C1B51895  10.123   4.812   6.509
 3864POPC   C2B51896  10.003   5.133   6.818
 3864POPC   C3B51897  10.096   5.184   7.252
 3864POPC   C4B51898  10.341   4.915   7.555
 3865POPC   NC351899  41.833  15.666   5.478
 3865POPC   PO451900  42.377  16.077   5.476
 3865POPC   GL151901  42.256  15.840   5.832
 3865POPC   GL251902  41.931  15.947   5.952
 3865POPC   C1A51903  42.484  15.928   6.201
 3865POPC   D2A51904  42.514  16.223   6.518
 3865POPC   C3A51905  42.397  16.112   6.931
 3865POPC   C4A51906  42.536  15.752   7.186
 3865POPC   C1B51907  42.025  16.103   6.392
 3865POPC   C2B51908  42.086  16.482   6.681
 3865POPC   C3B51909  42.125  16.473   7.152
 3865POPC   C4B51910  42.224  16.326   7.610
 3866POPC   NC351911  40.472  29.232   5.093
 3866POPC   PO451912  40.892  29.653   5.430
 3866POPC   GL151913  40.620  29.829   5.720
 3866POPC   GL251914  40.883  29.927   5.905
 3866POPC   C1A51915  40.463  29.779   6.148
 3866POPC   D2A51916  40.638  29.924   6.528
 3866POPC   C3A51917  40.890  29.775   6.867
 3866POPC   C4A51918  40.595  29.775   7.209
 3866POPC   C1B51919  41.085  30.038   6.268
 3866POPC   C2B51920  41.365  30.082   6.591
 3866POPC   C3B51921  41.164  30.262   6.945
 3866POPC   C4B51922  40.953  30.127   7.299
 3867POPC   NC351923  26.062   2.820   5.194
 3867POPC   PO451924  25.591   2.891   5.677
 3867POPC   GL151925  25.955   2.657   5.827
 3867POPC   GL251926  26.320   2.665   5.692
 3867POPC   C1A51927  25.996   2.421   6.200
 3867POPC   D2A51928  26.250   2.397   6.572
 3867POPC   C3A51929  26.107   2.547   6.992
 3867POPC   C4A51930  26.058   2.440   7.437
 3867POPC   C1B51931  26.403   2.754   6.178
 3867POPC   C2B51932  26.252   2.903   6.631
 3867POPC   C3B51933  26.311   3.029   7.100
 3867POPC   C4B51934  26.104   3.362   7.387
 3868POPC   NC351935  28.688  40.161   5.499
 3868POPC   PO451936  28.021  40.159   5.742
 3868POPC   GL151937  28.227  39.780   5.865
 3868POPC   GL251938  28.566  39.883   5.924
 3868POPC   C1A51939  28.270  39.690   6.312
 3868POPC   D2A51940  28.481  39.771   6.721
 3868POPC   C3A51941  28.225  39.833   7.116
 3868POPC   C4A51942  28.069  40.204   7.353
 3868POPC   C1B51943  28.510  40.181   6.276
 3868POPC   C2B51944  28.736  40.214   6.674
 3868POPC   C3B51945  28.673  40.091   7.110
 3868POPC   C4B51946  28.607  40.391   7.408
 3869POPC   NC351947  34.625  34.307   5.397
 3869POPC   PO451948  34.826  33.603   5.336
 3869POPC   GL151949  34.637  33.772   5.725
 3869POPC   GL251950  34.321  33.639   5.843
 3869POPC   C1A51951  34.774  33.909   6.144
 3869POPC   D2A51952  34.622  34.080   6.543
 3869POPC   C3A51953  34.833  34.156   6.934
 3869POPC   C4A51954  34.789  33.815   7.191
 3869POPC   C1B51955  34.382  33.574   6.265
 3869POPC   C2B51956  34.420  33.631   6.692
 3869POPC   C3B51957  34.334  33.964   6.983
 3869POPC   C4B51958  34.125  33.861   7.332
 3870POPC   NC351959  15.393  30.317   5.056
 3870POPC   PO451960  15.126  30.894   5.284
 3870POPC   GL151961  15.374  30.853   5.651
 3870POPC   GL251962  15.087  30.680   5.765
 3870POPC   C1A51963  15.345  31.021   6.089
 3870POPC   D2A51964  15.299  30.955   6.554
 3870POPC   C3A51965  15.519  30.618   6.758
 3870POPC   C4A51966  15.610  30.496   7.183
 3870POPC   C1B51967  15.160  30.523   6.171
 3870POPC   C2B51968  14.990  30.554   6.565
 3870POPC   C3B51969  15.068  30.667   7.000
 3870POPC   C4B51970  14.865  30.408   7.310
 3871POPC   NC351971  32.728  10.855   5.328
 3871POPC   PO451972  33.319  10.445   5.546
 3871POPC   GL151973  33.153  10.611   5.916
 3871POPC   GL251974  32.839  10.631   5.771
 3871POPC   C1A51975  33.036  10.618   6.365
 3871POPC   D2A51976  32.934  10.944   6.663
 3871POPC   C3A51977  32.800  10.902   7.103
 3871POPC   C4A51978  32.990  10.765   7.464
 3871POPC   C1B51979  32.709  10.321   6.057
 3871POPC   C2B51980  32.609  10.340   6.493
 3871POPC   C3B51981  32.786  10.447   6.857
 3871POPC   C4B51982  32.774  10.357   7.277
 3872POPC   NC351983  41.106  35.135   5.051
 3872POPC   PO451984  40.601  35.312   5.478
 3872POPC   GL151985  40.557  35.198   5.880
 3872POPC   GL251986  40.646  34.867   5.867
 3872POPC   C1A51987  40.525  35.411   6.262
 3872POPC   D2A51988  40.784  35.638   6.572
 3872POPC   C3A51989  40.630  35.527   6.941
 3872POPC   C4A51990  40.694  35.416   7.345
 3872POPC   C1B51991  40.857  34.967   6.246
 3872POPC   C2B51992  40.773  35.123   6.639
 3872POPC   C3B51993  40.822  34.931   7.050
 3872POPC   C4B51994  40.809  34.965   7.508
 3873POPC   NC351995  37.824   6.465   5.280
 3873POPC   PO451996  37.452   7.034   5.414
 3873POPC   GL151997  37.576   6.874   5.840
 3873POPC   GL251998  37.707   6.565   5.765
 3873POPC   C1A51999  37.559   6.657   6.249
 3873POPC   D2A52000  37.514   6.478   6.641
 3873POPC   C3A52001  37.690   6.736   6.930
 3873POPC   C4A52002  37.425   6.958   7.176
 3873POPC   C1B52003  37.980   6.391   6.101
 3873POPC   C2B52004  38.017   6.526   6.530
 3873POPC   C3B52005  38.017   6.355   6.973
 3873POPC   C4B52006  38.188   6.419   7.383
 3874POPC   NC352007  13.050  41.075   5.502
 3874POPC   PO452008  12.855  40.526   5.460
 3874POPC   GL152009  12.870  40.687   5.851
 3874POPC   GL252010  12.933  40.323   5.925
 3874POPC   C1A52011  12.769  40.909   6.265
 3874POPC   D2A52012  12.579  40.932   6.698
 3874POPC   C3A52013  12.875  40.905   7.088
 3874POPC   C4A52014  12.956  40.912   7.562
 3874POPC   C1B52015  13.134  40.545   6.253
 3874POPC   C2B52016  12.969  40.607   6.647
 3874POPC   C3B52017  13.056  40.418   7.001
 3874POPC   C4B52018  12.842  40.350   7.354
 3875POPC   NC352019  35.180  16.522   5.358
 3875POPC   PO452020  35.630  17.017   5.187
 3875POPC   GL152021  35.430  16.891   5.620
 3875POPC   GL252022  35.178  17.065   5.772
 3875POPC   C1A52023  35.388  16.719   6.075
 3875POPC   D2A52024  35.446  16.844   6.505
 3875POPC   C3A52025  35.281  16.654   6.875
 3875POPC   C4A52026  35.486  16.833   7.244
 3875POPC   C1B52027  34.989  17.099   6.158
 3875POPC   C2B52028  34.916  16.909   6.552
 3875POPC   C3B52029  34.852  17.001   6.973
 3875POPC   C4B52030  35.007  16.732   7.303
 3876POPC   NC352031  28.979  29.483   5.089
 3876POPC   PO452032  29.372  29.033   5.364
 3876POPC   GL152033  29.087  29.143   5.746
 3876POPC   GL252034  29.355  29.180   5.945
 3876POPC   C1A52035  28.848  29.184   6.141
 3876POPC   D2A52036  28.882  29.049   6.586
 3876POPC   C3A52037  29.112  29.308   6.881
 3876POPC   C4A52038  29.095  29.334   7.329
 3876POPC   C1B52039  29.268  28.897   6.287
 3876POPC   C2B52040  29.355  28.852   6.715
 3876POPC   C3B52041  29.308  28.898   7.141
 3876POPC   C4B52042  29.582  29.059   7.440
 3877POPC   NC352043  40.967  20.979   5.572
 3877POPC   PO452044  40.436  21.402   5.487
 3877POPC   GL152045  40.698  21.407   5.811
 3877POPC   GL252046  40.624  21.736   5.865
 3877POPC   C1A52047  40.809  21.217   6.216
 3877POPC   D2A52048  40.626  21.100   6.615
 3877POPC   C3A52049  40.807  21.231   7.000
 3877POPC   C4A52050  40.918  21.428   7.364
 3877POPC   C1B52051  40.459  21.598   6.234
 3877POPC   C2B52052  40.369  21.782   6.591
 3877POPC   C3B52053  40.443  21.587   6.962
 3877POPC   C4B52054  40.450  21.742   7.352
 3878POPC   NC352055  38.854  40.268   5.540
 3878POPC   PO452056  38.607  39.600   5.457
 3878POPC   GL152057  38.506  39.723   5.862
 3878POPC   GL252058  38.487  40.094   5.855
 3878POPC   C1A52059  38.496  39.820   6.297
 3878POPC   D2A52060  38.288  39.877   6.678
 3878POPC   C3A52061  38.552  39.882   7.019
 3878POPC   C4A52062  38.607  39.847   7.453
 3878POPC   C1B52063  38.833  40.173   6.155
 3878POPC   C2B52064  38.758  40.194   6.548
 3878POPC   C3B52065  38.529  40.386   6.855
 3878POPC   C4B52066  38.566  40.331   7.278
 3879POPC   NC352067  15.776  33.108   5.383
 3879POPC   PO452068  16.311  33.451   5.643
 3879POPC   GL152069  16.184  33.100   5.881
 3879POPC   GL252070  16.175  32.759   5.814
 3879POPC   C1A52071  16.280  33.022   6.289
 3879POPC   D2A52072  16.013  33.009   6.648
 3879POPC   C3A52073  16.173  33.110   7.060
 3879POPC   C4A52074  15.995  33.091   7.475
 3879POPC   C1B52075  15.916  32.680   6.218
 3879POPC   C2B52076  15.789  32.550   6.646
 3879POPC   C3B52077  15.862  32.703   7.063
 3879POPC   C4B52078  15.646  32.742   7.444
 3880POPC   NC352079  40.302  33.336   5.598
 3880POPC   PO452080  39.715  32.943   5.484
 3880POPC   GL152081  39.958  32.915   5.881
 3880POPC   GL252082  40.170  33.188   6.079
 3880POPC   C1A52083  40.076  32.726   6.256
 3880POPC   D2A52084  40.185  32.875   6.656
 3880POPC   C3A52085  40.127  33.070   7.030
 3880POPC   C4A52086  40.142  32.990   7.471
 3880POPC   C1B52087  39.779  33.132   6.323
 3880POPC   C2B52088  39.671  33.139   6.763
 3880POPC   C3B52089  39.667  33.150   7.227
 3880POPC   C4B52090  39.569  33.092   7.684
 3881POPC   NC352091  43.468   1.085   5.373
 3881POPC   PO452092  42.855   1.207   5.212
 3881POPC   GL152093  43.011   1.102   5.627
 3881POPC   GL252094  43.024   1.422   5.849
 3881POPC   C1A52095  43.229   0.960   6.008
 3881POPC   D2A52096  43.166   1.092   6.425
 3881POPC   C3A52097  43.247   1.003   6.892
 3881POPC   C4A52098  43.114   1.204   7.334
 3881POPC   C1B52099  42.813   1.459   6.278
 3881POPC   C2B52100  42.750   1.591   6.727
 3881POPC   C3B52101  42.799   1.603   7.200
 3881POPC   C4B52102  42.883   1.538   7.664
 3882POPC   NC352103   4.834   6.883   5.178
 3882POPC   PO452104   5.019   6.334   5.397
 3882POPC   GL152105   4.696   6.408   5.766
 3882POPC   GL252106   4.503   6.116   5.897
 3882POPC   C1A52107   4.741   6.551   6.230
 3882POPC   D2A52108   5.019   6.785   6.529
 3882POPC   C3A52109   5.114   6.644   6.936
 3882POPC   C4A52110   5.034   6.890   7.271
 3882POPC   C1B52111   4.787   6.034   6.192
 3882POPC   C2B52112   4.957   6.192   6.568
 3882POPC   C3B52113   4.768   6.253   6.964
 3882POPC   C4B52114   4.895   6.400   7.371
 3883POPC   NC352115  18.507  15.088   5.243
 3883POPC   PO452116  17.884  15.314   5.318
 3883POPC   GL152117  18.099  15.284   5.715
 3883POPC   GL252118  18.451  15.096   5.750
 3883POPC   C1A52119  18.031  15.381   6.157
 3883POPC   D2A52120  17.968  15.499   6.586
 3883POPC   C3A52121  17.818  15.231   6.905
 3883POPC   C4A52122  17.940  15.386   7.294
 3883POPC   C1B52123  18.457  15.088   6.190
 3883POPC   C2B52124  18.206  15.041   6.552
 3883POPC   C3B52125  18.315  15.214   6.946
 3883POPC   C4B52126  18.407  15.134   7.370
 3884POPC   NC352127  35.296  33.573   5.298
 3884POPC   PO452128  35.782  33.863   5.472
 3884POPC   GL152129  35.516  33.731   5.784
 3884POPC   GL252130  35.145  33.662   5.801
 3884POPC   C1A52131  35.408  33.967   6.162
 3884POPC   D2A52132  35.131  34.066   6.497
 3884POPC   C3A52133  35.217  33.828   6.857
 3884POPC   C4A52134  35.281  33.985   7.264
 3884POPC   C1B52135  35.340  33.467   6.192
 3884POPC   C2B52136  35.634  33.300   6.500
 3884POPC   C3B52137  35.411  33.305   6.882
 3884POPC   C4B52138  35.215  33.491   7.239
 3885POPC   NC352139  25.817  33.981   4.972
 3885POPC   PO452140  26.000  33.528   5.402
 3885POPC   GL152141  26.160  33.693   5.830
 3885POPC   GL252142  26.422  33.927   5.821
 3885POPC   C1A52143  26.022  33.775   6.255
 3885POPC   D2A52144  25.810  33.610   6.631
 3885POPC   C3A52145  25.972  33.493   7.041
 3885POPC   C4A52146  26.062  33.650   7.462
 3885POPC   C1B52147  26.534  33.869   6.280
 3885POPC   C2B52148  26.315  33.753   6.686
 3885POPC   C3B52149  26.316  33.919   7.111
 3885POPC   C4B52150  26.389  34.039   7.541
 3886POPC   NC352151  34.605  13.441   5.293
 3886POPC   PO452152  34.036  13.219   5.558
 3886POPC   GL152153  34.333  13.441   5.821
 3886POPC   GL252154  34.690  13.384   5.804
 3886POPC   C1A52155  34.475  13.603   6.214
 3886POPC   D2A52156  34.565  13.817   6.583
 3886POPC   C3A52157  34.424  13.523   6.850
 3886POPC   C4A52158  34.271  13.407   7.215
 3886POPC   C1B52159  34.890  13.271   6.205
 3886POPC   C2B52160  35.093  13.538   6.517
 3886POPC   C3B52161  34.944  13.550   6.937
 3886POPC   C4B52162  34.692  13.679   7.297
 3887POPC   NC352163  18.751  11.613   5.477
 3887POPC   PO452164  19.007  10.997   5.583
 3887POPC   GL152165  19.006  11.337   5.847
 3887POPC   GL252166  19.311  11.408   6.022
 3887POPC   C1A52167  18.823  11.476   6.204
 3887POPC   D2A52168  19.012  11.424   6.619
 3887POPC   C3A52169  18.875  11.673   7.003
 3887POPC   C4A52170  19.091  11.718   7.412
 3887POPC   C1B52171  19.142  10.995   6.210
 3887POPC   C2B52172  19.287  10.701   6.526
 3887POPC   C3B52173  19.294  10.887   6.931
 3887POPC   C4B52174  19.249  11.328   7.086
 3888POPC   NC352175  38.361  11.562   5.574
 3888POPC   PO452176  38.493  10.961   5.382
 3888POPC   GL152177  38.461  11.111   5.796
 3888POPC   GL252178  38.721  11.367   5.854
 3888POPC   C1A52179  38.322  11.239   6.202
 3888POPC   D2A52180  38.534  11.326   6.581
 3888POPC   C3A52181  38.439  11.107   6.954
 3888POPC   C4A52182  38.469  11.262   7.366
 3888POPC   C1B52183  38.683  11.639   6.203
 3888POPC   C2B52184  38.614  11.842   6.595
 3888POPC   C3B52185  38.602  11.623   7.003
 3888POPC   C4B52186  38.777  11.664   7.445
 3889POPC   NC352187  25.058  42.152   5.543
 3889POPC   PO452188  25.609  42.459   5.396
 3889POPC   GL152189  25.393  42.472   5.777
 3889POPC   GL252190  25.033  42.621   5.790
 3889POPC   C1A52191  25.347  42.276   6.175
 3889POPC   D2A52192  25.057  42.407   6.465
 3889POPC   C3A52193  25.243  42.561   6.799
 3889POPC   C4A52194  25.279  42.332   7.159
 3889POPC   C1B52195  24.848  42.786   6.190
 3889POPC   C2B52196  24.742  42.762   6.656
 3889POPC   C3B52197  24.846  42.626   7.107
 3889POPC   C4B52198  24.975  42.628   7.580
 3890POPC   NC352199  15.007  16.018   5.319
 3890POPC   PO452200  14.699  15.521   5.686
 3890POPC   GL152201  15.029  15.701   5.943
 3890POPC   GL252202  15.231  15.972   5.817
 3890POPC   C1A52203  15.131  15.862   6.345
 3890POPC   D2A52204  14.943  16.144   6.623
 3890POPC   C3A52205  15.064  16.096   7.050
 3890POPC   C4A52206  15.255  15.781   7.266
 3890POPC   C1B52207  15.321  16.299   6.160
 3890POPC   C2B52208  15.450  16.199   6.596
 3890POPC   C3B52209  15.523  16.306   7.025
 3890POPC   C4B52210  15.352  16.258   7.468
 3891POPC   NC352211  36.750  27.955   5.569
 3891POPC   PO452212  36.970  28.579   5.410
 3891POPC   GL152213  36.944  28.379   5.830
 3891POPC   GL252214  37.179  28.094   5.876
 3891POPC   C1A52215  36.880  28.277   6.272
 3891POPC   D2A52216  37.064  28.196   6.684
 3891POPC   C3A52217  36.862  28.370   7.042
 3891POPC   C4A52218  36.690  28.269   7.418
 3891POPC   C1B52219  37.364  28.381   6.209
 3891POPC   C2B52220  37.402  28.557   6.638
 3891POPC   C3B52221  37.375  28.398   7.080
 3891POPC   C4B52222  37.152  28.454   7.485
 3892POPC   NC352223  33.282  16.179   4.969
 3892POPC   PO452224  33.003  16.461   5.441
 3892POPC   GL152225  33.089  16.704   5.765
 3892POPC   GL252226  33.397  16.798   5.729
 3892POPC   C1A52227  33.058  16.609   6.189
 3892POPC   D2A52228  33.095  16.766   6.589
 3892POPC   C3A52229  33.044  16.581   6.953
 3892POPC   C4A52230  33.030  16.894   7.259
 3892POPC   C1B52231  33.401  17.011   6.119
 3892POPC   C2B52232  33.402  17.212   6.531
 3892POPC   C3B52233  33.429  17.019   6.935
 3892POPC   C4B52234  33.499  17.135   7.360
 3893POPC   NC352235   7.236  44.515   5.449
 3893POPC   PO452236   7.822  44.884   5.301
 3893POPC   GL152237   7.812  44.580   5.625
 3893POPC   GL252238   7.536  44.735   5.786
 3893POPC   C1A52239   7.840  44.500   6.092
 3893POPC   D2A52240   7.697  44.744   6.469
 3893POPC   C3A52241   7.584  44.405   6.779
 3893POPC   C4A52242   7.542  44.423   7.224
 3893POPC   C1B52243   7.321  44.575   6.167
 3893POPC   C2B52244   7.195  44.748   6.553
 3893POPC   C3B52245   7.352  44.815   6.945
 3893POPC   C4B52246   7.056  44.573   7.216
 3894POPC   NC352247   6.656  19.396   5.332
 3894POPC   PO452248   6.361  20.055   5.299
 3894POPC   GL152249   6.655  19.808   5.657
 3894POPC   GL252250   6.511  19.479   5.832
 3894POPC   C1A52251   6.696  19.811   6.161
 3894POPC   D2A52252   6.758  19.792   6.635
 3894POPC   C3A52253   6.559  19.726   7.083
 3894POPC   C4A52254   6.251  20.011   7.308
 3894POPC   C1B52255   6.346  19.238   6.203
 3894POPC   C2B52256   6.312  19.343   6.668
 3894POPC   C3B52257   6.348  19.163   7.103
 3894POPC   C4B52258   6.583  19.321   7.475
 3895POPC   NC352259  36.092   4.501   5.420
 3895POPC   PO452260  36.016   3.919   5.481
 3895POPC   GL152261  35.894   4.222   5.834
 3895POPC   GL252262  35.918   4.599   5.892
 3895POPC   C1A52263  35.951   4.281   6.288
 3895POPC   D2A52264  36.227   4.298   6.639
 3895POPC   C3A52265  36.036   4.190   7.039
 3895POPC   C4A52266  36.233   4.197   7.440
 3895POPC   C1B52267  35.831   4.782   6.310
 3895POPC   C2B52268  35.796   4.581   6.731
 3895POPC   C3B52269  36.009   4.681   7.145
 3895POPC   C4B52270  35.951   4.598   7.573
 3896POPC   NC352271   3.624  33.422   5.718
 3896POPC   PO452272   3.633  32.893   5.345
 3896POPC   GL152273   3.503  32.897   5.785
 3896POPC   GL252274   3.185  33.062   5.778
 3896POPC   C1A52275   3.489  32.919   6.263
 3896POPC   D2A52276   3.758  32.997   6.648
 3896POPC   C3A52277   3.632  33.086   7.060
 3896POPC   C4A52278   3.473  32.795   7.328
 3896POPC   C1B52279   3.022  32.745   6.057
 3896POPC   C2B52280   3.024  32.783   6.492
 3896POPC   C3B52281   3.252  32.791   6.871
 3896POPC   C4B52282   3.038  32.608   7.204
 3897POPC   NC352283  22.604  29.596   5.484
 3897POPC   PO452284  23.255  29.728   5.757
 3897POPC   GL152285  22.838  29.880   5.837
 3897POPC   GL252286  22.809  30.228   5.828
 3897POPC   C1A52287  22.639  29.833   6.220
 3897POPC   D2A52288  22.850  29.729   6.604
 3897POPC   C3A52289  23.146  29.987   6.819
 3897POPC   C4A52290  23.113  29.944   7.228
 3897POPC   C1B52291  23.016  30.187   6.252
 3897POPC   C2B52292  22.765  30.262   6.609
 3897POPC   C3B52293  22.797  30.317   7.038
 3897POPC   C4B52294  22.609  30.198   7.421
 3898POPC   NC352295  43.205  34.918   5.656
 3898POPC   PO452296  42.976  34.397   5.346
 3898POPC   GL152297  42.910  34.493   5.738
 3898POPC   GL252298  42.614  34.335   5.712
 3898POPC   C1A52299  43.083  34.533   6.165
 3898POPC   D2A52300  43.264  34.323   6.493
 3898POPC   C3A52301  43.325  34.551   6.882
 3898POPC   C4A52302  43.229  34.695   7.312
 3898POPC   C1B52303  42.722  34.178   6.100
 3898POPC   C2B52304  42.759  34.307   6.537
 3898POPC   C3B52305  42.881  34.257   6.978
 3898POPC   C4B52306  42.575  34.110   7.291
 3899POPC   NC352307   7.257   1.696   5.459
 3899POPC   PO452308   7.586   2.365   5.397
 3899POPC   GL152309   7.504   2.100   5.719
 3899POPC   GL252310   7.203   2.112   5.913
 3899POPC   C1A52311   7.589   1.841   6.058
 3899POPC   D2A52312   7.713   1.889   6.420
 3899POPC   C3A52313   7.421   1.943   6.727
 3899POPC   C4A52314   7.550   1.794   7.109
 3899POPC   C1B52315   7.393   2.332   6.269
 3899POPC   C2B52316   7.401   2.455   6.721
 3899POPC   C3B52317   7.192   2.307   7.101
 3899POPC   C4B52318   7.279   2.021   7.462
 3900POPC   NC352319  26.781  30.031   5.426
 3900POPC   PO452320  27.015  29.382   5.503
 3900POPC   GL152321  26.837  29.707   5.825
 3900POPC   GL252322  26.625  30.054   5.891
 3900POPC   C1A52323  26.938  29.813   6.259
 3900POPC   D2A52324  26.827  30.012   6.665
 3900POPC   C3A52325  26.935  29.813   7.046
 3900POPC   C4A52326  26.773  29.499   7.286
 3900POPC   C1B52327  26.476  30.041   6.280
 3900POPC   C2B52328  26.298  30.045   6.683
 3900POPC   C3B52329  26.487  30.166   7.046
 3900POPC   C4B52330  26.602  29.951   7.427
 3901POPC   NC352331  18.195  24.297   5.418
 3901POPC   PO452332  18.727  24.605   5.407
 3901POPC   GL152333  18.503  24.661   5.822
 3901POPC   GL252334  18.147  24.815   5.775
 3901POPC   C1A52335  18.595  24.483   6.260
 3901POPC   D2A52336  18.684  24.352   6.690
 3901POPC   C3A52337  18.354  24.285   6.963
 3901POPC   C4A52338  18.313  24.244   7.405
 3901POPC   C1B52339  18.063  24.595   6.200
 3901POPC   C2B52340  18.036  24.611   6.700
 3901POPC   C3B52341  18.126  24.692   7.190
 3901POPC   C4B52342  18.007  24.555   7.653
 3902POPC   NC352343  40.686  14.129   5.455
 3902POPC   PO452344  41.009  14.697   5.425
 3902POPC   GL152345  40.640  14.586   5.765
 3902POPC   GL252346  40.353  14.315   5.796
 3902POPC   C1A52347  40.534  14.570   6.226
 3902POPC   D2A52348  40.625  14.347   6.642
 3902POPC   C3A52349  40.951  14.215   6.957
 3902POPC   C4A52350  41.028  14.333   7.380
 3902POPC   C1B52351  40.381  14.032   6.188
 3902POPC   C2B52352  40.345  13.900   6.648
 3902POPC   C3B52353  40.508  13.963   7.067
 3902POPC   C4B52354  40.780  13.879   7.442
 3903POPC   NC352355   4.147   7.108   5.539
 3903POPC   PO452356   4.044   6.482   5.233
 3903POPC   GL152357   4.158   6.588   5.659
 3903POPC   GL252358   3.871   6.752   5.781
 3903POPC   C1A52359   4.232   6.502   6.110
 3903POPC   D2A52360   4.382   6.250   6.481
 3903POPC   C3A52361   4.292   6.509   6.845
 3903POPC   C4A52362   4.599   6.728   7.045
 3903POPC   C1B52363   3.999   6.977   6.163
 3903POPC   C2B52364   4.026   6.883   6.594
 3903POPC   C3B52365   3.993   6.970   7.013
 3903POPC   C4B52366   4.135   6.929   7.442
 3904POPC   NC352367   7.286   6.715   5.359
 3904POPC   PO452368   7.446   6.033   5.467
 3904POPC   GL152369   7.249   6.299   5.808
 3904POPC   GL252370   7.150   6.668   5.828
 3904POPC   C1A52371   7.366   6.413   6.247
 3904POPC   D2A52372   7.307   6.194   6.638
 3904POPC   C3A52373   7.379   6.336   7.038
 3904POPC   C4A52374   7.740   6.476   7.240
 3904POPC   C1B52375   7.156   6.905   6.179
 3904POPC   C2B52376   7.344   6.809   6.608
 3904POPC   C3B52377   7.415   7.003   7.006
 3904POPC   C4B52378   7.589   6.935   7.411
 3905POPC   NC352379  43.470   0.085   5.385
 3905POPC   PO452380  43.278   0.712   5.154
 3905POPC   GL152381  43.160   0.526   5.614
 3905POPC   GL252382  43.065   0.153   5.693
 3905POPC   C1A52383  43.062   0.485   6.088
 3905POPC   D2A52384  42.940   0.638   6.503
 3905POPC   C3A52385  43.021   0.519   6.888
 3905POPC   C4A52386  42.907   0.733   7.275
 3905POPC   C1B52387  43.319   0.042   6.059
 3905POPC   C2B52388  43.310   0.194   6.490
 3905POPC   C3B52389  43.343   0.111   6.917
 3905POPC   C4B52390  43.069   0.175   7.271
 3906POPC   NC352391   6.092  38.176   5.522
 3906POPC   PO452392   6.570  38.748   5.365
 3906POPC   GL152393   6.706  38.565   5.772
 3906POPC   GL252394   6.478  38.333   5.813
 3906POPC   C1A52395   6.842  38.433   6.173
 3906POPC   D2A52396   6.654  38.271   6.533
 3906POPC   C3A52397   6.778  38.504   6.873
 3906POPC   C4A52398   6.628  38.552   7.293
 3906POPC   C1B52399   6.254  38.308   6.202
 3906POPC   C2B52400   6.118  38.202   6.633
 3906POPC   C3B52401   6.198  38.288   7.085
 3906POPC   C4B52402   6.333  38.127   7.492
 3907POPC   NC352403  10.483  12.066   5.196
 3907POPC   PO452404  10.621  11.408   5.399
 3907POPC   GL152405  10.580  11.787   5.710
 3907POPC   GL252406  10.458  12.133   5.691
 3907POPC   C1A52407  10.444  11.899   6.154
 3907POPC   D2A52408  10.261  11.758   6.565
 3907POPC   C3A52409  10.445  11.899   6.992
 3907POPC   C4A52410  10.804  12.092   7.204
 3907POPC   C1B52411  10.190  12.313   5.980
 3907POPC   C2B52412  10.192  12.266   6.440
 3907POPC   C3B52413  10.140  12.284   6.868
 3907POPC   C4B52414  10.433  12.478   7.143
 3908POPC   NC352415  29.215  37.903   5.323
 3908POPC   PO452416  29.434  37.272   5.298
 3908POPC   GL152417  29.360  37.517   5.719
 3908POPC   GL252418  29.018  37.727   5.761
 3908POPC   C1A52419  29.274  37.483   6.182
 3908POPC   D2A52420  28.902  37.536   6.479
 3908POPC   C3A52421  28.907  37.586   6.951
 3908POPC   C4A52422  29.254  37.576   7.259
 3908POPC   C1B52423  29.259  37.987   6.033
 3908POPC   C2B52424  29.327  37.899   6.471
 3908POPC   C3B52425  29.218  38.009   6.888
 3908POPC   C4B52426  29.503  38.034   7.220
 3909POPC   NC352427  41.472  40.700   5.368
 3909POPC   PO452428  42.155  40.786   5.644
 3909POPC   GL152429  41.762  40.613   5.768
 3909POPC   GL252430  41.532  40.932   5.815
 3909POPC   C1A52431  41.504  40.473   6.098
 3909POPC   D2A52432  41.610  40.712   6.445
 3909POPC   C3A52433  41.502  40.657   6.855
 3909POPC   C4A52434  41.754  40.687   7.217
 3909POPC   C1B52435  41.240  40.933   6.145
 3909POPC   C2B52436  41.073  40.744   6.490
 3909POPC   C3B52437  41.001  40.793   6.920
 3909POPC   C4B52438  41.248  40.836   7.292
 3910POPC   NC352439   3.512   9.246   5.128
 3910POPC   PO452440   3.600   8.747   5.633
 3910POPC   GL152441   3.638   8.904   6.008
 3910POPC   GL252442   3.304   8.865   6.036
 3910POPC   C1A52443   3.708   8.949   6.482
 3910POPC   D2A52444   3.496   8.879   6.907
 3910POPC   C3A52445   3.712   8.819   7.312
 3910POPC   C4A52446   3.628   8.635   7.742
 3910POPC   C1B52447   3.369   9.256   6.265
 3910POPC   C2B52448   3.367   9.323   6.680
 3910POPC   C3B52449   3.163   9.350   7.044
 3910POPC   C4B52450   3.222   9.019   7.342
 3911POPC   NC352451  21.810  29.122   5.478
 3911POPC   PO452452  21.245  28.741   5.518
 3911POPC   GL152453  21.164  28.891   5.937
 3911POPC   GL252454  21.381  29.164   5.901
 3911POPC   C1A52455  21.417  28.835   6.329
 3911POPC   D2A52456  21.630  29.014   6.709
 3911POPC   C3A52457  21.428  28.955   7.096
 3911POPC   C4A52458  21.140  28.802   7.376
 3911POPC   C1B52459  21.680  29.301   6.208
 3911POPC   C2B52460  21.656  29.544   6.580
 3911POPC   C3B52461  21.550  29.449   6.976
 3911POPC   C4B52462  21.800  29.267   7.280
 3912POPC   NC352463  20.188  10.685   5.399
 3912POPC   PO452464  19.823  10.148   5.528
 3912POPC   GL152465  19.786  10.506   5.830
 3912POPC   GL252466  20.057  10.775   5.885
 3912POPC   C1A52467  19.750  10.613   6.274
 3912POPC   D2A52468  19.772  10.767   6.709
 3912POPC   C3A52469  19.770  10.663   7.147
 3912POPC   C4A52470  20.104  10.548   7.413
 3912POPC   C1B52471  20.108  10.985   6.309
 3912POPC   C2B52472  20.258  10.953   6.752
 3912POPC   C3B52473  20.260  11.009   7.222
 3912POPC   C4B52474  20.407  10.868   7.657
 3913POPC   NC352475  25.687  11.553   5.246
 3913POPC   PO452476  26.152  11.174   5.577
 3913POPC   GL152477  26.266  11.104   5.962
 3913POPC   GL252478  26.097  10.784   5.893
 3913POPC   C1A52479  26.294  11.370   6.347
 3913POPC   D2A52480  26.049  11.714   6.558
 3913POPC   C3A52481  25.915  11.541   6.956
 3913POPC   C4A52482  26.160  11.282   7.268
 3913POPC   C1B52483  25.839  10.900   6.202
 3913POPC   C2B52484  25.827  11.195   6.495
 3913POPC   C3B52485  26.061  11.075   6.818
 3913POPC   C4B52486  25.911  10.808   7.144
 3914POPC   NC352487  44.044   5.570   5.337
 3914POPC   PO452488  43.849   6.248   5.424
 3914POPC   GL152489  43.726   6.021   5.805
 3914POPC   GL252490  43.649   5.666   5.725
 3914POPC   C1A52491  43.715   5.999   6.257
 3914POPC   D2A52492  44.045   6.066   6.589
 3914POPC   C3A52493  43.901   6.021   6.990
 3914POPC   C4A52494  44.019   6.271   7.363
 3914POPC   C1B52495  43.817   5.487   6.121
 3914POPC   C2B52496  43.852   5.601   6.562
 3914POPC   C3B52497  44.042   5.505   6.948
 3914POPC   C4B52498  43.839   5.520   7.342
 3915POPC   NC352499   8.581  31.802   5.463
 3915POPC   PO452500   8.074  31.360   5.403
 3915POPC   GL152501   8.177  31.403   5.834
 3915POPC   GL252502   8.313  31.727   5.889
 3915POPC   C1A52503   7.960  31.479   6.245
 3915POPC   D2A52504   7.959  31.650   6.668
 3915POPC   C3A52505   7.998  31.426   7.059
 3915POPC   C4A52506   7.828  31.700   7.355
 3915POPC   C1B52507   8.466  31.580   6.288
 3915POPC   C2B52508   8.433  31.515   6.752
 3915POPC   C3B52509   8.478  31.531   7.200
 3915POPC   C4B52510   8.748  31.646   7.532
 3916POPC   NC352511  35.485  13.550   5.522
 3916POPC   PO452512  34.845  13.797   5.476
 3916POPC   GL152513  35.184  13.851   5.789
 3916POPC   GL252514  35.176  13.566   5.932
 3916POPC   C1A52515  35.437  13.930   6.176
 3916POPC   D2A52516  35.591  13.744   6.575
 3916POPC   C3A52517  35.328  13.869   6.915
 3916POPC   C4A52518  35.185  13.809   7.328
 3916POPC   C1B52519  35.500  13.391   6.200
 3916POPC   C2B52520  35.495  13.195   6.605
 3916POPC   C3B52521  35.488  13.401   7.021
 3916POPC   C4B52522  35.738  13.721   7.224
 3917POPC   NC352523  26.369   9.006   5.480
 3917POPC   PO452524  25.675   9.186   5.328
 3917POPC   GL152525  25.762   9.092   5.771
 3917POPC   GL252526  25.911   8.793   5.767
 3917POPC   C1A52527  25.891   9.186   6.246
 3917POPC   D2A52528  26.039   9.041   6.683
 3917POPC   C3A52529  25.787   9.068   7.043
 3917POPC   C4A52530  25.868   8.793   7.406
 3917POPC   C1B52531  26.103   8.727   6.212
 3917POPC   C2B52532  26.154   8.548   6.650
 3917POPC   C3B52533  26.164   8.487   7.114
 3917POPC   C4B52534  26.120   8.381   7.617
 3918POPC   NC352535  14.927  25.211   5.523
 3918POPC   PO452536  14.808  25.806   5.141
 3918POPC   GL152537  15.183  25.684   5.594
 3918POPC   GL252538  15.358  25.364   5.753
 3918POPC   C1A52539  15.126  25.649   6.096
 3918POPC   D2A52540  15.125  25.396   6.479
 3918POPC   C3A52541  14.927  25.446   6.892
 3918POPC   C4A52542  15.088  25.304   7.315
 3918POPC   C1B52543  15.267  25.055   6.127
 3918POPC   C2B52544  15.199  24.868   6.541
 3918POPC   C3B52545  15.050  24.916   6.951
 3918POPC   C4B52546  15.283  24.840   7.296
 3919POPC   NC352547   1.745  18.548   5.516
 3919POPC   PO452548   2.190  18.139   5.273
 3919POPC   GL152549   2.016  18.173   5.741
 3919POPC   GL252550   1.793  17.917   5.913
 3919POPC   C1A52551   1.939  18.358   6.150
 3919POPC   D2A52552   2.215  18.404   6.490
 3919POPC   C3A52553   2.166  18.290   6.910
 3919POPC   C4A52554   2.159  17.937   7.177
 3919POPC   C1B52555   1.653  17.905   6.361
 3919POPC   C2B52556   1.743  18.020   6.809
 3919POPC   C3B52557   1.646  17.782   7.192
 3919POPC   C4B52558   1.439  17.680   7.620
 3920POPC   NC352559  30.272   1.348   5.156
 3920POPC   PO452560  30.906   1.014   5.339
 3920POPC   GL152561  30.758   1.303   5.703
 3920POPC   GL252562  30.447   1.249   5.684
 3920POPC   C1A52563  30.765   1.272   6.162
 3920POPC   D2A52564  30.490   1.101   6.496
 3920POPC   C3A52565  30.672   1.014   6.908
 3920POPC   C4A52566  30.883   1.353   7.116
 3920POPC   C1B52567  30.272   1.444   6.063
 3920POPC   C2B52568  30.205   1.559   6.483
 3920POPC   C3B52569  30.276   1.406   6.885
 3920POPC   C4B52570  30.395   1.510   7.288
 3921POPC   NC352571  15.476  44.332   5.451
 3921POPC   PO452572  15.161  43.687   5.338
 3921POPC   GL152573  15.206  43.934   5.710
 3921POPC   GL252574  15.230  43.639   5.889
 3921POPC   C1A52575  15.298  44.094   6.147
 3921POPC   D2A52576  15.112  44.296   6.500
 3921POPC   C3A52577  15.287  44.063   6.830
 3921POPC   C4A52578  15.367  43.910   7.213
 3921POPC   C1B52579  15.272  43.555   6.318
 3921POPC   C2B52580  15.195  43.476   6.772
 3921POPC   C3B52581  14.928  43.657   7.109
 3921POPC   C4B52582  15.002  43.765   7.584
 3922POPC   NC352583  12.197  32.569   5.310
 3922POPC   PO452584  11.819  31.997   5.500
 3922POPC   GL152585  12.088  32.060   5.831
 3922POPC   GL252586  12.197  32.411   5.803
 3922POPC   C1A52587  12.174  31.877   6.236
 3922POPC   D2A52588  12.213  32.096   6.605
 3922POPC   C3A52589  11.980  32.059   6.950
 3922POPC   C4A52590  11.980  31.948   7.337
 3922POPC   C1B52591  12.035  32.415   6.216
 3922POPC   C2B52592  12.078  32.601   6.599
 3922POPC   C3B52593  11.912  32.567   6.978
 3922POPC   C4B52594  11.848  32.437   7.376
 3923POPC   NC352595   4.660  41.857   5.526
 3923POPC   PO452596   5.051  42.428   5.379
 3923POPC   GL152597   5.041  42.514   5.817
 3923POPC   GL252598   5.266  42.780   5.880
 3923POPC   C1A52599   5.131  42.310   6.216
 3923POPC   D2A52600   5.002  41.946   6.488
 3923POPC   C3A52601   4.916  42.110   6.911
 3923POPC   C4A52602   5.262  42.231   7.209
 3923POPC   C1B52603   5.325  42.841   6.320
 3923POPC   C2B52604   5.404  42.725   6.747
 3923POPC   C3B52605   5.388  42.888   7.152
 3923POPC   C4B52606   5.219  42.629   7.514
 3924POPC   NC352607  19.396  40.457   5.626
 3924POPC   PO452608  18.908  40.851   5.376
 3924POPC   GL152609  18.896  40.974   5.800
 3924POPC   GL252610  19.145  40.770   5.944
 3924POPC   C1A52611  18.692  40.826   6.187
 3924POPC   D2A52612  18.936  40.735   6.550
 3924POPC   C3A52613  18.734  40.872   6.915
 3924POPC   C4A52614  18.771  40.796   7.352
 3924POPC   C1B52615  19.355  40.972   6.272
 3924POPC   C2B52616  19.458  40.902   6.681
 3924POPC   C3B52617  19.222  40.755   7.027
 3924POPC   C4B52618  19.253  40.396   7.335
 3925POPC   NC352619  39.015  39.647   5.259
 3925POPC   PO452620  39.299  40.241   5.348
 3925POPC   GL152621  39.290  40.034   5.759
 3925POPC   GL252622  39.005  39.818   5.790
 3925POPC   C1A52623  39.370  40.233   6.163
 3925POPC   D2A52624  39.342  40.523   6.514
 3925POPC   C3A52625  39.538  40.413   6.881
 3925POPC   C4A52626  39.485  40.084   7.179
 3925POPC   C1B52627  39.157  39.777   6.237
 3925POPC   C2B52628  39.257  39.996   6.633
 3925POPC   C3B52629  39.023  40.177   6.966
 3925POPC   C4B52630  39.025  40.111   7.383
 3926POPC   NC352631  12.169  31.641   5.522
 3926POPC   PO452632  11.728  31.089   5.609
 3926POPC   GL152633  12.028  31.252   5.919
 3926POPC   GL252634  12.405  31.318   5.887
 3926POPC   C1A52635  12.025  31.359   6.349
 3926POPC   D2A52636  11.818  31.676   6.591
 3926POPC   C3A52637  11.861  31.561   7.010
 3926POPC   C4A52638  12.124  31.243   7.185
 3926POPC   C1B52639  12.543  31.407   6.331
 3926POPC   C2B52640  12.333  31.601   6.685
 3926POPC   C3B52641  12.365  31.711   7.084
 3926POPC   C4B52642  12.308  31.607   7.487
 3927POPC   NC352643  25.451  26.137   5.534
 3927POPC   PO452644  24.935  25.767   5.265
 3927POPC   GL152645  25.116  25.733   5.699
 3927POPC   GL252646  25.427  25.672   5.794
 3927POPC   C1A52647  25.064  25.772   6.160
 3927POPC   D2A52648  25.259  25.610   6.540
 3927POPC   C3A52649  25.077  25.790   6.946
 3927POPC   C4A52650  24.919  26.173   7.158
 3927POPC   C1B52651  25.581  25.846   6.181
 3927POPC   C2B52652  25.786  25.864   6.569
 3927POPC   C3B52653  25.607  25.628   6.908
 3927POPC   C4B52654  25.491  25.708   7.290
 3928POPC   NC352655   6.219  39.074   5.445
 3928POPC   PO452656   5.638  39.431   5.232
 3928POPC   GL152657   5.862  39.403   5.659
 3928POPC   GL252658   5.769  39.051   5.727
 3928POPC   C1A52659   5.955  39.620   6.072
 3928POPC   D2A52660   5.879  39.692   6.529
 3928POPC   C3A52661   6.096  39.663   6.963
 3928POPC   C4A52662   6.023  39.434   7.352
 3928POPC   C1B52663   6.066  39.135   6.096
 3928POPC   C2B52664   5.903  39.171   6.525
 3928POPC   C3B52665   6.018  39.125   6.937
 3928POPC   C4B52666   6.248  38.829   7.126
 3929POPC   NC352667  13.588  14.961   5.339
 3929POPC   PO452668  13.127  15.474   5.417
 3929POPC   GL152669  13.394  15.294   5.731
 3929POPC   GL252670  13.756  15.264   5.750
 3929POPC   C1A52671  13.392  15.442   6.162
 3929POPC   D2A52672  13.205  15.418   6.565
 3929POPC   C3A52673  13.469  15.288   6.882
 3929POPC   C4A52674  13.293  15.296   7.290
 3929POPC   C1B52675  13.893  15.512   6.117
 3929POPC   C2B52676  13.997  15.479   6.579
 3929POPC   C3B52677  14.002  15.205   6.940
 3929POPC   C4B52678  13.773  15.156   7.310
 3930POPC   NC352679  15.321  40.541   5.570
 3930POPC   PO452680  15.601  41.059   5.252
 3930POPC   GL152681  15.388  41.018   5.749
 3930POPC   GL252682  15.042  40.898   5.852
 3930POPC   C1A52683  15.468  40.838   6.206
 3930POPC   D2A52684  15.732  40.634   6.504
 3930POPC   C3A52685  15.482  40.568   6.876
 3930POPC   C4A52686  15.314  40.729   7.239
 3930POPC   C1B52687  15.112  41.173   6.240
 3930POPC   C2B52688  15.279  41.065   6.659
 3930POPC   C3B52689  15.002  41.035   7.002
 3930POPC   C4B52690  15.008  41.099   7.451
 3931POPC   NC352691  14.139  14.502   5.431
 3931POPC   PO452692  14.787  14.638   5.559
 3931POPC   GL152693  14.414  14.538   5.873
 3931POPC   GL252694  14.076  14.748   5.879
 3931POPC   C1A52695  14.380  14.406   6.328
 3931POPC   D2A52696  14.635  14.240   6.682
 3931POPC   C3A52697  14.492  14.401   7.080
 3931POPC   C4A52698  14.054  14.281   7.186
 3931POPC   C1B52699  14.188  14.881   6.302
 3931POPC   C2B52700  14.217  14.748   6.755
 3931POPC   C3B52701  14.161  14.804   7.214
 3931POPC   C4B52702  14.034  14.915   7.667
 3932POPC   NC352703  29.337  16.607   5.452
 3932POPC   PO452704  28.949  17.104   5.306
 3932POPC   GL152705  29.085  16.935   5.751
 3932POPC   GL252706  29.173  16.579   5.927
 3932POPC   C1A52707  29.381  16.975   6.116
 3932POPC   D2A52708  29.319  16.666   6.506
 3932POPC   C3A52709  29.401  16.842   6.913
 3932POPC   C4A52710  29.402  16.857   7.354
 3932POPC   C1B52711  28.911  16.849   6.260
 3932POPC   C2B52712  28.923  16.954   6.736
 3932POPC   C3B52713  28.914  16.879   7.198
 3932POPC   C4B52714  28.644  16.964   7.584
 3933POPC   NC352715  14.802  41.844   5.239
 3933POPC   PO452716  15.021  41.352   5.630
 3933POPC   GL152717  15.170  41.625   5.931
 3933POPC   GL252718  15.469  41.472   6.007
 3933POPC   C1A52719  15.058  41.655   6.384
 3933POPC   D2A52720  14.846  41.362   6.659
 3933POPC   C3A52721  14.817  41.503   7.112
 3933POPC   C4A52722  14.973  41.897   7.232
 3933POPC   C1B52723  15.508  41.866   6.238
 3933POPC   C2B52724  15.493  41.853   6.672
 3933POPC   C3B52725  15.281  41.543   6.899
 3933POPC   C4B52726  15.447  41.219   7.164
 3934POPC   NC352727  43.129  27.453   5.427
 3934POPC   PO452728  42.824  28.053   5.588
 3934POPC   GL152729  43.040  27.754   5.861
 3934POPC   GL252730  42.873  27.416   5.867
 3934POPC   C1A52731  43.102  27.743   6.328
 3934POPC   D2A52732  43.289  27.770   6.773
 3934POPC   C3A52733  43.053  27.899   7.119
 3934POPC   C4A52734  43.341  27.885   7.437
 3934POPC   C1B52735  42.707  27.403   6.286
 3934POPC   C2B52736  42.785  27.530   6.715
 3934POPC   C3B52737  43.033  27.396   7.070
 3934POPC   C4B52738  43.005  27.511   7.495
 3935POPC   NC352739  44.263  44.267   5.368
 3935POPC   PO452740  43.720  44.669   5.450
 3935POPC   GL152741  43.742  44.801   5.868
 3935POPC   GL252742  44.113  44.776   5.890
 3935POPC   C1A52743  43.725  44.837   6.337
 3935POPC   D2A52744  43.978  44.663   6.698
 3935POPC   C3A52745  43.816  44.576   7.115
 3935POPC   C4A52746  43.522  44.251   7.152
 3935POPC   C1B52747  44.332  44.683   6.313
 3935POPC   C2B52748  44.378  44.973   6.692
 3935POPC   C3B52749  44.285  44.961   7.123
 3935POPC   C4B52750  44.100  44.805   7.488
 3936POPC   NC352751  17.409  21.949   5.146
 3936POPC   PO452752  17.738  22.227   5.365
 3936POPC   GL152753  17.649  22.079   5.826
 3936POPC   GL252754  17.290  22.020   5.930
 3936POPC   C1A52755  17.605  22.088   6.326
 3936POPC   D2A52756  17.320  22.088   6.696
 3936POPC   C3A52757  17.502  22.050   7.117
 3936POPC   C4A52758  17.944  22.068   7.290
 3936POPC   C1B52759  17.185  22.371   6.248
 3936POPC   C2B52760  16.953  22.486   6.635
 3936POPC   C3B52761  17.100  22.410   7.062
 3936POPC   C4B52762  17.128  22.197   7.456
 3937POPC   NC352763  41.390  16.562   5.532
 3937POPC   PO452764  41.411  15.908   5.411
 3937POPC   GL152765  41.418  16.113   5.844
 3937POPC   GL252766  41.621  16.349   6.065
 3937POPC   C1A52767  41.401  15.958   6.281
 3937POPC   D2A52768  41.157  16.069   6.649
 3937POPC   C3A52769  41.362  16.170   7.033
 3937POPC   C4A52770  41.580  15.816   7.249
 3937POPC   C1B52771  41.610  16.330   6.571
 3937POPC   C2B52772  41.867  16.080   6.899
 3937POPC   C3B52773  42.062  15.972   7.302
 3937POPC   C4B52774  41.825  15.978   7.707
 3938POPC   NC352775  20.163  42.793   5.076
 3938POPC   PO452776  20.026  43.423   5.330
 3938POPC   GL152777  20.066  43.047   5.631
 3938POPC   GL252778  19.814  43.231   5.791
 3938POPC   C1A52779  20.068  42.946   6.128
 3938POPC   D2A52780  19.999  43.158   6.569
 3938POPC   C3A52781  19.897  43.003   7.001
 3938POPC   C4A52782  20.195  42.892   7.329
 3938POPC   C1B52783  19.891  43.480   6.168
 3938POPC   C2B52784  19.748  43.601   6.603
 3938POPC   C3B52785  19.882  43.539   7.036
 3938POPC   C4B52786  20.267  43.392   7.129
 3939POPC   NC352787   0.367  18.071   5.243
 3939POPC   PO452788   0.681  18.660   5.153
 3939POPC   GL152789   0.503  18.528   5.606
 3939POPC   GL252790   0.358  18.198   5.730
 3939POPC   C1A52791   0.315  18.590   6.059
 3939POPC   D2A52792   0.423  18.523   6.512
 3939POPC   C3A52793   0.330  18.241   6.843
 3939POPC   C4A52794   0.356  18.415   7.251
 3939POPC   C1B52795   0.108  17.940   6.027
 3939POPC   C2B52796   0.027  17.929   6.472
 3939POPC   C3B52797   0.021  17.830   6.917
 3939POPC   C4B52798   0.258  17.925   7.284
 3940POPC   NC352799   6.154  24.498   5.432
 3940POPC   PO452800   5.440  24.276   5.452
 3940POPC   GL152801   5.796  24.303   5.739
 3940POPC   GL252802   5.734  24.647   5.688
 3940POPC   C1A52803   6.057  24.299   6.151
 3940POPC   D2A52804   5.880  24.293   6.571
 3940POPC   C3A52805   6.013  24.423   7.002
 3940POPC   C4A52806   5.864  24.302   7.438
 3940POPC   C1B52807   5.644  24.600   6.142
 3940POPC   C2B52808   5.591  24.708   6.581
 3940POPC   C3B52809   5.574  24.711   7.032
 3940POPC   C4B52810   5.859  24.817   7.349
 3941POPC   NC352811  27.448  43.029   5.228
 3941POPC   PO452812  28.101  43.018   5.456
 3941POPC   GL152813  27.697  43.112   5.664
 3941POPC   GL252814  27.581  42.800   5.704
 3941POPC   C1A52815  27.435  43.137   6.070
 3941POPC   D2A52816  27.563  43.164   6.503
 3941POPC   C3A52817  27.383  43.073   6.912
 3941POPC   C4A52818  27.676  43.073   7.262
 3941POPC   C1B52819  27.893  42.917   6.087
 3941POPC   C2B52820  27.951  42.847   6.509
 3941POPC   C3B52821  27.744  42.738   6.853
 3941POPC   C4B52822  27.932  42.644   7.220
 3942POPC   NC352823  39.432   6.117   5.570
 3942POPC   PO452824  38.933   5.706   5.351
 3942POPC   GL152825  38.983   5.829   5.783
 3942POPC   GL252826  39.328   5.764   5.917
 3942POPC   C1A52827  38.965   6.073   6.187
 3942POPC   D2A52828  38.810   6.185   6.615
 3942POPC   C3A52829  39.016   6.158   7.008
 3942POPC   C4A52830  38.897   5.815   7.225
 3942POPC   C1B52831  39.147   5.564   6.269
 3942POPC   C2B52832  39.102   5.706   6.724
 3942POPC   C3B52833  39.380   5.737   7.065
 3942POPC   C4B52834  39.532   5.783   7.444
 3943POPC   NC352835   3.550  17.690   5.259
 3943POPC   PO452836   3.424  17.152   5.638
 3943POPC   GL152837   3.694  17.406   5.870
 3943POPC   GL252838   3.763  17.727   5.725
 3943POPC   C1A52839   3.734  17.434   6.309
 3943POPC   D2A52840   3.404  17.393   6.616
 3943POPC   C3A52841   3.524  17.514   7.017
 3943POPC   C4A52842   3.525  17.243   7.360
 3943POPC   C1B52843   4.042  17.810   6.091
 3943POPC   C2B52844   4.212  17.829   6.538
 3943POPC   C3B52845   3.945  17.793   6.916
 3943POPC   C4B52846   3.860  17.715   7.358
 3944POPC   NC352847  35.935   8.498   5.276
 3944POPC   PO452848  36.336   7.984   5.292
 3944POPC   GL152849  36.280   8.116   5.736
 3944POPC   GL252850  35.929   8.310   5.780
 3944POPC   C1A52851  36.265   8.261   6.179
 3944POPC   D2A52852  35.992   8.262   6.546
 3944POPC   C3A52853  36.180   8.205   6.959
 3944POPC   C4A52854  36.067   8.039   7.339
 3944POPC   C1B52855  35.821   8.580   6.160
 3944POPC   C2B52856  35.580   8.561   6.570
 3944POPC   C3B52857  35.732   8.418   6.994
 3944POPC   C4B52858  35.788   8.470   7.472
 3945POPC   NC352859  39.254  20.421   5.521
 3945POPC   PO452860  38.905  21.027   5.334
 3945POPC   GL152861  39.111  20.880   5.722
 3945POPC   GL252862  38.925  20.637   5.847
 3945POPC   C1A52863  39.338  20.861   6.129
 3945POPC   D2A52864  39.122  20.934   6.545
 3945POPC   C3A52865  39.238  20.937   6.974
 3945POPC   C4A52866  39.363  20.634   7.273
 3945POPC   C1B52867  39.013  20.507   6.260
 3945POPC   C2B52868  38.985  20.201   6.544
 3945POPC   C3B52869  39.095  20.443   6.871
 3945POPC   C4B52870  38.851  20.575   7.207
 3946POPC   NC352871  37.385  20.527   5.364
 3946POPC   PO452872  37.968  20.753   5.119
 3946POPC   GL152873  37.934  20.635   5.602
 3946POPC   GL252874  37.712  20.313   5.712
 3946POPC   C1A52875  38.007  20.565   6.075
 3946POPC   D2A52876  37.853  20.601   6.538
 3946POPC   C3A52877  37.901  20.644   7.000
 3946POPC   C4A52878  37.829  20.766   7.468
 3946POPC   C1B52879  37.491  20.195   6.116
 3946POPC   C2B52880  37.643  20.128   6.568
 3946POPC   C3B52881  37.567  20.218   6.995
 3946POPC   C4B52882  37.278  19.991   7.237
 3947POPC   NC352883  11.840  34.831   5.539
 3947POPC   PO452884  12.327  34.479   5.262
 3947POPC   GL152885  12.165  34.478   5.703
 3947POPC   GL252886  11.922  34.262   5.765
 3947POPC   C1A52887  11.957  34.630   6.129
 3947POPC   D2A52888  12.095  34.785   6.507
 3947POPC   C3A52889  11.914  34.651   6.869
 3947POPC   C4A52890  12.012  34.891   7.221
 3947POPC   C1B52891  12.147  34.159   6.124
 3947POPC   C2B52892  11.988  34.249   6.511
 3947POPC   C3B52893  12.130  34.187   6.898
 3947POPC   C4B52894  12.078  34.398   7.288
 3948POPC   NC352895  44.402  24.048   5.462
 3948POPC   PO452896  44.710  23.579   5.598
 3948POPC   GL152897  44.751  23.870   5.930
 3948POPC   GL252898  44.405  23.970   5.963
 3948POPC   C1A52899   0.026  23.748   6.308
 3948POPC   D2A52900  44.801  23.628   6.736
 3948POPC   C3A52901  44.633  23.988   6.977
 3948POPC   C4A52902  44.878  24.267   7.263
 3948POPC   C1B52903  44.150  23.878   6.291
 3948POPC   C2B52904  44.272  23.730   6.679
 3948POPC   C3B52905  44.385  23.551   7.058
 3948POPC   C4B52906  44.255  23.652   7.469
 3949POPC   NC352907  34.096   7.273   5.588
 3949POPC   PO452908  33.605   7.560   5.340
 3949POPC   GL152909  33.686   7.469   5.787
 3949POPC   GL252910  34.005   7.699   5.840
 3949POPC   C1A52911  33.792   7.322   6.205
 3949POPC   D2A52912  33.786   7.068   6.576
 3949POPC   C3A52913  33.795   7.285   6.994
 3949POPC   C4A52914  33.637   7.180   7.399
 3949POPC   C1B52915  34.120   7.717   6.240
 3949POPC   C2B52916  33.930   7.643   6.632
 3949POPC   C3B52917  34.078   7.713   7.065
 3949POPC   C4B52918  34.288   7.862   7.449
 3950POPC   NC352919  32.254   1.559   5.248
 3950POPC   PO452920  32.448   0.915   5.365
 3950POPC   GL152921  32.367   1.233   5.670
 3950POPC   GL252922  32.139   1.438   5.730
 3950POPC   C1A52923  32.445   1.223   6.143
 3950POPC   D2A52924  32.224   1.116   6.567
 3950POPC   C3A52925  32.438   1.187   6.958
 3950POPC   C4A52926  32.471   1.126   7.412
 3950POPC   C1B52927  32.208   1.677   6.083
 3950POPC   C2B52928  32.197   1.619   6.514
 3950POPC   C3B52929  32.038   1.516   6.890
 3950POPC   C4B52930  31.932   1.688   7.266
 3951POPC   NC352931  28.597  22.737   5.399
 3951POPC   PO452932  29.166  23.177   5.417
 3951POPC   GL152933  28.968  22.859   5.750
 3951POPC   GL252934  29.130  22.524   5.856
 3951POPC   C1A52935  28.972  22.866   6.204
 3951POPC   D2A52936  29.178  22.853   6.603
 3951POPC   C3A52937  28.965  22.767   6.966
 3951POPC   C4A52938  28.817  22.940   7.315
 3951POPC   C1B52939  29.381  22.347   6.187
 3951POPC   C2B52940  29.545  22.428   6.590
 3951POPC   C3B52941  29.336  22.393   6.983
 3951POPC   C4B52942  29.228  22.608   7.370
 3952POPC   NC352943  37.250  22.262   5.071
 3952POPC   PO452944  37.762  21.918   5.358
 3952POPC   GL152945  37.731  22.000   5.803
 3952POPC   GL252946  37.515  22.270   5.925
 3952POPC   C1A52947  37.574  21.832   6.192
 3952POPC   D2A52948  37.731  21.823   6.617
 3952POPC   C3A52949  37.520  21.956   6.986
 3952POPC   C4A52950  37.499  22.287   7.268
 3952POPC   C1B52951  37.735  22.296   6.357
 3952POPC   C2B52952  37.651  22.452   6.792
 3952POPC   C3B52953  37.826  22.665   7.191
 3952POPC   C4B52954  37.623  22.660   7.611
 3953POPC   NC352955  16.995  26.263   5.592
 3953POPC   PO452956  16.874  26.926   5.297
 3953POPC   GL152957  16.820  26.784   5.729
 3953POPC   GL252958  16.995  27.114   5.857
 3953POPC   C1A52959  16.706  26.531   6.141
 3953POPC   D2A52960  16.651  26.287   6.549
 3953POPC   C3A52961  16.577  26.520   6.947
 3953POPC   C4A52962  16.734  26.807   7.270
 3953POPC   C1B52963  16.978  26.940   6.291
 3953POPC   C2B52964  16.895  26.918   6.761
 3953POPC   C3B52965  17.167  27.019   7.107
 3953POPC   C4B52966  17.154  26.851   7.563
 3954POPC   NC352967  41.648  27.869   5.103
 3954POPC   PO452968  41.153  27.498   5.520
 3954POPC   GL152969  41.499  27.783   5.654
 3954POPC   GL252970  41.720  27.510   5.729
 3954POPC   C1A52971  41.751  27.911   6.062
 3954POPC   D2A52972  41.624  28.011   6.513
 3954POPC   C3A52973  41.741  27.786   6.881
 3954POPC   C4A52974  41.449  27.764   7.194
 3954POPC   C1B52975  41.414  27.534   6.103
 3954POPC   C2B52976  41.557  27.492   6.484
 3954POPC   C3B52977  41.395  27.388   6.856
 3954POPC   C4B52978  41.702  27.303   7.160
 3955POPC   NC352979   5.492  10.461   5.524
 3955POPC   PO452980   6.090  10.307   5.398
 3955POPC   GL152981   5.944  10.475   5.823
 3955POPC   GL252982   5.644  10.694   5.953
 3955POPC   C1A52983   5.900  10.248   6.235
 3955POPC   D2A52984   5.761  10.191   6.681
 3955POPC   C3A52985   5.999  10.396   7.029
 3955POPC   C4A52986   6.244  10.604   7.371
 3955POPC   C1B52987   5.531  10.569   6.387
 3955POPC   C2B52988   5.700  10.780   6.758
 3955POPC   C3B52989   5.812  10.865   7.176
 3955POPC   C4B52990   5.538  10.557   7.263
 3956POPC   NC352991  20.433  26.707   5.483
 3956POPC   PO452992  20.841  27.107   5.230
 3956POPC   GL152993  20.846  26.909   5.714
 3956POPC   GL252994  20.929  27.236   5.789
 3956POPC   C1A52995  20.617  26.755   6.128
 3956POPC   D2A52996  20.291  26.637   6.473
 3956POPC   C3A52997  20.371  26.783   6.898
 3956POPC   C4A52998  20.535  26.650   7.300
 3956POPC   C1B52999  20.797  27.255   6.213
 3956POPC   C2B53000  20.750  26.986   6.565
 3956POPC   C3B53001  20.886  26.732   6.899
 3956POPC   C4B53002  20.808  27.045   7.216
 3957POPC   NC353003  31.215  39.794   5.375
 3957POPC   PO453004  31.610  40.299   5.541
 3957POPC   GL153005  31.688  40.065   5.880
 3957POPC   GL253006  31.630  39.719   5.842
 3957POPC   C1A53007  31.727  39.969   6.309
 3957POPC   D2A53008  31.772  40.284   6.623
 3957POPC   C3A53009  31.614  40.082   6.974
 3957POPC   C4A53010  31.829  39.879   7.283
 3957POPC   C1B53011  31.796  39.470   6.208
 3957POPC   C2B53012  31.803  39.559   6.663
 3957POPC   C3B53013  31.468  39.552   6.980
 3957POPC   C4B53014  31.487  39.533   7.419
 3958POPC   NC353015  34.355  33.454   5.379
 3958POPC   PO453016  34.620  32.703   5.385
 3958POPC   GL153017  34.465  32.991   5.670
 3958POPC   GL253018  34.708  33.252   5.707
 3958POPC   C1A53019  34.462  32.983   6.112
 3958POPC   D2A53020  34.575  33.159   6.510
 3958POPC   C3A53021  34.306  33.079   6.848
 3958POPC   C4A53022  34.621  32.971   7.132
 3958POPC   C1B53023  34.835  33.384   6.105
 3958POPC   C2B53024  34.926  33.555   6.520
 3958POPC   C3B53025  34.817  33.392   6.926
 3958POPC   C4B53026  34.415  33.458   7.174
 3959POPC   NC353027  13.001  10.966   5.480
 3959POPC   PO453028  12.648  11.512   5.645
 3959POPC   GL153029  12.980  11.335   5.883
 3959POPC   GL253030  12.855  11.032   5.983
 3959POPC   C1A53031  13.195  11.399   6.256
 3959POPC   D2A53032  13.178  11.615   6.660
 3959POPC   C3A53033  13.093  11.388   7.035
 3959POPC   C4A53034  13.111  10.994   7.302
 3959POPC   C1B53035  13.071  10.902   6.358
 3959POPC   C2B53036  12.985  10.948   6.804
 3959POPC   C3B53037  12.654  11.128   7.104
 3959POPC   C4B53038  12.399  11.269   7.479
 3960POPC   NC353039  11.664  12.397   5.331
 3960POPC   PO453040  10.949  12.161   5.318
 3960POPC   GL153041  11.019  12.128   5.755
 3960POPC   GL253042  10.868  12.418   5.852
 3960POPC   C1A53043  11.318  12.079   6.124
 3960POPC   D2A53044  11.697  12.102   6.432
 3960POPC   C3A53045  11.642  12.084   6.894
 3960POPC   C4A53046  11.311  11.932   7.214
 3960POPC   C1B53047  10.636  12.411   6.224
 3960POPC   C2B53048  10.785  12.508   6.640
 3960POPC   C3B53049  11.126  12.350   6.892
 3960POPC   C4B53050  11.144  12.463   7.316
 3961POPC   NC353051   6.577  13.908   5.400
 3961POPC   PO453052   6.306  13.380   5.705
 3961POPC   GL153053   6.690  13.540   5.781
 3961POPC   GL253054   6.922  13.243   5.807
 3961POPC   C1A53055   6.750  13.864   6.090
 3961POPC   D2A53056   6.769  13.863   6.534
 3961POPC   C3A53057   6.520  13.801   6.942
 3961POPC   C4A53058   6.382  13.960   7.398
 3961POPC   C1B53059   6.791  13.340   6.254
 3961POPC   C2B53060   6.742  13.388   6.714
 3961POPC   C3B53061   6.892  13.302   7.146
 3961POPC   C4B53062   6.823  13.299   7.621
 3962POPC   NC353063  32.230   8.766   5.497
 3962POPC   PO453064  32.460   9.419   5.390
 3962POPC   GL153065  32.344   9.187   5.792
 3962POPC   GL253066  32.022   9.229   5.961
 3962POPC   C1A53067  32.428   9.096   6.259
 3962POPC   D2A53068  32.186   9.018   6.652
 3962POPC   C3A53069  32.288   9.104   7.076
 3962POPC   C4A53070  32.374   8.968   7.489
 3962POPC   C1B53071  31.962   8.855   6.207
 3962POPC   C2B53072  31.725   8.782   6.589
 3962POPC   C3B53073  31.912   8.723   7.000
 3962POPC   C4B53074  31.919   8.817   7.430
 3963POPC   NC353075   0.647   1.595   5.484
 3963POPC   PO453076   0.621   0.903   5.460
 3963POPC   GL153077   0.614   1.192   5.817
 3963POPC   GL253078   0.292   1.398   5.824
 3963POPC   C1A53079   0.574   1.154   6.261
 3963POPC   D2A53080   0.749   1.040   6.660
 3963POPC   C3A53081   0.554   1.204   7.031
 3963POPC   C4A53082   0.666   1.360   7.419
 3963POPC   C1B53083   0.129   1.494   6.246
 3963POPC   C2B53084  44.861   1.342   6.605
 3963POPC   C3B53085   0.000   1.379   7.039
 3963POPC   C4B53086   0.285   1.675   7.233
 3964POPC   NC353087  19.648  28.009   5.309
 3964POPC   PO453088  19.998  27.481   5.279
 3964POPC   GL153089  19.907  27.540   5.766
 3964POPC   GL253090  19.709  27.860   5.867
 3964POPC   C1A53091  19.888  27.503   6.246
 3964POPC   D2A53092  20.110  27.645   6.657
 3964POPC   C3A53093  19.999  27.610   7.104
 3964POPC   C4A53094  20.053  27.526   7.559
 3964POPC   C1B53095  19.625  27.946   6.322
 3964POPC   C2B53096  19.543  27.647   6.637
 3964POPC   C3B53097  19.496  27.696   7.064
 3964POPC   C4B53098  19.689  27.878   7.413
 3965POPC   NC353099  14.340  33.289   5.008
 3965POPC   PO453100  14.432  32.717   5.413
 3965POPC   GL153101  14.331  32.954   5.784
 3965POPC   GL253102  14.061  32.808   5.948
 3965POPC   C1A53103  14.457  32.986   6.225
 3965POPC   D2A53104  14.450  32.825   6.639
 3965POPC   C3A53105  14.518  33.060   7.012
 3965POPC   C4A53106  14.609  32.883   7.420
 3965POPC   C1B53107  13.949  32.798   6.376
 3965POPC   C2B53108  13.977  32.739   6.833
 3965POPC   C3B53109  14.099  32.813   7.266
 3965POPC   C4B53110  13.940  32.849   7.699
 3966POPC   NC353111   2.503  17.817   5.460
 3966POPC   PO453112   3.103  17.773   5.166
 3966POPC   GL153113   2.953  17.569   5.639
 3966POPC   GL253114   2.994  17.228   5.880
 3966POPC   C1A53115   2.732  17.586   6.084
 3966POPC   D2A53116   2.887  17.308   6.445
 3966POPC   C3A53117   2.644  17.351   6.839
 3966POPC   C4A53118   2.594  17.650   7.166
 3966POPC   C1B53119   3.249  17.567   6.118
 3966POPC   C2B53120   3.180  17.846   6.473
 3966POPC   C3B53121   3.057  17.799   6.926
 3966POPC   C4B53122   3.057  17.446   7.214
 3967POPC   NC353123  33.365  40.739   5.491
 3967POPC   PO453124  32.882  41.176   5.294
 3967POPC   GL153125  32.902  40.918   5.676
 3967POPC   GL253126  33.141  41.154   5.773
 3967POPC   C1A53127  33.045  40.766   6.105
 3967POPC   D2A53128  32.867  40.730   6.521
 3967POPC   C3A53129  32.983  40.839   6.943
 3967POPC   C4A53130  33.253  40.605   7.207
 3967POPC   C1B53131  33.388  41.152   6.144
 3967POPC   C2B53132  33.379  40.902   6.504
 3967POPC   C3B53133  33.525  40.923   6.895
 3967POPC   C4B53134  33.399  41.165   7.208
 3968POPC   NC353135  35.089  23.017   5.488
 3968POPC   PO453136  35.753  22.868   5.442
 3968POPC   GL153137  35.468  22.921   5.826
 3968POPC   GL253138  35.484  22.627   6.024
 3968POPC   C1A53139  35.128  23.047   6.168
 3968POPC   D2A53140  35.076  23.259   6.617
 3968POPC   C3A53141  35.053  22.984   7.027
 3968POPC   C4A53142  34.936  22.551   7.215
 3968POPC   C1B53143  35.610  22.994   6.326
 3968POPC   C2B53144  35.661  23.119   6.762
 3968POPC   C3B53145  35.544  23.029   7.164
 3968POPC   C4B53146  35.461  22.567   7.189
 3969POPC   NC353147  28.803  23.566   5.479
 3969POPC   PO453148  28.262  24.029   5.157
 3969POPC   GL153149  28.288  23.936   5.682
 3969POPC   GL253150  28.330  23.568   5.771
 3969POPC   C1A53151  28.214  23.852   6.195
 3969POPC   D2A53152  28.380  23.574   6.592
 3969POPC   C3A53153  28.365  23.785   7.018
 3969POPC   C4A53154  28.541  23.964   7.391
 3969POPC   C1B53155  28.611  23.530   6.130
 3969POPC   C2B53156  28.818  23.294   6.445
 3969POPC   C3B53157  28.847  23.255   6.868
 3969POPC   C4B53158  28.672  23.430   7.191
 3970POPC   NC353159   6.267  17.121   5.339
 3970POPC   PO453160   6.052  16.516   5.409
 3970POPC   GL153161   6.051  16.807   5.752
 3970POPC   GL253162   5.833  16.551   5.877
 3970POPC   C1A53163   5.910  16.985   6.150
 3970POPC   D2A53164   5.698  17.051   6.548
 3970POPC   C3A53165   5.946  16.887   6.903
 3970POPC   C4A53166   5.929  16.919   7.310
 3970POPC   C1B53167   6.128  16.507   6.174
 3970POPC   C2B53168   5.894  16.569   6.518
 3970POPC   C3B53169   5.757  16.402   6.901
 3970POPC   C4B53170   6.030  16.423   7.224
 3971POPC   NC353171  33.178  35.535   5.064
 3971POPC   PO453172  32.858  35.567   5.603
 3971POPC   GL153173  32.992  35.421   5.956
 3971POPC   GL253174  33.238  35.630   5.967
 3971POPC   C1A53175  33.309  35.187   6.201
 3971POPC   D2A53176  33.129  35.050   6.597
 3971POPC   C3A53177  33.177  35.187   7.010
 3971POPC   C4A53178  32.876  35.162   7.356
 3971POPC   C1B53179  33.127  35.609   6.407
 3971POPC   C2B53180  33.220  35.684   6.816
 3971POPC   C3B53181  33.135  35.666   7.239
 3971POPC   C4B53182  33.221  35.951   7.580
 3972POPC   NC353183   8.626   6.435   5.386
 3972POPC   PO453184   8.517   7.017   5.268
 3972POPC   GL153185   8.781   6.822   5.680
 3972POPC   GL253186   9.141   6.653   5.668
 3972POPC   C1A53187   8.871   6.521   6.072
 3972POPC   D2A53188   9.100   6.431   6.486
 3972POPC   C3A53189   9.004   6.650   6.889
 3972POPC   C4A53190   8.747   6.572   7.269
 3972POPC   C1B53191   9.358   6.698   6.114
 3972POPC   C2B53192   9.436   6.813   6.592
 3972POPC   C3B53193   9.497   6.702   7.047
 3972POPC   C4B53194   9.276   6.470   7.377
 3973POPC   NC353195  24.673  30.929   5.349
 3973POPC   PO453196  24.406  30.377   5.445
 3973POPC   GL153197  24.505  30.636   5.817
 3973POPC   GL253198  24.441  30.995   5.787
 3973POPC   C1A53199  24.444  30.634   6.266
 3973POPC   D2A53200  24.269  30.542   6.684
 3973POPC   C3A53201  24.512  30.634   7.060
 3973POPC   C4A53202  24.371  30.536   7.461
 3973POPC   C1B53203  24.318  31.129   6.150
 3973POPC   C2B53204  24.303  31.027   6.563
 3973POPC   C3B53205  24.212  31.026   6.949
 3973POPC   C4B53206  24.409  31.079   7.354
 3974POPC   NC353207  28.614  19.312   5.330
 3974POPC   PO453208  28.724  19.958   5.472
 3974POPC   GL153209  28.692  19.920   5.900
 3974POPC   GL253210  28.641  20.232   5.997
 3974POPC   C1A53211  28.458  19.822   6.295
 3974POPC   D2A53212  28.108  19.776   6.624
 3974POPC   C3A53213  28.203  19.870   7.072
 3974POPC   C4A53214  28.438  19.763   7.462
 3974POPC   C1B53215  28.889  20.140   6.356
 3974POPC   C2B53216  28.933  20.128   6.788
 3974POPC   C3B53217  28.842  19.892   7.173
 3974POPC   C4B53218  28.938  19.682   7.579
 3975POPC   NC353219  26.405  13.828   5.503
 3975POPC   PO453220  26.887  14.448   5.423
 3975POPC   GL153221  26.763  14.346   5.867
 3975POPC   GL253222  26.529  14.063   5.945
 3975POPC   C1A53223  26.594  14.485   6.283
 3975POPC   D2A53224  26.354  14.429   6.647
 3975POPC   C3A53225  26.430  14.623   7.026
 3975POPC   C4A53226  26.818  14.490   7.158
 3975POPC   C1B53227  26.623  13.992   6.401
 3975POPC   C2B53228  26.519  13.905   6.827
 3975POPC   C3B53229  26.631  14.021   7.231
 3975POPC   C4B53230  26.556  13.955   7.703
 3976POPC   NC353231  42.018  23.127   5.591
 3976POPC   PO453232  42.630  22.905   5.471
 3976POPC   GL153233  42.594  22.724   5.876
 3976POPC   GL253234  42.219  22.761   5.905
 3976POPC   C1A53235  42.543  22.821   6.312
 3976POPC   D2A53236  42.497  23.201   6.547
 3976POPC   C3A53237  42.492  23.067   6.984
 3976POPC   C4A53238  42.285  22.735   7.205
 3976POPC   C1B53239  42.036  22.972   6.246
 3976POPC   C2B53240  42.076  22.881   6.677
 3976POPC   C3B53241  41.960  23.117   7.018
 3976POPC   C4B53242  42.023  23.126   7.464
 3977POPC   NC353243   4.619   0.960   5.510
 3977POPC   PO453244   5.241   1.200   5.221
 3977POPC   GL153245   5.288   1.093   5.693
 3977POPC   GL253246   4.995   1.143   5.851
 3977POPC   C1A53247   5.326   0.982   6.190
 3977POPC   D2A53248   5.092   1.228   6.522
 3977POPC   C3A53249   5.167   1.117   6.945
 3977POPC   C4A53250   5.372   1.344   7.287
 3977POPC   C1B53251   4.780   0.955   6.200
 3977POPC   C2B53252   4.799   0.815   6.631
 3977POPC   C3B53253   4.650   1.141   6.901
 3977POPC   C4B53254   4.782   1.150   7.328
 3978POPC   NC353255  43.999  28.633   5.593
 3978POPC   PO453256  43.845  28.138   5.157
 3978POPC   GL153257  43.845  28.132   5.657
 3978POPC   GL253258  43.629  28.319   5.771
 3978POPC   C1A53259  43.833  28.174   6.184
 3978POPC   D2A53260  43.683  28.334   6.573
 3978POPC   C3A53261  43.900  28.301   6.989
 3978POPC   C4A53262  44.108  28.610   7.249
 3978POPC   C1B53263  43.581  28.641   6.143
 3978POPC   C2B53264  43.737  28.840   6.521
 3978POPC   C3B53265  43.661  28.727   6.934
 3978POPC   C4B53266  43.541  28.718   7.352
 3979POPC   NC353267  40.491   4.151   5.453
 3979POPC   PO453268  41.121   4.361   5.478
 3979POPC   GL153269  40.881   4.307   5.784
 3979POPC   GL253270  41.078   4.124   6.033
 3979POPC   C1A53271  40.860   4.579   6.128
 3979POPC   D2A53272  40.810   4.422   6.553
 3979POPC   C3A53273  40.750   4.640   6.892
 3979POPC   C4A53274  41.081   4.622   7.210
 3979POPC   C1B53275  40.659   4.076   6.187
 3979POPC   C2B53276  40.547   4.012   6.643
 3979POPC   C3B53277  40.777   4.145   7.051
 3979POPC   C4B53278  41.157   3.914   7.253
 3980POPC   NC353279  29.662   8.719   5.479
 3980POPC   PO453280  29.811   9.323   5.616
 3980POPC   GL153281  29.673   9.017   5.923
 3980POPC   GL253282  29.969   8.837   5.912
 3980POPC   C1A53283  29.740   8.941   6.366
 3980POPC   D2A53284  29.660   8.946   6.788
 3980POPC   C3A53285  29.923   9.072   7.073
 3980POPC   C4A53286  29.696   9.361   7.330
 3980POPC   C1B53287  30.169   8.651   6.245
 3980POPC   C2B53288  30.103   8.725   6.685
 3980POPC   C3B53289  30.204   8.552   7.055
 3980POPC   C4B53290  30.112   8.665   7.491
 3981POPC   NC353291   1.620   2.758   5.585
 3981POPC   PO453292   1.002   2.794   5.250
 3981POPC   GL153293   1.122   2.814   5.685
 3981POPC   GL253294   0.904   2.555   5.782
 3981POPC   C1A53295   1.251   2.789   6.146
 3981POPC   D2A53296   1.066   2.997   6.532
 3981POPC   C3A53297   1.321   3.169   6.868
 3981POPC   C4A53298   1.279   2.973   7.261
 3981POPC   C1B53299   0.998   2.318   6.120
 3981POPC   C2B53300   1.202   2.378   6.514
 3981POPC   C3B53301   1.205   2.613   6.877
 3981POPC   C4B53302   1.417   2.475   7.223
 3982POPC   NC353303  23.120  24.192   5.557
 3982POPC   PO453304  22.789  24.807   5.441
 3982POPC   GL153305  23.081  24.685   5.756
 3982POPC   GL253306  22.811  24.465   5.882
 3982POPC   C1A53307  23.128  24.678   6.208
 3982POPC   D2A53308  22.794  24.540   6.497
 3982POPC   C3A53309  22.799  24.721   6.879
 3982POPC   C4A53310  23.113  24.890   7.096
 3982POPC   C1B53311  22.960  24.167   6.196
 3982POPC   C2B53312  22.751  24.039   6.574
 3982POPC   C3B53313  22.964  24.234   6.910
 3982POPC   C4B53314  23.024  24.408   7.323
 3983POPC   NC353315   6.647  26.185   4.968
 3983POPC   PO453316   6.858  26.167   5.374
 3983POPC   GL153317   6.660  26.115   5.789
 3983POPC   GL253318   6.328  25.970   5.797
 3983POPC   C1A53319   6.661  25.890   6.217
 3983POPC   D2A53320   6.352  25.751   6.549
 3983POPC   C3A53321   6.486  25.775   6.990
 3983POPC   C4A53322   6.816  26.009   7.197
 3983POPC   C1B53323   6.244  26.174   6.227
 3983POPC   C2B53324   6.362  26.255   6.692
 3983POPC   C3B53325   6.347  26.241   7.162
 3983POPC   C4B53326   6.150  25.897   7.369
 3984POPC   NC353327  44.572   7.037   5.344
 3984POPC   PO453328  44.816   6.437   5.249
 3984POPC   GL153329  44.816   6.636   5.697
 3984POPC   GL253330   0.089   6.421   5.834
 3984POPC   C1A53331  44.617   6.709   6.170
 3984POPC   D2A53332  44.622   6.923   6.622
 3984POPC   C3A53333  44.635   6.752   7.052
 3984POPC   C4A53334  44.556   6.357   7.301
 3984POPC   C1B53335  44.943   6.320   6.221
 3984POPC   C2B53336  44.686   6.392   6.590
 3984POPC   C3B53337  44.919   6.334   6.940
 3984POPC   C4B53338   0.059   6.571   7.270
 3985POPC   NC353339  30.680  10.956   5.156
 3985POPC   PO453340  30.930  10.312   5.347
 3985POPC   GL153341  30.889  10.411   5.792
 3985POPC   GL253342  31.186  10.336   5.968
 3985POPC   C1A53343  30.776  10.670   6.168
 3985POPC   D2A53344  30.542  10.963   6.464
 3985POPC   C3A53345  30.513  10.743   6.885
 3985POPC   C4A53346  30.609  10.360   7.157
 3985POPC   C1B53347  31.146  10.384   6.404
 3985POPC   C2B53348  31.015  10.480   6.822
 3985POPC   C3B53349  31.127  10.528   7.264
 3985POPC   C4B53350  31.264  10.649   7.720
 3986POPC   NC353351  40.175  20.389   5.371
 3986POPC   PO453352  39.835  19.775   5.277
 3986POPC   GL153353  39.916  19.828   5.720
 3986POPC   GL253354  40.016  20.157   5.801
 3986POPC   C1A53355  39.984  19.670   6.143
 3986POPC   D2A53356  40.077  19.798   6.554
 3986POPC   C3A53357  39.827  19.739   6.913
 3986POPC   C4A53358  39.951  19.821   7.306
 3986POPC   C1B53359  39.893  20.199   6.242
 3986POPC   C2B53360  39.938  20.295   6.689
 3986POPC   C3B53361  39.653  20.232   7.044
 3986POPC   C4B53362  39.629  20.231   7.483
 3987POPC   NC353363  27.919  24.226   5.465
 3987POPC   PO453364  27.501  24.697   5.278
 3987POPC   GL153365  27.656  24.586   5.717
 3987POPC   GL253366  27.445  24.405   5.822
 3987POPC   C1A53367  27.769  24.420   6.200
 3987POPC   D2A53368  27.891  24.473   6.644
 3987POPC   C3A53369  27.912  24.702   7.041
 3987POPC   C4A53370  27.917  24.504   7.433
 3987POPC   C1B53371  27.376  24.110   6.172
 3987POPC   C2B53372  27.620  24.058   6.569
 3987POPC   C3B53373  27.644  24.234   7.014
 3987POPC   C4B53374  27.551  24.164   7.441
 3988POPC   NC353375   9.619  35.923   5.502
 3988POPC   PO453376  10.183  36.221   5.528
 3988POPC   GL153377   9.956  36.080   5.881
 3988POPC   GL253378   9.614  36.217   5.906
 3988POPC   C1A53379   9.959  36.266   6.299
 3988POPC   D2A53380   9.962  36.466   6.692
 3988POPC   C3A53381   9.982  36.202   7.020
 3988POPC   C4A53382   9.854  36.282   7.437
 3988POPC   C1B53383   9.581  35.914   6.214
 3988POPC   C2B53384   9.742  35.906   6.616
 3988POPC   C3B53385   9.575  35.914   6.997
 3988POPC   C4B53386   9.771  35.801   7.343
 3989POPC   NC353387  34.223  19.698   5.421
 3989POPC   PO453388  33.655  20.025   5.452
 3989POPC   GL153389  33.780  19.762   5.759
 3989POPC   GL253390  33.442  19.778   5.875
 3989POPC   C1A53391  34.010  19.830   6.152
 3989POPC   D2A53392  33.879  19.712   6.580
 3989POPC   C3A53393  34.097  19.700   6.936
 3989POPC   C4A53394  34.205  19.965   7.258
 3989POPC   C1B53395  33.503  19.855   6.258
 3989POPC   C2B53396  33.381  19.621   6.589
 3989POPC   C3B53397  33.504  19.861   6.924
 3989POPC   C4B53398  33.722  19.890   7.253
 3990POPC   NC353399  44.300   8.435   5.104
 3990POPC   PO453400  44.062   7.924   5.374
 3990POPC   GL153401  43.947   7.829   5.765
 3990POPC   GL253402  44.234   7.751   5.938
 3990POPC   C1A53403  43.736   7.901   6.157
 3990POPC   D2A53404  43.714   7.719   6.572
 3990POPC   C3A53405  43.860   7.929   6.961
 3990POPC   C4A53406  43.755   8.331   7.142
 3990POPC   C1B53407  44.196   7.805   6.382
 3990POPC   C2B53408  44.164   8.177   6.645
 3990POPC   C3B53409  44.266   8.244   7.082
 3990POPC   C4B53410  44.449   8.297   7.488
 3991POPC   NC353411  40.205  36.503   5.623
 3991POPC   PO453412  39.840  35.959   5.424
 3991POPC   GL153413  39.930  36.069   5.826
 3991POPC   GL253414  39.731  36.345   5.871
 3991POPC   C1A53415  40.094  36.004   6.234
 3991POPC   D2A53416  40.177  35.677   6.539
 3991POPC   C3A53417  40.203  35.856   6.933
 3991POPC   C4A53418  40.252  36.244   7.121
 3991POPC   C1B53419  39.613  36.134   6.248
 3991POPC   C2B53420  39.757  36.011   6.653
 3991POPC   C3B53421  39.759  36.179   7.050
 3991POPC   C4B53422  39.796  36.618   7.131
 3992POPC   NC353423  13.920  36.088   5.236
 3992POPC   PO453424  13.386  35.943   5.604
 3992POPC   GL153425  13.614  36.042   5.898
 3992POPC   GL253426  13.591  36.378   5.857
 3992POPC   C1A53427  13.473  36.090   6.311
 3992POPC   D2A53428  13.409  35.823   6.654
 3992POPC   C3A53429  13.531  35.958   7.047
 3992POPC   C4A53430  13.952  36.004   7.172
 3992POPC   C1B53431  13.822  36.443   6.220
 3992POPC   C2B53432  13.840  36.312   6.664
 3992POPC   C3B53433  13.717  36.452   7.075
 3992POPC   C4B53434  13.392  36.624   7.310
 3993POPC   NC353435  28.823   0.877   5.451
 3993POPC   PO453436  29.503   1.002   5.429
 3993POPC   GL153437  29.422   1.186   5.823
 3993POPC   GL253438  29.116   1.404   5.831
 3993POPC   C1A53439  29.491   1.194   6.275
 3993POPC   D2A53440  29.300   0.991   6.628
 3993POPC   C3A53441  29.238   1.086   7.056
 3993POPC   C4A53442  28.787   1.070   7.122
 3993POPC   C1B53443  29.209   1.631   6.248
 3993POPC   C2B53444  29.288   1.516   6.702
 3993POPC   C3B53445  29.008   1.532   7.072
 3993POPC   C4B53446  29.000   1.450   7.554
 3994POPC   NC353447  20.233  15.687   5.477
 3994POPC   PO453448  20.880  15.884   5.685
 3994POPC   GL153449  20.467  15.976   5.940
 3994POPC   GL253450  20.268  16.322   5.898
 3994POPC   C1A53451  20.478  15.989   6.383
 3994POPC   D2A53452  20.814  15.814   6.624
 3994POPC   C3A53453  20.792  16.057   6.991
 3994POPC   C4A53454  20.439  15.991   7.228
 3994POPC   C1B53455  20.037  16.236   6.285
 3994POPC   C2B53456  20.051  16.142   6.744
 3994POPC   C3B53457  20.049  16.312   7.188
 3994POPC   C4B53458  20.275  16.296   7.629
 3995POPC   NC353459  25.589  25.180   5.280
 3995POPC   PO453460  24.953  24.950   5.403
 3995POPC   GL153461  25.203  25.208   5.712
 3995POPC   GL253462  25.509  25.052   5.759
 3995POPC   C1A53463  25.120  25.244   6.177
 3995POPC   D2A53464  25.316  25.095   6.581
 3995POPC   C3A53465  25.189  25.288   6.949
 3995POPC   C4A53466  25.066  25.459   7.332
 3995POPC   C1B53467  25.609  25.308   6.116
 3995POPC   C2B53468  25.780  25.339   6.510
 3995POPC   C3B53469  25.770  25.137   6.902
 3995POPC   C4B53470  25.553  25.209   7.299
 3996POPC   NC353471   7.219  10.723   5.387
 3996POPC   PO453472   7.354  10.108   5.404
 3996POPC   GL153473   7.303  10.331   5.786
 3996POPC   GL253474   7.567  10.131   5.887
 3996POPC   C1A53475   7.471  10.614   6.140
 3996POPC   D2A53476   7.743  10.710   6.521
 3996POPC   C3A53477   7.452  10.698   6.856
 3996POPC   C4A53478   7.413  10.589   7.278
 3996POPC   C1B53479   7.348  10.114   6.288
 3996POPC   C2B53480   7.414  10.189   6.749
 3996POPC   C3B53481   7.581  10.074   7.169
 3996POPC   C4B53482   7.724   9.806   7.555
 3997POPC   NC353483  19.992  24.992   5.594
 3997POPC   PO453484  19.885  25.655   5.446
 3997POPC   GL153485  19.726  25.435   5.807
 3997POPC   GL253486  19.652  25.102   5.947
 3997POPC   C1A53487  19.847  25.452   6.232
 3997POPC   D2A53488  19.832  25.203   6.584
 3997POPC   C3A53489  19.838  25.513   6.911
 3997POPC   C4A53490  19.993  25.413   7.300
 3997POPC   C1B53491  19.470  24.885   6.293
 3997POPC   C2B53492  19.473  24.841   6.742
 3997POPC   C3B53493  19.565  24.900   7.178
 3997POPC   C4B53494  19.320  25.061   7.571
 3998POPC   NC353495  18.132  38.942   5.298
 3998POPC   PO453496  18.487  39.552   5.423
 3998POPC   GL153497  18.502  39.317   5.773
 3998POPC   GL253498  18.396  39.000   5.735
 3998POPC   C1A53499  18.322  39.342   6.164
 3998POPC   D2A53500  18.450  39.348   6.559
 3998POPC   C3A53501  18.348  39.107   6.911
 3998POPC   C4A53502  18.611  38.914   7.211
 3998POPC   C1B53503  18.000  38.996   5.992
 3998POPC   C2B53504  17.989  38.974   6.484
 3998POPC   C3B53505  17.952  38.787   6.941
 3998POPC   C4B53506  18.152  38.755   7.369
 3999POPC   NC353507  14.087  36.946   5.297
 3999POPC   PO453508  14.774  36.895   5.233
 3999POPC   GL153509  14.509  37.091   5.539
 3999POPC   GL253510  14.601  37.370   5.712
 3999POPC   C1A53511  14.502  36.882   5.944
 3999POPC   D2A53512  14.639  36.763   6.350
 3999POPC   C3A53513  14.447  36.863   6.761
 3999POPC   C4A53514  14.698  36.716   7.103
 3999POPC   C1B53515  14.359  37.323   6.124
 3999POPC   C2B53516  14.193  37.301   6.515
 3999POPC   C3B53517  14.389  37.373   6.894
 3999POPC   C4B53518  14.438  37.123   7.232
 4000POPC   NC353519  16.219  11.453   5.444
 4000POPC   PO453520  15.958  10.945   5.347
 4000POPC   GL153521  15.946  11.172   5.802
 4000POPC   GL253522  15.921  11.573   5.837
 4000POPC   C1A53523  15.832  11.187   6.282
 4000POPC   D2A53524  16.004  10.996   6.680
 4000POPC   C3A53525  15.931  11.283   7.043
 4000POPC   C4A53526  15.612  11.592   7.009
 4000POPC   C1B53527  16.177  11.563   6.195
 4000POPC   C2B53528  16.151  11.531   6.625
 4000POPC   C3B53529  16.274  11.692   7.018
 4000POPC   C4B53530  16.146  11.578   7.449
 4001POPC   NC353531   8.208  44.986   5.094
 4001POPC   PO453532   8.364  44.376   5.427
 4001POPC   GL153533   8.305  44.656   5.826
 4001POPC   GL253534   8.508  44.942   5.922
 4001POPC   C1A53535   8.234  44.737   6.293
 4001POPC   D2A53536   8.076  44.451   6.602
 4001POPC   C3A53537   7.928  44.750   6.929
 4001POPC   C4A53538   8.113  44.758   7.286
 4001POPC   C1B53539   8.745  44.842   6.276
 4001POPC   C2B53540   8.621  44.505   6.547
 4001POPC   C3B53541   8.436  44.528   6.937
 4001POPC   C4B53542   8.597  44.663   7.286
 4002POPC   NC353543   9.493  41.446   5.434
 4002POPC   PO453544  10.173  41.217   5.506
 4002POPC   GL153545   9.836  41.329   5.802
 4002POPC   GL253546   9.734  41.699   5.808
 4002POPC   C1A53547   9.646  41.415   6.211
 4002POPC   D2A53548   9.735  41.695   6.531
 4002POPC   C3A53549   9.602  41.580   6.918
 4002POPC   C4A53550   9.634  41.367   7.294
 4002POPC   C1B53551   9.413  41.873   6.123
 4002POPC   C2B53552   9.218  41.763   6.542
 4002POPC   C3B53553   9.224  41.932   6.978
 4002POPC   C4B53554   9.380  41.811   7.393
 4003POPC   NC353555  14.456  30.035   5.322
 4003POPC   PO453556  13.829  29.938   5.432
 4003POPC   GL153557  14.198  30.034   5.767
 4003POPC   GL253558  14.564  29.864   5.789
 4003POPC   C1A53559  14.282  29.912   6.216
 4003POPC   D2A53560  14.226  29.713   6.629
 4003POPC   C3A53561  14.156  30.029   6.928
 4003POPC   C4A53562  14.524  30.111   7.109
 4003POPC   C1B53563  14.777  29.752   6.199
 4003POPC   C2B53564  14.746  29.733   6.671
 4003POPC   C3B53565  14.626  29.442   7.027
 4003POPC   C4B53566  14.540  29.554   7.468
 4004POPC   NC353567  27.844  24.986   5.405
 4004POPC   PO453568  27.368  25.509   5.481
 4004POPC   GL153569  27.427  25.390   5.870
 4004POPC   GL253570  27.563  25.069   5.844
 4004POPC   C1A53571  27.593  25.392   6.280
 4004POPC   D2A53572  27.362  25.405   6.630
 4004POPC   C3A53573  27.628  25.355   6.992
 4004POPC   C4A53574  27.915  25.537   7.256
 4004POPC   C1B53575  27.577  24.876   6.249
 4004POPC   C2B53576  27.625  24.943   6.676
 4004POPC   C3B53577  27.437  24.899   7.082
 4004POPC   C4B53578  27.626  24.920   7.487
 4005POPC   NC353579  12.544  15.597   5.458
 4005POPC   PO453580  12.996  16.068   5.094
 4005POPC   GL153581  12.843  16.039   5.586
 4005POPC   GL253582  13.032  15.785   5.800
 4005POPC   C1A53583  12.874  16.184   6.076
 4005POPC   D2A53584  13.141  16.342   6.450
 4005POPC   C3A53585  13.098  16.223   6.901
 4005POPC   C4A53586  12.711  16.242   7.142
 4005POPC   C1B53587  12.930  15.680   6.224
 4005POPC   C2B53588  12.877  15.837   6.657
 4005POPC   C3B53589  12.805  15.723   7.103
 4005POPC   C4B53590  12.943  15.575   7.514
 4006POPC   NC353591  14.925  38.885   5.479
 4006POPC   PO453592  15.205  39.485   5.366
 4006POPC   GL153593  15.088  39.318   5.759
 4006POPC   GL253594  14.770  39.517   5.802
 4006POPC   C1A53595  15.304  39.095   6.126
 4006POPC   D2A53596  15.355  38.943   6.573
 4006POPC   C3A53597  15.480  39.197   6.970
 4006POPC   C4A53598  15.416  39.299   7.451
 4006POPC   C1B53599  14.888  39.382   6.232
 4006POPC   C2B53600  15.075  39.370   6.658
 4006POPC   C3B53601  14.870  39.448   7.042
 4006POPC   C4B53602  14.765  39.855   7.225
 4007POPC   NC353603  31.957  10.345   5.485
 4007POPC   PO453604  32.541  10.419   5.326
 4007POPC   GL153605  32.320  10.617   5.716
 4007POPC   GL253606  32.430  10.952   5.794
 4007POPC   C1A53607  32.043  10.581   6.119
 4007POPC   D2A53608  32.134  10.470   6.563
 4007POPC   C3A53609  31.905  10.390   6.945
 4007POPC   C4A53610  32.050  10.183   7.312
 4007POPC   C1B53611  32.527  10.781   6.231
 4007POPC   C2B53612  32.454  10.831   6.700
 4007POPC   C3B53613  32.349  10.623   7.110
 4007POPC   C4B53614  32.488  10.698   7.554
 4008POPC   NC353615  18.435  29.575   5.479
 4008POPC   PO453616  18.639  30.139   5.421
 4008POPC   GL153617  18.526  30.227   5.835
 4008POPC   GL253618  18.272  29.964   5.921
 4008POPC   C1A53619  18.516  30.220   6.292
 4008POPC   D2A53620  18.215  30.038   6.591
 4008POPC   C3A53621  18.350  30.127   7.010
 4008POPC   C4A53622  18.128  30.046   7.375
 4008POPC   C1B53623  18.316  29.548   6.127
 4008POPC   C2B53624  18.274  29.381   6.525
 4008POPC   C3B53625  18.301  29.616   6.883
 4008POPC   C4B53626  18.453  29.660   7.275
 4009POPC   NC353627  28.777  28.719   5.351
 4009POPC   PO453628  28.069  28.755   5.480
 4009POPC   GL153629  28.421  28.534   5.723
 4009POPC   GL253630  28.609  28.845   5.810
 4009POPC   C1A53631  28.471  28.268   6.164
 4009POPC   D2A53632  28.393  28.084   6.608
 4009POPC   C3A53633  28.564  28.263   6.992
 4009POPC   C4A53634  28.634  28.115   7.403
 4009POPC   C1B53635  28.297  28.753   6.182
 4009POPC   C2B53636  28.085  28.515   6.541
 4009POPC   C3B53637  27.946  28.609   6.981
 4009POPC   C4B53638  28.191  28.835   7.342
 4010POPC   NC353639  13.701  26.598   5.505
 4010POPC   PO453640  13.900  25.895   5.433
 4010POPC   GL153641  13.938  25.936   5.852
 4010POPC   GL253642  13.719  26.216   5.849
 4010POPC   C1A53643  13.856  25.889   6.312
 4010POPC   D2A53644  13.549  25.826   6.649
 4010POPC   C3A53645  13.708  25.843   7.069
 4010POPC   C4A53646  13.870  26.247   7.175
 4010POPC   C1B53647  13.436  26.172   6.195
 4010POPC   C2B53648  13.274  26.287   6.617
 4010POPC   C3B53649  13.372  26.258   7.062
 4010POPC   C4B53650  13.527  26.572   7.383
 4011POPC   NC353651  38.562  33.429   5.529
 4011POPC   PO453652  38.170  33.833   5.149
 4011POPC   GL153653  38.251  33.893   5.611
 4011POPC   GL253654  38.082  33.648   5.797
 4011POPC   C1A53655  38.409  33.947   6.065
 4011POPC   D2A53656  38.308  34.099   6.504
 4011POPC   C3A53657  38.532  33.905   6.859
 4011POPC   C4A53658  38.580  34.050   7.277
 4011POPC   C1B53659  38.019  33.367   6.131
 4011POPC   C2B53660  38.234  33.186   6.498
 4011POPC   C3B53661  38.253  33.330   6.911
 4011POPC   C4B53662  38.288  33.619   7.251
 4012POPC   NC353663  14.752  41.050   5.413
 4012POPC   PO453664  14.098  40.821   5.351
 4012POPC   GL153665  14.189  40.887   5.805
 4012POPC   GL253666  14.523  40.826   5.830
 4012POPC   C1A53667  14.127  40.884   6.299
 4012POPC   D2A53668  14.065  40.993   6.777
 4012POPC   C3A53669  14.259  40.664   7.049
 4012POPC   C4A53670  14.136  40.254   7.080
 4012POPC   C1B53671  14.618  41.029   6.225
 4012POPC   C2B53672  14.581  40.905   6.681
 4012POPC   C3B53673  14.491  41.116   7.081
 4012POPC   C4B53674  14.508  41.072   7.536
 4013POPC   NC353675   9.217  12.663   5.439
 4013POPC   PO453676   8.920  13.252   5.431
 4013POPC   GL153677   9.111  13.107   5.807
 4013POPC   GL253678   8.946  12.755   5.862
 4013POPC   C1A53679   8.995  13.077   6.270
 4013POPC   D2A53680   8.895  12.655   6.439
 4013POPC   C3A53681   8.898  12.576   6.862
 4013POPC   C4A53682   8.891  12.895   7.124
 4013POPC   C1B53683   9.314  12.721   6.133
 4013POPC   C2B53684   9.415  12.900   6.540
 4013POPC   C3B53685   9.363  12.820   6.990
 4013POPC   C4B53686   9.285  12.971   7.443
 4014POPC   NC353687  10.909  35.299   4.999
 4014POPC   PO453688  10.511  35.276   5.509
 4014POPC   GL153689  10.562  35.473   5.883
 4014POPC   GL253690  10.234  35.495   5.897
 4014POPC   C1A53691  10.564  35.464   6.321
 4014POPC   D2A53692  10.690  35.166   6.603
 4014POPC   C3A53693  10.683  35.319   7.017
 4014POPC   C4A53694  10.736  35.117   7.411
 4014POPC   C1B53695  10.198  35.125   6.196
 4014POPC   C2B53696  10.167  35.199   6.639
 4014POPC   C3B53697  10.195  35.142   7.073
 4014POPC   C4B53698  10.055  35.383   7.394
 4015POPC   NC353699  12.179  17.232   5.541
 4015POPC   PO453700  11.700  17.694   5.350
 4015POPC   GL153701  11.898  17.594   5.844
 4015POPC   GL253702  12.085  17.262   6.022
 4015POPC   C1A53703  11.828  17.557   6.314
 4015POPC   D2A53704  11.729  17.256   6.666
 4015POPC   C3A53705  11.824  17.449   7.036
 4015POPC   C4A53706  11.899  17.864   7.175
 4015POPC   C1B53707  12.331  17.496   6.361
 4015POPC   C2B53708  12.259  17.424   6.762
 4015POPC   C3B53709  12.304  17.368   7.162
 4015POPC   C4B53710  12.371  17.756   7.330
 4016POPC   NC353711  32.990  20.919   5.371
 4016POPC   PO453712  32.835  20.273   5.378
 4016POPC   GL153713  32.718  20.588   5.707
 4016POPC   GL253714  33.053  20.642   5.817
 4016POPC   C1A53715  32.742  20.567   6.202
 4016POPC   D2A53716  32.984  20.589   6.593
 4016POPC   C3A53717  32.791  20.577   7.021
 4016POPC   C4A53718  32.827  20.880   7.346
 4016POPC   C1B53719  33.342  20.698   6.170
 4016POPC   C2B53720  33.501  20.576   6.557
 4016POPC   C3B53721  33.425  20.753   6.941
 4016POPC   C4B53722  33.427  20.622   7.314
 4017POPC   NC353723  44.516  23.160   5.578
 4017POPC   PO453724   0.027  22.668   5.490
 4017POPC   GL153725  44.734  22.783   5.853
 4017POPC   GL253726  44.506  22.531   5.949
 4017POPC   C1A53727  44.499  22.965   6.249
 4017POPC   D2A53728  44.434  23.218   6.666
 4017POPC   C3A53729  44.685  23.140   7.105
 4017POPC   C4A53730  44.943  23.222   7.508
 4017POPC   C1B53731  44.367  22.460   6.339
 4017POPC   C2B53732  44.575  22.415   6.755
 4017POPC   C3B53733  44.741  22.563   7.144
 4017POPC   C4B53734  44.500  22.711   7.447
 4018POPC   NC353735  42.568   4.580   5.432
 4018POPC   PO453736  42.607   3.902   5.684
 4018POPC   GL153737  42.405   4.241   5.843
 4018POPC   GL253738  42.064   4.157   5.875
 4018POPC   C1A53739  42.456   4.231   6.275
 4018POPC   D2A53740  42.429   4.009   6.642
 4018POPC   C3A53741  42.483   4.228   6.991
 4018POPC   C4A53742  42.564   4.636   7.125
 4018POPC   C1B53743  41.969   4.157   6.312
 4018POPC   C2B53744  41.733   4.302   6.616
 4018POPC   C3B53745  41.882   4.350   6.980
 4018POPC   C4B53746  42.117   4.394   7.301
 4019POPC   NC353747  40.078  34.114   5.470
 4019POPC   PO453748  39.563  33.772   5.411
 4019POPC   GL153749  39.860  33.720   5.762
 4019POPC   GL253750  39.784  33.388   5.809
 4019POPC   C1A53751  40.045  33.667   6.205
 4019POPC   D2A53752  40.131  33.387   6.590
 4019POPC   C3A53753  40.129  33.614   6.976
 4019POPC   C4A53754  40.239  34.081   7.038
 4019POPC   C1B53755  39.543  33.532   6.155
 4019POPC   C2B53756  39.666  33.619   6.570
 4019POPC   C3B53757  39.568  33.669   6.980
 4019POPC   C4B53758  39.820  33.908   7.244
 4020POPC   NC353759  43.525  35.286   5.416
 4020POPC   PO453760  42.845  35.180   5.498
 4020POPC   GL153761  43.061  35.403   5.858
 4020POPC   GL253762  43.420  35.557   5.826
 4020POPC   C1A53763  42.857  35.426   6.294
 4020POPC   D2A53764  42.622  35.511   6.713
 4020POPC   C3A53765  42.948  35.587   7.035
 4020POPC   C4A53766  43.103  35.184   7.207
 4020POPC   C1B53767  43.640  35.673   6.208
 4020POPC   C2B53768  43.483  35.770   6.625
 4020POPC   C3B53769  43.551  35.619   7.062
 4020POPC   C4B53770  43.337  35.550   7.469
 4021POPC   NC353771  27.124  34.157   5.570
 4021POPC   PO453772  27.263  34.716   5.538
 4021POPC   GL153773  27.077  34.522   5.943
 4021POPC   GL253774  26.795  34.272   5.942
 4021POPC   C1A53775  27.130  34.644   6.399
 4021POPC   D2A53776  27.332  34.628   6.817
 4021POPC   C3A53777  27.066  34.525   7.203
 4021POPC   C4A53778  26.808  34.825   7.454
 4021POPC   C1B53779  26.971  34.157   6.341
 4021POPC   C2B53780  26.941  34.229   6.794
 4021POPC   C3B53781  26.592  34.390   7.097
 4021POPC   C4B53782  26.326  34.540   7.435
 4022POPC   NC353783   3.325  39.908   5.333
 4022POPC   PO453784   4.047  39.834   5.428
 4022POPC   GL153785   3.694  39.961   5.724
 4022POPC   GL253786   3.492  39.746   5.804
 4022POPC   C1A53787   3.588  40.136   6.127
 4022POPC   D2A53788   3.469  39.991   6.549
 4022POPC   C3A53789   3.549  40.192   6.910
 4022POPC   C4A53790   3.532  40.007   7.293
 4022POPC   C1B53791   3.269  39.704   6.190
 4022POPC   C2B53792   3.007  39.772   6.558
 4022POPC   C3B53793   3.212  39.761   6.944
 4022POPC   C4B53794   3.043  39.858   7.307
 4023POPC   NC353795  36.155  10.714   5.342
 4023POPC   PO453796  35.790  10.187   5.394
 4023POPC   GL153797  36.102  10.430   5.759
 4023POPC   GL253798  36.313  10.775   5.800
 4023POPC   C1A53799  36.049  10.558   6.199
 4023POPC   D2A53800  36.272  10.372   6.519
 4023POPC   C3A53801  36.376  10.473   6.889
 4023POPC   C4A53802  36.229  10.638   7.249
 4023POPC   C1B53803  36.323  11.018   6.182
 4023POPC   C2B53804  36.242  10.905   6.592
 4023POPC   C3B53805  36.481  10.965   6.935
 4023POPC   C4B53806  36.669  10.896   7.329
 4024POPC   NC353807  21.064  16.447   5.124
 4024POPC   PO453808  21.685  16.539   5.431
 4024POPC   GL153809  21.295  16.550   5.717
 4024POPC   GL253810  21.104  16.855   5.597
 4024POPC   C1A53811  21.296  16.394   6.193
 4024POPC   D2A53812  21.595  16.369   6.574
 4024POPC   C3A53813  21.535  16.439   7.018
 4024POPC   C4A53814  21.503  16.484   7.469
 4024POPC   C1B53815  21.013  16.801   6.067
 4024POPC   C2B53816  21.030  16.713   6.541
 4024POPC   C3B53817  21.149  16.771   7.020
 4024POPC   C4B53818  21.356  17.004   7.402
 4025POPC   NC353819  36.481  20.342   5.380
 4025POPC   PO453820  35.945  20.880   5.346
 4025POPC   GL153821  36.170  20.662   5.680
 4025POPC   GL253822  36.327  20.977   5.793
 4025POPC   C1A53823  36.167  20.424   6.106
 4025POPC   D2A53824  35.974  20.295   6.544
 4025POPC   C3A53825  36.139  20.465   6.958
 4025POPC   C4A53826  36.373  20.466   7.363
 4025POPC   C1B53827  36.077  20.951   6.125
 4025POPC   C2B53828  36.134  20.783   6.516
 4025POPC   C3B53829  36.040  20.947   6.906
 4025POPC   C4B53830  36.315  20.965   7.217
 4026POPC   NC353831  33.760   0.577   5.635
 4026POPC   PO453832  33.302   1.075   5.530
 4026POPC   GL153833  33.324   0.773   5.907
 4026POPC   GL253834  33.331   0.395   5.878
 4026POPC   C1A53835  33.315   0.611   6.367
 4026POPC   D2A53836  33.528   0.440   6.763
 4026POPC   C3A53837  33.550   0.487   7.247
 4026POPC   C4A53838  33.837   0.489   7.604
 4026POPC   C1B53839  33.613   0.182   6.208
 4026POPC   C2B53840  33.852   0.076   6.578
 4026POPC   C3B53841  33.931   0.220   6.999
 4026POPC   C4B53842  33.884   0.034   7.374
 4027POPC   NC353843  10.906  36.994   5.463
 4027POPC   PO453844  11.445  37.355   5.400
 4027POPC   GL153845  11.339  37.107   5.779
 4027POPC   GL253846  11.322  36.757   5.657
 4027POPC   C1A53847  11.173  37.153   6.221
 4027POPC   D2A53848  11.119  37.015   6.666
 4027POPC   C3A53849  11.386  37.230   6.925
 4027POPC   C4A53850  11.436  37.143   7.354
 4027POPC   C1B53851  11.390  36.674   6.095
 4027POPC   C2B53852  11.319  36.533   6.514
 4027POPC   C3B53853  11.319  36.592   6.961
 4027POPC   C4B53854  11.208  36.360   7.343
 4028POPC   NC353855  37.330  21.914   5.519
 4028POPC   PO453856  36.813  22.296   5.264
 4028POPC   GL153857  36.959  22.232   5.690
 4028POPC   GL253858  36.784  21.955   5.735
 4028POPC   C1A53859  37.080  22.097   6.137
 4028POPC   D2A53860  37.286  22.085   6.545
 4028POPC   C3A53861  37.122  22.284   6.917
 4028POPC   C4A53862  36.904  22.474   7.255
 4028POPC   C1B53863  36.619  21.850   6.118
 4028POPC   C2B53864  36.828  21.722   6.484
 4028POPC   C3B53865  36.743  21.944   6.842
 4028POPC   C4B53866  36.625  21.900   7.244
 4029POPC   NC353867  10.852  42.420   5.417
 4029POPC   PO453868  10.188  42.695   5.474
 4029POPC   GL153869  10.381  42.524   5.812
 4029POPC   GL253870  10.523  42.172   5.842
 4029POPC   C1A53871  10.226  42.395   6.190
 4029POPC   D2A53872  10.509  42.372   6.505
 4029POPC   C3A53873  10.369  42.344   6.925
 4029POPC   C4A53874  10.564  42.454   7.278
 4029POPC   C1B53875  10.519  41.910   6.263
 4029POPC   C2B53876  10.550  41.907   6.736
 4029POPC   C3B53877  10.819  42.032   7.078
 4029POPC   C4B53878  10.776  42.077   7.536
 4030POPC   NC353879   9.930  16.471   5.236
 4030POPC   PO453880   9.892  15.856   5.561
 4030POPC   GL153881   9.763  16.217   5.756
 4030POPC   GL253882  10.019  16.419   5.925
 4030POPC   C1A53883   9.565  16.163   6.150
 4030POPC   D2A53884   9.630  16.266   6.561
 4030POPC   C3A53885   9.483  16.055   6.868
 4030POPC   C4A53886   9.690  15.769   7.108
 4030POPC   C1B53887  10.084  16.086   6.266
 4030POPC   C2B53888  10.223  16.054   6.729
 4030POPC   C3B53889  10.201  16.141   7.196
 4030POPC   C4B53890  10.195  16.335   7.638
 4031POPC   NC353891  38.089   9.821   5.673
 4031POPC   PO453892  38.654   9.441   5.494
 4031POPC   GL153893  38.561   9.715   5.857
 4031POPC   GL253894  38.578  10.092   5.779
 4031POPC   C1A53895  38.422   9.556   6.283
 4031POPC   D2A53896  38.341   9.427   6.726
 4031POPC   C3A53897  38.599   9.496   7.094
 4031POPC   C4A53898  38.507   9.487   7.546
 4031POPC   C1B53899  38.385  10.096   6.198
 4031POPC   C2B53900  38.477   9.962   6.608
 4031POPC   C3B53901  38.377  10.008   7.028
 4031POPC   C4B53902  38.551  10.272   7.340
 4032POPC   NC353903  19.368  44.268   5.647
 4032POPC   PO453904  19.081  43.625   5.589
 4032POPC   GL153905  19.111  43.928   5.918
 4032POPC   GL253906  18.780  44.088   5.977
 4032POPC   C1A53907  19.169  44.174   6.297
 4032POPC   D2A53908  18.852  44.217   6.601
 4032POPC   C3A53909  18.950  44.116   7.023
 4032POPC   C4A53910  19.128  43.909   7.357
 4032POPC   C1B53911  18.834  43.754   6.322
 4032POPC   C2B53912  18.824  43.677   6.780
 4032POPC   C3B53913  18.741  43.419   7.143
 4032POPC   C4B53914  18.510  43.351   7.574
 4033POPC   NC353915  41.483  14.732   5.452
 4033POPC   PO453916  41.923  14.312   5.555
 4033POPC   GL153917  41.594  14.430   5.873
 4033POPC   GL253918  41.574  14.139   6.078
 4033POPC   C1A53919  41.288  14.547   6.229
 4033POPC   D2A53920  41.115  14.613   6.668
 4033POPC   C3A53921  41.356  14.579   7.075
 4033POPC   C4A53922  41.747  14.664   7.322
 4033POPC   C1B53923  41.782  14.443   6.363
 4033POPC   C2B53924  41.789  14.460   6.823
 4033POPC   C3B53925  41.656  14.166   7.160
 4033POPC   C4B53926  41.340  13.923   7.404
 4034POPC   NC353927  26.467   0.229   5.592
 4034POPC   PO453928  26.935   0.716   5.535
 4034POPC   GL153929  26.956   0.563   5.954
 4034POPC   GL253930  26.846   0.216   5.938
 4034POPC   C1A53931  26.693   0.528   6.322
 4034POPC   D2A53932  26.548   0.528   6.765
 4034POPC   C3A53933  26.802   0.691   7.074
 4034POPC   C4A53934  26.852   0.587   7.493
 4034POPC   C1B53935  26.809   0.009   6.321
 4034POPC   C2B53936  26.818   0.080   6.726
 4034POPC   C3B53937  26.811   0.174   7.153
 4034POPC   C4B53938  26.687   0.106   7.573
 4035POPC   NC353939  27.917   1.294   5.381
 4035POPC   PO453940  27.429   0.963   5.126
 4035POPC   GL153941  27.555   1.132   5.697
 4035POPC   GL253942  27.394   0.847   5.851
 4035POPC   C1A53943  27.682   1.175   6.157
 4035POPC   D2A53944  27.842   1.316   6.580
 4035POPC   C3A53945  27.782   1.073   6.970
 4035POPC   C4A53946  27.592   1.300   7.295
 4035POPC   C1B53947  27.267   0.860   6.282
 4035POPC   C2B53948  27.326   1.036   6.726
 4035POPC   C3B53949  27.168   1.054   7.180
 4035POPC   C4B53950  27.143   0.975   7.642
 4036POPC   NC353951  31.692  18.580   5.458
 4036POPC   PO453952  31.171  18.133   5.384
 4036POPC   GL153953  31.403  18.211   5.762
 4036POPC   GL253954  31.354  18.569   5.851
 4036POPC   C1A53955  31.285  18.178   6.209
 4036POPC   D2A53956  31.512  18.222   6.589
 4036POPC   C3A53957  31.340  18.105   6.985
 4036POPC   C4A53958  31.553  18.166   7.382
 4036POPC   C1B53959  31.662  18.503   6.165
 4036POPC   C2B53960  31.786  18.665   6.578
 4036POPC   C3B53961  31.700  18.494   6.981
 4036POPC   C4B53962  31.808  18.600   7.375
 4037POPC   NC353963  34.044  35.130   5.357
 4037POPC   PO453964  34.668  35.450   5.315
 4037POPC   GL153965  34.391  35.391   5.679
 4037POPC   GL253966  34.213  35.698   5.734
 4037POPC   C1A53967  34.359  35.129   6.042
 4037POPC   D2A53968  34.524  34.942   6.405
 4037POPC   C3A53969  34.610  35.258   6.701
 4037POPC   C4A53970  34.644  35.200   7.109
 4037POPC   C1B53971  34.150  35.597   6.149
 4037POPC   C2B53972  34.133  35.442   6.570
 4037POPC   C3B53973  34.147  35.618   6.983
 4037POPC   C4B53974  34.473  35.669   7.254
 4038POPC   NC353975  23.111  12.911   5.494
 4038POPC   PO453976  22.707  12.369   5.414
 4038POPC   GL153977  22.818  12.630   5.805
 4038POPC   GL253978  22.791  12.982   5.891
 4038POPC   C1A53979  23.062  12.743   6.219
 4038POPC   D2A53980  22.840  12.720   6.609
 4038POPC   C3A53981  23.001  12.739   7.012
 4038POPC   C4A53982  23.330  12.526   7.257
 4038POPC   C1B53983  22.758  13.158   6.314
 4038POPC   C2B53984  22.992  13.190   6.712
 4038POPC   C3B53985  22.866  13.266   7.125
 4038POPC   C4B53986  22.560  12.981   7.262
 4039POPC   NC353987  41.060  27.838   5.218
 4039POPC   PO453988  40.457  27.434   5.241
 4039POPC   GL153989  40.632  27.556   5.707
 4039POPC   GL253990  40.485  27.866   5.857
 4039POPC   C1A53991  40.898  27.637   6.150
 4039POPC   D2A53992  41.126  27.752   6.584
 4039POPC   C3A53993  40.904  27.706   7.004
 4039POPC   C4A53994  40.524  27.932   7.186
 4039POPC   C1B53995  40.411  27.530   6.202
 4039POPC   C2B53996  40.554  27.255   6.552
 4039POPC   C3B53997  40.408  27.246   7.005
 4039POPC   C4B53998  40.304  27.501   7.389
 4040POPC   NC353999  14.823   2.355   5.385
 4040POPC   PO454000  14.689   3.062   5.355
 4040POPC   GL154001  14.515   2.978   5.777
 4040POPC   GL254002  14.507   2.593   5.733
 4040POPC   C1A54003  14.368   3.142   6.208
 4040POPC   D2A54004  14.339   3.344   6.632
 4040POPC   C3A54005  14.423   3.112   7.015
 4040POPC   C4A54006  14.494   2.827   7.365
 4040POPC   C1B54007  14.305   2.629   6.138
 4040POPC   C2B54008  14.231   2.775   6.552
 4040POPC   C3B54009  14.313   2.607   6.924
 4040POPC   C4B54010  14.320   2.328   7.252
 4041POPC   NC354011  16.919  43.056   5.419
 4041POPC   PO454012  16.785  43.688   5.629
 4041POPC   GL154013  16.900  43.314   5.879
 4041POPC   GL254014  16.649  43.004   5.853
 4041POPC   C1A54015  16.806  43.165   6.306
 4041POPC   D2A54016  16.824  43.074   6.729
 4041POPC   C3A54017  16.628  43.256   7.091
 4041POPC   C4A54018  16.810  43.188   7.504
 4041POPC   C1B54019  16.605  42.661   6.150
 4041POPC   C2B54020  16.745  42.476   6.518
 4041POPC   C3B54021  16.666  42.615   6.910
 4041POPC   C4B54022  16.576  42.804   7.267
 4042POPC   NC354023   3.712  30.380   5.531
 4042POPC   PO454024   3.370  30.866   5.194
 4042POPC   GL154025   3.398  30.899   5.642
 4042POPC   GL254026   3.734  30.797   5.848
 4042POPC   C1A54027   3.288  30.836   6.067
 4042POPC   D2A54028   3.557  30.876   6.419
 4042POPC   C3A54029   3.404  30.721   6.803
 4042POPC   C4A54030   3.484  30.846   7.195
 4042POPC   C1B54031   3.826  30.465   6.199
 4042POPC   C2B54032   3.799  30.390   6.672
 4042POPC   C3B54033   3.653  30.347   7.133
 4042POPC   C4B54034   3.709  30.524   7.558
 4043POPC   NC354035  21.623  33.260   5.315
 4043POPC   PO454036  21.072  32.826   5.463
 4043POPC   GL154037  21.174  33.022   5.893
 4043POPC   GL254038  21.129  33.394   5.948
 4043POPC   C1A54039  21.158  33.018   6.359
 4043POPC   D2A54040  20.988  32.979   6.788
 4043POPC   C3A54041  21.250  32.702   7.055
 4043POPC   C4A54042  21.698  32.784   7.127
 4043POPC   C1B54043  21.009  33.499   6.391
 4043POPC   C2B54044  21.249  33.432   6.781
 4043POPC   C3B54045  21.382  33.213   7.180
 4043POPC   C4B54046  21.177  33.278   7.637
 4044POPC   NC354047   6.792  33.142   5.354
 4044POPC   PO454048   6.591  32.583   5.177
 4044POPC   GL154049   6.778  32.697   5.643
 4044POPC   GL254050   6.680  33.037   5.832
 4044POPC   C1A54051   6.862  32.678   6.138
 4044POPC   D2A54052   6.654  32.940   6.503
 4044POPC   C3A54053   6.817  32.977   6.941
 4044POPC   C4A54054   6.866  32.723   7.353
 4044POPC   C1B54055   6.590  33.364   6.165
 4044POPC   C2B54056   6.423  33.440   6.572
 4044POPC   C3B54057   6.221  33.188   6.888
 4044POPC   C4B54058   6.377  32.904   7.241
 4045POPC   NC354059  20.786  12.184   5.402
 4045POPC   PO454060  20.469  11.572   5.548
 4045POPC   GL154061  20.726  11.882   5.815
 4045POPC   GL254062  21.086  11.826   5.825
 4045POPC   C1A54063  20.713  12.156   6.195
 4045POPC   D2A54064  20.548  12.464   6.502
 4045POPC   C3A54065  20.395  12.373   6.895
 4045POPC   C4A54066  20.471  12.224   7.264
 4045POPC   C1B54067  20.999  11.742   6.284
 4045POPC   C2B54068  20.947  11.937   6.709
 4045POPC   C3B54069  20.934  12.038   7.164
 4045POPC   C4B54070  20.829  12.130   7.615
 4046POPC   NC354071  26.609  17.202   5.375
 4046POPC   PO454072  26.816  16.693   5.396
 4046POPC   GL154073  26.687  16.903   5.804
 4046POPC   GL254074  26.993  16.878   5.995
 4046POPC   C1A54075  26.559  16.792   6.250
 4046POPC   D2A54076  26.848  16.676   6.631
 4046POPC   C3A54077  26.834  16.704   7.114
 4046POPC   C4A54078  26.838  16.411   7.495
 4046POPC   C1B54079  26.925  17.127   6.382
 4046POPC   C2B54080  26.816  17.166   6.824
 4046POPC   C3B54081  27.092  17.176   7.177
 4046POPC   C4B54082  27.256  17.292   7.588
 4047POPC   NC354083  24.624   0.899   5.318
 4047POPC   PO454084  24.540   1.493   5.292
 4047POPC   GL154085  24.741   1.289   5.646
 4047POPC   GL254086  24.667   0.943   5.822
 4047POPC   C1A54087  24.918   1.322   6.029
 4047POPC   D2A54088  24.896   1.223   6.450
 4047POPC   C3A54089  24.559   1.180   6.790
 4047POPC   C4A54090  24.608   1.388   7.211
 4047POPC   C1B54091  24.467   1.061   6.219
 4047POPC   C2B54092  24.200   0.819   6.508
 4047POPC   C3B54093  24.073   0.898   6.929
 4047POPC   C4B54094  24.251   1.008   7.319
 4048POPC   NC354095   0.812  36.026   5.426
 4048POPC   PO454096   0.137  36.180   5.377
 4048POPC   GL154097   0.435  36.179   5.805
 4048POPC   GL254098   0.634  35.862   5.867
 4048POPC   C1A54099   0.369  36.020   6.274
 4048POPC   D2A54100   0.181  35.950   6.668
 4048POPC   C3A54101   0.375  36.077   7.047
 4048POPC   C4A54102   0.639  35.819   7.299
 4048POPC   C1B54103   0.838  36.149   6.190
 4048POPC   C2B54104   0.711  36.251   6.625
 4048POPC   C3B54105   0.889  36.172   7.031
 4048POPC   C4B54106   0.791  36.285   7.458
 4049POPC   NC354107  26.508  23.995   5.500
 4049POPC   PO454108  26.863  23.638   5.176
 4049POPC   GL154109  26.824  23.577   5.666
 4049POPC   GL254110  26.938  23.854   5.816
 4049POPC   C1A54111  26.734  23.510   6.166
 4049POPC   D2A54112  26.695  23.721   6.613
 4049POPC   C3A54113  26.572  23.500   7.034
 4049POPC   C4A54114  26.691  23.367   7.515
 4049POPC   C1B54115  26.844  24.049   6.202
 4049POPC   C2B54116  27.071  24.072   6.577
 4049POPC   C3B54117  26.913  24.052   6.954
 4049POPC   C4B54118  27.056  24.109   7.369
 4050POPC   NC354119  37.725  12.331   5.635
 4050POPC   PO454120  37.259  11.896   5.724
 4050POPC   GL154121  37.623  11.911   5.968
 4050POPC   GL254122  37.517  12.250   6.088
 4050POPC   C1A54123  37.696  11.904   6.436
 4050POPC   D2A54124  37.641  11.709   6.846
 4050POPC   C3A54125  37.873  11.981   7.144
 4050POPC   C4A54126  38.040  12.433   7.116
 4050POPC   C1B54127  37.372  12.295   6.501
 4050POPC   C2B54128  37.451  12.180   6.903
 4050POPC   C3B54129  37.359  11.959   7.259
 4050POPC   C4B54130  37.588  11.888   7.613
 4051POPC   NC354131  33.820   5.013   5.399
 4051POPC   PO454132  34.009   5.621   5.617
 4051POPC   GL154133  33.995   5.214   5.848
 4051POPC   GL254134  33.680   5.017   5.879
 4051POPC   C1A54135  33.925   5.177   6.290
 4051POPC   D2A54136  34.050   5.405   6.632
 4051POPC   C3A54137  33.813   5.280   6.947
 4051POPC   C4A54138  33.864   5.101   7.329
 4051POPC   C1B54139  33.434   5.006   6.246
 4051POPC   C2B54140  33.571   4.917   6.649
 4051POPC   C3B54141  33.427   4.965   7.049
 4051POPC   C4B54142  33.367   5.345   7.208
 4052POPC   NC354143  24.002  27.756   5.230
 4052POPC   PO454144  23.648  27.142   5.327
 4052POPC   GL154145  23.750  27.400   5.730
 4052POPC   GL254146  24.064  27.619   5.829
 4052POPC   C1A54147  23.513  27.413   6.130
 4052POPC   D2A54148  23.396  27.230   6.536
 4052POPC   C3A54149  23.406  27.461   6.932
 4052POPC   C4A54150  23.259  27.383   7.352
 4052POPC   C1B54151  24.022  27.405   6.266
 4052POPC   C2B54152  23.880  27.325   6.731
 4052POPC   C3B54153  23.850  27.449   7.216
 4052POPC   C4B54154  24.085  27.306   7.587
 4053POPC   NC354155  35.732   3.570   5.472
 4053POPC   PO454156  35.146   3.430   5.416
 4053POPC   GL154157  35.064   3.594   5.841
 4053POPC   GL254158  35.408   3.513   5.887
 4053POPC   C1A54159  35.132   3.564   6.327
 4053POPC   D2A54160  35.107   3.425   6.785
 4053POPC   C3A54161  35.161   3.721   7.142
 4053POPC   C4A54162  35.210   3.916   7.561
 4053POPC   C1B54163  35.576   3.289   6.237
 4053POPC   C2B54164  35.558   3.192   6.678
 4053POPC   C3B54165  35.496   3.322   7.116
 4053POPC   C4B54166  35.616   3.611   7.457
 4054POPC   NC354167  25.977  27.600   5.124
 4054POPC   PO454168  26.228  27.163   5.546
 4054POPC   GL154169  26.072  27.354   5.910
 4054POPC   GL254170  25.925  27.648   5.812
 4054POPC   C1A54171  26.117  27.589   6.299
 4054POPC   D2A54172  25.943  27.558   6.720
 4054POPC   C3A54173  26.146  27.392   7.099
 4054POPC   C4A54174  25.878  27.463   7.455
 4054POPC   C1B54175  25.758  27.929   6.114
 4054POPC   C2B54176  25.885  28.035   6.513
 4054POPC   C3B54177  25.715  28.025   6.927
 4054POPC   C4B54178  25.555  27.821   7.341
 4055POPC   NC354179  21.635  44.486   5.477
 4055POPC   PO454180  21.026  44.677   5.282
 4055POPC   GL154181  21.232  44.681   5.729
 4055POPC   GL254182  21.288  44.314   5.816
 4055POPC   C1A54183  21.340  44.646   6.196
 4055POPC   D2A54184  21.363  44.869   6.592
 4055POPC   C3A54185  21.326  44.654   6.961
 4055POPC   C4A54186  21.548  44.652   7.352
 4055POPC   C1B54187  21.504  44.143   6.204
 4055POPC   C2B54188  21.366  44.162   6.669
 4055POPC   C3B54189  21.477  44.186   7.114
 4055POPC   C4B54190  21.809  44.238   7.418
 4056POPC   NC354191  37.619  13.979   5.447
 4056POPC   PO454192  37.994  13.479   5.409
 4056POPC   GL154193  37.744  13.628   5.815
 4056POPC   GL254194  37.438  13.869   5.894
 4056POPC   C1A54195  37.560  13.479   6.217
 4056POPC   D2A54196  37.545  13.203   6.594
 4056POPC   C3A54197  37.696  13.411   6.952
 4056POPC   C4A54198  37.465  13.431   7.332
 4056POPC   C1B54199  37.694  13.990   6.203
 4056POPC   C2B54200  37.765  13.806   6.587
 4056POPC   C3B54201  37.582  13.907   6.969
 4056POPC   C4B54202  37.762  14.027   7.329
 4057POPC   NC354203  13.682  31.836   5.320
 4057POPC   PO454204  13.901  31.275   5.488
 4057POPC   GL154205  13.675  31.462   5.811
 4057POPC   GL254206  13.417  31.638   5.717
 4057POPC   C1A54207  13.743  31.560   6.227
 4057POPC   D2A54208  13.926  31.536   6.622
 4057POPC   C3A54209  13.609  31.527   6.902
 4057POPC   C4A54210  13.573  31.294   7.292
 4057POPC   C1B54211  13.331  31.842   6.122
 4057POPC   C2B54212  13.210  31.817   6.562
 4057POPC   C3B54213  13.337  31.975   6.944
 4057POPC   C4B54214  13.642  31.919   7.241
 4058POPC   NC354215  28.378   1.422   5.585
 4058POPC   PO454216  27.926   0.849   5.573
 4058POPC   GL154217  28.156   1.089   5.892
 4058POPC   GL254218  28.571   1.105   5.909
 4058POPC   C1A54219  28.273   1.201   6.323
 4058POPC   D2A54220  28.364   0.971   6.702
 4058POPC   C3A54221  28.278   1.105   7.114
 4058POPC   C4A54222  28.076   1.461   7.250
 4058POPC   C1B54223  28.750   1.391   6.210
 4058POPC   C2B54224  28.801   1.271   6.637
 4058POPC   C3B54225  28.518   1.497   6.910
 4058POPC   C4B54226  28.566   1.619   7.323
 4059POPC   NC354227   2.262  36.987   5.131
 4059POPC   PO454228   2.927  37.185   5.314
 4059POPC   GL154229   2.873  37.051   5.739
 4059POPC   GL254230   2.525  37.194   5.751
 4059POPC   C1A54231   3.043  36.925   6.173
 4059POPC   D2A54232   3.249  36.913   6.610
 4059POPC   C3A54233   3.070  36.884   7.036
 4059POPC   C4A54234   2.967  37.128   7.440
 4059POPC   C1B54235   2.616  37.208   6.202
 4059POPC   C2B54236   2.734  37.053   6.600
 4059POPC   C3B54237   2.614  37.102   7.022
 4059POPC   C4B54238   2.608  36.649   7.168
 4060POPC   NC354239  22.860  26.191   5.108
 4060POPC   PO454240  23.127  26.752   5.395
 4060POPC   GL154241  22.929  26.922   5.747
 4060POPC   GL254242  22.841  26.644   5.917
 4060POPC   C1A54243  23.078  27.036   6.162
 4060POPC   D2A54244  23.092  26.820   6.553
 4060POPC   C3A54245  23.130  27.010   6.957
 4060POPC   C4A54246  22.966  26.723   7.265
 4060POPC   C1B54247  22.655  26.643   6.310
 4060POPC   C2B54248  22.383  26.391   6.583
 4060POPC   C3B54249  22.488  26.282   6.990
 4060POPC   C4B54250  22.512  26.461   7.371
 4061POPC   NC354251  43.146  31.567   5.512
 4061POPC   PO454252  42.722  31.067   5.732
 4061POPC   GL154253  42.875  31.401   5.962
 4061POPC   GL254254  43.235  31.498   5.992
 4061POPC   C1A54255  42.961  31.369   6.404
 4061POPC   D2A54256  43.230  31.359   6.752
 4061POPC   C3A54257  43.071  31.660   7.062
 4061POPC   C4A54258  42.681  31.688   7.251
 4061POPC   C1B54259  43.521  31.514   6.332
 4061POPC   C2B54260  43.625  31.722   6.698
 4061POPC   C3B54261  43.491  31.937   7.093
 4061POPC   C4B54262  43.347  31.824   7.518
 4062POPC   NC354263  19.397  37.764   5.366
 4062POPC   PO454264  18.744  37.548   5.427
 4062POPC   GL154265  18.907  37.637   5.791
 4062POPC   GL254266  19.274  37.596   5.845
 4062POPC   C1A54267  18.686  37.724   6.141
 4062POPC   D2A54268  18.907  37.698   6.482
 4062POPC   C3A54269  18.727  37.646   6.844
 4062POPC   C4A54270  18.903  37.640   7.215
 4062POPC   C1B54271  19.348  37.454   6.304
 4062POPC   C2B54272  19.270  37.521   6.780
 4062POPC   C3B54273  19.401  37.516   7.223
 4062POPC   C4B54274  19.524  37.397   7.645
 4063POPC   NC354275   2.944  33.936   5.508
 4063POPC   PO454276   2.416  33.524   5.420
 4063POPC   GL154277   2.545  33.801   5.789
 4063POPC   GL254278   2.545  34.192   5.776
 4063POPC   C1A54279   2.796  33.832   6.215
 4063POPC   D2A54280   2.846  33.595   6.642
 4063POPC   C3A54281   3.021  33.733   7.042
 4063POPC   C4A54282   3.293  34.034   7.232
 4063POPC   C1B54283   2.537  34.285   6.229
 4063POPC   C2B54284   2.556  34.052   6.651
 4063POPC   C3B54285   2.530  33.964   7.120
 4063POPC   C4B54286   2.388  33.804   7.548
 4064POPC   NC354287  32.080  15.941   5.374
 4064POPC   PO454288  32.714  15.777   5.161
 4064POPC   GL154289  32.542  15.858   5.646
 4064POPC   GL254290  32.306  16.153   5.785
 4064POPC   C1A54291  32.430  15.801   6.122
 4064POPC   D2A54292  32.521  15.919   6.561
 4064POPC   C3A54293  32.431  15.743   6.956
 4064POPC   C4A54294  32.258  15.867   7.372
 4064POPC   C1B54295  32.295  16.382   6.216
 4064POPC   C2B54296  32.166  16.301   6.617
 4064POPC   C3B54297  32.326  16.253   7.017
 4064POPC   C4B54298  32.146  16.401   7.401
 4065POPC   NC354299  39.408  33.341   5.468
 4065POPC   PO454300  38.787  33.055   5.281
 4065POPC   GL154301  38.920  33.057   5.748
 4065POPC   GL254302  38.852  32.817   5.977
 4065POPC   C1A54303  39.268  33.097   6.100
 4065POPC   D2A54304  39.228  33.359   6.511
 4065POPC   C3A54305  39.217  33.281   6.951
 4065POPC   C4A54306  39.172  33.190   7.354
 4065POPC   C1B54307  38.901  32.946   6.407
 4065POPC   C2B54308  39.176  32.858   6.682
 4065POPC   C3B54309  39.071  32.776   7.069
 4065POPC   C4B54310  39.396  32.714   7.340
 4066POPC   NC354311  13.929  10.735   5.167
 4066POPC   PO454312  13.305  10.680   5.315
 4066POPC   GL154313  13.632  10.655   5.631
 4066POPC   GL254314  13.626  10.997   5.667
 4066POPC   C1A54315  13.756  10.418   6.049
 4066POPC   D2A54316  13.936  10.185   6.437
 4066POPC   C3A54317  13.857  10.329   6.896
 4066POPC   C4A54318  13.725  10.555   7.307
 4066POPC   C1B54319  13.515  10.875   6.106
 4066POPC   C2B54320  13.671  10.694   6.517
 4066POPC   C3B54321  13.931  10.853   6.881
 4066POPC   C4B54322  13.964  11.022   7.306
 4067POPC   NC354323   0.304   7.696   5.517
 4067POPC   PO454324   0.536   7.057   5.355
 4067POPC   GL154325   0.290   7.233   5.700
 4067POPC   GL254326   0.554   7.432   5.857
 4067POPC   C1A54327   0.144   7.435   6.115
 4067POPC   D2A54328   0.440   7.499   6.447
 4067POPC   C3A54329   0.268   7.592   6.828
 4067POPC   C4A54330   0.088   7.463   7.198
 4067POPC   C1B54331   0.563   7.097   6.131
 4067POPC   C2B54332   0.583   6.968   6.520
 4067POPC   C3B54333   0.569   7.176   6.883
 4067POPC   C4B54334   0.603   7.458   7.197
 4068POPC   NC354335   6.040  38.234   4.933
 4068POPC   PO454336   5.716  38.492   5.492
 4068POPC   GL154337   5.845  38.444   5.884
 4068POPC   GL254338   6.109  38.682   5.839
 4068POPC   C1A54339   5.728  38.222   6.272
 4068POPC   D2A54340   5.500  38.303   6.658
 4068POPC   C3A54341   5.675  38.122   7.032
 4068POPC   C4A54342   5.793  38.190   7.490
 4068POPC   C1B54343   5.932  38.698   6.303
 4068POPC   C2B54344   5.885  38.644   6.749
 4068POPC   C3B54345   5.788  38.613   7.180
 4068POPC   C4B54346   5.839  38.972   7.431
 4069POPC   NC354347   5.925  20.716   5.171
 4069POPC   PO454348   5.606  20.262   5.637
 4069POPC   GL154349   5.854  20.589   5.805
 4069POPC   GL254350   6.045  20.912   5.693
 4069POPC   C1A54351   5.685  20.742   6.175
 4069POPC   D2A54352   5.832  20.687   6.581
 4069POPC   C3A54353   5.503  20.469   6.800
 4069POPC   C4A54354   5.634  20.308   7.168
 4069POPC   C1B54355   6.168  20.905   6.128
 4069POPC   C2B54356   6.316  20.906   6.558
 4069POPC   C3B54357   6.131  20.888   6.967
 4069POPC   C4B54358   5.867  20.747   7.267
 4070POPC   NC354359   5.952   9.753   5.373
 4070POPC   PO454360   5.305  10.011   5.559
 4070POPC   GL154361   5.720   9.998   5.802
 4070POPC   GL254362   6.107   9.978   5.792
 4070POPC   C1A54363   5.867   9.714   6.159
 4070POPC   D2A54364   5.893   9.627   6.606
 4070POPC   C3A54365   5.634   9.750   6.947
 4070POPC   C4A54366   5.702   9.631   7.337
 4070POPC   C1B54367   6.312   9.946   6.170
 4070POPC   C2B54368   6.258  10.065   6.611
 4070POPC   C3B54369   6.124   9.895   7.018
 4070POPC   C4B54370   6.257   9.995   7.442
 4071POPC   NC354371  33.215  18.411   5.384
 4071POPC   PO454372  32.724  18.013   5.358
 4071POPC   GL154373  32.821  18.253   5.743
 4071POPC   GL254374  32.510  18.267   5.931
 4071POPC   C1A54375  32.913  18.340   6.220
 4071POPC   D2A54376  32.797  18.531   6.639
 4071POPC   C3A54377  33.150  18.457   6.950
 4071POPC   C4A54378  33.385  18.100   7.106
 4071POPC   C1B54379  32.753  17.858   6.082
 4071POPC   C2B54380  32.847  17.704   6.518
 4071POPC   C3B54381  32.930  18.021   6.808
 4071POPC   C4B54382  32.817  18.119   7.225
 4072POPC   NC354383  42.353  22.521   5.477
 4072POPC   PO454384  42.120  21.839   5.515
 4072POPC   GL154385  42.302  22.104   5.780
 4072POPC   GL254386  42.039  22.289   5.835
 4072POPC   C1A54387  42.446  22.309   6.185
 4072POPC   D2A54388  42.573  22.128   6.620
 4072POPC   C3A54389  42.453  22.269   7.040
 4072POPC   C4A54390  42.417  22.246   7.496
 4072POPC   C1B54391  42.015  22.032   6.199
 4072POPC   C2B54392  41.971  22.007   6.641
 4072POPC   C3B54393  42.102  21.923   7.066
 4072POPC   C4B54394  42.118  21.812   7.513
 4073POPC   NC354395  42.416  39.375   5.586
 4073POPC   PO454396  42.071  38.859   5.768
 4073POPC   GL154397  42.220  39.193   6.036
 4073POPC   GL254398  42.610  39.230   6.049
 4073POPC   C1A54399  42.328  39.100   6.456
 4073POPC   D2A54400  42.623  39.301   6.663
 4073POPC   C3A54401  42.397  39.571   6.895
 4073POPC   C4A54402  42.497  39.544   7.287
 4073POPC   C1B54403  42.815  38.911   6.369
 4073POPC   C2B54404  42.699  38.803   6.804
 4073POPC   C3B54405  42.394  38.996   7.091
 4073POPC   C4B54406  42.238  38.842   7.484
 4074POPC   NC354407  16.496  34.853   5.434
 4074POPC   PO454408  17.149  34.573   5.404
 4074POPC   GL154409  16.858  34.484   5.758
 4074POPC   GL254410  16.523  34.602   5.877
 4074POPC   C1A54411  16.959  34.645   6.153
 4074POPC   D2A54412  17.036  34.549   6.559
 4074POPC   C3A54413  17.038  34.795   6.933
 4074POPC   C4A54414  16.948  34.660   7.358
 4074POPC   C1B54415  16.467  34.578   6.326
 4074POPC   C2B54416  16.575  34.754   6.706
 4074POPC   C3B54417  16.532  34.538   7.074
 4074POPC   C4B54418  16.398  34.146   7.229
 4075POPC   NC354419   6.598   7.500   5.365
 4075POPC   PO454420   6.964   7.032   5.482
 4075POPC   GL154421   6.826   7.293   5.815
 4075POPC   GL254422   6.454   7.316   5.827
 4075POPC   C1A54423   6.981   7.456   6.216
 4075POPC   D2A54424   7.013   7.194   6.574
 4075POPC   C3A54425   6.726   7.130   6.889
 4075POPC   C4A54426   6.709   7.429   7.205
 4075POPC   C1B54427   6.586   7.124   6.234
 4075POPC   C2B54428   6.333   7.147   6.567
 4075POPC   C3B54429   6.260   7.401   6.906
 4075POPC   C4B54430   6.235   7.240   7.286
 4076POPC   NC354431  26.117  36.133   5.433
 4076POPC   PO454432  25.641  36.004   5.664
 4076POPC   GL154433  26.027  36.130   5.941
 4076POPC   GL254434  26.286  36.384   5.854
 4076POPC   C1A54435  26.223  36.274   6.350
 4076POPC   D2A54436  26.120  36.495   6.740
 4076POPC   C3A54437  26.051  36.184   7.041
 4076POPC   C4A54438  26.283  35.911   7.328
 4076POPC   C1B54439  26.606  36.556   6.153
 4076POPC   C2B54440  26.628  36.559   6.634
 4076POPC   C3B54441  26.495  36.424   7.081
 4076POPC   C4B54442  26.213  36.396   7.482
 4077POPC   NC354443  20.849  33.244   5.544
 4077POPC   PO454444  21.350  33.589   5.433
 4077POPC   GL154445  21.498  33.747   5.822
 4077POPC   GL254446  21.226  33.939   5.923
 4077POPC   C1A54447  21.493  33.622   6.281
 4077POPC   D2A54448  21.684  33.785   6.676
 4077POPC   C3A54449  21.531  33.733   7.093
 4077POPC   C4A54450  21.582  33.559   7.482
 4077POPC   C1B54451  21.341  34.102   6.332
 4077POPC   C2B54452  21.192  33.964   6.718
 4077POPC   C3B54453  21.230  34.156   7.118
 4077POPC   C4B54454  21.466  34.084   7.502
 4078POPC   NC354455  26.262  32.148   5.426
 4078POPC   PO454456  25.618  32.235   5.412
 4078POPC   GL154457  25.814  32.162   5.853
 4078POPC   GL254458  26.137  31.949   5.888
 4078POPC   C1A54459  25.987  32.231   6.306
 4078POPC   D2A54460  26.073  32.142   6.756
 4078POPC   C3A54461  25.900  32.279   7.162
 4078POPC   C4A54462  25.941  31.966   7.549
 4078POPC   C1B54463  26.412  32.347   6.031
 4078POPC   C2B54464  26.448  32.530   6.453
 4078POPC   C3B54465  26.483  32.418   6.882
 4078POPC   C4B54466  26.366  32.184   7.269
 4079POPC   NC354467  41.355  43.263   5.358
 4079POPC   PO454468  41.076  42.701   5.399
 4079POPC   GL154469  41.400  42.739   5.729
 4079POPC   GL254470  41.544  43.040   5.766
 4079POPC   C1A54471  41.664  42.776   6.170
 4079POPC   D2A54472  41.713  43.004   6.581
 4079POPC   C3A54473  41.645  42.740   6.955
 4079POPC   C4A54474  41.416  42.796   7.318
 4079POPC   C1B54475  41.331  43.179   6.133
 4079POPC   C2B54476  41.158  43.135   6.553
 4079POPC   C3B54477  41.335  43.176   6.973
 4079POPC   C4B54478  41.112  43.204   7.386
 4080POPC   NC354479   2.457  32.401   5.473
 4080POPC   PO454480   3.086  32.076   5.532
 4080POPC   GL154481   2.827  32.213   5.887
 4080POPC   GL254482   2.467  32.104   5.925
 4080POPC   C1A54483   2.869  32.291   6.336
 4080POPC   D2A54484   3.044  32.345   6.749
 4080POPC   C3A54485   2.991  32.079   7.098
 4080POPC   C4A54486   2.587  31.886   7.110
 4080POPC   C1B54487   2.481  32.540   6.131
 4080POPC   C2B54488   2.528  32.617   6.596
 4080POPC   C3B54489   2.595  32.463   7.027
 4080POPC   C4B54490   2.362  32.559   7.409
 4081POPC   NC354491  36.710  29.597   5.335
 4081POPC   PO454492  37.280  29.943   5.585
 4081POPC   GL154493  36.876  29.951   5.804
 4081POPC   GL254494  36.681  29.648   5.864
 4081POPC   C1A54495  36.876  29.887   6.275
 4081POPC   D2A54496  36.844  30.149   6.639
 4081POPC   C3A54497  37.031  29.996   6.998
 4081POPC   C4A54498  37.262  30.297   7.205
 4081POPC   C1B54499  36.484  29.576   6.302
 4081POPC   C2B54500  36.657  29.692   6.727
 4081POPC   C3B54501  36.517  29.948   7.102
 4081POPC   C4B54502  36.430  29.733   7.502
 4082POPC   NC354503  29.727  20.570   5.569
 4082POPC   PO454504  30.040  21.000   5.293
 4082POPC   GL154505  30.169  20.809   5.722
 4082POPC   GL254506  30.141  20.431   5.837
 4082POPC   C1A54507  30.026  20.825   6.159
 4082POPC   D2A54508  29.787  20.719   6.534
 4082POPC   C3A54509  29.932  20.529   6.893
 4082POPC   C4A54510  29.954  20.762   7.252
 4082POPC   C1B54511  29.994  20.314   6.268
 4082POPC   C2B54512  29.914  20.061   6.648
 4082POPC   C3B54513  29.608  20.138   6.990
 4082POPC   C4B54514  29.612  20.401   7.319
 4083POPC   NC354515  30.586  27.575   5.039
 4083POPC   PO454516  30.930  27.850   5.428
 4083POPC   GL154517  30.867  27.609   5.819
 4083POPC   GL254518  30.633  27.874   5.916
 4083POPC   C1A54519  30.721  27.529   6.275
 4083POPC   D2A54520  30.655  27.751   6.676
 4083POPC   C3A54521  30.766  27.543   7.083
 4083POPC   C4A54522  31.014  27.546   7.482
 4083POPC   C1B54523  30.411  28.047   6.288
 4083POPC   C2B54524  30.189  27.989   6.685
 4083POPC   C3B54525  30.366  27.904   7.100
 4083POPC   C4B54526  30.690  27.957   7.427
 4084POPC   NC354527  29.875  24.989   5.354
 4084POPC   PO454528  29.642  25.467   5.141
 4084POPC   GL154529  29.620  25.382   5.626
 4084POPC   GL254530  29.655  25.656   5.871
 4084POPC   C1A54531  29.744  25.150   6.065
 4084POPC   D2A54532  29.902  25.154   6.547
 4084POPC   C3A54533  29.981  24.954   7.002
 4084POPC   C4A54534  30.211  24.766   7.388
 4084POPC   C1B54535  29.618  25.585   6.347
 4084POPC   C2B54536  29.786  25.589   6.783
 4084POPC   C3B54537  30.172  25.424   6.919
 4084POPC   C4B54538  30.288  25.266   7.309
 4085POPC   NC354539  17.013   4.598   5.405
 4085POPC   PO454540  16.523   4.124   5.436
 4085POPC   GL154541  16.661   4.066   5.859
 4085POPC   GL254542  16.909   4.329   5.839
 4085POPC   C1A54543  16.584   4.124   6.319
 4085POPC   D2A54544  16.544   4.149   6.767
 4085POPC   C3A54545  16.714   4.513   6.991
 4085POPC   C4A54546  16.712   4.313   7.380
 4085POPC   C1B54547  17.085   4.119   6.197
 4085POPC   C2B54548  17.019   4.284   6.605
 4085POPC   C3B54549  17.039   4.127   7.006
 4085POPC   C4B54550  17.201   4.238   7.396
 4086POPC   NC354551   0.130  38.835   5.613
 4086POPC   PO454552   0.501  38.203   5.427
 4086POPC   GL154553   0.641  38.236   5.875
 4086POPC   GL254554   0.360  38.450   5.901
 4086POPC   C1A54555   0.732  38.550   6.227
 4086POPC   D2A54556   0.500  38.808   6.505
 4086POPC   C3A54557   0.494  38.593   6.874
 4086POPC   C4A54558   0.680  38.357   7.190
 4086POPC   C1B54559   0.174  38.474   6.309
 4086POPC   C2B54560   0.006  38.487   6.749
 4086POPC   C3B54561   0.067  38.519   7.229
 4086POPC   C4B54562   0.256  38.182   7.488
 4087POPC   NC354563  36.112  39.059   5.563
 4087POPC   PO454564  35.992  38.368   5.370
 4087POPC   GL154565  36.026  38.547   5.786
 4087POPC   GL254566  36.334  38.689   5.850
 4087POPC   C1A54567  35.896  38.479   6.209
 4087POPC   D2A54568  35.938  38.630   6.620
 4087POPC   C3A54569  35.857  38.396   6.992
 4087POPC   C4A54570  36.028  38.067   7.238
 4087POPC   C1B54571  36.182  38.917   6.226
 4087POPC   C2B54572  36.348  38.913   6.654
 4087POPC   C3B54573  36.123  38.854   7.046
 4087POPC   C4B54574  36.209  38.556   7.336
 4088POPC   NC354575  14.258  25.294   5.340
 4088POPC   PO454576  14.688  25.698   5.617
 4088POPC   GL154577  14.449  25.357   5.809
 4088POPC   GL254578  14.086  25.430   5.801
 4088POPC   C1A54579  14.454  25.200   6.215
 4088POPC   D2A54580  14.723  25.098   6.540
 4088POPC   C3A54581  14.569  25.042   6.909
 4088POPC   C4A54582  14.592  25.310   7.258
 4088POPC   C1B54583  13.942  25.238   6.175
 4088POPC   C2B54584  13.997  25.424   6.545
 4088POPC   C3B54585  14.146  25.354   6.964
 4088POPC   C4B54586  14.200  24.975   7.230
 4089POPC   NC354587  31.359  10.251   5.487
 4089POPC   PO454588  31.826  10.784   5.512
 4089POPC   GL154589  31.612  10.576   5.809
 4089POPC   GL254590  31.700  10.240   5.915
 4089POPC   C1A54591  31.503  10.689   6.203
 4089POPC   D2A54592  31.665  10.641   6.572
 4089POPC   C3A54593  31.458  10.733   6.917
 4089POPC   C4A54594  31.496  10.867   7.327
 4089POPC   C1B54595  31.747  10.177   6.358
 4089POPC   C2B54596  31.478  10.171   6.721
 4089POPC   C3B54597  31.478  10.170   7.134
 4089POPC   C4B54598  31.599  10.354   7.494
 4090POPC   NC354599   9.865  13.988   5.357
 4090POPC   PO454600   9.577  14.566   5.436
 4090POPC   GL154601   9.620  14.254   5.763
 4090POPC   GL254602   9.966  14.312   5.762
 4090POPC   C1A54603   9.515  14.289   6.217
 4090POPC   D2A54604   9.660  14.509   6.606
 4090POPC   C3A54605   9.633  14.257   6.975
 4090POPC   C4A54606   9.637  14.344   7.419
 4090POPC   C1B54607   9.982  14.465   6.190
 4090POPC   C2B54608  10.068  14.216   6.553
 4090POPC   C3B54609  10.095  14.029   6.916
 4090POPC   C4B54610  10.097  14.210   7.302
 4091POPC   NC354611  34.670  30.354   5.439
 4091POPC   PO454612  34.410  30.990   5.290
 4091POPC   GL154613  34.376  30.985   5.746
 4091POPC   GL254614  34.316  30.634   5.824
 4091POPC   C1A54615  34.604  30.961   6.161
 4091POPC   D2A54616  34.908  31.111   6.509
 4091POPC   C3A54617  34.947  30.882   6.900
 4091POPC   C4A54618  34.634  30.929   7.254
 4091POPC   C1B54619  34.138  30.752   6.208
 4091POPC   C2B54620  34.319  30.709   6.617
 4091POPC   C3B54621  34.200  30.704   7.052
 4091POPC   C4B54622  34.233  30.467   7.430
 4092POPC   NC354623   1.031  44.429   5.384
 4092POPC   PO454624   1.634  44.727   5.385
 4092POPC   GL154625   1.409  44.699   5.756
 4092POPC   GL254626   1.629  44.516   5.946
 4092POPC   C1A54627   1.169  44.736   6.150
 4092POPC   D2A54628   1.019  44.569   6.543
 4092POPC   C3A54629   1.127  44.738   6.937
 4092POPC   C4A54630   1.201  44.552   7.334
 4092POPC   C1B54631   1.653  44.902   6.172
 4092POPC   C2B54632   1.521  44.807   6.582
 4092POPC   C3B54633   1.627  44.660   6.998
 4092POPC   C4B54634   1.523  44.925   7.308
 4093POPC   NC354635  32.016   2.529   5.218
 4093POPC   PO454636  32.684   2.593   5.350
 4093POPC   GL154637  32.363   2.686   5.665
 4093POPC   GL254638  32.021   2.822   5.643
 4093POPC   C1A54639  32.279   2.705   6.104
 4093POPC   D2A54640  32.348   2.557   6.514
 4093POPC   C3A54641  32.302   2.837   6.857
 4093POPC   C4A54642  32.171   2.462   7.125
 4093POPC   C1B54643  31.894   3.051   6.044
 4093POPC   C2B54644  31.938   2.950   6.481
 4093POPC   C3B54645  31.797   2.763   6.877
 4093POPC   C4B54646  31.991   2.923   7.265
 4094POPC   NC354647  32.178  36.837   5.325
 4094POPC   PO454648  32.703  36.536   5.640
 4094POPC   GL154649  32.226  36.599   5.786
 4094POPC   GL254650  32.022  36.947   5.783
 4094POPC   C1A54651  31.973  36.652   6.177
 4094POPC   D2A54652  32.114  36.614   6.586
 4094POPC   C3A54653  32.155  36.855   6.923
 4094POPC   C4A54654  32.310  36.762   7.319
 4094POPC   C1B54655  32.140  37.184   6.110
 4094POPC   C2B54656  32.183  37.165   6.510
 4094POPC   C3B54657  32.163  37.368   6.893
 4094POPC   C4B54658  32.101  37.217   7.282
 4095POPC   NC354659  36.888  10.103   5.364
 4095POPC   PO454660  36.909   9.487   5.398
 4095POPC   GL154661  36.915   9.698   5.782
 4095POPC   GL254662  36.605   9.866   5.743
 4095POPC   C1A54663  36.982   9.765   6.266
 4095POPC   D2A54664  37.092   9.501   6.674
 4095POPC   C3A54665  37.138   9.738   7.065
 4095POPC   C4A54666  36.815   9.899   7.364
 4095POPC   C1B54667  36.522   9.612   6.093
 4095POPC   C2B54668  36.608   9.430   6.473
 4095POPC   C3B54669  36.635   9.595   6.885
 4095POPC   C4B54670  36.764   9.410   7.250
 4096POPC   NC354671  17.444   8.595   5.300
 4096POPC   PO454672  17.695   7.943   5.394
 4096POPC   GL154673  17.687   8.114   5.832
 4096POPC   GL254674  17.639   8.494   5.788
 4096POPC   C1A54675  17.664   7.944   6.295
 4096POPC   D2A54676  17.667   7.879   6.762
 4096POPC   C3A54677  17.426   8.137   7.032
 4096POPC   C4A54678  17.258   7.957   7.406
 4096POPC   C1B54679  17.792   8.454   6.218
 4096POPC   C2B54680  17.924   8.273   6.623
 4096POPC   C3B54681  17.834   8.455   7.009
 4096POPC   C4B54682  17.668   8.548   7.388
 4097POPC   NC354683  14.581   1.612   5.471
 4097POPC   PO454684  14.204   2.195   5.466
 4097POPC   GL154685  14.323   1.941   5.783
 4097POPC   GL254686  14.692   2.016   5.774
 4097POPC   C1A54687  14.441   1.890   6.205
 4097POPC   D2A54688  14.314   1.685   6.543
 4097POPC   C3A54689  14.349   1.924   6.908
 4097POPC   C4A54690  14.316   1.832   7.341
 4097POPC   C1B54691  14.741   2.298   6.094
 4097POPC   C2B54692  14.563   2.341   6.501
 4097POPC   C3B54693  14.719   2.293   6.905
 4097POPC   C4B54694  14.783   2.128   7.280
 4098POPC   NC354695  36.306  15.340   5.434
 4098POPC   PO454696  36.344  14.693   5.569
 4098POPC   GL154697  36.060  15.015   5.788
 4098POPC   GL254698  36.026  15.402   5.855
 4098POPC   C1A54699  35.883  14.930   6.176
 4098POPC   D2A54700  36.099  14.921   6.613
 4098POPC   C3A54701  35.947  15.020   7.055
 4098POPC   C4A54702  35.960  14.782   7.460
 4098POPC   C1B54703  36.124  15.353   6.293
 4098POPC   C2B54704  35.893  15.403   6.686
 4098POPC   C3B54705  36.057  15.523   7.080
 4098POPC   C4B54706  36.414  15.440   7.315
 4099POPC   NC354707  15.061   5.686   5.050
 4099POPC   PO454708  15.264   6.085   5.451
 4099POPC   GL154709  15.392   5.730   5.705
 4099POPC   GL254710  15.713   5.753   5.894
 4099POPC   C1A54711  15.186   5.535   6.075
 4099POPC   D2A54712  14.952   5.733   6.422
 4099POPC   C3A54713  15.017   5.752   6.884
 4099POPC   C4A54714  14.980   5.674   7.337
 4099POPC   C1B54715  15.449   5.934   6.251
 4099POPC   C2B54716  15.506   5.968   6.723
 4099POPC   C3B54717  15.413   5.936   7.173
 4099POPC   C4B54718  15.213   6.101   7.528
 4100POPC   NC354719  36.073  34.197   5.378
 4100POPC   PO454720  36.037  34.812   5.516
 4100POPC   GL154721  36.145  34.469   5.812
 4100POPC   GL254722  35.809  34.281   5.866
 4100POPC   C1A54723  36.407  34.487   6.190
 4100POPC   D2A54724  36.351  34.681   6.600
 4100POPC   C3A54725  36.217  34.347   6.886
 4100POPC   C4A54726  36.146  34.311   7.343
 4100POPC   C1B54727  35.878  34.605   6.230
 4100POPC   C2B54728  35.846  34.746   6.674
 4100POPC   C3B54729  35.981  34.753   7.095
 4100POPC   C4B54730  35.886  34.746   7.530
 4101POPC   NC354731  33.624  18.824   5.564
 4101POPC   PO454732  34.096  19.243   5.385
 4101POPC   GL154733  33.918  19.198   5.774
 4101POPC   GL254734  33.544  19.295   5.748
 4101POPC   C1A54735  33.965  18.933   6.182
 4101POPC   D2A54736  33.978  18.710   6.605
 4101POPC   C3A54737  33.635  18.838   6.908
 4101POPC   C4A54738  33.751  18.980   7.292
 4101POPC   C1B54739  33.731  19.402   6.181
 4101POPC   C2B54740  33.756  19.227   6.597
 4101POPC   C3B54741  33.678  19.396   7.016
 4101POPC   C4B54742  33.847  19.462   7.452
 4102POPC   NC354743   5.306  44.214   5.338
 4102POPC   PO454744   4.924  43.750   5.532
 4102POPC   GL154745   4.945  43.836   5.924
 4102POPC   GL254746   4.723  44.088   6.034
 4102POPC   C1A54747   5.205  43.862   6.254
 4102POPC   D2A54748   5.322  44.063   6.616
 4102POPC   C3A54749   5.429  43.777   6.896
 4102POPC   C4A54750   5.478  43.887   7.283
 4102POPC   C1B54751   4.661  43.809   6.363
 4102POPC   C2B54752   4.952  43.694   6.674
 4102POPC   C3B54753   4.913  43.880   7.071
 4102POPC   C4B54754   4.966  43.865   7.500
 4103POPC   NC354755  24.859  39.750   5.325
 4103POPC   PO454756  24.363  40.028   5.586
 4103POPC   GL154757  24.598  39.975   5.980
 4103POPC   GL254758  24.912  39.850   5.910
 4103POPC   C1A54759  24.641  40.103   6.436
 4103POPC   D2A54760  24.358  40.110   6.765
 4103POPC   C3A54761  24.503  39.986   7.141
 4103POPC   C4A54762  24.356  39.672   7.423
 4103POPC   C1B54763  24.790  39.634   6.314
 4103POPC   C2B54764  24.733  39.716   6.774
 4103POPC   C3B54765  24.850  39.611   7.214
 4103POPC   C4B54766  24.792  39.663   7.691
 4104POPC   NC354767  15.512  15.167   5.312
 4104POPC   PO454768  14.904  15.449   5.173
 4104POPC   GL154769  15.161  15.331   5.620
 4104POPC   GL254770  15.481  15.421   5.783
 4104POPC   C1A54771  15.106  15.087   6.026
 4104POPC   D2A54772  14.955  15.234   6.440
 4104POPC   C3A54773  15.097  15.092   6.841
 4104POPC   C4A54774  14.973  15.270   7.224
 4104POPC   C1B54775  15.403  15.443   6.238
 4104POPC   C2B54776  15.365  15.545   6.679
 4104POPC   C3B54777  15.472  15.355   7.070
 4104POPC   C4B54778  15.690  15.433   7.429
 4105POPC   NC354779  26.740   7.538   5.060
 4105POPC   PO454780  26.900   7.992   5.541
 4105POPC   GL154781  26.973   7.705   5.869
 4105POPC   GL254782  26.639   7.586   5.891
 4105POPC   C1A54783  27.200   7.671   6.266
 4105POPC   D2A54784  27.126   7.449   6.680
 4105POPC   C3A54785  26.926   7.671   7.052
 4105POPC   C4A54786  26.949   7.643   7.503
 4105POPC   C1B54787  26.718   7.552   6.336
 4105POPC   C2B54788  26.597   7.423   6.756
 4105POPC   C3B54789  26.658   7.212   7.177
 4105POPC   C4B54790  26.637   7.291   7.681
 4106POPC   NC354791  39.564   8.332   5.360
 4106POPC   PO454792  39.063   7.864   5.491
 4106POPC   GL154793  39.281   8.109   5.761
 4106POPC   GL254794  39.604   7.995   5.856
 4106POPC   C1A54795  39.162   8.164   6.193
 4106POPC   D2A54796  39.330   8.406   6.556
 4106POPC   C3A54797  39.220   8.321   6.960
 4106POPC   C4A54798  38.952   8.560   7.214
 4106POPC   C1B54799  39.670   8.150   6.264
 4106POPC   C2B54800  39.643   8.013   6.727
 4106POPC   C3B54801  39.553   7.993   7.190
 4106POPC   C4B54802  39.382   7.870   7.638
 4107POPC   NC354803   4.196  34.206   5.473
 4107POPC   PO454804   3.787  34.741   5.429
 4107POPC   GL154805   4.169  34.653   5.751
 4107POPC   GL254806   4.524  34.792   5.839
 4107POPC   C1A54807   4.227  34.479   6.190
 4107POPC   D2A54808   4.390  34.288   6.591
 4107POPC   C3A54809   4.102  34.320   6.941
 4107POPC   C4A54810   3.930  34.676   7.195
 4107POPC   C1B54811   4.415  34.953   6.250
 4107POPC   C2B54812   4.234  34.785   6.657
 4107POPC   C3B54813   4.453  34.668   7.024
 4107POPC   C4B54814   4.698  34.964   7.169
 4108POPC   NC354815  27.247  28.975   5.396
 4108POPC   PO454816  26.657  28.825   5.552
 4108POPC   GL154817  26.745  29.010   5.919
 4108POPC   GL254818  27.062  28.855   5.906
 4108POPC   C1A54819  26.831  29.142   6.347
 4108POPC   D2A54820  26.732  29.496   6.620
 4108POPC   C3A54821  26.498  29.295   6.907
 4108POPC   C4A54822  26.651  29.005   7.245
 4108POPC   C1B54823  27.067  28.661   6.323
 4108POPC   C2B54824  27.015  28.789   6.748
 4108POPC   C3B54825  27.015  29.183   6.943
 4108POPC   C4B54826  27.152  29.158   7.362
 4109POPC   NC354827   0.019  44.598   5.634
 4109POPC   PO454828   0.635  44.683   5.364
 4109POPC   GL154829   0.478  44.883   5.759
 4109POPC   GL254830   0.153   0.061   5.746
 4109POPC   C1A54831   0.621  44.745   6.182
 4109POPC   D2A54832   0.564  44.361   6.450
 4109POPC   C3A54833   0.563  44.429   6.924
 4109POPC   C4A54834   0.721  44.714   7.264
 4109POPC   C1B54835   0.124  44.951   6.187
 4109POPC   C2B54836   0.290  44.805   6.565
 4109POPC   C3B54837   0.332  44.902   6.956
 4109POPC   C4B54838   0.201  44.691   7.292
 4110POPC   NC354839  32.343   9.630   5.006
 4110POPC   PO454840  31.833   9.918   5.324
 4110POPC   GL154841  32.060   9.894   5.768
 4110POPC   GL254842  32.373  10.089   5.728
 4110POPC   C1A54843  32.308   9.616   6.139
 4110POPC   D2A54844  32.468   9.485   6.605
 4110POPC   C3A54845  32.213   9.603   6.969
 4110POPC   C4A54846  31.819   9.821   6.960
 4110POPC   C1B54847  32.244  10.123   6.171
 4110POPC   C2B54848  32.178   9.945   6.557
 4110POPC   C3B54849  32.354  10.121   6.908
 4110POPC   C4B54850  32.523   9.914   7.247
 4111POPC   NC354851   8.578  15.495   5.474
 4111POPC   PO454852   8.045  15.039   5.580
 4111POPC   GL154853   8.338  15.174   5.937
 4111POPC   GL254854   8.400  15.519   5.955
 4111POPC   C1A54855   8.207  15.322   6.399
 4111POPC   D2A54856   7.924  15.082   6.693
 4111POPC   C3A54857   8.140  14.884   7.003
 4111POPC   C4A54858   8.386  15.060   7.292
 4111POPC   C1B54859   8.009  15.710   6.135
 4111POPC   C2B54860   8.039  15.865   6.544
 4111POPC   C3B54861   8.144  15.565   6.859
 4111POPC   C4B54862   8.348  15.557   7.237
 4112POPC   NC354863  44.417  39.358   5.381
 4112POPC   PO454864  44.946  39.009   5.219
 4112POPC   GL154865  44.906  39.289   5.694
 4112POPC   GL254866  44.584  39.459   5.823
 4112POPC   C1A54867  44.733  39.151   6.168
 4112POPC   D2A54868  44.505  39.222   6.555
 4112POPC   C3A54869  44.718  39.269   6.930
 4112POPC   C4A54870  44.740  39.012   7.295
 4112POPC   C1B54871  44.438  39.598   6.211
 4112POPC   C2B54872  44.541  39.740   6.625
 4112POPC   C3B54873  44.390  39.650   7.022
 4112POPC   C4B54874  44.397  39.389   7.355
 4113POPC   NC354875  14.952  26.110   5.463
 4113POPC   PO454876  15.562  26.181   5.681
 4113POPC   GL154877  15.270  26.120   5.967
 4113POPC   GL254878  14.977  26.320   5.919
 4113POPC   C1A54879  15.362  26.029   6.386
 4113POPC   D2A54880  15.453  25.736   6.684
 4113POPC   C3A54881  15.282  25.756   7.089
 4113POPC   C4A54882  15.405  25.671   7.500
 4113POPC   C1B54883  14.802  26.029   6.186
 4113POPC   C2B54884  14.911  25.862   6.562
 4113POPC   C3B54885  14.991  26.125   6.883
 4113POPC   C4B54886  14.766  26.225   7.230
 4114POPC   NC354887   9.136  40.629   5.510
 4114POPC   PO454888   8.528  40.847   5.231
 4114POPC   GL154889   8.687  40.842   5.676
 4114POPC   GL254890   8.952  41.093   5.712
 4114POPC   C1A54891   8.926  40.803   6.123
 4114POPC   D2A54892   9.116  40.563   6.495
 4114POPC   C3A54893   8.933  40.692   6.892
 4114POPC   C4A54894   8.999  40.659   7.319
 4114POPC   C1B54895   8.626  41.248   6.006
 4114POPC   C2B54896   8.438  41.202   6.418
 4114POPC   C3B54897   8.613  41.102   6.810
 4114POPC   C4B54898   8.531  40.880   7.194
 4115POPC   NC354899  37.545  41.217   5.302
 4115POPC   PO454900  37.690  41.898   5.206
 4115POPC   GL154901  37.771  41.671   5.695
 4115POPC   GL254902  37.518  41.394   5.771
 4115POPC   C1A54903  37.571  41.724   6.149
 4115POPC   D2A54904  37.389  41.760   6.575
 4115POPC   C3A54905  37.616  41.699   6.961
 4115POPC   C4A54906  37.425  41.670   7.379
 4115POPC   C1B54907  37.731  41.222   6.132
 4115POPC   C2B54908  37.595  41.291   6.535
 4115POPC   C3B54909  37.442  41.214   6.917
 4115POPC   C4B54910  37.690  41.243   7.278
 4116POPC   NC354911  30.935  16.250   5.544
 4116POPC   PO454912  30.488  15.827   5.393
 4116POPC   GL154913  30.619  15.936   5.804
 4116POPC   GL254914  30.930  15.723   5.740
 4116POPC   C1A54915  30.514  16.062   6.261
 4116POPC   D2A54916  30.647  16.196   6.693
 4116POPC   C3A54917  30.552  15.959   7.074
 4116POPC   C4A54918  30.582  16.073   7.511
 4116POPC   C1B54919  30.974  15.860   6.164
 4116POPC   C2B54920  30.827  15.730   6.566
 4116POPC   C3B54921  31.039  15.923   6.912
 4116POPC   C4B54922  31.025  15.864   7.368
 4117POPC   NC354923  16.228   4.573   5.410
 4117POPC   PO454924  15.669   4.235   5.350
 4117POPC   GL154925  15.935   4.225   5.722
 4117POPC   GL254926  15.901   4.520   5.892
 4117POPC   C1A54927  16.102   4.026   6.106
 4117POPC   D2A54928  16.102   4.255   6.485
 4117POPC   C3A54929  16.028   4.094   6.897
 4117POPC   C4A54930  16.317   4.024   7.230
 4117POPC   C1B54931  16.335   4.506   6.071
 4117POPC   C2B54932  16.489   4.602   6.511
 4117POPC   C3B54933  16.221   4.552   6.890
 4117POPC   C4B54934  16.284   4.552   7.323
 4118POPC   NC354935  38.357  32.473   5.320
 4118POPC   PO454936  38.064  31.861   5.320
 4118POPC   GL154937  38.372  32.142   5.679
 4118POPC   GL254938  38.744  32.086   5.722
 4118POPC   C1A54939  38.221  32.318   6.089
 4118POPC   D2A54940  38.360  32.245   6.503
 4118POPC   C3A54941  38.142  32.356   6.856
 4118POPC   C4A54942  38.353  32.457   7.198
 4118POPC   C1B54943  38.926  32.077   6.148
 4118POPC   C2B54944  38.795  31.955   6.551
 4118POPC   C3B54945  38.699  32.141   6.936
 4118POPC   C4B54946  38.843  31.926   7.272
 4119POPC   NC354947  17.784  15.717   5.532
 4119POPC   PO454948  17.363  15.323   5.100
 4119POPC   GL154949  17.442  15.321   5.580
 4119POPC   GL254950  17.215  15.440   5.849
 4119POPC   C1A54951  17.602  15.100   5.964
 4119POPC   D2A54952  17.689  15.067   6.423
 4119POPC   C3A54953  17.389  14.977   6.793
 4119POPC   C4A54954  17.543  14.902   7.239
 4119POPC   C1B54955  17.145  15.155   6.236
 4119POPC   C2B54956  16.932  15.289   6.644
 4119POPC   C3B54957  17.075  15.561   6.977
 4119POPC   C4B54958  17.425  15.390   7.216
 4120POPC   NC354959  36.905  31.141   5.401
 4120POPC   PO454960  37.251  31.769   5.417
 4120POPC   GL154961  37.186  31.468   5.749
 4120POPC   GL254962  37.396  31.186   5.684
 4120POPC   C1A54963  36.971  31.404   6.157
 4120POPC   D2A54964  37.040  31.585   6.594
 4120POPC   C3A54965  36.677  31.560   6.880
 4120POPC   C4A54966  36.707  31.514   7.305
 4120POPC   C1B54967  37.253  30.983   6.089
 4120POPC   C2B54968  37.078  31.058   6.533
 4120POPC   C3B54969  37.049  31.202   6.971
 4120POPC   C4B54970  37.278  31.195   7.364
 4121POPC   NC354971   3.791  44.408   5.634
 4121POPC   PO454972   3.329  43.968   5.351
 4121POPC   GL154973   3.604  43.902   5.774
 4121POPC   GL254974   3.828  43.618   5.811
 4121POPC   C1A54975   3.661  43.759   6.265
 4121POPC   D2A54976   3.757  43.857   6.728
 4121POPC   C3A54977   3.376  44.052   6.945
 4121POPC   C4A54978   3.080  44.068   7.316
 4121POPC   C1B54979   3.888  43.293   6.138
 4121POPC   C2B54980   3.753  43.273   6.579
 4121POPC   C3B54981   3.734  43.419   7.014
 4121POPC   C4B54982   3.630  43.778   7.287
 4122POPC   NC354983  18.822  30.554   5.277
 4122POPC   PO454984  19.281  31.110   5.458
 4122POPC   GL154985  19.095  30.845   5.812
 4122POPC   GL254986  18.758  30.695   5.779
 4122POPC   C1A54987  19.235  30.738   6.248
 4122POPC   D2A54988  19.077  30.579   6.652
 4122POPC   C3A54989  19.258  30.611   7.103
 4122POPC   C4A54990  19.019  30.442   7.497
 4122POPC   C1B54991  18.744  30.935   6.182
 4122POPC   C2B54992  18.652  30.887   6.632
 4122POPC   C3B54993  18.741  30.660   7.034
 4122POPC   C4B54994  18.914  30.924   7.342
 4123POPC   NC354995   8.004  18.592   5.381
 4123POPC   PO454996   8.308  18.008   5.444
 4123POPC   GL154997   8.304  18.349   5.734
 4123POPC   GL254998   7.985  18.420   5.872
 4123POPC   C1A54999   8.460  18.378   6.147
 4123POPC   D2A55000   8.293  18.262   6.528
 4123POPC   C3A55001   8.442  18.439   6.865
 4123POPC   C4A55002   8.411  18.275   7.245
 4123POPC   C1B55003   7.855  18.428   6.291
 4123POPC   C2B55004   7.825  18.326   6.727
 4123POPC   C3B55005   7.986  18.491   7.101
 4123POPC   C4B55006   8.068  18.478   7.586
 4124POPC   NC355007  35.648  20.492   5.411
 4124POPC   PO455008  35.072  20.447   5.124
 4124POPC   GL155009  35.169  20.593   5.625
 4124POPC   GL255010  35.487  20.785   5.781
 4124POPC   C1A55011  35.138  20.599   6.096
 4124POPC   D2A55012  35.301  20.350   6.447
 4124POPC   C3A55013  35.254  20.474   6.871
 4124POPC   C4A55014  35.124  20.709   7.218
 4124POPC   C1B55015  35.678  20.623   6.194
 4124POPC   C2B55016  35.649  20.702   6.661
 4124POPC   C3B55017  35.674  20.676   7.138
 4124POPC   C4B55018  35.936  20.772   7.520
 4125POPC   NC355019   2.544  13.895   5.289
 4125POPC   PO455020   2.094  13.938   5.648
 4125POPC   GL155021   2.517  13.918   5.863
 4125POPC   GL255022   2.873  13.860   5.792
 4125POPC   C1A55023   2.599  13.694   6.255
 4125POPC   D2A55024   2.696  13.751   6.705
 4125POPC   C3A55025   2.435  13.556   7.061
 4125POPC   C4A55026   2.303  13.257   7.404
 4125POPC   C1B55027   3.104  13.747   6.222
 4125POPC   C2B55028   3.198  13.653   6.705
 4125POPC   C3B55029   2.949  13.643   7.137
 4125POPC   C4B55030   2.956  13.636   7.638
 4126POPC   NC355031  29.804  13.615   5.051
 4126POPC   PO455032  30.279  13.904   5.396
 4126POPC   GL155033  30.055  13.661   5.721
 4126POPC   GL255034  29.685  13.603   5.713
 4126POPC   C1A55035  29.945  13.782   6.147
 4126POPC   D2A55036  30.123  13.689   6.538
 4126POPC   C3A55037  29.908  13.787   6.904
 4126POPC   C4A55038  30.026  13.671   7.296
 4126POPC   C1B55039  29.588  13.410   6.120
 4126POPC   C2B55040  29.678  13.449   6.558
 4126POPC   C3B55041  29.863  13.292   6.920
 4126POPC   C4B55042  29.603  13.346   7.265
 4127POPC   NC355043  12.470  14.463   5.342
 4127POPC   PO455044  13.089  14.710   5.458
 4127POPC   GL155045  12.828  14.758   5.787
 4127POPC   GL255046  12.734  14.452   5.817
 4127POPC   C1A55047  12.826  14.671   6.252
 4127POPC   D2A55048  13.026  14.456   6.581
 4127POPC   C3A55049  12.806  14.544   6.932
 4127POPC   C4A55050  12.839  14.403   7.315
 4127POPC   C1B55051  12.843  14.155   6.187
 4127POPC   C2B55052  12.790  13.954   6.606
 4127POPC   C3B55053  12.907  13.969   7.049
 4127POPC   C4B55054  12.582  13.970   7.359
 4128POPC   NC355055   0.988  17.414   5.481
 4128POPC   PO455056   1.611  17.134   5.531
 4128POPC   GL155057   1.362  17.379   5.886
 4128POPC   GL255058   1.298  17.769   5.898
 4128POPC   C1A55059   1.292  17.507   6.352
 4128POPC   D2A55060   1.305  17.775   6.756
 4128POPC   C3A55061   1.125  17.692   7.179
 4128POPC   C4A55062   0.930  17.303   7.277
 4128POPC   C1B55063   1.068  17.977   6.287
 4128POPC   C2B55064   0.811  18.015   6.721
 4128POPC   C3B55065   0.776  18.073   7.203
 4128POPC   C4B55066   0.954  18.006   7.675
 4129POPC   NC355067  44.289  19.679   5.085
 4129POPC   PO455068  43.852  20.135   5.335
 4129POPC   GL155069  43.715  19.948   5.794
 4129POPC   GL255070  43.823  19.588   5.796
 4129POPC   C1A55071  43.824  19.804   6.244
 4129POPC   D2A55072  43.760  19.746   6.700
 4129POPC   C3A55073  44.090  19.691   6.991
 4129POPC   C4A55074  44.103  19.922   7.373
 4129POPC   C1B55075  43.473  19.466   6.073
 4129POPC   C2B55076  43.347  19.435   6.494
 4129POPC   C3B55077  43.455  19.407   6.923
 4129POPC   C4B55078  43.632  19.661   7.223
 4130POPC   NC355079  31.212  14.624   5.140
 4130POPC   PO455080  31.711  14.314   5.494
 4130POPC   GL155081  31.385  14.431   5.745
 4130POPC   GL255082  31.657  14.491   6.002
 4130POPC   C1A55083  31.179  14.584   6.122
 4130POPC   D2A55084  31.361  14.735   6.528
 4130POPC   C3A55085  31.196  14.662   6.934
 4130POPC   C4A55086  31.296  14.397   7.287
 4130POPC   C1B55087  31.880  14.158   6.285
 4130POPC   C2B55088  31.987  14.049   6.722
 4130POPC   C3B55089  31.706  14.171   7.063
 4130POPC   C4B55090  31.732  14.254   7.513
 4131POPC   NC355091  22.839  44.090   5.551
 4131POPC   PO455092  23.162  43.446   5.445
 4131POPC   GL155093  23.233  43.761   5.794
 4131POPC   GL255094  23.193  44.133   5.952
 4131POPC   C1A55095  23.006  43.734   6.203
 4131POPC   D2A55096  22.770  43.563   6.541
 4131POPC   C3A55097  22.937  43.710   6.916
 4131POPC   C4A55098  23.098  43.628   7.302
 4131POPC   C1B55099  22.831  44.262   6.232
 4131POPC   C2B55100  22.634  44.091   6.616
 4131POPC   C3B55101  22.729  44.178   7.028
 4131POPC   C4B55102  23.039  44.277   7.318
 4132POPC   NC355103   7.440  34.399   5.490
 4132POPC   PO455104   7.252  34.910   5.764
 4132POPC   GL155105   7.389  34.551   5.984
 4132POPC   GL255106   7.742  34.365   5.889
 4132POPC   C1A55107   7.216  34.530   6.406
 4132POPC   D2A55108   7.094  34.854   6.700
 4132POPC   C3A55109   7.360  34.798   7.040
 4132POPC   C4A55110   7.386  34.349   7.052
 4132POPC   C1B55111   7.803  34.673   6.243
 4132POPC   C2B55112   7.700  34.507   6.640
 4132POPC   C3B55113   7.883  34.271   6.965
 4132POPC   C4B55114   7.811  34.483   7.342
 4133POPC   NC355115  31.088  29.988   5.514
 4133POPC   PO455116  30.410  30.045   5.343
 4133POPC   GL155117  30.618  30.063   5.740
 4133POPC   GL255118  30.505  30.411   5.706
 4133POPC   C1A55119  30.590  29.945   6.209
 4133POPC   D2A55120  30.379  29.873   6.659
 4133POPC   C3A55121  30.537  29.782   7.113
 4133POPC   C4A55122  30.760  29.913   7.526
 4133POPC   C1B55123  30.287  30.344   6.097
 4133POPC   C2B55124  30.481  30.376   6.504
 4133POPC   C3B55125  30.619  30.271   6.927
 4133POPC   C4B55126  30.951  30.295   7.219
 4134POPC   NC355127  27.754  26.712   5.517
 4134POPC   PO455128  27.216  26.454   5.595
 4134POPC   GL155129  27.264  26.805   5.921
 4134POPC   GL255130  27.595  26.912   5.988
 4134POPC   C1A55131  27.280  26.939   6.397
 4134POPC   D2A55132  27.489  27.056   6.795
 4134POPC   C3A55133  27.453  26.770   7.153
 4134POPC   C4A55134  27.339  26.806   7.574
 4134POPC   C1B55135  27.740  26.710   6.398
 4134POPC   C2B55136  27.868  26.690   6.825
 4134POPC   C3B55137  27.955  26.975   7.163
 4134POPC   C4B55138  27.913  26.730   7.524
 4135POPC   NC355139   3.408  34.535   5.223
 4135POPC   PO455140   3.352  33.851   5.291
 4135POPC   GL155141   3.323  34.248   5.662
 4135POPC   GL255142   3.391  34.622   5.765
 4135POPC   C1A55143   3.396  34.284   6.157
 4135POPC   D2A55144   3.279  34.227   6.632
 4135POPC   C3A55145   3.454  34.482   7.013
 4135POPC   C4A55146   3.486  34.609   7.500
 4135POPC   C1B55147   3.435  34.821   6.207
 4135POPC   C2B55148   3.471  34.985   6.669
 4135POPC   C3B55149   3.450  34.980   7.146
 4135POPC   C4B55150   3.756  35.060   7.513
 4136POPC   NC355151  43.805   6.708   5.321
 4136POPC   PO455152  44.288   7.101   5.705
 4136POPC   GL155153  44.079   6.650   5.765
 4136POPC   GL255154  43.708   6.565   5.804
 4136POPC   C1A55155  44.086   6.341   6.112
 4136POPC   D2A55156  44.157   6.567   6.497
 4136POPC   C3A55157  44.238   6.427   6.902
 4136POPC   C4A55158  44.158   6.738   7.207
 4136POPC   C1B55159  43.648   6.589   6.252
 4136POPC   C2B55160  43.641   6.367   6.633
 4136POPC   C3B55161  43.719   6.509   7.035
 4136POPC   C4B55162  43.673   6.948   7.106
 4137POPC   NC355163  26.333  24.979   5.476
 4137POPC   PO455164  25.894  25.500   5.172
 4137POPC   GL155165  25.859  25.462   5.661
 4137POPC   GL255166  26.000  25.166   5.813
 4137POPC   C1A55167  26.017  25.598   6.103
 4137POPC   D2A55168  26.299  25.596   6.448
 4137POPC   C3A55169  26.118  25.570   6.822
 4137POPC   C4A55170  26.048  25.433   7.206
 4137POPC   C1B55171  26.164  25.138   6.238
 4137POPC   C2B55172  26.286  25.103   6.677
 4137POPC   C3B55173  26.242  24.971   7.104
 4137POPC   C4B55174  25.894  24.840   7.332
 4138POPC   NC355175  36.031  18.757   5.468
 4138POPC   PO455176  36.594  19.100   5.417
 4138POPC   GL155177  36.317  19.060   5.769
 4138POPC   GL255178  36.466  18.731   5.808
 4138POPC   C1A55179  35.946  19.074   6.092
 4138POPC   D2A55180  35.805  18.920   6.506
 4138POPC   C3A55181  35.939  19.165   6.844
 4138POPC   C4A55182  35.806  19.285   7.229
 4138POPC   C1B55183  36.335  18.770   6.224
 4138POPC   C2B55184  36.332  18.894   6.628
 4138POPC   C3B55185  36.256  18.812   7.049
 4138POPC   C4B55186  36.484  18.741   7.396
 4139POPC   NC355187  23.399  11.985   5.250
 4139POPC   PO455188  23.780  12.424   5.297
 4139POPC   GL155189  23.705  12.101   5.659
 4139POPC   GL255190  23.458  11.795   5.714
 4139POPC   C1A55191  23.806  12.045   6.067
 4139POPC   D2A55192  23.684  12.109   6.481
 4139POPC   C3A55193  23.977  12.091   6.807
 4139POPC   C4A55194  23.940  11.952   7.221
 4139POPC   C1B55195  23.320  11.911   6.125
 4139POPC   C2B55196  23.272  11.829   6.573
 4139POPC   C3B55197  23.387  12.116   6.914
 4139POPC   C4B55198  23.412  11.953   7.312
 4140POPC   NC355199  29.201  26.263   5.303
 4140POPC   PO455200  28.732  25.731   5.298
 4140POPC   GL155201  28.914  25.978   5.629
 4140POPC   GL255202  29.257  25.978   5.732
 4140POPC   C1A55203  28.901  25.956   6.111
 4140POPC   D2A55204  29.091  25.785   6.530
 4140POPC   C3A55205  29.079  25.995   6.976
 4140POPC   C4A55206  29.204  26.101   7.448
 4140POPC   C1B55207  29.415  26.027   6.178
 4140POPC   C2B55208  29.528  26.017   6.650
 4140POPC   C3B55209  29.565  25.919   7.115
 4140POPC   C4B55210  29.747  26.157   7.469
 4141POPC   NC355211  16.475  31.488   5.280
 4141POPC   PO455212  16.877  31.090   5.500
 4141POPC   GL155213  16.542  31.173   5.750
 4141POPC   GL255214  16.813  31.091   6.006
 4141POPC   C1A55215  16.450  31.421   6.098
 4141POPC   D2A55216  16.706  31.288   6.464
 4141POPC   C3A55217  16.604  31.515   6.804
 4141POPC   C4A55218  16.577  31.377   7.175
 4141POPC   C1B55219  17.227  31.004   6.165
 4141POPC   C2B55220  17.226  30.948   6.618
 4141POPC   C3B55221  17.101  31.333   6.856
 4141POPC   C4B55222  17.071  31.450   7.295
 4142POPC   NC355223   2.879  44.136   5.494
 4142POPC   PO455224   2.703  43.530   5.522
 4142POPC   GL155225   2.786  43.778   5.871
 4142POPC   GL255226   3.139  43.675   5.847
 4142POPC   C1A55227   2.573  43.776   6.291
 4142POPC   D2A55228   2.434  43.640   6.710
 4142POPC   C3A55229   2.747  43.789   7.014
 4142POPC   C4A55230   2.654  43.853   7.484
 4142POPC   C1B55231   3.129  43.761   6.289
 4142POPC   C2B55232   3.342  43.586   6.662
 4142POPC   C3B55233   3.212  43.574   7.072
 4142POPC   C4B55234   2.938  43.452   7.381
 4143POPC   NC355235   0.926   9.046   5.411
 4143POPC   PO455236   1.321   8.549   5.359
 4143POPC   GL155237   1.401   8.766   5.767
 4143POPC   GL255238   1.264   9.116   5.806
 4143POPC   C1A55239   1.304   8.837   6.212
 4143POPC   D2A55240   1.528   9.046   6.491
 4143POPC   C3A55241   1.331   8.943   6.829
 4143POPC   C4A55242   1.410   8.982   7.230
 4143POPC   C1B55243   1.229   9.360   6.234
 4143POPC   C2B55244   1.230   9.432   6.703
 4143POPC   C3B55245   1.241   9.442   7.157
 4143POPC   C4B55246   1.064   9.460   7.586
 4144POPC   NC355247  34.018  14.195   5.412
 4144POPC   PO455248  34.638  14.534   5.503
 4144POPC   GL155249  34.660  14.315   5.922
 4144POPC   GL255250  34.556  13.958   5.859
 4144POPC   C1A55251  34.679  14.392   6.379
 4144POPC   D2A55252  34.404  14.335   6.733
 4144POPC   C3A55253  34.583  14.463   7.111
 4144POPC   C4A55254  34.923  14.533   7.370
 4144POPC   C1B55255  34.888  13.921   6.182
 4144POPC   C2B55256  35.029  14.054   6.564
 4144POPC   C3B55257  34.808  14.041   6.978
 4144POPC   C4B55258  34.332  13.986   7.117
 4145POPC   NC355259  22.550  40.627   5.615
 4145POPC   PO455260  22.110  41.127   5.447
 4145POPC   GL155261  22.152  41.166   5.881
 4145POPC   GL255262  22.488  41.078   5.858
 4145POPC   C1A55263  22.062  41.118   6.327
 4145POPC   D2A55264  22.192  40.840   6.683
 4145POPC   C3A55265  21.961  40.878   7.051
 4145POPC   C4A55266  21.572  41.120   7.197
 4145POPC   C1B55267  22.544  40.895   6.259
 4145POPC   C2B55268  22.712  40.842   6.652
 4145POPC   C3B55269  22.592  40.934   7.072
 4145POPC   C4B55270  22.467  40.675   7.443
 4146POPC   NC355271   1.093  28.143   5.004
 4146POPC   PO455272   1.000  28.659   5.373
 4146POPC   GL155273   1.227  28.495   5.726
 4146POPC   GL255274   1.360  28.726   5.990
 4146POPC   C1A55275   1.062  28.276   6.062
 4146POPC   D2A55276   0.968  28.196   6.484
 4146POPC   C3A55277   0.838  28.505   6.779
 4146POPC   C4A55278   0.979  28.562   7.197
 4146POPC   C1B55279   1.402  28.499   6.400
 4146POPC   C2B55280   1.343  28.441   6.851
 4146POPC   C3B55281   1.500  28.620   7.247
 4146POPC   C4B55282   1.460  28.622   7.713
 4147POPC   NC355283  16.126  37.915   5.349
 4147POPC   PO455284  15.504  37.481   5.371
 4147POPC   GL155285  15.899  37.567   5.670
 4147POPC   GL255286  15.710  37.556   5.996
 4147POPC   C1A55287  16.151  37.757   6.070
 4147POPC   D2A55288  16.076  37.601   6.515
 4147POPC   C3A55289  16.250  37.801   6.881
 4147POPC   C4A55290  16.230  37.759   7.333
 4147POPC   C1B55291  15.650  37.839   6.337
 4147POPC   C2B55292  15.602  37.647   6.748
 4147POPC   C3B55293  15.758  37.755   7.123
 4147POPC   C4B55294  15.786  37.888   7.543
 4148POPC   NC355295  39.990  17.500   5.312
 4148POPC   PO455296  39.517  17.060   5.606
 4148POPC   GL155297  39.700  17.478   5.773
 4148POPC   GL255298  40.068  17.588   5.797
 4148POPC   C1A55299  39.780  17.461   6.228
 4148POPC   D2A55300  39.707  17.279   6.638
 4148POPC   C3A55301  39.887  17.442   7.019
 4148POPC   C4A55302  40.029  17.285   7.414
 4148POPC   C1B55303  40.324  17.624   6.137
 4148POPC   C2B55304  40.173  17.589   6.553
 4148POPC   C3B55305  40.366  17.593   6.938
 4148POPC   C4B55306  40.550  17.553   7.324
 4149POPC   NC355307   5.070  25.944   5.418
 4149POPC   PO455308   5.001  26.548   5.559
 4149POPC   GL155309   5.034  26.251   5.962
 4149POPC   GL255310   4.986  25.868   5.915
 4149POPC   C1A55311   5.177  26.303   6.455
 4149POPC   D2A55312   5.394  25.979   6.760
 4149POPC   C3A55313   5.217  25.946   7.166
 4149POPC   C4A55314   5.087  26.265   7.462
 4149POPC   C1B55315   5.137  25.829   6.342
 4149POPC   C2B55316   4.903  25.841   6.729
 4149POPC   C3B55317   4.791  25.647   7.108
 4149POPC   C4B55318   4.865  25.794   7.501
 4150POPC   NC355319  43.902  36.919   5.312
 4150POPC   PO455320  43.951  36.342   5.452
 4150POPC   GL155321  43.961  36.698   5.776
 4150POPC   GL255322  44.141  37.045   5.777
 4150POPC   C1A55323  44.055  36.732   6.216
 4150POPC   D2A55324  43.937  36.445   6.522
 4150POPC   C3A55325  44.002  36.578   6.938
 4150POPC   C4A55326  44.192  36.888   7.197
 4150POPC   C1B55327  43.740  37.086   6.037
 4150POPC   C2B55328  43.651  36.971   6.497
 4150POPC   C3B55329  43.761  37.044   6.916
 4150POPC   C4B55330  43.740  37.416   7.116
 4151POPC   NC355331   9.412   9.531   5.329
 4151POPC   PO455332   8.858   9.794   5.392
 4151POPC   GL155333   8.707  10.013   5.799
 4151POPC   GL255334   9.017  10.148   5.897
 4151POPC   C1A55335   8.763   9.925   6.265
 4151POPC   D2A55336   8.727   9.757   6.678
 4151POPC   C3A55337   8.788   9.988   7.068
 4151POPC   C4A55338   8.786   9.817   7.490
 4151POPC   C1B55339   9.269   9.978   6.277
 4151POPC   C2B55340   9.243   9.801   6.741
 4151POPC   C3B55341   9.257   9.802   7.217
 4151POPC   C4B55342   9.524  10.019   7.533
 4152POPC   NC355343  28.963  42.719   5.494
 4152POPC   PO455344  29.374  43.214   5.255
 4152POPC   GL155345  29.195  43.165   5.668
 4152POPC   GL255346  29.370  42.841   5.782
 4152POPC   C1A55347  29.114  43.163   6.121
 4152POPC   D2A55348  29.206  42.966   6.519
 4152POPC   C3A55349  29.037  43.161   6.888
 4152POPC   C4A55350  29.367  43.157   7.152
 4152POPC   C1B55351  29.123  42.624   6.121
 4152POPC   C2B55352  28.859  42.591   6.496
 4152POPC   C3B55353  29.079  42.638   6.916
 4152POPC   C4B55354  28.949  42.837   7.295
 4153POPC   NC355355  29.229   2.097   5.316
 4153POPC   PO455356  28.748   1.657   5.442
 4153POPC   GL155357  28.810   1.834   5.827
 4153POPC   GL255358  28.957   2.123   5.753
 4153POPC   C1A55359  28.754   1.976   6.239
 4153POPC   D2A55360  28.845   1.773   6.621
 4153POPC   C3A55361  28.769   1.984   7.013
 4153POPC   C4A55362  29.011   1.925   7.404
 4153POPC   C1B55363  29.240   2.140   6.108
 4153POPC   C2B55364  29.141   2.166   6.533
 4153POPC   C3B55365  29.268   1.998   6.921
 4153POPC   C4B55366  29.404   2.206   7.282
 4154POPC   NC355367  44.559  33.885   5.481
 4154POPC   PO455368   0.198  34.190   5.407
 4154POPC   GL155369   0.015  33.908   5.753
 4154POPC   GL255370  44.730  34.086   5.918
 4154POPC   C1A55371  44.931  33.673   6.166
 4154POPC   D2A55372  44.677  33.808   6.548
 4154POPC   C3A55373  44.673  33.494   6.885
 4154POPC   C4A55374   0.085  33.490   7.084
 4154POPC   C1B55375  44.321  34.118   6.131
 4154POPC   C2B55376  44.269  34.178   6.581
 4154POPC   C3B55377  44.363  33.933   6.956
 4154POPC   C4B55378  44.788  33.915   7.137
 4155POPC   NC355379   7.592   7.615   5.369
 4155POPC   PO455380   7.696   6.985   5.292
 4155POPC   GL155381   7.585   7.283   5.742
 4155POPC   GL255382   7.482   7.696   5.865
 4155POPC   C1A55383   7.465   7.317   6.195
 4155POPC   D2A55384   7.474   7.433   6.631
 4155POPC   C3A55385   7.133   7.555   6.903
 4155POPC   C4A55386   7.225   7.394   7.288
 4155POPC   C1B55387   7.695   7.819   6.288
 4155POPC   C2B55388   7.859   7.747   6.721
 4155POPC   C3B55389   7.603   7.723   7.084
 4155POPC   C4B55390   7.479   7.810   7.515
 4156POPC   NC355391  30.285  33.596   5.226
 4156POPC   PO455392  29.704  33.862   5.431
 4156POPC   GL155393  29.597  33.769   5.833
 4156POPC   GL255394  29.958  33.846   5.877
 4156POPC   C1A55395  29.659  33.835   6.275
 4156POPC   D2A55396  29.905  33.837   6.623
 4156POPC   C3A55397  29.586  33.859   6.910
 4156POPC   C4A55398  29.586  33.587   7.258
 4156POPC   C1B55399  30.216  33.745   6.222
 4156POPC   C2B55400  30.452  33.603   6.587
 4156POPC   C3B55401  30.387  33.643   7.016
 4156POPC   C4B55402  30.022  33.829   7.151
 4157POPC   NC355403  44.565  18.409   5.497
 4157POPC   PO455404  44.953  17.894   5.336
 4157POPC   GL155405  44.662  17.933   5.745
 4157POPC   GL255406  44.281  18.059   5.782
 4157POPC   C1A55407  44.677  18.184   6.157
 4157POPC   D2A55408  44.909  18.427   6.485
 4157POPC   C3A55409  44.799  18.290   6.884
 4157POPC   C4A55410  44.775  18.092   7.265
 4157POPC   C1B55411  44.200  18.353   6.149
 4157POPC   C2B55412  44.393  18.376   6.566
 4157POPC   C3B55413  44.295  18.229   6.969
 4157POPC   C4B55414  44.342  18.302   7.412
 4158POPC   NC355415  29.618   1.439   5.311
 4158POPC   PO455416  30.010   0.997   5.032
 4158POPC   GL155417  29.990   1.106   5.501
 4158POPC   GL255418  30.007   1.483   5.620
 4158POPC   C1A55419  29.916   1.110   5.951
 4158POPC   D2A55420  29.994   1.046   6.385
 4158POPC   C3A55421  29.776   1.277   6.695
 4158POPC   C4A55422  29.825   1.313   7.130
 4158POPC   C1B55423  29.729   1.594   5.992
 4158POPC   C2B55424  29.691   1.745   6.432
 4158POPC   C3B55425  29.730   1.755   6.896
 4158POPC   C4B55426  29.450   1.645   7.271
 4159POPC   NC355427  42.837  41.483   5.255
 4159POPC   PO455428  42.300  41.722   5.529
 4159POPC   GL155429  42.536  41.740   5.887
 4159POPC   GL255430  42.683  41.449   5.805
 4159POPC   C1A55431  42.507  41.881   6.300
 4159POPC   D2A55432  42.144  41.933   6.550
 4159POPC   C3A55433  42.211  41.807   6.959
 4159POPC   C4A55434  42.038  41.461   7.219
 4159POPC   C1B55435  42.456  41.319   6.203
 4159POPC   C2B55436  42.425  41.384   6.662
 4159POPC   C3B55437  42.556  41.443   7.089
 4159POPC   C4B55438  42.443  41.246   7.463
 4160POPC   NC355439   4.616  23.808   5.396
 4160POPC   PO455440   4.103  23.482   5.480
 4160POPC   GL155441   4.393  23.416   5.853
 4160POPC   GL255442   4.625  23.699   5.904
 4160POPC   C1A55443   4.418  23.497   6.336
 4160POPC   D2A55444   4.444  23.825   6.681
 4160POPC   C3A55445   4.292  23.789   7.127
 4160POPC   C4A55446   4.208  23.656   7.564
 4160POPC   C1B55447   4.883  23.841   6.255
 4160POPC   C2B55448   4.905  24.060   6.649
 4160POPC   C3B55449   4.765  24.008   7.058
 4160POPC   C4B55450   4.710  23.802   7.437
 4161POPC   NC355451   2.543   9.700   5.590
 4161POPC   PO455452   3.058   9.464   5.578
 4161POPC   GL155453   2.961   9.376   5.996
 4161POPC   GL255454   2.647   9.556   6.058
 4161POPC   C1A55455   2.878   9.297   6.438
 4161POPC   D2A55456   2.585   9.523   6.684
 4161POPC   C3A55457   2.689   9.605   7.079
 4161POPC   C4A55458   3.013   9.829   7.199
 4161POPC   C1B55459   2.702   9.876   6.348
 4161POPC   C2B55460   2.745  10.025   6.773
 4161POPC   C3B55461   2.594  10.102   7.193
 4161POPC   C4B55462   2.667   9.875   7.588
 4162POPC   NC355463  32.369  40.826   5.471
 4162POPC   PO455464  31.758  40.841   5.199
 4162POPC   GL155465  31.817  40.742   5.696
 4162POPC   GL255466  32.147  40.762   5.904
 4162POPC   C1A55467  31.754  40.631   6.165
 4162POPC   D2A55468  32.054  40.710   6.503
 4162POPC   C3A55469  31.932  40.656   6.949
 4162POPC   C4A55470  32.021  40.901   7.312
 4162POPC   C1B55471  32.479  40.621   6.205
 4162POPC   C2B55472  32.455  40.455   6.659
 4162POPC   C3B55473  32.424  40.821   6.942
 4162POPC   C4B55474  32.530  40.901   7.357
 4163POPC   NC355475  19.138  14.062   5.724
 4163POPC   PO455476  19.308  13.492   5.390
 4163POPC   GL155477  19.174  13.453   5.815
 4163POPC   GL255478  19.436  13.662   5.917
 4163POPC   C1A55479  19.132  13.234   6.248
 4163POPC   D2A55480  19.305  13.274   6.699
 4163POPC   C3A55481  19.029  13.262   7.080
 4163POPC   C4A55482  18.782  13.630   7.232
 4163POPC   C1B55483  19.652  13.855   6.274
 4163POPC   C2B55484  19.633  13.806   6.731
 4163POPC   C3B55485  19.270  13.712   6.974
 4163POPC   C4B55486  19.265  13.609   7.423
 4164POPC   NC355487  36.052  23.284   5.448
 4164POPC   PO455488  36.692  23.161   5.619
 4164POPC   GL155489  36.304  23.181   5.884
 4164POPC   GL255490  36.027  22.919   5.876
 4164POPC   C1A55491  36.263  23.079   6.320
 4164POPC   D2A55492  36.157  23.210   6.719
 4164POPC   C3A55493  36.357  23.106   7.065
 4164POPC   C4A55494  36.479  22.748   7.244
 4164POPC   C1B55495  35.965  22.655   6.245
 4164POPC   C2B55496  36.003  22.711   6.699
 4164POPC   C3B55497  35.977  22.744   7.158
 4164POPC   C4B55498  35.752  22.802   7.572
 4165POPC   NC355499  30.085  17.265   5.501
 4165POPC   PO455500  29.693  17.766   5.224
 4165POPC   GL155501  29.871  17.786   5.656
 4165POPC   GL255502  30.237  17.686   5.747
 4165POPC   C1A55503  29.792  17.881   6.098
 4165POPC   D2A55504  29.837  17.658   6.504
 4165POPC   C3A55505  29.732  17.844   6.880
 4165POPC   C4A55506  29.725  17.659   7.263
 4165POPC   C1B55507  30.139  17.447   6.136
 4165POPC   C2B55508  30.228  17.288   6.557
 4165POPC   C3B55509  30.007  17.377   6.921
 4165POPC   C4B55510  29.769  17.123   7.145
 4166POPC   NC355511  17.152   9.153   5.544
 4166POPC   PO455512  17.789   8.930   5.495
 4166POPC   GL155513  17.545   9.019   5.855
 4166POPC   GL255514  17.578   9.392   5.877
 4166POPC   C1A55515  17.398   8.801   6.237
 4166POPC   D2A55516  17.448   8.503   6.621
 4166POPC   C3A55517  17.311   8.724   7.000
 4166POPC   C4A55518  17.302   9.205   7.048
 4166POPC   C1B55519  17.707   9.224   6.291
 4166POPC   C2B55520  17.595   9.032   6.673
 4166POPC   C3B55521  17.748   8.964   7.106
 4166POPC   C4B55522  17.840   9.257   7.447
 4167POPC   NC355523  39.719  43.449   5.340
 4167POPC   PO455524  40.114  43.923   5.083
 4167POPC   GL155525  40.270  43.918   5.582
 4167POPC   GL255526  40.308  43.582   5.739
 4167POPC   C1A55527  40.310  43.980   6.080
 4167POPC   D2A55528  40.333  43.868   6.559
 4167POPC   C3A55529  39.982  44.000   6.882
 4167POPC   C4A55530  39.840  43.787   7.307
 4167POPC   C1B55531  40.058  43.498   6.117
 4167POPC   C2B55532  40.091  43.346   6.551
 4167POPC   C3B55533  40.112  43.528   6.965
 4167POPC   C4B55534  40.341  43.890   7.227
 4168POPC   NC355535  13.007   2.269   5.436
 4168POPC   PO455536  12.499   1.727   5.401
 4168POPC   GL155537  12.744   1.935   5.744
 4168POPC   GL255538  12.688   2.274   5.935
 4168POPC   C1A55539  13.030   1.948   6.095
 4168POPC   D2A55540  13.077   1.894   6.524
 4168POPC   C3A55541  12.929   2.045   6.927
 4168POPC   C4A55542  13.094   1.844   7.284
 4168POPC   C1B55543  12.537   1.978   6.257
 4168POPC   C2B55544  12.530   1.822   6.683
 4168POPC   C3B55545  12.436   2.023   7.080
 4168POPC   C4B55546  12.681   2.347   7.288
 4169POPC   NC355547   4.379  32.775   5.615
 4169POPC   PO455548   4.050  33.378   5.515
 4169POPC   GL155549   4.012  33.083   5.803
 4169POPC   GL255550   4.354  33.180   5.884
 4169POPC   C1A55551   4.066  32.950   6.237
 4169POPC   D2A55552   4.280  33.133   6.613
 4169POPC   C3A55553   4.139  33.107   7.047
 4169POPC   C4A55554   4.028  33.361   7.410
 4169POPC   C1B55555   4.632  33.046   6.211
 4169POPC   C2B55556   4.796  33.211   6.600
 4169POPC   C3B55557   4.646  33.200   7.004
 4169POPC   C4B55558   4.539  32.816   7.240
 4170POPC   NC355559  12.838  28.458   5.667
 4170POPC   PO455560  12.880  27.830   5.573
 4170POPC   GL155561  13.194  28.114   5.851
 4170POPC   GL255562  13.320  28.503   5.785
 4170POPC   C1A55563  13.232  28.159   6.335
 4170POPC   D2A55564  12.986  28.279   6.720
 4170POPC   C3A55565  12.887  28.172   7.155
 4170POPC   C4A55566  12.870  28.069   7.627
 4170POPC   C1B55567  13.173  28.655   6.219
 4170POPC   C2B55568  13.136  28.755   6.667
 4170POPC   C3B55569  12.975  28.704   7.088
 4170POPC   C4B55570  13.118  28.538   7.478
 4171POPC   NC355571   3.336  21.438   5.627
 4171POPC   PO455572   3.723  20.861   5.519
 4171POPC   GL155573   3.648  21.109   5.884
 4171POPC   GL255574   3.744  21.458   5.938
 4171POPC   C1A55575   3.609  21.183   6.342
 4171POPC   D2A55576   3.797  21.273   6.767
 4171POPC   C3A55577   3.447  21.324   7.102
 4171POPC   C4A55578   3.385  21.178   7.531
 4171POPC   C1B55579   3.779  21.734   6.297
 4171POPC   C2B55580   3.843  21.940   6.660
 4171POPC   C3B55581   3.752  21.735   7.015
 4171POPC   C4B55582   3.930  21.747   7.381
 4172POPC   NC355583  39.506  36.298   5.423
 4172POPC   PO455584  39.116  35.802   5.412
 4172POPC   GL155585  39.376  35.936   5.796
 4172POPC   GL255586  39.219  36.261   5.868
 4172POPC   C1A55587  39.250  35.788   6.236
 4172POPC   D2A55588  39.154  36.066   6.604
 4172POPC   C3A55589  39.299  35.940   7.019
 4172POPC   C4A55590  39.100  35.972   7.434
 4172POPC   C1B55591  39.261  36.488   6.250
 4172POPC   C2B55592  39.507  36.497   6.630
 4172POPC   C3B55593  39.274  36.444   6.999
 4172POPC   C4B55594  39.422  36.366   7.383
 4173POPC   NC355595  10.596   0.764   5.518
 4173POPC   PO455596  10.806   1.359   5.488
 4173POPC   GL155597  10.615   1.151   5.833
 4173POPC   GL255598  10.915   0.925   5.880
 4173POPC   C1A55599  10.324   1.191   6.175
 4173POPC   D2A55600  10.428   1.396   6.572
 4173POPC   C3A55601  10.353   1.190   6.970
 4173POPC   C4A55602  10.492   1.321   7.357
 4173POPC   C1B55603  10.865   1.118   6.296
 4173POPC   C2B55604  10.871   1.110   6.746
 4173POPC   C3B55605  10.860   1.030   7.182
 4173POPC   C4B55606  10.797   1.045   7.651
 4174POPC   NC355607  19.487   8.226   5.172
 4174POPC   PO455608  19.619   7.995   5.792
 4174POPC   GL155609  19.695   8.295   6.054
 4174POPC   GL255610  19.409   8.458   5.828
 4174POPC   C1A55611  19.726   8.238   6.491
 4174POPC   D2A55612  19.746   7.909   6.757
 4174POPC   C3A55613  20.031   7.935   7.030
 4174POPC   C4A55614  20.078   7.717   7.391
 4174POPC   C1B55615  19.265   8.393   6.275
 4174POPC   C2B55616  19.439   8.597   6.674
 4174POPC   C3B55617  19.755   8.369   7.013
 4174POPC   C4B55618  19.728   8.380   7.498
 4175POPC   NC355619  11.891  13.149   5.315
 4175POPC   PO455620  12.143  12.494   5.232
 4175POPC   GL155621  12.150  12.822   5.609
 4175POPC   GL255622  11.787  12.922   5.768
 4175POPC   C1A55623  12.205  12.879   6.065
 4175POPC   D2A55624  11.969  12.925   6.486
 4175POPC   C3A55625  12.156  12.863   6.916
 4175POPC   C4A55626  12.394  12.796   7.296
 4175POPC   C1B55627  11.748  13.236   6.126
 4175POPC   C2B55628  11.775  13.381   6.584
 4175POPC   C3B55629  11.680  13.053   6.893
 4175POPC   C4B55630  11.784  12.916   7.286
 4176POPC   NC355631  43.109   5.234   5.338
 4176POPC   PO455632  43.294   4.582   5.428
 4176POPC   GL155633  43.114   4.919   5.747
 4176POPC   GL255634  43.321   5.259   5.784
 4176POPC   C1A55635  43.025   5.116   6.176
 4176POPC   D2A55636  42.972   4.937   6.605
 4176POPC   C3A55637  43.004   4.877   7.050
 4176POPC   C4A55638  42.819   5.026   7.414
 4176POPC   C1B55639  43.298   5.580   6.116
 4176POPC   C2B55640  43.343   5.713   6.544
 4176POPC   C3B55641  43.491   5.545   6.961
 4176POPC   C4B55642  43.291   5.285   7.304
 4177POPC   NC355643   6.912  37.608   5.586
 4177POPC   PO455644   6.357  37.795   5.581
 4177POPC   GL155645   6.582  37.851   5.934
 4177POPC   GL255646   6.893  38.032   5.866
 4177POPC   C1A55647   6.435  37.835   6.341
 4177POPC   D2A55648   6.662  37.563   6.540
 4177POPC   C3A55649   6.675  37.592   6.949
 4177POPC   C4A55650   6.481  37.649   7.354
 4177POPC   C1B55651   6.973  37.891   6.294
 4177POPC   C2B55652   6.977  37.935   6.741
 4177POPC   C3B55653   6.750  38.061   7.116
 4177POPC   C4B55654   6.810  37.996   7.537
 4178POPC   NC355655  17.042  35.672   5.610
 4178POPC   PO455656  16.941  36.135   5.111
 4178POPC   GL155657  16.868  36.161   5.629
 4178POPC   GL255658  16.621  35.924   5.776
 4178POPC   C1A55659  16.855  36.267   6.115
 4178POPC   D2A55660  16.611  36.219   6.536
 4178POPC   C3A55661  16.772  36.248   6.972
 4178POPC   C4A55662  16.517  36.420   7.331
 4178POPC   C1B55663  16.466  35.856   6.190
 4178POPC   C2B55664  16.596  35.684   6.587
 4178POPC   C3B55665  16.561  35.759   7.009
 4178POPC   C4B55666  16.686  35.942   7.393
 4179POPC   NC355667   7.539  20.068   5.359
 4179POPC   PO455668   7.116  19.551   5.358
 4179POPC   GL155669   7.198  19.793   5.761
 4179POPC   GL255670   7.268  20.147   5.792
 4179POPC   C1A55671   7.261  19.846   6.229
 4179POPC   D2A55672   7.224  19.536   6.558
 4179POPC   C3A55673   7.155  19.725   6.940
 4179POPC   C4A55674   7.449  19.709   7.242
 4179POPC   C1B55675   7.512  20.309   6.150
 4179POPC   C2B55676   7.740  20.228   6.533
 4179POPC   C3B55677   7.496  20.115   6.891
 4179POPC   C4B55678   7.222  20.151   7.249
 4180POPC   NC355679  23.242  14.326   5.374
 4180POPC   PO455680  22.808  14.872   5.335
 4180POPC   GL155681  22.993  14.650   5.660
 4180POPC   GL255682  22.714  14.510   5.763
 4180POPC   C1A55683  23.203  14.383   6.024
 4180POPC   D2A55684  23.106  14.382   6.480
 4180POPC   C3A55685  23.264  14.555   6.837
 4180POPC   C4A55686  23.075  14.605   7.264
 4180POPC   C1B55687  22.688  14.306   6.187
 4180POPC   C2B55688  22.680  14.120   6.608
 4180POPC   C3B55689  22.884  14.226   6.997
 4180POPC   C4B55690  22.855  14.190   7.480
 4181POPC   NC355691   5.894   1.343   5.383
 4181POPC   PO455692   5.673   0.770   5.661
 4181POPC   GL155693   5.949   1.094   5.881
 4181POPC   GL255694   6.164   1.415   5.805
 4181POPC   C1A55695   5.922   1.205   6.330
 4181POPC   D2A55696   5.612   1.176   6.693
 4181POPC   C3A55697   5.811   1.123   7.092
 4181POPC   C4A55698   6.255   1.084   7.063
 4181POPC   C1B55699   5.917   1.654   6.109
 4181POPC   C2B55700   5.766   1.658   6.537
 4181POPC   C3B55701   6.018   1.565   6.902
 4181POPC   C4B55702   6.080   1.504   7.339
 4182POPC   NC355703   2.588  38.385   5.385
 4182POPC   PO455704   2.396  38.984   5.474
 4182POPC   GL155705   2.630  38.703   5.807
 4182POPC   GL255706   2.891  38.423   5.842
 4182POPC   C1A55707   2.583  38.508   6.246
 4182POPC   D2A55708   2.785  38.434   6.660
 4182POPC   C3A55709   2.533  38.364   7.034
 4182POPC   C4A55710   2.583  38.491   7.481
 4182POPC   C1B55711   2.986  38.156   6.239
 4182POPC   C2B55712   2.976  37.923   6.632
 4182POPC   C3B55713   2.986  38.117   7.036
 4182POPC   C4B55714   3.366  38.288   7.204
 4183POPC   NC355715  30.831  20.261   5.544
 4183POPC   PO455716  30.513  19.682   5.441
 4183POPC   GL155717  30.637  19.741   5.876
 4183POPC   GL255718  30.535  20.091   5.899
 4183POPC   C1A55719  30.709  19.589   6.307
 4183POPC   D2A55720  30.934  19.682   6.711
 4183POPC   C3A55721  30.692  19.596   7.095
 4183POPC   C4A55722  30.366  19.590   7.456
 4183POPC   C1B55723  30.783  20.101   6.259
 4183POPC   C2B55724  30.707  20.172   6.676
 4183POPC   C3B55725  30.918  20.085   7.059
 4183POPC   C4B55726  30.859  19.909   7.484
 4184POPC   NC355727  16.308  10.710   5.524
 4184POPC   PO455728  15.702  10.324   5.418
 4184POPC   GL155729  15.888  10.563   5.790
 4184POPC   GL255730  16.199  10.378   5.901
 4184POPC   C1A55731  15.881  10.608   6.275
 4184POPC   D2A55732  15.677  10.455   6.692
 4184POPC   C3A55733  15.774  10.670   7.059
 4184POPC   C4A55734  16.170  10.849   7.160
 4184POPC   C1B55735  16.405  10.526   6.298
 4184POPC   C2B55736  16.244  10.521   6.745
 4184POPC   C3B55737  16.236  10.306   7.172
 4184POPC   C4B55738  16.296  10.135   7.629
 4185POPC   NC355739  29.184  21.895   5.370
 4185POPC   PO455740  28.896  22.394   5.386
 4185POPC   GL155741  28.900  22.077   5.745
 4185POPC   GL255742  29.225  21.965   5.885
 4185POPC   C1A55743  28.866  22.177   6.169
 4185POPC   D2A55744  29.109  22.060   6.524
 4185POPC   C3A55745  28.835  22.066   6.898
 4185POPC   C4A55746  28.876  22.292   7.236
 4185POPC   C1B55747  29.387  21.583   6.126
 4185POPC   C2B55748  29.251  21.469   6.554
 4185POPC   C3B55749  29.250  21.778   6.923
 4185POPC   C4B55750  29.472  21.986   7.288
 4186POPC   NC355751   6.333  17.677   5.590
 4186POPC   PO455752   5.821  17.217   5.500
 4186POPC   GL155753   5.887  17.454   5.837
 4186POPC   GL255754   5.884  17.807   5.819
 4186POPC   C1A55755   5.711  17.486   6.229
 4186POPC   D2A55756   5.866  17.534   6.631
 4186POPC   C3A55757   5.661  17.325   6.981
 4186POPC   C4A55758   5.825  17.402   7.388
 4186POPC   C1B55759   6.083  17.853   6.235
 4186POPC   C2B55760   6.056  17.998   6.670
 4186POPC   C3B55761   6.282  17.891   7.028
 4186POPC   C4B55762   6.215  17.709   7.415
 4187POPC   NC355763   0.593  16.497   5.425
 4187POPC   PO455764  44.987  16.967   5.420
 4187POPC   GL155765   0.372  16.874   5.677
 4187POPC   GL255766   0.209  16.633   5.803
 4187POPC   C1A55767   0.653  16.764   6.070
 4187POPC   D2A55768   0.467  16.681   6.491
 4187POPC   C3A55769   0.653  16.648   6.902
 4187POPC   C4A55770   0.422  16.524   7.238
 4187POPC   C1B55771   0.148  16.927   6.127
 4187POPC   C2B55772   0.033  16.945   6.546
 4187POPC   C3B55773   0.167  16.851   6.943
 4187POPC   C4B55774   0.031  16.917   7.375
 4188POPC   NC355775  13.793  44.291   5.320
 4188POPC   PO455776  13.238  44.479   5.193
 4188POPC   GL155777  13.499  44.527   5.658
 4188POPC   GL255778  13.852  44.494   5.786
 4188POPC   C1A55779  13.522  44.851   6.012
 4188POPC   D2A55780  13.490   0.033   6.444
 4188POPC   C3A55781  13.686  44.889   6.842
 4188POPC   C4A55782  13.468  44.736   7.225
 4188POPC   C1B55783  13.843  44.504   6.229
 4188POPC   C2B55784  14.005  44.542   6.634
 4188POPC   C3B55785  13.689  44.392   6.895
 4188POPC   C4B55786  13.708  44.228   7.260
 4189POPC   NC355787  44.876  25.690   5.465
 4189POPC   PO455788  44.265  25.605   5.445
 4189POPC   GL155789  44.427  25.907   5.761
 4189POPC   GL255790  44.374  26.252   5.894
 4189POPC   C1A55791  44.500  25.869   6.217
 4189POPC   D2A55792  44.549  25.786   6.671
 4189POPC   C3A55793  44.366  25.880   7.074
 4189POPC   C4A55794  44.652  26.122   7.313
 4189POPC   C1B55795  44.260  26.296   6.360
 4189POPC   C2B55796  44.320  26.301   6.810
 4189POPC   C3B55797  44.409  26.547   7.210
 4189POPC   C4B55798  44.510  26.480   7.670
 4190POPC   NC355799  34.809  21.473   5.461
 4190POPC   PO455800  34.318  21.042   5.403
 4190POPC   GL155801  34.407  21.364   5.759
 4190POPC   GL255802  34.741  21.330   5.930
 4190POPC   C1A55803  34.412  21.562   6.206
 4190POPC   D2A55804  34.641  21.358   6.558
 4190POPC   C3A55805  34.478  21.375   6.981
 4190POPC   C4A55806  34.396  21.525   7.402
 4190POPC   C1B55807  34.885  21.034   6.218
 4190POPC   C2B55808  34.936  20.805   6.591
 4190POPC   C3B55809  34.913  21.069   6.930
 4190POPC   C4B55810  34.869  21.277   7.315
 4191POPC   NC355811  23.917  41.856   5.399
 4191POPC   PO455812  23.765  41.228   5.562
 4191POPC   GL155813  23.731  41.484   5.893
 4191POPC   GL255814  23.527  41.749   5.776
 4191POPC   C1A55815  23.777  41.453   6.334
 4191POPC   D2A55816  23.880  41.329   6.733
 4191POPC   C3A55817  23.593  41.237   7.073
 4191POPC   C4A55818  24.009  41.377   7.268
 4191POPC   C1B55819  23.321  41.634   6.204
 4191POPC   C2B55820  23.398  41.531   6.658
 4191POPC   C3B55821  23.591  41.724   7.006
 4191POPC   C4B55822  23.422  41.982   7.330
 4192POPC   NC355823  18.506   4.410   5.275
 4192POPC   PO455824  18.027   3.986   5.280
 4192POPC   GL155825  18.047   4.167   5.708
 4192POPC   GL255826  18.151   4.527   5.714
 4192POPC   C1A55827  18.159   4.243   6.161
 4192POPC   D2A55828  17.969   4.332   6.573
 4192POPC   C3A55829  18.074   4.188   6.984
 4192POPC   C4A55830  18.226   4.289   7.362
 4192POPC   C1B55831  18.377   4.723   6.035
 4192POPC   C2B55832  18.424   4.624   6.459
 4192POPC   C3B55833  18.358   4.614   6.897
 4192POPC   C4B55834  18.519   4.719   7.292
 4193POPC   NC355835  25.459  31.795   5.391
 4193POPC   PO455836  25.072  31.186   5.380
 4193POPC   GL155837  25.153  31.482   5.711
 4193POPC   GL255838  25.522  31.388   5.709
 4193POPC   C1A55839  25.275  31.396   6.156
 4193POPC   D2A55840  25.272  31.155   6.525
 4193POPC   C3A55841  25.186  31.303   6.917
 4193POPC   C4A55842  25.205  31.528   7.287
 4193POPC   C1B55843  25.690  31.680   6.044
 4193POPC   C2B55844  25.552  31.743   6.470
 4193POPC   C3B55845  25.360  31.770   6.848
 4193POPC   C4B55846  25.539  31.916   7.206
 4194POPC   NC355847  18.885  39.302   5.381
 4194POPC   PO455848  18.848  38.623   5.344
 4194POPC   GL155849  18.898  38.912   5.742
 4194POPC   GL255850  19.013  39.261   5.871
 4194POPC   C1A55851  18.727  38.992   6.179
 4194POPC   D2A55852  18.830  39.033   6.633
 4194POPC   C3A55853  19.213  39.056   6.854
 4194POPC   C4A55854  19.105  38.975   7.258
 4194POPC   C1B55855  19.193  39.210   6.277
 4194POPC   C2B55856  19.081  39.483   6.607
 4194POPC   C3B55857  18.848  39.413   6.986
 4194POPC   C4B55858  19.227  39.468   7.185
 4195POPC   NC355859  18.659  25.927   5.234
 4195POPC   PO455860  19.341  25.959   5.253
 4195POPC   GL155861  19.322  26.063   5.681
 4195POPC   GL255862  19.120  25.803   5.817
 4195POPC   C1A55863  19.219  26.235   6.090
 4195POPC   D2A55864  19.343  26.367   6.483
 4195POPC   C3A55865  19.162  26.216   6.835
 4195POPC   C4A55866  19.490  26.302   7.158
 4195POPC   C1B55867  19.024  25.800   6.285
 4195POPC   C2B55868  18.919  25.554   6.664
 4195POPC   C3B55869  18.980  25.632   7.110
 4195POPC   C4B55870  19.098  26.012   7.331
 4196POPC   NC355871   7.222   2.477   5.095
 4196POPC   PO455872   6.609   2.575   5.417
 4196POPC   GL155873   6.544   2.807   5.790
 4196POPC   GL255874   6.873   2.933   5.801
 4196POPC   C1A55875   6.387   2.732   6.198
 4196POPC   D2A55876   6.297   2.431   6.519
 4196POPC   C3A55877   6.300   2.590   6.915
 4196POPC   C4A55878   6.440   2.459   7.296
 4196POPC   C1B55879   6.899   2.631   6.168
 4196POPC   C2B55880   6.863   2.502   6.614
 4196POPC   C3B55881   6.806   2.687   7.029
 4196POPC   C4B55882   6.488   3.009   7.180
 4197POPC   NC355883  38.208  23.961   5.420
 4197POPC   PO455884  38.789  23.613   5.476
 4197POPC   GL155885  38.599  23.634   5.878
 4197POPC   GL255886  38.463  23.946   5.936
 4197POPC   C1A55887  38.697  23.689   6.331
 4197POPC   D2A55888  38.467  23.815   6.751
 4197POPC   C3A55889  38.680  23.797   7.187
 4197POPC   C4A55890  38.627  24.015   7.598
 4197POPC   C1B55891  38.347  24.167   6.342
 4197POPC   C2B55892  38.290  24.315   6.775
 4197POPC   C3B55893  38.323  24.175   7.207
 4197POPC   C4B55894  38.093  23.999   7.534
 4198POPC   NC355895  40.276  20.962   5.451
 4198POPC   PO455896  39.720  20.474   5.476
 4198POPC   GL155897  39.790  20.745   5.802
 4198POPC   GL255898  40.123  20.669   5.838
 4198POPC   C1A55899  39.818  20.721   6.260
 4198POPC   D2A55900  39.523  20.598   6.589
 4198POPC   C3A55901  39.735  20.762   6.935
 4198POPC   C4A55902  39.871  20.645   7.295
 4198POPC   C1B55903  40.313  20.548   6.223
 4198POPC   C2B55904  40.352  20.661   6.643
 4198POPC   C3B55905  40.363  20.391   6.975
 4198POPC   C4B55906  40.195  20.243   7.308
 4199POPC   NC355907  31.662  44.644   5.528
 4199POPC   PO455908  31.123  44.956   5.370
 4199POPC   GL155909  31.314  44.907   5.820
 4199POPC   GL255910  31.460  44.571   5.975
 4199POPC   C1A55911  31.535  44.988   6.229
 4199POPC   D2A55912  31.685  44.746   6.590
 4199POPC   C3A55913  31.701  44.984   6.983
 4199POPC   C4A55914  31.394  44.849   7.282
 4199POPC   C1B55915  31.227  44.546   6.341
 4199POPC   C2B55916  31.265  44.485   6.778
 4199POPC   C3B55917  31.228  44.373   7.198
 4199POPC   C4B55918  31.242  44.329   7.637
 4200POPC   NC355919  37.360  40.275   5.585
 4200POPC   PO455920  36.809  39.946   5.367
 4200POPC   GL155921  36.790  39.779   5.764
 4200POPC   GL255922  37.144  39.840   5.851
 4200POPC   C1A55923  36.632  39.906   6.153
 4200POPC   D2A55924  36.649  40.245   6.470
 4200POPC   C3A55925  36.715  40.154   6.904
 4200POPC   C4A55926  36.747  40.028   7.340
 4200POPC   C1B55927  37.114  39.999   6.294
 4200POPC   C2B55928  37.196  39.960   6.749
 4200POPC   C3B55929  37.185  40.239   7.142
 4200POPC   C4B55930  37.208  40.308   7.601
 4201POPC   NC355931  28.494  11.606   5.430
 4201POPC   PO455932  28.313  12.192   5.159
 4201POPC   GL155933  28.257  11.993   5.649
 4201POPC   GL255934  28.051  11.713   5.745
 4201POPC   C1A55935  28.458  12.097   6.087
 4201POPC   D2A55936  28.610  11.884   6.458
 4201POPC   C3A55937  28.771  12.109   6.808
 4201POPC   C4A55938  28.598  12.030   7.213
 4201POPC   C1B55939  27.948  12.082   6.064
 4201POPC   C2B55940  28.093  12.118   6.492
 4201POPC   C3B55941  28.140  12.025   6.929
 4201POPC   C4B55942  28.175  12.312   7.261
 4202POPC   NC355943  16.554   9.051   5.287
 4202POPC   PO455944  17.070   8.700   5.587
 4202POPC   GL155945  16.907   8.784   5.942
 4202POPC   GL255946  16.597   8.887   5.781
 4202POPC   C1A55947  16.653   8.835   6.309
 4202POPC   D2A55948  16.499   8.756   6.737
 4202POPC   C3A55949  16.839   8.965   6.984
 4202POPC   C4A55950  16.911   9.097   7.382
 4202POPC   C1B55951  16.396   9.217   6.044
 4202POPC   C2B55952  16.603   9.345   6.417
 4202POPC   C3B55953  16.483   9.276   6.830
 4202POPC   C4B55954  16.463   9.382   7.252
 4203POPC   NC355955  25.243  32.348   5.136
 4203POPC   PO455956  25.320  32.931   5.497
 4203POPC   GL155957  25.375  32.959   5.906
 4203POPC   GL255958  25.028  32.844   5.925
 4203POPC   C1A55959  25.599  32.792   6.248
 4203POPC   D2A55960  25.457  32.694   6.627
 4203POPC   C3A55961  25.253  33.007   6.843
 4203POPC   C4A55962  25.186  33.163   7.248
 4203POPC   C1B55963  25.065  32.893   6.356
 4203POPC   C2B55964  24.964  32.609   6.704
 4203POPC   C3B55965  24.880  32.753   7.138
 4203POPC   C4B55966  24.905  32.928   7.608
 4204POPC   NC355967  11.796  40.219   5.422
 4204POPC   PO455968  12.437  40.155   5.204
 4204POPC   GL155969  12.208  39.996   5.624
 4204POPC   GL255970  12.238  39.653   5.746
 4204POPC   C1A55971  12.057  40.218   6.028
 4204POPC   D2A55972  11.872  40.214   6.451
 4204POPC   C3A55973  12.063  40.211   6.866
 4204POPC   C4A55974  11.886  40.036   7.248
 4204POPC   C1B55975  12.051  39.746   6.184
 4204POPC   C2B55976  11.965  39.729   6.624
 4204POPC   C3B55977  12.222  39.726   6.984
 4204POPC   C4B55978  12.321  39.561   7.385
 4205POPC   NC355979  19.272  41.178   5.432
 4205POPC   PO455980  18.677  41.419   5.621
 4205POPC   GL155981  19.052  41.573   5.779
 4205POPC   GL255982  19.283  41.334   5.916
 4205POPC   C1A55983  19.024  41.761   6.188
 4205POPC   D2A55984  18.705  41.696   6.543
 4205POPC   C3A55985  18.879  41.727   6.966
 4205POPC   C4A55986  19.324  41.704   7.075
 4205POPC   C1B55987  18.938  41.267   6.235
 4205POPC   C2B55988  19.044  41.234   6.669
 4205POPC   C3B55989  19.060  41.236   7.104
 4205POPC   C4B55990  18.673  41.302   7.239
 4206POPC   NC355991   4.552   8.895   5.505
 4206POPC   PO455992   3.888   9.008   5.259
 4206POPC   GL155993   4.070   8.914   5.679
 4206POPC   GL255994   4.266   9.198   5.780
 4206POPC   C1A55995   4.123   8.866   6.144
 4206POPC   D2A55996   4.177   8.738   6.583
 4206POPC   C3A55997   4.477   8.971   6.844
 4206POPC   C4A55998   4.590   8.861   7.271
 4206POPC   C1B55999   4.410   9.304   6.190
 4206POPC   C2B56000   4.200   9.335   6.580
 4206POPC   C3B56001   3.992   9.101   6.911
 4206POPC   C4B56002   4.149   9.162   7.327
 4207POPC   NC356003  14.005   2.616   5.538
 4207POPC   PO456004  13.315   2.653   5.425
 4207POPC   GL156005  13.563   2.680   5.814
 4207POPC   GL256006  13.422   2.933   6.060
 4207POPC   C1A56007  13.643   2.512   6.210
 4207POPC   D2A56008  13.456   2.698   6.555
 4207POPC   C3A56009  13.756   2.628   6.827
 4207POPC   C4A56010  13.889   2.610   7.206
 4207POPC   C1B56011  13.818   2.985   6.312
 4207POPC   C2B56012  13.894   3.136   6.735
 4207POPC   C3B56013  13.673   3.076   7.089
 4207POPC   C4B56014  13.394   2.817   7.263
 4208POPC   NC356015   4.081  43.539   5.392
 4208POPC   PO456016   4.549  43.066   5.205
 4208POPC   GL156017   4.400  43.190   5.629
 4208POPC   GL256018   4.133  42.956   5.728
 4208POPC   C1A56019   4.411  43.252   6.093
 4208POPC   D2A56020   4.638  43.299   6.481
 4208POPC   C3A56021   4.570  43.060   6.895
 4208POPC   C4A56022   4.243  43.242   7.170
 4208POPC   C1B56023   4.132  42.801   6.152
 4208POPC   C2B56024   4.184  42.980   6.549
 4208POPC   C3B56025   4.123  42.789   6.946
 4208POPC   C4B56026   4.308  42.752   7.329
 4209POPC   NC356027  32.810  14.585   5.344
 4209POPC   PO456028  33.068  14.004   5.455
 4209POPC   GL156029  32.770  14.216   5.782
 4209POPC   GL256030  32.824  14.596   5.855
 4209POPC   C1A56031  32.819  14.294   6.261
 4209POPC   D2A56032  33.116  14.499   6.556
 4209POPC   C3A56033  33.154  14.323   6.962
 4209POPC   C4A56034  32.838  14.311   7.242
 4209POPC   C1B56035  32.564  14.793   6.197
 4209POPC   C2B56036  32.486  14.782   6.655
 4209POPC   C3B56037  32.833  14.760   6.974
 4209POPC   C4B56038  32.867  14.779   7.438
 4210POPC   NC356039  12.232  36.481   5.385
 4210POPC   PO456040  12.114  35.844   5.384
 4210POPC   GL156041  12.222  36.054   5.727
 4210POPC   GL256042  11.888  36.042   5.811
 4210POPC   C1A56043  12.201  35.906   6.171
 4210POPC   D2A56044  11.965  35.890   6.512
 4210POPC   C3A56045  12.104  36.067   6.841
 4210POPC   C4A56046  11.995  35.891   7.227
 4210POPC   C1B56047  11.982  36.346   6.088
 4210POPC   C2B56048  11.796  36.385   6.479
 4210POPC   C3B56049  11.574  36.155   6.771
 4210POPC   C4B56050  11.720  36.310   7.141
 4211POPC   NC356051  15.168   3.116   5.025
 4211POPC   PO456052  15.252   2.550   5.344
 4211POPC   GL156053  15.125   2.688   5.769
 4211POPC   GL256054  15.400   2.905   5.916
 4211POPC   C1A56055  15.017   2.705   6.225
 4211POPC   D2A56056  14.904   2.716   6.653
 4211POPC   C3A56057  15.167   2.538   6.950
 4211POPC   C4A56058  14.966   2.588   7.320
 4211POPC   C1B56059  15.319   3.096   6.356
 4211POPC   C2B56060  15.367   2.969   6.736
 4211POPC   C3B56061  15.201   3.023   7.118
 4211POPC   C4B56062  15.345   3.120   7.518
 4212POPC   NC356063  13.501  24.791   5.399
 4212POPC   PO456064  13.893  24.265   5.545
 4212POPC   GL156065  13.689  24.523   5.847
 4212POPC   GL256066  13.374  24.392   5.870
 4212POPC   C1A56067  13.654  24.750   6.257
 4212POPC   D2A56068  13.581  24.863   6.701
 4212POPC   C3A56069  13.411  24.643   7.103
 4212POPC   C4A56070  13.465  24.440   7.509
 4212POPC   C1B56071  13.235  24.454   6.288
 4212POPC   C2B56072  13.132  24.451   6.726
 4212POPC   C3B56073  13.091  24.242   7.138
 4212POPC   C4B56074  13.063  24.133   7.590
 4213POPC   NC356075  24.785  31.561   5.287
 4213POPC   PO456076  24.277  31.125   5.259
 4213POPC   GL156077  24.258  31.478   5.596
 4213POPC   GL256078  24.574  31.479   5.746
 4213POPC   C1A56079  24.217  31.640   6.079
 4213POPC   D2A56080  24.441  31.489   6.481
 4213POPC   C3A56081  24.336  31.531   6.923
 4213POPC   C4A56082  24.366  31.911   7.153
 4213POPC   C1B56083  24.777  31.405   6.118
 4213POPC   C2B56084  24.948  31.574   6.526
 4213POPC   C3B56085  24.845  31.740   6.936
 4213POPC   C4B56086  24.702  31.543   7.278
 4214POPC   NC356087  23.695  23.047   5.355
 4214POPC   PO456088  23.216  23.329   5.710
 4214POPC   GL156089  23.453  23.000   5.884
 4214POPC   GL256090  23.740  23.210   5.854
 4214POPC   C1A56091  23.540  22.901   6.338
 4214POPC   D2A56092  23.637  23.151   6.724
 4214POPC   C3A56093  23.526  22.907   7.061
 4214POPC   C4A56094  23.803  22.644   7.258
 4214POPC   C1B56095  23.927  23.212   6.264
 4214POPC   C2B56096  24.094  22.990   6.620
 4214POPC   C3B56097  24.043  23.043   7.064
 4214POPC   C4B56098  24.273  22.794   7.387
 4215POPC   NC356099  27.289  23.427   5.272
 4215POPC   PO456100  27.325  24.049   5.504
 4215POPC   GL156101  27.466  23.752   5.804
 4215POPC   GL256102  27.291  23.455   5.847
 4215POPC   C1A56103  27.706  23.697   6.188
 4215POPC   D2A56104  27.890  23.574   6.570
 4215POPC   C3A56105  27.852  23.771   6.952
 4215POPC   C4A56106  27.762  23.570   7.348
 4215POPC   C1B56107  27.209  23.636   6.271
 4215POPC   C2B56108  27.379  23.647   6.688
 4215POPC   C3B56109  27.357  23.791   7.077
 4215POPC   C4B56110  27.012  23.623   7.245
 4216POPC   NC356111   7.710  31.015   5.439
 4216POPC   PO456112   7.086  30.610   5.472
 4216POPC   GL156113   7.401  30.750   5.767
 4216POPC   GL256114   7.708  30.544   5.776
 4216POPC   C1A56115   7.529  30.974   6.160
 4216POPC   D2A56116   7.395  30.842   6.595
 4216POPC   C3A56117   7.594  31.017   6.978
 4216POPC   C4A56118   7.564  31.101   7.417
 4216POPC   C1B56119   7.489  30.462   6.209
 4216POPC   C2B56120   7.614  30.390   6.660
 4216POPC   C3B56121   7.468  30.508   7.084
 4216POPC   C4B56122   7.360  30.276   7.462
 4217POPC   NC356123   8.043   0.067   5.659
 4217POPC   PO456124   7.811   0.680   5.518
 4217POPC   GL156125   7.942   0.523   5.908
 4217POPC   GL256126   8.301   0.474   5.858
 4217POPC   C1A56127   7.808   0.460   6.336
 4217POPC   D2A56128   7.940   0.182   6.665
 4217POPC   C3A56129   7.903   0.308   7.102
 4217POPC   C4A56130   7.746   0.436   7.531
 4217POPC   C1B56131   8.280   0.254   6.263
 4217POPC   C2B56132   8.493   0.121   6.634
 4217POPC   C3B56133   8.377   0.091   7.038
 4217POPC   C4B56134   8.496   0.097   7.472
 4218POPC   NC356135  19.453   4.349   5.509
 4218POPC   PO456136  18.801   4.136   5.488
 4218POPC   GL156137  19.019   4.250   5.842
 4218POPC   GL256138  19.094   3.895   5.911
 4218POPC   C1A56139  18.877   4.474   6.227
 4218POPC   D2A56140  18.963   4.715   6.617
 4218POPC   C3A56141  18.909   4.554   7.016
 4218POPC   C4A56142  18.954   4.545   7.462
 4218POPC   C1B56143  18.686   3.995   6.153
 4218POPC   C2B56144  18.486   4.137   6.562
 4218POPC   C3B56145  18.619   4.127   7.006
 4218POPC   C4B56146  19.042   4.073   7.235
 4219POPC   NC356147  31.026  44.099   5.405
 4219POPC   PO456148  30.541  43.643   5.414
 4219POPC   GL156149  30.536  43.771   5.834
 4219POPC   GL256150  30.709  44.054   5.802
 4219POPC   C1A56151  30.719  43.718   6.271
 4219POPC   D2A56152  31.036  43.552   6.595
 4219POPC   C3A56153  30.882  43.472   7.023
 4219POPC   C4A56154  30.528  43.707   7.205
 4219POPC   C1B56155  31.022  44.099   6.108
 4219POPC   C2B56156  30.983  44.110   6.554
 4219POPC   C3B56157  30.922  43.995   6.981
 4219POPC   C4B56158  30.772  44.189   7.357
 4220POPC   NC356159  18.258  34.373   5.351
 4220POPC   PO456160  17.979  35.129   5.449
 4220POPC   GL156161  18.038  34.713   5.652
 4220POPC   GL256162  18.357  34.620   5.815
 4220POPC   C1A56163  17.940  34.525   6.074
 4220POPC   D2A56164  18.008  34.623   6.509
 4220POPC   C3A56165  18.144  34.314   6.817
 4220POPC   C4A56166  18.152  34.336   7.273
 4220POPC   C1B56167  18.599  34.449   6.157
 4220POPC   C2B56168  18.645  34.253   6.583
 4220POPC   C3B56169  18.646  34.372   7.044
 4220POPC   C4B56170  18.660  34.650   7.399
 4221POPC   NC356171  34.662  42.760   5.206
 4221POPC   PO456172  34.277  43.299   5.476
 4221POPC   GL156173  34.335  43.018   5.813
 4221POPC   GL256174  34.634  42.839   5.723
 4221POPC   C1A56175  34.378  43.071   6.258
 4221POPC   D2A56176  34.412  43.363   6.598
 4221POPC   C3A56177  34.490  43.143   6.955
 4221POPC   C4A56178  34.839  43.269   7.161
 4221POPC   C1B56179  34.800  42.774   6.147
 4221POPC   C2B56180  34.789  42.956   6.567
 4221POPC   C3B56181  34.880  42.802   6.980
 4221POPC   C4B56182  35.165  42.939   7.358
 4222POPC   NC356183  16.368  39.468   5.641
 4222POPC   PO456184  16.973  39.189   5.485
 4222POPC   GL156185  16.723  39.052   5.833
 4222POPC   GL256186  16.921  38.748   5.918
 4222POPC   C1A56187  16.580  39.228   6.246
 4222POPC   D2A56188  16.442  39.081   6.641
 4222POPC   C3A56189  16.586  39.290   6.985
 4222POPC   C4A56190  16.383  39.220   7.364
 4222POPC   C1B56191  17.086  39.118   6.205
 4222POPC   C2B56192  16.983  39.275   6.633
 4222POPC   C3B56193  17.056  39.098   7.056
 4222POPC   C4B56194  17.233  39.159   7.483
 4223POPC   NC356195   3.187   1.941   5.355
 4223POPC   PO456196   3.770   2.269   5.406
 4223POPC   GL156197   3.539   2.031   5.758
 4223POPC   GL256198   3.248   1.767   5.841
 4223POPC   C1A56199   3.685   1.883   6.165
 4223POPC   D2A56200   3.897   2.084   6.513
 4223POPC   C3A56201   3.825   1.917   6.942
 4223POPC   C4A56202   3.751   2.038   7.391
 4223POPC   C1B56203   3.248   1.670   6.312
 4223POPC   C2B56204   3.260   1.701   6.760
 4223POPC   C3B56205   3.354   1.869   7.162
 4223POPC   C4B56206   3.343   1.845   7.638
 4224POPC   NC356207   8.334  35.585   5.059
 4224POPC   PO456208   7.882  35.126   5.336
 4224POPC   GL156209   8.176  35.291   5.700
 4224POPC   GL256210   7.978  35.523   5.916
 4224POPC   C1A56211   8.438  35.410   6.091
 4224POPC   D2A56212   8.344  35.503   6.552
 4224POPC   C3A56213   8.277  35.247   6.937
 4224POPC   C4A56214   8.167  35.415   7.348
 4224POPC   C1B56215   8.003  35.213   6.271
 4224POPC   C2B56216   7.857  35.030   6.655
 4224POPC   C3B56217   8.038  34.756   6.960
 4224POPC   C4B56218   8.246  34.854   7.333
 4225POPC   NC356219   6.211  33.227   5.615
 4225POPC   PO456220   5.631  32.885   5.446
 4225POPC   GL156221   5.794  33.088   5.859
 4225POPC   GL256222   5.719  33.456   5.805
 4225POPC   C1A56223   5.982  33.068   6.336
 4225POPC   D2A56224   5.722  32.963   6.746
 4225POPC   C3A56225   5.857  32.921   7.173
 4225POPC   C4A56226   6.018  32.524   7.258
 4225POPC   C1B56227   5.576  33.339   6.238
 4225POPC   C2B56228   5.727  33.459   6.663
 4225POPC   C3B56229   5.592  33.361   7.115
 4225POPC   C4B56230   5.686  33.280   7.585
 4226POPC   NC356231   4.124  36.788   5.320
 4226POPC   PO456232   4.595  37.294   5.460
 4226POPC   GL156233   4.417  36.935   5.721
 4226POPC   GL256234   4.587  36.605   5.659
 4226POPC   C1A56235   4.167  36.930   6.134
 4226POPC   D2A56236   4.004  37.089   6.535
 4226POPC   C3A56237   4.120  36.882   6.911
 4226POPC   C4A56238   4.358  37.020   7.253
 4226POPC   C1B56239   4.416  36.474   6.054
 4226POPC   C2B56240   4.384  36.395   6.491
 4226POPC   C3B56241   4.479  36.491   6.910
 4226POPC   C4B56242   4.277  36.522   7.301
 4227POPC   NC356243  41.171  41.621   5.310
 4227POPC   PO456244  40.451  41.390   5.405
 4227POPC   GL156245  40.580  41.441   5.823
 4227POPC   GL256246  40.870  41.610   5.741
 4227POPC   C1A56247  40.668  41.758   6.169
 4227POPC   D2A56248  40.782  41.855   6.568
 4227POPC   C3A56249  40.663  41.669   6.945
 4227POPC   C4A56250  40.844  41.601   7.362
 4227POPC   C1B56251  41.007  41.390   6.166
 4227POPC   C2B56252  40.938  41.239   6.608
 4227POPC   C3B56253  41.114  41.295   7.043
 4227POPC   C4B56254  41.194  41.293   7.532
 4228POPC   NC356255  39.867  12.422   5.653
 4228POPC   PO456256  40.206  12.900   5.257
 4228POPC   GL156257  39.907  12.930   5.759
 4228POPC   GL256258  39.976  12.683   6.074
 4228POPC   C1A56259  39.849  13.142   6.195
 4228POPC   D2A56260  40.019  13.012   6.628
 4228POPC   C3A56261  39.843  12.740   6.963
 4228POPC   C4A56262  39.637  12.726   7.368
 4228POPC   C1B56263  40.338  12.961   6.216
 4228POPC   C2B56264  40.534  12.882   6.594
 4228POPC   C3B56265  40.360  12.854   6.982
 4228POPC   C4B56266  40.164  13.179   7.176
 4229POPC   NC356267  29.608   4.115   5.313
 4229POPC   PO456268  30.014   4.576   5.419
 4229POPC   GL156269  29.829   4.363   5.777
 4229POPC   GL256270  29.730   4.000   5.808
 4229POPC   C1A56271  29.804   4.549   6.193
 4229POPC   D2A56272  30.036   4.797   6.496
 4229POPC   C3A56273  30.028   4.507   6.816
 4229POPC   C4A56274  30.092   4.462   7.245
 4229POPC   C1B56275  30.029   4.076   6.170
 4229POPC   C2B56276  30.117   4.005   6.605
 4229POPC   C3B56277  30.040   4.005   7.015
 4229POPC   C4B56278  29.657   4.199   7.135
 4230POPC   NC356279   6.575   5.229   5.485
 4230POPC   PO456280   6.611   4.581   5.518
 4230POPC   GL156281   6.405   4.847   5.825
 4230POPC   GL256282   6.645   5.110   5.980
 4230POPC   C1A56283   6.237   4.952   6.237
 4230POPC   D2A56284   6.516   5.188   6.544
 4230POPC   C3A56285   6.487   5.202   7.003
 4230POPC   C4A56286   6.333   4.936   7.334
 4230POPC   C1B56287   6.974   5.123   6.314
 4230POPC   C2B56288   7.002   5.365   6.695
 4230POPC   C3B56289   6.953   5.426   7.134
 4230POPC   C4B56290   6.965   5.381   7.584
 4231POPC   NC356291  42.568   1.517   5.426
 4231POPC   PO456292  42.355   0.926   5.446
 4231POPC   GL156293  42.252   1.220   5.791
 4231POPC   GL256294  42.564   1.203   5.853
 4231POPC   C1A56295  42.256   1.184   6.275
 4231POPC   D2A56296  42.214   1.107   6.729
 4231POPC   C3A56297  42.336   1.369   7.014
 4231POPC   C4A56298  42.062   1.294   7.350
 4231POPC   C1B56299  42.720   0.951   6.154
 4231POPC   C2B56300  42.691   1.074   6.581
 4231POPC   C3B56301  42.768   1.127   6.980
 4231POPC   C4B56302  42.594   1.166   7.397
 4232POPC   NC356303  26.110  43.579   5.460
 4232POPC   PO456304  26.401  42.972   5.430
 4232POPC   GL156305  26.290  43.193   5.796
 4232POPC   GL256306  25.955  43.308   5.860
 4232POPC   C1A56307  26.412  43.026   6.176
 4232POPC   D2A56308  26.246  42.885   6.569
 4232POPC   C3A56309  26.012  43.100   6.899
 4232POPC   C4A56310  26.176  43.236   7.358
 4232POPC   C1B56311  25.890  42.973   6.159
 4232POPC   C2B56312  25.701  42.822   6.562
 4232POPC   C3B56313  25.707  42.687   6.968
 4232POPC   C4B56314  25.910  42.809   7.334
 4233POPC   NC356315  25.613  28.195   5.345
 4233POPC   PO456316  25.021  27.991   5.576
 4233POPC   GL156317  25.368  28.187   5.809
 4233POPC   GL256318  25.287  28.550   5.797
 4233POPC   C1A56319  25.466  28.333   6.232
 4233POPC   D2A56320  25.297  28.212   6.613
 4233POPC   C3A56321  25.341  28.348   7.042
 4233POPC   C4A56322  24.938  28.246   7.224
 4233POPC   C1B56323  25.142  28.728   6.219
 4233POPC   C2B56324  25.233  28.712   6.675
 4233POPC   C3B56325  25.118  28.807   7.115
 4233POPC   C4B56326  25.370  28.652   7.467
 4234POPC   NC356327  34.983  14.226   5.541
 4234POPC   PO456328  35.603  14.156   5.486
 4234POPC   GL156329  35.403  14.334   5.818
 4234POPC   GL256330  35.485  14.689   5.804
 4234POPC   C1A56331  35.161  14.383   6.178
 4234POPC   D2A56332  35.179  14.604   6.551
 4234POPC   C3A56333  35.142  14.407   6.906
 4234POPC   C4A56334  35.328  14.264   7.237
 4234POPC   C1B56335  35.362  14.913   6.183
 4234POPC   C2B56336  35.585  14.925   6.582
 4234POPC   C3B56337  35.627  14.648   6.903
 4234POPC   C4B56338  35.358  14.756   7.199
 4235POPC   NC356339  35.026  11.107   5.462
 4235POPC   PO456340  35.503  11.659   5.493
 4235POPC   GL156341  35.380  11.493   5.890
 4235POPC   GL256342  35.303  11.155   5.889
 4235POPC   C1A56343  35.266  11.424   6.338
 4235POPC   D2A56344  35.069  11.481   6.742
 4235POPC   C3A56345  35.285  11.429   7.117
 4235POPC   C4A56346  35.416  11.530   7.511
 4235POPC   C1B56347  35.202  10.914   6.241
 4235POPC   C2B56348  35.053  10.977   6.658
 4235POPC   C3B56349  35.285  10.936   7.028
 4235POPC   C4B56350  35.383  11.027   7.460
 4236POPC   NC356351  39.269  23.712   5.518
 4236POPC   PO456352  39.458  24.299   5.187
 4236POPC   GL156353  39.156  24.214   5.689
 4236POPC   GL256354  39.008  23.916   5.876
 4236POPC   C1A56355  39.253  24.144   6.231
 4236POPC   D2A56356  39.464  23.972   6.595
 4236POPC   C3A56357  39.187  23.994   6.944
 4236POPC   C4A56358  39.090  24.192   7.340
 4236POPC   C1B56359  39.246  23.652   6.205
 4236POPC   C2B56360  39.116  23.555   6.640
 4236POPC   C3B56361  39.108  23.519   7.085
 4236POPC   C4B56362  39.323  23.260   7.347
 4237POPC   NC356363  14.619  32.287   5.367
 4237POPC   PO456364  14.028  32.108   5.499
 4237POPC   GL156365  14.183  32.317   5.882
 4237POPC   GL256366  14.534  32.486   5.891
 4237POPC   C1A56367  14.288  32.410   6.336
 4237POPC   D2A56368  14.580  32.350   6.692
 4237POPC   C3A56369  14.457  32.503   7.064
 4237POPC   C4A56370  14.440  32.122   7.248
 4237POPC   C1B56371  14.858  32.388   6.263
 4237POPC   C2B56372  14.993  32.069   6.611
 4237POPC   C3B56373  14.945  32.181   7.062
 4237POPC   C4B56374  14.806  32.425   7.443
 4238POPC   NC356375  13.428  37.753   5.217
 4238POPC   PO456376  13.934  37.398   5.005
 4238POPC   GL156377  13.767  37.705   5.561
 4238POPC   GL256378  13.469  37.882   5.796
 4238POPC   C1A56379  13.740  37.544   6.083
 4238POPC   D2A56380  13.662  37.237   6.449
 4238POPC   C3A56381  13.485  37.414   6.840
 4238POPC   C4A56382  13.702  37.569   7.189
 4238POPC   C1B56383  13.678  38.020   6.228
 4238POPC   C2B56384  13.733  38.180   6.679
 4238POPC   C3B56385  13.690  38.067   7.135
 4238POPC   C4B56386  13.458  37.880   7.518
 4239POPC   NC356387  40.390   8.287   5.289
 4239POPC   PO456388  39.829   7.933   5.405
 4239POPC   GL156389  40.115   8.014   5.721
 4239POPC   GL256390  40.121   8.358   5.724
 4239POPC   C1A56391  40.130   7.901   6.141
 4239POPC   D2A56392  40.104   8.145   6.510
 4239POPC   C3A56393  40.138   7.988   6.899
 4239POPC   C4A56394  40.039   7.818   7.283
 4239POPC   C1B56395  40.060   8.518   6.132
 4239POPC   C2B56396  40.130   8.654   6.551
 4239POPC   C3B56397  39.888   8.481   6.881
 4239POPC   C4B56398  40.086   8.343   7.240
 4240POPC   NC356399  18.936  15.777   5.516
 4240POPC   PO456400  19.563  16.076   5.558
 4240POPC   GL156401  19.247  16.153   5.853
 4240POPC   GL256402  19.254  15.830   5.895
 4240POPC   C1A56403  18.863  16.010   6.125
 4240POPC   D2A56404  18.939  15.824   6.505
 4240POPC   C3A56405  18.837  16.118   6.843
 4240POPC   C4A56406  18.756  15.977   7.251
 4240POPC   C1B56407  19.324  15.569   6.211
 4240POPC   C2B56408  19.359  15.528   6.629
 4240POPC   C3B56409  19.160  15.746   6.971
 4240POPC   C4B56410  19.177  15.743   7.409
 4241POPC   NC356411   6.226  14.679   5.505
 4241POPC   PO456412   6.801  14.293   5.274
 4241POPC   GL156413   6.859  14.288   5.709
 4241POPC   GL256414   6.563  14.441   5.869
 4241POPC   C1A56415   7.012  14.301   6.133
 4241POPC   D2A56416   6.705  14.363   6.413
 4241POPC   C3A56417   6.753  14.293   6.830
 4241POPC   C4A56418   6.778  14.298   7.251
 4241POPC   C1B56419   6.406  14.717   6.218
 4241POPC   C2B56420   6.324  14.626   6.654
 4241POPC   C3B56421   6.357  14.745   7.078
 4241POPC   C4B56422   6.294  14.497   7.449
 4242POPC   NC356423   7.499   9.206   5.455
 4242POPC   PO456424   7.464   8.548   5.283
 4242POPC   GL156425   7.251   8.769   5.663
 4242POPC   GL256426   6.946   8.616   5.787
 4242POPC   C1A56427   7.288   9.013   6.079
 4242POPC   D2A56428   7.496   9.246   6.461
 4242POPC   C3A56429   7.382   9.089   6.873
 4242POPC   C4A56430   7.280   9.197   7.304
 4242POPC   C1B56431   7.113   8.531   6.199
 4242POPC   C2B56432   7.244   8.624   6.655
 4242POPC   C3B56433   7.166   8.667   7.129
 4242POPC   C4B56434   7.032   8.577   7.570
 4243POPC   NC356435  20.203   9.896   5.488
 4243POPC   PO456436  19.703   9.461   5.416
 4243POPC   GL156437  19.683   9.671   5.833
 4243POPC   GL256438  19.993   9.857   5.947
 4243POPC   C1A56439  19.586   9.826   6.268
 4243POPC   D2A56440  19.503   9.749   6.718
 4243POPC   C3A56441  19.852   9.741   7.028
 4243POPC   C4A56442  20.144   9.709   7.371
 4243POPC   C1B56443  20.176  10.273   6.085
 4243POPC   C2B56444  20.183  10.467   6.507
 4243POPC   C3B56445  20.021  10.292   6.918
 4243POPC   C4B56446  19.762  10.171   7.294
 4244POPC   NC356447  20.069  37.315   5.152
 4244POPC   PO456448  20.377  36.985   5.487
 4244POPC   GL156449  20.243  36.901   5.911
 4244POPC   GL256450  20.199  36.559   5.898
 4244POPC   C1A56451  20.428  36.913   6.333
 4244POPC   D2A56452  20.722  36.763   6.672
 4244POPC   C3A56453  20.621  36.902   7.091
 4244POPC   C4A56454  20.381  37.186   7.359
 4244POPC   C1B56455  20.058  36.547   6.306
 4244POPC   C2B56456  20.240  36.607   6.708
 4244POPC   C3B56457  20.479  36.412   7.024
 4244POPC   C4B56458  20.775  36.415   7.370
 4245POPC   NC356459  23.022   7.419   5.204
 4245POPC   PO456460  23.225   7.072   5.423
 4245POPC   GL156461  23.045   7.314   5.771
 4245POPC   GL256462  23.132   7.660   5.831
 4245POPC   C1A56463  22.917   7.279   6.227
 4245POPC   D2A56464  23.030   7.154   6.663
 4245POPC   C3A56465  22.874   7.261   7.090
 4245POPC   C4A56466  22.698   7.502   7.466
 4245POPC   C1B56467  23.139   7.722   6.306
 4245POPC   C2B56468  22.842   7.658   6.661
 4245POPC   C3B56469  22.930   7.765   7.093
 4245POPC   C4B56470  23.227   7.530   7.366
 4246POPC   NC356471  21.591  11.671   5.319
 4246POPC   PO456472  21.238  12.208   5.481
 4246POPC   GL156473  21.569  11.994   5.734
 4246POPC   GL256474  21.733  12.338   5.740
 4246POPC   C1A56475  21.500  11.759   6.151
 4246POPC   D2A56476  21.461  11.929   6.587
 4246POPC   C3A56477  21.394  11.821   7.061
 4246POPC   C4A56478  21.298  11.947   7.515
 4246POPC   C1B56479  21.513  12.292   6.150
 4246POPC   C2B56480  21.585  12.426   6.563
 4246POPC   C3B56481  21.388  12.316   6.935
 4246POPC   C4B56482  21.335  12.519   7.311
 4247POPC   NC356483  22.327  24.778   5.391
 4247POPC   PO456484  22.005  24.186   5.396
 4247POPC   GL156485  22.063  24.496   5.751
 4247POPC   GL256486  21.886  24.809   5.708
 4247POPC   C1A56487  22.324  24.488   6.144
 4247POPC   D2A56488  22.299  24.312   6.551
 4247POPC   C3A56489  22.471  24.298   6.945
 4247POPC   C4A56490  22.532  24.565   7.262
 4247POPC   C1B56491  22.016  24.892   6.143
 4247POPC   C2B56492  21.913  24.717   6.529
 4247POPC   C3B56493  22.065  24.633   6.903
 4247POPC   C4B56494  22.030  24.473   7.270
 4248POPC   NC356495  30.443  21.176   5.436
 4248POPC   PO456496  30.910  21.631   5.243
 4248POPC   GL156497  30.698  21.632   5.698
 4248POPC   GL256498  30.790  21.284   5.812
 4248POPC   C1A56499  30.554  21.544   6.179
 4248POPC   D2A56500  30.765  21.288   6.511
 4248POPC   C3A56501  30.598  21.336   6.926
 4248POPC   C4A56502  30.448  21.698   7.151
 4248POPC   C1B56503  30.503  21.045   6.102
 4248POPC   C2B56504  30.324  21.037   6.511
 4248POPC   C3B56505  30.278  20.910   6.890
 4248POPC   C4B56506  30.432  20.918   7.288
 4249POPC   NC356507  17.829  42.957   5.412
 4249POPC   PO456508  17.302  43.336   5.298
 4249POPC   GL156509  17.387  43.106   5.686
 4249POPC   GL256510  17.153  42.865   5.824
 4249POPC   C1A56511  17.542  43.022   6.120
 4249POPC   D2A56512  17.296  43.141   6.486
 4249POPC   C3A56513  17.454  43.116   6.885
 4249POPC   C4A56514  17.589  42.996   7.280
 4249POPC   C1B56515  17.115  42.716   6.255
 4249POPC   C2B56516  17.158  42.692   6.729
 4249POPC   C3B56517  17.076  42.898   7.143
 4249POPC   C4B56518  17.139  42.801   7.576
 4250POPC   NC356519  10.718  18.745   5.256
 4250POPC   PO456520  10.250  18.413   5.556
 4250POPC   GL156521  10.407  18.262   5.876
 4250POPC   GL256522  10.222  17.957   5.809
 4250POPC   C1A56523  10.365  18.414   6.298
 4250POPC   D2A56524  10.125  18.438   6.665
 4250POPC   C3A56525  10.409  18.589   6.960
 4250POPC   C4A56526  10.604  18.238   7.125
 4250POPC   C1B56527  10.004  18.068   6.177
 4250POPC   C2B56528  10.035  17.854   6.569
 4250POPC   C3B56529  10.132  17.997   6.975
 4250POPC   C4B56530  10.302  17.923   7.399
 4251POPC   NC356531  35.009   8.870   5.332
 4251POPC   PO456532  34.368   9.138   5.302
 4251POPC   GL156533  34.616   9.122   5.663
 4251POPC   GL256534  34.847   9.400   5.666
 4251POPC   C1A56535  34.520   8.910   6.047
 4251POPC   D2A56536  34.360   8.975   6.458
 4251POPC   C3A56537  34.586   8.791   6.782
 4251POPC   C4A56538  34.554   8.822   7.221
 4251POPC   C1B56539  34.835   9.320   6.104
 4251POPC   C2B56540  35.026   9.442   6.486
 4251POPC   C3B56541  34.914   9.514   6.907
 4251POPC   C4B56542  34.782   9.281   7.239
 4252POPC   NC356543  31.340  31.052   5.473
 4252POPC   PO456544  31.053  30.462   5.513
 4252POPC   GL156545  31.263  30.716   5.845
 4252POPC   GL256546  31.642  30.744   5.810
 4252POPC   C1A56547  31.370  30.782   6.279
 4252POPC   D2A56548  31.633  30.626   6.597
 4252POPC   C3A56549  31.430  30.548   6.988
 4252POPC   C4A56550  31.461  30.874   7.235
 4252POPC   C1B56551  31.885  30.849   6.185
 4252POPC   C2B56552  31.989  31.069   6.538
 4252POPC   C3B56553  31.803  31.013   6.901
 4252POPC   C4B56554  31.982  30.962   7.296
 4253POPC   NC356555  41.981  44.019   5.548
 4253POPC   PO456556  42.648  43.941   5.544
 4253POPC   GL156557  42.678  43.809   5.955
 4253POPC   GL256558  42.834  43.475   5.974
 4253POPC   C1A56559  42.295  43.808   6.251
 4253POPC   D2A56560  41.965  43.541   6.467
 4253POPC   C3A56561  41.968  43.550   6.928
 4253POPC   C4A56562  42.059  43.705   7.343
 4253POPC   C1B56563  42.750  43.627   6.419
 4253POPC   C2B56564  42.446  43.745   6.748
 4253POPC   C3B56565  42.541  43.862   7.159
 4253POPC   C4B56566  42.622  44.164   7.454
 4254POPC   NC356567   4.612  42.602   5.234
 4254POPC   PO456568   3.981  42.359   5.346
 4254POPC   GL156569   4.007  42.307   5.764
 4254POPC   GL256570   3.794  42.570   5.839
 4254POPC   C1A56571   4.290  42.246   6.115
 4254POPC   D2A56572   4.546  42.194   6.503
 4254POPC   C3A56573   4.513  42.474   6.850
 4254POPC   C4A56574   4.540  42.311   7.244
 4254POPC   C1B56575   3.778  42.387   6.242
 4254POPC   C2B56576   4.077  42.423   6.545
 4254POPC   C3B56577   4.084  42.240   6.901
 4254POPC   C4B56578   4.026  42.345   7.239
 4255POPC   NC356579   7.622  14.748   5.493
 4255POPC   PO456580   7.621  14.088   5.236
 4255POPC   GL156581   7.386  14.253   5.678
 4255POPC   GL256582   7.296  14.575   5.820
 4255POPC   C1A56583   7.546  14.273   6.170
 4255POPC   D2A56584   7.634  14.374   6.637
 4255POPC   C3A56585   7.595  14.113   7.051
 4255POPC   C4A56586   7.247  14.110   7.365
 4255POPC   C1B56587   7.373  14.739   6.241
 4255POPC   C2B56588   7.142  14.568   6.580
 4255POPC   C3B56589   7.247  14.460   6.972
 4255POPC   C4B56590   7.669  14.676   7.073
 4256POPC   NC356591  33.281  20.294   5.493
 4256POPC   PO456592  32.852  19.708   5.338
 4256POPC   GL156593  32.971  19.919   5.734
 4256POPC   GL256594  32.797  20.143   5.926
 4256POPC   C1A56595  33.012  19.752   6.177
 4256POPC   D2A56596  32.839  19.562   6.549
 4256POPC   C3A56597  33.017  19.761   6.908
 4256POPC   C4A56598  33.122  19.671   7.307
 4256POPC   C1B56599  33.148  20.235   6.167
 4256POPC   C2B56600  33.212  20.126   6.579
 4256POPC   C3B56601  33.199  20.276   6.981
 4256POPC   C4B56602  33.316  20.133   7.362
 4257POPC   NC356603   2.020  12.230   5.392
 4257POPC   PO456604   2.398  11.782   5.412
 4257POPC   GL156605   2.171  11.876   5.807
 4257POPC   GL256606   1.806  11.904   5.752
 4257POPC   C1A56607   2.187  11.847   6.296
 4257POPC   D2A56608   2.213  11.700   6.746
 4257POPC   C3A56609   2.238  12.002   7.088
 4257POPC   C4A56610   2.163  12.439   7.042
 4257POPC   C1B56611   1.776  12.119   6.192
 4257POPC   C2B56612   1.911  12.134   6.674
 4257POPC   C3B56613   1.739  12.150   7.128
 4257POPC   C4B56614   1.442  12.222   7.488
 4258POPC   NC356615  31.490   7.138   5.621
 4258POPC   PO456616  31.213   6.582   5.415
 4258POPC   GL156617  31.263   6.470   5.813
 4258POPC   GL256618  31.577   6.264   5.745
 4258POPC   C1A56619  31.376   6.739   6.189
 4258POPC   D2A56620  31.583   6.931   6.570
 4258POPC   C3A56621  31.387   6.842   6.963
 4258POPC   C4A56622  31.496   6.939   7.380
 4258POPC   C1B56623  31.482   6.220   6.186
 4258POPC   C2B56624  31.377   6.405   6.574
 4258POPC   C3B56625  31.618   6.387   6.909
 4258POPC   C4B56626  31.518   6.453   7.309
 4259POPC   NC356627  12.823  15.079   5.347
 4259POPC   PO456628  12.228  15.245   5.556
 4259POPC   GL156629  12.559  15.191   5.895
 4259POPC   GL256630  12.886  15.286   5.831
 4259POPC   C1A56631  12.757  15.171   6.339
 4259POPC   D2A56632  12.709  15.360   6.752
 4259POPC   C3A56633  12.695  15.188   7.183
 4259POPC   C4A56634  12.467  15.377   7.543
 4259POPC   C1B56635  13.161  15.005   6.067
 4259POPC   C2B56636  13.251  14.911   6.470
 4259POPC   C3B56637  13.052  14.986   6.850
 4259POPC   C4B56638  13.122  14.814   7.250
 4260POPC   NC356639  16.551   8.321   5.569
 4260POPC   PO456640  17.095   8.324   5.157
 4260POPC   GL156641  17.168   8.217   5.667
 4260POPC   GL256642  16.857   8.249   5.950
 4260POPC   C1A56643  17.303   8.296   6.141
 4260POPC   D2A56644  16.997   8.196   6.484
 4260POPC   C3A56645  16.943   8.261   6.935
 4260POPC   C4A56646  16.708   8.523   7.180
 4260POPC   C1B56647  16.500   8.327   6.284
 4260POPC   C2B56648  16.314   8.226   6.710
 4260POPC   C3B56649  16.460   8.086   7.129
 4260POPC   C4B56650  16.389   7.880   7.544
 4261POPC   NC356651   1.852  43.839   5.223
 4261POPC   PO456652   1.121  43.892   5.320
 4261POPC   GL156653   1.206  43.854   5.734
 4261POPC   GL256654   1.348  44.158   5.735
 4261POPC   C1A56655   1.379  43.750   6.144
 4261POPC   D2A56656   1.255  43.558   6.534
 4261POPC   C3A56657   1.413  43.735   6.921
 4261POPC   C4A56658   1.189  43.781   7.302
 4261POPC   C1B56659   1.164  44.222   6.149
 4261POPC   C2B56660   1.019  44.049   6.556
 4261POPC   C3B56661   1.028  44.192   6.996
 4261POPC   C4B56662   0.834  44.207   7.417
 4262POPC   NC356663  21.655  14.718   5.514
 4262POPC   PO456664  21.206  14.218   5.346
 4262POPC   GL156665  21.348  14.291   5.733
 4262POPC   GL256666  21.219  14.624   5.739
 4262POPC   C1A56667  21.433  14.347   6.180
 4262POPC   D2A56668  21.436  14.119   6.572
 4262POPC   C3A56669  21.385  14.328   6.968
 4262POPC   C4A56670  21.528  14.542   7.322
 4262POPC   C1B56671  21.025  14.670   6.102
 4262POPC   C2B56672  21.054  14.908   6.443
 4262POPC   C3B56673  21.260  14.813   6.818
 4262POPC   C4B56674  21.119  14.805   7.242
 4263POPC   NC356675  17.061  42.198   5.382
 4263POPC   PO456676  16.554  42.720   5.431
 4263POPC   GL156677  16.762  42.422   5.734
 4263POPC   GL256678  16.544  42.129   5.811
 4263POPC   C1A56679  16.946  42.211   6.117
 4263POPC   D2A56680  17.213  42.231   6.486
 4263POPC   C3A56681  17.039  42.160   6.879
 4263POPC   C4A56682  16.996  42.396   7.239
 4263POPC   C1B56683  16.429  42.139   6.271
 4263POPC   C2B56684  16.320  42.285   6.711
 4263POPC   C3B56685  16.496  42.171   7.123
 4263POPC   C4B56686  16.748  41.767   7.075
 4264POPC   NC356687  36.138  39.680   5.315
 4264POPC   PO456688  36.570  39.157   5.524
 4264POPC   GL156689  36.429  39.402   5.872
 4264POPC   GL256690  36.089  39.495   5.822
 4264POPC   C1A56691  36.421  39.399   6.324
 4264POPC   D2A56692  36.300  39.397   6.758
 4264POPC   C3A56693  36.509  39.170   7.084
 4264POPC   C4A56694  36.411  38.998   7.501
 4264POPC   C1B56695  35.895  39.372   6.199
 4264POPC   C2B56696  35.817  39.534   6.600
 4264POPC   C3B56697  35.833  39.295   6.961
 4264POPC   C4B56698  36.081  39.349   7.309
 4265POPC   NC356699  19.621  32.196   5.469
 4265POPC   PO456700  20.338  32.148   5.497
 4265POPC   GL156701  20.005  32.252   5.870
 4265POPC   GL256702  19.624  32.293   5.955
 4265POPC   C1A56703  19.903  32.422   6.329
 4265POPC   D2A56704  19.672  32.485   6.726
 4265POPC   C3A56705  19.846  32.260   7.059
 4265POPC   C4A56706  20.025  31.862   7.192
 4265POPC   C1B56707  19.521  32.090   6.349
 4265POPC   C2B56708  19.349  31.903   6.668
 4265POPC   C3B56709  19.329  32.115   7.003
 4265POPC   C4B56710  19.385  32.488   7.187
 4266POPC   NC356711  30.156  35.164   5.404
 4266POPC   PO456712  29.709  35.720   5.487
 4266POPC   GL156713  30.066  35.544   5.740
 4266POPC   GL256714  29.808  35.295   5.883
 4266POPC   C1A56715  30.269  35.223   6.059
 4266POPC   D2A56716  30.008  35.064   6.399
 4266POPC   C3A56717  29.955  35.348   6.737
 4266POPC   C4A56718  29.896  35.306   7.166
 4266POPC   C1B56719  29.936  35.584   6.246
 4266POPC   C2B56720  29.705  35.783   6.574
 4266POPC   C3B56721  29.592  35.668   6.966
 4266POPC   C4B56722  29.618  35.666   7.418
 4267POPC   NC356723  33.205  38.489   5.182
 4267POPC   PO456724  32.775  38.114   5.501
 4267POPC   GL156725  32.947  38.278   5.911
 4267POPC   GL256726  33.243  38.526   5.837
 4267POPC   C1A56727  33.059  38.227   6.359
 4267POPC   D2A56728  32.853  38.499   6.657
 4267POPC   C3A56729  32.940  38.468   7.074
 4267POPC   C4A56730  33.276  38.224   7.177
 4267POPC   C1B56731  33.439  38.594   6.254
 4267POPC   C2B56732  33.353  38.540   6.698
 4267POPC   C3B56733  33.384  38.746   7.078
 4267POPC   C4B56734  33.547  38.919   7.470
 4268POPC   NC356735  13.872  19.189   5.404
 4268POPC   PO456736  13.329  18.858   5.368
 4268POPC   GL156737  13.470  19.002   5.776
 4268POPC   GL256738  13.500  19.344   5.794
 4268POPC   C1A56739  13.356  18.793   6.179
 4268POPC   D2A56740  13.568  18.696   6.545
 4268POPC   C3A56741  13.439  18.776   6.970
 4268POPC   C4A56742  13.701  18.958   7.294
 4268POPC   C1B56743  13.685  19.182   6.243
 4268POPC   C2B56744  13.766  19.122   6.746
 4268POPC   C3B56745  13.719  19.431   7.117
 4268POPC   C4B56746  13.722  19.496   7.555
 4269POPC   NC356747  23.066  25.179   5.404
 4269POPC   PO456748  22.794  25.809   5.372
 4269POPC   GL156749  22.778  25.503   5.768
 4269POPC   GL256750  22.800  25.130   5.823
 4269POPC   C1A56751  22.980  25.372   6.201
 4269POPC   D2A56752  22.964  25.057   6.538
 4269POPC   C3A56753  22.830  25.267   6.916
 4269POPC   C4A56754  23.009  25.448   7.282
 4269POPC   C1B56755  22.630  24.900   6.168
 4269POPC   C2B56756  22.409  24.869   6.576
 4269POPC   C3B56757  22.379  25.017   7.030
 4269POPC   C4B56758  22.706  25.042   7.363
 4270POPC   NC356759  31.173   9.293   5.496
 4270POPC   PO456760  31.833   9.020   5.522
 4270POPC   GL156761  31.616   8.930   5.858
 4270POPC   GL256762  31.294   8.947   5.864
 4270POPC   C1A56763  31.555   9.174   6.263
 4270POPC   D2A56764  31.332   9.198   6.661
 4270POPC   C3A56765  31.315   8.844   6.927
 4270POPC   C4A56766  31.450   8.730   7.341
 4270POPC   C1B56767  31.102   8.871   6.279
 4270POPC   C2B56768  30.870   8.955   6.670
 4270POPC   C3B56769  30.913   9.108   7.119
 4270POPC   C4B56770  31.101   9.050   7.553
 4271POPC   NC356771   9.696   2.250   5.390
 4271POPC   PO456772  10.096   1.741   5.293
 4271POPC   GL156773   9.839   1.838   5.676
 4271POPC   GL256774   9.977   2.105   5.838
 4271POPC   C1A56775   9.621   1.847   6.084
 4271POPC   D2A56776   9.714   1.797   6.530
 4271POPC   C3A56777   9.648   2.029   6.919
 4271POPC   C4A56778   9.821   1.781   7.252
 4271POPC   C1B56779  10.055   2.096   6.275
 4271POPC   C2B56780   9.993   2.337   6.672
 4271POPC   C3B56781  10.138   2.284   7.123
 4271POPC   C4B56782  10.060   2.118   7.558
 4272POPC   NC356783  28.620  22.032   5.319
 4272POPC   PO456784  28.239  22.502   5.173
 4272POPC   GL156785  28.358  22.347   5.634
 4272POPC   GL256786  28.613  22.492   5.827
 4272POPC   C1A56787  28.304  22.171   6.072
 4272POPC   D2A56788  28.461  22.098   6.507
 4272POPC   C3A56789  28.148  22.183   6.833
 4272POPC   C4A56790  28.244  22.153   7.286
 4272POPC   C1B56791  28.551  22.593   6.229
 4272POPC   C2B56792  28.803  22.481   6.577
 4272POPC   C3B56793  28.532  22.489   6.928
 4272POPC   C4B56794  28.462  22.595   7.327
 4273POPC   NC356795  34.858   1.831   5.229
 4273POPC   PO456796  34.332   2.014   5.213
 4273POPC   GL156797  34.304   2.031   5.742
 4273POPC   GL256798  34.225   1.754   5.979
 4273POPC   C1A56799  34.311   2.176   6.241
 4273POPC   D2A56800  34.183   2.054   6.697
 4273POPC   C3A56801  34.465   2.204   7.019
 4273POPC   C4A56802  34.552   2.613   7.219
 4273POPC   C1B56803  34.378   1.678   6.401
 4273POPC   C2B56804  34.532   1.698   6.833
 4273POPC   C3B56805  34.429   1.742   7.247
 4273POPC   C4B56806  34.508   1.623   7.676
 4274POPC   NC356807  43.812   3.609   5.433
 4274POPC   PO456808  44.556   3.680   5.436
 4274POPC   GL156809  44.246   3.584   5.840
 4274POPC   GL256810  43.890   3.480   5.892
 4274POPC   C1A56811  44.082   3.583   6.326
 4274POPC   D2A56812  44.233   3.676   6.730
 4274POPC   C3A56813  44.021   3.642   7.095
 4274POPC   C4A56814  43.580   3.614   7.077
 4274POPC   C1B56815  43.634   3.291   6.153
 4274POPC   C2B56816  43.589   3.400   6.568
 4274POPC   C3B56817  43.914   3.237   6.786
 4274POPC   C4B56818  43.838   3.175   7.186
 4275POPC   NC356819  34.853  29.306   5.499
 4275POPC   PO456820  34.253  29.337   5.552
 4275POPC   GL156821  34.471  29.379   5.911
 4275POPC   GL256822  34.553  29.043   5.897
 4275POPC   C1A56823  34.788  29.313   6.260
 4275POPC   D2A56824  34.630  29.229   6.685
 4275POPC   C3A56825  34.848  29.331   7.040
 4275POPC   C4A56826  34.742  29.266   7.452
 4275POPC   C1B56827  34.335  29.033   6.313
 4275POPC   C2B56828  34.238  28.869   6.735
 4275POPC   C3B56829  34.437  28.969   7.138
 4275POPC   C4B56830  34.446  28.856   7.603
 4276POPC   NC356831  20.440  30.985   5.428
 4276POPC   PO456832  20.758  30.346   5.383
 4276POPC   GL156833  20.702  30.629   5.738
 4276POPC   GL256834  20.393  30.515   5.878
 4276POPC   C1A56835  20.623  30.954   6.078
 4276POPC   D2A56836  20.464  31.192   6.450
 4276POPC   C3A56837  20.683  31.152   6.841
 4276POPC   C4A56838  20.700  30.921   7.251
 4276POPC   C1B56839  20.689  30.456   6.264
 4276POPC   C2B56840  20.791  30.544   6.723
 4276POPC   C3B56841  20.547  30.446   7.105
 4276POPC   C4B56842  20.122  30.266   7.169
 4277POPC   NC356843  33.109  42.505   5.490
 4277POPC   PO456844  32.658  42.046   5.733
 4277POPC   GL156845  32.852  42.329   5.987
 4277POPC   GL256846  32.729  42.651   5.914
 4277POPC   C1A56847  33.003  42.259   6.427
 4277POPC   D2A56848  33.345  42.338   6.742
 4277POPC   C3A56849  33.322  42.135   7.149
 4277POPC   C4A56850  33.329  41.908   7.545
 4277POPC   C1B56851  32.546  42.556   6.341
 4277POPC   C2B56852  32.701  42.480   6.791
 4277POPC   C3B56853  32.952  42.588   7.158
 4277POPC   C4B56854  32.733  42.717   7.567
 4278POPC   NC356855  13.288  22.429   5.629
 4278POPC   PO456856  13.992  22.440   5.582
 4278POPC   GL156857  13.713  22.308   5.859
 4278POPC   GL256858  13.690  22.000   5.705
 4278POPC   C1A56859  13.440  22.287   6.243
 4278POPC   D2A56860  13.524  22.475   6.618
 4278POPC   C3A56861  13.391  22.232   6.938
 4278POPC   C4A56862  13.408  22.070   7.320
 4278POPC   C1B56863  13.805  21.933   6.170
 4278POPC   C2B56864  13.679  21.943   6.608
 4278POPC   C3B56865  13.830  21.945   7.047
 4278POPC   C4B56866  14.135  21.767   7.385
 4279POPC   NC356867  14.257  42.585   5.501
 4279POPC   PO456868  14.850  42.310   5.398
 4279POPC   GL156869  14.681  42.512   5.828
 4279POPC   GL256870  14.318  42.532   5.997
 4279POPC   C1A56871  14.693  42.457   6.300
 4279POPC   D2A56872  14.562  42.261   6.620
 4279POPC   C3A56873  14.360  42.438   6.936
 4279POPC   C4A56874  14.330  42.381   7.371
 4279POPC   C1B56875  14.161  42.198   6.300
 4279POPC   C2B56876  14.123  42.007   6.700
 4279POPC   C3B56877  13.934  42.147   7.064
 4279POPC   C4B56878  14.043  41.970   7.450
 4280POPC   NC356879  35.806   9.281   5.459
 4280POPC   PO456880  35.513   8.699   5.309
 4280POPC   GL156881  35.488   8.960   5.703
 4280POPC   GL256882  35.136   8.989   5.804
 4280POPC   C1A56883  35.505   8.997   6.150
 4280POPC   D2A56884  35.367   9.032   6.569
 4280POPC   C3A56885  35.664   9.121   6.872
 4280POPC   C4A56886  35.424   9.272   7.218
 4280POPC   C1B56887  35.011   8.824   6.205
 4280POPC   C2B56888  35.041   8.642   6.611
 4280POPC   C3B56889  35.090   8.848   7.012
 4280POPC   C4B56890  35.467   8.782   7.223
 4281POPC   NC356891  35.008  11.959   5.519
 4281POPC   PO456892  35.544  12.327   5.380
 4281POPC   GL156893  35.358  12.283   5.769
 4281POPC   GL256894  35.521  11.996   5.869
 4281POPC   C1A56895  35.159  12.244   6.191
 4281POPC   D2A56896  35.081  11.930   6.526
 4281POPC   C3A56897  35.250  11.918   6.979
 4281POPC   C4A56898  35.446  12.031   7.417
 4281POPC   C1B56899  35.626  11.777   6.255
 4281POPC   C2B56900  35.582  11.628   6.714
 4281POPC   C3B56901  35.762  11.665   7.155
 4281POPC   C4B56902  35.853  11.747   7.613
 4282POPC   NC356903   1.799  21.354   5.341
 4282POPC   PO456904   2.444  21.431   5.304
 4282POPC   GL156905   2.195  21.488   5.721
 4282POPC   GL256906   1.866  21.278   5.860
 4282POPC   C1A56907   2.231  21.458   6.178
 4282POPC   D2A56908   2.093  21.134   6.464
 4282POPC   C3A56909   2.087  21.193   6.892
 4282POPC   C4A56910   2.162  21.292   7.304
 4282POPC   C1B56911   1.617  21.128   6.261
 4282POPC   C2B56912   1.561  21.159   6.724
 4282POPC   C3B56913   1.668  21.079   7.173
 4282POPC   C4B56914   1.767  21.293   7.592
 4283POPC   NC356915  28.371  20.242   5.567
 4283POPC   PO456916  28.440  20.889   5.528
 4283POPC   GL156917  28.522  20.730   5.948
 4283POPC   GL256918  28.229  20.568   5.965
 4283POPC   C1A56919  28.531  20.513   6.397
 4283POPC   D2A56920  28.432  20.178   6.654
 4283POPC   C3A56921  28.503  20.274   7.047
 4283POPC   C4A56922  28.408  20.613   7.249
 4283POPC   C1B56923  28.032  20.498   6.367
 4283POPC   C2B56924  28.136  20.608   6.792
 4283POPC   C3B56925  28.115  20.985   7.085
 4283POPC   C4B56926  27.943  20.893   7.511
 4284POPC   NC356927  31.267  29.187   5.474
 4284POPC   PO456928  31.687  29.693   5.436
 4284POPC   GL156929  31.528  29.397   5.862
 4284POPC   GL256930  31.159  29.284   5.953
 4284POPC   C1A56931  31.529  29.047   6.230
 4284POPC   D2A56932  31.667  28.915   6.681
 4284POPC   C3A56933  31.828  29.270   6.935
 4284POPC   C4A56934  31.466  29.472   7.081
 4284POPC   C1B56935  31.010  29.169   6.340
 4284POPC   C2B56936  31.200  29.101   6.731
 4284POPC   C3B56937  31.111  29.020   7.143
 4284POPC   C4B56938  30.873  29.058   7.523
 4285POPC   NC356939  15.176  33.730   5.332
 4285POPC   PO456940  15.603  34.202   5.619
 4285POPC   GL156941  15.246  33.993   5.806
 4285POPC   GL256942  15.308  33.642   5.845
 4285POPC   C1A56943  15.116  33.879   6.253
 4285POPC   D2A56944  14.869  33.785   6.631
 4285POPC   C3A56945  15.028  33.961   7.008
 4285POPC   C4A56946  15.346  34.247   7.184
 4285POPC   C1B56947  15.157  33.359   6.186
 4285POPC   C2B56948  15.191  33.380   6.631
 4285POPC   C3B56949  15.140  33.453   7.058
 4285POPC   C4B56950  15.419  33.732   7.268
 4286POPC   NC356951  14.392  13.489   5.545
 4286POPC   PO456952  14.224  14.013   5.364
 4286POPC   GL156953  14.557  13.912   5.771
 4286POPC   GL256954  14.671  13.525   5.943
 4286POPC   C1A56955  14.559  13.918   6.242
 4286POPC   D2A56956  14.658  13.693   6.603
 4286POPC   C3A56957  14.497  13.808   6.974
 4286POPC   C4A56958  14.669  13.557   7.266
 4286POPC   C1B56959  14.313  13.410   6.227
 4286POPC   C2B56960  14.189  13.494   6.654
 4286POPC   C3B56961  14.278  13.306   7.055
 4286POPC   C4B56962  14.032  13.165   7.412
 4287POPC   NC356963   7.641  37.489   5.245
 4287POPC   PO456964   7.188  37.965   5.442
 4287POPC   GL156965   7.409  37.677   5.729
 4287POPC   GL256966   7.303  37.307   5.753
 4287POPC   C1A56967   7.469  37.684   6.182
 4287POPC   D2A56968   7.461  37.925   6.570
 4287POPC   C3A56969   7.407  37.774   7.009
 4287POPC   C4A56970   7.730  37.747   7.331
 4287POPC   C1B56971   7.047  37.380   6.160
 4287POPC   C2B56972   7.161  37.461   6.583
 4287POPC   C3B56973   7.117  37.324   6.994
 4287POPC   C4B56974   7.004  37.557   7.339
 4288POPC   NC356975   6.022   3.902   5.311
 4288POPC   PO456976   5.733   4.529   5.286
 4288POPC   GL156977   5.734   4.270   5.649
 4288POPC   GL256978   6.018   4.259   5.664
 4288POPC   C1A56979   5.554   4.259   6.102
 4288POPC   D2A56980   5.451   4.479   6.504
 4288POPC   C3A56981   5.614   4.377   6.899
 4288POPC   C4A56982   5.456   4.349   7.336
 4288POPC   C1B56983   6.090   4.340   6.069
 4288POPC   C2B56984   6.111   4.179   6.479
 4288POPC   C3B56985   6.171   4.351   6.883
 4288POPC   C4B56986   5.963   4.278   7.251
 4289POPC   NC356987  17.195  34.144   5.548
 4289POPC   PO456988  16.768  33.721   5.268
 4289POPC   GL156989  16.718  33.896   5.780
 4289POPC   GL256990  17.011  34.045   6.012
 4289POPC   C1A56991  16.654  33.683   6.197
 4289POPC   D2A56992  16.902  33.690   6.567
 4289POPC   C3A56993  16.743  33.794   6.965
 4289POPC   C4A56994  16.673  33.709   7.364
 4289POPC   C1B56995  16.741  34.170   6.280
 4289POPC   C2B56996  16.656  34.221   6.687
 4289POPC   C3B56997  16.968  34.269   6.998
 4289POPC   C4B56998  16.912  34.154   7.394
 4290POPC   NC356999  19.011  13.112   5.439
 4290POPC   PO457000  19.421  12.583   5.525
 4290POPC   GL157001  19.084  12.701   5.831
 4290POPC   GL257002  18.729  12.661   5.739
 4290POPC   C1A57003  19.104  12.693   6.299
 4290POPC   D2A57004  18.953  12.902   6.668
 4290POPC   C3A57005  19.042  12.734   7.085
 4290POPC   C4A57006  19.153  12.937   7.480
 4290POPC   C1B57007  18.652  12.879   6.145
 4290POPC   C2B57008  18.457  12.872   6.561
 4290POPC   C3B57009  18.548  12.867   7.002
 4290POPC   C4B57010  18.639  13.025   7.407
 4291POPC   NC357011  43.150  40.541   5.381
 4291POPC   PO457012  43.017  41.161   5.535
 4291POPC   GL157013  43.165  40.950   5.873
 4291POPC   GL257014  43.140  40.618   5.882
 4291POPC   C1A57015  43.118  41.062   6.288
 4291POPC   D2A57016  42.918  41.162   6.655
 4291POPC   C3A57017  43.171  40.963   6.975
 4291POPC   C4A57018  43.126  40.798   7.382
 4291POPC   C1B57019  43.014  40.519   6.288
 4291POPC   C2B57020  42.830  40.651   6.677
 4291POPC   C3B57021  42.881  40.472   7.074
 4291POPC   C4B57022  42.732  40.513   7.491
 4292POPC   NC357023  17.259  12.262   5.363
 4292POPC   PO457024  17.644  11.676   5.410
 4292POPC   GL157025  17.554  11.994   5.738
 4292POPC   GL257026  17.809  11.786   5.916
 4292POPC   C1A57027  17.440  12.202   6.165
 4292POPC   D2A57028  17.557  12.360   6.601
 4292POPC   C3A57029  17.290  12.406   7.001
 4292POPC   C4A57030  17.394  12.303   7.457
 4292POPC   C1B57031  17.380  11.685   6.107
 4292POPC   C2B57032  17.219  11.752   6.526
 4292POPC   C3B57033  17.379  11.913   6.915
 4292POPC   C4B57034  17.642  11.786   7.264
 4293POPC   NC357035  20.701  11.189   5.439
 4293POPC   PO457036  21.061  10.710   5.614
 4293POPC   GL157037  20.841  10.997   5.921
 4293POPC   GL257038  20.828  11.382   5.912
 4293POPC   C1A57039  20.625  11.158   6.315
 4293POPC   D2A57040  20.703  11.411   6.671
 4293POPC   C3A57041  20.719  11.075   6.976
 4293POPC   C4A57042  20.818  11.109   7.404
 4293POPC   C1B57043  20.501  11.639   6.196
 4293POPC   C2B57044  20.371  11.935   6.528
 4293POPC   C3B57045  20.489  11.838   6.932
 4293POPC   C4B57046  20.544  11.508   7.219
 4294POPC   NC357047  40.535  23.013   5.430
 4294POPC   PO457048  41.179  23.125   5.378
 4294POPC   GL157049  40.899  23.053   5.784
 4294POPC   GL257050  41.027  22.797   6.040
 4294POPC   C1A57051  40.628  23.114   6.165
 4294POPC   D2A57052  40.696  22.879   6.557
 4294POPC   C3A57053  40.652  23.063   6.962
 4294POPC   C4A57054  40.890  23.146   7.333
 4294POPC   C1B57055  40.599  22.602   6.134
 4294POPC   C2B57056  40.328  22.481   6.460
 4294POPC   C3B57057  40.438  22.588   6.894
 4294POPC   C4B57058  40.892  22.609   7.053
 4295POPC   NC357059  34.489   4.557   5.442
 4295POPC   PO457060  33.720   4.565   5.373
 4295POPC   GL157061  33.802   4.374   5.763
 4295POPC   GL257062  34.048   4.656   5.798
 4295POPC   C1A57063  33.658   4.150   6.168
 4295POPC   D2A57064  33.496   4.062   6.609
 4295POPC   C3A57065  33.707   4.171   7.009
 4295POPC   C4A57066  33.790   4.149   7.426
 4295POPC   C1B57067  33.819   4.650   6.202
 4295POPC   C2B57068  33.819   4.471   6.610
 4295POPC   C3B57069  33.880   4.673   7.021
 4295POPC   C4B57070  34.039   4.609   7.464
 4296POPC   NC357071  15.629  32.124   5.481
 4296POPC   PO457072  14.981  32.386   5.619
 4296POPC   GL157073  15.379  32.354   5.875
 4296POPC   GL257074  15.509  31.994   5.962
 4296POPC   C1A57075  15.447  32.419   6.298
 4296POPC   D2A57076  15.228  32.515   6.670
 4296POPC   C3A57077  15.381  32.486   7.086
 4296POPC   C4A57078  15.295  32.374   7.521
 4296POPC   C1B57079  15.455  31.910   6.402
 4296POPC   C2B57080  15.477  32.057   6.828
 4296POPC   C3B57081  15.377  31.964   7.264
 4296POPC   C4B57082  15.379  31.918   7.770
 4297POPC   NC357083  15.021  43.296   5.529
 4297POPC   PO457084  15.584  42.989   5.395
 4297POPC   GL157085  15.254  42.882   5.737
 4297POPC   GL257086  15.072  43.160   5.997
 4297POPC   C1A57087  15.110  42.685   6.122
 4297POPC   D2A57088  15.044  42.973   6.487
 4297POPC   C3A57089  15.243  42.832   6.858
 4297POPC   C4A57090  15.170  42.748   7.294
 4297POPC   C1B57091  14.781  43.400   6.262
 4297POPC   C2B57092  14.709  43.327   6.706
 4297POPC   C3B57093  14.919  43.152   7.091
 4297POPC   C4B57094  14.893  43.093   7.572
 4298POPC   NC357095   4.660   7.965   5.482
 4298POPC   PO457096   4.596   7.240   5.414
 4298POPC   GL157097   4.421   7.535   5.726
 4298POPC   GL257098   4.029   7.579   5.715
 4298POPC   C1A57099   4.525   7.374   6.125
 4298POPC   D2A57100   4.497   7.004   6.405
 4298POPC   C3A57101   4.419   7.164   6.817
 4298POPC   C4A57102   4.585   7.188   7.227
 4298POPC   C1B57103   4.037   7.508   6.168
 4298POPC   C2B57104   4.314   7.631   6.531
 4298POPC   C3B57105   4.276   7.637   6.955
 4298POPC   C4B57106   4.124   7.408   7.255
 4299POPC   NC357107   3.783  39.356   5.366
 4299POPC   PO457108   3.196  39.492   5.154
 4299POPC   GL157109   3.377  39.286   5.651
 4299POPC   GL257110   3.125  39.272   5.910
 4299POPC   C1A57111   3.690  39.384   6.075
 4299POPC   D2A57112   3.884  39.532   6.518
 4299POPC   C3A57113   3.715  39.467   6.963
 4299POPC   C4A57114   3.649  39.122   7.227
 4299POPC   C1B57115   3.264  39.189   6.257
 4299POPC   C2B57116   3.382  39.406   6.580
 4299POPC   C3B57117   3.255  39.238   6.917
 4299POPC   C4B57118   3.147  39.296   7.302
 4300POPC   NC357119   5.263  33.132   5.312
 4300POPC   PO457120   4.598  33.143   5.415
 4300POPC   GL157121   4.905  33.076   5.745
 4300POPC   GL257122   5.267  33.205   5.804
 4300POPC   C1A57123   5.085  32.811   6.081
 4300POPC   D2A57124   5.294  32.939   6.473
 4300POPC   C3A57125   5.169  32.979   6.931
 4300POPC   C4A57126   5.356  32.952   7.370
 4300POPC   C1B57127   5.073  33.343   6.175
 4300POPC   C2B57128   5.230  33.458   6.605
 4300POPC   C3B57129   5.098  33.480   7.013
 4300POPC   C4B57130   4.989  33.302   7.361
 4301POPC   NC357131  18.177   1.569   5.406
 4301POPC   PO457132  18.404   2.189   5.268
 4301POPC   GL157133  18.273   2.131   5.697
 4301POPC   GL257134  17.989   1.890   5.797
 4301POPC   C1A57135  18.400   2.171   6.120
 4301POPC   D2A57136  18.260   2.267   6.508
 4301POPC   C3A57137  18.325   2.097   6.909
 4301POPC   C4A57138  18.308   2.323   7.283
 4301POPC   C1B57139  18.147   1.752   6.213
 4301POPC   C2B57140  18.285   1.637   6.625
 4301POPC   C3B57141  18.069   1.679   7.025
 4301POPC   C4B57142  18.246   1.790   7.411
 4302POPC   NC357143  28.332  43.418   5.488
 4302POPC   PO457144  28.619  42.822   5.782
 4302POPC   GL157145  28.399  43.125   5.892
 4302POPC   GL257146  28.693  43.340   5.844
 4302POPC   C1A57147  28.309  43.291   6.269
 4302POPC   D2A57148  28.040  43.346   6.591
 4302POPC   C3A57149  28.113  43.114   6.974
 4302POPC   C4A57150  28.525  43.157   7.168
 4302POPC   C1B57151  28.724  43.628   6.186
 4302POPC   C2B57152  28.599  43.770   6.568
 4302POPC   C3B57153  28.727  43.604   6.949
 4302POPC   C4B57154  28.562  43.672   7.328
 4303POPC   NC357155   0.212  36.977   5.402
 4303POPC   PO457156   0.770  36.890   5.686
 4303POPC   GL157157   0.411  36.845   5.906
 4303POPC   GL257158   0.331  37.185   5.837
 4303POPC   C1A57159   0.414  36.547   6.261
 4303POPC   D2A57160   0.272  36.493   6.692
 4303POPC   C3A57161   0.530  36.580   7.047
 4303POPC   C4A57162   0.420  36.636   7.493
 4303POPC   C1B57163   0.508  37.330   6.187
 4303POPC   C2B57164   0.592  37.070   6.527
 4303POPC   C3B57165   0.759  37.070   6.920
 4303POPC   C4B57166   0.504  37.075   7.260
 4304POPC   NC357167  37.571  37.259   5.596
 4304POPC   PO457168  37.746  36.659   5.480
 4304POPC   GL157169  37.600  36.830   5.863
 4304POPC   GL257170  37.927  37.020   5.924
 4304POPC   C1A57171  37.595  36.910   6.318
 4304POPC   D2A57172  37.980  36.996   6.574
 4304POPC   C3A57173  37.960  36.784   6.976
 4304POPC   C4A57174  37.891  36.806   7.421
 4304POPC   C1B57175  37.815  37.355   6.221
 4304POPC   C2B57176  37.621  37.423   6.636
 4304POPC   C3B57177  37.598  37.198   7.047
 4304POPC   C4B57178  37.693  37.259   7.490
 4305POPC   NC357179  39.109  41.595   5.355
 4305POPC   PO457180  39.386  42.168   5.286
 4305POPC   GL157181  39.480  41.787   5.673
 4305POPC   GL257182  39.495  41.407   5.636
 4305POPC   C1A57183  39.269  41.583   6.067
 4305POPC   D2A57184  39.262  41.377   6.507
 4305POPC   C3A57185  39.098  41.545   6.932
 4305POPC   C4A57186  39.358  41.733   7.259
 4305POPC   C1B57187  39.727  41.395   6.031
 4305POPC   C2B57188  39.769  41.527   6.463
 4305POPC   C3B57189  39.642  41.491   6.890
 4305POPC   C4B57190  39.848  41.550   7.290
 4306POPC   NC357191   4.445  31.164   5.547
 4306POPC   PO457192   4.321  30.556   5.192
 4306POPC   GL157193   4.220  30.650   5.677
 4306POPC   GL257194   4.525  30.731   5.832
 4306POPC   C1A57195   4.205  30.835   6.185
 4306POPC   D2A57196   4.528  30.768   6.562
 4306POPC   C3A57197   4.387  30.731   6.997
 4306POPC   C4A57198   3.971  30.741   7.122
 4306POPC   C1B57199   4.367  30.375   6.086
 4306POPC   C2B57200   4.297  30.284   6.507
 4306POPC   C3B57201   4.545  30.263   6.872
 4306POPC   C4B57202   4.790  30.384   7.233
 4307POPC   NC357203  30.349  44.832   5.462
 4307POPC   PO457204  29.894  44.300   5.504
 4307POPC   GL157205  29.971  44.648   5.845
 4307POPC   GL257206  30.208  44.888   5.934
 4307POPC   C1A57207  29.849  44.821   6.303
 4307POPC   D2A57208  29.722  44.671   6.742
 4307POPC   C3A57209  29.960  44.462   7.089
 4307POPC   C4A57210  29.843  44.397   7.525
 4307POPC   C1B57211  30.358  44.829   6.324
 4307POPC   C2B57212  30.181  44.988   6.704
 4307POPC   C3B57213  30.162   0.008   7.151
 4307POPC   C4B57214  30.147  44.799   7.573
 4308POPC   NC357215  44.046  32.709   5.007
 4308POPC   PO457216  43.580  33.052   5.419
 4308POPC   GL157217  43.816  33.218   5.739
 4308POPC   GL257218  43.631  33.026   5.956
 4308POPC   C1A57219  44.055  33.250   6.127
 4308POPC   D2A57220  43.984  33.065   6.510
 4308POPC   C3A57221  44.144  32.959   6.903
 4308POPC   C4A57222  44.129  32.708   7.276
 4308POPC   C1B57223  43.545  33.387   6.175
 4308POPC   C2B57224  43.694  33.479   6.557
 4308POPC   C3B57225  43.735  33.270   6.914
 4308POPC   C4B57226  43.770  33.063   7.252
 4309POPC   NC357227  32.605  44.771   5.461
 4309POPC   PO457228  32.007  44.499   5.266
 4309POPC   GL157229  32.156  44.599   5.693
 4309POPC   GL257230  32.428  44.350   5.750
 4309POPC   C1A57231  32.031  44.764   6.126
 4309POPC   D2A57232  32.167  44.551   6.514
 4309POPC   C3A57233  32.146  44.682   6.925
 4309POPC   C4A57234  31.938  44.625   7.283
 4309POPC   C1B57235  32.457  44.268   6.202
 4309POPC   C2B57236  32.654  44.342   6.607
 4309POPC   C3B57237  32.575  44.398   7.036
 4309POPC   C4B57238  32.476  44.626   7.436
 4310POPC   NC357239  41.958   5.031   5.357
 4310POPC   PO457240  42.636   5.147   5.395
 4310POPC   GL157241  42.279   5.217   5.730
 4310POPC   GL257242  42.079   4.909   5.833
 4310POPC   C1A57243  42.222   5.207   6.220
 4310POPC   D2A57244  42.460   4.984   6.579
 4310POPC   C3A57245  42.515   5.154   7.003
 4310POPC   C4A57246  42.186   5.379   7.242
 4310POPC   C1B57247  42.151   4.620   6.167
 4310POPC   C2B57248  42.214   4.529   6.626
 4310POPC   C3B57249  42.099   4.818   6.976
 4310POPC   C4B57250  42.225   4.888   7.406
 4311POPC   NC357251  41.861  19.607   5.521
 4311POPC   PO457252  41.370  20.062   5.386
 4311POPC   GL157253  41.475  19.875   5.785
 4311POPC   GL257254  41.838  19.983   5.854
 4311POPC   C1A57255  41.372  19.987   6.206
 4311POPC   D2A57256  41.110  19.950   6.615
 4311POPC   C3A57257  41.370  20.019   7.010
 4311POPC   C4A57258  41.611  19.797   7.357
 4311POPC   C1B57259  41.874  19.834   6.268
 4311POPC   C2B57260  41.861  19.872   6.719
 4311POPC   C3B57261  42.062  19.762   7.107
 4311POPC   C4B57262  42.054  19.645   7.549
 4312POPC   NC357263  29.563   0.451   5.456
 4312POPC   PO457264  28.833   0.429   5.548
 4312POPC   GL157265  29.172   0.652   5.789
 4312POPC   GL257266  29.320   0.339   5.892
 4312POPC   C1A57267  29.174   0.652   6.259
 4312POPC   D2A57268  28.990   0.253   6.412
 4312POPC   C3A57269  28.749   0.188   6.800
 4312POPC   C4A57270  28.929   0.056   7.185
 4312POPC   C1B57271  29.526   0.244   6.275
 4312POPC   C2B57272  29.685   0.170   6.676
 4312POPC   C3B57273  29.480   0.326   7.031
 4312POPC   C4B57274  29.422   0.654   7.361
 4313POPC   NC357275  28.324  16.121   5.526
 4313POPC   PO457276  28.916  16.379   5.433
 4313POPC   GL157277  28.755  16.070   5.849
 4313POPC   GL257278  28.630  15.710   5.814
 4313POPC   C1A57279  28.713  15.854   6.336
 4313POPC   D2A57280  28.649  15.599   6.751
 4313POPC   C3A57281  28.582  15.874   7.161
 4313POPC   C4A57282  28.641  15.745   7.627
 4313POPC   C1B57283  28.268  15.818   6.103
 4313POPC   C2B57284  28.241  15.863   6.568
 4313POPC   C3B57285  28.099  15.935   6.997
 4313POPC   C4B57286  28.188  16.274   7.296
 4314POPC   NC357287  26.765  42.216   5.241
 4314POPC   PO457288  27.219  42.627   5.345
 4314POPC   GL157289  26.976  42.454   5.680
 4314POPC   GL257290  26.931  42.099   5.765
 4314POPC   C1A57291  26.717  42.546   6.050
 4314POPC   D2A57292  26.748  42.753   6.459
 4314POPC   C3A57293  26.686  42.520   6.824
 4314POPC   C4A57294  26.825  42.592   7.270
 4314POPC   C1B57295  27.081  42.168   6.200
 4314POPC   C2B57296  27.171  42.098   6.664
 4314POPC   C3B57297  26.908  42.132   7.052
 4314POPC   C4B57298  26.437  42.149   7.093
 4315POPC   NC357299   3.376   9.147   5.611
 4315POPC   PO457300   3.659   9.689   5.228
 4315POPC   GL157301   3.598   9.620   5.648
 4315POPC   GL257302   3.821   9.364   5.621
 4315POPC   C1A57303   3.438   9.735   6.064
 4315POPC   D2A57304   3.183   9.738   6.437
 4315POPC   C3A57305   3.371   9.812   6.829
 4315POPC   C4A57306   3.501   9.793   7.247
 4315POPC   C1B57307   3.865   9.365   6.075
 4315POPC   C2B57308   3.757   9.583   6.443
 4315POPC   C3B57309   3.796   9.557   6.848
 4315POPC   C4B57310   3.646   9.311   7.215
 4316POPC   NC357311   7.906   5.668   5.387
 4316POPC   PO457312   8.446   6.043   5.486
 4316POPC   GL157313   8.257   5.744   5.845
 4316POPC   GL257314   8.025   5.449   5.856
 4316POPC   C1A57315   8.163   5.714   6.313
 4316POPC   D2A57316   7.861   5.965   6.611
 4316POPC   C3A57317   8.025   6.080   7.047
 4316POPC   C4A57318   8.333   5.828   7.334
 4316POPC   C1B57319   7.933   5.241   6.251
 4316POPC   C2B57320   7.844   5.456   6.618
 4316POPC   C3B57321   7.987   5.579   7.001
 4316POPC   C4B57322   7.832   5.752   7.395
 4317POPC   NC357323  38.008  39.536   5.488
 4317POPC   PO457324  37.784  40.168   5.474
 4317POPC   GL157325  37.675  39.890   5.794
 4317POPC   GL257326  38.013  39.844   5.918
 4317POPC   C1A57327  37.626  39.892   6.252
 4317POPC   D2A57328  37.776  39.712   6.648
 4317POPC   C3A57329  37.625  39.915   7.036
 4317POPC   C4A57330  37.444  39.887   7.457
 4317POPC   C1B57331  38.105  40.154   6.250
 4317POPC   C2B57332  38.052  40.340   6.668
 4317POPC   C3B57333  38.087  40.197   7.091
 4317POPC   C4B57334  37.749  40.288   7.361
 4318POPC   NC357335  13.114  39.223   5.459
 4318POPC   PO457336  13.772  39.136   5.254
 4318POPC   GL157337  13.661  39.172   5.720
 4318POPC   GL257338  13.336  39.245   5.923
 4318POPC   C1A57339  13.850  39.295   6.116
 4318POPC   D2A57340  13.808  39.438   6.522
 4318POPC   C3A57341  13.879  39.194   6.873
 4318POPC   C4A57342  13.620  39.059   7.198
 4318POPC   C1B57343  13.436  39.618   6.173
 4318POPC   C2B57344  13.458  39.792   6.568
 4318POPC   C3B57345  13.404  39.545   6.977
 4318POPC   C4B57346  13.330  39.504   7.439
 4319POPC   NC357347  17.317  31.736   5.213
 4319POPC   PO457348  17.737  32.275   5.306
 4319POPC   GL157349  17.740  32.402   5.755
 4319POPC   GL257350  17.990  32.202   5.864
 4319POPC   C1A57351  17.612  32.442   6.219
 4319POPC   D2A57352  17.465  32.208   6.607
 4319POPC   C3A57353  17.412  32.383   7.039
 4319POPC   C4A57354  17.173  32.402   7.418
 4319POPC   C1B57355  17.860  31.965   6.206
 4319POPC   C2B57356  17.797  31.801   6.611
 4319POPC   C3B57357  17.703  31.948   7.013
 4319POPC   C4B57358  17.757  31.776   7.434
 4320POPC   NC357359  11.597  20.268   5.586
 4320POPC   PO457360  11.114  20.814   5.527
 4320POPC   GL157361  11.324  20.638   5.831
 4320POPC   GL257362  11.615  20.799   5.717
 4320POPC   C1A57363  11.254  20.554   6.272
 4320POPC   D2A57364  11.137  20.716   6.678
 4320POPC   C3A57365  11.101  20.425   7.006
 4320POPC   C4A57366  11.347  20.342   7.354
 4320POPC   C1B57367  11.593  20.956   6.146
 4320POPC   C2B57368  11.604  20.861   6.591
 4320POPC   C3B57369  11.571  20.696   7.017
 4320POPC   C4B57370  11.847  20.351   7.160
 4321POPC   NC357371  30.766   8.448   5.426
 4321POPC   PO457372  30.352   7.883   5.382
 4321POPC   GL157373  30.517   8.099   5.765
 4321POPC   GL257374  30.865   8.017   5.850
 4321POPC   C1A57375  30.523   8.020   6.227
 4321POPC   D2A57376  30.749   8.053   6.588
 4321POPC   C3A57377  30.528   8.120   6.960
 4321POPC   C4A57378  30.490   7.806   7.254
 4321POPC   C1B57379  31.095   8.211   6.197
 4321POPC   C2B57380  31.087   8.447   6.602
 4321POPC   C3B57381  31.056   8.217   6.984
 4321POPC   C4B57382  30.913   8.084   7.377
 4322POPC   NC357383  44.181  19.953   5.613
 4322POPC   PO457384  44.676  19.569   5.338
 4322POPC   GL157385  44.663  19.655   5.797
 4322POPC   GL257386  44.346  19.506   5.825
 4322POPC   C1A57387  44.746  19.877   6.231
 4322POPC   D2A57388  44.648  20.091   6.664
 4322POPC   C3A57389  44.890  20.000   7.039
 4322POPC   C4A57390   0.037  19.568   7.166
 4322POPC   C1B57391  44.298  19.598   6.240
 4322POPC   C2B57392  44.359  19.377   6.607
 4322POPC   C3B57393  44.590  19.617   6.868
 4322POPC   C4B57394  44.536  19.690   7.266
 4323POPC   NC357395  18.321   0.781   4.999
 4323POPC   PO457396  18.462   0.285   5.467
 4323POPC   GL157397  18.339   0.328   5.857
 4323POPC   GL257398  18.070   0.541   5.829
 4323POPC   C1A57399  18.352   0.530   6.259
 4323POPC   D2A57400  18.431   0.370   6.657
 4323POPC   C3A57401  18.410   0.603   7.040
 4323POPC   C4A57402  18.465   0.403   7.462
 4323POPC   C1B57403  17.928   0.252   6.152
 4323POPC   C2B57404  17.995   0.085   6.585
 4323POPC   C3B57405  18.016   0.278   6.981
 4323POPC   C4B57406  18.002   0.620   7.339
 4324POPC   NC357407  24.255  42.624   5.334
 4324POPC   PO457408  24.630  42.016   5.450
 4324POPC   GL157409  24.525  42.365   5.738
 4324POPC   GL257410  24.146  42.355   5.746
 4324POPC   C1A57411  24.599  42.324   6.194
 4324POPC   D2A57412  24.721  42.002   6.521
 4324POPC   C3A57413  24.640  42.172   6.927
 4324POPC   C4A57414  24.826  42.177   7.350
 4324POPC   C1B57415  24.079  42.208   6.139
 4324POPC   C2B57416  24.210  42.087   6.538
 4324POPC   C3B57417  24.097  42.213   6.932
 4324POPC   C4B57418  24.293  42.337   7.294
 4325POPC   NC357419  22.292   0.173   5.390
 4325POPC   PO457420  21.925   0.674   5.514
 4325POPC   GL157421  21.968   0.549   5.920
 4325POPC   GL257422  21.828   0.227   5.899
 4325POPC   C1A57423  22.135   0.355   6.301
 4325POPC   D2A57424  22.385   0.221   6.654
 4325POPC   C3A57425  22.275   0.505   7.009
 4325POPC   C4A57426  22.367   0.959   7.087
 4325POPC   C1B57427  21.751   0.007   6.269
 4325POPC   C2B57428  21.984  44.903   6.632
 4325POPC   C3B57429  21.916   0.022   7.049
 4325POPC   C4B57430  22.101   0.185   7.420
 4326POPC   NC357431  39.662  42.802   5.434
 4326POPC   PO457432  40.169  43.222   5.386
 4326POPC   GL157433  40.059  43.095   5.770
 4326POPC   GL257434  39.700  43.169   5.787
 4326POPC   C1A57435  40.297  43.051   6.165
 4326POPC   D2A57436  40.249  42.830   6.562
 4326POPC   C3A57437  40.294  43.060   6.942
 4326POPC   C4A57438  40.140  42.899   7.302
 4326POPC   C1B57439  39.796  43.019   6.207
 4326POPC   C2B57440  39.711  42.866   6.603
 4326POPC   C3B57441  39.799  43.103   6.950
 4326POPC   C4B57442  39.767  43.263   7.359
 4327POPC   NC357443  43.293  25.087   5.351
 4327POPC   PO457444  42.796  25.403   5.520
 4327POPC   GL157445  43.131  25.365   5.773
 4327POPC   GL257446  43.027  25.097   5.969
 4327POPC   C1A57447  43.223  25.584   6.146
 4327POPC   D2A57448  43.305  25.473   6.587
 4327POPC   C3A57449  42.977  25.516   6.920
 4327POPC   C4A57450  43.035  25.366   7.333
 4327POPC   C1B57451  43.436  25.116   6.190
 4327POPC   C2B57452  43.632  25.056   6.613
 4327POPC   C3B57453  43.674  24.888   7.052
 4327POPC   C4B57454  43.414  24.966   7.455
 4328POPC   NC357455   3.388  40.856   5.299
 4328POPC   PO457456   3.757  40.295   5.358
 4328POPC   GL157457   3.511  40.524   5.755
 4328POPC   GL257458   3.378  40.902   5.829
 4328POPC   C1A57459   3.481  40.633   6.247
 4328POPC   D2A57460   3.254  40.520   6.648
 4328POPC   C3A57461   3.309  40.587   7.127
 4328POPC   C4A57462   3.570  40.477   7.479
 4328POPC   C1B57463   3.246  41.123   6.273
 4328POPC   C2B57464   3.229  41.020   6.742
 4328POPC   C3B57465   3.328  41.101   7.191
 4328POPC   C4B57466   3.237  41.265   7.610
 4329POPC   NC357467  35.757  41.361   5.493
 4329POPC   PO457468  36.282  41.601   5.262
 4329POPC   GL157469  36.474  41.503   5.679
 4329POPC   GL257470  36.126  41.468   5.840
 4329POPC   C1A57471  36.539  41.502   6.146
 4329POPC   D2A57472  36.224  41.553   6.475
 4329POPC   C3A57473  36.382  41.716   6.870
 4329POPC   C4A57474  36.220  41.727   7.294
 4329POPC   C1B57475  35.840  41.276   6.139
 4329POPC   C2B57476  35.716  41.423   6.532
 4329POPC   C3B57477  35.945  41.424   6.911
 4329POPC   C4B57478  35.912  41.207   7.293
 4330POPC   NC357479   8.429  20.209   5.363
 4330POPC   PO457480   8.570  20.861   5.086
 4330POPC   GL157481   8.461  20.775   5.601
 4330POPC   GL257482   8.468  20.451   5.804
 4330POPC   C1A57483   8.227  20.824   6.045
 4330POPC   D2A57484   8.087  20.619   6.445
 4330POPC   C3A57485   8.276  20.767   6.840
 4330POPC   C4A57486   8.058  20.963   7.195
 4330POPC   C1B57487   8.389  20.277   6.202
 4330POPC   C2B57488   8.581  20.174   6.593
 4330POPC   C3B57489   8.516  20.297   7.001
 4330POPC   C4B57490   8.217  20.484   7.262
 4331POPC   NC357491   6.231  10.747   5.401
 4331POPC   PO457492   6.858  10.467   5.517
 4331POPC   GL157493   6.532  10.286   5.756
 4331POPC   GL257494   6.793  10.183   5.948
 4331POPC   C1A57495   6.395  10.441   6.186
 4331POPC   D2A57496   6.148  10.620   6.538
 4331POPC   C3A57497   6.426  10.672   6.887
 4331POPC   C4A57498   6.552  10.283   7.088
 4331POPC   C1B57499   6.967  10.480   6.251
 4331POPC   C2B57500   6.941  10.750   6.633
 4331POPC   C3B57501   6.940  10.654   7.084
 4331POPC   C4B57502   7.068  10.227   7.257
 4332POPC   NC357503  42.154  28.937   5.350
 4332POPC   PO457504  42.609  29.425   5.503
 4332POPC   GL157505  42.515  29.112   5.795
 4332POPC   GL257506  42.142  29.155   5.806
 4332POPC   C1A57507  42.429  29.121   6.248
 4332POPC   D2A57508  42.152  29.346   6.524
 4332POPC   C3A57509  42.285  29.523   6.925
 4332POPC   C4A57510  42.338  29.382   7.344
 4332POPC   C1B57511  42.004  28.824   6.102
 4332POPC   C2B57512  42.115  28.778   6.538
 4332POPC   C3B57513  42.100  29.036   6.940
 4332POPC   C4B57514  42.067  28.938   7.381
 4333POPC   NC357515   2.953  37.648   5.371
 4333POPC   PO457516   2.393  37.991   5.568
 4333POPC   GL157517   2.601  37.707   5.804
 4333POPC   GL257518   2.932  37.876   5.819
 4333POPC   C1A57519   2.653  37.724   6.247
 4333POPC   D2A57520   2.633  37.546   6.636
 4333POPC   C3A57521   2.560  37.828   6.939
 4333POPC   C4A57522   2.432  37.570   7.249
 4333POPC   C1B57523   3.026  37.465   6.000
 4333POPC   C2B57524   3.103  37.384   6.412
 4333POPC   C3B57525   3.098  37.362   6.835
 4333POPC   C4B57526   2.932  37.561   7.166
 4334POPC   NC357527  20.981  44.211   5.413
 4334POPC   PO457528  21.631  44.027   5.501
 4334POPC   GL157529  21.435  43.762   5.802
 4334POPC   GL257530  21.090  43.854   5.933
 4334POPC   C1A57531  21.439  43.612   6.216
 4334POPC   D2A57532  21.158  43.719   6.529
 4334POPC   C3A57533  21.409  43.691   6.907
 4334POPC   C4A57534  21.578  43.710   7.319
 4334POPC   C1B57535  21.011  44.207   6.247
 4334POPC   C2B57536  20.967  44.494   6.589
 4334POPC   C3B57537  20.962  44.267   6.987
 4334POPC   C4B57538  21.074  43.909   7.244
 4335POPC   NC357539  31.496  44.922   5.086
 4335POPC   PO457540  31.686   0.402   5.470
 4335POPC   GL157541  31.341   0.423   5.776
 4335POPC   GL257542  31.358   0.785   5.865
 4335POPC   C1A57543  31.203   0.376   6.240
 4335POPC   D2A57544  31.491   0.315   6.633
 4335POPC   C3A57545  31.353   0.377   7.075
 4335POPC   C4A57546  31.359   0.843   7.127
 4335POPC   C1B57547  31.672   0.597   6.156
 4335POPC   C2B57548  31.895   0.677   6.539
 4335POPC   C3B57549  31.819   0.547   6.966
 4335POPC   C4B57550  31.776   0.726   7.391
 4336POPC   NC357551   7.363  42.701   5.466
 4336POPC   PO457552   7.257  41.965   5.355
 4336POPC   GL157553   7.237  42.236   5.714
 4336POPC   GL257554   7.544  42.258   5.699
 4336POPC   C1A57555   7.299  42.351   6.162
 4336POPC   D2A57556   7.141  42.225   6.583
 4336POPC   C3A57557   7.432  42.302   6.911
 4336POPC   C4A57558   7.369  42.471   7.297
 4336POPC   C1B57559   7.745  42.062   6.073
 4336POPC   C2B57560   7.995  42.250   6.410
 4336POPC   C3B57561   7.927  42.413   6.821
 4336POPC   C4B57562   7.874  42.362   7.242
 4337POPC   NC357563  41.814  26.281   5.476
 4337POPC   PO457564  41.219  25.925   5.350
 4337POPC   GL157565  41.464  26.015   5.746
 4337POPC   GL257566  41.547  26.309   5.904
 4337POPC   C1A57567  41.384  25.888   6.161
 4337POPC   D2A57568  41.172  26.036   6.523
 4337POPC   C3A57569  41.406  26.014   6.916
 4337POPC   C4A57570  41.222  25.879   7.301
 4337POPC   C1B57571  41.808  26.139   6.238
 4337POPC   C2B57572  41.991  26.145   6.644
 4337POPC   C3B57573  41.903  26.169   7.104
 4337POPC   C4B57574  41.659  26.062   7.477
 4338POPC   NC357575  17.624   3.943   5.484
 4338POPC   PO457576  17.262   3.465   5.297
 4338POPC   GL157577  17.341   3.590   5.709
 4338POPC   GL257578  17.456   3.278   5.803
 4338POPC   C1A57579  17.461   3.667   6.153
 4338POPC   D2A57580  17.337   3.425   6.522
 4338POPC   C3A57581  17.555   3.475   6.934
 4338POPC   C4A57582  17.836   3.723   7.124
 4338POPC   C1B57583  17.230   3.074   6.119
 4338POPC   C2B57584  17.304   2.903   6.512
 4338POPC   C3B57585  17.285   3.049   6.901
 4338POPC   C4B57586  17.189   3.272   7.232
 4339POPC   NC357587   3.747  15.300   5.486
 4339POPC   PO457588   3.143  14.935   5.372
 4339POPC   GL157589   3.365  15.077   5.715
 4339POPC   GL257590   3.300  15.445   5.761
 4339POPC   C1A57591   3.604  15.075   6.111
 4339POPC   D2A57592   3.437  14.997   6.530
 4339POPC   C3A57593   3.634  15.028   6.921
 4339POPC   C4A57594   3.700  14.935   7.372
 4339POPC   C1B57595   3.466  15.572   6.188
 4339POPC   C2B57596   3.482  15.508   6.639
 4339POPC   C3B57597   3.568  15.535   7.048
 4339POPC   C4B57598   3.911  15.385   7.220
 4340POPC   NC357599  44.806  17.474   5.448
 4340POPC   PO457600  44.131  17.480   5.488
 4340POPC   GL157601  44.462  17.424   5.843
 4340POPC   GL257602  44.777  17.186   5.860
 4340POPC   C1A57603  44.625  17.674   6.213
 4340POPC   D2A57604  44.542  17.880   6.630
 4340POPC   C3A57605  44.574  17.561   6.953
 4340POPC   C4A57606  44.755  17.580   7.338
 4340POPC   C1B57607   0.062  17.424   6.163
 4340POPC   C2B57608  44.922  17.438   6.590
 4340POPC   C3B57609   0.097  17.339   6.986
 4340POPC   C4B57610   0.231  17.421   7.371
 4341POPC   NC357611  10.906   0.701   5.068
 4341POPC   PO457612  10.455   0.354   5.378
 4341POPC   GL157613  10.619   0.380   5.822
 4341POPC   GL257614  10.307   0.539   5.887
 4341POPC   C1A57615  10.580   0.217   6.234
 4341POPC   D2A57616  10.442   0.345   6.609
 4341POPC   C3A57617  10.660   0.187   6.970
 4341POPC   C4A57618  10.654   0.134   7.414
 4341POPC   C1B57619  10.541   0.732   6.185
 4341POPC   C2B57620  10.444   0.879   6.570
 4341POPC   C3B57621  10.515   0.702   6.958
 4341POPC   C4B57622  10.490   0.732   7.378
 4342POPC   NC357623  26.996   1.543   5.147
 4342POPC   PO457624  26.640   2.121   5.388
 4342POPC   GL157625  26.909   2.068   5.800
 4342POPC   GL257626  26.680   1.896   6.021
 4342POPC   C1A57627  27.138   1.958   6.234
 4342POPC   D2A57628  26.972   1.873   6.654
 4342POPC   C3A57629  27.093   2.022   7.073
 4342POPC   C4A57630  26.868   2.067   7.482
 4342POPC   C1B57631  26.698   2.223   6.368
 4342POPC   C2B57632  26.637   2.213   6.838
 4342POPC   C3B57633  26.562   2.420   7.201
 4342POPC   C4B57634  26.530   2.426   7.665
 4343POPC   NC357635  31.042  41.620   5.472
 4343POPC   PO457636  30.504  41.246   5.308
 4343POPC   GL157637  30.692  41.319   5.748
 4343POPC   GL257638  30.981  41.509   5.967
 4343POPC   C1A57639  30.540  41.436   6.183
 4343POPC   D2A57640  30.370  41.608   6.582
 4343POPC   C3A57641  30.470  41.399   6.935
 4343POPC   C4A57642  30.563  41.531   7.321
 4343POPC   C1B57643  30.939  41.905   6.171
 4343POPC   C2B57644  30.804  42.040   6.524
 4343POPC   C3B57645  30.814  41.779   6.830
 4343POPC   C4B57646  30.953  41.899   7.182
 4344POPC   NC357647  21.588  16.141   5.633
 4344POPC   PO457648  21.106  15.836   5.204
 4344POPC   GL157649  21.376  15.680   5.676
 4344POPC   GL257650  21.292  15.917   5.975
 4344POPC   C1A57651  21.522  15.509   6.126
 4344POPC   D2A57652  21.308  15.761   6.493
 4344POPC   C3A57653  21.243  15.781   6.941
 4344POPC   C4A57654  21.224  16.087   7.278
 4344POPC   C1B57655  21.663  15.989   6.243
 4344POPC   C2B57656  21.784  15.886   6.663
 4344POPC   C3B57657  21.696  15.969   7.120
 4344POPC   C4B57658  21.586  15.904   7.577
 4345POPC   NC357659   8.310  19.332   5.609
 4345POPC   PO457660   7.920  19.037   5.203
 4345POPC   GL157661   8.090  18.923   5.729
 4345POPC   GL257662   7.872  19.097   5.942
 4345POPC   C1A57663   8.209  18.822   6.179
 4345POPC   D2A57664   8.039  18.796   6.606
 4345POPC   C3A57665   8.279  18.931   6.951
 4345POPC   C4A57666   8.142  18.908   7.350
 4345POPC   C1B57667   8.067  19.360   6.284
 4345POPC   C2B57668   8.070  19.371   6.755
 4345POPC   C3B57669   8.229  19.411   7.187
 4345POPC   C4B57670   8.449  19.606   7.556
 4346POPC   NC357671  28.610   2.881   5.355
 4346POPC   PO457672  28.124   2.438   5.410
 4346POPC   GL157673  28.334   2.740   5.774
 4346POPC   GL257674  28.615   3.024   5.829
 4346POPC   C1A57675  28.421   2.807   6.244
 4346POPC   D2A57676  28.197   2.835   6.656
 4346POPC   C3A57677  28.479   2.830   7.002
 4346POPC   C4A57678  28.464   2.738   7.442
 4346POPC   C1B57679  28.915   3.012   6.186
 4346POPC   C2B57680  28.734   3.053   6.602
 4346POPC   C3B57681  28.920   3.047   7.022
 4346POPC   C4B57682  28.721   3.162   7.431
 4347POPC   NC357683  37.354  42.195   5.081
 4347POPC   PO457684  37.945  42.289   5.378
 4347POPC   GL157685  37.803  42.201   5.785
 4347POPC   GL257686  37.925  42.520   5.931
 4347POPC   C1A57687  37.937  42.104   6.212
 4347POPC   D2A57688  38.119  42.186   6.621
 4347POPC   C3A57689  37.882  42.132   7.059
 4347POPC   C4A57690  37.572  42.156   7.420
 4347POPC   C1B57691  37.960  42.626   6.380
 4347POPC   C2B57692  37.902  42.586   6.834
 4347POPC   C3B57693  37.576  42.594   7.145
 4347POPC   C4B57694  37.640  42.800   7.548
 4348POPC   NC357695  25.546  43.681   5.343
 4348POPC   PO457696  24.864  43.608   5.384
 4348POPC   GL157697  25.049  43.924   5.690
 4348POPC   GL257698  24.806  44.158   5.847
 4348POPC   C1A57699  25.297  44.199   5.996
 4348POPC   D2A57700  25.599  44.220   6.364
 4348POPC   C3A57701  25.540  44.067   6.822
 4348POPC   C4A57702  25.284  43.954   7.204
 4348POPC   C1B57703  24.875  43.868   6.218
 4348POPC   C2B57704  25.025  43.807   6.666
 4348POPC   C3B57705  25.052  43.540   7.022
 4348POPC   C4B57706  24.991  43.604   7.449
 4349POPC   NC357707   9.198  20.002   5.430
 4349POPC   PO457708   8.542  19.689   5.420
 4349POPC   GL157709   8.739  19.872   5.743
 4349POPC   GL257710   9.064  19.725   5.818
 4349POPC   C1A57711   8.840  19.994   6.174
 4349POPC   D2A57712   8.969  19.746   6.525
 4349POPC   C3A57713   8.925  19.907   6.926
 4349POPC   C4A57714   8.772  19.930   7.314
 4349POPC   C1B57715   9.346  19.671   6.146
 4349POPC   C2B57716   9.472  19.587   6.537
 4349POPC   C3B57717   9.225  19.467   6.877
 4349POPC   C4B57718   9.230  19.646   7.262
 4350POPC   NC357719  37.275  23.853   5.033
 4350POPC   PO457720  37.799  23.738   5.410
 4350POPC   GL157721  37.758  23.471   5.767
 4350POPC   GL257722  38.077  23.600   5.847
 4350POPC   C1A57723  37.665  23.579   6.214
 4350POPC   D2A57724  37.445  23.672   6.621
 4350POPC   C3A57725  37.613  23.588   7.029
 4350POPC   C4A57726  37.739  23.619   7.459
 4350POPC   C1B57727  38.175  23.682   6.268
 4350POPC   C2B57728  37.919  23.917   6.537
 4350POPC   C3B57729  37.951  23.955   6.950
 4350POPC   C4B57730  38.171  23.639   7.159
 4351POPC   NC357731  20.694  44.949   5.122
 4351POPC   PO457732  20.771  44.495   5.703
 4351POPC   GL157733  20.524  44.682   5.957
 4351POPC   GL257734  20.852  44.800   6.109
 4351POPC   C1A57735  20.395  44.845   6.316
 4351POPC   D2A57736  20.496  44.687   6.701
 4351POPC   C3A57737  20.303  44.806   7.056
 4351POPC   C4A57738  20.366  44.657   7.447
 4351POPC   C1B57739  20.809   0.091   6.429
 4351POPC   C2B57740  20.886  44.988   6.814
 4351POPC   C3B57741  20.816  44.725   7.128
 4351POPC   C4B57742  21.118  44.939   7.343
 4352POPC   NC357743  28.197  30.991   5.482
 4352POPC   PO457744  28.621  30.485   5.444
 4352POPC   GL157745  28.370  30.600   5.791
 4352POPC   GL257746  28.569  30.893   5.881
 4352POPC   C1A57747  28.200  30.719   6.236
 4352POPC   D2A57748  28.102  30.719   6.709
 4352POPC   C3A57749  28.360  30.836   7.073
 4352POPC   C4A57750  28.295  30.895   7.540
 4352POPC   C1B57751  28.684  30.517   6.164
 4352POPC   C2B57752  28.708  30.384   6.575
 4352POPC   C3B57753  28.489  30.354   6.964
 4352POPC   C4B57754  28.392  30.414   7.379
 4353POPC   NC357755  14.418  37.755   5.352
 4353POPC   PO457756  14.005  37.293   5.585
 4353POPC   GL157757  14.214  37.699   5.822
 4353POPC   GL257758  14.568  37.901   5.800
 4353POPC   C1A57759  14.179  37.811   6.261
 4353POPC   D2A57760  13.887  37.697   6.604
 4353POPC   C3A57761  14.104  37.783   6.975
 4353POPC   C4A57762  14.373  37.645   7.324
 4353POPC   C1B57763  14.691  37.691   6.148
 4353POPC   C2B57764  14.616  37.731   6.577
 4353POPC   C3B57765  14.607  37.934   6.959
 4353POPC   C4B57766  14.829  37.935   7.335
 4354POPC   NC357767  27.765  30.192   5.480
 4354POPC   PO457768  27.702  30.876   5.502
 4354POPC   GL157769  27.537  30.564   5.797
 4354POPC   GL257770  27.879  30.475   5.878
 4354POPC   C1A57771  27.346  30.569   6.239
 4354POPC   D2A57772  27.295  30.736   6.693
 4354POPC   C3A57773  27.473  30.583   7.106
 4354POPC   C4A57774  27.414  30.559   7.572
 4354POPC   C1B57775  27.801  30.356   6.261
 4354POPC   C2B57776  27.680  30.377   6.664
 4354POPC   C3B57777  27.942  30.343   7.022
 4354POPC   C4B57778  27.897  30.496   7.403
 4355POPC   NC357779  37.788  23.057   5.352
 4355POPC   PO457780  37.378  22.449   5.465
 4355POPC   GL157781  37.622  22.760   5.731
 4355POPC   GL257782  37.950  22.909   5.819
 4355POPC   C1A57783  37.535  23.017   6.116
 4355POPC   D2A57784  37.699  22.890   6.507
 4355POPC   C3A57785  37.542  23.109   6.836
 4355POPC   C4A57786  37.600  23.124   7.261
 4355POPC   C1B57787  38.013  23.200   6.182
 4355POPC   C2B57788  37.924  23.376   6.621
 4355POPC   C3B57789  38.043  23.163   7.021
 4355POPC   C4B57790  38.041  23.214   7.501
 4356POPC   NC357791  30.388  13.421   5.383
 4356POPC   PO457792  30.684  12.753   5.193
 4356POPC   GL157793  30.675  12.739   5.669
 4356POPC   GL257794  30.800  12.421   5.654
 4356POPC   C1A57795  30.546  12.862   6.130
 4356POPC   D2A57796  30.729  13.000   6.560
 4356POPC   C3A57797  30.524  13.050   6.959
 4356POPC   C4A57798  30.754  13.003   7.347
 4356POPC   C1B57799  30.840  12.450   6.102
 4356POPC   C2B57800  30.771  12.471   6.540
 4356POPC   C3B57801  30.802  12.625   6.962
 4356POPC   C4B57802  31.110  12.553   7.270
 4357POPC   NC357803  41.268  28.634   4.997
 4357POPC   PO457804  41.817  28.625   5.448
 4357POPC   GL157805  41.581  28.319   5.749
 4357POPC   GL257806  41.231  28.417   5.877
 4357POPC   C1A57807  41.654  28.405   6.195
 4357POPC   D2A57808  41.603  28.581   6.611
 4357POPC   C3A57809  41.810  28.600   7.008
 4357POPC   C4A57810  41.665  28.232   7.174
 4357POPC   C1B57811  41.246  28.728   6.219
 4357POPC   C2B57812  41.208  28.916   6.638
 4357POPC   C3B57813  41.289  28.674   7.026
 4357POPC   C4B57814  41.306  28.480   7.450
 4358POPC   NC357815  10.023  38.193   5.387
 4358POPC   PO457816   9.524  38.614   5.418
 4358POPC   GL157817   9.820  38.538   5.727
 4358POPC   GL257818   9.579  38.344   5.887
 4358POPC   C1A57819   9.884  38.689   6.146
 4358POPC   D2A57820   9.646  38.656   6.546
 4358POPC   C3A57821   9.896  38.651   6.914
 4358POPC   C4A57822   9.745  38.673   7.341
 4358POPC   C1B57823   9.622  38.196   6.286
 4358POPC   C2B57824   9.688  38.082   6.696
 4358POPC   C3B57825   9.560  38.291   7.051
 4358POPC   C4B57826   9.487  38.252   7.507
 4359POPC   NC357827  13.985   0.218   5.292
 4359POPC   PO457828  14.647   0.225   5.455
 4359POPC   GL157829  14.375   0.417   5.794
 4359POPC   GL257830  14.036   0.551   5.775
 4359POPC   C1A57831  14.379   0.356   6.230
 4359POPC   D2A57832  14.712   0.329   6.570
 4359POPC   C3A57833  14.568   0.475   6.995
 4359POPC   C4A57834  14.160   0.440   7.231
 4359POPC   C1B57835  14.080   0.777   6.189
 4359POPC   C2B57836  14.256   0.679   6.615
 4359POPC   C3B57837  14.247   0.895   7.012
 4359POPC   C4B57838  14.076   0.904   7.457
 4360POPC   NC357839  15.652   2.507   5.566
 4360POPC   PO457840  16.079   1.989   5.386
 4360POPC   GL157841  16.118   2.087   5.816
 4360POPC   GL257842  15.754   2.098   5.848
 4360POPC   C1A57843  15.991   1.868   6.228
 4360POPC   D2A57844  15.756   1.849   6.616
 4360POPC   C3A57845  16.001   1.937   6.990
 4360POPC   C4A57846  16.400   1.813   7.190
 4360POPC   C1B57847  15.815   2.408   6.196
 4360POPC   C2B57848  15.524   2.532   6.521
 4360POPC   C3B57849  15.618   2.295   6.878
 4360POPC   C4B57850  15.770   2.298   7.287
 4361POPC   NC357851   8.464  13.012   5.456
 4361POPC   PO457852   7.784  12.684   5.320
 4361POPC   GL157853   8.023  12.755   5.726
 4361POPC   GL257854   8.080  13.128   5.798
 4361POPC   C1A57855   8.192  12.802   6.168
 4361POPC   D2A57856   8.043  13.013   6.540
 4361POPC   C3A57857   7.954  12.730   6.877
 4361POPC   C4A57858   8.081  12.777   7.275
 4361POPC   C1B57859   8.448  13.250   6.101
 4361POPC   C2B57860   8.548  13.051   6.504
 4361POPC   C3B57861   8.442  12.908   6.904
 4361POPC   C4B57862   8.465  13.079   7.327
 4362POPC   NC357863   9.035  39.639   5.410
 4362POPC   PO457864   8.834  40.261   5.528
 4362POPC   GL157865   9.048  39.984   5.833
 4362POPC   GL257866   8.796  39.727   5.842
 4362POPC   C1A57867   9.196  40.074   6.270
 4362POPC   D2A57868   8.979  40.029   6.666
 4362POPC   C3A57869   8.997  40.188   7.080
 4362POPC   C4A57870   8.589  40.376   7.143
 4362POPC   C1B57871   8.804  39.712   6.249
 4362POPC   C2B57872   8.575  39.663   6.603
 4362POPC   C3B57873   8.590  39.844   7.011
 4362POPC   C4B57874   8.774  39.618   7.359
 4363POPC   NC357875   0.784  20.136   5.445
 4363POPC   PO457876   1.423  19.801   5.421
 4363POPC   GL157877   1.360  19.918   5.871
 4363POPC   GL257878   1.381  19.605   5.922
 4363POPC   C1A57879   1.217  19.779   6.351
 4363POPC   D2A57880   0.910  19.624   6.673
 4363POPC   C3A57881   0.971  19.839   7.056
 4363POPC   C4A57882   1.306  20.055   7.254
 4363POPC   C1B57883   1.498  19.322   6.309
 4363POPC   C2B57884   1.460  19.298   6.788
 4363POPC   C3B57885   1.377  19.500   7.211
 4363POPC   C4B57886   1.130  19.582   7.569
 4364POPC   NC357887  23.448  33.967   5.366
 4364POPC   PO457888  23.870  33.867   5.349
 4364POPC   GL157889  23.695  33.766   5.794
 4364POPC   GL257890  23.406  33.948   5.899
 4364POPC   C1A57891  23.739  33.753   6.281
 4364POPC   D2A57892  23.957  33.729   6.700
 4364POPC   C3A57893  23.806  33.431   7.026
 4364POPC   C4A57894  23.706  33.507   7.468
 4364POPC   C1B57895  23.566  34.233   6.225
 4364POPC   C2B57896  23.644  34.154   6.678
 4364POPC   C3B57897  23.496  34.233   7.112
 4364POPC   C4B57898  23.294  34.440   7.472
 4365POPC   NC357899  28.697   3.745   5.462
 4365POPC   PO457900  28.203   3.195   5.460
 4365POPC   GL157901  28.383   3.465   5.800
 4365POPC   GL257902  28.315   3.787   5.825
 4365POPC   C1A57903  28.610   3.435   6.209
 4365POPC   D2A57904  28.803   3.556   6.638
 4365POPC   C3A57905  28.521   3.379   6.988
 4365POPC   C4A57906  28.179   3.151   7.239
 4365POPC   C1B57907  28.393   3.902   6.228
 4365POPC   C2B57908  28.295   3.733   6.649
 4365POPC   C3B57909  28.257   3.902   7.073
 4365POPC   C4B57910  28.025   3.906   7.485
 4366POPC   NC357911   8.313  23.174   5.528
 4366POPC   PO457912   7.749  22.926   5.308
 4366POPC   GL157913   7.924  22.884   5.780
 4366POPC   GL257914   8.290  22.822   5.883
 4366POPC   C1A57915   8.039  23.025   6.266
 4366POPC   D2A57916   8.230  22.920   6.704
 4366POPC   C3A57917   8.213  22.917   7.184
 4366POPC   C4A57918   7.956  22.847   7.578
 4366POPC   C1B57919   8.537  22.749   6.288
 4366POPC   C2B57920   8.728  22.862   6.720
 4366POPC   C3B57921   8.640  23.216   7.028
 4366POPC   C4B57922   8.548  23.200   7.502
 4367POPC   NC357923  19.884  40.428   5.182
 4367POPC   PO457924  19.618  40.883   5.567
 4367POPC   GL157925  19.879  40.647   5.822
 4367POPC   GL257926  19.649  40.606   6.068
 4367POPC   C1A57927  20.160  40.702   6.189
 4367POPC   D2A57928  20.005  40.856   6.602
 4367POPC   C3A57929  20.245  40.697   6.945
 4367POPC   C4A57930  20.161  40.790   7.389
 4367POPC   C1B57931  19.373  40.461   6.402
 4367POPC   C2B57932  19.447  40.346   6.829
 4367POPC   C3B57933  19.729  40.650   7.052
 4367POPC   C4B57934  19.624  41.123   7.117
 4368POPC   NC357935  43.637  22.692   5.663
 4368POPC   PO457936  44.282  22.744   5.548
 4368POPC   GL157937  44.059  22.908   5.911
 4368POPC   GL257938  43.810  23.196   5.807
 4368POPC   C1A57939  43.971  22.879   6.368
 4368POPC   D2A57940  44.065  22.588   6.718
 4368POPC   C3A57941  44.285  22.839   6.988
 4368POPC   C4A57942  44.103  23.170   7.218
 4368POPC   C1B57943  43.551  23.150   6.165
 4368POPC   C2B57944  43.475  23.006   6.541
 4368POPC   C3B57945  43.743  22.963   6.874
 4368POPC   C4B57946  43.668  22.925   7.274
 4369POPC   NC357947  13.386  34.294   5.710
 4369POPC   PO457948  13.763  34.679   5.167
 4369POPC   GL157949  13.838  34.531   5.625
 4369POPC   GL257950  14.139  34.501   5.715
 4369POPC   C1A57951  13.788  34.578   6.111
 4369POPC   D2A57952  13.464  34.337   6.406
 4369POPC   C3A57953  13.400  34.353   6.893
 4369POPC   C4A57954  13.319  34.578   7.289
 4369POPC   C1B57955  14.222  34.303   6.085
 4369POPC   C2B57956  13.954  34.197   6.415
 4369POPC   C3B57957  13.872  34.467   6.777
 4369POPC   C4B57958  13.848  34.566   7.225
 4370POPC   NC357959  26.852  21.741   5.392
 4370POPC   PO457960  26.381  22.027   5.448
 4370POPC   GL157961  26.541  21.796   5.827
 4370POPC   GL257962  26.842  21.577   5.876
 4370POPC   C1A57963  26.558  21.701   6.287
 4370POPC   D2A57964  26.652  21.792   6.712
 4370POPC   C3A57965  26.660  21.440   6.981
 4370POPC   C4A57966  26.787  21.315   7.400
 4370POPC   C1B57967  27.103  21.738   6.233
 4370POPC   C2B57968  27.156  21.733   6.715
 4370POPC   C3B57969  27.186  21.418   7.071
 4370POPC   C4B57970  27.355  21.217   7.454
 4371POPC   NC357971  19.680   7.331   5.533
 4371POPC   PO457972  19.875   7.958   5.281
 4371POPC   GL157973  19.990   7.673   5.782
 4371POPC   GL257974  19.904   7.336   5.976
 4371POPC   C1A57975  19.844   7.698   6.300
 4371POPC   D2A57976  19.586   7.447   6.642
 4371POPC   C3A57977  19.713   7.503   7.097
 4371POPC   C4A57978  19.729   7.441   7.608
 4371POPC   C1B57979  19.829   7.080   6.376
 4371POPC   C2B57980  19.840   7.034   6.861
 4371POPC   C3B57981  19.973   7.130   7.304
 4371POPC   C4B57982  20.121   7.102   7.740
 4372POPC   NC357983   2.697  40.170   5.530
 4372POPC   PO457984   3.035  39.652   5.607
 4372POPC   GL157985   2.921  39.901   5.893
 4372POPC   GL257986   3.168  40.141   5.791
 4372POPC   C1A57987   2.556  39.963   6.170
 4372POPC   D2A57988   2.366  39.733   6.527
 4372POPC   C3A57989   2.575  39.914   6.843
 4372POPC   C4A57990   2.548  39.977   7.254
 4372POPC   C1B57991   3.097  40.208   6.237
 4372POPC   C2B57992   2.823  40.271   6.559
 4372POPC   C3B57993   2.950  40.230   6.985
 4372POPC   C4B57994   2.916  40.377   7.422
 4373POPC   NC357995  26.433  33.401   5.505
 4373POPC   PO457996  26.974  33.753   5.442
 4373POPC   GL157997  26.903  33.750   5.891
 4373POPC   GL257998  26.650  33.490   5.968
 4373POPC   C1A57999  27.033  33.655   6.319
 4373POPC   D2A58000  26.738  33.482   6.594
 4373POPC   C3A58001  26.761  33.736   6.941
 4373POPC   C4A58002  26.869  33.991   7.253
 4373POPC   C1B58003  26.339  33.383   6.269
 4373POPC   C2B58004  26.254  33.235   6.674
 4373POPC   C3B58005  26.456  33.329   7.064
 4373POPC   C4B58006  26.592  33.585   7.426
 4374POPC   NC358007  10.260  13.129   5.423
 4374POPC   PO458008  10.372  12.498   5.335
 4374POPC   GL158009  10.450  12.725   5.747
 4374POPC   GL258010  10.114  12.816   5.817
 4374POPC   C1A58011  10.698  12.906   6.123
 4374POPC   D2A58012  10.786  13.033   6.585
 4374POPC   C3A58013  10.762  12.874   7.054
 4374POPC   C4A58014  10.574  12.948   7.498
 4374POPC   C1B58015  10.215  12.743   6.256
 4374POPC   C2B58016  10.336  12.770   6.687
 4374POPC   C3B58017  10.251  12.961   7.081
 4374POPC   C4B58018  10.103  12.749   7.464
 4375POPC   NC358019   8.704  44.681   5.486
 4375POPC   PO458020   9.356  44.452   5.529
 4375POPC   GL158021   9.049  44.506   5.799
 4375POPC   GL258022   9.040  44.862   5.842
 4375POPC   C1A58023   8.993  44.404   6.193
 4375POPC   D2A58024   9.184  44.579   6.540
 4375POPC   C3A58025   8.944  44.663   6.899
 4375POPC   C4A58026   9.086  44.640   7.302
 4375POPC   C1B58027   9.209   0.080   6.209
 4375POPC   C2B58028   9.060   0.093   6.639
 4375POPC   C3B58029   9.348  44.993   7.006
 4375POPC   C4B58030   9.352   0.080   7.476
 4376POPC   NC358031  11.100  44.134   5.571
 4376POPC   PO458032  11.546  43.686   5.415
 4376POPC   GL158033  11.365  43.746   5.809
 4376POPC   GL258034  11.561  43.507   5.935
 4376POPC   C1A58035  11.108  43.921   6.181
 4376POPC   D2A58036  11.026  43.875   6.598
 4376POPC   C3A58037  11.178  44.199   6.854
 4376POPC   C4A58038  11.358  44.264   7.248
 4376POPC   C1B58039  11.239  43.430   6.231
 4376POPC   C2B58040  11.335  43.460   6.655
 4376POPC   C3B58041  11.453  43.724   6.995
 4376POPC   C4B58042  11.299  43.502   7.334
 4377POPC   NC358043  28.644  16.772   5.374
 4377POPC   PO458044  28.126  16.494   5.383
 4377POPC   GL158045  28.341  16.566   5.816
 4377POPC   GL258046  28.684  16.570   5.867
 4377POPC   C1A58047  28.430  16.618   6.304
 4377POPC   D2A58048  28.518  16.618   6.782
 4377POPC   C3A58049  28.402  16.944   7.123
 4377POPC   C4A58050  28.263  17.299   7.436
 4377POPC   C1B58051  28.887  16.338   6.280
 4377POPC   C2B58052  28.909  16.277   6.769
 4377POPC   C3B58053  28.703  16.386   7.205
 4377POPC   C4B58054  28.554  16.449   7.635
 4378POPC   NC358055  33.972  20.406   5.480
 4378POPC   PO458056  33.407  20.743   5.460
 4378POPC   GL158057  33.680  20.668   5.810
 4378POPC   GL258058  34.054  20.772   5.834
 4378POPC   C1A58059  33.706  20.329   6.138
 4378POPC   D2A58060  33.890  20.213   6.554
 4378POPC   C3A58061  33.731  20.331   6.975
 4378POPC   C4A58062  33.921  20.376   7.386
 4378POPC   C1B58063  33.835  20.923   6.236
 4378POPC   C2B58064  33.771  21.011   6.675
 4378POPC   C3B58065  33.928  20.829   7.068
 4378POPC   C4B58066  34.152  21.094   7.355
 4379POPC   NC358067  34.795  39.892   5.141
 4379POPC   PO458068  34.222  39.833   5.399
 4379POPC   GL158069  34.560  39.876   5.739
 4379POPC   GL258070  34.544  40.211   5.923
 4379POPC   C1A58071  34.774  39.843   6.174
 4379POPC   D2A58072  34.741  40.169   6.474
 4379POPC   C3A58073  34.595  40.037   6.872
 4379POPC   C4A58074  34.786  40.123   7.254
 4379POPC   C1B58075  34.291  39.986   6.236
 4379POPC   C2B58076  34.084  40.043   6.625
 4379POPC   C3B58077  34.124  39.911   7.027
 4379POPC   C4B58078  34.310  39.989   7.386
 4380POPC   NC358079  22.406  22.964   5.067
 4380POPC   PO458080  22.296  23.301   5.655
 4380POPC   GL158081  22.100  23.104   5.971
 4380POPC   GL258082  21.852  22.879   5.870
 4380POPC   C1A58083  22.064  23.225   6.403
 4380POPC   D2A58084  22.213  23.265   6.809
 4380POPC   C3A58085  22.425  22.905   6.961
 4380POPC   C4A58086  22.249  22.802   7.329
 4380POPC   C1B58087  21.996  22.743   6.314
 4380POPC   C2B58088  21.845  22.901   6.731
 4380POPC   C3B58089  21.867  23.075   7.142
 4380POPC   C4B58090  21.777  22.850   7.536
 4381POPC   NC358091   8.989   3.263   5.074
 4381POPC   PO458092   9.254   2.652   5.291
 4381POPC   GL158093   9.126   2.560   5.715
 4381POPC   GL258094   8.836   2.764   5.842
 4381POPC   C1A58095   9.250   2.677   6.125
 4381POPC   D2A58096   9.037   2.703   6.474
 4381POPC   C3A58097   9.130   2.742   6.877
 4381POPC   C4A58098   8.978   2.601   7.259
 4381POPC   C1B58099   8.700   3.020   6.187
 4381POPC   C2B58100   8.765   3.069   6.640
 4381POPC   C3B58101   8.490   3.188   6.894
 4381POPC   C4B58102   8.578   3.257   7.264
 4382POPC   NC358103  15.935   3.796   5.450
 4382POPC   PO458104  15.499   3.239   5.386
 4382POPC   GL158105  15.740   3.305   5.805
 4382POPC   GL258106  16.046   3.511   5.866
 4382POPC   C1A58107  15.679   3.459   6.257
 4382POPC   D2A58108  15.792   3.787   6.538
 4382POPC   C3A58109  15.874   3.627   6.963
 4382POPC   C4A58110  15.811   3.864   7.326
 4382POPC   C1B58111  16.167   3.260   6.223
 4382POPC   C2B58112  16.368   3.177   6.610
 4382POPC   C3B58113  16.243   3.219   7.023
 4382POPC   C4B58114  16.235   3.531   7.327
 4383POPC   NC358115  32.272   3.912   5.470
 4383POPC   PO458116  32.575   4.521   5.315
 4383POPC   GL158117  32.399   4.384   5.678
 4383POPC   GL258118  32.660   4.151   5.768
 4383POPC   C1A58119  32.285   4.322   6.104
 4383POPC   D2A58120  32.533   4.344   6.465
 4383POPC   C3A58121  32.281   4.379   6.828
 4383POPC   C4A58122  32.097   4.281   7.216
 4383POPC   C1B58123  32.593   3.915   6.160
 4383POPC   C2B58124  32.578   3.819   6.593
 4383POPC   C3B58125  32.295   3.835   6.945
 4383POPC   C4B58126  32.477   3.924   7.329
 4384POPC   NC358127  14.311  15.645   5.434
 4384POPC   PO458128  14.586  16.224   5.230
 4384POPC   GL158129  14.577  16.027   5.679
 4384POPC   GL258130  14.226  15.955   5.835
 4384POPC   C1A58131  14.677  16.024   6.147
 4384POPC   D2A58132  14.668  15.677   6.478
 4384POPC   C3A58133  14.895  15.655   6.871
 4384POPC   C4A58134  14.744  15.712   7.324
 4384POPC   C1B58135  14.177  15.936   6.290
 4384POPC   C2B58136  14.438  16.114   6.611
 4384POPC   C3B58137  14.544  16.065   7.022
 4384POPC   C4B58138  14.222  15.841   7.262
 4385POPC   NC358139  15.314  28.722   5.414
 4385POPC   PO458140  14.997  28.085   5.422
 4385POPC   GL158141  15.190  28.309   5.802
 4385POPC   GL258142  15.404  28.626   5.906
 4385POPC   C1A58143  15.083  28.423   6.238
 4385POPC   D2A58144  14.818  28.506   6.577
 4385POPC   C3A58145  14.915  28.243   6.921
 4385POPC   C4A58146  14.958  28.196   7.347
 4385POPC   C1B58147  15.586  28.544   6.314
 4385POPC   C2B58148  15.377  28.391   6.701
 4385POPC   C3B58149  15.337  28.460   7.146
 4385POPC   C4B58150  15.328  28.456   7.611
 4386POPC   NC358151   9.203  14.290   5.453
 4386POPC   PO458152   8.538  14.175   5.409
 4386POPC   GL158153   8.686  14.385   5.818
 4386POPC   GL258154   8.952  14.646   5.760
 4386POPC   C1A58155   8.997  14.341   6.181
 4386POPC   D2A58156   9.152  14.453   6.599
 4386POPC   C3A58157   8.970  14.287   6.986
 4386POPC   C4A58158   9.142  14.307   7.381
 4386POPC   C1B58159   8.788  14.814   6.156
 4386POPC   C2B58160   8.955  14.918   6.562
 4386POPC   C3B58161   9.047  14.799   6.982
 4386POPC   C4B58162   8.855  14.744   7.392
 4387POPC   NC358163  24.094  12.764   5.384
 4387POPC   PO458164  23.503  13.180   5.527
 4387POPC   GL158165  23.724  12.931   5.840
 4387POPC   GL258166  23.909  12.569   5.813
 4387POPC   C1A58167  23.596  12.878   6.271
 4387POPC   D2A58168  23.390  12.860   6.676
 4387POPC   C3A58169  23.704  12.957   6.996
 4387POPC   C4A58170  23.726  12.777   7.455
 4387POPC   C1B58171  24.023  12.469   6.243
 4387POPC   C2B58172  23.832  12.583   6.635
 4387POPC   C3B58173  23.774  12.463   7.051
 4387POPC   C4B58174  24.098  12.440   7.298
 4388POPC   NC358175  12.318   1.297   5.285
 4388POPC   PO458176  11.700   1.132   5.104
 4388POPC   GL158177  11.902   1.091   5.528
 4388POPC   GL258178  12.011   1.427   5.681
 4388POPC   C1A58179  11.931   0.970   5.968
 4388POPC   D2A58180  11.822   0.976   6.392
 4388POPC   C3A58181  12.081   0.965   6.752
 4388POPC   C4A58182  11.877   1.009   7.166
 4388POPC   C1B58183  12.225   1.593   6.045
 4388POPC   C2B58184  12.318   1.381   6.446
 4388POPC   C3B58185  12.296   1.416   6.898
 4388POPC   C4B58186  12.110   1.449   7.302
 4389POPC   NC358187  39.670  16.627   5.648
 4389POPC   PO458188  40.176  16.990   5.310
 4389POPC   GL158189  40.127  16.855   5.741
 4389POPC   GL258190  39.953  17.070   5.904
 4389POPC   C1A58191  40.121  16.627   6.157
 4389POPC   D2A58192  40.345  16.614   6.545
 4389POPC   C3A58193  40.236  16.604   6.994
 4389POPC   C4A58194  40.107  16.766   7.426
 4389POPC   C1B58195  39.707  16.933   6.252
 4389POPC   C2B58196  39.853  16.752   6.628
 4389POPC   C3B58197  39.861  16.935   7.012
 4389POPC   C4B58198  39.599  16.981   7.349
 4390POPC   NC358199  15.062   3.315   5.532
 4390POPC   PO458200  15.573   3.802   5.732
 4390POPC   GL158201  15.183   3.720   5.931
 4390POPC   GL258202  15.259   3.401   5.968
 4390POPC   C1A58203  15.126   3.590   6.408
 4390POPC   D2A58204  15.414   3.481   6.769
 4390POPC   C3A58205  15.357   3.595   7.237
 4390POPC   C4A58206  15.467   3.743   7.695
 4390POPC   C1B58207  14.884   3.185   6.129
 4390POPC   C2B58208  14.821   3.201   6.564
 4390POPC   C3B58209  14.933   3.410   6.935
 4390POPC   C4B58210  14.851   3.267   7.369
 4391POPC   NC358211  41.404  31.162   5.247
 4391POPC   PO458212  41.915  31.607   5.494
 4391POPC   GL158213  41.700  31.730   5.864
 4391POPC   GL258214  41.541  31.420   5.984
 4391POPC   C1A58215  41.382  31.888   6.169
 4391POPC   D2A58216  41.246  31.800   6.609
 4391POPC   C3A58217  41.577  31.705   6.915
 4391POPC   C4A58218  41.634  31.471   7.299
 4391POPC   C1B58219  41.861  31.253   6.294
 4391POPC   C2B58220  41.914  31.239   6.757
 4391POPC   C3B58221  41.833  31.054   7.157
 4391POPC   C4B58222  41.926  31.114   7.620
 4392POPC   NC358223  26.525  29.319   5.536
 4392POPC   PO458224  25.970  28.874   5.445
 4392POPC   GL158225  26.183  29.030   5.799
 4392POPC   GL258226  25.966  29.312   5.821
 4392POPC   C1A58227  26.251  29.107   6.242
 4392POPC   D2A58228  26.050  28.867   6.570
 4392POPC   C3A58229  26.128  28.960   7.013
 4392POPC   C4A58230  26.211  29.232   7.329
 4392POPC   C1B58231  25.808  29.377   6.253
 4392POPC   C2B58232  25.982  29.347   6.707
 4392POPC   C3B58233  25.806  29.410   7.078
 4392POPC   C4B58234  25.782  29.432   7.520
 4393POPC   NC358235   0.018   3.588   5.438
 4393POPC   PO458236  44.902   3.095   5.678
 4393POPC   GL158237  44.739   3.420   5.885
 4393POPC   GL258238   0.007   3.563   5.981
 4393POPC   C1A58239  44.508   3.330   6.239
 4393POPC   D2A58240  44.668   3.414   6.646
 4393POPC   C3A58241  44.434   3.285   7.020
 4393POPC   C4A58242  44.668   3.392   7.407
 4393POPC   C1B58243   0.113   3.870   6.261
 4393POPC   C2B58244   0.111   3.930   6.708
 4393POPC   C3B58245  44.852   3.736   7.041
 4393POPC   C4B58246  44.869   3.828   7.492
 4394POPC   NC358247  41.381  28.735   5.526
 4394POPC   PO458248  41.814  29.300   5.385
 4394POPC   GL158249  41.713  29.470   5.757
 4394POPC   GL258250  41.403  29.299   5.796
 4394POPC   C1A58251  41.789  29.302   6.158
 4394POPC   D2A58252  41.690  29.056   6.491
 4394POPC   C3A58253  41.588  29.108   6.914
 4394POPC   C4A58254  41.676  29.373   7.230
 4394POPC   C1B58255  41.283  29.244   6.228
 4394POPC   C2B58256  41.260  29.439   6.649
 4394POPC   C3B58257  41.118  29.322   7.064
 4394POPC   C4B58258  41.093  29.004   7.367
 4395POPC   NC358259  37.673  31.600   5.279
 4395POPC   PO458260  38.104  31.077   5.236
 4395POPC   GL158261  37.943  31.305   5.638
 4395POPC   GL258262  37.698  31.609   5.763
 4395POPC   C1A58263  37.736  31.202   6.055
 4395POPC   D2A58264  37.458  31.399   6.326
 4395POPC   C3A58265  37.526  31.324   6.754
 4395POPC   C4A58266  37.437  31.581   7.083
 4395POPC   C1B58267  38.020  31.623   6.059
 4395POPC   C2B58268  37.959  31.423   6.456
 4395POPC   C3B58269  38.049  31.430   6.869
 4395POPC   C4B58270  37.927  31.664   7.249
 4396POPC   NC358271  22.309  22.066   5.668
 4396POPC   PO458272  22.349  22.514   5.117
 4396POPC   GL158273  22.289  22.557   5.729
 4396POPC   GL258274  22.020  22.395   5.942
 4396POPC   C1A58275  22.429  22.492   6.182
 4396POPC   D2A58276  22.384  22.093   6.396
 4396POPC   C3A58277  22.284  22.169   6.796
 4396POPC   C4A58278  22.418  22.383   7.101
 4396POPC   C1B58279  21.913  22.028   6.225
 4396POPC   C2B58280  21.845  21.896   6.690
 4396POPC   C3B58281  21.913  22.045   7.137
 4396POPC   C4B58282  21.895  21.922   7.594
 4397POPC   NC358283   8.568  17.666   5.596
 4397POPC   PO458284   9.123  17.326   5.383
 4397POPC   GL158285   8.988  17.286   5.803
 4397POPC   GL258286   8.973  17.609   5.896
 4397POPC   C1A58287   8.698  17.247   6.152
 4397POPC   D2A58288   8.714  17.452   6.552
 4397POPC   C3A58289   9.044  17.366   6.857
 4397POPC   C4A58290   8.914  17.310   7.300
 4397POPC   C1B58291   9.144  17.611   6.285
 4397POPC   C2B58292   9.120  17.879   6.643
 4397POPC   C3B58293   9.143  17.821   7.089
 4397POPC   C4B58294   9.404  17.499   7.250
 4398POPC   NC358295  38.721  35.771   5.097
 4398POPC   PO458296  38.365  36.456   5.320
 4398POPC   GL158297  38.330  36.124   5.680
 4398POPC   GL258298  38.010  36.083   5.870
 4398POPC   C1A58299  38.447  35.903   6.094
 4398POPC   D2A58300  38.580  36.102   6.487
 4398POPC   C3A58301  38.569  36.047   6.940
 4398POPC   C4A58302  38.808  36.315   7.234
 4398POPC   C1B58303  38.241  36.381   6.156
 4398POPC   C2B58304  38.312  36.552   6.585
 4398POPC   C3B58305  38.398  36.528   7.015
 4398POPC   C4B58306  38.349  36.457   7.456
 4399POPC   NC358307  19.774  30.433   5.068
 4399POPC   PO458308  19.897  29.839   5.376
 4399POPC   GL158309  20.008  29.847   5.823
 4399POPC   GL258310  19.964  30.203   5.854
 4399POPC   C1A58311  19.873  29.907   6.291
 4399POPC   D2A58312  19.721  29.961   6.746
 4399POPC   C3A58313  19.952  29.785   7.108
 4399POPC   C4A58314  19.747  29.767   7.496
 4399POPC   C1B58315  19.572  30.314   6.071
 4399POPC   C2B58316  19.528  30.390   6.504
 4399POPC   C3B58317  19.724  30.478   6.893
 4399POPC   C4B58318  19.610  30.226   7.230
 4400POPC   NC358319   9.083  33.436   5.397
 4400POPC   PO458320   8.897  32.840   5.552
 4400POPC   GL158321   9.245  33.002   5.825
 4400POPC   GL258322   9.295  33.374   5.843
 4400POPC   C1A58323   9.331  32.743   6.203
 4400POPC   D2A58324   9.102  32.644   6.620
 4400POPC   C3A58325   9.090  32.847   7.041
 4400POPC   C4A58326   8.816  33.105   7.323
 4400POPC   C1B58327   9.021  33.215   6.207
 4400POPC   C2B58328   9.043  33.190   6.650
 4400POPC   C3B58329   8.817  33.440   6.927
 4400POPC   C4B58330   8.434  33.432   7.191
 4401POPC   NC358331   9.832  19.194   5.376
 4401POPC   PO458332   9.393  19.572   5.452
 4401POPC   GL158333   9.591  19.318   5.849
 4401POPC   GL258334   9.919  19.113   5.869
 4401POPC   C1A58335   9.677  19.179   6.310
 4401POPC   D2A58336   9.597  19.135   6.762
 4401POPC   C3A58337   9.631  19.274   7.168
 4401POPC   C4A58338   9.823  19.108   7.557
 4401POPC   C1B58339  10.080  18.858   6.233
 4401POPC   C2B58340  10.107  18.968   6.663
 4401POPC   C3B58341   9.934  18.848   7.051
 4401POPC   C4B58342  10.202  18.808   7.373
 4402POPC   NC358343  21.315  31.644   5.451
 4402POPC   PO458344  21.341  31.036   5.283
 4402POPC   GL158345  21.541  31.231   5.691
 4402POPC   GL258346  21.608  31.579   5.837
 4402POPC   C1A58347  21.473  31.220   6.173
 4402POPC   D2A58348  21.392  31.337   6.610
 4402POPC   C3A58349  21.599  31.087   6.900
 4402POPC   C4A58350  21.434  30.993   7.328
 4402POPC   C1B58351  21.737  31.695   6.205
 4402POPC   C2B58352  21.620  31.806   6.589
 4402POPC   C3B58353  21.709  31.611   6.950
 4402POPC   C4B58354  21.454  31.507   7.251
 4403POPC   NC358355  26.425  13.600   4.903
 4403POPC   PO458356  26.779  13.494   5.416
 4403POPC   GL158357  26.836  13.349   5.827
 4403POPC   GL258358  26.510  13.487   5.874
 4403POPC   C1A58359  26.983  13.196   6.263
 4403POPC   D2A58360  27.157  13.321   6.702
 4403POPC   C3A58361  27.078  13.750   6.953
 4403POPC   C4A58362  27.235  14.178   7.121
 4403POPC   C1B58363  26.578  13.496   6.271
 4403POPC   C2B58364  26.498  13.295   6.634
 4403POPC   C3B58365  26.660  13.427   6.999
 4403POPC   C4B58366  26.395  13.571   7.328
 4404POPC   NC358367  29.453   6.871   5.279
 4404POPC   PO458368  28.952   7.121   5.566
 4404POPC   GL158369  29.218   6.904   5.867
 4404POPC   GL258370  29.430   6.606   5.777
 4404POPC   C1A58371  29.073   6.617   6.190
 4404POPC   D2A58372  29.116   6.243   6.442
 4404POPC   C3A58373  29.067   6.232   6.879
 4404POPC   C4A58374  29.099   6.284   7.304
 4404POPC   C1B58375  29.582   6.700   6.214
 4404POPC   C2B58376  29.343   6.690   6.607
 4404POPC   C3B58377  29.352   6.635   7.024
 4404POPC   C4B58378  29.476   6.938   7.280
 4405POPC   NC358379  39.573   9.998   5.415
 4405POPC   PO458380  40.167   9.692   5.366
 4405POPC   GL158381  39.869   9.672   5.725
 4405POPC   GL258382  39.907   9.970   5.793
 4405POPC   C1A58383  39.854   9.475   6.126
 4405POPC   D2A58384  39.806   9.611   6.535
 4405POPC   C3A58385  39.809   9.489   6.951
 4405POPC   C4A58386  39.975   9.628   7.327
 4405POPC   C1B58387  39.929  10.018   6.230
 4405POPC   C2B58388  39.664  10.080   6.600
 4405POPC   C3B58389  39.788  10.031   7.037
 4405POPC   C4B58390  39.714  10.086   7.470
 4406POPC   NC358391  10.292  18.878   5.599
 4406POPC   PO458392  10.892  19.178   5.411
 4406POPC   GL158393  10.826  19.283   5.840
 4406POPC   GL258394  10.470  19.167   5.968
 4406POPC   C1A58395  10.892  19.068   6.213
 4406POPC   D2A58396  10.604  18.886   6.504
 4406POPC   C3A58397  10.765  19.000   6.896
 4406POPC   C4A58398  10.606  19.062   7.252
 4406POPC   C1B58399  10.161  19.373   6.247
 4406POPC   C2B58400   9.981  19.468   6.662
 4406POPC   C3B58401  10.135  19.317   7.088
 4406POPC   C4B58402  10.270  19.307   7.535
 4407POPC   NC358403  37.469   8.525   5.511
 4407POPC   PO458404  38.074   8.722   5.227
 4407POPC   GL158405  37.865   8.891   5.664
 4407POPC   GL258406  37.584   8.969   5.751
 4407POPC   C1A58407  37.923   8.962   6.137
 4407POPC   D2A58408  37.881   9.279   6.461
 4407POPC   C3A58409  37.938   9.121   6.857
 4407POPC   C4A58410  37.827   9.015   7.259
 4407POPC   C1B58411  37.420   8.860   6.164
 4407POPC   C2B58412  37.565   8.860   6.594
 4407POPC   C3B58413  37.401   9.046   6.969
 4407POPC   C4B58414  37.343   8.895   7.388
 4408POPC   NC358415  29.634  31.233   5.136
 4408POPC   PO458416  30.134  31.585   5.402
 4408POPC   GL158417  30.105  31.439   5.820
 4408POPC   GL258418  29.851  31.703   5.890
 4408POPC   C1A58419  30.142  31.543   6.268
 4408POPC   D2A58420  29.875  31.646   6.608
 4408POPC   C3A58421  30.139  31.609   6.945
 4408POPC   C4A58422  30.233  31.351   7.291
 4408POPC   C1B58423  29.713  32.008   6.221
 4408POPC   C2B58424  29.536  32.049   6.647
 4408POPC   C3B58425  29.746  31.924   7.044
 4408POPC   C4B58426  29.899  31.695   7.405
 4409POPC   NC358427   5.301  38.704   5.414
 4409POPC   PO458428   4.781  38.257   5.266
 4409POPC   GL158429   4.839  38.331   5.731
 4409POPC   GL258430   5.218  38.336   5.787
 4409POPC   C1A58431   4.878  38.296   6.211
 4409POPC   D2A58432   5.043  38.548   6.571
 4409POPC   C3A58433   5.081  38.368   7.003
 4409POPC   C4A58434   4.751  38.421   7.306
 4409POPC   C1B58435   5.276  38.665   6.109
 4409POPC   C2B58436   5.461  38.874   6.477
 4409POPC   C3B58437   5.494  38.962   6.927
 4409POPC   C4B58438   5.339  38.815   7.339
 4410POPC   NC358439  42.488  24.901   5.060
 4410POPC   PO458440  42.085  24.475   5.430
 4410POPC   GL158441  42.318  24.344   5.807
 4410POPC   GL258442  42.645  24.492   5.868
 4410POPC   C1A58443  42.404  24.203   6.247
 4410POPC   D2A58444  42.500  24.300   6.677
 4410POPC   C3A58445  42.451  24.742   6.830
 4410POPC   C4A58446  42.202  24.851   7.215
 4410POPC   C1B58447  42.687  24.664   6.308
 4410POPC   C2B58448  42.939  24.610   6.693
 4410POPC   C3B58449  42.805  24.428   7.070
 4410POPC   C4B58450  42.418  24.369   7.197
 4411POPC   NC358451  15.294  23.424   5.342
 4411POPC   PO458452  14.778  23.927   5.224
 4411POPC   GL158453  14.931  23.652   5.601
 4411POPC   GL258454  14.676  23.520   5.795
 4411POPC   C1A58455  15.112  23.651   6.067
 4411POPC   D2A58456  15.042  23.765   6.544
 4411POPC   C3A58457  15.248  23.530   6.919
 4411POPC   C4A58458  15.560  23.578   7.272
 4411POPC   C1B58459  14.597  23.627   6.227
 4411POPC   C2B58460  14.629  23.496   6.653
 4411POPC   C3B58461  14.796  23.722   7.024
 4411POPC   C4B58462  14.996  23.828   7.446
 4412POPC   NC358463  27.339  31.158   5.504
 4412POPC   PO458464  27.202  31.735   5.392
 4412POPC   GL158465  27.588  31.706   5.658
 4412POPC   GL258466  27.758  31.371   5.721
 4412POPC   C1A58467  27.579  31.697   6.101
 4412POPC   D2A58468  27.694  31.464   6.477
 4412POPC   C3A58469  27.526  31.636   6.860
 4412POPC   C4A58470  27.652  31.481   7.261
 4412POPC   C1B58471  27.908  31.140   6.089
 4412POPC   C2B58472  27.720  30.912   6.432
 4412POPC   C3B58473  27.671  31.061   6.868
 4412POPC   C4B58474  27.894  30.970   7.226
 4413POPC   NC358475   8.662  43.719   5.218
 4413POPC   PO458476   9.176  43.536   5.573
 4413POPC   GL158477   9.049  43.805   5.891
 4413POPC   GL258478   9.317  44.079   5.911
 4413POPC   C1A58479   8.802  43.693   6.307
 4413POPC   D2A58480   8.695  43.570   6.752
 4413POPC   C3A58481   8.893  43.818   7.080
 4413POPC   C4A58482   8.757  44.210   7.177
 4413POPC   C1B58483   9.222  43.971   6.326
 4413POPC   C2B58484   8.975  44.103   6.655
 4413POPC   C3B58485   9.226  44.250   6.976
 4413POPC   C4B58486   9.207  44.155   7.399
 4414POPC   NC358487   2.371  34.753   5.437
 4414POPC   PO458488   3.019  34.651   5.413
 4414POPC   GL158489   2.863  34.614   5.804
 4414POPC   GL258490   2.660  34.872   5.899
 4414POPC   C1A58491   2.973  34.575   6.231
 4414POPC   D2A58492   2.773  34.516   6.621
 4414POPC   C3A58493   2.921  34.338   7.007
 4414POPC   C4A58494   3.038  34.667   7.287
 4414POPC   C1B58495   2.423  34.787   6.293
 4414POPC   C2B58496   2.246  34.544   6.612
 4414POPC   C3B58497   2.415  34.451   6.985
 4414POPC   C4B58498   2.541  34.786   7.206
 4415POPC   NC358499  26.441   8.078   5.589
 4415POPC   PO458500  26.456   7.397   5.405
 4415POPC   GL158501  26.237   7.271   5.818
 4415POPC   GL258502  25.899   7.425   5.897
 4415POPC   C1A58503  26.264   7.358   6.271
 4415POPC   D2A58504  26.279   7.764   6.504
 4415POPC   C3A58505  26.292   7.794   6.959
 4415POPC   C4A58506  26.420   7.609   7.343
 4415POPC   C1B58507  25.776   7.426   6.350
 4415POPC   C2B58508  26.033   7.374   6.753
 4415POPC   C3B58509  25.943   7.473   7.194
 4415POPC   C4B58510  25.742   7.419   7.602
 4416POPC   NC358511  12.456  35.575   5.278
 4416POPC   PO458512  11.795  35.287   5.494
 4416POPC   GL158513  12.015  35.538   5.796
 4416POPC   GL258514  12.379  35.579   5.799
 4416POPC   C1A58515  11.884  35.500   6.185
 4416POPC   D2A58516  11.844  35.268   6.536
 4416POPC   C3A58517  12.015  35.474   6.898
 4416POPC   C4A58518  11.923  35.406   7.316
 4416POPC   C1B58519  12.608  35.635   6.201
 4416POPC   C2B58520  12.439  35.677   6.657
 4416POPC   C3B58521  12.485  35.827   7.103
 4416POPC   C4B58522  12.390  35.584   7.471
 4417POPC   NC358523  40.981  34.186   5.391
 4417POPC   PO458524  40.397  33.777   5.509
 4417POPC   GL158525  40.687  33.863   5.828
 4417POPC   GL258526  41.043  33.878   5.807
 4417POPC   C1A58527  40.690  33.833   6.252
 4417POPC   D2A58528  40.421  33.825   6.596
 4417POPC   C3A58529  40.635  33.750   6.968
 4417POPC   C4A58530  40.718  34.059   7.242
 4417POPC   C1B58531  41.204  33.699   6.206
 4417POPC   C2B58532  41.039  33.678   6.628
 4417POPC   C3B58533  41.129  33.883   7.007
 4417POPC   C4B58534  41.307  33.905   7.401
 4418POPC   NC358535  41.012  35.100   5.612
 4418POPC   PO458536  40.654  34.578   5.417
 4418POPC   GL158537  40.746  34.372   5.806
 4418POPC   GL258538  41.085  34.484   5.826
 4418POPC   C1A58539  40.570  34.370   6.221
 4418POPC   D2A58540  40.677  34.624   6.590
 4418POPC   C3A58541  40.519  34.501   6.973
 4418POPC   C4A58542  40.656  34.521   7.382
 4418POPC   C1B58543  41.041  34.208   6.206
 4418POPC   C2B58544  40.855  34.151   6.626
 4418POPC   C3B58545  41.012  34.392   6.941
 4418POPC   C4B58546  41.146  34.374   7.340
 4419POPC   NC358547  22.473  31.213   5.571
 4419POPC   PO458548  22.124  31.603   5.072
 4419POPC   GL158549  22.010  31.470   5.535
 4419POPC   GL258550  22.232  31.610   5.773
 4419POPC   C1A58551  21.960  31.243   5.997
 4419POPC   D2A58552  21.896  31.273   6.476
 4419POPC   C3A58553  22.101  31.293   6.890
 4419POPC   C4A58554  21.895  31.241   7.271
 4419POPC   C1B58555  22.404  31.424   6.177
 4419POPC   C2B58556  22.591  31.596   6.527
 4419POPC   C3B58557  22.563  31.516   6.957
 4419POPC   C4B58558  22.362  31.484   7.320
 4420POPC   NC358559  44.629  22.459   5.456
 4420POPC   PO458560  44.554  21.789   5.425
 4420POPC   GL158561  44.525  22.046   5.778
 4420POPC   GL258562  44.878  22.156   5.811
 4420POPC   C1A58563  44.259  21.978   6.137
 4420POPC   D2A58564  44.348  21.998   6.566
 4420POPC   C3A58565  44.305  21.890   6.997
 4420POPC   C4A58566  44.370  22.158   7.331
 4420POPC   C1B58567  44.771  22.135   6.266
 4420POPC   C2B58568  44.856  21.980   6.712
 4420POPC   C3B58569  44.884  22.073   7.174
 4420POPC   C4B58570   0.116  21.898   7.539
 4421POPC   NC358571  41.128  38.644   5.438
 4421POPC   PO458572  40.733  38.142   5.155
 4421POPC   GL158573  40.780  38.291   5.649
 4421POPC   GL258574  40.587  38.550   5.780
 4421POPC   C1A58575  40.920  38.366   6.120
 4421POPC   D2A58576  40.894  38.653   6.506
 4421POPC   C3A58577  40.959  38.518   6.956
 4421POPC   C4A58578  40.929  38.332   7.396
 4421POPC   C1B58579  40.499  38.784   6.166
 4421POPC   C2B58580  40.376  38.676   6.595
 4421POPC   C3B58581  40.481  38.857   6.961
 4421POPC   C4B58582  40.688  38.767   7.328
 4422POPC   NC358583  18.678  10.652   5.551
 4422POPC   PO458584  18.969  10.017   5.558
 4422POPC   GL158585  18.970  10.352   5.846
 4422POPC   GL258586  19.239  10.606   5.848
 4422POPC   C1A58587  18.885  10.522   6.245
 4422POPC   D2A58588  18.661  10.417   6.624
 4422POPC   C3A58589  18.909  10.513   6.974
 4422POPC   C4A58590  18.917  10.802   7.315
 4422POPC   C1B58591  19.375  10.291   6.158
 4422POPC   C2B58592  19.551  10.249   6.592
 4422POPC   C3B58593  19.343  10.181   6.989
 4422POPC   C4B58594  19.306  10.497   7.294
 4423POPC   NC358595  15.776   5.536   5.415
 4423POPC   PO458596  15.873   4.875   5.478
 4423POPC   GL158597  16.122   4.983   5.845
 4423POPC   GL258598  15.987   5.316   5.841
 4423POPC   C1A58599  16.109   4.896   6.320
 4423POPC   D2A58600  15.902   4.910   6.724
 4423POPC   C3A58601  16.014   4.940   7.191
 4423POPC   C4A58602  15.828   4.687   7.569
 4423POPC   C1B58603  16.274   5.360   6.191
 4423POPC   C2B58604  16.219   5.341   6.636
 4423POPC   C3B58605  15.907   5.376   6.956
 4423POPC   C4B58606  15.801   5.638   7.275
 4424POPC   NC358607  40.580  14.910   5.372
 4424POPC   PO458608  40.513  15.564   5.396
 4424POPC   GL158609  40.572  15.292   5.768
 4424POPC   GL258610  40.859  15.067   5.781
 4424POPC   C1A58611  40.498  15.238   6.225
 4424POPC   D2A58612  40.373  15.361   6.659
 4424POPC   C3A58613  40.729  15.333   6.976
 4424POPC   C4A58614  41.017  15.361   7.365
 4424POPC   C1B58615  40.908  14.917   6.218
 4424POPC   C2B58616  40.691  14.896   6.632
 4424POPC   C3B58617  40.739  14.682   7.032
 4424POPC   C4B58618  41.028  14.855   7.340
 4425POPC   NC358619  14.646  26.944   5.191
 4425POPC   PO458620  14.149  26.835   5.667
 4425POPC   GL158621  14.255  26.786   6.054
 4425POPC   GL258622  14.560  26.589   6.010
 4425POPC   C1A58623  14.060  26.944   6.422
 4425POPC   D2A58624  13.958  27.174   6.777
 4425POPC   C3A58625  14.345  27.062   6.970
 4425POPC   C4A58626  14.745  27.095   7.143
 4425POPC   C1B58627  14.813  26.513   6.405
 4425POPC   C2B58628  14.733  26.608   6.866
 4425POPC   C3B58629  14.446  26.641   7.231
 4425POPC   C4B58630  14.487  26.580   7.643
 4426POPC   NC358631  21.540  24.162   5.375
 4426POPC   PO458632  21.212  24.794   5.445
 4426POPC   GL158633  21.437  24.540   5.725
 4426POPC   GL258634  21.160  24.506   5.944
 4426POPC   C1A58635  21.658  24.536   6.110
 4426POPC   D2A58636  21.420  24.551   6.488
 4426POPC   C3A58637  21.559  24.405   6.905
 4426POPC   C4A58638  21.395  24.553   7.304
 4426POPC   C1B58639  20.945  24.269   6.270
 4426POPC   C2B58640  21.151  24.125   6.639
 4426POPC   C3B58641  21.165  24.076   7.081
 4426POPC   C4B58642  21.150  24.121   7.544
 4427POPC   NC358643  12.565  12.608   5.395
 4427POPC   PO458644  12.531  13.282   5.393
 4427POPC   GL158645  12.643  12.990   5.748
 4427POPC   GL258646  12.920  12.707   5.742
 4427POPC   C1A58647  12.707  13.051   6.183
 4427POPC   D2A58648  12.476  12.911   6.506
 4427POPC   C3A58649  12.666  12.924   6.874
 4427POPC   C4A58650  12.888  12.939   7.224
 4427POPC   C1B58651  13.079  12.681   6.175
 4427POPC   C2B58652  13.083  12.852   6.594
 4427POPC   C3B58653  13.294  12.748   6.985
 4427POPC   C4B58654  13.267  12.720   7.461
 4428POPC   NC358655   2.492  10.445   5.526
 4428POPC   PO458656   3.135  10.467   5.514
 4428POPC   GL158657   2.925  10.391   5.915
 4428POPC   GL258658   2.660  10.106   5.896
 4428POPC   C1A58659   2.996  10.618   6.329
 4428POPC   D2A58660   3.199  10.740   6.723
 4428POPC   C3A58661   2.910  10.657   7.071
 4428POPC   C4A58662   2.631  10.952   7.272
 4428POPC   C1B58663   2.548  10.354   6.282
 4428POPC   C2B58664   2.552  10.496   6.728
 4428POPC   C3B58665   2.295  10.493   7.107
 4428POPC   C4B58666   2.173  10.775   7.418
 4429POPC   NC358667  29.951  42.593   5.404
 4429POPC   PO458668  30.362  42.105   5.469
 4429POPC   GL158669  30.213  42.380   5.800
 4429POPC   GL258670  29.815  42.344   5.831
 4429POPC   C1A58671  30.129  42.382   6.224
 4429POPC   D2A58672  29.867  42.358   6.571
 4429POPC   C3A58673  30.009  42.327   6.990
 4429POPC   C4A58674  29.859  42.363   7.416
 4429POPC   C1B58675  29.654  42.633   6.167
 4429POPC   C2B58676  29.712  42.833   6.548
 4429POPC   C3B58677  29.607  42.693   6.935
 4429POPC   C4B58678  29.517  42.717   7.338
 4430POPC   NC358679  24.343  43.460   5.420
 4430POPC   PO458680  24.687  42.847   5.395
 4430POPC   GL158681  24.608  43.051   5.832
 4430POPC   GL258682  24.291  43.196   5.849
 4430POPC   C1A58683  24.451  43.085   6.330
 4430POPC   D2A58684  24.280  43.323   6.714
 4430POPC   C3A58685  24.288  43.175   7.165
 4430POPC   C4A58686  24.517  42.841   7.417
 4430POPC   C1B58687  24.161  42.779   6.056
 4430POPC   C2B58688  24.270  42.597   6.483
 4430POPC   C3B58689  24.309  42.712   6.925
 4430POPC   C4B58690  24.026  42.772   7.265
 4431POPC   NC358691   4.230  19.672   5.405
 4431POPC   PO458692   4.692  20.181   5.462
 4431POPC   GL158693   4.531  19.896   5.746
 4431POPC   GL258694   4.212  20.048   5.848
 4431POPC   C1A58695   4.385  19.661   6.112
 4431POPC   D2A58696   4.163  19.819   6.493
 4431POPC   C3A58697   4.297  19.697   6.892
 4431POPC   C4A58698   4.028  19.761   7.237
 4431POPC   C1B58699   4.444  20.187   6.202
 4431POPC   C2B58700   4.519  20.174   6.647
 4431POPC   C3B58701   4.403  20.168   7.072
 4431POPC   C4B58702   4.356  20.257   7.499
 4432POPC   NC358703  10.346  36.641   5.646
 4432POPC   PO458704  10.562  37.288   5.562
 4432POPC   GL158705  10.608  36.999   5.909
 4432POPC   GL258706  10.858  36.736   5.901
 4432POPC   C1A58707  10.326  36.879   6.258
 4432POPC   D2A58708  10.405  36.696   6.641
 4432POPC   C3A58709  10.381  36.877   7.027
 4432POPC   C4A58710  10.231  36.608   7.340
 4432POPC   C1B58711  10.829  36.770   6.329
 4432POPC   C2B58712  10.861  36.530   6.696
 4432POPC   C3B58713  10.840  36.657   7.109
 4432POPC   C4B58714  10.966  37.058   7.188
 4433POPC   NC358715   7.816  31.871   5.353
 4433POPC   PO458716   7.352  31.329   5.391
 4433POPC   GL158717   7.275  31.456   5.772
 4433POPC   GL258718   7.129  31.167   5.872
 4433POPC   C1A58719   7.448  31.532   6.168
 4433POPC   D2A58720   7.582  31.320   6.555
 4433POPC   C3A58721   7.520  31.535   6.944
 4433POPC   C4A58722   7.230  31.810   7.084
 4433POPC   C1B58723   6.982  31.302   6.241
 4433POPC   C2B58724   7.119  31.548   6.569
 4433POPC   C3B58725   7.136  31.229   6.825
 4433POPC   C4B58726   7.131  31.254   7.220
 4434POPC   NC358727  22.327  15.472   5.554
 4434POPC   PO458728  22.018  14.953   5.348
 4434POPC   GL158729  22.077  15.028   5.780
 4434POPC   GL258730  22.431  14.957   5.817
 4434POPC   C1A58731  22.012  15.115   6.241
 4434POPC   D2A58732  22.194  14.935   6.645
 4434POPC   C3A58733  22.036  15.178   6.996
 4434POPC   C4A58734  21.686  15.493   6.967
 4434POPC   C1B58735  22.525  15.100   6.265
 4434POPC   C2B58736  22.462  15.373   6.645
 4434POPC   C3B58737  22.527  15.263   7.074
 4434POPC   C4B58738  22.409  14.816   7.101
 4435POPC   NC358739  37.002   6.864   5.384
 4435POPC   PO458740  36.498   6.317   5.380
 4435POPC   GL158741  36.715   6.573   5.706
 4435POPC   GL258742  36.617   6.940   5.708
 4435POPC   C1A58743  37.050   6.638   6.019
 4435POPC   D2A58744  37.047   6.606   6.464
 4435POPC   C3A58745  36.938   6.718   6.908
 4435POPC   C4A58746  36.750   6.508   7.272
 4435POPC   C1B58747  36.804   7.081   6.059
 4435POPC   C2B58748  36.859   7.112   6.487
 4435POPC   C3B58749  36.579   7.226   6.825
 4435POPC   C4B58750  36.596   7.045   7.209
 4436POPC   NC358751   0.230   2.930   5.406
 4436POPC   PO458752   0.402   2.333   5.601
 4436POPC   GL158753   0.400   2.698   5.841
 4436POPC   GL258754   0.629   2.976   5.718
 4436POPC   C1A58755   0.304   2.740   6.285
 4436POPC   D2A58756   0.507   3.026   6.609
 4436POPC   C3A58757   0.371   2.880   7.035
 4436POPC   C4A58758   0.103   2.565   7.250
 4436POPC   C1B58759   0.756   2.886   6.145
 4436POPC   C2B58760   0.740   2.577   6.485
 4436POPC   C3B58761   0.690   2.492   6.910
 4436POPC   C4B58762   0.873   2.683   7.270
 4437POPC   NC358763  12.600  42.517   5.404
 4437POPC   PO458764  13.145  42.120   5.461
 4437POPC   GL158765  12.931  42.315   5.771
 4437POPC   GL258766  13.170  42.572   5.748
 4437POPC   C1A58767  13.010  42.159   6.166
 4437POPC   D2A58768  13.174  42.301   6.561
 4437POPC   C3A58769  12.909  42.290   6.876
 4437POPC   C4A58770  12.712  42.236   7.224
 4437POPC   C1B58771  13.063  42.651   6.184
 4437POPC   C2B58772  12.913  42.745   6.614
 4437POPC   C3B58773  13.073  42.746   7.040
 4437POPC   C4B58774  13.183  42.414   7.329
 4438POPC   NC358775  42.263   9.226   5.442
 4438POPC   PO458776  42.465   8.591   5.359
 4438POPC   GL158777  42.268   8.688   5.777
 4438POPC   GL258778  42.303   9.046   5.911
 4438POPC   C1A58779  42.351   8.694   6.251
 4438POPC   D2A58780  42.182   8.840   6.640
 4438POPC   C3A58781  42.357   8.842   7.049
 4438POPC   C4A58782  42.402   8.886   7.483
 4438POPC   C1B58783  42.306   9.228   6.339
 4438POPC   C2B58784  42.361   9.307   6.802
 4438POPC   C3B58785  42.273   9.322   7.256
 4438POPC   C4B58786  42.025   9.331   7.668
 4439POPC   NC358787  34.810  38.318   5.295
 4439POPC   PO458788  34.272  38.809   5.403
 4439POPC   GL158789  34.371  38.614   5.782
 4439POPC   GL258790  34.546  38.302   5.761
 4439POPC   C1A58791  34.346  38.493   6.212
 4439POPC   D2A58792  34.504  38.648   6.610
 4439POPC   C3A58793  34.310  38.385   6.928
 4439POPC   C4A58794  34.094  38.063   7.195
 4439POPC   C1B58795  34.842  38.478   6.065
 4439POPC   C2B58796  35.005  38.409   6.496
 4439POPC   C3B58797  34.849  38.369   6.897
 4439POPC   C4B58798  34.975  38.376   7.319
 4440POPC   NC358799   2.180  42.173   5.514
 4440POPC   PO458800   1.640  42.310   5.182
 4440POPC   GL158801   1.633  42.442   5.708
 4440POPC   GL258802   1.984  42.524   5.830
 4440POPC   C1A58803   1.746  42.265   6.188
 4440POPC   D2A58804   1.906  42.366   6.622
 4440POPC   C3A58805   1.695  42.253   7.012
 4440POPC   C4A58806   1.825  42.400   7.417
 4440POPC   C1B58807   2.207  42.588   6.242
 4440POPC   C2B58808   2.352  42.649   6.689
 4440POPC   C3B58809   2.197  42.452   7.084
 4440POPC   C4B58810   2.312  42.296   7.510
 4441POPC   NC358811  17.011  15.517   5.352
 4441POPC   PO458812  16.592  14.959   5.509
 4441POPC   GL158813  16.774  15.165   5.840
 4441POPC   GL258814  16.676  15.499   5.772
 4441POPC   C1A58815  16.599  15.225   6.255
 4441POPC   D2A58816  16.320  15.181   6.627
 4441POPC   C3A58817  16.523  15.158   7.032
 4441POPC   C4A58818  16.976  15.076   7.115
 4441POPC   C1B58819  16.359  15.654   6.089
 4441POPC   C2B58820  16.295  15.688   6.543
 4441POPC   C3B58821  16.548  15.659   6.925
 4441POPC   C4B58822  16.585  15.565   7.375
 4442POPC   NC358823  20.859   0.802   5.431
 4442POPC   PO458824  20.294   1.173   5.498
 4442POPC   GL158825  20.520   1.332   5.851
 4442POPC   GL258826  20.861   1.305   5.664
 4442POPC   C1A58827  20.447   1.300   6.310
 4442POPC   D2A58828  20.215   0.919   6.498
 4442POPC   C3A58829  20.342   0.803   6.914
 4442POPC   C4A58830  20.632   1.047   7.147
 4442POPC   C1B58831  20.948   1.351   6.106
 4442POPC   C2B58832  20.951   1.338   6.560
 4442POPC   C3B58833  20.910   1.455   7.000
 4442POPC   C4B58834  21.030   1.343   7.416
 4443POPC   NC358835   9.067  30.475   4.948
 4443POPC   PO458836   8.674  30.014   5.263
 4443POPC   GL158837   8.593  29.953   5.735
 4443POPC   GL258838   8.954  29.905   5.824
 4443POPC   C1A58839   8.649  29.911   6.230
 4443POPC   D2A58840   8.631  29.603   6.588
 4443POPC   C3A58841   8.843  29.664   7.010
 4443POPC   C4A58842   8.781  30.122   7.114
 4443POPC   C1B58843   9.139  30.054   6.233
 4443POPC   C2B58844   9.015  29.974   6.657
 4443POPC   C3B58845   9.263  29.964   7.068
 4443POPC   C4B58846   9.483  29.849   7.474
 4444POPC   NC358847  40.810   5.836   5.502
 4444POPC   PO458848  40.412   6.382   5.475
 4444POPC   GL158849  40.573   6.089   5.867
 4444POPC   GL258850  40.973   6.136   5.901
 4444POPC   C1A58851  40.494   5.723   6.183
 4444POPC   D2A58852  40.274   5.718   6.613
 4444POPC   C3A58853  40.535   5.790   7.003
 4444POPC   C4A58854  40.963   5.632   7.165
 4444POPC   C1B58855  41.006   5.781   6.181
 4444POPC   C2B58856  40.826   5.777   6.576
 4444POPC   C3B58857  40.959   6.091   6.836
 4444POPC   C4B58858  40.943   6.132   7.247
 4445POPC   NC358859  41.183   0.464   5.437
 4445POPC   PO458860  41.807   0.187   5.458
 4445POPC   GL158861  41.672   0.181   5.855
 4445POPC   GL258862  41.311   0.188   5.898
 4445POPC   C1A58863  41.629   0.524   6.141
 4445POPC   D2A58864  41.710   0.368   6.556
 4445POPC   C3A58865  41.533   0.603   6.880
 4445POPC   C4A58866  41.469   0.664   7.326
 4445POPC   C1B58867  41.216   0.339   6.345
 4445POPC   C2B58868  41.246   0.140   6.744
 4445POPC   C3B58869  41.288   0.225   7.150
 4445POPC   C4B58870  41.059   0.412   7.498
 4446POPC   NC358871  35.873  18.016   5.371
 4446POPC   PO458872  36.432  18.460   5.362
 4446POPC   GL158873  36.186  18.319   5.706
 4446POPC   GL258874  36.113  18.003   5.807
 4446POPC   C1A58875  36.391  18.282   6.112
 4446POPC   D2A58876  36.448  18.093   6.502
 4446POPC   C3A58877  36.459  18.364   6.847
 4446POPC   C4A58878  36.295  18.283   7.245
 4446POPC   C1B58879  35.946  18.088   6.227
 4446POPC   C2B58880  36.054  18.429   6.528
 4446POPC   C3B58881  35.915  18.433   6.946
 4446POPC   C4B58882  35.765  18.100   7.245
 4447POPC   NC358883  39.154  32.718   5.438
 4447POPC   PO458884  39.172  32.123   5.305
 4447POPC   GL158885  39.290  32.084   5.748
 4447POPC   GL258886  39.170  32.405   5.838
 4447POPC   C1A58887  39.441  32.092   6.209
 4447POPC   D2A58888  39.588  32.191   6.659
 4447POPC   C3A58889  39.591  31.884   7.007
 4447POPC   C4A58890  39.374  31.975   7.395
 4447POPC   C1B58891  39.162  32.532   6.262
 4447POPC   C2B58892  39.099  32.351   6.631
 4447POPC   C3B58893  39.205  32.276   7.031
 4447POPC   C4B58894  38.979  32.395   7.402
 4448POPC   NC358895  36.772  13.511   5.194
 4448POPC   PO458896  37.159  14.026   5.466
 4448POPC   GL158897  37.002  13.660   5.729
 4448POPC   GL258898  36.689  13.450   5.710
 4448POPC   C1A58899  37.039  13.627   6.193
 4448POPC   D2A58900  36.731  13.770   6.512
 4448POPC   C3A58901  36.783  13.689   6.925
 4448POPC   C4A58902  37.137  13.770   7.178
 4448POPC   C1B58903  36.547  13.439   6.151
 4448POPC   C2B58904  36.454  13.328   6.601
 4448POPC   C3B58905  36.636  13.212   7.036
 4448POPC   C4B58906  36.819  13.408   7.371
 4449POPC   NC358907  39.185  22.155   5.356
 4449POPC   PO458908  39.764  22.489   5.514
 4449POPC   GL158909  39.420  22.268   5.801
 4449POPC   GL258910  39.219  21.901   5.796
 4449POPC   C1A58911  39.453  22.108   6.219
 4449POPC   D2A58912  39.512  22.326   6.578
 4449POPC   C3A58913  39.605  22.088   6.911
 4449POPC   C4A58914  39.390  22.129   7.280
 4449POPC   C1B58915  39.034  21.806   6.211
 4449POPC   C2B58916  39.163  21.916   6.644
 4449POPC   C3B58917  38.956  21.963   7.038
 4449POPC   C4B58918  38.865  22.370   7.216
 4450POPC   NC358919   0.395   7.433   5.110
 4450POPC   PO458920   0.426   8.108   5.297
 4450POPC   GL158921   0.588   8.287   5.725
 4450POPC   GL258922   0.649   7.941   5.836
 4450POPC   C1A58923   0.740   8.304   6.175
 4450POPC   D2A58924   0.698   7.943   6.486
 4450POPC   C3A58925   0.672   7.924   6.940
 4450POPC   C4A58926   0.692   8.232   7.252
 4450POPC   C1B58927   0.300   7.935   6.169
 4450POPC   C2B58928   0.128   8.033   6.615
 4450POPC   C3B58929  44.968   7.954   7.056
 4450POPC   C4B58930  44.864   8.005   7.490
 4451POPC   NC358931  19.774   2.411   5.553
 4451POPC   PO458932  19.978   3.042   5.432
 4451POPC   GL158933  19.950   2.852   5.847
 4451POPC   GL258934  19.634   2.749   5.901
 4451POPC   C1A58935  19.901   2.883   6.312
 4451POPC   D2A58936  19.650   2.852   6.683
 4451POPC   C3A58937  19.967   2.868   6.984
 4451POPC   C4A58938  20.029   2.570   7.304
 4451POPC   C1B58939  19.435   2.612   6.265
 4451POPC   C2B58940  19.444   2.368   6.617
 4451POPC   C3B58941  19.446   2.505   7.054
 4451POPC   C4B58942  19.490   2.474   7.533
 4452POPC   NC358943  31.625  37.353   5.409
 4452POPC   PO458944  32.026  37.963   5.435
 4452POPC   GL158945  31.752  37.752   5.759
 4452POPC   GL258946  31.752  37.404   5.896
 4452POPC   C1A58947  31.379  37.753   6.054
 4452POPC   D2A58948  31.332  37.849   6.506
 4452POPC   C3A58949  31.289  37.506   6.801
 4452POPC   C4A58950  31.135  37.498   7.226
 4452POPC   C1B58951  31.770  37.518   6.354
 4452POPC   C2B58952  31.775  37.704   6.754
 4452POPC   C3B58953  31.527  37.904   7.079
 4452POPC   C4B58954  31.511  37.730   7.488
 4453POPC   NC358955  11.847  44.095   5.345
 4453POPC   PO458956  12.276  43.661   5.597
 4453POPC   GL158957  11.922  43.859   5.804
 4453POPC   GL258958  11.895  44.249   5.818
 4453POPC   C1A58959  11.995  43.924   6.231
 4453POPC   D2A58960  12.259  43.841   6.555
 4453POPC   C3A58961  12.204  44.154   6.857
 4453POPC   C4A58962  12.332  43.996   7.250
 4453POPC   C1B58963  11.558  44.137   6.091
 4453POPC   C2B58964  11.543  43.952   6.505
 4453POPC   C3B58965  11.686  44.174   6.855
 4453POPC   C4B58966  11.845  44.081   7.220
 4454POPC   NC358967  18.152   2.569   5.388
 4454POPC   PO458968  18.697   2.511   5.672
 4454POPC   GL158969  18.443   2.827   5.784
 4454POPC   GL258970  18.226   2.606   5.912
 4454POPC   C1A58971  18.312   3.067   6.142
 4454POPC   D2A58972  18.239   2.788   6.496
 4454POPC   C3A58973  18.404   2.897   6.908
 4454POPC   C4A58974  18.218   2.848   7.300
 4454POPC   C1B58975  17.914   2.375   6.097
 4454POPC   C2B58976  17.791   2.461   6.506
 4454POPC   C3B58977  18.019   2.532   6.896
 4454POPC   C4B58978  17.836   2.497   7.284
 4455POPC   NC358979  29.893  37.226   5.368
 4455POPC   PO458980  30.291  37.763   5.453
 4455POPC   GL158981  30.020  37.571   5.732
 4455POPC   GL258982  30.252  37.287   5.752
 4455POPC   C1A58983  29.752  37.727   6.084
 4455POPC   D2A58984  29.874  37.893   6.483
 4455POPC   C3A58985  29.664  37.735   6.851
 4455POPC   C4A58986  29.772  37.576   7.271
 4455POPC   C1B58987  30.199  37.448   6.190
 4455POPC   C2B58988  30.351  37.386   6.601
 4455POPC   C3B58989  30.164  37.634   6.915
 4455POPC   C4B58990  30.035  38.000   7.146
 4456POPC   NC358991  44.209  21.136   5.659
 4456POPC   PO458992  43.851  21.618   5.266
 4456POPC   GL158993  43.983  21.573   5.788
 4456POPC   GL258994  43.723  21.487   6.011
 4456POPC   C1A58995  44.144  21.439   6.265
 4456POPC   D2A58996  44.020  21.601   6.679
 4456POPC   C3A58997  43.825  21.427   7.063
 4456POPC   C4A58998  44.032  21.071   7.322
 4456POPC   C1B58999  43.692  21.122   6.243
 4456POPC   C2B59000  43.807  21.090   6.653
 4456POPC   C3B59001  43.618  20.966   7.010
 4456POPC   C4B59002  43.466  21.159   7.330
 4457POPC   NC359003  23.464  42.741   5.511
 4457POPC   PO459004  23.944  43.218   5.419
 4457POPC   GL159005  23.781  43.167   5.804
 4457POPC   GL259006  23.442  43.216   5.803
 4457POPC   C1A59007  23.955  43.285   6.211
 4457POPC   D2A59008  23.954  42.998   6.513
 4457POPC   C3A59009  23.841  43.150   6.909
 4457POPC   C4A59010  23.787  43.215   7.343
 4457POPC   C1B59011  23.514  43.009   6.216
 4457POPC   C2B59012  23.418  42.974   6.661
 4457POPC   C3B59013  23.216  43.184   7.033
 4457POPC   C4B59014  23.302  43.199   7.505
 4458POPC   NC359015  38.815  11.280   5.283
 4458POPC   PO459016  39.481  11.094   5.307
 4458POPC   GL159017  39.190  11.192   5.681
 4458POPC   GL259018  38.949  10.928   5.740
 4458POPC   C1A59019  39.118  11.307   6.156
 4458POPC   D2A59020  39.027  11.503   6.590
 4458POPC   C3A59021  39.367  11.483   6.914
 4458POPC   C4A59022  39.449  11.312   7.330
 4458POPC   C1B59023  38.753  10.945   6.203
 4458POPC   C2B59024  38.869  10.963   6.676
 4458POPC   C3B59025  38.942  11.241   7.060
 4458POPC   C4B59026  38.964  11.211   7.519
 4459POPC   NC359027   7.615  23.508   5.141
 4459POPC   PO459028   8.165  23.603   5.555
 4459POPC   GL159029   7.734  23.385   5.722
 4459POPC   GL259030   7.377  23.558   5.764
 4459POPC   C1A59031   7.552  23.318   6.177
 4459POPC   D2A59032   7.624  23.156   6.609
 4459POPC   C3A59033   7.607  23.443   6.992
 4459POPC   C4A59034   7.783  23.837   7.177
 4459POPC   C1B59035   7.085  23.546   6.141
 4459POPC   C2B59036   7.164  23.389   6.581
 4459POPC   C3B59037   7.187  23.137   6.961
 4459POPC   C4B59038   7.235  23.339   7.334
 4460POPC   NC359039  16.494   2.383   5.415
 4460POPC   PO459040  16.968   1.862   5.383
 4460POPC   GL159041  16.646   1.975   5.714
 4460POPC   GL259042  16.658   2.301   5.892
 4460POPC   C1A59043  16.500   1.856   6.144
 4460POPC   D2A59044  16.388   1.873   6.604
 4460POPC   C3A59045  16.761   1.741   6.828
 4460POPC   C4A59046  17.034   1.763   7.159
 4460POPC   C1B59047  16.553   2.322   6.331
 4460POPC   C2B59048  16.777   2.239   6.715
 4460POPC   C3B59049  16.680   2.265   7.162
 4460POPC   C4B59050  16.623   2.514   7.550
 4461POPC   NC359051  43.722   2.614   5.499
 4461POPC   PO459052  44.019   3.180   5.508
 4461POPC   GL159053  44.173   3.043   5.897
 4461POPC   GL259054  44.100   2.696   5.844
 4461POPC   C1A59055  44.074   3.059   6.316
 4461POPC   D2A59056  44.014   2.721   6.572
 4461POPC   C3A59057  44.154   2.795   6.969
 4461POPC   C4A59058  44.088   2.766   7.370
 4461POPC   C1B59059  43.730   2.744   6.123
 4461POPC   C2B59060  43.548   2.907   6.477
 4461POPC   C3B59061  43.620   2.806   6.893
 4461POPC   C4B59062  43.509   2.812   7.307
 4462POPC   NC359063  21.175  32.380   5.419
 4462POPC   PO459064  21.639  31.967   5.499
 4462POPC   GL159065  21.298  32.037   5.822
 4462POPC   GL259066  21.182  32.435   5.929
 4462POPC   C1A59067  21.219  31.811   6.225
 4462POPC   D2A59068  21.164  32.048   6.619
 4462POPC   C3A59069  21.310  31.928   6.993
 4462POPC   C4A59070  21.201  31.926   7.415
 4462POPC   C1B59071  21.264  32.500   6.400
 4462POPC   C2B59072  21.550  32.361   6.771
 4462POPC   C3B59073  21.610  32.287   7.223
 4462POPC   C4B59074  21.787  32.518   7.597
 4463POPC   NC359075  33.503  32.741   5.650
 4463POPC   PO459076  33.893  33.261   5.446
 4463POPC   GL159077  34.033  33.193   5.894
 4463POPC   GL259078  33.784  32.937   6.032
 4463POPC   C1A59079  34.059  33.181   6.378
 4463POPC   D2A59080  33.792  32.926   6.649
 4463POPC   C3A59081  33.643  33.155   7.002
 4463POPC   C4A59082  33.963  33.251   7.313
 4463POPC   C1B59083  33.492  32.682   6.293
 4463POPC   C2B59084  33.508  32.477   6.703
 4463POPC   C3B59085  33.737  32.621   7.080
 4463POPC   C4B59086  33.623  32.890   7.443
 4464POPC   NC359087   8.149  42.216   5.183
 4464POPC   PO459088   8.360  42.838   5.158
 4464POPC   GL159089   8.265  42.445   5.615
 4464POPC   GL259090   8.010  42.381   5.788
 4464POPC   C1A59091   8.332  42.099   6.018
 4464POPC   D2A59092   8.421  41.962   6.467
 4464POPC   C3A59093   8.246  42.014   6.871
 4464POPC   C4A59094   8.354  42.173   7.267
 4464POPC   C1B59095   7.752  42.615   6.110
 4464POPC   C2B59096   7.762  42.818   6.531
 4464POPC   C3B59097   7.945  42.945   6.947
 4464POPC   C4B59098   8.013  42.826   7.408
 4465POPC   NC359099   4.489  44.756   5.184
 4465POPC   PO459100   3.906  44.655   5.212
 4465POPC   GL159101   4.213  44.688   5.621
 4465POPC   GL259102   4.505  44.526   5.792
 4465POPC   C1A59103   4.188  44.807   6.089
 4465POPC   D2A59104   4.117  44.600   6.468
 4465POPC   C3A59105   4.204  44.541   6.899
 4465POPC   C4A59106   4.275  44.848   7.196
 4465POPC   C1B59107   4.611  44.577   6.242
 4465POPC   C2B59108   4.613  44.725   6.661
 4465POPC   C3B59109   4.687  44.588   7.079
 4465POPC   C4B59110   4.710  44.880   7.430
 4466POPC   NC359111  18.849   2.145   5.441
 4466POPC   PO459112  19.144   1.516   5.258
 4466POPC   GL159113  19.002   1.709   5.654
 4466POPC   GL259114  18.625   1.749   5.727
 4466POPC   C1A59115  19.138   1.882   6.062
 4466POPC   D2A59116  19.209   1.903   6.518
 4466POPC   C3A59117  19.072   2.175   6.891
 4466POPC   C4A59118  19.246   2.094   7.311
 4466POPC   C1B59119  18.656   1.749   6.178
 4466POPC   C2B59120  18.695   1.971   6.544
 4466POPC   C3B59121  18.749   1.793   6.941
 4466POPC   C4B59122  18.729   2.031   7.297
 4467POPC   NC359123  11.390  32.166   5.385
 4467POPC   PO459124  11.027  32.665   5.653
 4467POPC   GL159125  11.278  32.355   5.873
 4467POPC   GL259126  11.653  32.394   5.800
 4467POPC   C1A59127  11.233  32.311   6.317
 4467POPC   D2A59128  11.111  32.056   6.650
 4467POPC   C3A59129  10.916  32.267   6.974
 4467POPC   C4A59130  11.157  32.445   7.280
 4467POPC   C1B59131  11.662  32.070   6.129
 4467POPC   C2B59132  11.692  32.158   6.544
 4467POPC   C3B59133  11.496  32.256   6.926
 4467POPC   C4B59134  11.490  32.064   7.311
 4468POPC   NC359135  30.760  30.734   5.285
 4468POPC   PO459136  30.106  30.747   5.364
 4468POPC   GL159137  30.374  30.924   5.705
 4468POPC   GL259138  30.756  30.845   5.793
 4468POPC   C1A59139  30.379  30.841   6.150
 4468POPC   D2A59140  30.611  30.967   6.472
 4468POPC   C3A59141  30.519  30.773   6.834
 4468POPC   C4A59142  30.491  30.673   7.259
 4468POPC   C1B59143  30.846  30.605   6.170
 4468POPC   C2B59144  30.973  30.609   6.612
 4468POPC   C3B59145  30.995  30.862   6.977
 4468POPC   C4B59146  30.975  30.782   7.355
 4469POPC   NC359147  10.720  37.783   5.513
 4469POPC   PO459148  11.221  38.149   5.180
 4469POPC   GL159149  11.252  37.935   5.635
 4469POPC   GL259150  11.601  37.855   5.724
 4469POPC   C1A59151  11.120  37.735   6.064
 4469POPC   D2A59152  10.855  37.657   6.462
 4469POPC   C3A59153  11.060  37.653   6.859
 4469POPC   C4A59154  11.133  37.542   7.266
 4469POPC   C1B59155  11.635  37.758   6.132
 4469POPC   C2B59156  11.439  37.608   6.506
 4469POPC   C3B59157  11.570  37.706   6.925
 4469POPC   C4B59158  11.637  37.803   7.313
 4470POPC   NC359159  41.635   3.235   5.156
 4470POPC   PO459160  41.779   2.667   5.397
 4470POPC   GL159161  41.883   2.700   5.838
 4470POPC   GL259162  41.988   3.047   5.993
 4470POPC   C1A59163  41.750   2.610   6.256
 4470POPC   D2A59164  41.881   2.777   6.626
 4470POPC   C3A59165  41.849   2.583   7.038
 4470POPC   C4A59166  41.498   2.513   7.312
 4470POPC   C1B59167  41.581   3.095   6.250
 4470POPC   C2B59168  41.397   2.928   6.637
 4470POPC   C3B59169  41.296   2.915   7.063
 4470POPC   C4B59170  41.040   2.726   7.418
 4471POPC   NC359171  44.899  40.184   5.365
 4471POPC   PO459172  44.326  39.812   5.387
 4471POPC   GL159173  44.599  39.968   5.741
 4471POPC   GL259174  44.946  39.814   5.718
 4471POPC   C1A59175  44.679  40.052   6.189
 4471POPC   D2A59176  44.834  40.170   6.601
 4471POPC   C3A59177  44.627  40.103   7.001
 4471POPC   C4A59178  44.349  40.282   7.338
 4471POPC   C1B59179  44.968  39.618   6.117
 4471POPC   C2B59180  44.981  39.487   6.528
 4471POPC   C3B59181   0.029  39.744   6.877
 4471POPC   C4B59182  44.830  39.715   7.268
 4472POPC   NC359183  12.824   4.591   5.460
 4472POPC   PO459184  12.408   4.096   5.492
 4472POPC   GL159185  12.785   4.224   5.850
 4472POPC   GL259186  13.052   4.485   5.903
 4472POPC   C1A59187  13.035   4.120   6.241
 4472POPC   D2A59188  13.031   4.382   6.630
 4472POPC   C3A59189  13.111   4.202   7.039
 4472POPC   C4A59190  12.821   4.166   7.384
 4472POPC   C1B59191  12.744   4.567   6.240
 4472POPC   C2B59192  12.635   4.755   6.652
 4472POPC   C3B59193  12.720   4.604   7.091
 4472POPC   C4B59194  12.818   4.660   7.543
 4473POPC   NC359195  28.066  29.241   5.418
 4473POPC   PO459196  28.766  29.192   5.370
 4473POPC   GL159197  28.538  29.371   5.761
 4473POPC   GL259198  28.234  29.175   5.879
 4473POPC   C1A59199  28.364  29.559   6.185
 4473POPC   D2A59200  28.182  29.449   6.618
 4473POPC   C3A59201  28.465  29.143   6.854
 4473POPC   C4A59202  28.791  28.945   7.111
 4473POPC   C1B59203  27.975  29.162   6.229
 4473POPC   C2B59204  27.856  28.984   6.593
 4473POPC   C3B59205  27.982  29.125   6.986
 4473POPC   C4B59206  28.204  29.459   7.165
 4474POPC   NC359207   2.674   1.468   5.352
 4474POPC   PO459208   2.511   0.833   5.224
 4474POPC   GL159209   2.676   1.038   5.671
 4474POPC   GL259210   2.913   1.328   5.791
 4474POPC   C1A59211   2.518   1.245   6.105
 4474POPC   D2A59212   2.349   1.401   6.516
 4474POPC   C3A59213   2.257   1.249   6.928
 4474POPC   C4A59214   2.584   1.254   7.227
 4474POPC   C1B59215   3.114   1.166   6.175
 4474POPC   C2B59216   3.320   1.207   6.588
 4474POPC   C3B59217   3.159   1.198   7.033
 4474POPC   C4B59218   2.971   1.566   7.252
 4475POPC   NC359219  36.781  18.331   5.096
 4475POPC   PO459220  37.305  18.400   5.477
 4475POPC   GL159221  36.941  18.366   5.840
 4475POPC   GL259222  36.679  18.138   5.720
 4475POPC   C1A59223  36.825  18.482   6.289
 4475POPC   D2A59224  36.939  18.206   6.624
 4475POPC   C3A59225  37.112  18.343   6.986
 4475POPC   C4A59226  36.795  18.355   7.254
 4475POPC   C1B59227  36.796  17.952   6.140
 4475POPC   C2B59228  36.801  17.715   6.552
 4475POPC   C3B59229  36.630  17.885   6.968
 4475POPC   C4B59230  36.630  17.933   7.446
 4476POPC   NC359231   0.961   3.269   5.417
 4476POPC   PO459232   1.571   3.235   5.604
 4476POPC   GL159233   1.252   3.467   5.827
 4476POPC   GL259234   1.015   3.257   5.936
 4476POPC   C1A59235   1.243   3.642   6.237
 4476POPC   D2A59236   1.101   3.868   6.608
 4476POPC   C3A59237   1.211   3.678   6.998
 4476POPC   C4A59238   1.115   3.433   7.329
 4476POPC   C1B59239   0.788   3.417   6.294
 4476POPC   C2B59240   0.844   3.438   6.715
 4476POPC   C3B59241   0.835   3.126   6.999
 4476POPC   C4B59242   0.625   3.222   7.313
 4477POPC   NC359243  18.641  38.312   5.070
 4477POPC   PO459244  18.058  38.482   5.338
 4477POPC   GL159245  18.242  38.518   5.741
 4477POPC   GL259246  18.593  38.467   5.757
 4477POPC   C1A59247  18.336  38.652   6.163
 4477POPC   D2A59248  18.214  38.449   6.530
 4477POPC   C3A59249  18.378  38.496   6.943
 4477POPC   C4A59250  18.294  38.235   7.309
 4477POPC   C1B59251  18.619  38.216   6.142
 4477POPC   C2B59252  18.579  38.081   6.575
 4477POPC   C3B59253  18.703  38.111   7.044
 4477POPC   C4B59254  18.727  38.032   7.518
 4478POPC   NC359255  33.917  43.596   5.362
 4478POPC   PO459256  33.474  44.072   5.507
 4478POPC   GL159257  33.666  43.812   5.815
 4478POPC   GL259258  34.028  43.806   5.815
 4478POPC   C1A59259  33.744  43.770   6.259
 4478POPC   D2A59260  33.885  43.597   6.663
 4478POPC   C3A59261  33.691  43.790   7.035
 4478POPC   C4A59262  33.442  44.185   7.085
 4478POPC   C1B59263  34.249  43.648   6.176
 4478POPC   C2B59264  34.333  43.862   6.561
 4478POPC   C3B59265  34.222  43.808   6.995
 4478POPC   C4B59266  34.072  43.866   7.426
 4479POPC   NC359267  25.447   9.404   4.997
 4479POPC   PO459268  25.232   9.823   5.469
 4479POPC   GL159269  25.255   9.983   5.878
 4479POPC   GL259270  25.449   9.720   5.937
 4479POPC   C1A59271  25.293  10.045   6.331
 4479POPC   D2A59272  25.410   9.877   6.745
 4479POPC   C3A59273  25.208   9.898   7.165
 4479POPC   C4A59274  25.213   9.617   7.533
 4479POPC   C1B59275  25.661   9.651   6.322
 4479POPC   C2B59276  25.709   9.434   6.675
 4479POPC   C3B59277  25.581   9.539   7.076
 4479POPC   C4B59278  25.915   9.542   7.271
 4480POPC   NC359279   9.751   1.447   5.364
 4480POPC   PO459280  10.162   0.928   5.477
 4480POPC   GL159281   9.926   1.204   5.793
 4480POPC   GL259282   9.539   1.142   5.862
 4480POPC   C1A59283   9.845   1.373   6.211
 4480POPC   D2A59284   9.963   1.158   6.587
 4480POPC   C3A59285   9.836   1.306   6.986
 4480POPC   C4A59286   9.993   1.242   7.393
 4480POPC   C1B59287   9.543   0.927   6.298
 4480POPC   C2B59288   9.542   0.863   6.761
 4480POPC   C3B59289   9.417   1.057   7.137
 4480POPC   C4B59290   9.595   0.928   7.519
 4481POPC   NC359291  35.998  31.174   5.181
 4481POPC   PO459292  36.460  31.705   5.203
 4481POPC   GL159293  36.251  31.577   5.660
 4481POPC   GL259294  35.975  31.792   5.797
 4481POPC   C1A59295  36.109  31.294   6.073
 4481POPC   D2A59296  35.879  31.160   6.506
 4481POPC   C3A59297  35.874  31.290   6.957
 4481POPC   C4A59298  36.213  31.380   7.249
 4481POPC   C1B59299  36.181  31.792   6.220
 4481POPC   C2B59300  36.182  31.619   6.640
 4481POPC   C3B59301  36.030  31.801   7.022
 4481POPC   C4B59302  36.151  31.946   7.430
 4482POPC   NC359303  36.488  21.909   5.325
 4482POPC   PO459304  35.848  21.875   5.373
 4482POPC   GL159305  36.018  22.156   5.678
 4482POPC   GL259306  36.229  21.916   5.752
 4482POPC   C1A59307  36.269  22.289   6.067
 4482POPC   D2A59308  36.142  22.234   6.501
 4482POPC   C3A59309  36.395  22.395   6.843
 4482POPC   C4A59310  36.323  22.284   7.251
 4482POPC   C1B59311  36.115  21.799   6.151
 4482POPC   C2B59312  36.312  21.755   6.543
 4482POPC   C3B59313  36.224  21.911   6.912
 4482POPC   C4B59314  36.031  21.852   7.283
 4483POPC   NC359315  12.851   3.943   5.445
 4483POPC   PO459316  12.977   3.306   5.429
 4483POPC   GL159317  12.895   3.575   5.825
 4483POPC   GL259318  12.570   3.769   5.874
 4483POPC   C1A59319  12.770   3.530   6.281
 4483POPC   D2A59320  12.903   3.372   6.684
 4483POPC   C3A59321  12.640   3.265   7.050
 4483POPC   C4A59322  12.715   3.347   7.480
 4483POPC   C1B59323  12.565   3.995   6.297
 4483POPC   C2B59324  12.869   3.889   6.671
 4483POPC   C3B59325  12.852   3.732   7.109
 4483POPC   C4B59326  12.462   3.783   7.381
 4484POPC   NC359327  37.352  41.843   5.520
 4484POPC   PO459328  36.921  42.269   5.249
 4484POPC   GL159329  36.832  42.041   5.670
 4484POPC   GL259330  37.141  42.067   5.914
 4484POPC   C1A59331  36.697  42.023   6.132
 4484POPC   D2A59332  37.000  42.103   6.482
 4484POPC   C3A59333  36.817  42.055   6.877
 4484POPC   C4A59334  36.551  42.103   7.181
 4484POPC   C1B59335  37.449  42.230   6.202
 4484POPC   C2B59336  37.603  42.214   6.624
 4484POPC   C3B59337  37.324  42.143   6.974
 4484POPC   C4B59338  37.013  42.448   7.157
 4485POPC   NC359339  43.487  44.260   5.446
 4485POPC   PO459340  43.082  44.746   5.321
 4485POPC   GL159341  43.248  44.656   5.701
 4485POPC   GL259342  42.919  44.660   5.869
 4485POPC   C1A59343  43.345  44.522   6.115
 4485POPC   D2A59344  43.129  44.709   6.460
 4485POPC   C3A59345  43.131  44.477   6.855
 4485POPC   C4A59346  43.282  44.700   7.199
 4485POPC   C1B59347  42.811   0.007   6.137
 4485POPC   C2B59348  42.782   0.134   6.573
 4485POPC   C3B59349  42.861  44.894   6.926
 4485POPC   C4B59350  42.780  44.629   7.278
 4486POPC   NC359351  38.410   3.627   5.435
 4486POPC   PO459352  38.365   3.133   5.637
 4486POPC   GL159353  38.196   3.433   5.921
 4486POPC   GL259354  38.138   3.155   6.144
 4486POPC   C1A59355  38.116   3.628   6.335
 4486POPC   D2A59356  38.227   3.388   6.712
 4486POPC   C3A59357  38.239   3.587   7.101
 4486POPC   C4A59358  38.109   3.950   7.319
 4486POPC   C1B59359  38.545   3.337   6.297
 4486POPC   C2B59360  38.751   3.399   6.703
 4486POPC   C3B59361  38.662   3.301   7.148
 4486POPC   C4B59362  38.337   3.233   7.479
 4487POPC   NC359363  26.235  44.373   5.129
 4487POPC   PO459364  25.848  43.972   5.529
 4487POPC   GL159365  26.065  43.838   5.899
 4487POPC   GL259366  26.394  43.709   5.860
 4487POPC   C1A59367  26.204  44.040   6.275
 4487POPC   D2A59368  26.043  44.236   6.625
 4487POPC   C3A59369  26.105  44.046   7.002
 4487POPC   C4A59370  25.772  43.958   7.285
 4487POPC   C1B59371  26.226  43.511   6.255
 4487POPC   C2B59372  26.162  43.596   6.703
 4487POPC   C3B59373  25.933  43.559   7.061
 4487POPC   C4B59374  25.519  43.493   7.216
 4488POPC   NC359375  43.897  25.883   5.399
 4488POPC   PO459376  43.374  26.216   5.461
 4488POPC   GL159377  43.570  25.920   5.804
 4488POPC   GL259378  43.910  26.043   5.881
 4488POPC   C1A59379  43.710  25.729   6.224
 4488POPC   D2A59380  44.015  25.874   6.568
 4488POPC   C3A59381  43.857  25.843   7.007
 4488POPC   C4A59382  43.736  25.751   7.440
 4488POPC   C1B59383  43.756  26.241   6.262
 4488POPC   C2B59384  43.802  26.318   6.722
 4488POPC   C3B59385  43.933  26.325   7.170
 4488POPC   C4B59386  44.016  26.608   7.542
 4489POPC   NC359387  35.409  15.381   5.190
 4489POPC   PO459388  35.386  16.050   5.401
 4489POPC   GL159389  35.440  16.111   5.829
 4489POPC   GL259390  35.650  16.396   5.771
 4489POPC   C1A59391  35.409  15.859   6.228
 4489POPC   D2A59392  35.582  15.820   6.650
 4489POPC   C3A59393  35.298  15.901   6.982
 4489POPC   C4A59394  34.991  15.671   7.183
 4489POPC   C1B59395  35.701  16.301   6.213
 4489POPC   C2B59396  35.701  16.344   6.630
 4489POPC   C3B59397  35.717  16.419   7.044
 4489POPC   C4B59398  35.412  16.320   7.323
 4490POPC   NC359399  38.960  28.569   5.403
 4490POPC   PO459400  39.499  28.223   5.452
 4490POPC   GL159401  39.338  28.482   5.739
 4490POPC   GL259402  39.085  28.240   5.799
 4490POPC   C1A59403  39.304  28.627   6.146
 4490POPC   D2A59404  39.057  28.633   6.535
 4490POPC   C3A59405  39.303  28.441   6.885
 4490POPC   C4A59406  39.198  28.503   7.311
 4490POPC   C1B59407  39.048  28.190   6.227
 4490POPC   C2B59408  38.822  28.151   6.600
 4490POPC   C3B59409  38.818  28.318   6.997
 4490POPC   C4B59410  38.944  28.080   7.380
 4491POPC   NC359411  17.133  27.514   5.364
 4491POPC   PO459412  16.458  27.780   5.473
 4491POPC   GL159413  16.706  27.939   5.840
 4491POPC   GL259414  16.857  27.630   5.836
 4491POPC   C1A59415  16.592  27.841   6.281
 4491POPC   D2A59416  16.467  27.432   6.514
 4491POPC   C3A59417  16.362  27.581   6.907
 4491POPC   C4A59418  16.652  27.890   7.021
 4491POPC   C1B59419  17.076  27.664   6.248
 4491POPC   C2B59420  17.093  27.366   6.601
 4491POPC   C3B59421  16.872  27.418   6.978
 4491POPC   C4B59422  17.163  27.712   7.190
 4492POPC   NC359423   3.116  35.087   5.560
 4492POPC   PO459424   3.549  35.597   5.212
 4492POPC   GL159425   3.486  35.462   5.670
 4492POPC   GL259426   3.344  35.720   5.882
 4492POPC   C1A59427   3.549  35.341   6.142
 4492POPC   D2A59428   3.226  35.435   6.482
 4492POPC   C3A59429   3.361  35.457   6.910
 4492POPC   C4A59430   3.770  35.339   7.032
 4492POPC   C1B59431   3.718  35.826   6.197
 4492POPC   C2B59432   3.897  35.666   6.608
 4492POPC   C3B59433   3.809  35.842   7.000
 4492POPC   C4B59434   3.409  35.920   7.137
 4493POPC   NC359435  19.290   0.204   5.546
 4493POPC   PO459436  18.944   0.745   5.470
 4493POPC   GL159437  18.844   0.477   5.831
 4493POPC   GL259438  18.827   0.102   5.772
 4493POPC   C1A59439  18.858   0.584   6.282
 4493POPC   D2A59440  18.823   0.715   6.734
 4493POPC   C3A59441  19.154   0.598   6.962
 4493POPC   C4A59442  19.272   0.235   7.233
 4493POPC   C1B59443  18.811   0.082   6.213
 4493POPC   C2B59444  18.932   0.212   6.634
 4493POPC   C3B59445  18.791   0.271   7.041
 4493POPC   C4B59446  18.806   0.040   7.400
 4494POPC   NC359447   9.883  12.370   5.367
 4494POPC   PO459448   9.579  12.936   5.359
 4494POPC   GL159449   9.600  12.928   5.757
 4494POPC   GL259450   9.641  12.590   5.767
 4494POPC   C1A59451   9.769  13.008   6.159
 4494POPC   D2A59452   9.941  13.080   6.559
 4494POPC   C3A59453   9.700  13.189   6.862
 4494POPC   C4A59454   9.752  13.105   7.256
 4494POPC   C1B59455   9.764  12.479   6.193
 4494POPC   C2B59456   9.825  12.589   6.598
 4494POPC   C3B59457   9.850  12.673   7.009
 4494POPC   C4B59458   9.607  12.589   7.377
 4495POPC   NC359459   3.452  32.468   5.403
 4495POPC   PO459460   3.638  31.801   5.347
 4495POPC   GL159461   3.560  32.106   5.755
 4495POPC   GL259462   3.764  32.423   5.847
 4495POPC   C1A59463   3.342  32.329   6.147
 4495POPC   D2A59464   3.523  32.484   6.574
 4495POPC   C3A59465   3.468  32.316   7.035
 4495POPC   C4A59466   3.683  32.362   7.461
 4495POPC   C1B59467   3.806  32.175   6.254
 4495POPC   C2B59468   3.951  31.765   6.346
 4495POPC   C3B59469   3.963  31.746   6.784
 4495POPC   C4B59470   3.909  32.032   7.138
 4496POPC   NC359471  44.914   5.996   5.089
 4496POPC   PO459472  44.497   5.497   5.374
 4496POPC   GL159473  44.507   5.623   5.799
 4496POPC   GL259474  44.164   5.718   5.803
 4496POPC   C1A59475  44.756   5.828   6.170
 4496POPC   D2A59476  44.963   5.943   6.579
 4496POPC   C3A59477  44.918   5.743   6.987
 4496POPC   C4A59478  44.743   5.880   7.400
 4496POPC   C1B59479  44.224   5.812   6.201
 4496POPC   C2B59480  44.422   5.672   6.570
 4496POPC   C3B59481  44.436   5.919   6.942
 4496POPC   C4B59482  44.246   5.821   7.308
 4497POPC   NC359483  29.503  41.177   5.592
 4497POPC   PO459484  29.032  41.566   5.221
 4497POPC   GL159485  29.178  41.623   5.636
 4497POPC   GL259486  29.050  41.340   5.769
 4497POPC   C1A59487  29.299  41.702   6.090
 4497POPC   D2A59488  29.209  41.777   6.544
 4497POPC   C3A59489  29.223  41.791   7.000
 4497POPC   C4A59490  29.481  41.517   7.190
 4497POPC   C1B59491  28.962  41.330   6.203
 4497POPC   C2B59492  28.813  41.168   6.613
 4497POPC   C3B59493  29.051  41.165   6.979
 4497POPC   C4B59494  28.955  41.451   7.281
 4498POPC   NC359495   1.917  38.888   5.438
 4498POPC   PO459496   2.189  38.305   5.133
 4498POPC   GL159497   2.001  38.363   5.590
 4498POPC   GL259498   2.137  38.593   5.809
 4498POPC   C1A59499   1.741  38.243   5.985
 4498POPC   D2A59500   1.619  38.335   6.442
 4498POPC   C3A59501   1.960  38.342   6.790
 4498POPC   C4A59502   2.079  38.444   7.230
 4498POPC   C1B59503   1.826  38.728   6.119
 4498POPC   C2B59504   1.892  38.796   6.533
 4498POPC   C3B59505   1.845  38.845   6.936
 4498POPC   C4B59506   1.820  38.888   7.353
 4499POPC   NC359507  21.591  25.149   5.450
 4499POPC   PO459508  21.114  25.558   5.412
 4499POPC   GL159509  21.213  25.302   5.767
 4499POPC   GL259510  21.003  25.005   5.859
 4499POPC   C1A59511  21.369  25.485   6.170
 4499POPC   D2A59512  21.201  25.667   6.541
 4499POPC   C3A59513  21.369  25.452   6.890
 4499POPC   C4A59514  21.498  25.420   7.310
 4499POPC   C1B59515  21.397  24.972   6.114
 4499POPC   C2B59516  21.551  25.106   6.521
 4499POPC   C3B59517  21.618  24.925   6.946
 4499POPC   C4B59518  21.890  24.979   7.311
 4500POPC   NC359519   5.634  16.753   5.459
 4500POPC   PO459520   5.027  17.036   5.493
 4500POPC   GL159521   5.057  16.847   5.896
 4500POPC   GL259522   5.302  16.611   5.839
 4500POPC   C1A59523   4.883  16.724   6.312
 4500POPC   D2A59524   4.629  16.711   6.696
 4500POPC   C3A59525   4.909  16.737   7.031
 4500POPC   C4A59526   5.014  16.791   7.450
 4500POPC   C1B59527   5.462  16.718   6.209
 4500POPC   C2B59528   5.390  16.636   6.604
 4500POPC   C3B59529   5.435  16.831   6.979
 4500POPC   C4B59530   5.492  16.624   7.352
 4501POPC   NC359531  22.389   8.182   5.067
 4501POPC   PO459532  22.229   8.713   5.398
 4501POPC   GL159533  22.225   8.675   5.873
 4501POPC   GL259534  22.389   8.363   5.948
 4501POPC   C1A59535  22.047   8.520   6.300
 4501POPC   D2A59536  22.210   8.228   6.627
 4501POPC   C3A59537  22.160   8.312   7.083
 4501POPC   C4A59538  21.855   8.129   7.394
 4501POPC   C1B59539  22.552   8.552   6.341
 4501POPC   C2B59540  22.544   8.557   6.799
 4501POPC   C3B59541  22.680   8.229   7.122
 4501POPC   C4B59542  22.607   8.253   7.595
 4502POPC   NC359543  31.468  17.826   5.193
 4502POPC   PO459544  31.530  17.227   5.512
 4502POPC   GL159545  31.294  17.344   5.894
 4502POPC   GL259546  31.393  17.722   5.995
 4502POPC   C1A59547  31.162  17.437   6.327
 4502POPC   D2A59548  31.455  17.711   6.566
 4502POPC   C3A59549  31.484  17.586   6.984
 4502POPC   C4A59550  31.185  17.282   7.155
 4502POPC   C1B59551  31.744  17.958   6.197
 4502POPC   C2B59552  31.960  17.911   6.579
 4502POPC   C3B59553  31.859  17.957   7.010
 4502POPC   C4B59554  31.845  17.738   7.420
 4503POPC   NC359555  40.225  12.435   5.251
 4503POPC   PO459556  39.841  11.976   5.545
 4503POPC   GL159557  40.106  11.929   5.895
 4503POPC   GL259558  40.302  12.197   5.940
 4503POPC   C1A59559  40.141  12.005   6.370
 4503POPC   D2A59560  39.950  12.160   6.748
 4503POPC   C3A59561  40.097  11.884   7.083
 4503POPC   C4A59562  40.259  11.666   7.462
 4503POPC   C1B59563  40.390  12.455   6.314
 4503POPC   C2B59564  40.385  12.416   6.733
 4503POPC   C3B59565  40.268  12.356   7.127
 4503POPC   C4B59566  40.128  12.646   7.400
 4504POPC   NC359567  38.360  16.433   5.319
 4504POPC   PO459568  38.610  17.046   5.338
 4504POPC   GL159569  38.611  16.966   5.797
 4504POPC   GL259570  38.452  16.601   5.849
 4504POPC   C1A59571  38.471  16.929   6.236
 4504POPC   D2A59572  38.534  16.535   6.466
 4504POPC   C3A59573  38.556  16.548   6.894
 4504POPC   C4A59574  38.672  16.182   7.115
 4504POPC   C1B59575  38.128  16.449   6.187
 4504POPC   C2B59576  38.092  16.323   6.660
 4504POPC   C3B59577  38.122  16.414   7.133
 4504POPC   C4B59578  38.054  16.651   7.530
 4505POPC   NC359579  44.101  34.427   5.357
 4505POPC   PO459580  43.782  34.973   5.216
 4505POPC   GL159581  43.689  34.611   5.567
 4505POPC   GL259582  44.009  34.695   5.781
 4505POPC   C1A59583  43.670  34.383   6.025
 4505POPC   D2A59584  43.741  34.512   6.491
 4505POPC   C3A59585  43.870  34.342   6.901
 4505POPC   C4A59586  43.606  34.354   7.267
 4505POPC   C1B59587  44.155  34.614   6.213
 4505POPC   C2B59588  44.146  34.833   6.622
 4505POPC   C3B59589  44.314  34.809   7.036
 4505POPC   C4B59590  43.947  34.732   7.260
 4506POPC   NC359591  35.034  32.892   5.483
 4506POPC   PO459592  35.576  33.186   5.315
 4506POPC   GL159593  35.390  33.213   5.723
 4506POPC   GL259594  35.701  33.244   5.893
 4506POPC   C1A59595  35.241  32.981   6.106
 4506POPC   D2A59596  35.359  32.882   6.522
 4506POPC   C3A59597  35.029  32.928   6.802
 4506POPC   C4A59598  35.129  32.994   7.221
 4506POPC   C1B59599  35.755  32.887   6.185
 4506POPC   C2B59600  35.876  32.860   6.638
 4506POPC   C3B59601  35.659  32.880   7.029
 4506POPC   C4B59602  35.652  33.217   7.342
 4507POPC   NC359603  33.877  29.088   5.463
 4507POPC   PO459604  33.697  29.692   5.493
 4507POPC   GL159605  33.876  29.469   5.897
 4507POPC   GL259606  34.002  29.128   5.947
 4507POPC   C1A59607  33.994  29.417   6.377
 4507POPC   D2A59608  34.106  29.356   6.840
 4507POPC   C3A59609  33.762  29.411   7.180
 4507POPC   C4A59610  33.547  29.335   7.598
 4507POPC   C1B59611  33.819  28.932   6.312
 4507POPC   C2B59612  33.737  28.995   6.753
 4507POPC   C3B59613  33.909  28.928   7.159
 4507POPC   C4B59614  33.746  28.646   7.482
 4508POPC   NC359615  17.936  26.578   5.464
 4508POPC   PO459616  18.378  27.151   5.496
 4508POPC   GL159617  18.143  26.926   5.795
 4508POPC   GL259618  18.286  26.604   5.855
 4508POPC   C1A59619  18.116  26.958   6.246
 4508POPC   D2A59620  18.339  26.761   6.578
 4508POPC   C3A59621  18.393  26.936   6.978
 4508POPC   C4A59622  18.772  27.008   7.148
 4508POPC   C1B59623  17.957  26.470   6.149
 4508POPC   C2B59624  17.852  26.581   6.588
 4508POPC   C3B59625  18.040  26.573   7.025
 4508POPC   C4B59626  18.013  26.633   7.518
 4509POPC   NC359627  26.979  25.279   5.327
 4509POPC   PO459628  26.343  25.438   5.546
 4509POPC   GL159629  26.548  25.204   5.877
 4509POPC   GL259630  26.889  25.094   5.802
 4509POPC   C1A59631  26.666  25.258   6.306
 4509POPC   D2A59632  26.833  25.490   6.659
 4509POPC   C3A59633  26.575  25.434   7.034
 4509POPC   C4A59634  26.598  25.168   7.400
 4509POPC   C1B59635  27.136  25.122   6.186
 4509POPC   C2B59636  27.114  24.970   6.603
 4509POPC   C3B59637  26.927  24.990   7.015
 4509POPC   C4B59638  27.089  25.070   7.440
 4510POPC   NC359639  28.998  39.583   5.418
 4510POPC   PO459640  29.445  39.066   5.334
 4510POPC   GL159641  29.482  39.069   5.794
 4510POPC   GL259642  29.142  39.184   5.872
 4510POPC   C1A59643  29.423  38.955   6.245
 4510POPC   D2A59644  29.171  38.947   6.632
 4510POPC   C3A59645  29.337  38.997   7.062
 4510POPC   C4A59646  29.153  39.251   7.408
 4510POPC   C1B59647  28.965  39.408   6.242
 4510POPC   C2B59648  28.829  39.388   6.674
 4510POPC   C3B59649  28.720  39.526   7.115
 4510POPC   C4B59650  28.765  39.541   7.566
 4511POPC   NC359651  15.137   8.408   5.106
 4511POPC   PO459652  15.525   8.718   5.445
 4511POPC   GL159653  15.334   8.962   5.834
 4511POPC   GL259654  15.368   9.330   5.894
 4511POPC   C1A59655  15.322   9.040   6.315
 4511POPC   D2A59656  15.168   9.226   6.723
 4511POPC   C3A59657  15.232   8.954   7.111
 4511POPC   C4A59658  15.592   8.658   7.175
 4511POPC   C1B59659  14.960   9.401   6.204
 4511POPC   C2B59660  14.713   9.465   6.653
 4511POPC   C3B59661  14.828   9.309   7.111
 4511POPC   C4B59662  15.208   9.388   7.388
 4512POPC   NC359663  31.364  21.521   5.253
 4512POPC   PO459664  31.301  22.092   5.565
 4512POPC   GL159665  31.212  21.651   5.743
 4512POPC   GL259666  31.479  21.374   5.735
 4512POPC   C1A59667  31.145  21.404   6.159
 4512POPC   D2A59668  31.340  21.388   6.581
 4512POPC   C3A59669  31.271  21.345   7.029
 4512POPC   C4A59670  31.580  21.394   7.352
 4512POPC   C1B59671  31.527  20.985   5.996
 4512POPC   C2B59672  31.516  20.917   6.443
 4512POPC   C3B59673  31.647  21.013   6.887
 4512POPC   C4B59674  31.880  20.966   7.287
 4513POPC   NC359675  30.530  34.265   5.325
 4513POPC   PO459676  31.134  34.597   5.316
 4513POPC   GL159677  30.922  34.675   5.746
 4513POPC   GL259678  30.579  34.511   5.789
 4513POPC   C1A59679  30.839  34.681   6.206
 4513POPC   D2A59680  30.991  34.504   6.594
 4513POPC   C3A59681  30.790  34.696   6.930
 4513POPC   C4A59682  30.755  34.533   7.341
 4513POPC   C1B59683  30.326  34.695   6.151
 4513POPC   C2B59684  30.287  34.638   6.605
 4513POPC   C3B59685  30.285  34.552   7.068
 4513POPC   C4B59686  30.299  34.629   7.527
 4514POPC   NC359687  39.071  13.002   5.489
 4514POPC   PO459688  39.476  12.437   5.407
 4514POPC   GL159689  39.351  12.657   5.773
 4514POPC   GL259690  39.029  12.467   5.772
 4514POPC   C1A59691  39.334  12.967   6.147
 4514POPC   D2A59692  39.470  13.207   6.531
 4514POPC   C3A59693  39.318  12.995   6.840
 4514POPC   C4A59694  39.232  12.931   7.208
 4514POPC   C1B59695  39.236  12.365   6.171
 4514POPC   C2B59696  39.213  12.570   6.568
 4514POPC   C3B59697  39.378  12.487   6.972
 4514POPC   C4B59698  39.274  12.342   7.374
 4515POPC   NC359699  17.411   6.015   5.371
 4515POPC   PO459700  17.967   6.066   5.692
 4515POPC   GL159701  17.567   5.869   5.851
 4515POPC   GL259702  17.219   5.996   5.863
 4515POPC   C1A59703  17.376   5.659   6.218
 4515POPC   D2A59704  17.353   5.817   6.665
 4515POPC   C3A59705  17.541   5.579   7.013
 4515POPC   C4A59706  17.722   5.812   7.330
 4515POPC   C1B59707  17.018   6.008   6.293
 4515POPC   C2B59708  16.940   6.196   6.677
 4515POPC   C3B59709  17.151   6.154   7.045
 4515POPC   C4B59710  17.104   5.753   7.208
 4516POPC   NC359711  23.926  14.246   5.222
 4516POPC   PO459712  23.445  14.754   5.334
 4516POPC   GL159713  23.644  14.461   5.662
 4516POPC   GL259714  23.887  14.656   5.848
 4516POPC   C1A59715  23.719  14.233   6.074
 4516POPC   D2A59716  23.614  14.270   6.505
 4516POPC   C3A59717  23.361  14.030   6.780
 4516POPC   C4A59718  23.388  14.206   7.189
 4516POPC   C1B59719  24.028  14.607   6.289
 4516POPC   C2B59720  24.127  14.305   6.611
 4516POPC   C3B59721  23.863  14.207   6.951
 4516POPC   C4B59722  23.848  14.489   7.261
 4517POPC   NC359723   8.542  22.208   5.411
 4517POPC   PO459724   9.258  22.266   5.275
 4517POPC   GL159725   9.036  22.103   5.671
 4517POPC   GL259726   8.711  22.021   5.832
 4517POPC   C1A59727   9.139  22.026   6.118
 4517POPC   D2A59728   9.070  22.204   6.544
 4517POPC   C3A59729   9.187  21.958   6.921
 4517POPC   C4A59730   9.115  21.986   7.365
 4517POPC   C1B59731   8.638  22.208   6.212
 4517POPC   C2B59732   8.625  21.979   6.589
 4517POPC   C3B59733   8.702  22.120   6.991
 4517POPC   C4B59734   8.536  22.474   7.129
 4518POPC   NC359735  16.083  41.124   5.288
 4518POPC   PO459736  15.760  40.673   5.682
 4518POPC   GL159737  16.151  40.852   5.836
 4518POPC   GL259738  16.369  41.165   5.747
 4518POPC   C1A59739  16.211  40.694   6.251
 4518POPC   D2A59740  16.175  40.393   6.595
 4518POPC   C3A59741  15.993  40.540   6.972
 4518POPC   C4A59742  15.720  40.385   7.298
 4518POPC   C1B59743  16.400  41.175   6.226
 4518POPC   C2B59744  16.137  41.053   6.609
 4518POPC   C3B59745  15.790  40.991   6.872
 4518POPC   C4B59746  15.814  40.888   7.311
 4519POPC   NC359747  27.784  18.355   5.258
 4519POPC   PO459748  27.218  18.369   5.416
 4519POPC   GL159749  27.504  18.284   5.808
 4519POPC   GL259750  27.885  18.279   5.806
 4519POPC   C1A59751  27.553  18.438   6.269
 4519POPC   D2A59752  27.414  18.483   6.728
 4519POPC   C3A59753  27.718  18.467   7.084
 4519POPC   C4A59754  27.668  18.220   7.502
 4519POPC   C1B59755  27.864  18.044   6.231
 4519POPC   C2B59756  27.790  18.102   6.702
 4519POPC   C3B59757  27.994  18.038   7.114
 4519POPC   C4B59758  27.881  17.753   7.461
 4520POPC   NC359759  30.249   7.452   5.253
 4520POPC   PO459760  29.609   7.306   5.300
 4520POPC   GL159761  29.701   7.137   5.724
 4520POPC   GL259762  30.030   7.330   5.806
 4520POPC   C1A59763  29.720   7.224   6.211
 4520POPC   D2A59764  29.898   7.397   6.620
 4520POPC   C3A59765  29.877   7.130   6.999
 4520POPC   C4A59766  29.976   6.809   7.355
 4520POPC   C1B59767  30.177   7.611   6.197
 4520POPC   C2B59768  30.276   7.755   6.658
 4520POPC   C3B59769  30.050   7.629   7.067
 4520POPC   C4B59770  30.112   7.647   7.543
 4521POPC   NC359771  33.962  42.854   5.481
 4521POPC   PO459772  33.557  43.344   5.244
 4521POPC   GL159773  33.550  43.147   5.641
 4521POPC   GL259774  33.850  43.297   5.794
 4521POPC   C1A59775  33.576  42.935   6.061
 4521POPC   D2A59776  33.491  43.030   6.498
 4521POPC   C3A59777  33.592  43.052   6.949
 4521POPC   C4A59778  33.516  43.349   7.253
 4521POPC   C1B59779  33.896  43.278   6.250
 4521POPC   C2B59780  33.998  43.107   6.662
 4521POPC   C3B59781  34.029  43.320   7.085
 4521POPC   C4B59782  34.392  43.468   7.350
 4522POPC   NC359783   5.577  42.603   5.496
 4522POPC   PO459784   5.751  41.938   5.387
 4522POPC   GL159785   5.830  42.208   5.744
 4522POPC   GL259786   5.487  42.253   5.860
 4522POPC   C1A59787   6.045  42.139   6.171
 4522POPC   D2A59788   6.011  42.373   6.578
 4522POPC   C3A59789   5.875  42.213   7.002
 4522POPC   C4A59790   6.185  42.163   7.320
 4522POPC   C1B59791   5.711  42.547   6.153
 4522POPC   C2B59792   5.828  42.854   6.490
 4522POPC   C3B59793   5.890  42.744   6.941
 4522POPC   C4B59794   5.754  42.607   7.364
 4523POPC   NC359795  37.469  27.260   5.584
 4523POPC   PO459796  37.855  27.740   5.387
 4523POPC   GL159797  37.777  27.601   5.812
 4523POPC   GL259798  37.926  27.270   5.840
 4523POPC   C1A59799  37.541  27.488   6.207
 4523POPC   D2A59800  37.679  27.384   6.612
 4523POPC   C3A59801  37.520  27.564   6.965
 4523POPC   C4A59802  37.364  27.329   7.233
 4523POPC   C1B59803  38.057  27.430   6.237
 4523POPC   C2B59804  37.992  27.772   6.518
 4523POPC   C3B59805  38.045  27.626   6.928
 4523POPC   C4B59806  38.278  27.758   7.274
 4524POPC   NC359807  21.217  28.235   5.402
 4524POPC   PO459808  21.906  27.991   5.445
 4524POPC   GL159809  21.521  28.065   5.802
 4524POPC   GL259810  21.102  28.155   5.874
 4524POPC   C1A59811  21.443  28.254   6.224
 4524POPC   D2A59812  21.718  28.286   6.542
 4524POPC   C3A59813  21.578  28.515   6.886
 4524POPC   C4A59814  21.541  28.474   7.324
 4524POPC   C1B59815  20.966  28.465   6.198
 4524POPC   C2B59816  21.124  28.524   6.627
 4524POPC   C3B59817  21.109  28.397   7.057
 4524POPC   C4B59818  21.104  28.294   7.491
 4525POPC   NC359819  29.326  33.587   5.405
 4525POPC   PO459820  28.900  33.148   5.669
 4525POPC   GL159821  29.094  33.525   5.855
 4525POPC   GL259822  29.087  33.919   5.786
 4525POPC   C1A59823  29.164  33.678   6.257
 4525POPC   D2A59824  28.953  33.612   6.643
 4525POPC   C3A59825  29.104  33.696   7.046
 4525POPC   C4A59826  29.128  33.385   7.350
 4525POPC   C1B59827  28.874  34.086   6.194
 4525POPC   C2B59828  28.895  34.130   6.685
 4525POPC   C3B59829  29.126  34.224   7.074
 4525POPC   C4B59830  29.417  34.059   7.348
 4526POPC   NC359831   6.485  34.089   5.452
 4526POPC   PO459832   7.012  34.631   5.340
 4526POPC   GL159833   6.905  34.533   5.784
 4526POPC   GL259834   6.561  34.523   5.767
 4526POPC   C1A59835   6.752  34.686   6.221
 4526POPC   D2A59836   6.736  34.450   6.629
 4526POPC   C3A59837   6.780  34.619   7.058
 4526POPC   C4A59838   7.025  34.744   7.456
 4526POPC   C1B59839   6.299  34.393   6.136
 4526POPC   C2B59840   6.239  34.299   6.573
 4526POPC   C3B59841   6.397  34.258   6.990
 4526POPC   C4B59842   6.312  34.478   7.370
 4527POPC   NC359843  19.403  16.484   5.456
 4527POPC   PO459844  18.901  16.194   5.333
 4527POPC   GL159845  18.886  16.489   5.740
 4527POPC   GL259846  19.148  16.706   5.852
 4527POPC   C1A59847  18.933  16.499   6.246
 4527POPC   D2A59848  19.181  16.465   6.645
 4527POPC   C3A59849  19.018  16.651   7.005
 4527POPC   C4A59850  18.779  16.473   7.330
 4527POPC   C1B59851  19.288  16.869   6.272
 4527POPC   C2B59852  19.378  16.956   6.698
 4527POPC   C3B59853  19.279  17.076   7.119
 4527POPC   C4B59854  18.941  16.937   7.430
 4528POPC   NC359855  43.634  31.880   5.162
 4528POPC   PO459856  43.648  32.480   5.012
 4528POPC   GL159857  43.584  32.301   5.497
 4528POPC   GL259858  43.550  32.576   5.728
 4528POPC   C1A59859  43.670  32.135   5.989
 4528POPC   D2A59860  43.957  32.054   6.412
 4528POPC   C3A59861  43.894  32.168   6.882
 4528POPC   C4A59862  43.918  32.061   7.346
 4528POPC   C1B59863  43.909  32.599   6.044
 4528POPC   C2B59864  43.959  32.560   6.504
 4528POPC   C3B59865  43.725  32.675   6.878
 4528POPC   C4B59866  43.665  32.484   7.256
 4529POPC   NC359867  32.639  16.778   5.447
 4529POPC   PO459868  32.018  16.441   5.432
 4529POPC   GL159869  32.245  16.673   5.790
 4529POPC   GL259870  32.613  16.548   5.880
 4529POPC   C1A59871  32.046  16.861   6.182
 4529POPC   D2A59872  31.801  16.697   6.553
 4529POPC   C3A59873  32.040  16.693   6.937
 4529POPC   C4A59874  32.250  16.969   7.178
 4529POPC   C1B59875  32.574  16.862   6.175
 4529POPC   C2B59876  32.386  16.940   6.563
 4529POPC   C3B59877  32.629  16.850   6.890
 4529POPC   C4B59878  32.602  16.599   7.256
 4530POPC   NC359879   5.558   2.283   5.447
 4530POPC   PO459880   6.030   1.809   5.439
 4530POPC   GL159881   5.686   1.891   5.740
 4530POPC   GL259882   5.875   2.194   5.830
 4530POPC   C1A59883   5.562   2.020   6.185
 4530POPC   D2A59884   5.740   2.171   6.588
 4530POPC   C3A59885   5.674   1.934   6.984
 4530POPC   C4A59886   5.692   2.077   7.410
 4530POPC   C1B59887   6.161   2.100   6.137
 4530POPC   C2B59888   6.202   1.925   6.537
 4530POPC   C3B59889   6.157   2.091   6.913
 4530POPC   C4B59890   6.188   2.020   7.313
 4531POPC   NC359891   5.574  36.285   5.474
 4531POPC   PO459892   5.995  36.899   5.271
 4531POPC   GL159893   5.997  36.843   5.741
 4531POPC   GL259894   6.337  36.872   5.826
 4531POPC   C1A59895   5.777  36.876   6.173
 4531POPC   D2A59896   5.668  37.176   6.526
 4531POPC   C3A59897   5.753  36.990   6.938
 4531POPC   C4A59898   5.914  36.630   7.192
 4531POPC   C1B59899   6.221  36.606   6.184
 4531POPC   C2B59900   6.121  36.800   6.587
 4531POPC   C3B59901   6.255  36.944   6.974
 4531POPC   C4B59902   6.139  37.326   7.130
 4532POPC   NC359903  28.948  31.165   5.374
 4532POPC   PO459904  29.454  31.674   5.520
 4532POPC   GL159905  29.289  31.470   5.816
 4532POPC   GL259906  29.570  31.285   5.912
 4532POPC   C1A59907  29.008  31.431   6.160
 4532POPC   D2A59908  28.787  31.594   6.524
 4532POPC   C3A59909  28.955  31.449   6.958
 4532POPC   C4A59910  29.215  31.115   7.151
 4532POPC   C1B59911  29.524  31.532   6.255
 4532POPC   C2B59912  29.315  31.596   6.611
 4532POPC   C3B59913  29.516  31.486   6.972
 4532POPC   C4B59914  29.419  31.576   7.382
 4533POPC   NC359915  14.585   4.190   5.448
 4533POPC   PO459916  14.048   3.826   5.435
 4533POPC   GL159917  14.274   4.069   5.825
 4533POPC   GL259918  14.497   4.415   5.877
 4533POPC   C1A59919  14.495   4.080   6.241
 4533POPC   D2A59920  14.256   4.150   6.614
 4533POPC   C3A59921  14.532   4.233   6.909
 4533POPC   C4A59922  14.614   4.062   7.268
 4533POPC   C1B59923  14.825   4.550   6.190
 4533POPC   C2B59924  14.901   4.608   6.646
 4533POPC   C3B59925  14.617   4.729   6.978
 4533POPC   C4B59926  14.482   4.542   7.310
 4534POPC   NC359927  10.268  34.528   5.140
 4534POPC   PO459928  10.851  34.869   5.157
 4534POPC   GL159929  10.603  34.786   5.630
 4534POPC   GL259930  10.479  34.475   5.774
 4534POPC   C1A59931  10.597  34.793   6.150
 4534POPC   D2A59932  10.404  34.743   6.600
 4534POPC   C3A59933  10.581  34.800   7.032
 4534POPC   C4A59934  10.321  34.803   7.450
 4534POPC   C1B59935  10.473  34.248   6.169
 4534POPC   C2B59936  10.452  34.168   6.612
 4534POPC   C3B59937  10.457  34.309   7.015
 4534POPC   C4B59938  10.345  34.195   7.413
 4535POPC   NC359939  33.227   3.565   5.448
 4535POPC   PO459940  32.540   3.556   5.577
 4535POPC   GL159941  32.880   3.655   5.821
 4535POPC   GL259942  32.936   3.314   5.825
 4535POPC   C1A59943  33.104   3.809   6.190
 4535POPC   D2A59944  33.143   3.686   6.632
 4535POPC   C3A59945  32.928   3.856   7.002
 4535POPC   C4A59946  32.942   3.674   7.428
 4535POPC   C1B59947  33.138   3.301   6.224
 4535POPC   C2B59948  33.260   3.197   6.637
 4535POPC   C3B59949  33.175   3.365   7.060
 4535POPC   C4B59950  33.119   3.134   7.472
 4536POPC   NC359951  27.485  29.583   5.452
 4536POPC   PO459952  27.284  30.206   5.432
 4536POPC   GL159953  27.426  30.044   5.849
 4536POPC   GL259954  27.758  29.944   5.930
 4536POPC   C1A59955  27.405  30.037   6.306
 4536POPC   D2A59956  27.310  29.810   6.675
 4536POPC   C3A59957  27.425  30.046   7.045
 4536POPC   C4A59958  27.567  30.100   7.456
 4536POPC   C1B59959  27.944  29.847   6.326
 4536POPC   C2B59960  27.839  29.894   6.754
 4536POPC   C3B59961  27.921  29.869   7.195
 4536POPC   C4B59962  28.047  30.067   7.606
 4537POPC   NC359963  43.172  29.770   5.365
 4537POPC   PO459964  43.143  30.398   5.487
 4537POPC   GL159965  43.327  30.109   5.777
 4537POPC   GL259966  43.378  29.733   5.839
 4537POPC   C1A59967  43.099  30.089   6.168
 4537POPC   D2A59968  42.879  30.107   6.539
 4537POPC   C3A59969  43.041  30.057   6.964
 4537POPC   C4A59970  42.832  30.240   7.297
 4537POPC   C1B59971  43.247  29.607   6.228
 4537POPC   C2B59972  43.172  29.697   6.636
 4537POPC   C3B59973  43.342  29.661   7.046
 4537POPC   C4B59974  43.428  29.572   7.458
 4538POPC   NC359975   0.653  41.567   5.124
 4538POPC   PO459976   0.062  41.888   5.308
 4538POPC   GL159977   0.182  41.663   5.679
 4538POPC   GL259978   0.543  41.571   5.654
 4538POPC   C1A59979   0.169  41.425   6.076
 4538POPC   D2A59980   0.377  41.251   6.485
 4538POPC   C3A59981   0.219  41.323   6.920
 4538POPC   C4A59982   0.245  41.571   7.286
 4538POPC   C1B59983   0.682  41.439   6.086
 4538POPC   C2B59984   0.802  41.557   6.540
 4538POPC   C3B59985   0.697  41.508   6.989
 4538POPC   C4B59986   0.752  41.595   7.473
 4539POPC   NC359987  16.452  37.041   5.493
 4539POPC   PO459988  17.093  36.874   5.408
 4539POPC   GL159989  16.895  36.791   5.849
 4539POPC   GL259990  16.577  37.001   5.981
 4539POPC   C1A59991  16.945  36.895   6.310
 4539POPC   D2A59992  16.947  37.267   6.550
 4539POPC   C3A59993  16.906  37.123   6.958
 4539POPC   C4A59994  16.932  36.724   7.116
 4539POPC   C1B59995  16.247  36.708   6.157
 4539POPC   C2B59996  16.176  36.554   6.576
 4539POPC   C3B59997  16.473  36.675   6.882
 4539POPC   C4B59998  16.497  36.940   7.252
 4540POPC   NC359999  41.704  21.544   5.407
 4540POPC   PO460000  41.692  20.954   5.702
 4540POPC   GL160001  41.599  21.363   5.895
 4540POPC   GL260002  41.840  21.647   5.898
 4540POPC   C1A60003  41.328  21.390   6.270
 4540POPC   D2A60004  41.157  21.182   6.636
 4540POPC   C3A60005  41.347  21.371   7.005
 4540POPC   C4A60006  41.357  21.694   7.277
 4540POPC   C1B60007  41.808  21.584   6.338
 4540POPC   C2B60008  41.951  21.500   6.745
 4540POPC   C3B60009  41.834  21.523   7.170
 4540POPC   C4B60010  41.702  21.473   7.580
 4541POPC   NC360011   6.943  43.186   5.075
 4541POPC   PO460012   7.509  43.127   5.338
 4541POPC   GL160013   7.429  43.095   5.793
 4541POPC   GL260014   7.069  42.980   5.826
 4541POPC   C1A60015   7.597  43.200   6.204
 4541POPC   D2A60016   7.472  43.252   6.652
 4541POPC   C3A60017   7.698  43.436   6.984
 4541POPC   C4A60018   7.616  43.151   7.291
 4541POPC   C1B60019   7.233  42.862   6.256
 4541POPC   C2B60020   7.253  42.777   6.721
 4541POPC   C3B60021   7.159  42.907   7.174
 4541POPC   C4B60022   7.042  42.742   7.634
 4542POPC   NC360023  38.198  22.349   5.377
 4542POPC   PO460024  38.758  22.007   5.366
 4542POPC   GL160025  38.586  21.817   5.763
 4542POPC   GL260026  38.212  21.757   5.683
 4542POPC   C1A60027  38.586  22.053   6.171
 4542POPC   D2A60028  38.543  22.371   6.488
 4542POPC   C3A60029  38.512  22.200   6.900
 4542POPC   C4A60030  38.350  22.446   7.255
 4542POPC   C1B60031  38.104  21.897   6.114
 4542POPC   C2B60032  38.195  21.989   6.548
 4542POPC   C3B60033  38.014  22.119   6.962
 4542POPC   C4B60034  38.240  21.952   7.289
 4543POPC   NC360035  44.689  32.794   5.500
 4543POPC   PO460036  44.715  33.445   5.483
 4543POPC   GL160037  44.567  33.160   5.842
 4543POPC   GL260038  44.265  32.931   5.768
 4543POPC   C1A60039  44.811  33.098   6.208
 4543POPC   D2A60040   0.003  33.214   6.607
 4543POPC   C3A60041  44.876  33.025   7.012
 4543POPC   C4A60042  44.496  33.067   7.256
 4543POPC   C1B60043  44.348  32.825   6.210
 4543POPC   C2B60044  44.539  32.907   6.602
 4543POPC   C3B60045  44.545  32.638   6.956
 4543POPC   C4B60046  44.776  32.552   7.301
 4544POPC   NC360047   5.565  36.349   4.937
 4544POPC   PO460048   5.993  35.989   5.407
 4544POPC   GL160049   5.881  35.887   5.853
 4544POPC   GL260050   5.536  35.996   5.910
 4544POPC   C1A60051   5.900  36.063   6.281
 4544POPC   D2A60052   5.908  36.341   6.622
 4544POPC   C3A60053   6.130  36.210   6.984
 4544POPC   C4A60054   5.954  36.047   7.364
 4544POPC   C1B60055   5.466  36.406   6.176
 4544POPC   C2B60056   5.429  36.528   6.645
 4544POPC   C3B60057   5.573  36.271   7.035
 4544POPC   C4B60058   5.567  36.332   7.524
 4545POPC   NC360059  32.132  34.284   5.504
 4545POPC   PO460060  32.260  34.901   5.556
 4545POPC   GL160061  32.233  34.610   5.859
 4545POPC   GL260062  32.578  34.642   5.973
 4545POPC   C1A60063  32.291  34.347   6.244
 4545POPC   D2A60064  32.222  34.497   6.645
 4545POPC   C3A60065  32.591  34.434   6.898
 4545POPC   C4A60066  32.745  34.171   7.254
 4545POPC   C1B60067  32.226  34.876   6.260
 4545POPC   C2B60068  31.935  34.965   6.528
 4545POPC   C3B60069  32.122  34.937   6.883
 4545POPC   C4B60070  32.211  34.620   7.169
 4546POPC   NC360071  39.884  39.206   5.315
 4546POPC   PO460072  39.773  38.705   5.698
 4546POPC   GL160073  39.822  39.161   5.820
 4546POPC   GL260074  40.206  39.264   5.790
 4546POPC   C1A60075  39.906  39.334   6.224
 4546POPC   D2A60076  40.219  39.195   6.534
 4546POPC   C3A60077  39.987  38.979   6.845
 4546POPC   C4A60078  39.814  39.085   7.232
 4546POPC   C1B60079  40.357  39.533   6.153
 4546POPC   C2B60080  40.139  39.723   6.496
 4546POPC   C3B60081  40.021  39.524   6.890
 4546POPC   C4B60082  40.162  39.472   7.291
 4547POPC   NC360083  31.148  35.042   5.445
 4547POPC   PO460084  30.574  35.436   5.479
 4547POPC   GL160085  30.571  35.641   5.909
 4547POPC   GL260086  30.920  35.692   6.042
 4547POPC   C1A60087  30.509  35.551   6.372
 4547POPC   D2A60088  30.491  35.103   6.527
 4547POPC   C3A60089  30.351  35.070   6.945
 4547POPC   C4A60090  30.387  35.492   7.129
 4547POPC   C1B60091  30.854  35.232   6.141
 4547POPC   C2B60092  30.989  35.042   6.546
 4547POPC   C3B60093  30.836  35.249   6.900
 4547POPC   C4B60094  30.775  35.081   7.276
 4548POPC   NC360095   4.173  20.211   5.376
 4548POPC   PO460096   4.506  20.708   5.190
 4548POPC   GL160097   4.452  20.595   5.652
 4548POPC   GL260098   4.102  20.569   5.775
 4548POPC   C1A60099   4.513  20.724   6.093
 4548POPC   D2A60100   4.338  20.622   6.474
 4548POPC   C3A60101   4.458  20.654   6.891
 4548POPC   C4A60102   4.665  20.592   7.277
 4548POPC   C1B60103   4.023  20.855   6.130
 4548POPC   C2B60104   3.872  20.801   6.548
 4548POPC   C3B60105   3.897  20.771   6.985
 4548POPC   C4B60106   4.155  20.716   7.359
 4549POPC   NC360107  31.913  20.802   5.294
 4549POPC   PO460108  31.384  20.359   5.177
 4549POPC   GL160109  31.363  20.351   5.686
 4549POPC   GL260110  31.680  20.511   5.736
 4549POPC   C1A60111  31.345  20.496   6.175
 4549POPC   D2A60112  31.137  20.447   6.598
 4549POPC   C3A60113  31.241  20.565   7.047
 4549POPC   C4A60114  31.358  20.919   7.324
 4549POPC   C1B60115  31.834  20.531   6.169
 4549POPC   C2B60116  31.926  20.667   6.590
 4549POPC   C3B60117  31.833  20.525   7.003
 4549POPC   C4B60118  31.633  20.507   7.406
 4550POPC   NC360119  19.374  11.257   5.500
 4550POPC   PO460120  20.019  11.124   5.443
 4550POPC   GL160121  19.803  11.268   5.824
 4550POPC   GL260122  19.583  10.989   5.906
 4550POPC   C1A60123  19.916  11.496   6.217
 4550POPC   D2A60124  20.208  11.433   6.561
 4550POPC   C3A60125  20.110  11.467   6.982
 4550POPC   C4A60126  20.073  11.455   7.448
 4550POPC   C1B60127  19.607  11.111   6.340
 4550POPC   C2B60128  19.732  11.271   6.712
 4550POPC   C3B60129  19.742  11.159   7.128
 4550POPC   C4B60130  19.446  10.986   7.408
 4551POPC   NC360131  38.734  36.756   5.265
 4551POPC   PO460132  39.419  36.695   5.203
 4551POPC   GL160133  39.394  36.750   5.707
 4551POPC   GL260134  39.043  36.786   5.836
 4551POPC   C1A60135  39.410  36.965   6.168
 4551POPC   D2A60136  39.166  36.888   6.576
 4551POPC   C3A60137  39.409  36.922   6.979
 4551POPC   C4A60138  39.229  36.852   7.401
 4551POPC   C1B60139  38.898  37.109   6.157
 4551POPC   C2B60140  38.948  37.371   6.532
 4551POPC   C3B60141  39.049  37.260   6.952
 4551POPC   C4B60142  38.810  37.210   7.323
 4552POPC   NC360143  28.520  27.806   5.281
 4552POPC   PO460144  27.893  27.954   5.420
 4552POPC   GL160145  28.222  27.907   5.776
 4552POPC   GL260146  28.582  27.978   5.764
 4552POPC   C1A60147  28.156  27.822   6.236
 4552POPC   D2A60148  28.245  27.447   6.526
 4552POPC   C3A60149  28.160  27.504   6.968
 4552POPC   C4A60150  28.176  27.900   7.121
 4552POPC   C1B60151  28.590  27.630   6.079
 4552POPC   C2B60152  28.707  27.669   6.533
 4552POPC   C3B60153  28.637  27.736   6.974
 4552POPC   C4B60154  28.485  27.571   7.389
 4553POPC   NC360155   1.164  33.546   5.392
 4553POPC   PO460156   1.572  34.019   5.214
 4553POPC   GL160157   1.507  33.736   5.715
 4553POPC   GL260158   1.099  33.660   5.876
 4553POPC   C1A60159   1.479  33.474   6.127
 4553POPC   D2A60160   1.234  33.515   6.487
 4553POPC   C3A60161   1.388  33.480   6.900
 4553POPC   C4A60162   1.103  33.731   7.123
 4553POPC   C1B60163   0.944  33.960   6.213
 4553POPC   C2B60164   1.093  34.168   6.614
 4553POPC   C3B60165   1.039  34.219   7.050
 4553POPC   C4B60166   0.741  34.037   7.353
 4554POPC   NC360167  21.046  29.199   5.510
 4554POPC   PO460168  20.445  29.003   5.337
 4554POPC   GL160169  20.655  29.043   5.797
 4554POPC   GL260170  20.862  29.338   5.952
 4554POPC   C1A60171  20.655  29.013   6.274
 4554POPC   D2A60172  20.350  29.224   6.554
 4554POPC   C3A60173  20.438  29.092   6.959
 4554POPC   C4A60174  20.510  28.863   7.314
 4554POPC   C1B60175  21.128  29.296   6.317
 4554POPC   C2B60176  21.101  29.050   6.697
 4554POPC   C3B60177  20.939  29.184   7.088
 4554POPC   C4B60178  20.927  29.621   7.172
 4555POPC   NC360179  31.095   2.705   5.564
 4555POPC   PO460180  31.656   2.410   5.477
 4555POPC   GL160181  31.549   2.696   5.833
 4555POPC   GL260182  31.533   3.039   5.686
 4555POPC   C1A60183  31.520   2.627   6.298
 4555POPC   D2A60184  31.519   2.331   6.668
 4555POPC   C3A60185  31.365   2.502   7.047
 4555POPC   C4A60186  31.708   2.491   7.344
 4555POPC   C1B60187  31.371   3.115   6.119
 4555POPC   C2B60188  31.445   3.066   6.564
 4555POPC   C3B60189  31.597   3.231   6.946
 4555POPC   C4B60190  31.484   2.966   7.258
 4556POPC   NC360191  14.319  12.712   5.253
 4556POPC   PO460192  14.676  13.141   5.551
 4556POPC   GL160193  14.374  12.873   5.769
 4556POPC   GL260194  14.518  12.540   5.727
 4556POPC   C1A60195  14.224  12.824   6.219
 4556POPC   D2A60196  14.272  12.992   6.635
 4556POPC   C3A60197  14.426  12.812   7.011
 4556POPC   C4A60198  14.511  13.023   7.423
 4556POPC   C1B60199  14.736  12.734   6.123
 4556POPC   C2B60200  14.794  12.709   6.594
 4556POPC   C3B60201  14.749  12.396   6.922
 4556POPC   C4B60202  14.571  12.415   7.324
 4557POPC   NC360203   8.979   0.638   5.401
 4557POPC   PO460204   8.479   0.098   5.452
 4557POPC   GL160205   8.798   0.326   5.781
 4557POPC   GL260206   8.767   0.697   5.858
 4557POPC   C1A60207   8.773   0.374   6.263
 4557POPC   D2A60208   8.656   0.666   6.631
 4557POPC   C3A60209   8.680   0.497   7.060
 4557POPC   C4A60210   8.890   0.106   7.165
 4557POPC   C1B60211   9.186   0.603   6.064
 4557POPC   C2B60212   9.158   0.632   6.505
 4557POPC   C3B60213   9.170   0.511   6.933
 4557POPC   C4B60214   9.208   0.642   7.341
 4558POPC   NC360215   6.033  41.547   5.356
 4558POPC   PO460216   5.340  41.512   5.657
 4558POPC   GL160217   5.730  41.584   5.771
 4558POPC   GL260218   5.674  41.796   5.977
 4558POPC   C1A60219   6.104  41.481   6.024
 4558POPC   D2A60220   6.164  41.431   6.469
 4558POPC   C3A60221   5.841  41.335   6.764
 4558POPC   C4A60222   5.889  41.263   7.201
 4558POPC   C1B60223   5.570  42.037   6.337
 4558POPC   C2B60224   5.851  41.849   6.625
 4558POPC   C3B60225   6.099  41.726   6.980
 4558POPC   C4B60226   5.930  41.724   7.415
 4559POPC   NC360227  23.594  26.669   5.364
 4559POPC   PO460228  24.205  26.676   5.541
 4559POPC   GL160229  23.846  26.880   5.793
 4559POPC   GL260230  23.463  26.957   5.778
 4559POPC   C1A60231  23.802  26.937   6.244
 4559POPC   D2A60232  24.094  26.853   6.597
 4559POPC   C3A60233  23.844  26.726   6.916
 4559POPC   C4A60234  23.602  27.015   7.115
 4559POPC   C1B60235  23.399  26.644   6.091
 4559POPC   C2B60236  23.516  26.534   6.541
 4559POPC   C3B60237  23.380  26.526   6.991
 4559POPC   C4B60238  23.447  26.646   7.443
 4560POPC   NC360239  26.714   7.118   5.657
 4560POPC   PO460240  27.241   6.824   5.455
 4560POPC   GL160241  27.154   6.902   5.926
 4560POPC   GL260242  26.971   7.207   6.078
 4560POPC   C1A60243  27.120   6.830   6.401
 4560POPC   D2A60244  26.933   6.983   6.800
 4560POPC   C3A60245  26.965   6.679   7.129
 4560POPC   C4A60246  27.150   6.252   7.215
 4560POPC   C1B60247  26.650   7.044   6.370
 4560POPC   C2B60248  26.394   6.961   6.753
 4560POPC   C3B60249  26.433   6.740   7.156
 4560POPC   C4B60250  26.659   6.810   7.517
 4561POPC   NC360251  30.845   2.102   5.478
 4561POPC   PO460252  30.270   1.784   5.288
 4561POPC   GL160253  30.459   1.787   5.697
 4561POPC   GL260254  30.465   2.137   5.844
 4561POPC   C1A60255  30.652   1.778   6.126
 4561POPC   D2A60256  30.579   2.003   6.491
 4561POPC   C3A60257  30.694   1.738   6.817
 4561POPC   C4A60258  30.757   1.856   7.226
 4561POPC   C1B60259  30.854   2.264   6.131
 4561POPC   C2B60260  31.010   2.346   6.557
 4561POPC   C3B60261  30.734   2.271   6.915
 4561POPC   C4B60262  30.727   2.377   7.322
 4562POPC   NC360263  22.344  25.762   5.211
 4562POPC   PO460264  22.033  25.172   5.331
 4562POPC   GL160265  22.052  25.315   5.732
 4562POPC   GL260266  22.305  25.093   5.793
 4562POPC   C1A60267  21.881  25.379   6.157
 4562POPC   D2A60268  22.054  25.228   6.540
 4562POPC   C3A60269  21.877  25.361   6.897
 4562POPC   C4A60270  21.993  25.495   7.262
 4562POPC   C1B60271  22.415  25.358   6.111
 4562POPC   C2B60272  22.555  25.377   6.501
 4562POPC   C3B60273  22.372  25.504   6.867
 4562POPC   C4B60274  22.490  25.489   7.268
 4563POPC   NC360275  21.772   9.437   5.416
 4563POPC   PO460276  21.270   9.859   5.280
 4563POPC   GL160277  21.395   9.726   5.659
 4563POPC   GL260278  21.071   9.751   5.758
 4563POPC   C1A60279  21.484   9.740   6.120
 4563POPC   D2A60280  21.755   9.830   6.517
 4563POPC   C3A60281  21.708   9.779   6.974
 4563POPC   C4A60282  21.552  10.171   7.194
 4563POPC   C1B60283  21.006   9.923   6.143
 4563POPC   C2B60284  21.157   9.729   6.516
 4563POPC   C3B60285  21.221   9.856   6.909
 4563POPC   C4B60286  21.212   9.829   7.363
 4564POPC   NC360287  36.467  42.281   5.362
 4564POPC   PO460288  35.824  42.480   5.397
 4564POPC   GL160289  36.025  42.264   5.756
 4564POPC   GL260290  36.208  41.955   5.662
 4564POPC   C1A60291  36.211  42.390   6.173
 4564POPC   D2A60292  36.451  42.266   6.561
 4564POPC   C3A60293  36.217  42.464   6.915
 4564POPC   C4A60294  36.094  42.732   7.309
 4564POPC   C1B60295  36.201  41.898   6.104
 4564POPC   C2B60296  36.011  42.015   6.513
 4564POPC   C3B60297  35.944  42.008   6.956
 4564POPC   C4B60298  36.090  42.227   7.339
 4565POPC   NC360299  35.858  11.979   5.420
 4565POPC   PO460300  36.494  12.147   5.401
 4565POPC   GL160301  36.221  12.183   5.783
 4565POPC   GL260302  35.892  12.372   5.785
 4565POPC   C1A60303  36.126  12.046   6.200
 4565POPC   D2A60304  36.001  11.883   6.575
 4565POPC   C3A60305  36.198  11.977   6.908
 4565POPC   C4A60306  36.250  11.756   7.264
 4565POPC   C1B60307  35.667  12.347   6.196
 4565POPC   C2B60308  35.540  12.155   6.579
 4565POPC   C3B60309  35.707  12.124   6.958
 4565POPC   C4B60310  35.935  12.175   7.324
 4566POPC   NC360311  28.792  34.334   5.476
 4566POPC   PO460312  28.245  34.703   5.348
 4566POPC   GL160313  28.380  34.764   5.759
 4566POPC   GL260314  28.077  34.658   5.899
 4566POPC   C1A60315  28.546  34.498   6.098
 4566POPC   D2A60316  28.455  34.257   6.467
 4566POPC   C3A60317  28.343  34.475   6.802
 4566POPC   C4A60318  28.433  34.536   7.221
 4566POPC   C1B60319  27.990  34.369   6.256
 4566POPC   C2B60320  27.798  34.370   6.682
 4566POPC   C3B60321  27.959  34.364   7.094
 4566POPC   C4B60322  28.041  34.563   7.532
 4567POPC   NC360323  16.274   1.604   5.572
 4567POPC   PO460324  15.666   1.360   5.378
 4567POPC   GL160325  15.947   1.201   5.720
 4567POPC   GL260326  16.184   0.906   5.713
 4567POPC   C1A60327  15.958   1.290   6.167
 4567POPC   D2A60328  15.686   1.296   6.537
 4567POPC   C3A60329  15.893   1.374   6.871
 4567POPC   C4A60330  15.973   1.504   7.255
 4567POPC   C1B60331  16.074   0.784   6.158
 4567POPC   C2B60332  16.103   0.984   6.570
 4567POPC   C3B60333  16.169   0.964   7.028
 4567POPC   C4B60334  16.118   1.053   7.469
 4568POPC   NC360335   0.155  31.258   5.064
 4568POPC   PO460336  44.770  31.635   5.546
 4568POPC   GL160337  44.676  31.352   5.864
 4568POPC   GL260338  44.385  31.483   5.926
 4568POPC   C1A60339  44.909  31.354   6.240
 4568POPC   D2A60340  44.839  31.393   6.633
 4568POPC   C3A60341  44.825  31.171   6.985
 4568POPC   C4A60342  44.467  31.252   7.228
 4568POPC   C1B60343  44.623  31.807   6.174
 4568POPC   C2B60344  44.769  31.888   6.579
 4568POPC   C3B60345  44.624  31.691   6.972
 4568POPC   C4B60346  44.353  31.758   7.307
 4569POPC   NC360347  42.596  34.015   5.309
 4569POPC   PO460348  42.084  33.567   5.094
 4569POPC   GL160349  42.058  33.873   5.562
 4569POPC   GL260350  42.352  33.883   5.736
 4569POPC   C1A60351  41.958  33.955   6.048
 4569POPC   D2A60352  41.950  34.118   6.512
 4569POPC   C3A60353  41.994  33.841   6.867
 4569POPC   C4A60354  42.091  33.941   7.301
 4569POPC   C1B60355  42.397  33.759   6.169
 4569POPC   C2B60356  42.435  33.909   6.585
 4569POPC   C3B60357  42.482  33.712   6.989
 4569POPC   C4B60358  42.348  33.428   7.292
 4570POPC   NC360359  38.794  23.151   5.409
 4570POPC   PO460360  38.192  22.821   5.347
 4570POPC   GL160361  38.468  22.868   5.712
 4570POPC   GL260362  38.377  23.201   5.730
 4570POPC   C1A60363  38.684  22.745   6.116
 4570POPC   D2A60364  38.776  22.905   6.542
 4570POPC   C3A60365  38.615  22.707   6.878
 4570POPC   C4A60366  38.165  22.626   6.815
 4570POPC   C1B60367  38.529  23.226   6.156
 4570POPC   C2B60368  38.434  23.320   6.580
 4570POPC   C3B60369  38.564  23.303   6.998
 4570POPC   C4B60370  38.459  22.965   7.276
 4571POPC   NC360371   1.797  19.386   5.345
 4571POPC   PO460372   2.113  20.022   5.182
 4571POPC   GL160373   2.167  19.741   5.518
 4571POPC   GL260374   1.853  19.793   5.693
 4571POPC   C1A60375   2.278  19.666   5.949
 4571POPC   D2A60376   2.408  19.597   6.372
 4571POPC   C3A60377   2.230  19.774   6.740
 4571POPC   C4A60378   2.409  19.768   7.137
 4571POPC   C1B60379   1.809  19.758   6.142
 4571POPC   C2B60380   1.698  19.966   6.499
 4571POPC   C3B60381   1.643  19.785   6.879
 4571POPC   C4B60382   1.904  19.576   7.191
 4572POPC   NC360383  34.664  15.687   5.551
 4572POPC   PO460384  34.375  16.180   5.431
 4572POPC   GL160385  34.447  16.117   5.834
 4572POPC   GL260386  34.244  15.857   5.859
 4572POPC   C1A60387  34.294  16.212   6.236
 4572POPC   D2A60388  34.287  16.092   6.667
 4572POPC   C3A60389  34.657  15.951   6.912
 4572POPC   C4A60390  34.917  16.177   7.243
 4572POPC   C1B60391  34.142  15.724   6.279
 4572POPC   C2B60392  34.266  15.584   6.683
 4572POPC   C3B60393  34.189  15.737   7.082
 4572POPC   C4B60394  34.289  16.165   7.186
 4573POPC   NC360395  37.209  38.318   5.232
 4573POPC   PO460396  37.869  38.292   5.183
 4573POPC   GL160397  37.852  38.254   5.703
 4573POPC   GL260398  37.862  38.620   5.838
 4573POPC   C1A60399  37.874  38.221   6.181
 4573POPC   D2A60400  37.813  38.498   6.565
 4573POPC   C3A60401  37.579  38.415   6.926
 4573POPC   C4A60402  37.675  38.580   7.339
 4573POPC   C1B60403  37.532  38.683   6.189
 4573POPC   C2B60404  37.286  38.686   6.582
 4573POPC   C3B60405  37.195  38.731   7.024
 4573POPC   C4B60406  37.415  39.012   7.262
 4574POPC   NC360407  10.010  37.432   5.383
 4574POPC   PO460408   9.657  37.961   5.562
 4574POPC   GL160409   9.752  37.839   5.951
 4574POPC   GL260410   9.714  37.516   5.918
 4574POPC   C1A60411   9.526  37.686   6.365
 4574POPC   D2A60412   9.672  37.446   6.739
 4574POPC   C3A60413   9.884  37.737   7.025
 4574POPC   C4A60414   9.896  38.025   7.341
 4574POPC   C1B60415  10.029  37.607   6.297
 4574POPC   C2B60416  10.227  37.513   6.701
 4574POPC   C3B60417  10.153  37.323   7.099
 4574POPC   C4B60418  10.108  37.099   7.489
 4575POPC   NC360419  28.277   7.822   5.131
 4575POPC   PO460420  28.139   7.253   5.559
 4575POPC   GL160421  28.171   7.292   5.943
 4575POPC   GL260422  28.327   7.017   6.033
 4575POPC   C1A60423  28.338   7.601   6.218
 4575POPC   D2A60424  28.125   7.632   6.598
 4575POPC   C3A60425  28.303   7.705   6.959
 4575POPC   C4A60426  28.185   7.610   7.345
 4575POPC   C1B60427  28.258   7.149   6.437
 4575POPC   C2B60428  28.568   7.329   6.676
 4575POPC   C3B60429  28.558   7.088   7.036
 4575POPC   C4B60430  28.239   7.077   7.305
 4576POPC   NC360431   2.088  31.475   5.385
 4576POPC   PO460432   1.399  31.613   5.425
 4576POPC   GL160433   1.772  31.544   5.782
 4576POPC   GL260434   2.120  31.661   5.854
 4576POPC   C1A60435   1.927  31.346   6.191
 4576POPC   D2A60436   2.177  31.247   6.566
 4576POPC   C3A60437   1.996  31.272   6.982
 4576POPC   C4A60438   1.753  31.249   7.347
 4576POPC   C1B60439   2.144  31.798   6.271
 4576POPC   C2B60440   2.311  31.752   6.661
 4576POPC   C3B60441   2.106  31.771   7.028
 4576POPC   C4B60442   2.162  31.557   7.379
 4577POPC   NC360443   6.971  12.182   5.356
 4577POPC   PO460444   6.333  11.970   5.460
 4577POPC   GL160445   6.564  12.087   5.825
 4577POPC   GL260446   6.524  11.818   6.016
 4577POPC   C1A60447   6.473  12.278   6.242
 4577POPC   D2A60448   6.455  12.238   6.706
 4577POPC   C3A60449   6.762  12.438   7.022
 4577POPC   C4A60450   6.887  12.324   7.452
 4577POPC   C1B60451   6.849  11.911   6.311
 4577POPC   C2B60452   6.957  12.053   6.725
 4577POPC   C3B60453   6.685  11.952   7.078
 4577POPC   C4B60454   6.534  11.561   7.196
 4578POPC   NC360455  25.112  29.995   5.614
 4578POPC   PO460456  25.741  29.714   5.396
 4578POPC   GL160457  25.544  29.622   5.824
 4578POPC   GL260458  25.562  29.969   5.906
 4578POPC   C1A60459  25.376  29.708   6.295
 4578POPC   D2A60460  25.029  29.902   6.579
 4578POPC   C3A60461  25.107  29.943   7.023
 4578POPC   C4A60462  25.434  29.735   7.261
 4578POPC   C1B60463  25.485  30.233   6.259
 4578POPC   C2B60464  25.343  30.336   6.673
 4578POPC   C3B60465  25.523  30.294   7.088
 4578POPC   C4B60466  25.699  30.391   7.520
 4579POPC   NC360467  19.605   1.601   5.232
 4579POPC   PO460468  20.038   2.030   5.507
 4579POPC   GL160469  19.731   1.936   5.840
 4579POPC   GL260470  19.535   2.218   5.975
 4579POPC   C1A60471  19.685   1.817   6.288
 4579POPC   D2A60472  19.704   1.933   6.722
 4579POPC   C3A60473  19.789   1.645   7.057
 4579POPC   C4A60474  19.549   1.685   7.454
 4579POPC   C1B60475  19.855   2.334   6.312
 4579POPC   C2B60476  19.913   2.384   6.805
 4579POPC   C3B60477  19.774   2.139   7.200
 4579POPC   C4B60478  19.940   2.152   7.616
 4580POPC   NC360479   1.055   0.983   5.567
 4580POPC   PO460480   1.515   1.344   5.719
 4580POPC   GL160481   1.099   1.373   5.945
 4580POPC   GL260482   1.063   1.028   6.068
 4580POPC   C1A60483   1.023   1.403   6.411
 4580POPC   D2A60484   1.327   1.463   6.727
 4580POPC   C3A60485   1.166   1.393   7.131
 4580POPC   C4A60486   1.290   1.568   7.499
 4580POPC   C1B60487   1.416   1.051   6.364
 4580POPC   C2B60488   1.242   0.913   6.742
 4580POPC   C3B60489   1.302   0.900   7.158
 4580POPC   C4B60490   0.980   0.973   7.450
 4581POPC   NC360491  37.075  21.116   5.159
 4581POPC   PO460492  36.710  20.757   5.578
 4581POPC   GL160493  37.009  20.622   5.823
 4581POPC   GL260494  37.021  20.277   5.694
 4581POPC   C1A60495  36.900  20.730   6.250
 4581POPC   D2A60496  36.989  20.789   6.678
 4581POPC   C3A60497  36.676  20.684   6.976
 4581POPC   C4A60498  36.768  20.835   7.399
 4581POPC   C1B60499  36.680  20.273   6.039
 4581POPC   C2B60500  36.802  20.286   6.487
 4581POPC   C3B60501  37.057  20.303   6.871
 4581POPC   C4B60502  36.956  20.381   7.302
 4582POPC   NC360503  42.537   5.661   5.505
 4582POPC   PO460504  41.882   5.547   5.420
 4582POPC   GL160505  42.116   5.702   5.816
 4582POPC   GL260506  42.089   6.036   5.945
 4582POPC   C1A60507  42.299   5.709   6.266
 4582POPC   D2A60508  42.287   5.505   6.692
 4582POPC   C3A60509  42.556   5.687   7.045
 4582POPC   C4A60510  42.515   5.743   7.513
 4582POPC   C1B60511  42.051   6.156   6.392
 4582POPC   C2B60512  41.844   6.171   6.805
 4582POPC   C3B60513  41.887   6.306   7.239
 4582POPC   C4B60514  42.239   6.163   7.503
 4583POPC   NC360515  15.688  31.210   5.398
 4583POPC   PO460516  16.122  31.764   5.316
 4583POPC   GL160517  16.058  31.448   5.684
 4583POPC   GL260518  15.720  31.523   5.825
 4583POPC   C1A60519  15.996  31.176   6.090
 4583POPC   D2A60520  16.161  31.337   6.503
 4583POPC   C3A60521  16.115  31.357   6.942
 4583POPC   C4A60522  15.931  31.295   7.322
 4583POPC   C1B60523  15.590  31.432   6.276
 4583POPC   C2B60524  15.662  31.294   6.689
 4583POPC   C3B60525  15.477  31.274   7.087
 4583POPC   C4B60526  15.483  31.523   7.482
 4584POPC   NC360527  11.196  40.033   5.266
 4584POPC   PO460528  11.804  39.695   5.364
 4584POPC   GL160529  11.494  39.792   5.695
 4584POPC   GL260530  11.129  39.695   5.666
 4584POPC   C1A60531  11.553  39.903   6.143
 4584POPC   D2A60532  11.334  40.110   6.489
 4584POPC   C3A60533  11.535  40.029   6.871
 4584POPC   C4A60534  11.373  40.242   7.211
 4584POPC   C1B60535  11.033  39.880   6.079
 4584POPC   C2B60536  10.911  39.799   6.515
 4584POPC   C3B60537  10.853  40.018   6.886
 4584POPC   C4B60538  10.921  39.969   7.303
 4585POPC   NC360539  41.878   6.022   5.458
 4585POPC   PO460540  41.257   5.852   5.557
 4585POPC   GL160541  41.594   5.795   5.816
 4585POPC   GL260542  41.597   6.129   5.895
 4585POPC   C1A60543  41.774   5.740   6.220
 4585POPC   D2A60544  41.766   5.450   6.551
 4585POPC   C3A60545  41.838   5.669   6.930
 4585POPC   C4A60546  41.921   5.807   7.326
 4585POPC   C1B60547  41.527   6.214   6.330
 4585POPC   C2B60548  41.420   5.898   6.631
 4585POPC   C3B60549  41.401   5.923   7.066
 4585POPC   C4B60550  41.488   6.014   7.472
 4586POPC   NC360551  15.623  39.658   5.406
 4586POPC   PO460552  16.073  39.116   5.531
 4586POPC   GL160553  15.862  39.039   5.907
 4586POPC   GL260554  16.096  39.233   6.078
 4586POPC   C1A60555  15.784  38.879   6.303
 4586POPC   D2A60556  15.882  39.209   6.588
 4586POPC   C3A60557  16.044  39.166   6.993
 4586POPC   C4A60558  15.853  39.043   7.381
 4586POPC   C1B60559  15.696  39.462   6.167
 4586POPC   C2B60560  15.519  39.615   6.559
 4586POPC   C3B60561  15.787  39.608   6.906
 4586POPC   C4B60562  15.829  39.554   7.305
 4587POPC   NC360563   6.200  30.569   5.241
 4587POPC   PO460564   5.763  31.070   5.419
 4587POPC   GL160565   5.864  30.660   5.692
 4587POPC   GL260566   5.630  30.639   6.005
 4587POPC   C1A60567   6.076  30.447   6.088
 4587POPC   D2A60568   6.149  30.655   6.494
 4587POPC   C3A60569   5.870  30.622   6.841
 4587POPC   C4A60570   5.820  30.533   7.253
 4587POPC   C1B60571   5.830  30.993   6.275
 4587POPC   C2B60572   5.920  31.118   6.735
 4587POPC   C3B60573   5.692  31.182   7.135
 4587POPC   C4B60574   5.569  30.962   7.512
 4588POPC   NC360575  29.095   4.525   5.494
 4588POPC   PO460576  29.269   3.896   5.542
 4588POPC   GL160577  29.252   4.170   5.873
 4588POPC   GL260578  29.362   4.489   5.926
 4588POPC   C1A60579  29.489   4.134   6.256
 4588POPC   D2A60580  29.589   4.327   6.632
 4588POPC   C3A60581  29.215   4.482   6.848
 4588POPC   C4A60582  29.156   4.298   7.237
 4588POPC   C1B60583  29.303   4.660   6.343
 4588POPC   C2B60584  29.541   4.850   6.636
 4588POPC   C3B60585  29.634   4.698   7.031
 4588POPC   C4B60586  29.519   4.631   7.422
 4589POPC   NC360587   5.565  33.950   5.373
 4589POPC   PO460588   6.227  33.687   5.406
 4589POPC   GL160589   6.061  33.853   5.810
 4589POPC   GL260590   5.715  33.992   5.859
 4589POPC   C1A60591   6.002  33.623   6.226
 4589POPC   D2A60592   6.095  33.826   6.636
 4589POPC   C3A60593   5.947  33.743   7.019
 4589POPC   C4A60594   6.081  33.459   7.299
 4589POPC   C1B60595   5.847  34.109   6.271
 4589POPC   C2B60596   5.739  34.211   6.690
 4589POPC   C3B60597   5.861  34.250   7.101
 4589POPC   C4B60598   5.708  33.982   7.426
 4590POPC   NC360599  25.655  39.330   5.308
 4590POPC   PO460600  25.021  39.326   5.311
 4590POPC   GL160601  25.229  39.509   5.711
 4590POPC   GL260602  25.591  39.525   5.783
 4590POPC   C1A60603  25.279  39.556   6.199
 4590POPC   D2A60604  25.186  39.496   6.667
 4590POPC   C3A60605  25.238  39.245   7.062
 4590POPC   C4A60606  25.135  39.273   7.518
 4590POPC   C1B60607  25.778  39.615   6.188
 4590POPC   C2B60608  25.629  39.792   6.601
 4590POPC   C3B60609  25.506  39.676   7.029
 4590POPC   C4B60610  25.613  39.416   7.390
 4591POPC   NC360611  17.465  13.106   5.418
 4591POPC   PO460612  17.758  12.450   5.401
 4591POPC   GL160613  17.545  12.535   5.776
 4591POPC   GL260614  17.248  12.715   5.683
 4591POPC   C1A60615  17.725  12.645   6.186
 4591POPC   D2A60616  17.699  12.912   6.555
 4591POPC   C3A60617  17.715  12.715   6.928
 4591POPC   C4A60618  17.555  12.765   7.313
 4591POPC   C1B60619  17.258  12.849   6.134
 4591POPC   C2B60620  17.204  12.743   6.585
 4591POPC   C3B60621  17.172  12.896   7.004
 4591POPC   C4B60622  17.083  12.794   7.468
 4592POPC   NC360623  27.836   9.865   5.222
 4592POPC   PO460624  27.440   9.581   5.717
 4592POPC   GL160625  27.703   9.517   6.052
 4592POPC   GL260626  27.856   9.867   6.007
 4592POPC   C1A60627  27.687   9.364   6.467
 4592POPC   D2A60628  27.307   9.392   6.706
 4592POPC   C3A60629  27.431   9.532   7.102
 4592POPC   C4A60630  27.916   9.561   7.165
 4592POPC   C1B60631  27.532   9.868   6.357
 4592POPC   C2B60632  27.675   9.795   6.755
 4592POPC   C3B60633  27.671   9.988   7.136
 4592POPC   C4B60634  27.409  10.073   7.480
 4593POPC   NC360635  25.003  24.422   5.505
 4593POPC   PO460636  25.660  24.664   5.369
 4593POPC   GL160637  25.421  24.542   5.762
 4593POPC   GL260638  25.115  24.743   5.891
 4593POPC   C1A60639  25.263  24.348   6.151
 4593POPC   D2A60640  25.432  24.246   6.543
 4593POPC   C3A60641  25.249  24.292   6.947
 4593POPC   C4A60642  25.052  24.516   7.276
 4593POPC   C1B60643  25.489  24.807   6.200
 4593POPC   C2B60644  25.683  24.701   6.624
 4593POPC   C3B60645  25.477  24.739   7.056
 4593POPC   C4B60646  25.443  24.678   7.538
 4594POPC   NC360647  12.270  11.776   5.597
 4594POPC   PO460648  12.792  12.207   5.368
 4594POPC   GL160649  12.735  12.134   5.769
 4594POPC   GL260650  12.407  12.269   5.743
 4594POPC   C1A60651  12.778  12.029   6.217
 4594POPC   D2A60652  12.976  12.091   6.660
 4594POPC   C3A60653  12.752  11.955   7.057
 4594POPC   C4A60654  12.529  11.777   7.428
 4594POPC   C1B60655  12.576  12.528   6.075
 4594POPC   C2B60656  12.694  12.470   6.480
 4594POPC   C3B60657  12.583  12.432   6.895
 4594POPC   C4B60658  12.933  12.425   7.172
 4595POPC   NC360659  32.648  17.551   5.364
 4595POPC   PO460660  33.099  17.054   5.357
 4595POPC   GL160661  33.210  17.337   5.719
 4595POPC   GL260662  33.054  17.696   5.685
 4595POPC   C1A60663  33.071  17.415   6.157
 4595POPC   D2A60664  32.846  17.184   6.496
 4595POPC   C3A60665  32.935  17.256   6.905
 4595POPC   C4A60666  32.782  17.621   7.087
 4595POPC   C1B60667  33.273  17.891   6.048
 4595POPC   C2B60668  33.360  17.748   6.477
 4595POPC   C3B60669  33.262  17.637   6.903
 4595POPC   C4B60670  33.179  17.711   7.368
 4596POPC   NC360671  32.827   6.890   5.493
 4596POPC   PO460672  33.317   6.603   5.373
 4596POPC   GL160673  33.192   6.580   5.789
 4596POPC   GL260674  33.496   6.483   5.911
 4596POPC   C1A60675  32.937   6.787   6.134
 4596POPC   D2A60676  32.768   6.802   6.547
 4596POPC   C3A60677  33.029   6.586   6.866
 4596POPC   C4A60678  32.836   6.627   7.264
 4596POPC   C1B60679  33.326   6.497   6.322
 4596POPC   C2B60680  33.583   6.510   6.699
 4596POPC   C3B60681  33.532   6.251   7.040
 4596POPC   C4B60682  33.309   6.450   7.319
 4597POPC   NC360683  35.949  28.060   5.628
 4597POPC   PO460684  36.228  27.465   5.319
 4597POPC   GL160685  36.319  27.461   5.799
 4597POPC   GL260686  36.349  27.788   5.859
 4597POPC   C1A60687  36.215  27.559   6.293
 4597POPC   D2A60688  36.224  27.898   6.653
 4597POPC   C3A60689  36.149  27.675   7.065
 4597POPC   C4A60690  36.052  27.256   7.244
 4597POPC   C1B60691  36.593  27.877   6.222
 4597POPC   C2B60692  36.729  27.836   6.630
 4597POPC   C3B60693  36.599  27.918   7.041
 4597POPC   C4B60694  36.573  27.778   7.472
 4598POPC   NC360695   9.389  21.677   5.419
 4598POPC   PO460696   8.800  21.401   5.482
 4598POPC   GL160697   8.997  21.576   5.807
 4598POPC   GL260698   9.068  21.240   5.884
 4598POPC   C1A60699   8.792  21.655   6.195
 4598POPC   D2A60700   8.589  21.453   6.512
 4598POPC   C3A60701   8.792  21.583   6.874
 4598POPC   C4A60702   8.712  21.693   7.269
 4598POPC   C1B60703   9.080  21.044   6.242
 4598POPC   C2B60704   9.111  21.252   6.623
 4598POPC   C3B60705   9.415  21.356   6.904
 4598POPC   C4B60706   9.399  21.574   7.265
 4599POPC   NC360707  33.483  10.884   5.620
 4599POPC   PO460708  33.980  10.565   5.271
 4599POPC   GL160709  34.015  10.479   5.771
 4599POPC   GL260710  33.683  10.484   5.882
 4599POPC   C1A60711  33.942  10.383   6.282
 4599POPC   D2A60712  33.593  10.363   6.583
 4599POPC   C3A60713  33.711  10.501   6.986
 4599POPC   C4A60714  33.782  10.468   7.424
 4599POPC   C1B60715  33.579  10.752   6.239
 4599POPC   C2B60716  33.428  10.849   6.626
 4599POPC   C3B60717  33.242  10.675   6.984
 4599POPC   C4B60718  33.453  10.848   7.304
 4600POPC   NC360719  43.937  17.062   5.419
 4600POPC   PO460720  43.361  17.443   5.299
 4600POPC   GL160721  43.622  17.370   5.685
 4600POPC   GL260722  43.806  17.666   5.846
 4600POPC   C1A60723  43.663  17.144   6.081
 4600POPC   D2A60724  43.858  17.138   6.494
 4600POPC   C3A60725  43.753  17.262   6.917
 4600POPC   C4A60726  44.083  17.316   7.253
 4600POPC   C1B60727  44.119  17.704   6.142
 4600POPC   C2B60728  44.207  17.511   6.519
 4600POPC   C3B60729  44.077  17.669   6.895
 4600POPC   C4B60730  44.261  17.820   7.272
 4601POPC   NC360731  37.132  19.583   5.406
 4601POPC   PO460732  36.503  19.854   5.351
 4601POPC   GL160733  36.764  19.811   5.694
 4601POPC   GL260734  36.609  19.500   5.780
 4601POPC   C1A60735  37.041  19.926   6.076
 4601POPC   D2A60736  37.179  19.922   6.528
 4601POPC   C3A60737  36.934  19.780   6.881
 4601POPC   C4A60738  36.932  19.628   7.303
 4601POPC   C1B60739  36.552  19.769   6.146
 4601POPC   C2B60740  36.500  19.881   6.566
 4601POPC   C3B60741  36.569  20.151   6.932
 4601POPC   C4B60742  36.621  20.013   7.345
 4602POPC   NC360743  34.012   8.847   5.411
 4602POPC   PO460744  33.374   9.022   5.477
 4602POPC   GL160745  33.650   9.085   5.851
 4602POPC   GL260746  34.034   9.167   5.828
 4602POPC   C1A60747  33.673   9.076   6.312
 4602POPC   D2A60748  33.930   9.181   6.651
 4602POPC   C3A60749  33.740   9.091   7.058
 4602POPC   C4A60750  33.740   9.062   7.534
 4602POPC   C1B60751  34.019   8.765   6.092
 4602POPC   C2B60752  33.941   8.670   6.529
 4602POPC   C3B60753  34.100   8.759   6.940
 4602POPC   C4B60754  34.058   8.701   7.375
 4603POPC   NC360755  24.522  27.014   5.447
 4603POPC   PO460756  24.482  27.691   5.269
 4603POPC   GL160757  24.539  27.475   5.682
 4603POPC   GL260758  24.613  27.765   5.788
 4603POPC   C1A60759  24.538  27.407   6.163
 4603POPC   D2A60760  24.380  27.665   6.540
 4603POPC   C3A60761  24.271  27.583   6.961
 4603POPC   C4A60762  24.543  27.382   7.251
 4603POPC   C1B60763  24.558  27.942   6.157
 4603POPC   C2B60764  24.818  27.971   6.537
 4603POPC   C3B60765  24.745  27.759   6.921
 4603POPC   C4B60766  24.547  27.881   7.285
 4604POPC   NC360767   7.012   8.398   5.326
 4604POPC   PO460768   6.607   7.893   5.121
 4604POPC   GL160769   6.664   8.089   5.575
 4604POPC   GL260770   6.715   7.800   5.790
 4604POPC   C1A60771   6.693   8.231   6.058
 4604POPC   D2A60772   6.515   8.129   6.496
 4604POPC   C3A60773   6.424   8.391   6.867
 4604POPC   C4A60774   6.691   8.447   7.219
 4604POPC   C1B60775   6.534   7.674   6.198
 4604POPC   C2B60776   6.658   7.623   6.635
 4604POPC   C3B60777   6.736   7.914   6.982
 4604POPC   C4B60778   6.499   7.898   7.353
 4605POPC   NC360779  38.191  41.934   5.562
 4605POPC   PO460780  38.569  42.558   5.481
 4605POPC   GL160781  38.408  42.336   5.799
 4605POPC   GL260782  38.594  42.023   5.828
 4605POPC   C1A60783  38.578  42.396   6.188
 4605POPC   D2A60784  38.448  42.575   6.539
 4605POPC   C3A60785  38.416  42.450   6.947
 4605POPC   C4A60786  38.731  42.419   7.223
 4605POPC   C1B60787  38.412  41.933   6.234
 4605POPC   C2B60788  38.614  42.074   6.596
 4605POPC   C3B60789  38.677  41.887   6.941
 4605POPC   C4B60790  38.407  42.020   7.261
 4606POPC   NC360791  31.848  14.746   5.566
 4606POPC   PO460792  32.427  14.822   5.236
 4606POPC   GL160793  32.341  14.547   5.628
 4606POPC   GL260794  32.220  14.193   5.695
 4606POPC   C1A60795  32.161  14.529   6.070
 4606POPC   D2A60796  31.905  14.679   6.443
 4606POPC   C3A60797  32.041  14.550   6.860
 4606POPC   C4A60798  32.365  14.719   7.163
 4606POPC   C1B60799  32.373  14.067   6.105
 4606POPC   C2B60800  32.356  14.323   6.485
 4606POPC   C3B60801  32.467  14.273   6.904
 4606POPC   C4B60802  32.176  14.242   7.253
 4607POPC   NC360803  22.219  28.247   5.218
 4607POPC   PO460804  22.185  28.909   5.220
 4607POPC   GL160805  22.071  28.599   5.588
 4607POPC   GL260806  22.280  28.329   5.719
 4607POPC   C1A60807  21.904  28.468   6.036
 4607POPC   D2A60808  21.939  28.740   6.417
 4607POPC   C3A60809  22.071  28.535   6.802
 4607POPC   C4A60810  21.973  28.267   7.170
 4607POPC   C1B60811  22.386  28.182   6.123
 4607POPC   C2B60812  22.229  28.137   6.522
 4607POPC   C3B60813  22.405  28.139   6.920
 4607POPC   C4B60814  22.306  27.873   7.278
 4608POPC   NC360815  23.757  32.664   5.420
 4608POPC   PO460816  24.059  32.052   5.306
 4608POPC   GL160817  23.920  32.239   5.688
 4608POPC   GL260818  23.800  31.927   5.795
 4608POPC   C1A60819  23.837  32.303   6.152
 4608POPC   D2A60820  23.775  32.531   6.557
 4608POPC   C3A60821  23.513  32.366   6.886
 4608POPC   C4A60822  23.476  32.072   7.200
 4608POPC   C1B60823  23.690  31.808   6.223
 4608POPC   C2B60824  23.745  31.983   6.626
 4608POPC   C3B60825  23.888  31.811   7.008
 4608POPC   C4B60826  23.882  31.876   7.425
 4609POPC   NC360827  36.776  17.740   5.412
 4609POPC   PO460828  37.203  17.224   5.344
 4609POPC   GL160829  37.110  17.474   5.728
 4609POPC   GL260830  36.765  17.527   5.866
 4609POPC   C1A60831  37.194  17.607   6.175
 4609POPC   D2A60832  37.283  17.382   6.567
 4609POPC   C3A60833  37.066  17.496   6.963
 4609POPC   C4A60834  37.076  17.873   7.222
 4609POPC   C1B60835  36.532  17.224   6.110
 4609POPC   C2B60836  36.472  17.301   6.534
 4609POPC   C3B60837  36.338  17.424   6.937
 4609POPC   C4B60838  36.619  17.463   7.266
 4610POPC   NC360839  40.219  22.449   5.405
 4610POPC   PO460840  40.325  21.856   5.169
 4610POPC   GL160841  40.243  21.987   5.635
 4610POPC   GL260842  39.896  22.077   5.773
 4610POPC   C1A60843  40.238  22.048   6.117
 4610POPC   D2A60844  39.954  22.074   6.472
 4610POPC   C3A60845  40.117  22.191   6.828
 4610POPC   C4A60846  40.067  22.106   7.223
 4610POPC   C1B60847  39.854  22.445   6.154
 4610POPC   C2B60848  39.879  22.666   6.618
 4610POPC   C3B60849  39.828  22.539   7.093
 4610POPC   C4B60850  39.755  22.372   7.537
 4611POPC   NC360851   2.545   3.922   5.590
 4611POPC   PO460852   2.983   3.684   5.135
 4611POPC   GL160853   2.828   3.490   5.640
 4611POPC   GL260854   2.644   3.133   5.705
 4611POPC   C1A60855   2.804   3.534   6.160
 4611POPC   D2A60856   2.931   3.411   6.644
 4611POPC   C3A60857   2.790   3.682   7.030
 4611POPC   C4A60858   3.005   3.928   7.404
 4611POPC   C1B60859   2.411   3.183   6.101
 4611POPC   C2B60860   2.422   3.376   6.520
 4611POPC   C3B60861   2.420   3.239   6.949
 4611POPC   C4B60862   2.561   3.315   7.376
 4612POPC   NC360863   4.704  44.155   5.531
 4612POPC   PO460864   4.069  44.012   5.475
 4612POPC   GL160865   4.276  44.028   5.795
 4612POPC   GL260866   4.445  43.706   5.794
 4612POPC   C1A60867   4.260  44.220   6.171
 4612POPC   D2A60868   4.178  44.106   6.585
 4612POPC   C3A60869   4.375  44.062   6.980
 4612POPC   C4A60870   4.109  43.750   7.131
 4612POPC   C1B60871   4.178  43.714   6.186
 4612POPC   C2B60872   4.187  43.565   6.612
 4612POPC   C3B60873   4.523  43.573   6.903
 4612POPC   C4B60874   4.707  43.451   7.286
 4613POPC   NC360875   3.933  18.590   5.621
 4613POPC   PO460876   3.570  18.139   5.307
 4613POPC   GL160877   3.442  18.329   5.657
 4613POPC   GL260878   3.205  18.049   5.748
 4613POPC   C1A60879   3.423  18.571   6.044
 4613POPC   D2A60880   3.538  18.413   6.453
 4613POPC   C3A60881   3.470  18.574   6.866
 4613POPC   C4A60882   3.716  18.467   7.236
 4613POPC   C1B60883   3.535  18.026   6.078
 4613POPC   C2B60884   3.693  17.921   6.479
 4613POPC   C3B60885   3.495  18.053   6.841
 4613POPC   C4B60886   3.456  18.010   7.243
 4614POPC   NC360887  28.130  21.207   5.467
 4614POPC   PO460888  28.654  21.587   5.425
 4614POPC   GL160889  28.566  21.315   5.834
 4614POPC   GL260890  28.237  21.140   5.953
 4614POPC   C1A60891  28.448  21.455   6.273
 4614POPC   D2A60892  28.389  21.370   6.721
 4614POPC   C3A60893  28.384  21.746   6.972
 4614POPC   C4A60894  28.484  21.650   7.392
 4614POPC   C1B60895  28.322  20.967   6.375
 4614POPC   C2B60896  28.548  20.883   6.765
 4614POPC   C3B60897  28.632  21.067   7.138
 4614POPC   C4B60898  28.427  21.041   7.539
 4615POPC   NC360899  35.275  37.434   5.240
 4615POPC   PO460900  35.554  37.957   5.293
 4615POPC   GL160901  35.438  37.750   5.690
 4615POPC   GL260902  35.195  37.474   5.756
 4615POPC   C1A60903  35.391  37.806   6.148
 4615POPC   D2A60904  35.604  37.668   6.527
 4615POPC   C3A60905  35.658  37.890   6.899
 4615POPC   C4A60906  35.638  37.729   7.319
 4615POPC   C1B60907  35.037  37.432   6.188
 4615POPC   C2B60908  35.193  37.352   6.594
 4615POPC   C3B60909  35.302  37.498   6.990
 4615POPC   C4B60910  35.241  37.425   7.446
 4616POPC   NC360911  18.484   0.753   5.577
 4616POPC   PO460912  18.161   1.185   5.148
 4616POPC   GL160913  18.123   1.085   5.651
 4616POPC   GL260914  18.172   1.385   5.869
 4616POPC   C1A60915  18.046   0.964   6.109
 4616POPC   D2A60916  17.951   1.206   6.483
 4616POPC   C3A60917  18.013   1.002   6.885
 4616POPC   C4A60918  18.117   1.220   7.245
 4616POPC   C1B60919  18.414   1.291   6.240
 4616POPC   C2B60920  18.408   0.966   6.560
 4616POPC   C3B60921  18.547   1.089   6.970
 4616POPC   C4B60922  18.579   1.425   7.255
 4617POPC   NC360923  32.042  14.989   5.035
 4617POPC   PO460924  32.201  15.493   5.424
 4617POPC   GL160925  32.230  15.098   5.646
 4617POPC   GL260926  32.574  15.014   5.701
 4617POPC   C1A60927  32.083  15.028   6.091
 4617POPC   D2A60928  32.170  15.164   6.492
 4617POPC   C3A60929  31.995  15.048   6.874
 4617POPC   C4A60930  32.064  15.108   7.303
 4617POPC   C1B60931  32.517  15.300   6.062
 4617POPC   C2B60932  32.618  15.391   6.501
 4617POPC   C3B60933  32.483  15.219   6.930
 4617POPC   C4B60934  32.508  15.405   7.333
 4618POPC   NC360935   0.629   5.106   4.994
 4618POPC   PO460936   0.216   5.106   5.403
 4618POPC   GL160937   0.135   5.118   5.853
 4618POPC   GL260938  44.988   5.445   5.818
 4618POPC   C1A60939   0.408   5.080   6.246
 4618POPC   D2A60940   0.562   5.207   6.673
 4618POPC   C3A60941   0.533   4.892   7.054
 4618POPC   C4A60942   0.307   4.723   7.451
 4618POPC   C1B60943  44.861   5.338   6.225
 4618POPC   C2B60944   0.052   5.317   6.609
 4618POPC   C3B60945   0.151   5.272   7.042
 4618POPC   C4B60946  44.982   5.138   7.458
 4619POPC   NC360947   4.993  13.892   5.417
 4619POPC   PO460948   5.325  14.355   5.118
 4619POPC   GL160949   5.268  14.414   5.587
 4619POPC   GL260950   4.920  14.352   5.638
 4619POPC   C1A60951   5.326  14.431   6.070
 4619POPC   D2A60952   5.328  14.456   6.540
 4619POPC   C3A60953   5.140  14.397   6.943
 4619POPC   C4A60954   5.122  14.008   7.131
 4619POPC   C1B60955   4.855  14.257   6.095
 4619POPC   C2B60956   4.810  14.366   6.520
 4619POPC   C3B60957   4.686  14.188   6.898
 4619POPC   C4B60958   4.743  14.296   7.306
 4620POPC   NC360959  26.194  10.756   5.358
 4620POPC   PO460960  25.768  10.179   5.403
 4620POPC   GL160961  26.112  10.317   5.716
 4620POPC   GL260962  26.435  10.252   5.865
 4620POPC   C1A60963  26.124  10.414   6.222
 4620POPC   D2A60964  25.943  10.593   6.609
 4620POPC   C3A60965  26.067  10.347   6.952
 4620POPC   C4A60966  26.157  10.416   7.374
 4620POPC   C1B60967  26.556  10.679   6.043
 4620POPC   C2B60968  26.323  10.857   6.396
 4620POPC   C3B60969  26.400  10.703   6.801
 4620POPC   C4B60970  26.422  10.842   7.172
 4621POPC   NC360971   5.678  44.773   5.211
 4621POPC   PO460972   6.261  44.886   5.420
 4621POPC   GL160973   5.872  44.720   5.721
 4621POPC   GL260974   5.538  44.586   5.684
 4621POPC   C1A60975   5.949  44.513   6.134
 4621POPC   D2A60976   6.188  44.546   6.496
 4621POPC   C3A60977   6.032  44.755   6.863
 4621POPC   C4A60978   6.022  44.645   7.284
 4621POPC   C1B60979   5.482  44.765   6.088
 4621POPC   C2B60980   5.631  44.711   6.515
 4621POPC   C3B60981   5.521  44.709   6.960
 4621POPC   C4B60982   5.526  44.482   7.350
 4622POPC   NC360983  37.508  11.606   5.480
 4622POPC   PO460984  37.496  10.941   5.545
 4622POPC   GL160985  37.605  11.256   5.855
 4622POPC   GL260986  37.910  11.453   5.833
 4622POPC   C1A60987  37.585  11.437   6.259
 4622POPC   D2A60988  37.257  11.373   6.570
 4622POPC   C3A60989  37.456  11.213   6.948
 4622POPC   C4A60990  37.534  11.471   7.289
 4622POPC   C1B60991  38.093  11.702   6.172
 4622POPC   C2B60992  38.130  11.644   6.610
 4622POPC   C3B60993  38.097  11.500   7.024
 4622POPC   C4B60994  37.930  11.141   7.255
 4623POPC   NC360995  22.148  13.151   5.370
 4623POPC   PO460996  22.802  13.328   5.529
 4623POPC   GL160997  22.394  13.267   5.808
 4623POPC   GL260998  22.272  12.899   5.830
 4623POPC   C1A60999  22.247  13.192   6.263
 4623POPC   D2A61000  22.348  12.914   6.650
 4623POPC   C3A61001  22.088  12.920   7.045
 4623POPC   C4A61002  22.059  13.081   7.487
 4623POPC   C1B61003  22.491  12.679   6.189
 4623POPC   C2B61004  22.459  12.401   6.554
 4623POPC   C3B61005  22.516  12.531   7.002
 4623POPC   C4B61006  22.281  12.579   7.404
 4624POPC   NC361007  18.235  12.469   5.427
 4624POPC   PO461008  18.549  13.061   5.420
 4624POPC   GL161009  18.300  12.944   5.785
 4624POPC   GL261010  18.012  12.770   5.772
 4624POPC   C1A61011  18.104  13.025   6.205
 4624POPC   D2A61012  18.134  13.281   6.529
 4624POPC   C3A61013  18.088  13.063   6.878
 4624POPC   C4A61014  18.053  12.919   7.284
 4624POPC   C1B61015  18.249  12.559   6.160
 4624POPC   C2B61016  18.065  12.547   6.564
 4624POPC   C3B61017  18.191  12.467   6.938
 4624POPC   C4B61018  18.359  12.504   7.296
 4625POPC   NC361019  41.680  11.209   5.572
 4625POPC   PO461020  41.115  11.319   5.361
 4625POPC   GL161021  41.187  11.126   5.774
 4625POPC   GL261022  40.960  10.821   5.790
 4625POPC   C1A61023  41.361  11.296   6.186
 4625POPC   D2A61024  41.313  11.549   6.576
 4625POPC   C3A61025  41.403  11.374   6.990
 4625POPC   C4A61026  41.753  11.142   7.192
 4625POPC   C1B61027  41.123  10.846   6.233
 4625POPC   C2B61028  41.332  10.995   6.635
 4625POPC   C3B61029  41.301  10.876   7.097
 4625POPC   C4B61030  41.551  10.745   7.482
 4626POPC   NC361031  30.393  39.929   5.599
 4626POPC   PO461032  29.931  40.217   5.138
 4626POPC   GL161033  29.893  40.099   5.625
 4626POPC   GL261034  29.590  39.960   5.689
 4626POPC   C1A61035  29.968  40.187   6.136
 4626POPC   D2A61036  30.031  40.341   6.635
 4626POPC   C3A61037  30.079  40.073   7.037
 4626POPC   C4A61038  30.179  39.629   7.115
 4626POPC   C1B61039  29.475  40.035   6.127
 4626POPC   C2B61040  29.653  39.993   6.526
 4626POPC   C3B61041  29.646  39.805   6.913
 4626POPC   C4B61042  29.589  40.046   7.257
 4627POPC   NC361043  44.952  42.280   5.099
 4627POPC   PO461044  44.352  42.276   5.382
 4627POPC   GL161045  44.703  42.384   5.679
 4627POPC   GL261046  44.934  42.141   5.713
 4627POPC   C1A61047  44.843  42.410   6.140
 4627POPC   D2A61048  44.564  42.334   6.501
 4627POPC   C3A61049  44.699  42.361   6.924
 4627POPC   C4A61050  44.405  42.437   7.233
 4627POPC   C1B61051  44.908  41.893   6.106
 4627POPC   C2B61052  44.971  42.030   6.545
 4627POPC   C3B61053  44.982  41.940   6.997
 4627POPC   C4B61054  44.703  42.012   7.341
 4628POPC   NC361055  13.885  22.857   5.372
 4628POPC   PO461056  14.527  23.154   5.431
 4628POPC   GL161057  14.443  23.009   5.844
 4628POPC   GL261058  14.115  22.835   5.872
 4628POPC   C1A61059  14.422  23.149   6.267
 4628POPC   D2A61060  14.254  23.129   6.674
 4628POPC   C3A61061  14.400  22.953   7.082
 4628POPC   C4A61062  14.629  23.060   7.471
 4628POPC   C1B61063  13.896  22.569   6.251
 4628POPC   C2B61064  13.976  22.695   6.707
 4628POPC   C3B61065  14.195  22.494   7.091
 4628POPC   C4B61066  14.171  22.691   7.516
 4629POPC   NC361067  17.054  44.508   5.574
 4629POPC   PO461068  17.508  44.997   5.390
 4629POPC   GL161069  17.557  44.834   5.820
 4629POPC   GL261070  17.567  44.497   5.899
 4629POPC   C1A61071  17.707  44.799   6.276
 4629POPC   D2A61072  17.416  44.911   6.620
 4629POPC   C3A61073  17.496  44.826   7.046
 4629POPC   C4A61074  17.352  44.859   7.468
 4629POPC   C1B61075  17.603  44.308   6.304
 4629POPC   C2B61076  17.603  44.427   6.726
 4629POPC   C3B61077  17.584  44.282   7.143
 4629POPC   C4B61078  17.461  44.374   7.558
 4630POPC   NC361079  39.474   7.629   5.503
 4630POPC   PO461080  39.044   7.144   5.351
 4630POPC   GL161081  39.112   7.344   5.737
 4630POPC   GL261082  39.434   7.264   5.869
 4630POPC   C1A61083  39.175   7.595   6.143
 4630POPC   D2A61084  39.364   7.408   6.539
 4630POPC   C3A61085  39.296   7.627   6.911
 4630POPC   C4A61086  39.091   7.545   7.268
 4630POPC   C1B61087  39.197   7.082   6.171
 4630POPC   C2B61088  39.006   6.955   6.517
 4630POPC   C3B61089  39.023   7.123   6.895
 4630POPC   C4B61090  39.031   7.021   7.298
 4631POPC   NC361091  27.920   3.589   5.510
 4631POPC   PO461092  27.312   3.644   5.526
 4631POPC   GL161093  27.543   3.697   5.919
 4631POPC   GL261094  27.881   3.502   5.998
 4631POPC   C1A61095  27.491   3.487   6.323
 4631POPC   D2A61096  27.659   3.191   6.624
 4631POPC   C3A61097  27.434   3.322   6.961
 4631POPC   C4A61098  27.362   3.617   7.270
 4631POPC   C1B61099  27.897   3.826   6.300
 4631POPC   C2B61100  27.829   4.001   6.696
 4631POPC   C3B61101  27.721   3.958   7.089
 4631POPC   C4B61102  27.871   3.545   7.127
 4632POPC   NC361103  13.490  20.100   5.373
 4632POPC   PO461104  13.965  19.640   5.387
 4632POPC   GL161105  13.679  19.833   5.775
 4632POPC   GL261106  13.348  20.057   5.853
 4632POPC   C1A61107  13.494  19.695   6.191
 4632POPC   D2A61108  13.595  19.575   6.615
 4632POPC   C3A61109  13.888  19.833   6.855
 4632POPC   C4A61110  13.892  20.047   7.244
 4632POPC   C1B61111  13.275  20.178   6.273
 4632POPC   C2B61112  13.487  20.091   6.642
 4632POPC   C3B61113  13.412  19.932   7.049
 4632POPC   C4B61114  13.231  20.242   7.308
 4633POPC   NC361115  12.958  22.536   5.179
 4633POPC   PO461116  12.996  21.846   5.336
 4633POPC   GL161117  12.918  22.045   5.744
 4633POPC   GL261118  13.217  21.959   5.874
 4633POPC   C1A61119  12.911  22.198   6.206
 4633POPC   D2A61120  13.009  22.381   6.619
 4633POPC   C3A61121  12.883  22.205   7.014
 4633POPC   C4A61122  12.562  22.208   7.315
 4633POPC   C1B61123  13.315  21.744   6.242
 4633POPC   C2B61124  13.180  21.830   6.672
 4633POPC   C3B61125  13.077  21.710   7.099
 4633POPC   C4B61126  12.908  21.902   7.488
 4634POPC   NC361127  24.879   9.483   5.572
 4634POPC   PO461128  24.249   9.797   5.289
 4634POPC   GL161129  24.217  10.046   5.673
 4634POPC   GL261130  24.541  10.203   5.753
 4634POPC   C1A61131  24.190  10.063   6.130
 4634POPC   D2A61132  24.393   9.824   6.471
 4634POPC   C3A61133  24.401  10.022   6.874
 4634POPC   C4A61134  24.355   9.825   7.273
 4634POPC   C1B61135  24.782  10.006   6.152
 4634POPC   C2B61136  24.876   9.956   6.635
 4634POPC   C3B61137  24.772   9.668   6.997
 4634POPC   C4B61138  24.726   9.510   7.437
 4635POPC   NC361139  16.001  16.130   5.314
 4635POPC   PO461140  15.830  15.521   5.401
 4635POPC   GL161141  15.745  15.854   5.707
 4635POPC   GL261142  16.035  16.003   5.826
 4635POPC   C1A61143  15.636  15.895   6.158
 4635POPC   D2A61144  15.815  15.859   6.569
 4635POPC   C3A61145  15.681  15.821   6.990
 4635POPC   C4A61146  15.812  16.067   7.343
 4635POPC   C1B61147  16.101  16.131   6.246
 4635POPC   C2B61148  16.037  16.302   6.674
 4635POPC   C3B61149  16.155  16.007   6.969
 4635POPC   C4B61150  16.421  16.041   7.292
 4636POPC   NC361151  41.429   5.482   5.372
 4636POPC   PO461152  41.515   4.943   5.203
 4636POPC   GL161153  41.539   5.013   5.672
 4636POPC   GL261154  41.740   5.293   5.839
 4636POPC   C1A61155  41.317   4.914   6.077
 4636POPC   D2A61156  41.481   5.008   6.504
 4636POPC   C3A61157  41.534   4.720   6.865
 4636POPC   C4A61158  41.619   4.769   7.301
 4636POPC   C1B61159  41.393   5.420   6.122
 4636POPC   C2B61160  41.182   5.424   6.527
 4636POPC   C3B61161  41.374   5.435   6.895
 4636POPC   C4B61162  41.728   5.187   7.043
 4637POPC   NC361163  21.613   0.342   5.456
 4637POPC   PO461164  20.976   0.359   5.535
 4637POPC   GL161165  21.271   0.379   5.841
 4637POPC   GL261166  21.474   0.686   5.833
 4637POPC   C1A61167  21.252   0.162   6.194
 4637POPC   D2A61168  21.212   0.366   6.602
 4637POPC   C3A61169  21.366   0.202   6.989
 4637POPC   C4A61170  21.258   0.429   7.362
 4637POPC   C1B61171  21.591   0.525   6.265
 4637POPC   C2B61172  21.756   0.374   6.673
 4637POPC   C3B61173  21.760   0.506   7.119
 4637POPC   C4B61174  21.591   0.800   7.395
 4638POPC   NC361175  13.040  11.739   5.521
 4638POPC   PO461176  13.714  11.831   5.457
 4638POPC   GL161177  13.437  11.976   5.772
 4638POPC   GL261178  13.701  12.125   5.910
 4638POPC   C1A61179  13.269  12.196   6.176
 4638POPC   D2A61180  13.388  12.421   6.573
 4638POPC   C3A61181  13.354  12.202   6.996
 4638POPC   C4A61182  13.362  12.232   7.477
 4638POPC   C1B61183  14.029  11.962   6.168
 4638POPC   C2B61184  14.170  11.972   6.563
 4638POPC   C3B61185  14.048  11.858   6.959
 4638POPC   C4B61186  13.761  12.033   7.241
 4639POPC   NC361187  20.381   6.812   5.439
 4639POPC   PO461188  20.431   6.238   5.461
 4639POPC   GL161189  20.447   6.485   5.848
 4639POPC   GL261190  20.640   6.814   5.873
 4639POPC   C1A61191  20.429   6.543   6.296
 4639POPC   D2A61192  20.618   6.631   6.713
 4639POPC   C3A61193  20.412   6.437   7.099
 4639POPC   C4A61194  20.213   6.314   7.523
 4639POPC   C1B61195  20.541   7.035   6.240
 4639POPC   C2B61196  20.291   7.077   6.592
 4639POPC   C3B61197  20.338   6.950   6.989
 4639POPC   C4B61198  20.755   6.928   7.124
 4640POPC   NC361199   6.772  14.893   4.986
 4640POPC   PO461200   6.443  15.181   5.469
 4640POPC   GL161201   6.570  14.989   5.798
 4640POPC   GL261202   6.868  14.819   5.662
 4640POPC   C1A61203   6.596  15.202   6.188
 4640POPC   D2A61204   6.662  15.430   6.571
 4640POPC   C3A61205   6.629  15.232   6.962
 4640POPC   C4A61206   6.958  15.495   7.113
 4640POPC   C1B61207   6.895  14.792   6.128
 4640POPC   C2B61208   6.757  14.895   6.578
 4640POPC   C3B61209   6.862  14.786   7.030
 4640POPC   C4B61210   6.751  14.750   7.495
 4641POPC   NC361211  39.449  19.714   5.505
 4641POPC   PO461212  39.039  20.098   5.790
 4641POPC   GL161213  39.172  19.701   5.952
 4641POPC   GL261214  38.911  19.537   5.771
 4641POPC   C1A61215  39.477  19.650   6.304
 4641POPC   D2A61216  39.514  19.986   6.594
 4641POPC   C3A61217  39.211  19.930   6.921
 4641POPC   C4A61218  39.155  20.152   7.289
 4641POPC   C1B61219  38.748  19.487   6.185
 4641POPC   C2B61220  38.978  19.599   6.548
 4641POPC   C3B61221  38.836  19.520   6.971
 4641POPC   C4B61222  38.962  19.681   7.375
 4642POPC   NC361223  16.786  33.383   5.576
 4642POPC   PO461224  16.897  32.741   5.524
 4642POPC   GL161225  16.687  32.839   5.911
 4642POPC   GL261226  16.672  33.208   6.022
 4642POPC   C1A61227  16.810  32.861   6.336
 4642POPC   D2A61228  16.673  33.220   6.576
 4642POPC   C3A61229  16.678  33.106   6.989
 4642POPC   C4A61230  16.910  32.771   7.149
 4642POPC   C1B61231  17.084  33.322   6.245
 4642POPC   C2B61232  17.307  33.378   6.661
 4642POPC   C3B61233  17.118  33.368   7.065
 4642POPC   C4B61234  16.890  33.274   7.452
 4643POPC   NC361235  18.428  35.085   5.587
 4643POPC   PO461236  18.406  35.705   5.445
 4643POPC   GL161237  18.213  35.486   5.857
 4643POPC   GL261238  18.079  35.125   5.963
 4643POPC   C1A61239  18.088  35.495   6.318
 4643POPC   D2A61240  18.194  35.295   6.725
 4643POPC   C3A61241  18.097  35.512   7.120
 4643POPC   C4A61242  17.870  35.376   7.454
 4643POPC   C1B61243  18.381  34.913   6.264
 4643POPC   C2B61244  18.459  34.733   6.687
 4643POPC   C3B61245  18.306  34.816   7.077
 4643POPC   C4B61246  18.375  35.141   7.368
 4644POPC   NC361247  22.083  31.974   5.354
 4644POPC   PO461248  22.671  31.797   5.481
 4644POPC   GL161249  22.401  32.094   5.793
 4644POPC   GL261250  22.006  32.055   5.861
 4644POPC   C1A61251  22.281  32.369   6.190
 4644POPC   D2A61252  22.070  32.226   6.603
 4644POPC   C3A61253  22.052  32.449   6.993
 4644POPC   C4A61254  22.215  32.680   7.363
 4644POPC   C1B61255  22.208  31.874   6.226
 4644POPC   C2B61256  22.120  31.721   6.624
 4644POPC   C3B61257  22.142  31.872   7.040
 4644POPC   C4B61258  22.108  32.167   7.400
 4645POPC   NC361259  40.862  17.910   5.043
 4645POPC   PO461260  40.638  18.453   5.478
 4645POPC   GL161261  40.774  18.261   5.843
 4645POPC   GL261262  40.545  18.014   5.763
 4645POPC   C1A61263  40.928  18.299   6.241
 4645POPC   D2A61264  40.737  18.433   6.574
 4645POPC   C3A61265  40.963  18.246   6.856
 4645POPC   C4A61266  41.030  18.276   7.250
 4645POPC   C1B61267  40.433  18.130   6.201
 4645POPC   C2B61268  40.524  17.963   6.584
 4645POPC   C3B61269  40.476  18.150   6.976
 4645POPC   C4B61270  40.586  18.053   7.385
 4646POPC   NC361271  13.766  28.555   5.309
 4646POPC   PO461272  13.393  28.017   5.331
 4646POPC   GL161273  13.687  28.144   5.707
 4646POPC   GL261274  13.833  27.842   5.834
 4646POPC   C1A61275  13.647  28.387   6.141
 4646POPC   D2A61276  13.597  28.578   6.560
 4646POPC   C3A61277  13.409  28.433   6.982
 4646POPC   C4A61278  13.612  28.459   7.392
 4646POPC   C1B61279  13.686  27.893   6.256
 4646POPC   C2B61280  13.616  28.052   6.674
 4646POPC   C3B61281  13.638  27.977   7.100
 4646POPC   C4B61282  13.308  28.056   7.389
 4647POPC   NC361283   6.182   4.651   5.385
 4647POPC   PO461284   6.458   4.080   5.296
 4647POPC   GL161285   6.492   4.169   5.777
 4647POPC   GL261286   6.278   3.847   5.824
 4647POPC   C1A61287   6.569   4.454   6.167
 4647POPC   D2A61288   6.488   4.656   6.566
 4647POPC   C3A61289   6.641   4.561   6.975
 4647POPC   C4A61290   6.433   4.436   7.332
 4647POPC   C1B61291   6.506   3.943   6.222
 4647POPC   C2B61292   6.604   4.139   6.633
 4647POPC   C3B61293   6.528   4.007   7.067
 4647POPC   C4B61294   6.694   3.989   7.504
 4648POPC   NC361295  20.028  11.587   5.417
 4648POPC   PO461296  20.035  12.177   5.249
 4648POPC   GL161297  19.847  12.051   5.661
 4648POPC   GL261298  19.606  11.739   5.653
 4648POPC   C1A61299  19.953  12.179   6.120
 4648POPC   D2A61300  19.727  12.132   6.527
 4648POPC   C3A61301  19.902  12.201   6.937
 4648POPC   C4A61302  20.072  11.912   7.222
 4648POPC   C1B61303  19.555  11.851   6.092
 4648POPC   C2B61304  19.476  11.668   6.520
 4648POPC   C3B61305  19.613  11.714   6.980
 4648POPC   C4B61306  19.581  12.012   7.340
 4649POPC   NC361307  31.718   3.468   5.394
 4649POPC   PO461308  31.101   3.202   5.458
 4649POPC   GL161309  31.276   3.498   5.790
 4649POPC   GL261310  31.637   3.512   5.899
 4649POPC   C1A61311  31.208   3.616   6.228
 4649POPC   D2A61312  31.285   3.545   6.670
 4649POPC   C3A61313  31.016   3.630   7.014
 4649POPC   C4A61314  31.278   3.474   7.317
 4649POPC   C1B61315  31.701   3.457   6.363
 4649POPC   C2B61316  31.798   3.681   6.753
 4649POPC   C3B61317  31.758   3.656   7.200
 4649POPC   C4B61318  31.746   3.330   7.507
 4650POPC   NC361319  37.589  24.492   5.280
 4650POPC   PO461320  38.024  24.795   5.603
 4650POPC   GL161321  37.810  24.534   5.793
 4650POPC   GL261322  37.846  24.217   5.648
 4650POPC   C1A61323  37.885  24.561   6.222
 4650POPC   D2A61324  37.833  24.417   6.601
 4650POPC   C3A61325  37.840  24.651   6.934
 4650POPC   C4A61326  37.856  24.378   7.247
 4650POPC   C1B61327  37.719  24.082   6.058
 4650POPC   C2B61328  37.452  24.155   6.406
 4650POPC   C3B61329  37.476  24.138   6.869
 4650POPC   C4B61330  37.346  24.296   7.275
 4651POPC   NC361331  13.520  35.094   5.263
 4651POPC   PO461332  13.739  35.669   5.265
 4651POPC   GL161333  13.547  35.441   5.688
 4651POPC   GL261334  13.297  35.148   5.757
 4651POPC   C1A61335  13.718  35.226   6.098
 4651POPC   D2A61336  13.920  35.370   6.505
 4651POPC   C3A61337  13.767  35.410   6.934
 4651POPC   C4A61338  13.639  35.543   7.333
 4651POPC   C1B61339  13.337  34.882   6.148
 4651POPC   C2B61340  13.624  34.850   6.505
 4651POPC   C3B61341  13.507  34.866   6.913
 4651POPC   C4B61342  13.411  35.076   7.262
 4652POPC   NC361343  19.426  25.488   5.383
 4652POPC   PO461344  18.681  25.492   5.419
 4652POPC   GL161345  18.891  25.281   5.767
 4652POPC   GL261346  19.214  25.313   5.854
 4652POPC   C1A61347  18.832  25.279   6.233
 4652POPC   D2A61348  18.991  25.043   6.595
 4652POPC   C3A61349  18.985  25.120   7.078
 4652POPC   C4A61350  18.715  25.301   7.413
 4652POPC   C1B61351  19.333  25.372   6.308
 4652POPC   C2B61352  19.367  25.345   6.778
 4652POPC   C3B61353  19.447  25.391   7.220
 4652POPC   C4B61354  19.614  25.499   7.622
 4653POPC   NC361355  27.011   9.438   5.592
 4653POPC   PO461356  26.851   8.842   5.359
 4653POPC   GL161357  26.807   8.938   5.769
 4653POPC   GL261358  27.128   8.992   5.835
 4653POPC   C1A61359  26.647   8.775   6.156
 4653POPC   D2A61360  26.507   9.009   6.499
 4653POPC   C3A61361  26.504   8.845   6.912
 4653POPC   C4A61362  26.715   9.058   7.220
 4653POPC   C1B61363  27.017   9.100   6.291
 4653POPC   C2B61364  26.982   9.004   6.769
 4653POPC   C3B61365  27.204   9.082   7.164
 4653POPC   C4B61366  27.006   9.334   7.545
 4654POPC   NC361367  12.476  40.683   5.262
 4654POPC   PO461368  11.851  40.691   5.434
 4654POPC   GL161369  12.132  40.651   5.773
 4654POPC   GL261370  12.430  40.434   5.722
 4654POPC   C1A61371  12.026  40.702   6.221
 4654POPC   D2A61372  12.109  40.679   6.651
 4654POPC   C3A61373  11.870  40.956   6.855
 4654POPC   C4A61374  11.776  41.047   7.254
 4654POPC   C1B61375  12.496  40.485   6.163
 4654POPC   C2B61376  12.507  40.369   6.577
 4654POPC   C3B61377  12.523  40.525   6.984
 4654POPC   C4B61378  12.222  40.760   7.184
 4655POPC   NC361379  16.540   6.178   5.475
 4655POPC   PO461380  17.057   5.708   5.482
 4655POPC   GL161381  16.760   5.806   5.835
 4655POPC   GL261382  16.717   6.159   5.935
 4655POPC   C1A61383  16.765   5.541   6.192
 4655POPC   D2A61384  16.995   5.476   6.582
 4655POPC   C3A61385  16.725   5.442   6.962
 4655POPC   C4A61386  16.632   5.630   7.364
 4655POPC   C1B61387  16.567   6.338   6.317
 4655POPC   C2B61388  16.425   6.182   6.729
 4655POPC   C3B61389  16.634   6.085   7.117
 4655POPC   C4B61390  16.854   6.183   7.497
 4656POPC   NC361391  28.904   6.045   5.410
 4656POPC   PO461392  29.513   5.738   5.545
 4656POPC   GL161393  29.282   5.974   5.854
 4656POPC   GL261394  28.921   5.873   5.886
 4656POPC   C1A61395  29.272   5.784   6.260
 4656POPC   D2A61396  29.301   5.804   6.683
 4656POPC   C3A61397  29.458   5.464   6.907
 4656POPC   C4A61398  29.213   5.440   7.272
 4656POPC   C1B61399  28.745   5.928   6.280
 4656POPC   C2B61400  28.658   5.961   6.707
 4656POPC   C3B61401  28.848   5.808   7.100
 4656POPC   C4B61402  28.812   5.921   7.537
 4657POPC   NC361403  31.092  12.955   5.455
 4657POPC   PO461404  31.741  12.930   5.696
 4657POPC   GL161405  31.575  12.665   5.990
 4657POPC   GL261406  31.231  12.679   5.871
 4657POPC   C1A61407  31.625  12.879   6.385
 4657POPC   D2A61408  31.615  13.228   6.689
 4657POPC   C3A61409  31.653  12.978   7.036
 4657POPC   C4A61410  31.771  12.554   6.961
 4657POPC   C1B61411  31.122  12.863   6.245
 4657POPC   C2B61412  31.205  12.772   6.666
 4657POPC   C3B61413  31.139  13.005   7.008
 4657POPC   C4B61414  31.249  13.025   7.445
 4658POPC   NC361415   1.838  39.881   5.368
 4658POPC   PO461416   2.285  40.374   5.608
 4658POPC   GL161417   2.112  40.014   5.817
 4658POPC   GL261418   1.729  39.970   5.864
 4658POPC   C1A61419   2.048  40.047   6.260
 4658POPC   D2A61420   1.892  40.244   6.615
 4658POPC   C3A61421   2.109  40.084   6.968
 4658POPC   C4A61422   2.052  40.155   7.385
 4658POPC   C1B61423   1.670  39.700   6.266
 4658POPC   C2B61424   1.858  39.707   6.717
 4658POPC   C3B61425   1.809  39.725   7.211
 4658POPC   C4B61426   1.758  39.690   7.687
 4659POPC   NC361427  37.630  38.812   5.335
 4659POPC   PO461428  37.516  39.478   5.485
 4659POPC   GL161429  37.705  39.139   5.747
 4659POPC   GL261430  37.759  39.404   5.941
 4659POPC   C1A61431  37.928  38.997   6.163
 4659POPC   D2A61432  37.857  39.204   6.532
 4659POPC   C3A61433  37.712  38.941   6.851
 4659POPC   C4A61434  37.953  39.006   7.206
 4659POPC   C1B61435  37.470  39.402   6.250
 4659POPC   C2B61436  37.336  39.236   6.613
 4659POPC   C3B61437  37.456  39.425   6.957
 4659POPC   C4B61438  37.721  39.450   7.265
 4660POPC   NC361439   8.092  33.963   5.263
 4660POPC   PO461440   8.653  33.718   5.506
 4660POPC   GL161441   8.402  33.954   5.789
 4660POPC   GL261442   8.060  33.836   5.815
 4660POPC   C1A61443   8.492  33.982   6.245
 4660POPC   D2A61444   8.156  34.029   6.567
 4660POPC   C3A61445   8.198  33.866   6.994
 4660POPC   C4A61446   8.197  33.808   7.478
 4660POPC   C1B61447   7.885  33.697   6.243
 4660POPC   C2B61448   7.848  33.528   6.704
 4660POPC   C3B61449   7.899  33.523   7.179
 4660POPC   C4B61450   8.087  33.296   7.556
 4661POPC   NC361451  14.680  17.306   5.291
 4661POPC   PO461452  14.239  17.819   5.317
 4661POPC   GL161453  14.133  17.718   5.784
 4661POPC   GL261454  14.128  17.364   5.907
 4661POPC   C1A61455  14.293  17.702   6.243
 4661POPC   D2A61456  14.417  17.492   6.645
 4661POPC   C3A61457  14.316  17.673   7.059
 4661POPC   C4A61458  14.563  17.513   7.438
 4661POPC   C1B61459  14.075  17.242   6.341
 4661POPC   C2B61460  13.976  17.307   6.800
 4661POPC   C3B61461  14.234  17.185   7.169
 4661POPC   C4B61462  14.160  17.258   7.618
 4662POPC   NC361463  30.329   2.945   5.631
 4662POPC   PO461464  29.743   3.025   5.411
 4662POPC   GL161465  29.777   2.737   5.811
 4662POPC   GL261466  30.089   2.509   5.836
 4662POPC   C1A61467  29.933   2.838   6.250
 4662POPC   D2A61468  30.172   3.030   6.607
 4662POPC   C3A61469  29.940   3.003   6.958
 4662POPC   C4A61470  29.994   3.028   7.369
 4662POPC   C1B61471  30.253   2.420   6.267
 4662POPC   C2B61472  30.127   2.534   6.734
 4662POPC   C3B61473  30.248   2.440   7.193
 4662POPC   C4B61474  30.354   2.476   7.676
 4663POPC   NC361475  35.345   8.479   5.667
 4663POPC   PO461476  35.275   7.824   5.395
 4663POPC   GL161477  35.398   7.986   5.788
 4663POPC   GL261478  35.077   8.109   5.899
 4663POPC   C1A61479  35.582   8.092   6.201
 4663POPC   D2A61480  35.555   7.979   6.642
 4663POPC   C3A61481  35.272   8.231   6.864
 4663POPC   C4A61482  35.322   8.315   7.278
 4663POPC   C1B61483  34.867   8.311   6.229
 4663POPC   C2B61484  34.789   8.192   6.649
 4663POPC   C3B61485  34.818   8.412   7.023
 4663POPC   C4B61486  34.903   8.521   7.439
 4664POPC   NC361487  30.716  18.037   5.434
 4664POPC   PO461488  30.540  17.362   5.467
 4664POPC   GL161489  30.757  17.474   5.834
 4664POPC   GL261490  31.010  17.693   5.656
 4664POPC   C1A61491  30.641  17.513   6.301
 4664POPC   D2A61492  30.777  17.480   6.747
 4664POPC   C3A61493  30.484  17.395   7.090
 4664POPC   C4A61494  30.580  17.268   7.528
 4664POPC   C1B61495  30.893  17.893   6.072
 4664POPC   C2B61496  30.971  17.904   6.517
 4664POPC   C3B61497  30.830  17.959   6.942
 4664POPC   C4B61498  30.843  17.675   7.319
 4665POPC   NC361499  10.114  35.056   5.443
 4665POPC   PO461500   9.505  35.477   5.500
 4665POPC   GL161501   9.728  35.566   5.852
 4665POPC   GL261502   9.807  35.229   5.831
 4665POPC   C1A61503   9.885  35.520   6.259
 4665POPC   D2A61504   9.680  35.374   6.570
 4665POPC   C3A61505   9.817  35.478   6.936
 4665POPC   C4A61506   9.565  35.337   7.263
 4665POPC   C1B61507   9.685  35.037   6.164
 4665POPC   C2B61508   9.786  34.865   6.518
 4665POPC   C3B61509   9.731  34.980   6.907
 4665POPC   C4B61510   9.635  34.833   7.285
 4666POPC   NC361511  11.273  19.473   5.513
 4666POPC   PO461512  11.585  18.922   5.230
 4666POPC   GL161513  11.498  18.885   5.711
 4666POPC   GL261514  11.368  19.166   5.876
 4666POPC   C1A61515  11.407  18.791   6.187
 4666POPC   D2A61516  11.153  18.846   6.581
 4666POPC   C3A61517  11.297  19.003   6.988
 4666POPC   C4A61518  11.089  19.004   7.381
 4666POPC   C1B61519  11.643  19.304   6.201
 4666POPC   C2B61520  11.524  19.280   6.600
 4666POPC   C3B61521  11.557  19.461   6.987
 4666POPC   C4B61522  11.532  19.315   7.410
 4667POPC   NC361523   2.849  11.672   5.408
 4667POPC   PO461524   3.292  12.217   5.522
 4667POPC   GL161525   3.092  11.919   5.803
 4667POPC   GL261526   2.718  11.968   5.803
 4667POPC   C1A61527   3.131  11.846   6.264
 4667POPC   D2A61528   2.968  12.071   6.658
 4667POPC   C3A61529   3.091  12.056   7.097
 4667POPC   C4A61530   2.999  12.270   7.503
 4667POPC   C1B61531   2.645  12.070   6.239
 4667POPC   C2B61532   2.458  12.180   6.653
 4667POPC   C3B61533   2.654  12.317   7.061
 4667POPC   C4B61534   2.474  12.302   7.465
 4668POPC   NC361535   6.698   3.792   5.541
 4668POPC   PO461536   6.142   3.417   5.417
 4668POPC   GL161537   6.372   3.326   5.816
 4668POPC   GL261538   6.688   3.475   5.942
 4668POPC   C1A61539   6.234   3.490   6.226
 4668POPC   D2A61540   6.271   3.706   6.623
 4668POPC   C3A61541   6.501   3.490   6.938
 4668POPC   C4A61542   6.560   3.505   7.375
 4668POPC   C1B61543   6.757   3.141   6.255
 4668POPC   C2B61544   6.777   3.073   6.704
 4668POPC   C3B61545   6.935   3.243   7.100
 4668POPC   C4B61546   7.077   3.466   7.451
 4669POPC   NC361547   0.258  41.113   5.461
 4669POPC   PO461548   0.584  40.493   5.484
 4669POPC   GL161549   0.381  40.728   5.814
 4669POPC   GL261550   0.040  40.755   5.789
 4669POPC   C1A61551   0.396  40.778   6.253
 4669POPC   D2A61552   0.614  40.627   6.622
 4669POPC   C3A61553   0.663  40.984   6.880
 4669POPC   C4A61554   0.592  41.129   7.295
 4669POPC   C1B61555  44.961  40.508   6.184
 4669POPC   C2B61556   0.092  40.603   6.627
 4669POPC   C3B61557   0.202  40.781   7.027
 4669POPC   C4B61558  44.917  40.649   7.353
 4670POPC   NC361559  11.835  44.808   5.493
 4670POPC   PO461560  12.294  44.347   5.358
 4670POPC   GL161561  12.281  44.592   5.742
 4670POPC   GL261562  12.259  44.973   5.725
 4670POPC   C1A61563  12.225  44.448   6.171
 4670POPC   D2A61564  11.876  44.414   6.444
 4670POPC   C3A61565  11.955  44.625   6.831
 4670POPC   C4A61566  12.047  44.567   7.238
 4670POPC   C1B61567  12.018  44.950   6.128
 4670POPC   C2B61568  11.861   0.046   6.531
 4670POPC   C3B61569  11.767   0.106   6.937
 4670POPC   C4B61570  11.898   0.078   7.333
 4671POPC   NC361571  29.201  27.969   5.315
 4671POPC   PO461572  28.838  27.487   5.278
 4671POPC   GL161573  28.911  27.429   5.727
 4671POPC   GL261574  29.041  27.738   5.788
 4671POPC   C1A61575  29.058  27.450   6.204
 4671POPC   D2A61576  29.224  27.733   6.528
 4671POPC   C3A61577  29.128  27.572   6.926
 4671POPC   C4A61578  28.871  27.297   7.173
 4671POPC   C1B61579  28.923  27.987   6.174
 4671POPC   C2B61580  28.904  28.138   6.593
 4671POPC   C3B61581  29.044  28.058   7.026
 4671POPC   C4B61582  28.971  27.759   7.380
 4672POPC   NC361583  20.299  40.070   5.437
 4672POPC   PO461584  20.909  39.761   5.419
 4672POPC   GL161585  20.649  39.930   5.790
 4672POPC   GL261586  20.607  40.309   5.791
 4672POPC   C1A61587  20.448  40.021   6.221
 4672POPC   D2A61588  20.363  40.203   6.652
 4672POPC   C3A61589  20.330  39.883   7.002
 4672POPC   C4A61590  20.068  39.808   7.354
 4672POPC   C1B61591  20.674  40.484   6.229
 4672POPC   C2B61592  20.863  40.229   6.588
 4672POPC   C3B61593  20.793  40.063   7.038
 4672POPC   C4B61594  20.529  40.065   7.467
 4673POPC   NC361595  25.503  30.892   5.408
 4673POPC   PO461596  25.484  30.272   5.513
 4673POPC   GL161597  25.366  30.598   5.845
 4673POPC   GL261598  25.224  30.963   5.833
 4673POPC   C1A61599  25.378  30.734   6.279
 4673POPC   D2A61600  25.628  30.802   6.663
 4673POPC   C3A61601  25.296  30.793   6.977
 4673POPC   C4A61602  25.003  30.459   7.039
 4673POPC   C1B61603  24.888  30.898   6.144
 4673POPC   C2B61604  24.812  30.871   6.595
 4673POPC   C3B61605  24.721  31.117   6.951
 4673POPC   C4B61606  24.943  31.082   7.357
 4674POPC   NC361607   9.234  36.824   5.304
 4674POPC   PO461608   8.553  36.816   5.367
 4674POPC   GL161609   8.727  36.940   5.788
 4674POPC   GL261610   9.089  36.866   5.821
 4674POPC   C1A61611   8.796  37.131   6.223
 4674POPC   D2A61612   8.712  37.329   6.661
 4674POPC   C3A61613   8.811  37.119   7.104
 4674POPC   C4A61614   8.729  37.234   7.563
 4674POPC   C1B61615   8.968  36.637   6.195
 4674POPC   C2B61616   8.881  36.403   6.580
 4674POPC   C3B61617   9.026  36.645   6.937
 4674POPC   C4B61618   9.316  36.986   7.062
 4675POPC   NC361619   9.189  38.913   5.537
 4675POPC   PO461620   8.683  39.316   5.495
 4675POPC   GL161621   8.830  39.157   5.857
 4675POPC   GL261622   9.146  39.346   5.861
 4675POPC   C1A61623   8.933  39.220   6.292
 4675POPC   D2A61624   8.732  39.131   6.676
 4675POPC   C3A61625   8.956  39.169   7.047
 4675POPC   C4A61626   9.306  38.916   7.187
 4675POPC   C1B61627   9.306  39.562   6.244
 4675POPC   C2B61628   9.077  39.539   6.646
 4675POPC   C3B61629   9.136  39.670   7.020
 4675POPC   C4B61630   9.401  39.446   7.261
 4676POPC   NC361631  37.265  28.800   5.099
 4676POPC   PO461632  37.692  29.249   5.415
 4676POPC   GL161633  37.894  29.113   5.771
 4676POPC   GL261634  37.790  28.825   5.826
 4676POPC   C1A61635  37.869  29.263   6.130
 4676POPC   D2A61636  37.589  29.482   6.359
 4676POPC   C3A61637  37.601  29.439   6.785
 4676POPC   C4A61638  37.318  29.409   7.114
 4676POPC   C1B61639  37.566  28.867   6.240
 4676POPC   C2B61640  37.700  28.962   6.658
 4676POPC   C3B61641  37.729  29.016   7.103
 4676POPC   C4B61642  37.458  28.851   7.405
 4677POPC   NC361643  40.673  36.716   5.293
 4677POPC   PO461644  40.751  37.294   5.397
 4677POPC   GL161645  40.625  37.142   5.817
 4677POPC   GL261646  40.590  36.773   5.803
 4677POPC   C1A61647  40.803  36.959   6.226
 4677POPC   D2A61648  41.038  36.903   6.609
 4677POPC   C3A61649  40.740  36.991   6.947
 4677POPC   C4A61650  40.782  37.005   7.374
 4677POPC   C1B61651  40.507  36.516   6.187
 4677POPC   C2B61652  40.559  36.658   6.587
 4677POPC   C3B61653  40.853  36.505   6.878
 4677POPC   C4B61654  40.703  36.439   7.257
 4678POPC   NC361655   4.589   3.100   5.500
 4678POPC   PO461656   4.103   2.755   5.145
 4678POPC   GL161657   4.053   2.693   5.649
 4678POPC   GL261658   4.268   2.910   5.871
 4678POPC   C1A61659   3.980   2.480   6.069
 4678POPC   D2A61660   3.814   2.610   6.504
 4678POPC   C3A61661   4.168   2.762   6.795
 4678POPC   C4A61662   4.478   2.546   7.090
 4678POPC   C1B61663   4.580   3.066   6.190
 4678POPC   C2B61664   4.657   2.882   6.602
 4678POPC   C3B61665   4.605   3.046   7.018
 4678POPC   C4B61666   4.735   2.914   7.411
 4679POPC   NC361667  26.218  15.406   5.467
 4679POPC   PO461668  25.984  14.820   5.367
 4679POPC   GL161669  25.915  14.903   5.814
 4679POPC   GL261670  26.213  15.051   5.839
 4679POPC   C1A61671  25.950  15.134   6.263
 4679POPC   D2A61672  26.071  15.407   6.634
 4679POPC   C3A61673  25.868  15.330   7.048
 4679POPC   C4A61674  25.472  15.118   7.173
 4679POPC   C1B61675  26.429  14.986   6.203
 4679POPC   C2B61676  26.309  14.949   6.631
 4679POPC   C3B61677  26.339  15.129   7.046
 4679POPC   C4B61678  26.314  14.914   7.453
 4680POPC   NC361679  42.730  19.334   5.306
 4680POPC   PO461680  43.243  18.877   5.465
 4680POPC   GL161681  42.970  19.033   5.747
 4680POPC   GL261682  43.020  18.741   5.944
 4680POPC   C1A61683  42.915  19.218   6.164
 4680POPC   D2A61684  43.010  19.066   6.610
 4680POPC   C3A61685  42.724  19.162   6.963
 4680POPC   C4A61686  42.913  19.348   7.332
 4680POPC   C1B61687  43.348  18.956   6.203
 4680POPC   C2B61688  43.568  18.946   6.593
 4680POPC   C3B61689  43.547  18.932   7.010
 4680POPC   C4B61690  43.144  18.919   7.118
 4681POPC   NC361691   9.878  39.638   5.576
 4681POPC   PO461692  10.004  40.283   5.490
 4681POPC   GL161693   9.832  40.106   5.849
 4681POPC   GL261694  10.149  40.001   5.929
 4681POPC   C1A61695   9.705  39.919   6.254
 4681POPC   D2A61696   9.476  39.873   6.675
 4681POPC   C3A61697   9.516  40.009   7.129
 4681POPC   C4A61698   9.706  39.800   7.495
 4681POPC   C1B61699  10.092  40.291   6.255
 4681POPC   C2B61700   9.850  40.265   6.596
 4681POPC   C3B61701   9.967  40.051   6.896
 4681POPC   C4B61702  10.285  39.885   7.121
 4682POPC   NC361703  29.243  28.686   5.634
 4682POPC   PO461704  28.800  28.212   5.371
 4682POPC   GL161705  29.076  28.234   5.759
 4682POPC   GL261706  28.886  28.420   5.883
 4682POPC   C1A61707  29.250  28.373   6.237
 4682POPC   D2A61708  29.409  28.229   6.661
 4682POPC   C3A61709  29.464  28.411   7.079
 4682POPC   C4A61710  29.447  28.576   7.529
 4682POPC   C1B61711  28.809  28.657   6.226
 4682POPC   C2B61712  28.639  28.592   6.598
 4682POPC   C3B61713  28.984  28.550   6.870
 4682POPC   C4B61714  29.007  28.485   7.287
 4683POPC   NC361715  27.958  28.333   5.683
 4683POPC   PO461716  27.401  28.503   5.355
 4683POPC   GL161717  27.483  28.580   5.786
 4683POPC   GL261718  27.251  28.338   5.973
 4683POPC   C1A61719  27.668  28.555   6.214
 4683POPC   D2A61720  27.507  28.607   6.599
 4683POPC   C3A61721  27.248  28.346   6.826
 4683POPC   C4A61722  27.465  28.484   7.142
 4683POPC   C1B61723  27.413  28.131   6.384
 4683POPC   C2B61724  27.681  28.079   6.791
 4683POPC   C3B61725  27.710  28.036   7.260
 4683POPC   C4B61726  27.706  27.980   7.723
 4684POPC   NC361727   2.396  40.746   5.369
 4684POPC   PO461728   3.013  40.484   5.343
 4684POPC   GL161729   2.958  40.603   5.770
 4684POPC   GL261730   2.626  40.675   5.844
 4684POPC   C1A61731   2.965  40.695   6.222
 4684POPC   D2A61732   2.748  40.812   6.567
 4684POPC   C3A61733   2.858  40.721   6.950
 4684POPC   C4A61734   2.867  40.929   7.315
 4684POPC   C1B61735   2.393  40.610   6.258
 4684POPC   C2B61736   2.370  40.448   6.697
 4684POPC   C3B61737   2.465  40.446   7.147
 4684POPC   C4B61738   2.439  40.370   7.621
 4685POPC   NC361739  43.982  25.245   5.523
 4685POPC   PO461740  43.560  24.758   5.509
 4685POPC   GL161741  43.678  24.505   5.863
 4685POPC   GL261742  44.010  24.303   5.860
 4685POPC   C1A61743  43.741  24.664   6.275
 4685POPC   D2A61744  43.973  24.675   6.686
 4685POPC   C3A61745  43.883  24.382   7.015
 4685POPC   C4A61746  44.117  23.985   7.105
 4685POPC   C1B61747  44.157  24.374   6.289
 4685POPC   C2B61748  44.282  24.260   6.701
 4685POPC   C3B61749  44.399  24.426   7.114
 4685POPC   C4B61750  44.557  24.582   7.514
 4686POPC   NC361751   1.298  39.152   5.479
 4686POPC   PO461752   0.784  39.515   5.425
 4686POPC   GL161753   1.096  39.537   5.822
 4686POPC   GL261754   1.481  39.521   5.795
 4686POPC   C1A61755   1.186  39.479   6.298
 4686POPC   D2A61756   0.984  39.403   6.715
 4686POPC   C3A61757   1.125  39.401   7.129
 4686POPC   C4A61758   0.839  39.665   7.350
 4686POPC   C1B61759   1.558  39.175   6.111
 4686POPC   C2B61760   1.485  39.120   6.578
 4686POPC   C3B61761   1.622  39.310   6.966
 4686POPC   C4B61762   1.561  39.314   7.424
 4687POPC   NC361763  14.199  22.026   5.538
 4687POPC   PO461764  14.779  22.223   5.379
 4687POPC   GL161765  14.599  22.148   5.816
 4687POPC   GL261766  14.416  22.438   5.849
 4687POPC   C1A61767  14.283  22.134   6.211
 4687POPC   D2A61768  14.114  22.217   6.635
 4687POPC   C3A61769  14.339  22.004   6.980
 4687POPC   C4A61770  14.531  21.597   7.110
 4687POPC   C1B61771  14.378  22.648   6.269
 4687POPC   C2B61772  14.493  22.635   6.676
 4687POPC   C3B61773  14.818  22.656   6.974
 4687POPC   C4B61774  14.663  22.569   7.349
 4688POPC   NC361775  17.704  40.481   5.457
 4688POPC   PO461776  17.202  40.971   5.380
 4688POPC   GL161777  17.353  40.784   5.746
 4688POPC   GL261778  17.646  41.009   5.762
 4688POPC   C1A61779  17.465  40.633   6.178
 4688POPC   D2A61780  17.729  40.525   6.550
 4688POPC   C3A61781  17.628  40.563   6.984
 4688POPC   C4A61782  17.257  40.645   7.238
 4688POPC   C1B61783  17.746  41.087   6.199
 4688POPC   C2B61784  17.472  41.035   6.550
 4688POPC   C3B61785  17.462  41.050   6.974
 4688POPC   C4B61786  17.824  41.253   7.096
 4689POPC   NC361787  29.499   3.502   5.622
 4689POPC   PO461788  28.908   3.242   5.394
 4689POPC   GL161789  29.031   3.338   5.790
 4689POPC   GL261790  29.291   3.070   5.812
 4689POPC   C1A61791  29.107   3.541   6.187
 4689POPC   D2A61792  29.381   3.695   6.493
 4689POPC   C3A61793  29.256   3.953   6.845
 4689POPC   C4A61794  29.341   3.828   7.267
 4689POPC   C1B61795  29.468   3.162   6.210
 4689POPC   C2B61796  29.239   3.197   6.594
 4689POPC   C3B61797  29.213   3.444   6.952
 4689POPC   C4B61798  29.172   3.354   7.386
 4690POPC   NC361799   3.585  28.636   5.328
 4690POPC   PO461800   3.229  28.228   5.447
 4690POPC   GL161801   3.446  28.469   5.827
 4690POPC   GL261802   3.410  28.825   5.794
 4690POPC   C1A61803   3.671  28.573   6.268
 4690POPC   D2A61804   3.775  28.860   6.670
 4690POPC   C3A61805   3.716  28.648   7.109
 4690POPC   C4A61806   3.889  28.456   7.512
 4690POPC   C1B61807   3.201  28.761   6.237
 4690POPC   C2B61808   3.326  28.624   6.671
 4690POPC   C3B61809   3.166  28.498   7.079
 4690POPC   C4B61810   3.012  28.266   7.459
 4691POPC   NC361811  37.421   9.764   5.411
 4691POPC   PO461812  37.884   9.408   5.602
 4691POPC   GL161813  37.469   9.472   5.842
 4691POPC   GL261814  37.385   9.844   5.904
 4691POPC   C1A61815  37.447   9.535   6.303
 4691POPC   D2A61816  37.520   9.779   6.704
 4691POPC   C3A61817  37.642   9.498   7.054
 4691POPC   C4A61818  38.085   9.501   7.194
 4691POPC   C1B61819  37.411  10.095   6.265
 4691POPC   C2B61820  37.272  10.253   6.677
 4691POPC   C3B61821  37.585  10.248   6.966
 4691POPC   C4B61822  37.710   9.961   7.239
 4692POPC   NC361823  44.647   4.124   5.263
 4692POPC   PO461824  44.821   4.618   5.676
 4692POPC   GL161825  44.910   4.283   5.887
 4692POPC   GL261826  44.777   3.968   5.793
 4692POPC   C1A61827  44.802   4.280   6.286
 4692POPC   D2A61828  44.920   4.424   6.641
 4692POPC   C3A61829  44.619   4.444   6.939
 4692POPC   C4A61830  44.835   4.281   7.269
 4692POPC   C1B61831  44.588   3.829   6.209
 4692POPC   C2B61832  44.604   3.993   6.665
 4692POPC   C3B61833  44.403   4.004   7.115
 4692POPC   C4B61834  44.308   3.771   7.519
 4693POPC   NC361835  11.828  14.993   5.399
 4693POPC   PO461836  12.433  14.899   5.171
 4693POPC   GL161837  12.319  14.774   5.708
 4693POPC   GL261838  11.996  14.888   5.862
 4693POPC   C1A61839  12.338  14.827   6.228
 4693POPC   D2A61840  12.461  14.893   6.711
 4693POPC   C3A61841  12.214  15.243   6.978
 4693POPC   C4A61842  11.895  15.598   7.106
 4693POPC   C1B61843  11.783  14.930   6.270
 4693POPC   C2B61844  11.969  14.714   6.618
 4693POPC   C3B61845  12.039  14.750   7.064
 4693POPC   C4B61846  12.150  14.985   7.438
 4694POPC   NC361847  22.018  22.761   5.385
 4694POPC   PO461848  21.345  22.797   5.428
 4694POPC   GL161849  21.342  22.994   5.853
 4694POPC   GL261850  21.074  23.264   5.905
 4694POPC   C1A61851  21.497  22.906   6.289
 4694POPC   D2A61852  21.386  22.651   6.662
 4694POPC   C3A61853  21.425  22.819   7.063
 4694POPC   C4A61854  21.285  22.741   7.472
 4694POPC   C1B61855  21.097  23.221   6.382
 4694POPC   C2B61856  20.995  23.131   6.848
 4694POPC   C3B61857  20.726  23.105   7.258
 4694POPC   C4B61858  20.880  23.045   7.697
 4695POPC   NC361859  40.530   6.765   5.258
 4695POPC   PO461860  41.151   7.026   5.203
 4695POPC   GL161861  40.954   6.812   5.591
 4695POPC   GL261862  40.932   7.062   5.829
 4695POPC   C1A61863  40.771   6.595   5.994
 4695POPC   D2A61864  40.689   6.274   6.353
 4695POPC   C3A61865  40.658   6.506   6.759
 4695POPC   C4A61866  40.826   6.628   7.180
 4695POPC   C1B61867  40.772   7.071   6.259
 4695POPC   C2B61868  40.973   7.029   6.673
 4695POPC   C3B61869  41.233   6.906   7.045
 4695POPC   C4B61870  41.223   6.801   7.515
 4696POPC   NC361871  30.375   5.823   5.361
 4696POPC   PO461872  31.086   5.647   5.414
 4696POPC   GL161873  30.776   5.901   5.673
 4696POPC   GL261874  30.801   6.258   5.686
 4696POPC   C1A61875  30.575   5.908   6.082
 4696POPC   D2A61876  30.627   5.715   6.505
 4696POPC   C3A61877  30.792   5.702   6.936
 4696POPC   C4A61878  30.463   5.687   7.248
 4696POPC   C1B61879  30.847   6.375   6.130
 4696POPC   C2B61880  30.571   6.247   6.482
 4696POPC   C3B61881  30.475   6.097   6.888
 4696POPC   C4B61882  30.729   6.120   7.232
 4697POPC   NC361883  40.955  17.283   5.354
 4697POPC   PO461884  40.493  17.715   5.226
 4697POPC   GL161885  40.644  17.533   5.662
 4697POPC   GL261886  40.968  17.708   5.705
 4697POPC   C1A61887  40.840  17.317   6.066
 4697POPC   D2A61888  40.667  17.448   6.486
 4697POPC   C3A61889  40.760  17.259   6.862
 4697POPC   C4A61890  40.881  17.135   7.276
 4697POPC   C1B61891  40.851  17.814   6.133
 4697POPC   C2B61892  41.026  17.816   6.543
 4697POPC   C3B61893  40.851  17.764   6.942
 4697POPC   C4B61894  41.056  17.709   7.298
 4698POPC   NC361895   7.264  18.665   5.390
 4698POPC   PO461896   7.600  18.097   5.083
 4698POPC   GL161897   7.649  18.134   5.603
 4698POPC   GL261898   7.381  18.338   5.779
 4698POPC   C1A61899   7.588  18.034   6.111
 4698POPC   D2A61900   7.371  18.134   6.555
 4698POPC   C3A61901   7.455  18.107   7.041
 4698POPC   C4A61902   7.291  18.129   7.507
 4698POPC   C1B61903   7.340  18.514   6.188
 4698POPC   C2B61904   7.510  18.704   6.564
 4698POPC   C3B61905   7.500  18.615   6.992
 4698POPC   C4B61906   7.582  18.524   7.396
 4699POPC   NC361907  12.191   2.100   5.436
 4699POPC   PO461908  11.649   1.734   5.448
 4699POPC   GL161909  11.732   2.085   5.772
 4699POPC   GL261910  11.949   2.408   5.776
 4699POPC   C1A61911  11.716   2.001   6.224
 4699POPC   D2A61912  12.050   1.822   6.470
 4699POPC   C3A61913  11.975   1.842   6.888
 4699POPC   C4A61914  11.951   1.917   7.287
 4699POPC   C1B61915  12.132   2.315   6.188
 4699POPC   C2B61916  11.960   2.297   6.615
 4699POPC   C3B61917  12.067   2.359   7.031
 4699POPC   C4B61918  12.193   2.303   7.466
 4700POPC   NC361919  14.329  40.442   5.490
 4700POPC   PO461920  14.254  39.790   5.427
 4700POPC   GL161921  14.541  40.027   5.724
 4700POPC   GL261922  14.211  40.105   5.867
 4700POPC   C1A61923  14.575  40.278   6.159
 4700POPC   D2A61924  14.363  40.365   6.595
 4700POPC   C3A61925  14.632  40.296   6.972
 4700POPC   C4A61926  14.516  40.264   7.430
 4700POPC   C1B61927  14.397  39.756   6.124
 4700POPC   C2B61928  14.268  39.648   6.522
 4700POPC   C3B61929  14.382  39.866   6.872
 4700POPC   C4B61930  14.262  39.810   7.292
 4701POPC   NC361931   5.791  35.560   5.468
 4701POPC   PO461932   5.398  35.014   5.314
 4701POPC   GL161933   5.694  35.072   5.682
 4701POPC   GL261934   5.936  35.315   5.887
 4701POPC   C1A61935   5.612  34.991   6.105
 4701POPC   D2A61936   5.857  35.168   6.410
 4701POPC   C3A61937   5.754  35.285   6.801
 4701POPC   C4A61938   5.611  35.216   7.219
 4701POPC   C1B61939   6.117  35.593   6.243
 4701POPC   C2B61940   6.108  35.746   6.710
 4701POPC   C3B61941   6.081  35.482   7.129
 4701POPC   C4B61942   6.141  35.630   7.582
 4702POPC   NC361943  37.300  15.233   5.396
 4702POPC   PO461944  38.002  15.026   5.369
 4702POPC   GL161945  37.754  15.147   5.712
 4702POPC   GL261946  37.469  14.951   5.804
 4702POPC   C1A61947  37.838  15.158   6.150
 4702POPC   D2A61948  38.111  15.198   6.494
 4702POPC   C3A61949  37.862  15.302   6.857
 4702POPC   C4A61950  37.884  15.582   7.191
 4702POPC   C1B61951  37.357  15.294   6.093
 4702POPC   C2B61952  37.407  15.190   6.526
 4702POPC   C3B61953  37.267  15.302   6.918
 4702POPC   C4B61954  37.408  15.470   7.263
 4703POPC   NC361955  10.733  22.298   5.214
 4703POPC   PO461956  10.101  22.033   5.069
 4703POPC   GL161957  10.249  22.194   5.514
 4703POPC   GL261958  10.567  22.049   5.634
 4703POPC   C1A61959  10.275  22.247   5.995
 4703POPC   D2A61960  10.336  22.348   6.442
 4703POPC   C3A61961  10.335  22.094   6.830
 4703POPC   C4A61962  10.529  22.168   7.256
 4703POPC   C1B61963  10.685  21.948   6.087
 4703POPC   C2B61964  10.810  22.082   6.512
 4703POPC   C3B61965  10.813  21.885   6.915
 4703POPC   C4B61966  10.784  21.739   7.335
 4704POPC   NC361967  11.167  23.048   5.055
 4704POPC   PO461968  10.757  23.369   5.478
 4704POPC   GL161969  10.600  23.361   5.843
 4704POPC   GL261970  10.703  23.690   5.929
 4704POPC   C1A61971  10.417  23.383   6.242
 4704POPC   D2A61972  10.474  23.681   6.547
 4704POPC   C3A61973  10.457  23.509   6.948
 4704POPC   C4A61974  10.574  23.493   7.376
 4704POPC   C1B61975  10.923  23.852   6.289
 4704POPC   C2B61976  10.965  23.699   6.687
 4704POPC   C3B61977  10.873  23.805   7.087
 4704POPC   C4B61978  11.105  23.579   7.339
 4705POPC   NC361979   9.245  38.181   5.489
 4705POPC   PO461980   8.815  37.578   5.403
 4705POPC   GL161981   9.183  37.584   5.738
 4705POPC   GL261982   9.249  37.896   5.931
 4705POPC   C1A61983   9.279  37.304   6.105
 4705POPC   D2A61984   9.231  37.148   6.546
 4705POPC   C3A61985   9.156  37.459   6.879
 4705POPC   C4A61986   8.854  37.730   7.137
 4705POPC   C1B61987   9.003  37.762   6.311
 4705POPC   C2B61988   8.680  37.878   6.644
 4705POPC   C3B61989   8.633  38.183   6.991
 4705POPC   C4B61990   8.655  38.209   7.473
 4706POPC   NC361991  36.330  36.390   5.274
 4706POPC   PO461992  35.697  36.050   5.362
 4706POPC   GL161993  36.056  35.983   5.694
 4706POPC   GL261994  36.145  36.311   5.738
 4706POPC   C1A61995  36.323  36.018   6.108
 4706POPC   D2A61996  36.435  36.191   6.536
 4706POPC   C3A61997  36.154  36.036   6.861
 4706POPC   C4A61998  36.087  35.664   7.103
 4706POPC   C1B61999  35.979  36.435   6.140
 4706POPC   C2B62000  36.018  36.599   6.563
 4706POPC   C3B62001  35.963  36.501   6.990
 4706POPC   C4B62002  36.301  36.379   7.242
 4707POPC   NC362003   8.843  34.123   5.612
 4707POPC   PO462004   9.190  34.553   5.387
 4707POPC   GL162005   8.887  34.624   5.707
 4707POPC   GL262006   9.146  34.432   5.892
 4707POPC   C1A62007   8.722  34.561   6.143
 4707POPC   D2A62008   8.894  34.711   6.527
 4707POPC   C3A62009   8.949  34.420   6.872
 4707POPC   C4A62010   8.762  34.350   7.278
 4707POPC   C1B62011   9.225  34.846   6.064
 4707POPC   C2B62012   9.279  35.044   6.500
 4707POPC   C3B62013   9.213  34.900   6.932
 4707POPC   C4B62014   9.193  34.613   7.284
 4708POPC   NC362015  39.673  15.230   5.357
 4708POPC   PO462016  40.139  14.793   5.386
 4708POPC   GL162017  40.113  15.044   5.790
 4708POPC   GL262018  39.806  15.196   5.856
 4708POPC   C1A62019  40.027  15.067   6.269
 4708POPC   D2A62020  40.201  14.854   6.564
 4708POPC   C3A62021  40.125  14.984   6.955
 4708POPC   C4A62022  40.184  15.350   7.144
 4708POPC   C1B62023  39.612  15.371   6.267
 4708POPC   C2B62024  39.800  15.309   6.670
 4708POPC   C3B62025  39.658  15.198   7.050
 4708POPC   C4B62026  39.750  15.437   7.407
 4709POPC   NC362027  20.276  28.573   5.384
 4709POPC   PO462028  20.778  28.072   5.485
 4709POPC   GL162029  20.466  28.206   5.798
 4709POPC   GL262030  20.232  27.948   5.866
 4709POPC   C1A62031  20.400  28.445   6.201
 4709POPC   D2A62032  20.308  28.711   6.575
 4709POPC   C3A62033  20.336  28.494   6.972
 4709POPC   C4A62034  20.638  28.354   7.260
 4709POPC   C1B62035  20.150  28.002   6.286
 4709POPC   C2B62036  20.396  28.100   6.625
 4709POPC   C3B62037  20.351  27.964   7.033
 4709POPC   C4B62038  20.267  27.973   7.467
 4710POPC   NC362039  32.616  15.326   5.279
 4710POPC   PO462040  33.155  14.890   5.294
 4710POPC   GL162041  33.086  15.140   5.669
 4710POPC   GL262042  32.878  15.448   5.723
 4710POPC   C1A62043  32.988  15.121   6.106
 4710POPC   D2A62044  32.932  14.974   6.509
 4710POPC   C3A62045  32.976  15.249   6.837
 4710POPC   C4A62046  33.113  15.156   7.207
 4710POPC   C1B62047  32.939  15.656   6.162
 4710POPC   C2B62048  33.004  15.723   6.635
 4710POPC   C3B62049  33.041  15.661   7.131
 4710POPC   C4B62050  33.293  15.497   7.526
 4711POPC   NC362051  42.185  29.650   5.471
 4711POPC   PO462052  42.149  30.309   5.418
 4711POPC   GL162053  42.173  30.136   5.829
 4711POPC   GL262054  41.860  29.967   5.734
 4711POPC   C1A62055  42.500  29.892   6.131
 4711POPC   D2A62056  42.634  29.662   6.534
 4711POPC   C3A62057  42.545  29.971   6.883
 4711POPC   C4A62058  42.457  29.898   7.301
 4711POPC   C1B62059  42.004  29.756   6.130
 4711POPC   C2B62060  42.165  29.877   6.543
 4711POPC   C3B62061  42.048  29.986   6.979
 4711POPC   C4B62062  41.982  29.746   7.341
 4712POPC   NC362063  27.064  43.883   5.400
 4712POPC   PO462064  26.387  43.970   5.366
 4712POPC   GL162065  26.676  44.124   5.706
 4712POPC   GL262066  26.975  44.314   5.668
 4712POPC   C1A62067  26.717  44.006   6.146
 4712POPC   D2A62068  26.580  43.817   6.534
 4712POPC   C3A62069  26.620  43.818   6.986
 4712POPC   C4A62070  27.037  43.761   7.186
 4712POPC   C1B62071  27.180  44.237   6.090
 4712POPC   C2B62072  27.062  44.102   6.525
 4712POPC   C3B62073  26.977  44.228   6.953
 4712POPC   C4B62074  27.256  44.364   7.266
 4713POPC   NC362075   4.874   9.835   5.620
 4713POPC   PO462076   5.317   9.771   5.060
 4713POPC   GL162077   5.250   9.498   5.580
 4713POPC   GL262078   5.478   9.542   5.859
 4713POPC   C1A62079   5.022   9.418   6.071
 4713POPC   D2A62080   4.769   9.625   6.458
 4713POPC   C3A62081   4.882   9.890   6.819
 4713POPC   C4A62082   5.141   9.723   7.163
 4713POPC   C1B62083   5.453   9.486   6.337
 4713POPC   C2B62084   5.298   9.396   6.768
 4713POPC   C3B62085   5.350   9.270   7.219
 4713POPC   C4B62086   5.325   9.455   7.624
 4714POPC   NC362087  37.361   7.523   5.312
 4714POPC   PO462088  36.762   7.262   5.342
 4714POPC   GL162089  36.994   7.403   5.670
 4714POPC   GL262090  37.226   7.242   5.801
 4714POPC   C1A62091  36.977   7.549   6.109
 4714POPC   D2A62092  36.718   7.588   6.456
 4714POPC   C3A62093  36.896   7.683   6.849
 4714POPC   C4A62094  36.800   7.611   7.263
 4714POPC   C1B62095  37.289   7.084   6.211
 4714POPC   C2B62096  37.329   6.992   6.645
 4714POPC   C3B62097  37.070   7.214   6.946
 4714POPC   C4B62098  37.047   7.215   7.378
 4715POPC   NC362099   2.531  20.173   5.346
 4715POPC   PO462100   3.006  19.613   5.368
 4715POPC   GL162101   2.754  19.808   5.683
 4715POPC   GL262102   3.047  19.896   5.853
 4715POPC   C1A62103   2.627  20.004   6.096
 4715POPC   D2A62104   2.622  20.098   6.546
 4715POPC   C3A62105   3.030  20.089   6.766
 4715POPC   C4A62106   2.962  19.870   7.141
 4715POPC   C1B62107   2.908  19.591   6.223
 4715POPC   C2B62108   2.836  19.613   6.694
 4715POPC   C3B62109   2.885  19.368   7.087
 4715POPC   C4B62110   3.167  19.315   7.437
 4716POPC   NC362111  43.827  43.364   5.525
 4716POPC   PO462112  44.219  43.848   5.176
 4716POPC   GL162113  44.020  43.848   5.616
 4716POPC   GL262114  43.701  43.979   5.809
 4716POPC   C1A62115  44.116  43.894   6.061
 4716POPC   D2A62116  44.003  44.221   6.379
 4716POPC   C3A62117  43.988  44.137   6.824
 4716POPC   C4A62118  43.937  43.967   7.230
 4716POPC   C1B62119  43.683  43.639   6.131
 4716POPC   C2B62120  43.849  43.720   6.540
 4716POPC   C3B62121  43.609  43.773   6.903
 4716POPC   C4B62122  43.361  43.540   7.148
 4717POPC   NC362123  20.877  43.284   5.304
 4717POPC   PO462124  21.444  43.053   5.375
 4717POPC   GL162125  21.388  43.229   5.792
 4717POPC   GL262126  21.176  42.959   5.842
 4717POPC   C1A62127  21.504  43.102   6.225
 4717POPC   D2A62128  21.319  43.246   6.628
 4717POPC   C3A62129  21.540  43.171   7.028
 4717POPC   C4A62130  21.446  43.086   7.485
 4717POPC   C1B62131  21.121  42.755   6.230
 4717POPC   C2B62132  20.942  42.813   6.598
 4717POPC   C3B62133  21.048  42.971   6.964
 4717POPC   C4B62134  21.015  42.801   7.378
 4718POPC   NC362135  43.447  37.357   5.453
 4718POPC   PO462136  42.729  37.383   5.420
 4718POPC   GL162137  43.013  37.371   5.770
 4718POPC   GL262138  43.140  37.664   5.892
 4718POPC   C1A62139  43.278  37.251   6.163
 4718POPC   D2A62140  43.405  37.433   6.561
 4718POPC   C3A62141  43.259  37.350   6.952
 4718POPC   C4A62142  43.010  37.334   7.300
 4718POPC   C1B62143  43.212  37.904   6.289
 4718POPC   C2B62144  43.246  37.909   6.749
 4718POPC   C3B62145  43.281  37.796   7.191
 4718POPC   C4B62146  43.192  37.735   7.625
 4719POPC   NC362147   4.716   5.159   5.353
 4719POPC   PO462148   4.086   4.920   5.462
 4719POPC   GL162149   4.388   5.027   5.789
 4719POPC   GL262150   4.693   4.825   5.809
 4719POPC   C1A62151   4.286   5.024   6.236
 4719POPC   D2A62152   4.206   5.245   6.616
 4719POPC   C3A62153   4.283   5.143   7.048
 4719POPC   C4A62154   4.070   5.451   7.288
 4719POPC   C1B62155   4.793   5.022   6.230
 4719POPC   C2B62156   4.733   5.252   6.628
 4719POPC   C3B62157   4.792   5.039   7.032
 4719POPC   C4B62158   4.702   5.082   7.476
 4720POPC   NC362159  30.948  35.763   5.529
 4720POPC   PO462160  30.514  36.307   5.411
 4720POPC   GL162161  30.618  36.136   5.802
 4720POPC   GL262162  30.938  36.190   5.892
 4720POPC   C1A62163  30.604  36.064   6.263
 4720POPC   D2A62164  30.787  35.931   6.675
 4720POPC   C3A62165  30.540  36.043   7.051
 4720POPC   C4A62166  30.457  35.903   7.463
 4720POPC   C1B62167  31.147  36.145   6.268
 4720POPC   C2B62168  31.160  36.310   6.675
 4720POPC   C3B62169  31.037  36.194   7.088
 4720POPC   C4B62170  30.901  36.200   7.524
 4721POPC   NC362171  17.515  39.687   5.045
 4721POPC   PO462172  17.328  40.154   5.525
 4721POPC   GL162173  17.394  40.005   5.874
 4721POPC   GL262174  17.686  39.863   5.800
 4721POPC   C1A62175  17.513  40.081   6.283
 4721POPC   D2A62176  17.746  39.982   6.627
 4721POPC   C3A62177  17.477  39.996   6.918
 4721POPC   C4A62178  17.446  40.167   7.261
 4721POPC   C1B62179  17.881  39.732   6.170
 4721POPC   C2B62180  17.969  39.513   6.515
 4721POPC   C3B62181  17.816  39.529   6.891
 4721POPC   C4B62182  17.845  39.783   7.240
 4722POPC   NC362183  24.694  44.072   5.351
 4722POPC   PO462184  24.060  43.885   5.392
 4722POPC   GL162185  24.355  43.906   5.766
 4722POPC   GL262186  24.606  43.637   5.827
 4722POPC   C1A62187  24.416  44.105   6.202
 4722POPC   D2A62188  24.203  44.201   6.610
 4722POPC   C3A62189  24.325  44.044   7.012
 4722POPC   C4A62190  24.792  44.028   7.108
 4722POPC   C1B62191  24.395  43.591   6.223
 4722POPC   C2B62192  24.508  43.765   6.625
 4722POPC   C3B62193  24.549  43.593   7.066
 4722POPC   C4B62194  24.485  43.822   7.456
 4723POPC   NC362195   1.588   3.757   5.568
 4723POPC   PO462196   2.290   3.433   5.465
 4723POPC   GL162197   2.043   3.506   5.814
 4723POPC   GL262198   1.751   3.450   6.026
 4723POPC   C1A62199   2.216   3.708   6.166
 4723POPC   D2A62200   2.121   3.843   6.574
 4723POPC   C3A62201   1.982   3.524   6.832
 4723POPC   C4A62202   2.142   3.587   7.215
 4723POPC   C1B62203   1.721   3.871   6.230
 4723POPC   C2B62204   1.618   4.002   6.658
 4723POPC   C3B62205   1.691   3.878   7.098
 4723POPC   C4B62206   1.644   3.431   7.258
 4724POPC   NC362207  41.882  41.510   5.550
 4724POPC   PO462208  41.342  41.179   5.362
 4724POPC   GL162209  41.371  41.444   5.752
 4724POPC   GL262210  41.333  41.818   5.783
 4724POPC   C1A62211  41.517  41.444   6.169
 4724POPC   D2A62212  41.449  41.195   6.538
 4724POPC   C3A62213  41.601  41.413   6.881
 4724POPC   C4A62214  41.599  41.189   7.233
 4724POPC   C1B62215  41.202  41.853   6.188
 4724POPC   C2B62216  41.226  41.649   6.594
 4724POPC   C3B62217  41.159  41.813   6.989
 4724POPC   C4B62218  41.413  41.687   7.301
 4725POPC   NC362219  16.364  33.862   5.433
 4725POPC   PO462220  15.801  33.514   5.140
 4725POPC   GL162221  15.815  33.637   5.629
 4725POPC   GL262222  15.751  33.365   5.826
 4725POPC   C1A62223  16.015  33.898   6.016
 4725POPC   D2A62224  16.251  33.962   6.427
 4725POPC   C3A62225  15.970  33.902   6.796
 4725POPC   C4A62226  15.876  34.105   7.196
 4725POPC   C1B62227  15.955  33.433   6.240
 4725POPC   C2B62228  15.714  33.427   6.632
 4725POPC   C3B62229  15.799  33.457   7.060
 4725POPC   C4B62230  16.192  33.660   7.195
 4726POPC   NC362231  12.018  24.376   5.301
 4726POPC   PO462232  12.452  24.848   5.362
 4726POPC   GL162233  12.380  24.468   5.691
 4726POPC   GL262234  12.037  24.298   5.809
 4726POPC   C1A62235  12.397  24.354   6.154
 4726POPC   D2A62236  12.176  24.408   6.554
 4726POPC   C3A62237  12.227  24.585   6.969
 4726POPC   C4A62238  11.948  24.811   7.235
 4726POPC   C1B62239  11.790  24.287   6.231
 4726POPC   C2B62240  11.802  24.088   6.654
 4726POPC   C3B62241  11.740  24.343   7.059
 4726POPC   C4B62242  11.630  24.221   7.519
 4727POPC   NC362243  23.857   2.629   5.105
 4727POPC   PO462244  23.551   3.032   5.338
 4727POPC   GL162245  23.693   2.974   5.785
 4727POPC   GL262246  23.416   2.814   5.955
 4727POPC   C1A62247  23.782   2.923   6.275
 4727POPC   D2A62248  23.535   2.702   6.638
 4727POPC   C3A62249  23.598   2.783   7.113
 4727POPC   C4A62250  23.334   2.776   7.509
 4727POPC   C1B62251  23.586   2.445   6.151
 4727POPC   C2B62252  23.661   2.194   6.517
 4727POPC   C3B62253  23.732   2.318   6.934
 4727POPC   C4B62254  24.070   2.540   7.170
 4728POPC   NC362255  15.044  14.246   5.517
 4728POPC   PO462256  15.509  14.745   5.519
 4728POPC   GL162257  15.437  14.425   5.844
 4728POPC   GL262258  15.513  14.077   5.763
 4728POPC   C1A62259  15.236  14.507   6.250
 4728POPC   D2A62260  15.424  14.760   6.569
 4728POPC   C3A62261  15.374  14.613   6.986
 4728POPC   C4A62262  14.992  14.676   7.190
 4728POPC   C1B62263  15.359  14.012   6.182
 4728POPC   C2B62264  15.111  14.064   6.592
 4728POPC   C3B62265  15.006  14.162   7.054
 4728POPC   C4B62266  15.255  14.128   7.447
 4729POPC   NC362267  35.310  10.148   5.495
 4729POPC   PO462268  35.328   9.374   5.459
 4729POPC   GL162269  35.310   9.475   5.903
 4729POPC   GL262270  35.652   9.450   5.929
 4729POPC   C1A62271  35.229   9.844   6.211
 4729POPC   D2A62272  35.343  10.062   6.618
 4729POPC   C3A62273  35.150   9.954   7.020
 4729POPC   C4A62274  35.039  10.127   7.427
 4729POPC   C1B62275  35.550   9.465   6.375
 4729POPC   C2B62276  35.450   9.589   6.805
 4729POPC   C3B62277  35.618   9.736   7.226
 4729POPC   C4B62278  35.586   9.506   7.646
 4730POPC   NC362279  13.414  23.304   5.463
 4730POPC   PO462280  13.478  22.645   5.264
 4730POPC   GL162281  13.567  22.818   5.752
 4730POPC   GL262282  13.715  23.125   5.831
 4730POPC   C1A62283  13.455  22.822   6.199
 4730POPC   D2A62284  13.247  22.936   6.589
 4730POPC   C3A62285  13.452  22.861   6.953
 4730POPC   C4A62286  13.705  22.573   7.155
 4730POPC   C1B62287  13.893  23.073   6.254
 4730POPC   C2B62288  13.743  23.186   6.651
 4730POPC   C3B62289  13.902  23.078   7.062
 4730POPC   C4B62290  13.731  23.009   7.456
 4731POPC   NC362291  37.313  28.839   5.614
 4731POPC   PO462292  36.699  29.139   5.463
 4731POPC   GL162293  36.987  29.221   5.758
 4731POPC   GL262294  36.923  28.899   5.912
 4731POPC   C1A62295  37.103  29.333   6.178
 4731POPC   D2A62296  37.206  29.144   6.585
 4731POPC   C3A62297  36.874  29.235   6.872
 4731POPC   C4A62298  36.820  29.542   7.194
 4731POPC   C1B62299  37.034  28.763   6.275
 4731POPC   C2B62300  36.890  28.715   6.668
 4731POPC   C3B62301  37.132  28.829   7.013
 4731POPC   C4B62302  37.014  29.069   7.354
 4732POPC   NC362303  28.011  22.880   5.322
 4732POPC   PO462304  28.579  23.170   5.558
 4732POPC   GL162305  28.498  23.016   5.915
 4732POPC   GL262306  28.220  22.833   5.819
 4732POPC   C1A62307  28.358  23.098   6.314
 4732POPC   D2A62308  28.549  22.907   6.646
 4732POPC   C3A62309  28.409  23.024   7.018
 4732POPC   C4A62310  28.118  23.336   7.018
 4732POPC   C1B62311  28.030  22.710   6.214
 4732POPC   C2B62312  27.946  22.904   6.619
 4732POPC   C3B62313  28.032  22.696   7.006
 4732POPC   C4B62314  27.968  22.586   7.400
 4733POPC   NC362315  15.420   7.449   5.107
 4733POPC   PO462316  15.058   7.343   5.670
 4733POPC   GL162317  15.411   7.385   5.908
 4733POPC   GL262318  15.508   7.727   5.821
 4733POPC   C1A62319  15.431   7.267   6.350
 4733POPC   D2A62320  15.437   7.505   6.749
 4733POPC   C3A62321  15.341   7.298   7.146
 4733POPC   C4A62322  15.201   7.425   7.574
 4733POPC   C1B62323  15.419   7.793   6.294
 4733POPC   C2B62324  15.119   7.882   6.662
 4733POPC   C3B62325  15.078   7.749   7.105
 4733POPC   C4B62326  15.074   8.003   7.489
 4734POPC   NC362327  37.867  10.655   5.493
 4734POPC   PO462328  37.316  10.222   5.480
 4734POPC   GL162329  37.670  10.253   5.765
 4734POPC   GL262330  37.520  10.549   5.913
 4734POPC   C1A62331  37.889  10.320   6.182
 4734POPC   D2A62332  37.685  10.552   6.541
 4734POPC   C3A62333  37.871  10.671   6.966
 4734POPC   C4A62334  38.019  10.351   7.255
 4734POPC   C1B62335  37.367  10.868   6.222
 4734POPC   C2B62336  37.242  10.796   6.641
 4734POPC   C3B62337  37.345  10.697   7.054
 4734POPC   C4B62338  37.500  10.894   7.381
 4735POPC   NC362339  10.521  17.070   5.359
 4735POPC   PO462340  10.407  16.408   5.236
 4735POPC   GL162341  10.545  16.556   5.672
 4735POPC   GL262342  10.758  16.860   5.761
 4735POPC   C1A62343  10.461  16.576   6.118
 4735POPC   D2A62344  10.481  16.778   6.502
 4735POPC   C3A62345  10.337  16.567   6.870
 4735POPC   C4A62346  10.430  16.591   7.279
 4735POPC   C1B62347  10.588  17.128   6.105
 4735POPC   C2B62348  10.698  17.222   6.552
 4735POPC   C3B62349  10.721  16.932   6.933
 4735POPC   C4B62350  10.578  17.056   7.339
 4736POPC   NC362351   3.849   8.526   5.312
 4736POPC   PO462352   4.527   8.423   5.446
 4736POPC   GL162353   4.209   8.416   5.779
 4736POPC   GL262354   4.180   8.054   5.872
 4736POPC   C1A62355   4.327   8.395   6.228
 4736POPC   D2A62356   4.398   8.183   6.613
 4736POPC   C3A62357   4.469   8.473   6.915
 4736POPC   C4A62358   4.144   8.659   7.121
 4736POPC   C1B62359   4.017   7.993   6.306
 4736POPC   C2B62360   3.882   7.936   6.734
 4736POPC   C3B62361   4.143   8.115   7.053
 4736POPC   C4B62362   4.567   8.014   7.112
 4737POPC   NC362363   5.086   0.167   5.558
 4737POPC   PO462364   4.891  44.533   5.333
 4737POPC   GL162365   5.013  44.666   5.763
 4737POPC   GL262366   5.110  44.344   5.826
 4737POPC   C1A62367   5.004  44.907   6.193
 4737POPC   D2A62368   5.125  44.745   6.601
 4737POPC   C3A62369   5.021  44.946   6.958
 4737POPC   C4A62370   5.203  44.886   7.336
 4737POPC   C1B62371   5.058  44.369   6.270
 4737POPC   C2B62372   4.869  44.272   6.676
 4737POPC   C3B62373   5.126  44.341   7.067
 4737POPC   C4B62374   4.949  44.419   7.501
 4738POPC   NC362375  11.325  28.700   5.526
 4738POPC   PO462376  11.370  29.237   5.382
 4738POPC   GL162377  11.233  29.256   5.796
 4738POPC   GL262378  11.110  28.950   5.941
 4738POPC   C1A62379  11.258  29.365   6.245
 4738POPC   D2A62380  11.058  29.394   6.651
 4738POPC   C3A62381  11.311  29.360   7.019
 4738POPC   C4A62382  11.266  29.418   7.449
 4738POPC   C1B62383  11.150  28.903   6.414
 4738POPC   C2B62384  11.079  28.920   6.876
 4738POPC   C3B62385  11.238  28.917   7.315
 4738POPC   C4B62386  11.368  28.978   7.751
 4739POPC   NC362387  24.059  24.096   5.565
 4739POPC   PO462388  23.822  23.534   5.207
 4739POPC   GL162389  23.753  23.696   5.668
 4739POPC   GL262390  24.080  23.648   5.848
 4739POPC   C1A62391  23.751  23.920   6.128
 4739POPC   D2A62392  23.840  23.958   6.600
 4739POPC   C3A62393  23.599  23.732   6.929
 4739POPC   C4A62394  23.340  24.014   7.145
 4739POPC   C1B62395  24.145  23.654   6.309
 4739POPC   C2B62396  24.031  23.503   6.733
 4739POPC   C3B62397  23.992  23.540   7.196
 4739POPC   C4B62398  24.133  23.276   7.524
 4740POPC   NC362399  42.610  35.685   5.460
 4740POPC   PO462400  42.209  35.032   5.439
 4740POPC   GL162401  42.389  35.202   5.824
 4740POPC   GL262402  42.309  35.558   5.863
 4740POPC   C1A62403  42.392  35.153   6.297
 4740POPC   D2A62404  42.123  35.058   6.662
 4740POPC   C3A62405  42.341  34.902   7.002
 4740POPC   C4A62406  42.591  35.221   7.189
 4740POPC   C1B62407  41.980  35.414   6.140
 4740POPC   C2B62408  41.853  35.503   6.531
 4740POPC   C3B62409  42.121  35.562   6.863
 4740POPC   C4B62410  42.071  35.306   7.187
 4741POPC   NC362411  35.587  22.398   5.467
 4741POPC   PO462412  35.147  21.789   5.385
 4741POPC   GL162413  35.367  22.010   5.735
 4741POPC   GL262414  35.665  21.810   5.854
 4741POPC   C1A62415  35.258  22.088   6.178
 4741POPC   D2A62416  35.287  21.905   6.596
 4741POPC   C3A62417  35.172  22.089   6.982
 4741POPC   C4A62418  35.455  22.071   7.311
 4741POPC   C1B62419  35.755  22.175   6.127
 4741POPC   C2B62420  35.641  22.334   6.546
 4741POPC   C3B62421  35.831  22.253   6.968
 4741POPC   C4B62422  35.857  22.325   7.424
 4742POPC   NC362423   5.384   0.724   5.308
 4742POPC   PO462424   4.734   0.471   5.491
 4742POPC   GL162425   4.940   0.625   5.847
 4742POPC   GL262426   5.277   0.545   5.839
 4742POPC   C1A62427   5.068   0.522   6.291
 4742POPC   D2A62428   5.263   0.257   6.601
 4742POPC   C3A62429   5.068   0.454   6.938
 4742POPC   C4A62430   4.925   0.329   7.319
 4742POPC   C1B62431   5.554   0.451   6.215
 4742POPC   C2B62432   5.593   0.660   6.618
 4742POPC   C3B62433   5.495   0.714   7.046
 4742POPC   C4B62434   5.134   0.795   7.330
 4743POPC   NC362435  35.474   7.033   5.537
 4743POPC   PO462436  35.548   6.375   5.490
 4743POPC   GL162437  35.390   6.603   5.860
 4743POPC   GL262438  35.044   6.751   5.836
 4743POPC   C1A62439  35.520   6.616   6.291
 4743POPC   D2A62440  35.414   6.767   6.676
 4743POPC   C3A62441  35.358   6.528   7.032
 4743POPC   C4A62442  35.569   6.761   7.340
 4743POPC   C1B62443  35.083   6.906   6.275
 4743POPC   C2B62444  35.130   7.176   6.647
 4743POPC   C3B62445  35.023   6.963   6.997
 4743POPC   C4B62446  34.762   7.022   7.343
 4744POPC   NC362447   0.895   8.073   5.394
 4744POPC   PO462448   1.522   7.813   5.307
 4744POPC   GL162449   1.243   7.899   5.698
 4744POPC   GL262450   1.203   8.271   5.798
 4744POPC   C1A62451   1.072   7.914   6.128
 4744POPC   D2A62452   1.187   8.198   6.472
 4744POPC   C3A62453   1.200   8.093   6.916
 4744POPC   C4A62454   1.256   8.077   7.361
 4744POPC   C1B62455   1.536   8.402   6.141
 4744POPC   C2B62456   1.590   8.527   6.611
 4744POPC   C3B62457   1.459   8.510   7.072
 4744POPC   C4B62458   1.350   8.533   7.556
 4745POPC   NC362459  42.949  17.653   5.295
 4745POPC   PO462460  42.691  17.025   5.425
 4745POPC   GL162461  42.909  17.338   5.712
 4745POPC   GL262462  43.176  17.604   5.754
 4745POPC   C1A62463  42.826  17.589   6.115
 4745POPC   D2A62464  42.979  17.644   6.534
 4745POPC   C3A62465  42.752  17.698   6.913
 4745POPC   C4A62466  43.029  17.686   7.285
 4745POPC   C1B62467  43.426  17.581   6.147
 4745POPC   C2B62468  43.644  17.664   6.533
 4745POPC   C3B62469  43.478  17.699   6.948
 4745POPC   C4B62470  43.745  17.718   7.302
 4746POPC   NC362471  34.386  17.422   5.409
 4746POPC   PO462472  34.965  17.762   5.227
 4746POPC   GL162473  34.933  17.517   5.687
 4746POPC   GL262474  34.630  17.397   5.859
 4746POPC   C1A62475  34.911  17.619   6.192
 4746POPC   D2A62476  34.761  17.396   6.564
 4746POPC   C3A62477  34.948  17.520   6.929
 4746POPC   C4A62478  34.862  17.650   7.339
 4746POPC   C1B62479  34.388  17.547   6.247
 4746POPC   C2B62480  34.271  17.522   6.689
 4746POPC   C3B62481  34.474  17.381   7.051
 4746POPC   C4B62482  34.368  17.478   7.449
 4747POPC   NC362483  28.110   6.072   5.416
 4747POPC   PO462484  28.693   5.636   5.459
 4747POPC   GL162485  28.411   5.850   5.777
 4747POPC   GL262486  28.104   5.662   5.728
 4747POPC   C1A62487  28.245   6.008   6.201
 4747POPC   D2A62488  28.045   5.862   6.613
 4747POPC   C3A62489  28.244   6.054   6.991
 4747POPC   C4A62490  28.618   6.272   7.151
 4747POPC   C1B62491  28.090   5.530   6.140
 4747POPC   C2B62492  28.417   5.554   6.443
 4747POPC   C3B62493  28.361   5.557   6.901
 4747POPC   C4B62494  28.010   5.667   7.233
 4748POPC   NC362495  44.945  30.451   5.349
 4748POPC   PO462496  44.744  31.161   5.257
 4748POPC   GL162497  44.711  30.878   5.616
 4748POPC   GL262498  44.502  30.570   5.605
 4748POPC   C1A62499  44.795  30.889   6.082
 4748POPC   D2A62500  44.896  30.888   6.542
 4748POPC   C3A62501  44.721  30.671   6.888
 4748POPC   C4A62502  44.707  30.790   7.299
 4748POPC   C1B62503  44.497  30.497   6.042
 4748POPC   C2B62504  44.310  30.601   6.465
 4748POPC   C3B62505  44.250  30.473   6.921
 4748POPC   C4B62506  44.419  30.370   7.339
 4749POPC   NC362507  14.086  34.918   5.403
 4749POPC   PO462508  14.543  34.412   5.429
 4749POPC   GL162509  14.635  34.535   5.812
 4749POPC   GL262510  14.545  34.878   5.744
 4749POPC   C1A62511  14.617  34.581   6.239
 4749POPC   D2A62512  14.344  34.499   6.561
 4749POPC   C3A62513  14.391  34.633   6.969
 4749POPC   C4A62514  14.344  34.382   7.298
 4749POPC   C1B62515  14.244  34.896   6.087
 4749POPC   C2B62516  14.258  34.997   6.525
 4749POPC   C3B62517  14.002  34.954   6.880
 4749POPC   C4B62518  13.919  35.072   7.308
 4750POPC   NC362519   9.096  22.683   5.217
 4750POPC   PO462520   8.467  22.674   5.370
 4750POPC   GL162521   8.709  22.548   5.760
 4750POPC   GL262522   8.801  22.890   5.819
 4750POPC   C1A62523   9.008  22.547   6.141
 4750POPC   D2A62524   9.194  22.708   6.554
 4750POPC   C3A62525   9.053  22.548   6.979
 4750POPC   C4A62526   8.834  22.834   7.270
 4750POPC   C1B62527   8.930  23.065   6.237
 4750POPC   C2B62528   9.068  23.251   6.625
 4750POPC   C3B62529   9.175  23.103   7.021
 4750POPC   C4B62530   9.078  23.241   7.451
 4751POPC   NC362531  40.291   5.125   5.359
 4751POPC   PO462532  39.713   5.096   5.210
 4751POPC   GL162533  39.906   5.226   5.685
 4751POPC   GL262534  40.067   4.914   5.811
 4751POPC   C1A62535  40.103   5.316   6.147
 4751POPC   D2A62536  39.973   5.282   6.571
 4751POPC   C3A62537  40.209   5.268   6.927
 4751POPC   C4A62538  39.985   5.117   7.304
 4751POPC   C1B62539  40.018   4.833   6.276
 4751POPC   C2B62540  40.321   4.855   6.642
 4751POPC   C3B62541  40.243   4.768   7.068
 4751POPC   C4B62542  40.097   4.657   7.511
 4752POPC   NC362543   9.755  42.537   5.380
 4752POPC   PO462544   9.539  41.933   5.393
 4752POPC   GL162545   9.609  42.205   5.751
 4752POPC   GL262546   9.976  42.190   5.760
 4752POPC   C1A62547   9.704  42.343   6.195
 4752POPC   D2A62548   9.530  42.166   6.600
 4752POPC   C3A62549   9.708  42.249   7.026
 4752POPC   C4A62550   9.969  42.598   7.132
 4752POPC   C1B62551  10.005  41.938   6.152
 4752POPC   C2B62552  10.071  42.083   6.564
 4752POPC   C3B62553  10.070  41.913   6.940
 4752POPC   C4B62554   9.868  41.820   7.298
 4753POPC   NC362555  40.949  10.849   4.992
 4753POPC   PO462556  40.827  10.362   5.387
 4753POPC   GL162557  40.709  10.320   5.851
 4753POPC   GL262558  40.362  10.251   5.889
 4753POPC   C1A62559  40.692  10.496   6.305
 4753POPC   D2A62560  40.514  10.559   6.755
 4753POPC   C3A62561  40.751  10.758   7.133
 4753POPC   C4A62562  41.034  10.588   7.462
 4753POPC   C1B62563  40.437  10.055   6.298
 4753POPC   C2B62564  40.663  10.046   6.698
 4753POPC   C3B62565  40.746  10.231   7.115
 4753POPC   C4B62566  40.544  10.402   7.474
 4754POPC   NC362567  40.749  21.839   5.370
 4754POPC   PO462568  40.724  22.572   5.509
 4754POPC   GL162569  40.676  22.236   5.773
 4754POPC   GL262570  41.007  22.118   5.774
 4754POPC   C1A62571  40.722  22.113   6.224
 4754POPC   D2A62572  40.812  22.337   6.589
 4754POPC   C3A62573  40.628  22.108   6.910
 4754POPC   C4A62574  40.537  22.256   7.275
 4754POPC   C1B62575  41.072  21.777   6.085
 4754POPC   C2B62576  40.906  21.646   6.511
 4754POPC   C3B62577  40.964  21.732   6.954
 4754POPC   C4B62578  40.926  21.941   7.385
 4755POPC   NC362579  16.701  10.825   5.033
 4755POPC   PO462580  16.664  10.312   5.393
 4755POPC   GL162581  16.732  10.505   5.794
 4755POPC   GL262582  16.845  10.838   5.686
 4755POPC   C1A62583  16.956  10.383   6.189
 4755POPC   D2A62584  17.094  10.286   6.626
 4755POPC   C3A62585  16.723  10.262   6.912
 4755POPC   C4A62586  16.686  10.396   7.374
 4755POPC   C1B62587  16.794  10.884   6.135
 4755POPC   C2B62588  16.804  10.739   6.578
 4755POPC   C3B62589  16.635  10.752   6.993
 4755POPC   C4B62590  16.744  10.886   7.410
 4756POPC   NC362591   4.276  17.888   5.240
 4756POPC   PO462592   4.406  18.484   5.506
 4756POPC   GL162593   4.242  18.276   5.878
 4756POPC   GL262594   4.481  18.022   5.888
 4756POPC   C1A62595   4.042  18.292   6.320
 4756POPC   D2A62596   3.934  18.306   6.784
 4756POPC   C3A62597   4.198  18.173   7.148
 4756POPC   C4A62598   4.218  18.014   7.563
 4756POPC   C1B62599   4.569  18.265   6.265
 4756POPC   C2B62600   4.452  18.319   6.676
 4756POPC   C3B62601   4.653  18.038   6.930
 4756POPC   C4B62602   4.810  18.108   7.316
 4757POPC   NC362603  12.484  21.750   5.576
 4757POPC   PO462604  12.080  22.222   5.469
 4757POPC   GL162605  12.139  22.221   5.903
 4757POPC   GL262606  12.456  22.066   5.984
 4757POPC   C1A62607  11.977  22.358   6.290
 4757POPC   D2A62608  11.714  22.245   6.617
 4757POPC   C3A62609  11.921  22.420   6.947
 4757POPC   C4A62610  12.110  22.386   7.340
 4757POPC   C1B62611  12.229  21.883   6.311
 4757POPC   C2B62612  12.193  22.041   6.725
 4757POPC   C3B62613  12.067  21.912   7.120
 4757POPC   C4B62614  12.219  21.901   7.548
 4758POPC   NC362615  13.403  34.381   5.166
 4758POPC   PO462616  13.766  33.790   5.404
 4758POPC   GL162617  13.630  33.778   5.818
 4758POPC   GL262618  13.827  34.077   5.871
 4758POPC   C1A62619  13.606  33.825   6.274
 4758POPC   D2A62620  13.581  33.916   6.701
 4758POPC   C3A62621  13.637  33.603   7.015
 4758POPC   C4A62622  13.476  33.690   7.444
 4758POPC   C1B62623  14.098  33.795   6.106
 4758POPC   C2B62624  14.038  33.697   6.544
 4758POPC   C3B62625  14.057  34.003   6.868
 4758POPC   C4B62626  13.776  34.061   7.208
 4759POPC   NC362627   1.618  34.244   5.616
 4759POPC   PO462628   1.550  34.885   5.316
 4759POPC   GL162629   1.854  34.798   5.729
 4759POPC   GL262630   2.194  34.622   5.888
 4759POPC   C1A62631   1.878  34.837   6.204
 4759POPC   D2A62632   1.766  34.810   6.642
 4759POPC   C3A62633   2.078  34.931   6.918
 4759POPC   C4A62634   2.042  34.686   7.234
 4759POPC   C1B62635   2.020  34.335   6.204
 4759POPC   C2B62636   2.040  34.078   6.594
 4759POPC   C3B62637   1.958  34.233   6.989
 4759POPC   C4B62638   2.148  34.222   7.411
 4760POPC   NC362639  29.302   3.030   5.293
 4760POPC   PO462640  28.891   2.467   5.339
 4760POPC   GL162641  28.912   2.626   5.761
 4760POPC   GL262642  29.261   2.558   5.813
 4760POPC   C1A62643  28.858   2.497   6.214
 4760POPC   D2A62644  29.038   2.658   6.628
 4760POPC   C3A62645  28.927   2.503   7.042
 4760POPC   C4A62646  29.053   2.737   7.416
 4760POPC   C1B62647  29.380   2.657   6.246
 4760POPC   C2B62648  29.563   2.795   6.663
 4760POPC   C3B62649  29.428   2.963   7.099
 4760POPC   C4B62650  29.512   3.030   7.576
 4761POPC   NC362651  36.371  35.392   5.224
 4761POPC   PO462652  35.665  35.410   5.254
 4761POPC   GL162653  35.955  35.471   5.615
 4761POPC   GL262654  36.253  35.281   5.738
 4761POPC   C1A62655  35.874  35.384   6.076
 4761POPC   D2A62656  36.076  35.105   6.385
 4761POPC   C3A62657  36.124  35.198   6.853
 4761POPC   C4A62658  36.052  35.201   7.337
 4761POPC   C1B62659  36.381  35.493   6.156
 4761POPC   C2B62660  36.385  35.647   6.584
 4761POPC   C3B62661  36.541  35.493   6.965
 4761POPC   C4B62662  36.555  35.266   7.340
 4762POPC   NC362663  44.466  19.163   5.449
 4762POPC   PO462664  44.953  18.710   5.457
 4762POPC   GL162665  44.744  18.916   5.786
 4762POPC   GL262666  44.397  18.779   5.812
 4762POPC   C1A62667  44.649  19.209   6.131
 4762POPC   D2A62668  44.851  19.372   6.478
 4762POPC   C3A62669  44.823  19.178   6.874
 4762POPC   C4A62670  44.810  19.072   7.271
 4762POPC   C1B62671  44.577  18.703   6.203
 4762POPC   C2B62672  44.562  18.869   6.584
 4762POPC   C3B62673  44.511  18.722   6.997
 4762POPC   C4B62674  44.395  18.797   7.428
 4763POPC   NC362675  13.728  39.678   5.257
 4763POPC   PO462676  13.428  40.292   5.174
 4763POPC   GL162677  13.451  40.087   5.653
 4763POPC   GL262678  13.757  39.846   5.758
 4763POPC   C1A62679  13.467  40.151   6.149
 4763POPC   D2A62680  13.407  40.309   6.606
 4763POPC   C3A62681  13.559  40.121   6.970
 4763POPC   C4A62682  13.779  40.041   7.341
 4763POPC   C1B62683  13.893  39.851   6.194
 4763POPC   C2B62684  13.924  40.034   6.604
 4763POPC   C3B62685  13.896  39.742   6.925
 4763POPC   C4B62686  13.817  39.539   7.280
 4764POPC   NC362687  20.729  40.956   5.264
 4764POPC   PO462688  20.232  40.545   5.460
 4764POPC   GL162689  20.514  40.832   5.735
 4764POPC   GL262690  20.866  40.761   5.753
 4764POPC   C1A62691  20.614  41.017   6.143
 4764POPC   D2A62692  20.535  40.878   6.553
 4764POPC   C3A62693  20.649  41.086   6.966
 4764POPC   C4A62694  20.645  40.968   7.411
 4764POPC   C1B62695  21.101  40.844   6.162
 4764POPC   C2B62696  21.043  40.717   6.587
 4764POPC   C3B62697  20.751  40.590   6.911
 4764POPC   C4B62698  20.743  40.484   7.306
 4765POPC   NC362699  15.041  31.342   5.162
 4765POPC   PO462700  15.582  31.676   5.252
 4765POPC   GL162701  15.272  31.471   5.601
 4765POPC   GL262702  15.005  31.199   5.720
 4765POPC   C1A62703  15.157  31.570   6.033
 4765POPC   D2A62704  15.056  31.376   6.421
 4765POPC   C3A62705  15.215  31.599   6.776
 4765POPC   C4A62706  15.061  31.584   7.189
 4765POPC   C1B62707  14.830  30.939   6.113
 4765POPC   C2B62708  14.676  30.956   6.556
 4765POPC   C3B62709  14.896  31.171   6.901
 4765POPC   C4B62710  15.050  31.087   7.335
 4766POPC   NC362711   7.370   0.493   5.294
 4766POPC   PO462712   7.116  44.965   5.450
 4766POPC   GL162713   7.273   0.161   5.769
 4766POPC   GL262714   7.175   0.443   5.796
 4766POPC   C1A62715   7.482   0.098   6.155
 4766POPC   D2A62716   7.385   0.204   6.576
 4766POPC   C3A62717   7.508   0.566   6.743
 4766POPC   C4A62718   7.471   0.588   7.149
 4766POPC   C1B62719   7.264   0.575   6.200
 4766POPC   C2B62720   7.008   0.570   6.534
 4766POPC   C3B62721   7.017   0.480   6.945
 4766POPC   C4B62722   7.020   0.632   7.368
 4767POPC   NC362723  30.913  17.061   5.526
 4767POPC   PO462724  30.525  16.498   5.586
 4767POPC   GL162725  30.842  16.649   5.881
 4767POPC   GL262726  30.904  16.365   6.081
 4767POPC   C1A62727  31.036  16.919   6.201
 4767POPC   D2A62728  30.949  17.001   6.653
 4767POPC   C3A62729  30.872  16.621   6.906
 4767POPC   C4A62730  30.962  16.338   7.225
 4767POPC   C1B62731  30.632  16.617   6.396
 4767POPC   C2B62732  30.433  16.854   6.777
 4767POPC   C3B62733  30.262  16.932   7.222
 4767POPC   C4B62734  30.319  16.882   7.726
 4768POPC   NC362735   5.147  35.422   5.207
 4768POPC   PO462736   4.509  35.341   5.322
 4768POPC   GL162737   4.918  35.335   5.664
 4768POPC   GL262738   5.316  35.427   5.701
 4768POPC   C1A62739   5.064  35.230   6.116
 4768POPC   D2A62740   5.320  35.130   6.496
 4768POPC   C3A62741   5.257  35.389   6.845
 4768POPC   C4A62742   5.081  35.286   7.223
 4768POPC   C1B62743   5.534  35.507   6.126
 4768POPC   C2B62744   5.608  35.708   6.532
 4768POPC   C3B62745   5.677  35.768   6.981
 4768POPC   C4B62746   5.408  35.670   7.301
 4769POPC   NC362747  38.471  24.805   5.481
 4769POPC   PO462748  38.305  25.398   5.320
 4769POPC   GL162749  38.630  25.307   5.634
 4769POPC   GL262750  38.356  25.360   5.870
 4769POPC   C1A62751  38.761  25.136   6.082
 4769POPC   D2A62752  38.502  25.096   6.483
 4769POPC   C3A62753  38.624  25.285   6.879
 4769POPC   C4A62754  38.397  25.425   7.254
 4769POPC   C1B62755  38.097  25.103   6.150
 4769POPC   C2B62756  37.948  24.986   6.531
 4769POPC   C3B62757  38.140  25.064   6.912
 4769POPC   C4B62758  37.947  25.112   7.271
 4770POPC   NC362759  43.541  23.531   5.478
 4770POPC   PO462760  44.003  23.863   5.511
 4770POPC   GL162761  43.636  23.981   5.784
 4770POPC   GL262762  43.662  23.706   5.940
 4770POPC   C1A62763  43.652  24.139   6.240
 4770POPC   D2A62764  43.814  24.006   6.668
 4770POPC   C3A62765  43.610  23.961   7.108
 4770POPC   C4A62766  43.786  23.863   7.512
 4770POPC   C1B62767  43.739  23.595   6.320
 4770POPC   C2B62768  43.912  23.363   6.604
 4770POPC   C3B62769  43.882  23.543   6.966
 4770POPC   C4B62770  43.606  23.449   7.243
 4771POPC   NC362771  12.886  13.538   5.239
 4771POPC   PO462772  12.710  14.064   5.513
 4771POPC   GL162773  12.857  13.773   5.832
 4771POPC   GL262774  12.617  13.507   5.876
 4771POPC   C1A62775  12.945  13.594   6.270
 4771POPC   D2A62776  12.808  13.368   6.670
 4771POPC   C3A62777  13.037  13.394   7.107
 4771POPC   C4A62778  13.144  13.198   7.597
 4771POPC   C1B62779  12.449  13.816   6.195
 4771POPC   C2B62780  12.287  13.812   6.620
 4771POPC   C3B62781  12.509  13.662   6.974
 4771POPC   C4B62782  12.525  13.297   7.184
 4772POPC   NC362783   3.600  35.961   5.516
 4772POPC   PO462784   3.155  36.473   5.490
 4772POPC   GL162785   3.256  36.243   5.862
 4772POPC   GL262786   3.607  36.272   5.900
 4772POPC   C1A62787   3.217  36.003   6.262
 4772POPC   D2A62788   3.442  35.901   6.615
 4772POPC   C3A62789   3.477  36.286   6.779
 4772POPC   C4A62790   3.258  36.413   7.119
 4772POPC   C1B62791   3.908  36.363   6.192
 4772POPC   C2B62792   3.930  36.175   6.558
 4772POPC   C3B62793   3.966  36.391   6.910
 4772POPC   C4B62794   3.756  36.300   7.220
 4773POPC   NC362795  15.752  38.764   5.503
 4773POPC   PO462796  15.772  38.157   5.538
 4773POPC   GL162797  15.917  38.443   5.896
 4773POPC   GL262798  16.218  38.676   5.813
 4773POPC   C1A62799  15.951  38.338   6.354
 4773POPC   D2A62800  15.751  38.159   6.747
 4773POPC   C3A62801  16.018  38.202   7.124
 4773POPC   C4A62802  16.484  38.210   7.164
 4773POPC   C1B62803  16.277  38.746   6.278
 4773POPC   C2B62804  16.088  38.703   6.730
 4773POPC   C3B62805  16.175  38.692   7.211
 4773POPC   C4B62806  16.236  38.863   7.677
 4774POPC   NC362807  16.888   3.823   5.385
 4774POPC   PO462808  16.268   3.435   5.397
 4774POPC   GL162809  16.591   3.476   5.732
 4774POPC   GL262810  16.922   3.264   5.714
 4774POPC   C1A62811  16.490   3.647   6.152
 4774POPC   D2A62812  16.297   3.723   6.565
 4774POPC   C3A62813  16.551   3.646   6.935
 4774POPC   C4A62814  16.789   3.796   7.320
 4774POPC   C1B62815  16.978   3.551   6.085
 4774POPC   C2B62816  16.891   3.742   6.509
 4774POPC   C3B62817  17.063   3.633   6.907
 4774POPC   C4B62818  17.317   3.768   7.287
 4775POPC   NC362819   7.178   5.880   5.112
 4775POPC   PO462820   6.532   5.661   5.307
 4775POPC   GL162821   6.584   5.682   5.755
 4775POPC   GL262822   6.400   6.002   5.678
 4775POPC   C1A62823   6.720   5.582   6.205
 4775POPC   D2A62824   6.460   5.699   6.573
 4775POPC   C3A62825   6.562   5.709   7.003
 4775POPC   C4A62826   6.700   5.798   7.441
 4775POPC   C1B62827   6.512   6.052   6.121
 4775POPC   C2B62828   6.574   6.218   6.540
 4775POPC   C3B62829   6.586   6.226   6.974
 4775POPC   C4B62830   6.612   6.300   7.393
 4776POPC   NC362831  42.770  30.680   5.459
 4776POPC   PO462832  42.091  30.859   5.405
 4776POPC   GL162833  42.153  30.864   5.849
 4776POPC   GL262834  42.379  30.638   5.791
 4776POPC   C1A62835  41.995  30.685   6.257
 4776POPC   D2A62836  41.717  30.765   6.625
 4776POPC   C3A62837  42.034  30.675   6.919
 4776POPC   C4A62838  42.339  30.993   7.032
 4776POPC   C1B62839  42.592  30.401   6.070
 4776POPC   C2B62840  42.416  30.323   6.451
 4776POPC   C3B62841  42.508  30.499   6.816
 4776POPC   C4B62842  42.351  30.377   7.190
 4777POPC   NC362843  33.447  14.130   5.237
 4777POPC   PO462844  33.840  14.634   5.428
 4777POPC   GL162845  33.784  14.378   5.839
 4777POPC   GL262846  33.596  14.052   5.803
 4777POPC   C1A62847  33.948  14.391   6.285
 4777POPC   D2A62848  34.035  14.706   6.629
 4777POPC   C3A62849  33.986  14.573   7.070
 4777POPC   C4A62850  33.766  14.631   7.523
 4777POPC   C1B62851  33.456  14.212   6.252
 4777POPC   C2B62852  33.605  14.381   6.703
 4777POPC   C3B62853  33.628  14.230   7.164
 4777POPC   C4B62854  33.430  13.985   7.511
 4778POPC   NC362855   4.301  18.887   5.285
 4778POPC   PO462856   4.632  19.455   5.430
 4778POPC   GL162857   4.263  19.257   5.687
 4778POPC   GL262858   4.295  18.914   5.791
 4778POPC   C1A62859   4.096  19.245   6.120
 4778POPC   D2A62860   4.382  19.275   6.471
 4778POPC   C3A62861   4.228  19.177   6.861
 4778POPC   C4A62862   4.304  19.303   7.246
 4778POPC   C1B62863   4.313  18.722   6.190
 4778POPC   C2B62864   4.151  18.738   6.623
 4778POPC   C3B62865   4.205  18.671   7.085
 4778POPC   C4B62866   4.433  18.861   7.442
 4779POPC   NC362867   8.268  10.728   5.559
 4779POPC   PO462868   8.261  10.089   5.492
 4779POPC   GL162869   8.211  10.354   5.877
 4779POPC   GL262870   7.887  10.527   5.851
 4779POPC   C1A62871   8.197  10.695   6.218
 4779POPC   D2A62872   8.215  10.948   6.584
 4779POPC   C3A62873   8.395  10.731   6.933
 4779POPC   C4A62874   8.254  10.624   7.331
 4779POPC   C1B62875   7.850  10.279   6.263
 4779POPC   C2B62876   7.950  10.229   6.700
 4779POPC   C3B62877   7.880  10.490   7.026
 4779POPC   C4B62878   7.927  10.939   7.036
 4780POPC   NC362879   0.149  44.685   5.167
 4780POPC   PO462880  44.670  44.913   5.644
 4780POPC   GL162881  44.595  44.550   5.891
 4780POPC   GL262882  44.323  44.311   5.858
 4780POPC   C1A62883  44.847  44.520   6.268
 4780POPC   D2A62884  44.794  44.707   6.622
 4780POPC   C3A62885  44.866  44.481   6.965
 4780POPC   C4A62886  44.691  44.570   7.349
 4780POPC   C1B62887  44.487  44.184   6.234
 4780POPC   C2B62888  44.473  44.291   6.653
 4780POPC   C3B62889  44.327  44.458   7.027
 4780POPC   C4B62890  44.226  44.327   7.448
 4781POPC   NC362891  37.355  12.945   5.440
 4781POPC   PO462892  37.969  12.748   5.658
 4781POPC   GL162893  37.633  12.904   5.915
 4781POPC   GL262894  37.360  12.707   5.895
 4781POPC   C1A62895  37.603  12.744   6.338
 4781POPC   D2A62896  37.705  12.601   6.756
 4781POPC   C3A62897  37.599  12.914   7.049
 4781POPC   C4A62898  37.858  13.113   7.338
 4781POPC   C1B62899  37.092  12.623   6.250
 4781POPC   C2B62900  37.224  12.767   6.681
 4781POPC   C3B62901  37.218  12.591   7.113
 4781POPC   C4B62902  37.103  12.569   7.566
 4782POPC   NC362903  40.519  40.934   5.520
 4782POPC   PO462904  41.026  40.516   5.481
 4782POPC   GL162905  40.876  40.712   5.840
 4782POPC   GL262906  40.950  41.079   5.766
 4782POPC   C1A62907  40.653  40.536   6.207
 4782POPC   D2A62908  40.730  40.389   6.624
 4782POPC   C3A62909  40.561  40.551   7.015
 4782POPC   C4A62910  40.856  40.528   7.355
 4782POPC   C1B62911  40.640  41.049   6.165
 4782POPC   C2B62912  40.555  40.891   6.585
 4782POPC   C3B62913  40.581  41.112   6.963
 4782POPC   C4B62914  40.765  41.044   7.331
 4783POPC   NC362915   5.164  20.155   5.497
 4783POPC   PO462916   5.490  19.579   5.426
 4783POPC   GL162917   5.116  19.703   5.740
 4783POPC   GL262918   5.292  19.971   5.940
 4783POPC   C1A62919   4.853  19.854   6.139
 4783POPC   D2A62920   4.670  19.705   6.531
 4783POPC   C3A62921   4.809  19.849   6.959
 4783POPC   C4A62922   4.842  20.106   7.331
 4783POPC   C1B62923   5.275  19.590   6.203
 4783POPC   C2B62924   5.176  19.703   6.609
 4783POPC   C3B62925   5.190  19.484   6.968
 4783POPC   C4B62926   5.405  19.569   7.305
 4784POPC   NC362927  29.546  23.440   5.371
 4784POPC   PO462928  29.084  23.939   5.424
 4784POPC   GL162929  29.124  23.688   5.856
 4784POPC   GL262930  29.025  23.333   5.921
 4784POPC   C1A62931  29.062  23.729   6.317
 4784POPC   D2A62932  28.829  23.755   6.718
 4784POPC   C3A62933  29.046  23.766   7.106
 4784POPC   C4A62934  28.949  23.702   7.534
 4784POPC   C1B62935  29.306  23.275   6.314
 4784POPC   C2B62936  29.332  23.335   6.790
 4784POPC   C3B62937  29.193  23.289   7.269
 4784POPC   C4B62938  29.320  23.402   7.726
 4785POPC   NC362939   8.491  31.136   5.428
 4785POPC   PO462940   8.069  30.632   5.380
 4785POPC   GL162941   8.110  30.885   5.749
 4785POPC   GL262942   8.289  30.617   5.879
 4785POPC   C1A62943   8.170  31.026   6.203
 4785POPC   D2A62944   8.039  31.096   6.658
 4785POPC   C3A62945   8.374  31.044   6.982
 4785POPC   C4A62946   8.595  30.702   7.212
 4785POPC   C1B62947   7.992  30.556   6.216
 4785POPC   C2B62948   8.102  30.535   6.659
 4785POPC   C3B62949   7.972  30.679   7.064
 4785POPC   C4B62950   8.054  30.987   7.364
 4786POPC   NC362951   4.201  31.104   5.065
 4786POPC   PO462952   4.561  31.621   5.375
 4786POPC   GL162953   4.565  31.558   5.843
 4786POPC   GL262954   4.221  31.509   5.863
 4786POPC   C1A62955   4.469  31.369   6.285
 4786POPC   D2A62956   4.255  31.304   6.698
 4786POPC   C3A62957   4.325  31.592   7.084
 4786POPC   C4A62958   4.287  31.883   7.464
 4786POPC   C1B62959   3.960  31.284   6.171
 4786POPC   C2B62960   3.741  31.333   6.566
 4786POPC   C3B62961   3.842  31.275   7.010
 4786POPC   C4B62962   3.886  31.557   7.354
 4787POPC   NC362963   8.301  43.159   5.479
 4787POPC   PO462964   7.845  42.631   5.373
 4787POPC   GL162965   8.027  42.880   5.774
 4787POPC   GL262966   8.451  42.849   5.838
 4787POPC   C1A62967   8.093  43.076   6.199
 4787POPC   D2A62968   7.962  43.405   6.527
 4787POPC   C3A62969   8.208  43.434   6.926
 4787POPC   C4A62970   8.086  43.326   7.349
 4787POPC   C1B62971   8.300  42.599   6.159
 4787POPC   C2B62972   8.341  42.626   6.606
 4787POPC   C3B62973   8.354  42.631   7.063
 4787POPC   C4B62974   8.519  42.734   7.476
 4788POPC   NC362975   2.500  43.119   5.472
 4788POPC   PO462976   3.195  42.977   5.347
 4788POPC   GL162977   2.956  43.127   5.728
 4788POPC   GL262978   2.831  42.795   5.727
 4788POPC   C1A62979   2.848  43.329   6.148
 4788POPC   D2A62980   2.884  43.398   6.596
 4788POPC   C3A62981   2.685  43.255   6.966
 4788POPC   C4A62982   2.391  43.510   7.212
 4788POPC   C1B62983   2.586  42.905   6.096
 4788POPC   C2B62984   2.808  42.870   6.486
 4788POPC   C3B62985   2.881  42.739   6.902
 4788POPC   C4B62986   2.532  42.817   7.173
 4789POPC   NC362987   3.965  23.054   5.483
 4789POPC   PO462988   3.418  22.770   5.328
 4789POPC   GL162989   3.545  22.851   5.709
 4789POPC   GL262990   3.250  22.908   5.873
 4789POPC   C1A62991   3.742  22.740   6.063
 4789POPC   D2A62992   3.634  22.676   6.480
 4789POPC   C3A62993   3.638  22.947   6.807
 4789POPC   C4A62994   3.822  22.875   7.218
 4789POPC   C1B62995   3.229  22.955   6.329
 4789POPC   C2B62996   3.160  22.678   6.687
 4789POPC   C3B62997   3.334  22.687   7.126
 4789POPC   C4B62998   3.395  22.979   7.477
 4790POPC   NC362999   5.701  43.593   5.561
 4790POPC   PO463000   5.762  44.270   5.360
 4790POPC   GL163001   5.793  44.117   5.769
 4790POPC   GL263002   5.454  43.972   5.808
 4790POPC   C1A63003   5.828  43.856   6.176
 4790POPC   D2A63004   5.827  43.674   6.581
 4790POPC   C3A63005   5.954  43.765   7.014
 4790POPC   C4A63006   5.924  43.614   7.412
 4790POPC   C1B63007   5.525  44.257   6.167
 4790POPC   C2B63008   5.785  44.228   6.540
 4790POPC   C3B63009   5.801  44.254   6.990
 4790POPC   C4B63010   5.900  44.128   7.440
 4791POPC   NC363011  38.691  18.285   5.522
 4791POPC   PO463012  38.045  18.467   5.517
 4791POPC   GL163013  38.328  18.312   5.896
 4791POPC   GL263014  38.710  18.249   6.013
 4791POPC   C1A63015  38.348  18.302   6.342
 4791POPC   D2A63016  38.519  18.250   6.742
 4791POPC   C3A63017  38.381  18.593   6.990
 4791POPC   C4A63018  38.039  18.684   7.266
 4791POPC   C1B63019  38.851  18.494   6.369
 4791POPC   C2B63020  39.131  18.633   6.688
 4791POPC   C3B63021  38.917  18.441   7.013
 4791POPC   C4B63022  38.620  18.224   7.254
 4792POPC   NC363023  16.886  38.028   5.344
 4792POPC   PO463024  16.375  37.516   5.428
 4792POPC   GL163025  16.550  37.517   5.844
 4792POPC   GL263026  16.859  37.708   5.796
 4792POPC   C1A63027  16.506  37.412   6.304
 4792POPC   D2A63028  16.478  37.292   6.752
 4792POPC   C3A63029  16.581  37.442   7.181
 4792POPC   C4A63030  16.635  37.241   7.637
 4792POPC   C1B63031  16.757  37.847   6.243
 4792POPC   C2B63032  16.741  37.741   6.724
 4792POPC   C3B63033  16.933  37.876   7.135
 4792POPC   C4B63034  16.939  38.175   7.531
 4793POPC   NC363035   0.757   0.459   5.340
 4793POPC   PO463036   0.177   0.191   5.156
 4793POPC   GL163037   0.297   0.497   5.572
 4793POPC   GL263038   0.600   0.408   5.814
 4793POPC   C1A63039   0.163   0.471   6.052
 4793POPC   D2A63040   0.416   0.299   6.422
 4793POPC   C3A63041   0.389   0.402   6.886
 4793POPC   C4A63042   0.061   0.410   7.250
 4793POPC   C1B63043   0.729   0.651   6.188
 4793POPC   C2B63044   0.846   0.535   6.626
 4793POPC   C3B63045   0.848   0.675   7.045
 4793POPC   C4B63046   0.486   0.740   7.287
 4794POPC   NC363047  19.410  29.747   5.338
 4794POPC   PO463048  19.321  30.414   5.212
 4794POPC   GL163049  19.111  30.329   5.636
 4794POPC   GL263050  19.040  29.977   5.709
 4794POPC   C1A63051  18.992  30.327   6.086
 4794POPC   D2A63052  19.085  30.061   6.451
 4794POPC   C3A63053  19.220  30.131   6.889
 4794POPC   C4A63054  19.287  29.822   7.226
 4794POPC   C1B63055  18.770  29.822   6.062
 4794POPC   C2B63056  18.650  29.752   6.504
 4794POPC   C3B63057  18.832  29.713   6.930
 4794POPC   C4B63058  18.809  30.049   7.244
 4795POPC   NC363059   7.006   5.889   5.571
 4795POPC   PO463060   7.514   5.549   5.160
 4795POPC   GL163061   7.519   5.527   5.688
 4795POPC   GL263062   7.242   5.655   5.934
 4795POPC   C1A63063   7.675   5.688   6.152
 4795POPC   D2A63064   7.400   5.677   6.533
 4795POPC   C3A63065   7.517   5.821   6.963
 4795POPC   C4A63066   7.341   5.673   7.348
 4795POPC   C1B63067   7.073   5.957   6.229
 4795POPC   C2B63068   6.926   5.869   6.643
 4795POPC   C3B63069   7.021   5.951   7.052
 4795POPC   C4B63070   7.079   6.123   7.447
 4796POPC   NC363071  18.060  28.568   5.447
 4796POPC   PO463072  18.309  29.160   5.326
 4796POPC   GL163073  18.202  28.990   5.730
 4796POPC   GL263074  18.498  28.767   5.690
 4796POPC   C1A63075  18.027  29.089   6.165
 4796POPC   D2A63076  17.904  28.972   6.617
 4796POPC   C3A63077  18.127  29.145   6.971
 4796POPC   C4A63078  17.975  29.459   7.257
 4796POPC   C1B63079  18.395  28.714   6.138
 4796POPC   C2B63080  18.444  28.889   6.546
 4796POPC   C3B63081  18.438  28.726   6.968
 4796POPC   C4B63082  18.173  28.772   7.331
 4797POPC   NC363083  41.388  23.420   5.104
 4797POPC   PO463084  41.759  23.900   5.283
 4797POPC   GL163085  41.640  23.628   5.649
 4797POPC   GL263086  41.542  23.937   5.814
 4797POPC   C1A63087  41.613  23.524   6.111
 4797POPC   D2A63088  41.599  23.777   6.484
 4797POPC   C3A63089  41.818  23.616   6.860
 4797POPC   C4A63090  41.692  23.478   7.272
 4797POPC   C1B63091  41.434  24.197   6.195
 4797POPC   C2B63092  41.634  24.344   6.547
 4797POPC   C3B63093  41.637  24.117   6.874
 4797POPC   C4B63094  41.547  23.964   7.214
 4798POPC   NC363095  34.090  40.976   5.161
 4798POPC   PO463096  33.546  41.157   5.467
 4798POPC   GL163097  33.741  40.958   5.780
 4798POPC   GL263098  33.913  41.166   5.992
 4798POPC   C1A63099  33.706  40.702   6.147
 4798POPC   D2A63100  33.837  40.565   6.581
 4798POPC   C3A63101  33.984  40.734   6.963
 4798POPC   C4A63102  33.728  40.701   7.366
 4798POPC   C1B63103  33.877  41.096   6.429
 4798POPC   C2B63104  33.954  41.232   6.850
 4798POPC   C3B63105  33.931  41.149   7.272
 4798POPC   C4B63106  34.183  41.182   7.642
 4799POPC   NC363107   5.233  11.929   5.298
 4799POPC   PO463108   5.492  12.511   5.432
 4799POPC   GL163109   5.315  12.265   5.820
 4799POPC   GL263110   5.026  12.070   5.783
 4799POPC   C1A63111   5.148  12.277   6.270
 4799POPC   D2A63112   5.333  12.285   6.692
 4799POPC   C3A63113   5.184  12.427   7.112
 4799POPC   C4A63114   5.279  12.445   7.585
 4799POPC   C1B63115   5.179  11.795   6.118
 4799POPC   C2B63116   5.131  11.832   6.560
 4799POPC   C3B63117   4.931  11.965   6.958
 4799POPC   C4B63118   4.657  11.734   7.254
 4800POPC   NC363119  39.813  42.080   5.447
 4800POPC   PO463120  40.376  42.423   5.341
 4800POPC   GL163121  40.122  42.369   5.767
 4800POPC   GL263122  39.871  42.067   5.942
 4800POPC   C1A63123  40.044  42.554   6.182
 4800POPC   D2A63124  40.011  42.351   6.572
 4800POPC   C3A63125  39.988  42.565   6.948
 4800POPC   C4A63126  39.976  42.404   7.364
 4800POPC   C1B63127  39.524  42.001   6.239
 4800POPC   C2B63128  39.612  41.992   6.685
 4800POPC   C3B63129  39.737  42.049   7.095
 4800POPC   C4B63130  39.489  42.271   7.405
 4801POPC   NC363131  20.094  26.098   5.413
 4801POPC   PO463132  20.799  26.370   5.411
 4801POPC   GL163133  20.529  26.225   5.711
 4801POPC   GL263134  20.687  25.927   5.787
 4801POPC   C1A63135  20.481  26.267   6.152
 4801POPC   D2A63136  20.320  26.098   6.530
 4801POPC   C3A63137  20.532  26.294   6.869
 4801POPC   C4A63138  20.595  26.155   7.274
 4801POPC   C1B63139  20.470  25.772   6.130
 4801POPC   C2B63140  20.692  25.705   6.518
 4801POPC   C3B63141  20.609  25.764   6.948
 4801POPC   C4B63142  20.407  25.688   7.367
 4802POPC   NC363143  35.545  42.850   5.458
 4802POPC   PO463144  35.032  42.416   5.339
 4802POPC   GL163145  35.189  42.198   5.735
 4802POPC   GL263146  35.507  42.337   5.791
 4802POPC   C1A63147  35.047  42.284   6.179
 4802POPC   D2A63148  34.740  42.406   6.527
 4802POPC   C3A63149  34.871  42.278   6.941
 4802POPC   C4A63150  35.155  42.442   7.236
 4802POPC   C1B63151  35.680  42.284   6.199
 4802POPC   C2B63152  35.678  42.406   6.642
 4802POPC   C3B63153  35.716  42.455   7.079
 4802POPC   C4B63154  35.563  42.175   7.350
 4803POPC   NC363155  30.931   2.919   5.114
 4803POPC   PO463156  30.523   2.529   5.546
 4803POPC   GL163157  30.618   2.653   5.914
 4803POPC   GL263158  30.794   2.947   5.855
 4803POPC   C1A63159  30.504   2.876   6.266
 4803POPC   D2A63160  30.599   2.631   6.577
 4803POPC   C3A63161  30.591   2.783   6.958
 4803POPC   C4A63162  30.478   2.859   7.360
 4803POPC   C1B63163  31.003   2.779   6.230
 4803POPC   C2B63164  30.938   3.019   6.579
 4803POPC   C3B63165  31.087   3.112   6.960
 4803POPC   C4B63166  30.988   2.831   7.280
 4804POPC   NC363167  26.853  38.690   5.449
 4804POPC   PO463168  26.386  38.248   5.495
 4804POPC   GL163169  26.753  38.332   5.833
 4804POPC   GL263170  27.048  38.535   5.933
 4804POPC   C1A63171  26.713  38.399   6.309
 4804POPC   D2A63172  26.579  38.569   6.739
 4804POPC   C3A63173  26.742  38.425   7.147
 4804POPC   C4A63174  27.005  38.520   7.523
 4804POPC   C1B63175  26.997  38.820   6.254
 4804POPC   C2B63176  26.836  38.994   6.631
 4804POPC   C3B63177  26.978  38.851   7.028
 4804POPC   C4B63178  26.915  38.992   7.427
 4805POPC   NC363179  32.558  42.354   5.412
 4805POPC   PO463180  31.914  42.302   5.150
 4805POPC   GL163181  32.100  42.187   5.632
 4805POPC   GL263182  32.253  42.497   5.772
 4805POPC   C1A63183  32.187  42.185   6.148
 4805POPC   D2A63184  32.443  42.099   6.533
 4805POPC   C3A63185  32.319  42.177   6.970
 4805POPC   C4A63186  32.096  41.930   7.295
 4805POPC   C1B63187  32.060  42.726   6.099
 4805POPC   C2B63188  32.105  42.886   6.496
 4805POPC   C3B63189  32.207  42.678   6.859
 4805POPC   C4B63190  32.335  42.589   7.265
 4806POPC   NC363191  30.645  32.747   5.085
 4806POPC   PO463192  30.935  32.810   5.749
 4806POPC   GL163193  30.516  32.897   5.997
 4806POPC   GL263194  30.382  33.261   6.036
 4806POPC   C1A63195  30.433  32.767   6.374
 4806POPC   D2A63196  30.140  32.817   6.670
 4806POPC   C3A63197  30.328  33.124   6.923
 4806POPC   C4A63198  30.672  33.005   7.184
 4806POPC   C1B63199  30.755  33.246   6.284
 4806POPC   C2B63200  30.776  33.223   6.690
 4806POPC   C3B63201  31.085  33.075   6.870
 4806POPC   C4B63202  31.143  33.184   7.247
 4807POPC   NC363203  17.030  39.814   5.416
 4807POPC   PO463204  16.354  39.929   5.535
 4807POPC   GL163205  16.642  39.977   5.833
 4807POPC   GL263206  16.896  40.195   5.759
 4807POPC   C1A63207  16.769  39.846   6.217
 4807POPC   D2A63208  16.591  39.929   6.599
 4807POPC   C3A63209  16.832  39.748   6.910
 4807POPC   C4A63210  16.714  39.910   7.278
 4807POPC   C1B63211  17.063  40.287   6.164
 4807POPC   C2B63212  17.088  40.115   6.583
 4807POPC   C3B63213  17.005  40.247   7.008
 4807POPC   C4B63214  16.990  40.269   7.458
 4808POPC   NC363215  13.381  44.906   5.353
 4808POPC   PO463216  13.721   0.587   5.348
 4808POPC   GL163217  13.550   0.408   5.725
 4808POPC   GL263218  13.528   0.751   5.815
 4808POPC   C1A63219  13.708   0.423   6.191
 4808POPC   D2A63220  13.876   0.330   6.651
 4808POPC   C3A63221  13.536   0.346   6.990
 4808POPC   C4A63222  13.335   0.297   7.411
 4808POPC   C1B63223  13.500   0.914   6.217
 4808POPC   C2B63224  13.609   0.763   6.623
 4808POPC   C3B63225  13.753   0.794   7.042
 4808POPC   C4B63226  13.472   0.869   7.347
 4809POPC   NC363227  13.796  21.155   5.528
 4809POPC   PO463228  13.772  20.487   5.249
 4809POPC   GL163229  13.716  20.420   5.714
 4809POPC   GL263230  13.465  20.659   5.846
 4809POPC   C1A63231  13.752  20.349   6.181
 4809POPC   D2A63232  13.653  20.573   6.577
 4809POPC   C3A63233  13.620  20.444   7.010
 4809POPC   C4A63234  13.355  20.731   7.222
 4809POPC   C1B63235  13.759  20.876   6.162
 4809POPC   C2B63236  13.906  21.026   6.570
 4809POPC   C3B63237  13.741  20.952   6.958
 4809POPC   C4B63238  13.799  20.930   7.393
 4810POPC   NC363239  36.306   7.364   5.370
 4810POPC   PO463240  35.736   7.340   5.767
 4810POPC   GL163241  36.202   7.217   5.886
 4810POPC   GL263242  36.504   7.440   5.847
 4810POPC   C1A63243  36.369   7.189   6.313
 4810POPC   D2A63244  36.171   7.448   6.614
 4810POPC   C3A63245  36.068   7.325   7.037
 4810POPC   C4A63246  35.768   7.535   7.303
 4810POPC   C1B63247  36.303   7.715   6.159
 4810POPC   C2B63248  36.371   7.925   6.573
 4810POPC   C3B63249  36.388   7.736   6.989
 4810POPC   C4B63250  36.328   7.616   7.416
 4811POPC   NC363251  10.625  41.293   5.479
 4811POPC   PO463252  10.853  41.949   5.478
 4811POPC   GL163253  10.631  41.676   5.809
 4811POPC   GL263254  10.267  41.673   5.777
 4811POPC   C1A63255  10.690  41.362   6.159
 4811POPC   D2A63256  10.678  41.138   6.571
 4811POPC   C3A63257  10.606  41.425   6.952
 4811POPC   C4A63258  10.428  41.756   7.262
 4811POPC   C1B63259  10.178  41.454   6.179
 4811POPC   C2B63260  10.223  41.540   6.611
 4811POPC   C3B63261  10.099  41.410   7.038
 4811POPC   C4B63262  10.346  41.180   7.323
 4812POPC   NC363263  18.115  27.382   5.167
 4812POPC   PO463264  17.585  27.602   5.490
 4812POPC   GL163265  17.357  27.530   5.827
 4812POPC   GL263266  17.284  27.913   5.845
 4812POPC   C1A63267  17.434  27.303   6.216
 4812POPC   D2A63268  17.723  27.236   6.587
 4812POPC   C3A63269  17.517  27.370   6.992
 4812POPC   C4A63270  17.487  27.324   7.447
 4812POPC   C1B63271  17.588  27.806   6.170
 4812POPC   C2B63272  17.534  27.710   6.598
 4812POPC   C3B63273  17.882  27.729   6.920
 4812POPC   C4B63274  17.809  27.710   7.365
 4813POPC   NC363275  29.015  14.073   5.337
 4813POPC   PO463276  29.293  14.695   5.250
 4813POPC   GL163277  29.349  14.381   5.598
 4813POPC   GL263278  29.603  14.545   5.725
 4813POPC   C1A63279  29.294  14.193   6.040
 4813POPC   D2A63280  28.985  14.142   6.403
 4813POPC   C3A63281  29.134  14.262   6.826
 4813POPC   C4A63282  29.042  14.142   7.249
 4813POPC   C1B63283  29.463  14.684   6.118
 4813POPC   C2B63284  29.479  14.521   6.511
 4813POPC   C3B63285  29.437  14.692   6.912
 4813POPC   C4B63286  29.398  14.472   7.286
 4814POPC   NC363287  15.092  29.683   5.127
 4814POPC   PO463288  14.908  29.066   5.343
 4814POPC   GL163289  15.063  28.982   5.774
 4814POPC   GL263290  15.319  29.194   5.888
 4814POPC   C1A63291  14.910  28.902   6.188
 4814POPC   D2A63292  15.205  28.847   6.513
 4814POPC   C3A63293  15.104  28.863   6.948
 4814POPC   C4A63294  15.348  28.925   7.345
 4814POPC   C1B63295  15.129  29.350   6.264
 4814POPC   C2B63296  15.026  29.310   6.698
 4814POPC   C3B63297  15.148  29.356   7.132
 4814POPC   C4B63298  14.928  29.231   7.512
 4815POPC   NC363299  42.749  36.934   5.279
 4815POPC   PO463300  43.438  36.890   5.309
 4815POPC   GL163301  43.418  36.751   5.729
 4815POPC   GL263302  43.068  36.859   5.846
 4815POPC   C1A63303  43.408  36.680   6.176
 4815POPC   D2A63304  43.124  36.858   6.488
 4815POPC   C3A63305  43.278  36.857   6.906
 4815POPC   C4A63306  43.237  36.864   7.344
 4815POPC   C1B63307  42.804  37.116   6.163
 4815POPC   C2B63308  42.893  37.324   6.548
 4815POPC   C3B63309  42.808  37.081   6.894
 4815POPC   C4B63310  42.734  36.852   7.236
 4816POPC   NC363311   4.429   4.494   5.491
 4816POPC   PO463312   3.937   4.290   5.786
 4816POPC   GL163313   4.255   4.100   5.969
 4816POPC   GL263314   4.589   4.228   5.924
 4816POPC   C1A63315   4.363   4.073   6.374
 4816POPC   D2A63316   4.518   4.297   6.715
 4816POPC   C3A63317   4.261   4.175   7.002
 4816POPC   C4A63318   4.257   3.890   7.310
 4816POPC   C1B63319   4.506   4.564   6.255
 4816POPC   C2B63320   4.512   4.792   6.687
 4816POPC   C3B63321   4.552   4.613   7.168
 4816POPC   C4B63322   4.584   4.623   7.662
 4817POPC   NC363323  36.467  26.111   5.387
 4817POPC   PO463324  35.998  25.598   5.421
 4817POPC   GL163325  36.280  25.769   5.775
 4817POPC   GL263326  36.232  26.115   5.873
 4817POPC   C1A63327  36.191  25.780   6.263
 4817POPC   D2A63328  36.160  26.058   6.624
 4817POPC   C3A63329  36.108  25.897   7.045
 4817POPC   C4A63330  35.863  25.826   7.447
 4817POPC   C1B63331  36.508  26.340   6.201
 4817POPC   C2B63332  36.791  26.390   6.564
 4817POPC   C3B63333  36.604  26.387   6.995
 4817POPC   C4B63334  36.182  26.425   7.206
 4818POPC   NC363335   2.461   7.905   5.348
 4818POPC   PO463336   2.736   8.508   5.494
 4818POPC   GL163337   2.887   8.330   5.831
 4818POPC   GL263338   3.057   8.035   5.693
 4818POPC   C1A63339   2.706   8.317   6.223
 4818POPC   D2A63340   2.655   8.581   6.550
 4818POPC   C3A63341   2.664   8.408   6.929
 4818POPC   C4A63342   2.652   8.604   7.295
 4818POPC   C1B63343   2.776   7.848   6.018
 4818POPC   C2B63344   2.753   7.868   6.485
 4818POPC   C3B63345   2.825   7.913   6.941
 4818POPC   C4B63346   2.949   8.177   7.314
 4819POPC   NC363347  35.708  11.245   5.530
 4819POPC   PO463348  36.349  11.136   5.382
 4819POPC   GL163349  36.165  11.340   5.795
 4819POPC   GL263350  35.891  11.613   5.845
 4819POPC   C1A63351  36.192  11.516   6.235
 4819POPC   D2A63352  36.034  11.377   6.622
 4819POPC   C3A63353  36.358  11.467   6.861
 4819POPC   C4A63354  36.626  11.395   7.218
 4819POPC   C1B63355  35.743  11.269   6.186
 4819POPC   C2B63356  35.575  11.105   6.600
 4819POPC   C3B63357  35.734  11.183   7.008
 4819POPC   C4B63358  36.137  11.190   7.202
 4820POPC   NC363359  35.811  17.251   5.573
 4820POPC   PO463360  36.308  17.692   5.369
 4820POPC   GL163361  36.238  17.509   5.787
 4820POPC   GL263362  35.896  17.577   5.966
 4820POPC   C1A63363  36.339  17.698   6.190
 4820POPC   D2A63364  36.069  17.696   6.541
 4820POPC   C3A63365  36.113  17.954   6.874
 4820POPC   C4A63366  36.171  17.780   7.270
 4820POPC   C1B63367  36.011  17.260   6.279
 4820POPC   C2B63368  35.793  17.270   6.695
 4820POPC   C3B63369  35.705  17.406   7.164
 4820POPC   C4B63370  35.624  17.181   7.596
 4821POPC   NC363371  27.929  40.600   5.693
 4821POPC   PO463372  27.656  40.131   5.220
 4821POPC   GL163373  27.550  39.945   5.661
 4821POPC   GL263374  27.735  39.637   5.725
 4821POPC   C1A63375  27.541  40.015   6.152
 4821POPC   D2A63376  27.622  40.368   6.484
 4821POPC   C3A63377  27.798  40.309   6.905
 4821POPC   C4A63378  27.710  39.942   7.120
 4821POPC   C1B63379  27.405  39.541   6.025
 4821POPC   C2B63380  27.421  39.581   6.451
 4821POPC   C3B63381  27.414  39.606   6.877
 4821POPC   C4B63382  27.376  39.618   7.309
 4822POPC   NC363383  22.025   1.132   5.484
 4822POPC   PO463384  21.287   1.101   5.413
 4822POPC   GL163385  21.361   1.201   5.842
 4822POPC   GL263386  21.714   1.148   5.895
 4822POPC   C1A63387  21.381   1.132   6.310
 4822POPC   D2A63388  21.484   1.385   6.695
 4822POPC   C3A63389  21.379   1.197   7.063
 4822POPC   C4A63390  21.112   0.881   7.176
 4822POPC   C1B63391  21.864   0.950   6.295
 4822POPC   C2B63392  21.745   0.912   6.759
 4822POPC   C3B63393  21.882   1.129   7.152
 4822POPC   C4B63394  22.034   1.207   7.589
 4823POPC   NC363395  22.526  27.889   5.553
 4823POPC   PO463396  22.247  27.405   5.277
 4823POPC   GL163397  22.162  27.570   5.732
 4823POPC   GL263398  22.030  27.883   5.916
 4823POPC   C1A63399  22.419  27.621   6.131
 4823POPC   D2A63400  22.582  27.769   6.519
 4823POPC   C3A63401  22.288  27.656   6.811
 4823POPC   C4A63402  22.397  27.397   7.122
 4823POPC   C1B63403  21.725  27.576   6.076
 4823POPC   C2B63404  21.673  27.310   6.479
 4823POPC   C3B63405  21.559  27.480   6.898
 4823POPC   C4B63406  21.799  27.784   7.150
 4824POPC   NC363407  17.323   2.178   5.375
 4824POPC   PO463408  17.649   1.563   5.459
 4824POPC   GL163409  17.435   1.847   5.804
 4824POPC   GL263410  17.155   2.132   5.852
 4824POPC   C1A63411  17.551   2.016   6.236
 4824POPC   D2A63412  17.860   1.963   6.574
 4824POPC   C3A63413  17.726   2.113   6.939
 4824POPC   C4A63414  17.562   1.823   7.165
 4824POPC   C1B63415  17.018   2.027   6.280
 4824POPC   C2B63416  17.227   1.920   6.692
 4824POPC   C3B63417  17.198   2.209   7.041
 4824POPC   C4B63418  17.392   2.211   7.411
 4825POPC   NC363419  34.183  41.305   5.587
 4825POPC   PO463420  33.752  41.660   5.206
 4825POPC   GL163421  33.740  41.578   5.700
 4825POPC   GL263422  34.039  41.682   5.873
 4825POPC   C1A63423  33.637  41.596   6.186
 4825POPC   D2A63424  33.516  41.408   6.617
 4825POPC   C3A63425  33.560  41.627   7.026
 4825POPC   C4A63426  33.664  41.531   7.468
 4825POPC   C1B63427  34.145  41.534   6.271
 4825POPC   C2B63428  33.966  41.687   6.624
 4825POPC   C3B63429  34.054  41.702   7.044
 4825POPC   C4B63430  34.303  41.488   7.258
 4826POPC   NC363431  26.316   1.000   5.407
 4826POPC   PO463432  25.871   1.490   5.494
 4826POPC   GL163433  25.995   1.216   5.828
 4826POPC   GL263434  25.877   0.875   5.849
 4826POPC   C1A63435  25.980   1.197   6.297
 4826POPC   D2A63436  25.687   1.030   6.604
 4826POPC   C3A63437  25.806   0.981   7.044
 4826POPC   C4A63438  26.051   1.152   7.374
 4826POPC   C1B63439  26.259   0.798   6.163
 4826POPC   C2B63440  26.346   0.988   6.607
 4826POPC   C3B63441  26.329   0.873   7.074
 4826POPC   C4B63442  26.385   0.822   7.570
 4827POPC   NC363443  24.243  29.933   5.386
 4827POPC   PO463444  24.801  29.636   5.618
 4827POPC   GL163445  24.397  29.757   5.855
 4827POPC   GL263446  24.308  30.117   5.877
 4827POPC   C1A63447  24.364  29.795   6.305
 4827POPC   D2A63448  24.647  29.550   6.594
 4827POPC   C3A63449  24.655  29.667   7.033
 4827POPC   C4A63450  24.281  29.821   7.231
 4827POPC   C1B63451  24.679  30.196   6.133
 4827POPC   C2B63452  24.766  30.348   6.558
 4827POPC   C3B63453  24.607  30.156   6.915
 4827POPC   C4B63454  24.690  30.145   7.343
 4828POPC   NC363455  28.966   8.319   5.034
 4828POPC   PO463456  29.370   8.027   5.500
 4828POPC   GL163457  29.258   8.144   5.943
 4828POPC   GL263458  29.246   8.503   5.868
 4828POPC   C1A63459  29.134   8.113   6.394
 4828POPC   D2A63460  29.149   8.317   6.788
 4828POPC   C3A63461  29.389   8.136   7.068
 4828POPC   C4A63462  29.168   7.814   7.221
 4828POPC   C1B63463  28.879   8.488   6.157
 4828POPC   C2B63464  28.690   8.436   6.572
 4828POPC   C3B63465  28.701   8.510   7.027
 4828POPC   C4B63466  28.971   8.297   7.307
 4829POPC   NC363467  33.320  19.652   5.400
 4829POPC   PO463468  33.154  18.913   5.434
 4829POPC   GL163469  32.984  19.060   5.817
 4829POPC   GL263470  33.025  19.415   5.787
 4829POPC   C1A63471  32.823  18.974   6.260
 4829POPC   D2A63472  32.724  19.088   6.693
 4829POPC   C3A63473  32.841  18.867   7.046
 4829POPC   C4A63474  33.240  18.821   7.286
 4829POPC   C1B63475  33.236  19.303   6.191
 4829POPC   C2B63476  33.234  19.125   6.611
 4829POPC   C3B63477  33.182  19.261   7.026
 4829POPC   C4B63478  33.382  19.268   7.471
 4830POPC   NC363479  27.220  40.324   5.229
 4830POPC   PO463480  26.829  39.804   5.417
 4830POPC   GL163481  26.935  39.781   5.815
 4830POPC   GL263482  27.060  40.108   5.763
 4830POPC   C1A63483  27.042  39.881   6.233
 4830POPC   D2A63484  27.223  40.043   6.607
 4830POPC   C3A63485  27.019  39.894   6.998
 4830POPC   C4A63486  26.989  39.951   7.419
 4830POPC   C1B63487  26.751  40.275   6.036
 4830POPC   C2B63488  26.801  40.411   6.446
 4830POPC   C3B63489  26.920  40.369   6.842
 4830POPC   C4B63490  26.835  40.430   7.260
 4831POPC   NC363491  36.826  34.243   5.495
 4831POPC   PO463492  37.008  34.777   5.160
 4831POPC   GL163493  37.089  34.736   5.629
 4831POPC   GL263494  36.775  34.609   5.826
 4831POPC   C1A63495  37.080  34.890   6.101
 4831POPC   D2A63496  37.034  34.925   6.578
 4831POPC   C3A63497  37.175  34.556   6.844
 4831POPC   C4A63498  37.127  34.387   7.264
 4831POPC   C1B63499  36.936  34.377   6.196
 4831POPC   C2B63500  36.757  34.367   6.620
 4831POPC   C3B63501  36.676  34.513   7.049
 4831POPC   C4B63502  36.637  34.349   7.459
 4832POPC   NC363503  23.112  19.228   5.046
 4832POPC   PO463504  22.567  19.211   5.246
 4832POPC   GL163505  22.537  19.102   5.739
 4832POPC   GL263506  22.690  18.782   5.868
 4832POPC   C1A63507  22.692  19.175   6.214
 4832POPC   D2A63508  22.772  19.051   6.689
 4832POPC   C3A63509  22.955  19.263   7.065
 4832POPC   C4A63510  23.265  19.391   7.408
 4832POPC   C1B63511  22.866  18.691   6.319
 4832POPC   C2B63512  22.920  18.579   6.784
 4832POPC   C3B63513  22.805  18.778   7.180
 4832POPC   C4B63514  22.927  18.668   7.610
 4833POPC   NC363515  32.528   7.812   5.463
 4833POPC   PO463516  31.875   7.423   5.483
 4833POPC   GL163517  32.234   7.489   5.799
 4833POPC   GL263518  32.368   7.816   5.953
 4833POPC   C1A63519  32.288   7.398   6.250
 4833POPC   D2A63520  32.484   7.411   6.646
 4833POPC   C3A63521  32.410   7.069   6.887
 4833POPC   C4A63522  32.493   6.994   7.275
 4833POPC   C1B63523  32.007   7.835   6.247
 4833POPC   C2B63524  31.899   7.940   6.692
 4833POPC   C3B63525  31.897   7.710   7.107
 4833POPC   C4B63526  32.243   7.440   7.219
 4834POPC   NC363527   6.831  17.235   4.990
 4834POPC   PO463528   6.791  17.696   5.511
 4834POPC   GL163529   6.717  17.337   5.801
 4834POPC   GL263530   6.365  17.234   5.818
 4834POPC   C1A63531   6.730  17.377   6.277
 4834POPC   D2A63532   6.463  17.603   6.614
 4834POPC   C3A63533   6.666  17.554   7.020
 4834POPC   C4A63534   6.894  17.237   7.238
 4834POPC   C1B63535   6.232  17.366   6.205
 4834POPC   C2B63536   6.224  17.150   6.570
 4834POPC   C3B63537   6.184  17.342   6.986
 4834POPC   C4B63538   6.380  17.233   7.339
 4835POPC   NC363539   1.194   5.148   5.356
 4835POPC   PO463540   0.802   4.633   5.480
 4835POPC   GL163541   0.978   4.914   5.787
 4835POPC   GL263542   1.338   4.989   5.807
 4835POPC   C1A63543   0.944   5.123   6.183
 4835POPC   D2A63544   1.143   5.225   6.556
 4835POPC   C3A63545   0.983   5.148   6.933
 4835POPC   C4A63546   1.185   4.935   7.200
 4835POPC   C1B63547   1.480   5.224   6.150
 4835POPC   C2B63548   1.624   5.392   6.548
 4835POPC   C3B63549   1.513   5.217   6.922
 4835POPC   C4B63550   1.507   5.345   7.330
 4836POPC   NC363551  32.058  29.921   5.282
 4836POPC   PO463552  32.454  30.310   5.609
 4836POPC   GL163553  32.135  30.105   5.824
 4836POPC   GL263554  32.262  29.784   5.784
 4836POPC   C1A63555  32.023  29.897   6.249
 4836POPC   D2A63556  32.082  29.705   6.678
 4836POPC   C3A63557  31.991  29.976   7.036
 4836POPC   C4A63558  31.771  30.063   7.424
 4836POPC   C1B63559  32.525  29.947   6.158
 4836POPC   C2B63560  32.491  30.062   6.605
 4836POPC   C3B63561  32.483  29.830   7.006
 4836POPC   C4B63562  32.270  29.467   7.209
 4837POPC   NC363563  34.686  43.536   5.582
 4837POPC   PO463564  35.268  43.228   5.363
 4837POPC   GL163565  35.126  43.044   5.766
 4837POPC   GL263566  35.134  42.707   5.745
 4837POPC   C1A63567  35.151  43.145   6.235
 4837POPC   D2A63568  35.402  43.145   6.604
 4837POPC   C3A63569  35.329  43.327   7.033
 4837POPC   C4A63570  35.646  43.466   7.355
 4837POPC   C1B63571  35.350  42.691   6.131
 4837POPC   C2B63572  35.209  42.651   6.551
 4837POPC   C3B63573  35.377  42.779   6.931
 4837POPC   C4B63574  35.661  42.982   7.203
 4838POPC   NC363575  33.579  15.093   5.417
 4838POPC   PO463576  34.252  15.454   5.498
 4838POPC   GL163577  34.135  15.137   5.811
 4838POPC   GL263578  33.829  14.938   5.848
 4838POPC   C1A63579  34.010  15.237   6.224
 4838POPC   D2A63580  33.815  15.188   6.613
 4838POPC   C3A63581  34.028  15.245   6.983
 4838POPC   C4A63582  34.106  14.992   7.315
 4838POPC   C1B63583  33.503  15.186   6.064
 4838POPC   C2B63584  33.334  15.292   6.476
 4838POPC   C3B63585  33.390  14.959   6.811
 4838POPC   C4B63586  33.610  15.003   7.203
 4839POPC   NC363587  37.780  33.677   5.363
 4839POPC   PO463588  37.886  34.270   5.551
 4839POPC   GL163589  37.861  34.107   5.892
 4839POPC   GL263590  37.601  33.883   5.801
 4839POPC   C1A63591  37.917  33.882   6.239
 4839POPC   D2A63592  37.885  33.611   6.561
 4839POPC   C3A63593  38.019  33.819   6.871
 4839POPC   C4A63594  37.852  33.907   7.223
 4839POPC   C1B63595  37.503  33.604   6.135
 4839POPC   C2B63596  37.375  33.524   6.566
 4839POPC   C3B63597  37.497  33.631   6.967
 4839POPC   C4B63598  37.356  33.438   7.353
 4840POPC   NC363599  33.553  17.125   5.369
 4840POPC   PO463600  33.981  17.586   5.267
 4840POPC   GL163601  33.796  17.476   5.658
 4840POPC   GL263602  34.084  17.423   5.856
 4840POPC   C1A63603  33.605  17.484   6.072
 4840POPC   D2A63604  33.864  17.665   6.399
 4840POPC   C3A63605  33.757  17.558   6.805
 4840POPC   C4A63606  33.652  17.627   7.232
 4840POPC   C1B63607  33.979  17.174   6.252
 4840POPC   C2B63608  33.906  17.073   6.710
 4840POPC   C3B63609  33.986  17.248   7.154
 4840POPC   C4B63610  33.926  17.249   7.626
 4841POPC   NC363611  40.280  34.911   5.483
 4841POPC   PO463612  39.742  34.460   5.434
 4841POPC   GL163613  39.912  34.665   5.804
 4841POPC   GL263614  40.254  34.547   5.848
 4841POPC   C1A63615  39.936  34.457   6.229
 4841POPC   D2A63616  40.202  34.366   6.581
 4841POPC   C3A63617  40.010  34.578   6.907
 4841POPC   C4A63618  39.853  34.421   7.251
 4841POPC   C1B63619  40.323  34.822   6.263
 4841POPC   C2B63620  40.298  34.966   6.736
 4841POPC   C3B63621  40.318  34.903   7.223
 4841POPC   C4B63622  40.305  34.762   7.665
 4842POPC   NC363623   5.801  39.836   5.375
 4842POPC   PO463624   6.182  40.323   5.139
 4842POPC   GL163625   5.933  40.248   5.657
 4842POPC   GL263626   5.712  39.989   5.838
 4842POPC   C1A63627   6.019  40.150   6.185
 4842POPC   D2A63628   6.003  40.378   6.589
 4842POPC   C3A63629   6.129  40.201   6.997
 4842POPC   C4A63630   6.175  40.360   7.425
 4842POPC   C1B63631   5.490  39.821   6.188
 4842POPC   C2B63632   5.549  40.087   6.527
 4842POPC   C3B63633   5.659  39.967   6.923
 4842POPC   C4B63634   5.689  39.824   7.324
 4843POPC   NC363635   0.260   6.563   5.369
 4843POPC   PO463636   0.969   6.384   5.519
 4843POPC   GL163637   0.610   6.415   5.797
 4843POPC   GL263638   0.469   6.763   5.773
 4843POPC   C1A63639   0.444   6.564   6.216
 4843POPC   D2A63640   0.170   6.631   6.567
 4843POPC   C3A63641   0.436   6.670   6.918
 4843POPC   C4A63642   0.561   6.496   7.287
 4843POPC   C1B63643   0.098   6.908   6.072
 4843POPC   C2B63644   0.083   7.125   6.513
 4843POPC   C3B63645   0.072   7.017   6.963
 4843POPC   C4B63646   0.398   6.987   7.326
 4844POPC   NC363647  40.642  40.263   5.545
 4844POPC   PO463648  41.034  39.695   5.554
 4844POPC   GL163649  40.900  39.956   5.865
 4844POPC   GL263650  40.559  39.876   5.865
 4844POPC   C1A63651  41.041  40.148   6.250
 4844POPC   D2A63652  41.066  39.924   6.641
 4844POPC   C3A63653  40.964  40.150   7.006
 4844POPC   C4A63654  41.315  40.333   7.230
 4844POPC   C1B63655  40.536  40.021   6.323
 4844POPC   C2B63656  40.422  40.028   6.810
 4844POPC   C3B63657  40.560  39.823   7.203
 4844POPC   C4B63658  40.542  39.616   7.623
 4845POPC   NC363659  44.245  35.987   5.434
 4845POPC   PO463660  43.661  35.725   5.367
 4845POPC   GL163661  43.742  35.969   5.764
 4845POPC   GL263662  43.645  36.298   5.888
 4845POPC   C1A63663  44.005  36.043   6.141
 4845POPC   D2A63664  43.978  35.891   6.564
 4845POPC   C3A63665  43.807  36.093   6.909
 4845POPC   C4A63666  43.711  36.027   7.342
 4845POPC   C1B63667  43.535  36.190   6.311
 4845POPC   C2B63668  43.457  36.442   6.675
 4845POPC   C3B63669  43.514  36.459   7.116
 4845POPC   C4B63670  43.458  36.427   7.535
 4846POPC   NC363671   8.389  40.437   5.402
 4846POPC   PO463672   8.088  41.102   5.496
 4846POPC   GL163673   8.155  40.766   5.734
 4846POPC   GL263674   7.844  40.678   5.905
 4846POPC   C1A63675   8.410  40.733   6.101
 4846POPC   D2A63676   8.592  40.690   6.506
 4846POPC   C3A63677   8.279  40.662   6.820
 4846POPC   C4A63678   8.104  40.523   7.242
 4846POPC   C1B63679   8.015  41.073   6.132
 4846POPC   C2B63680   7.944  41.072   6.555
 4846POPC   C3B63681   7.810  40.837   6.912
 4846POPC   C4B63682   7.958  40.987   7.275
 4847POPC   NC363683  14.750  22.688   5.575
 4847POPC   PO463684  15.308  22.963   5.283
 4847POPC   GL163685  15.225  22.874   5.718
 4847POPC   GL263686  14.978  23.118   5.744
 4847POPC   C1A63687  15.376  22.918   6.170
 4847POPC   D2A63688  15.323  23.161   6.573
 4847POPC   C3A63689  15.297  22.975   7.013
 4847POPC   C4A63690  15.106  22.803   7.392
 4847POPC   C1B63691  14.924  23.187   6.190
 4847POPC   C2B63692  14.820  23.027   6.603
 4847POPC   C3B63693  14.835  23.196   7.016
 4847POPC   C4B63694  15.071  23.335   7.358
 4848POPC   NC363695  16.423   7.568   5.415
 4848POPC   PO463696  15.916   7.212   5.172
 4848POPC   GL163697  15.884   7.391   5.645
 4848POPC   GL263698  16.199   7.370   5.821
 4848POPC   C1A63699  15.835   7.517   6.152
 4848POPC   D2A63700  15.878   7.301   6.580
 4848POPC   C3A63701  15.855   7.486   7.017
 4848POPC   C4A63702  15.785   7.271   7.384
 4848POPC   C1B63703  16.305   7.404   6.267
 4848POPC   C2B63704  16.372   7.399   6.672
 4848POPC   C3B63705  16.339   7.618   7.006
 4848POPC   C4B63706  16.280   7.429   7.352
 4849POPC   NC363707  16.146  21.835   5.562
 4849POPC   PO463708  15.655  22.044   5.482
 4849POPC   GL163709  15.767  22.248   5.869
 4849POPC   GL263710  15.469  22.449   5.900
 4849POPC   C1A63711  15.963  22.342   6.288
 4849POPC   D2A63712  15.854  22.190   6.704
 4849POPC   C3A63713  16.117  22.205   7.075
 4849POPC   C4A63714  16.092  22.429   7.473
 4849POPC   C1B63715  15.458  22.423   6.340
 4849POPC   C2B63716  15.593  22.663   6.708
 4849POPC   C3B63717  15.673  22.479   7.120
 4849POPC   C4B63718  15.635  22.013   7.177
 4850POPC   NC363719  38.919   9.834   5.482
 4850POPC   PO463720  39.474   9.466   5.432
 4850POPC   GL163721  39.342   9.684   5.754
 4850POPC   GL263722  39.043   9.537   5.890
 4850POPC   C1A63723  39.481   9.827   6.109
 4850POPC   D2A63724  39.317   9.722   6.465
 4850POPC   C3A63725  39.389   9.743   6.888
 4850POPC   C4A63726  39.364   9.731   7.304
 4850POPC   C1B63727  38.870   9.795   6.256
 4850POPC   C2B63728  38.886   9.697   6.713
 4850POPC   C3B63729  38.890   9.915   7.092
 4850POPC   C4B63730  38.833   9.868   7.509
 4851POPC   NC363731  36.731   8.223   5.366
 4851POPC   PO463732  37.373   8.029   5.358
 4851POPC   GL163733  37.178   7.897   5.768
 4851POPC   GL263734  36.791   7.862   5.718
 4851POPC   C1A63735  37.243   7.962   6.251
 4851POPC   D2A63736  37.330   8.030   6.708
 4851POPC   C3A63737  37.132   8.418   6.922
 4851POPC   C4A63738  36.870   8.501   7.317
 4851POPC   C1B63739  36.727   8.009   6.137
 4851POPC   C2B63740  36.849   8.103   6.560
 4851POPC   C3B63741  36.698   8.145   6.975
 4851POPC   C4B63742  36.606   8.055   7.395
 4852POPC   NC363743   1.312  28.965   5.512
 4852POPC   PO463744   0.892  29.329   5.330
 4852POPC   GL163745   0.961  29.203   5.803
 4852POPC   GL263746   0.885  28.854   5.855
 4852POPC   C1A63747   1.021  29.234   6.299
 4852POPC   D2A63748   0.969  29.379   6.777
 4852POPC   C3A63749   1.350  29.484   7.075
 4852POPC   C4A63750   1.571  29.162   7.377
 4852POPC   C1B63751   0.931  28.717   6.292
 4852POPC   C2B63752   1.152  28.879   6.643
 4852POPC   C3B63753   1.220  28.993   7.045
 4852POPC   C4B63754   1.119  28.946   7.499
 4853POPC   NC363755   6.037   0.548   5.520
 4853POPC   PO463756   5.477   0.227   5.314
 4853POPC   GL163757   5.733   0.249   5.782
 4853POPC   GL263758   6.104   0.153   5.809
 4853POPC   C1A63759   6.053   0.506   6.161
 4853POPC   D2A63760   6.088   0.776   6.527
 4853POPC   C3A63761   6.058   0.539   6.872
 4853POPC   C4A63762   5.970   0.657   7.254
 4853POPC   C1B63763   5.924   0.015   6.195
 4853POPC   C2B63764   5.801   0.185   6.594
 4853POPC   C3B63765   5.704   0.200   7.033
 4853POPC   C4B63766   6.067   0.164   7.303
 4854POPC   NC363767  11.683  39.211   5.426
 4854POPC   PO463768  11.064  38.961   5.315
 4854POPC   GL163769  11.259  38.947   5.749
 4854POPC   GL263770  11.327  39.250   5.788
 4854POPC   C1A63771  11.416  38.950   6.192
 4854POPC   D2A63772  11.273  39.108   6.597
 4854POPC   C3A63773  11.418  38.934   7.005
 4854POPC   C4A63774  11.450  39.244   7.302
 4854POPC   C1B63775  11.286  39.455   6.177
 4854POPC   C2B63776  11.401  39.610   6.585
 4854POPC   C3B63777  11.217  39.627   6.993
 4854POPC   C4B63778  11.373  39.775   7.394
 4855POPC   NC363779  16.971  16.181   5.573
 4855POPC   PO463780  16.590  15.754   5.266
 4855POPC   GL163781  16.533  15.987   5.724
 4855POPC   GL263782  16.452  16.354   5.835
 4855POPC   C1A63783  16.621  16.063   6.206
 4855POPC   D2A63784  16.535  16.120   6.640
 4855POPC   C3A63785  16.866  16.059   6.941
 4855POPC   C4A63786  16.908  16.076   7.366
 4855POPC   C1B63787  16.383  16.539   6.314
 4855POPC   C2B63788  16.461  16.591   6.788
 4855POPC   C3B63789  16.651  16.487   7.169
 4855POPC   C4B63790  16.916  16.617   7.522
 4856POPC   NC363791   0.944  37.252   5.469
 4856POPC   PO463792   1.395  36.765   5.498
 4856POPC   GL163793   1.329  37.102   5.833
 4856POPC   GL263794   1.611  37.354   5.804
 4856POPC   C1A63795   1.231  37.034   6.309
 4856POPC   D2A63796   0.978  36.703   6.530
 4856POPC   C3A63797   1.038  36.646   6.967
 4856POPC   C4A63798   0.890  36.764   7.367
 4856POPC   C1B63799   1.706  37.300   6.237
 4856POPC   C2B63800   1.536  37.390   6.645
 4856POPC   C3B63801   1.288  37.091   6.867
 4856POPC   C4B63802   1.322  36.981   7.294
 4857POPC   NC363803  39.538  24.557   5.559
 4857POPC   PO463804  38.935  24.763   5.514
 4857POPC   GL163805  39.139  24.666   5.923
 4857POPC   GL263806  39.471  24.506   6.019
 4857POPC   C1A63807  39.170  24.656   6.378
 4857POPC   D2A63808  39.162  24.462   6.737
 4857POPC   C3A63809  39.073  24.708   7.090
 4857POPC   C4A63810  39.188  24.693   7.535
 4857POPC   C1B63811  39.697  24.378   6.329
 4857POPC   C2B63812  39.652  24.578   6.688
 4857POPC   C3B63813  39.535  24.468   7.094
 4857POPC   C4B63814  39.565  24.067   7.275
 4858POPC   NC363815   8.679  10.210   5.319
 4858POPC   PO463816   8.676  10.889   5.409
 4858POPC   GL163817   8.721  10.548   5.718
 4858POPC   GL263818   9.007  10.669   5.891
 4858POPC   C1A63819   8.632  10.408   6.138
 4858POPC   D2A63820   8.639  10.649   6.490
 4858POPC   C3A63821   8.938  10.677   6.794
 4858POPC   C4A63822   8.787  10.503   7.166
 4858POPC   C1B63823   9.104  10.480   6.293
 4858POPC   C2B63824   8.981  10.217   6.634
 4858POPC   C3B63825   9.224  10.271   7.022
 4858POPC   C4B63826   9.481  10.509   7.339
 4859POPC   NC363827   4.512  11.692   5.360
 4859POPC   PO463828   4.217  11.094   5.161
 4859POPC   GL163829   4.317  11.214   5.593
 4859POPC   GL263830   4.118  11.488   5.709
 4859POPC   C1A63831   4.522  11.161   6.000
 4859POPC   D2A63832   4.451  11.207   6.449
 4859POPC   C3A63833   4.584  11.428   6.816
 4859POPC   C4A63834   4.396  11.268   7.191
 4859POPC   C1B63835   4.305  11.609   6.129
 4859POPC   C2B63836   4.146  11.607   6.569
 4859POPC   C3B63837   4.023  11.571   7.021
 4859POPC   C4B63838   4.189  11.725   7.434
 4860POPC   NC363839  18.608  43.550   5.614
 4860POPC   PO463840  18.296  42.989   5.339
 4860POPC   GL163841  18.209  43.161   5.782
 4860POPC   GL263842  17.846  43.315   5.795
 4860POPC   C1A63843  18.455  43.197   6.220
 4860POPC   D2A63844  18.568  43.235   6.691
 4860POPC   C3A63845  18.430  42.990   7.079
 4860POPC   C4A63846  18.070  42.708   7.187
 4860POPC   C1B63847  17.969  43.358   6.214
 4860POPC   C2B63848  18.026  43.109   6.571
 4860POPC   C3B63849  17.962  43.201   6.980
 4860POPC   C4B63850  18.242  43.488   7.144
 4861POPC   NC363851   8.449   3.760   5.397
 4861POPC   PO463852   7.889   3.637   5.418
 4861POPC   GL163853   8.190   3.410   5.718
 4861POPC   GL263854   8.574   3.420   5.764
 4861POPC   C1A63855   8.266   3.342   6.181
 4861POPC   D2A63856   8.153   3.602   6.546
 4861POPC   C3A63857   7.993   3.324   6.861
 4861POPC   C4A63858   8.077   3.037   7.199
 4861POPC   C1B63859   8.443   3.802   6.052
 4861POPC   C2B63860   8.660   4.015   6.401
 4861POPC   C3B63861   8.414   3.977   6.805
 4861POPC   C4B63862   8.293   3.668   7.132
 4862POPC   NC363863  30.394  40.186   5.146
 4862POPC   PO463864  30.759  39.643   5.432
 4862POPC   GL163865  30.872  39.920   5.761
 4862POPC   GL263866  31.180  40.089   5.781
 4862POPC   C1A63867  30.683  40.032   6.156
 4862POPC   D2A63868  30.839  40.125   6.527
 4862POPC   C3A63869  30.565  40.077   6.847
 4862POPC   C4A63870  30.582  39.941   7.248
 4862POPC   C1B63871  31.164  39.857   6.178
 4862POPC   C2B63872  31.123  39.698   6.591
 4862POPC   C3B63873  31.092  39.963   6.950
 4862POPC   C4B63874  31.106  39.889   7.360
 4863POPC   NC363875   4.158  20.918   5.395
 4863POPC   PO463876   4.357  21.550   5.164
 4863POPC   GL163877   4.475  21.290   5.589
 4863POPC   GL263878   4.167  21.217   5.803
 4863POPC   C1A63879   4.576  21.255   6.084
 4863POPC   D2A63880   4.518  21.578   6.442
 4863POPC   C3A63881   4.246  21.589   6.850
 4863POPC   C4A63882   4.360  21.519   7.307
 4863POPC   C1B63883   4.106  21.327   6.269
 4863POPC   C2B63884   4.318  21.118   6.605
 4863POPC   C3B63885   4.275  21.105   7.039
 4863POPC   C4B63886   3.908  21.227   7.288
 4864POPC   NC363887  16.084  29.655   5.002
 4864POPC   PO463888  15.494  29.929   5.292
 4864POPC   GL163889  15.784  30.038   5.678
 4864POPC   GL263890  16.115  30.096   5.806
 4864POPC   C1A63891  15.712  30.143   6.126
 4864POPC   D2A63892  15.822  29.959   6.521
 4864POPC   C3A63893  15.802  30.153   6.873
 4864POPC   C4A63894  15.863  30.037   7.304
 4864POPC   C1B63895  16.045  29.759   6.124
 4864POPC   C2B63896  15.916  29.452   6.467
 4864POPC   C3B63897  15.891  29.589   6.901
 4864POPC   C4B63898  16.137  29.593   7.285
 4865POPC   NC363899  41.756  25.339   5.367
 4865POPC   PO463900  41.230  24.991   5.381
 4865POPC   GL163901  41.202  25.208   5.771
 4865POPC   GL263902  41.384  25.516   5.742
 4865POPC   C1A63903  41.334  25.162   6.195
 4865POPC   D2A63904  41.714  25.172   6.469
 4865POPC   C3A63905  41.566  25.208   6.888
 4865POPC   C4A63906  41.177  24.993   7.073
 4865POPC   C1B63907  41.712  25.519   6.074
 4865POPC   C2B63908  41.836  25.673   6.480
 4865POPC   C3B63909  41.897  25.687   6.915
 4865POPC   C4B63910  41.622  25.577   7.247
 4866POPC   NC363911  12.178  19.497   5.462
 4866POPC   PO463912  12.372  20.122   5.665
 4866POPC   GL163913  11.957  19.968   5.832
 4866POPC   GL263914  11.992  19.637   5.905
 4866POPC   C1A63915  11.787  19.874   6.275
 4866POPC   D2A63916  11.918  19.632   6.613
 4866POPC   C3A63917  11.855  19.877   6.944
 4866POPC   C4A63918  11.720  19.861   7.364
 4866POPC   C1B63919  12.333  19.752   6.188
 4866POPC   C2B63920  12.587  19.788   6.541
 4866POPC   C3B63921  12.425  19.850   6.905
 4866POPC   C4B63922  12.241  19.890   7.268
 4867POPC   NC363923  39.365   5.387   5.347
 4867POPC   PO463924  39.165   4.735   5.410
 4867POPC   GL163925  39.117   5.075   5.734
 4867POPC   GL263926  39.409   5.267   5.827
 4867POPC   C1A63927  39.157   5.017   6.216
 4867POPC   D2A63928  39.295   4.825   6.618
 4867POPC   C3A63929  39.129   4.954   7.015
 4867POPC   C4A63930  39.057   5.349   7.132
 4867POPC   C1B63931  39.608   5.225   6.204
 4867POPC   C2B63932  39.447   5.323   6.608
 4867POPC   C3B63933  39.573   5.229   6.998
 4867POPC   C4B63934  39.493   5.273   7.420
 4868POPC   NC363935  24.964  23.697   5.418
 4868POPC   PO463936  25.369  24.201   5.332
 4868POPC   GL163937  25.327  24.014   5.728
 4868POPC   GL263938  25.008  24.039   5.812
 4868POPC   C1A63939  25.422  23.881   6.161
 4868POPC   D2A63940  25.634  23.780   6.537
 4868POPC   C3A63941  25.400  23.813   6.880
 4868POPC   C4A63942  25.523  23.829   7.285
 4868POPC   C1B63943  24.907  23.923   6.187
 4868POPC   C2B63944  25.020  23.667   6.528
 4868POPC   C3B63945  24.880  23.698   6.954
 4868POPC   C4B63946  25.017  23.974   7.281
 4869POPC   NC363947  20.080   0.777   5.331
 4869POPC   PO463948  19.661   0.215   5.281
 4869POPC   GL163949  19.803   0.411   5.678
 4869POPC   GL263950  20.122   0.258   5.677
 4869POPC   C1A63951  19.778   0.558   6.144
 4869POPC   D2A63952  19.480   0.557   6.534
 4869POPC   C3A63953  19.647   0.519   6.981
 4869POPC   C4A63954  19.435   0.747   7.358
 4869POPC   C1B63955  20.008   0.095   6.101
 4869POPC   C2B63956  19.885   0.239   6.541
 4869POPC   C3B63957  19.882   0.069   6.980
 4869POPC   C4B63958  20.033   0.194   7.421
 4870POPC   NC363959   8.861  29.609   5.403
 4870POPC   PO463960   9.160  29.147   5.368
 4870POPC   GL163961   8.975  29.220   5.816
 4870POPC   GL263962   8.692  29.461   5.897
 4870POPC   C1A63963   8.980  29.056   6.270
 4870POPC   D2A63964   8.739  29.095   6.660
 4870POPC   C3A63965   8.929  29.146   7.082
 4870POPC   C4A63966   8.769  29.123   7.522
 4870POPC   C1B63967   9.017  29.556   6.222
 4870POPC   C2B63968   9.131  29.429   6.640
 4870POPC   C3B63969   9.328  29.462   7.049
 4870POPC   C4B63970   9.125  29.487   7.443
 4871POPC   NC363971  17.949   6.470   5.470
 4871POPC   PO463972  18.488   6.757   5.192
 4871POPC   GL163973  18.424   6.760   5.668
 4871POPC   GL263974  18.298   6.443   5.855
 4871POPC   C1A63975  18.599   6.817   6.097
 4871POPC   D2A63976  18.425   6.618   6.480
 4871POPC   C3A63977  18.546   6.772   6.893
 4871POPC   C4A63978  18.476   6.863   7.344
 4871POPC   C1B63979  18.024   6.371   6.244
 4871POPC   C2B63980  17.952   6.476   6.654
 4871POPC   C3B63981  18.134   6.408   7.054
 4871POPC   C4B63982  18.066   6.600   7.448
 4872POPC   NC363983   8.934  16.427   5.321
 4872POPC   PO463984   8.971  15.742   5.441
 4872POPC   GL163985   8.768  15.855   5.786
 4872POPC   GL263986   8.665  16.199   5.714
 4872POPC   C1A63987   8.939  15.749   6.169
 4872POPC   D2A63988   9.272  15.826   6.451
 4872POPC   C3A63989   9.003  15.877   6.797
 4872POPC   C4A63990   8.829  15.722   7.145
 4872POPC   C1B63991   9.069  16.236   5.969
 4872POPC   C2B63992   9.118  16.321   6.412
 4872POPC   C3B63993   9.020  16.366   6.857
 4872POPC   C4B63994   8.906  16.370   7.292
 4873POPC   NC363995   4.877  13.314   5.679
 4873POPC   PO463996   5.401  13.666   5.390
 4873POPC   GL163997   5.262  13.675   5.840
 4873POPC   GL263998   4.909  13.765   5.924
 4873POPC   C1A63999   5.278  13.940   6.226
 4873POPC   D2A64000   5.057  13.936   6.614
 4873POPC   C3A64001   5.103  13.569   6.866
 4873POPC   C4A64002   5.111  13.525   7.318
 4873POPC   C1B64003   4.958  13.508   6.315
 4873POPC   C2B64004   4.777  13.239   6.648
 4873POPC   C3B64005   4.679  13.349   7.070
 4873POPC   C4B64006   4.672  13.761   7.187
 4874POPC   NC364007   3.580   6.805   5.235
 4874POPC   PO464008   3.046   6.422   5.267
 4874POPC   GL164009   3.370   6.513   5.612
 4874POPC   GL264010   3.695   6.295   5.586
 4874POPC   C1A64011   3.388   6.800   5.991
 4874POPC   D2A64012   3.581   6.765   6.380
 4874POPC   C3A64013   3.477   6.969   6.765
 4874POPC   C4A64014   3.535   6.881   7.213
 4874POPC   C1B64015   3.713   6.370   6.048
 4874POPC   C2B64016   3.884   6.376   6.471
 4874POPC   C3B64017   3.728   6.516   6.844
 4874POPC   C4B64018   3.908   6.530   7.237
 4875POPC   NC364019  30.052   5.028   5.325
 4875POPC   PO464020  29.375   4.865   5.317
 4875POPC   GL164021  29.666   4.858   5.732
 4875POPC   GL264022  30.052   4.871   5.835
 4875POPC   C1A64023  29.720   5.046   6.167
 4875POPC   D2A64024  29.831   5.312   6.508
 4875POPC   C3A64025  29.871   5.131   6.898
 4875POPC   C4A64026  29.649   5.127   7.289
 4875POPC   C1B64027  30.227   5.171   6.182
 4875POPC   C2B64028  30.341   5.294   6.638
 4875POPC   C3B64029  30.305   5.230   7.110
 4875POPC   C4B64030  30.324   4.894   7.385
 4876POPC   NC364031  30.058  15.769   5.529
 4876POPC   PO464032  29.624  16.264   5.326
 4876POPC   GL164033  29.790  16.141   5.729
 4876POPC   GL264034  29.620  15.788   5.772
 4876POPC   C1A64035  29.981  15.971   6.137
 4876POPC   D2A64036  29.816  15.952   6.534
 4876POPC   C3A64037  30.051  15.965   6.906
 4876POPC   C4A64038  30.002  16.050   7.319
 4876POPC   C1B64039  29.579  15.627   6.180
 4876POPC   C2B64040  29.636  15.453   6.561
 4876POPC   C3B64041  29.611  15.683   6.917
 4876POPC   C4B64042  29.771  15.591   7.286
 4877POPC   NC364043  16.572   5.486   5.498
 4877POPC   PO464044  16.604   4.837   5.355
 4877POPC   GL164045  16.711   5.032   5.734
 4877POPC   GL264046  16.988   5.287   5.769
 4877POPC   C1A64047  16.596   4.960   6.133
 4877POPC   D2A64048  16.657   5.115   6.521
 4877POPC   C3A64049  16.469   4.982   6.888
 4877POPC   C4A64050  16.551   5.004   7.298
 4877POPC   C1B64051  17.098   5.130   6.177
 4877POPC   C2B64052  17.131   4.917   6.574
 4877POPC   C3B64053  16.988   4.983   6.992
 4877POPC   C4B64054  16.997   4.739   7.371
 4878POPC   NC364055  25.090   0.448   5.168
 4878POPC   PO464056  24.354   0.478   5.235
 4878POPC   GL164057  24.422   0.403   5.736
 4878POPC   GL264058  24.694   0.151   5.821
 4878POPC   C1A64059  24.567   0.569   6.161
 4878POPC   D2A64060  24.699   0.733   6.569
 4878POPC   C3A64061  24.472   0.577   6.906
 4878POPC   C4A64062  24.695   0.354   7.194
 4878POPC   C1B64063  24.558   0.075   6.261
 4878POPC   C2B64064  24.561   0.095   6.743
 4878POPC   C3B64065  24.435  44.907   7.136
 4878POPC   C4B64066  24.336   0.154   7.476
 4879POPC   NC364067  18.216   5.517   5.326
 4879POPC   PO464068  18.334   4.840   5.324
 4879POPC   GL164069  18.263   5.141   5.699
 4879POPC   GL264070  18.511   5.209   5.899
 4879POPC   C1A64071  18.119   5.181   6.181
 4879POPC   D2A64072  18.373   5.106   6.571
 4879POPC   C3A64073  18.210   5.119   6.998
 4879POPC   C4A64074  18.331   5.153   7.433
 4879POPC   C1B64075  18.581   5.474   6.262
 4879POPC   C2B64076  18.454   5.592   6.694
 4879POPC   C3B64077  18.602   5.517   7.153
 4879POPC   C4B64078  18.634   5.459   7.662
 4880POPC   NC364079  13.152   0.759   5.409
 4880POPC   PO464080  12.902   0.138   5.287
 4880POPC   GL164081  13.007   0.291   5.704
 4880POPC   GL264082  12.655   0.328   5.808
 4880POPC   C1A64083  13.191   0.473   6.110
 4880POPC   D2A64084  13.206   0.437   6.578
 4880POPC   C3A64085  13.164   0.704   6.963
 4880POPC   C4A64086  13.002   0.678   7.391
 4880POPC   C1B64087  12.706   0.362   6.249
 4880POPC   C2B64088  12.728   0.641   6.595
 4880POPC   C3B64089  12.647   0.554   7.028
 4880POPC   C4B64090  12.811   0.208   7.300
 4881POPC   NC364091  15.916  13.768   5.627
 4881POPC   PO464092  15.581  13.258   5.410
 4881POPC   GL164093  15.914  13.308   5.782
 4881POPC   GL264094  16.319  13.498   5.811
 4881POPC   C1A64095  16.023  13.493   6.209
 4881POPC   D2A64096  15.891  13.388   6.585
 4881POPC   C3A64097  16.124  13.425   6.922
 4881POPC   C4A64098  15.896  13.330   7.275
 4881POPC   C1B64099  16.512  13.691   6.160
 4881POPC   C2B64100  16.296  13.836   6.527
 4881POPC   C3B64101  15.982  13.918   6.834
 4881POPC   C4B64102  16.086  13.831   7.256
 4882POPC   NC364103  10.435  18.038   5.342
 4882POPC   PO464104  10.792  17.433   5.395
 4882POPC   GL164105  10.595  17.603   5.768
 4882POPC   GL264106  10.771  17.911   5.769
 4882POPC   C1A64107  10.364  17.629   6.197
 4882POPC   D2A64108  10.136  17.338   6.494
 4882POPC   C3A64109  10.325  17.281   6.909
 4882POPC   C4A64110  10.220  17.420   7.316
 4882POPC   C1B64111  10.726  18.046   6.211
 4882POPC   C2B64112  10.522  17.973   6.606
 4882POPC   C3B64113  10.573  17.743   6.990
 4882POPC   C4B64114  10.959  17.881   7.200
 4883POPC   NC364115  30.983  18.663   5.446
 4883POPC   PO464116  30.375  18.334   5.304
 4883POPC   GL164117  30.574  18.472   5.708
 4883POPC   GL264118  30.889  18.344   5.832
 4883POPC   C1A64119  30.465  18.470   6.152
 4883POPC   D2A64120  30.563  18.220   6.522
 4883POPC   C3A64121  30.452  18.348   6.939
 4883POPC   C4A64122  30.555  18.160   7.321
 4883POPC   C1B64123  30.973  18.576   6.232
 4883POPC   C2B64124  31.016  18.401   6.661
 4883POPC   C3B64125  30.929  18.519   7.082
 4883POPC   C4B64126  31.286  18.588   7.323
 4884POPC   NC364127   7.747   9.879   5.469
 4884POPC   PO464128   7.126   9.477   5.466
 4884POPC   GL164129   7.411   9.638   5.753
 4884POPC   GL264130   7.155   9.831   5.863
 4884POPC   C1A64131   7.628   9.694   6.162
 4884POPC   D2A64132   7.720   9.795   6.593
 4884POPC   C3A64133   7.574   9.559   6.957
 4884POPC   C4A64134   7.761   9.352   7.326
 4884POPC   C1B64135   7.168   9.505   6.181
 4884POPC   C2B64136   7.226   9.696   6.565
 4884POPC   C3B64137   7.125   9.804   6.963
 4884POPC   C4B64138   7.264   9.718   7.366
 4885POPC   NC364139  12.819  20.119   5.770
 4885POPC   PO464140  13.263  19.705   5.490
 4885POPC   GL164141  13.007  19.623   5.826
 4885POPC   GL264142  12.641  19.520   5.766
 4885POPC   C1A64143  12.988  19.717   6.249
 4885POPC   D2A64144  13.123  19.741   6.643
 4885POPC   C3A64145  12.927  20.050   6.872
 4885POPC   C4A64146  12.734  20.079   7.254
 4885POPC   C1B64147  12.653  19.324   6.189
 4885POPC   C2B64148  12.832  19.325   6.616
 4885POPC   C3B64149  12.837  19.560   7.028
 4885POPC   C4B64150  12.690  19.601   7.451
 4886POPC   NC364151  31.664  41.191   5.487
 4886POPC   PO464152  31.367  41.698   5.080
 4886POPC   GL164153  31.511  41.746   5.583
 4886POPC   GL264154  31.791  41.612   5.767
 4886POPC   C1A64155  31.436  41.840   6.058
 4886POPC   D2A64156  31.276  41.647   6.479
 4886POPC   C3A64157  31.407  41.832   6.911
 4886POPC   C4A64158  31.374  41.684   7.372
 4886POPC   C1B64159  31.672  41.384   6.183
 4886POPC   C2B64160  31.725  41.428   6.666
 4886POPC   C3B64161  31.791  41.526   7.129
 4886POPC   C4B64162  31.728  41.279   7.523
 4887POPC   NC364163  29.030  10.787   5.303
 4887POPC   PO464164  29.336  10.185   5.439
 4887POPC   GL164165  29.076  10.358   5.766
 4887POPC   GL264166  29.115  10.673   5.799
 4887POPC   C1A64167  28.959  10.420   6.214
 4887POPC   D2A64168  29.054  10.657   6.585
 4887POPC   C3A64169  28.928  10.449   6.976
 4887POPC   C4A64170  29.193  10.201   7.202
 4887POPC   C1B64171  29.294  10.893   6.166
 4887POPC   C2B64172  29.489  10.930   6.572
 4887POPC   C3B64173  29.296  11.009   6.936
 4887POPC   C4B64174  29.178  10.806   7.278
 4888POPC   NC364175  30.183   0.619   5.220
 4888POPC   PO464176  29.977   0.135   5.538
 4888POPC   GL164177  29.853   0.289   5.880
 4888POPC   GL264178  29.935   0.634   5.756
 4888POPC   C1A64179  30.048   0.306   6.278
 4888POPC   D2A64180  30.236   0.555   6.589
 4888POPC   C3A64181  30.016   0.451   6.962
 4888POPC   C4A64182  29.849   0.349   7.388
 4888POPC   C1B64183  29.657   0.710   6.104
 4888POPC   C2B64184  29.687   0.661   6.542
 4888POPC   C3B64185  29.672   0.828   6.943
 4888POPC   C4B64186  29.916   0.843   7.285
 4889POPC   NC364187  25.029  12.425   5.489
 4889POPC   PO464188  25.214  13.108   5.314
 4889POPC   GL164189  25.213  12.880   5.706
 4889POPC   GL264190  25.575  12.949   5.793
 4889POPC   C1A64191  24.931  12.731   6.050
 4889POPC   D2A64192  25.052  12.443   6.402
 4889POPC   C3A64193  24.972  12.510   6.864
 4889POPC   C4A64194  24.999  12.586   7.343
 4889POPC   C1B64195  25.396  12.804   6.210
 4889POPC   C2B64196  25.524  12.580   6.603
 4889POPC   C3B64197  25.445  12.584   7.058
 4889POPC   C4B64198  25.438  13.034   7.149
 4890POPC   NC364199  43.611  41.819   5.284
 4890POPC   PO464200  43.993  41.343   5.421
 4890POPC   GL164201  43.827  41.396   5.814
 4890POPC   GL264202  43.902  41.706   5.882
 4890POPC   C1A64203  43.594  41.245   6.157
 4890POPC   D2A64204  43.560  41.097   6.585
 4890POPC   C3A64205  43.603  41.386   6.935
 4890POPC   C4A64206  43.877  41.611   7.228
 4890POPC   C1B64207  44.135  41.410   6.218
 4890POPC   C2B64208  44.358  41.223   6.617
 4890POPC   C3B64209  44.287  41.301   7.092
 4890POPC   C4B64210  44.182  41.387   7.575
 4891POPC   NC364211   3.015   4.205   5.229
 4891POPC   PO464212   2.412   4.423   5.405
 4891POPC   GL164213   2.643   4.403   5.820
 4891POPC   GL264214   2.906   4.656   5.788
 4891POPC   C1A64215   2.876   4.209   6.224
 4891POPC   D2A64216   2.982   3.944   6.593
 4891POPC   C3A64217   3.011   4.196   6.967
 4891POPC   C4A64218   2.678   4.338   7.252
 4891POPC   C1B64219   2.764   4.714   6.221
 4891POPC   C2B64220   2.945   4.699   6.633
 4891POPC   C3B64221   2.996   4.723   7.083
 4891POPC   C4B64222   2.777   4.793   7.471
 4892POPC   NC364223  32.941  10.232   5.415
 4892POPC   PO464224  33.192   9.662   5.286
 4892POPC   GL164225  33.358   9.519   5.715
 4892POPC   GL264226  33.414   9.835   5.900
 4892POPC   C1A64227  33.269   9.385   6.165
 4892POPC   D2A64228  33.101   9.382   6.624
 4892POPC   C3A64229  33.393   9.564   6.951
 4892POPC   C4A64230  33.334   9.740   7.395
 4892POPC   C1B64231  32.945   9.814   5.966
 4892POPC   C2B64232  32.697   9.869   6.351
 4892POPC   C3B64233  32.787   9.862   6.801
 4892POPC   C4B64234  32.908   9.560   7.130
 4893POPC   NC364235  28.195  14.622   5.348
 4893POPC   PO464236  28.533  14.056   5.371
 4893POPC   GL164237  28.512  14.422   5.729
 4893POPC   GL264238  28.224  14.683   5.851
 4893POPC   C1A64239  28.563  14.375   6.195
 4893POPC   D2A64240  28.490  14.570   6.602
 4893POPC   C3A64241  28.606  14.288   6.911
 4893POPC   C4A64242  28.650  14.466   7.287
 4893POPC   C1B64243  28.077  14.477   6.252
 4893POPC   C2B64244  28.093  14.266   6.682
 4893POPC   C3B64245  28.142  14.368   7.148
 4893POPC   C4B64246  28.006  14.410   7.590
 4894POPC   NC364247  14.402  18.251   5.348
 4894POPC   PO464248  14.004  18.730   5.367
 4894POPC   GL164249  14.079  18.357   5.731
 4894POPC   GL264250  14.399  18.362   5.893
 4894POPC   C1A64251  14.042  18.141   6.182
 4894POPC   D2A64252  14.132  17.984   6.658
 4894POPC   C3A64253  14.299  18.235   7.022
 4894POPC   C4A64254  14.346  18.318   7.495
 4894POPC   C1B64255  14.398  18.609   6.305
 4894POPC   C2B64256  14.367  18.771   6.780
 4894POPC   C3B64257  14.393  18.773   7.258
 4894POPC   C4B64258  14.747  18.669   7.539
 4895POPC   NC364259  36.027   6.406   5.437
 4895POPC   PO464260  35.894   7.109   5.293
 4895POPC   GL164261  35.900   6.834   5.728
 4895POPC   GL264262  36.212   6.668   5.823
 4895POPC   C1A64263  35.973   6.858   6.216
 4895POPC   D2A64264  36.008   6.939   6.666
 4895POPC   C3A64265  35.845   6.583   6.881
 4895POPC   C4A64266  35.794   6.331   7.262
 4895POPC   C1B64267  36.515   6.677   6.172
 4895POPC   C2B64268  36.522   6.754   6.593
 4895POPC   C3B64269  36.363   6.649   6.970
 4895POPC   C4B64270  36.075   6.847   7.232
 4896POPC   NC364271  19.979  24.003   5.451
 4896POPC   PO464272  19.475  23.658   5.228
 4896POPC   GL164273  19.672  23.695   5.720
 4896POPC   GL264274  19.671  24.071   5.856
 4896POPC   C1A64275  19.994  23.775   6.109
 4896POPC   D2A64276  20.113  24.012   6.495
 4896POPC   C3A64277  19.995  24.044   6.931
 4896POPC   C4A64278  20.002  23.709   7.221
 4896POPC   C1B64279  19.493  23.882   6.221
 4896POPC   C2B64280  19.611  23.828   6.648
 4896POPC   C3B64281  19.529  23.862   7.099
 4896POPC   C4B64282  19.582  23.663   7.514
 4897POPC   NC364283  14.420  35.668   5.000
 4897POPC   PO464284  14.203  35.348   5.509
 4897POPC   GL164285  14.505  35.408   5.849
 4897POPC   GL264286  14.873  35.281   5.849
 4897POPC   C1A64287  14.424  35.448   6.293
 4897POPC   D2A64288  14.623  35.385   6.691
 4897POPC   C3A64289  14.360  35.288   7.021
 4897POPC   C4A64290  14.158  35.554   7.297
 4897POPC   C1B64291  14.761  35.063   6.240
 4897POPC   C2B64292  14.729  34.863   6.656
 4897POPC   C3B64293  14.779  34.973   7.082
 4897POPC   C4B64294  14.861  35.394   7.167
 4898POPC   NC364295   6.957  31.062   5.405
 4898POPC   PO464296   6.602  31.615   5.425
 4898POPC   GL164297   6.775  31.540   5.790
 4898POPC   GL264298   6.600  31.253   5.798
 4898POPC   C1A64299   6.840  31.776   6.154
 4898POPC   D2A64300   6.626  31.643   6.507
 4898POPC   C3A64301   6.769  31.547   6.967
 4898POPC   C4A64302   6.653  31.370   7.406
 4898POPC   C1B64303   6.521  31.070   6.185
 4898POPC   C2B64304   6.435  31.061   6.604
 4898POPC   C3B64305   6.584  31.064   7.000
 4898POPC   C4B64306   6.343  30.937   7.355
 4899POPC   NC364307  11.953  30.666   5.578
 4899POPC   PO464308  11.544  30.106   5.605
 4899POPC   GL164309  11.875  30.336   5.972
 4899POPC   GL264310  12.248  30.542   5.968
 4899POPC   C1A64311  12.025  30.526   6.407
 4899POPC   D2A64312  11.895  30.869   6.689
 4899POPC   C3A64313  12.009  30.742   7.111
 4899POPC   C4A64314  12.347  30.386   7.131
 4899POPC   C1B64315  12.314  30.929   6.265
 4899POPC   C2B64316  12.354  31.084   6.725
 4899POPC   C3B64317  12.496  30.905   7.145
 4899POPC   C4B64318  12.331  30.670   7.544
 4900POPC   NC364319  23.462  31.073   5.513
 4900POPC   PO464320  22.837  30.990   5.414
 4900POPC   GL164321  22.893  30.723   5.779
 4900POPC   GL264322  23.185  30.617   5.944
 4900POPC   C1A64323  22.767  30.629   6.235
 4900POPC   D2A64324  22.873  30.789   6.669
 4900POPC   C3A64325  22.962  30.783   7.135
 4900POPC   C4A64326  22.680  30.700   7.516
 4900POPC   C1B64327  23.477  30.475   6.264
 4900POPC   C2B64328  23.284  30.474   6.665
 4900POPC   C3B64329  23.311  30.408   7.093
 4900POPC   C4B64330  23.071  30.393   7.494
 4901POPC   NC364331  31.713  38.321   5.366
 4901POPC   PO464332  31.198  38.746   5.379
 4901POPC   GL164333  31.287  38.528   5.778
 4901POPC   GL264334  31.617  38.588   5.794
 4901POPC   C1A64335  31.235  38.479   6.275
 4901POPC   D2A64336  31.345  38.330   6.736
 4901POPC   C3A64337  31.335  38.455   7.205
 4901POPC   C4A64338  31.548  38.251   7.565
 4901POPC   C1B64339  31.806  38.485   6.184
 4901POPC   C2B64340  31.995  38.520   6.583
 4901POPC   C3B64341  31.787  38.514   6.948
 4901POPC   C4B64342  31.802  38.667   7.343
 4902POPC   NC364343  15.826   8.367   5.346
 4902POPC   PO464344  16.452   7.997   5.236
 4902POPC   GL164345  16.115   8.081   5.605
 4902POPC   GL264346  16.019   7.853   5.818
 4902POPC   C1A64347  16.025   8.319   6.019
 4902POPC   D2A64348  15.817   8.238   6.427
 4902POPC   C3A64349  15.901   8.534   6.767
 4902POPC   C4A64350  16.100   8.455   7.155
 4902POPC   C1B64351  16.180   7.897   6.264
 4902POPC   C2B64352  16.018   7.785   6.613
 4902POPC   C3B64353  15.787   7.978   6.897
 4902POPC   C4B64354  15.979   7.954   7.264
 4903POPC   NC364355  15.327  27.781   5.551
 4903POPC   PO464356  14.914  27.224   5.458
 4903POPC   GL164357  15.036  27.458   5.832
 4903POPC   GL264358  14.913  27.831   5.860
 4903POPC   C1A64359  15.119  27.451   6.277
 4903POPC   D2A64360  14.903  27.278   6.635
 4903POPC   C3A64361  15.104  27.451   6.972
 4903POPC   C4A64362  14.983  27.636   7.333
 4903POPC   C1B64363  15.218  27.940   6.188
 4903POPC   C2B64364  15.194  27.893   6.640
 4903POPC   C3B64365  15.329  27.927   7.064
 4903POPC   C4B64366  15.559  27.625   7.335
 4904POPC   NC364367  15.485  26.978   5.553
 4904POPC   PO464368  14.830  26.656   5.511
 4904POPC   GL164369  15.064  26.827   5.821
 4904POPC   GL264370  15.375  26.638   5.921
 4904POPC   C1A64371  15.061  26.950   6.221
 4904POPC   D2A64372  15.353  27.047   6.531
 4904POPC   C3A64373  15.182  26.898   6.908
 4904POPC   C4A64374  15.234  27.074   7.295
 4904POPC   C1B64375  15.358  26.540   6.376
 4904POPC   C2B64376  15.423  26.435   6.836
 4904POPC   C3B64377  15.415  26.590   7.282
 4904POPC   C4B64378  15.651  26.476   7.694
 4905POPC   NC364379  36.513  27.109   5.433
 4905POPC   PO464380  37.120  27.599   5.544
 4905POPC   GL164381  36.937  27.630   5.924
 4905POPC   GL264382  37.074  27.324   6.066
 4905POPC   C1A64383  37.111  27.794   6.292
 4905POPC   D2A64384  37.165  27.486   6.600
 4905POPC   C3A64385  36.974  27.554   6.991
 4905POPC   C4A64386  37.110  27.935   7.189
 4905POPC   C1B64387  36.717  27.393   6.347
 4905POPC   C2B64388  36.500  27.408   6.760
 4905POPC   C3B64389  36.546  27.343   7.200
 4905POPC   C4B64390  36.406  27.250   7.626
 4906POPC   NC364391   5.521  14.763   5.251
 4906POPC   PO464392   4.987  15.170   5.286
 4906POPC   GL164393   5.125  14.950   5.626
 4906POPC   GL264394   4.897  15.192   5.792
 4906POPC   C1A64395   5.313  14.938   6.040
 4906POPC   D2A64396   5.343  14.998   6.508
 4906POPC   C3A64397   5.034  14.894   6.854
 4906POPC   C4A64398   5.198  15.007   7.287
 4906POPC   C1B64399   5.053  15.356   6.158
 4906POPC   C2B64400   4.928  15.327   6.564
 4906POPC   C3B64401   5.057  15.392   6.974
 4906POPC   C4B64402   4.868  15.381   7.377
 4907POPC   NC364403  36.402  20.914   5.272
 4907POPC   PO464404  36.704  21.515   5.492
 4907POPC   GL164405  36.452  21.470   5.813
 4907POPC   GL264406  36.068  21.427   5.742
 4907POPC   C1A64407  36.416  21.367   6.222
 4907POPC   D2A64408  36.111  21.291   6.539
 4907POPC   C3A64409  36.034  21.446   6.949
 4907POPC   C4A64410  35.898  21.235   7.320
 4907POPC   C1B64411  35.822  21.395   6.140
 4907POPC   C2B64412  35.771  21.694   6.538
 4907POPC   C3B64413  35.601  21.704   6.989
 4907POPC   C4B64414  35.631  21.616   7.473
 4908POPC   NC364415  18.561  40.033   5.413
 4908POPC   PO464416  19.247  40.017   5.555
 4908POPC   GL164417  18.905  40.093   5.803
 4908POPC   GL264418  18.807  39.740   5.778
 4908POPC   C1A64419  18.952  40.306   6.179
 4908POPC   D2A64420  18.783  40.247   6.585
 4908POPC   C3A64421  18.872  40.382   7.002
 4908POPC   C4A64422  18.744  40.281   7.450
 4908POPC   C1B64423  19.091  39.723   6.139
 4908POPC   C2B64424  19.214  39.973   6.482
 4908POPC   C3B64425  19.137  39.935   6.897
 4908POPC   C4B64426  18.919  39.863   7.245
 4909POPC   NC364427  37.772  19.530   5.453
 4909POPC   PO464428  37.343  20.013   5.370
 4909POPC   GL164429  37.463  19.801   5.763
 4909POPC   GL264430  37.841  19.820   5.859
 4909POPC   C1A64431  37.472  19.665   6.193
 4909POPC   D2A64432  37.733  19.600   6.532
 4909POPC   C3A64433  37.553  19.706   6.912
 4909POPC   C4A64434  37.814  19.778   7.259
 4909POPC   C1B64435  37.978  20.067   6.196
 4909POPC   C2B64436  38.200  20.215   6.540
 4909POPC   C3B64437  38.103  20.124   6.971
 4909POPC   C4B64438  37.924  20.278   7.358
 4910POPC   NC364439  35.979  27.838   5.136
 4910POPC   PO464440  35.490  28.098   5.527
 4910POPC   GL164441  35.533  27.843   5.898
 4910POPC   GL264442  35.843  27.656   5.911
 4910POPC   C1A64443  35.371  27.696   6.330
 4910POPC   D2A64444  35.214  27.677   6.788
 4910POPC   C3A64445  35.308  27.335   7.104
 4910POPC   C4A64446  35.607  27.358   7.448
 4910POPC   C1B64447  35.845  27.911   6.290
 4910POPC   C2B64448  35.748  27.727   6.676
 4910POPC   C3B64449  35.643  27.716   7.067
 4910POPC   C4B64450  35.726  27.887   7.410
 4911POPC   NC364451  41.060  18.274   5.440
 4911POPC   PO464452  41.709  18.488   5.369
 4911POPC   GL164453  41.493  18.223   5.715
 4911POPC   GL264454  41.285  18.488   5.882
 4911POPC   C1A64455  41.362  18.033   6.139
 4911POPC   D2A64456  41.395  18.177   6.575
 4911POPC   C3A64457  41.388  17.924   6.952
 4911POPC   C4A64458  41.465  18.026   7.386
 4911POPC   C1B64459  41.310  18.627   6.328
 4911POPC   C2B64460  41.268  18.647   6.790
 4911POPC   C3B64461  41.503  18.489   7.147
 4911POPC   C4B64462  41.807  18.474   7.512
 4912POPC   NC364463  29.220   7.509   5.465
 4912POPC   PO464464  28.711   7.990   5.226
 4912POPC   GL164465  28.813   7.760   5.655
 4912POPC   GL264466  28.609   7.479   5.773
 4912POPC   C1A64467  28.988   7.698   6.093
 4912POPC   D2A64468  28.995   7.624   6.565
 4912POPC   C3A64469  29.394   7.681   6.781
 4912POPC   C4A64470  29.479   7.424   7.126
 4912POPC   C1B64471  28.733   7.261   6.180
 4912POPC   C2B64472  29.024   7.086   6.478
 4912POPC   C3B64473  29.053   7.186   6.909
 4912POPC   C4B64474  28.785   7.524   7.108
 4913POPC   NC364475  16.743  38.788   5.378
 4913POPC   PO464476  16.459  38.233   5.263
 4913POPC   GL164477  16.618  38.357   5.680
 4913POPC   GL264478  16.913  38.213   5.847
 4913POPC   C1A64479  16.433  38.246   6.095
 4913POPC   D2A64480  16.475  38.183   6.559
 4913POPC   C3A64481  16.593  38.576   6.758
 4913POPC   C4A64482  16.649  38.812   7.133
 4913POPC   C1B64483  17.127  38.205   6.251
 4913POPC   C2B64484  17.036  38.179   6.699
 4913POPC   C3B64485  16.957  38.392   7.070
 4913POPC   C4B64486  17.089  38.684   7.358
 4914POPC   NC364487  24.136  40.413   5.484
 4914POPC   PO464488  24.625  40.964   5.352
 4914POPC   GL164489  24.566  40.792   5.764
 4914POPC   GL264490  24.685  40.425   5.738
 4914POPC   C1A64491  24.361  40.945   6.181
 4914POPC   D2A64492  24.323  41.063   6.647
 4914POPC   C3A64493  24.681  40.921   6.934
 4914POPC   C4A64494  24.790  41.027   7.379
 4914POPC   C1B64495  24.467  40.451   6.122
 4914POPC   C2B64496  24.436  40.576   6.547
 4914POPC   C3B64497  24.305  40.570   6.975
 4914POPC   C4B64498  24.444  40.454   7.356
 4915POPC   NC364499  35.323  28.507   5.391
 4915POPC   PO464500  36.020  28.322   5.235
 4915POPC   GL164501  35.758  28.536   5.667
 4915POPC   GL264502  35.732  28.330   5.980
 4915POPC   C1A64503  35.361  28.662   6.013
 4915POPC   D2A64504  35.406  28.655   6.503
 4915POPC   C3A64505  35.187  28.616   6.935
 4915POPC   C4A64506  35.374  28.615   7.382
 4915POPC   C1B64507  35.414  28.202   6.255
 4915POPC   C2B64508  35.233  28.175   6.671
 4915POPC   C3B64509  35.310  28.112   7.125
 4915POPC   C4B64510  35.239  27.748   7.416
 4916POPC   NC364511   4.310  10.714   5.403
 4916POPC   PO464512   4.498  10.020   5.422
 4916POPC   GL164513   4.343  10.215   5.843
 4916POPC   GL264514   4.186  10.567   5.863
 4916POPC   C1A64515   4.274  10.287   6.316
 4916POPC   D2A64516   4.121  10.422   6.710
 4916POPC   C3A64517   4.361  10.247   7.047
 4916POPC   C4A64518   4.529  10.449   7.436
 4916POPC   C1B64519   4.241  10.779   6.266
 4916POPC   C2B64520   4.556  10.697   6.603
 4916POPC   C3B64521   4.411  10.765   7.021
 4916POPC   C4B64522   3.990  10.939   7.102
 4917POPC   NC364523  23.890  22.132   5.004
 4917POPC   PO464524  23.570  22.598   5.328
 4917POPC   GL164525  23.600  22.416   5.802
 4917POPC   GL264526  23.528  22.048   5.802
 4917POPC   C1A64527  23.722  22.391   6.278
 4917POPC   D2A64528  23.655  22.493   6.732
 4917POPC   C3A64529  23.795  22.180   7.076
 4917POPC   C4A64530  24.130  22.248   7.404
 4917POPC   C1B64531  23.320  22.103   6.208
 4917POPC   C2B64532  23.223  22.198   6.627
 4917POPC   C3B64533  23.261  21.940   6.983
 4917POPC   C4B64534  23.418  21.955   7.376
 4918POPC   NC364535  37.069  25.336   5.415
 4918POPC   PO464536  36.586  24.800   5.288
 4918POPC   GL164537  36.753  25.063   5.702
 4918POPC   GL264538  37.124  25.008   5.809
 4918POPC   C1A64539  36.911  25.417   6.046
 4918POPC   D2A64540  37.091  25.619   6.447
 4918POPC   C3A64541  36.982  25.570   6.905
 4918POPC   C4A64542  36.796  25.435   7.299
 4918POPC   C1B64543  37.075  24.983   6.266
 4918POPC   C2B64544  37.070  25.090   6.711
 4918POPC   C3B64545  37.057  25.020   7.161
 4918POPC   C4B64546  36.753  24.925   7.503
 4919POPC   NC364547  17.919  35.681   4.966
 4919POPC   PO464548  17.373  35.540   5.289
 4919POPC   GL164549  17.351  35.283   5.706
 4919POPC   GL264550  17.384  35.552   5.963
 4919POPC   C1A64551  17.174  35.130   6.139
 4919POPC   D2A64552  17.342  35.330   6.535
 4919POPC   C3A64553  17.531  35.108   6.890
 4919POPC   C4A64554  17.305  35.069   7.276
 4919POPC   C1B64555  17.626  35.719   6.302
 4919POPC   C2B64556  17.749  35.608   6.728
 4919POPC   C3B64557  17.520  35.560   7.105
 4919POPC   C4B64558  17.464  35.677   7.504
 4920POPC   NC364559   4.332  12.525   5.394
 4920POPC   PO464560   4.799  12.136   5.316
 4920POPC   GL164561   4.518  12.143   5.696
 4920POPC   GL264562   4.179  12.000   5.790
 4920POPC   C1A64563   4.552  12.092   6.148
 4920POPC   D2A64564   4.612  11.832   6.506
 4920POPC   C3A64565   4.407  11.994   6.887
 4920POPC   C4A64566   4.405  12.166   7.315
 4920POPC   C1B64567   4.026  12.015   6.249
 4920POPC   C2B64568   3.932  12.040   6.710
 4920POPC   C3B64569   3.937  12.059   7.160
 4920POPC   C4B64570   3.970  12.176   7.598
 4921POPC   NC364571  39.068  17.002   5.489
 4921POPC   PO464572  39.544  17.406   5.164
 4921POPC   GL164573  39.225  17.467   5.600
 4921POPC   GL264574  38.887  17.413   5.738
 4921POPC   C1A64575  39.267  17.390   6.095
 4921POPC   D2A64576  39.284  17.659   6.474
 4921POPC   C3A64577  39.343  17.544   6.914
 4921POPC   C4A64578  39.568  17.786   7.225
 4921POPC   C1B64579  38.749  17.373   6.205
 4921POPC   C2B64580  38.818  17.422   6.699
 4921POPC   C3B64581  38.760  17.241   7.163
 4921POPC   C4B64582  38.731  17.344   7.647
 4922POPC   NC364583  28.551  30.042   5.362
 4922POPC   PO464584  27.945  29.750   5.484
 4922POPC   GL164585  28.227  30.070   5.751
 4922POPC   GL264586  28.636  30.097   5.847
 4922POPC   C1A64587  28.274  30.210   6.159
 4922POPC   D2A64588  28.194  30.227   6.572
 4922POPC   C3A64589  28.351  29.889   6.828
 4922POPC   C4A64590  28.421  29.931   7.257
 4922POPC   C1B64591  28.711  29.939   6.295
 4922POPC   C2B64592  28.712  29.577   6.609
 4922POPC   C3B64593  28.702  29.550   7.070
 4922POPC   C4B64594  28.756  29.666   7.512
 4923POPC   NC364595  12.698  23.393   5.545
 4923POPC   PO464596  13.071  22.825   5.523
 4923POPC   GL164597  13.067  22.966   5.886
 4923POPC   GL264598  12.709  22.974   5.875
 4923POPC   C1A64599  12.956  22.716   6.241
 4923POPC   D2A64600  12.714  22.828   6.598
 4923POPC   C3A64601  12.863  23.174   6.860
 4923POPC   C4A64602  12.755  23.274   7.278
 4923POPC   C1B64603  12.518  22.573   6.038
 4923POPC   C2B64604  12.474  22.378   6.455
 4923POPC   C3B64605  12.447  22.505   6.910
 4923POPC   C4B64606  12.763  22.742   7.173
 4924POPC   NC364607  15.747  12.856   5.531
 4924POPC   PO464608  16.182  13.408   5.346
 4924POPC   GL164609  16.299  13.007   5.687
 4924POPC   GL264610  16.194  12.639   5.726
 4924POPC   C1A64611  16.056  12.993   6.126
 4924POPC   D2A64612  15.730  12.900   6.450
 4924POPC   C3A64613  15.708  13.021   6.897
 4924POPC   C4A64614  15.697  12.863   7.323
 4924POPC   C1B64615  16.334  12.592   6.180
 4924POPC   C2B64616  16.258  12.917   6.587
 4924POPC   C3B64617  16.202  12.926   7.052
 4924POPC   C4B64618  16.214  12.585   7.322
 4925POPC   NC364619  18.761   7.539   5.201
 4925POPC   PO464620  19.249   7.121   5.477
 4925POPC   GL164621  19.004   7.177   5.867
 4925POPC   GL264622  18.703   7.276   5.733
 4925POPC   C1A64623  18.927   7.309   6.321
 4925POPC   D2A64624  18.876   7.338   6.778
 4925POPC   C3A64625  19.225   7.391   7.029
 4925POPC   C4A64626  19.449   7.115   7.309
 4925POPC   C1B64627  18.681   7.654   6.027
 4925POPC   C2B64628  18.676   7.753   6.497
 4925POPC   C3B64629  18.604   7.743   6.951
 4925POPC   C4B64630  18.797   7.470   7.306
 4926POPC   NC364631  29.436  18.886   5.243
 4926POPC   PO464632  28.816  18.963   5.521
 4926POPC   GL164633  29.218  19.041   5.724
 4926POPC   GL264634  29.380  19.316   5.552
 4926POPC   C1A64635  29.291  18.984   6.185
 4926POPC   D2A64636  29.025  19.003   6.580
 4926POPC   C3A64637  29.117  18.780   6.982
 4926POPC   C4A64638  29.487  18.653   7.182
 4926POPC   C1B64639  29.436  19.440   6.013
 4926POPC   C2B64640  29.457  19.362   6.510
 4926POPC   C3B64641  29.246  19.293   6.940
 4926POPC   C4B64642  28.836  19.379   7.147
 4927POPC   NC364643   5.859  25.454   5.432
 4927POPC   PO464644   6.162  24.965   5.397
 4927POPC   GL164645   5.987  25.070   5.814
 4927POPC   GL264646   6.127  24.779   5.980
 4927POPC   C1A64647   5.732  25.097   6.229
 4927POPC   D2A64648   5.528  25.208   6.642
 4927POPC   C3A64649   5.631  25.224   7.122
 4927POPC   C4A64650   5.750  25.535   7.447
 4927POPC   C1B64651   6.076  24.758   6.436
 4927POPC   C2B64652   5.981  24.976   6.839
 4927POPC   C3B64653   6.141  25.213   7.232
 4927POPC   C4B64654   6.284  24.971   7.613
 4928POPC   NC364655  17.463   5.478   5.559
 4928POPC   PO464656  17.444   4.787   5.418
 4928POPC   GL164657  17.468   4.987   5.795
 4928POPC   GL264658  17.817   4.943   5.781
 4928POPC   C1A64659  17.609   5.168   6.186
 4928POPC   D2A64660  17.490   5.309   6.572
 4928POPC   C3A64661  17.532   5.045   6.905
 4928POPC   C4A64662  17.399   5.062   7.312
 4928POPC   C1B64663  17.880   4.707   6.170
 4928POPC   C2B64664  17.917   4.841   6.591
 4928POPC   C3B64665  17.834   4.637   6.978
 4928POPC   C4B64666  18.008   4.751   7.327
 4929POPC   NC364667  38.698   6.128   5.424
 4929POPC   PO464668  38.206   5.800   5.186
 4929POPC   GL164669  38.357   5.820   5.633
 4929POPC   GL264670  38.386   6.140   5.810
 4929POPC   C1A64671  38.535   5.738   6.055
 4929POPC   D2A64672  38.687   5.721   6.434
 4929POPC   C3A64673  38.549   5.648   6.799
 4929POPC   C4A64674  38.447   5.607   7.183
 4929POPC   C1B64675  38.441   6.214   6.238
 4929POPC   C2B64676  38.321   6.132   6.635
 4929POPC   C3B64677  38.483   6.115   7.047
 4929POPC   C4B64678  38.650   6.205   7.448
 4930POPC   NC364679  33.250   8.566   5.506
 4930POPC   PO464680  32.875   8.014   5.203
 4930POPC   GL164681  33.045   8.091   5.616
 4930POPC   GL264682  32.775   8.126   5.809
 4930POPC   C1A64683  33.241   8.177   6.047
 4930POPC   D2A64684  33.064   8.332   6.436
 4930POPC   C3A64685  33.267   8.258   6.842
 4930POPC   C4A64686  33.349   8.188   7.282
 4930POPC   C1B64687  32.866   7.850   6.187
 4930POPC   C2B64688  33.029   7.807   6.629
 4930POPC   C3B64689  33.037   7.841   7.094
 4930POPC   C4B64690  32.795   8.112   7.398
 4931POPC   NC364691  28.041   7.823   5.591
 4931POPC   PO464692  27.719   8.421   5.363
 4931POPC   GL164693  27.677   8.170   5.722
 4931POPC   GL264694  27.974   8.255   5.896
 4931POPC   C1A64695  27.580   8.014   6.162
 4931POPC   D2A64696  27.330   8.181   6.506
 4931POPC   C3A64697  27.342   8.160   6.977
 4931POPC   C4A64698  27.636   8.354   7.289
 4931POPC   C1B64699  28.072   8.075   6.330
 4931POPC   C2B64700  27.829   8.023   6.744
 4931POPC   C3B64701  27.745   7.850   7.169
 4931POPC   C4B64702  27.837   7.796   7.649
 4932POPC   NC364703  13.478  24.020   5.526
 4932POPC   PO464704  13.868  23.417   5.407
 4932POPC   GL164705  13.678  23.626   5.779
 4932POPC   GL264706  13.760  23.941   5.958
 4932POPC   C1A64707  13.571  23.480   6.196
 4932POPC   D2A64708  13.654  23.702   6.587
 4932POPC   C3A64709  13.730  23.563   7.025
 4932POPC   C4A64710  13.987  23.767   7.335
 4932POPC   C1B64711  13.319  23.937   6.178
 4932POPC   C2B64712  13.213  23.964   6.617
 4932POPC   C3B64713  13.515  24.056   6.945
 4932POPC   C4B64714  13.438  23.906   7.330
 4933POPC   NC364715   9.337  32.678   5.461
 4933POPC   PO464716  10.075  32.593   5.513
 4933POPC   GL164717   9.920  32.255   5.777
 4933POPC   GL264718   9.553  32.174   5.755
 4933POPC   C1A64719   9.841  32.353   6.201
 4933POPC   D2A64720   9.863  32.585   6.576
 4933POPC   C3A64721   9.936  32.347   6.933
 4933POPC   C4A64722   9.737  32.453   7.317
 4933POPC   C1B64723   9.394  32.129   6.175
 4933POPC   C2B64724   9.592  32.130   6.609
 4933POPC   C3B64725   9.477  32.102   7.068
 4933POPC   C4B64726   9.569  32.012   7.539
 4934POPC   NC364727  10.104  32.979   5.276
 4934POPC   PO464728   9.471  33.162   5.355
 4934POPC   GL164729   9.749  32.994   5.699
 4934POPC   GL264730   9.815  33.312   5.862
 4934POPC   C1A64731   9.886  32.886   6.160
 4934POPC   D2A64732  10.002  33.104   6.616
 4934POPC   C3A64733  10.049  32.866   7.030
 4934POPC   C4A64734   9.910  32.893   7.481
 4934POPC   C1B64735   9.539  33.227   6.248
 4934POPC   C2B64736   9.513  32.972   6.621
 4934POPC   C3B64737   9.566  33.053   7.038
 4934POPC   C4B64738   9.268  33.322   7.196
 4935POPC   NC364739  38.292  19.168   5.277
 4935POPC   PO464740  38.949  19.313   5.278
 4935POPC   GL164741  38.637  19.129   5.669
 4935POPC   GL264742  38.654  18.757   5.743
 4935POPC   C1A64743  38.359  19.149   6.108
 4935POPC   D2A64744  38.348  18.890   6.562
 4935POPC   C3A64745  38.338  19.110   7.044
 4935POPC   C4A64746  38.186  19.394   7.422
 4935POPC   C1B64747  38.805  18.939   6.143
 4935POPC   C2B64748  38.812  19.109   6.571
 4935POPC   C3B64749  38.836  18.960   7.000
 4935POPC   C4B64750  38.689  18.737   7.373
 4936POPC   NC364751   5.289  11.074   5.479
 4936POPC   PO464752   4.946  11.640   5.511
 4936POPC   GL164753   4.989  11.362   5.861
 4936POPC   GL264754   5.325  11.210   5.970
 4936POPC   C1A64755   4.937  11.368   6.306
 4936POPC   D2A64756   5.284  11.300   6.578
 4936POPC   C3A64757   5.173  11.503   6.946
 4936POPC   C4A64758   4.906  11.315   7.204
 4936POPC   C1B64759   5.145  10.884   6.248
 4936POPC   C2B64760   5.165  10.805   6.713
 4936POPC   C3B64761   5.320  11.014   7.087
 4936POPC   C4B64762   5.358  10.938   7.532
 4937POPC   NC364763  21.088  40.173   5.318
 4937POPC   PO464764  21.726  40.337   5.385
 4937POPC   GL164765  21.534  40.144   5.792
 4937POPC   GL264766  21.150  40.103   5.807
 4937POPC   C1A64767  21.445  39.921   6.210
 4937POPC   D2A64768  21.169  39.824   6.588
 4937POPC   C3A64769  21.273  39.857   7.039
 4937POPC   C4A64770  21.627  40.020   7.289
 4937POPC   C1B64771  21.160  40.336   6.178
 4937POPC   C2B64772  21.381  40.320   6.570
 4937POPC   C3B64773  21.206  40.360   6.988
 4937POPC   C4B64774  21.225  40.331   7.434
 4938POPC   NC364775  19.179  24.466   5.346
 4938POPC   PO464776  19.569  25.034   5.433
 4938POPC   GL164777  19.223  24.823   5.715
 4938POPC   GL264778  19.221  24.444   5.847
 4938POPC   C1A64779  18.977  24.805   6.111
 4938POPC   D2A64780  19.108  24.558   6.483
 4938POPC   C3A64781  19.027  24.642   6.911
 4938POPC   C4A64782  18.662  24.642   7.188
 4938POPC   C1B64783  19.054  24.162   6.179
 4938POPC   C2B64784  19.106  24.048   6.639
 4938POPC   C3B64785  19.124  24.178   7.101
 4938POPC   C4B64786  19.336  24.141   7.538
 4939POPC   NC364787   3.266   6.048   5.407
 4939POPC   PO464788   3.889   5.883   5.280
 4939POPC   GL164789   3.602   5.736   5.637
 4939POPC   GL264790   3.315   5.494   5.555
 4939POPC   C1A64791   3.503   5.906   6.060
 4939POPC   D2A64792   3.429   6.140   6.445
 4939POPC   C3A64793   3.548   5.990   6.818
 4939POPC   C4A64794   3.581   6.162   7.198
 4939POPC   C1B64795   3.261   5.462   6.015
 4939POPC   C2B64796   3.225   5.656   6.462
 4939POPC   C3B64797   3.262   5.562   6.893
 4939POPC   C4B64798   3.568   5.645   7.232
 4940POPC   NC364799  27.391   5.106   5.440
 4940POPC   PO464800  26.812   5.241   5.422
 4940POPC   GL164801  26.952   4.975   5.759
 4940POPC   GL264802  27.244   5.084   5.941
 4940POPC   C1A64803  26.856   4.888   6.214
 4940POPC   D2A64804  26.755   5.118   6.611
 4940POPC   C3A64805  26.757   4.962   7.048
 4940POPC   C4A64806  26.514   4.981   7.436
 4940POPC   C1B64807  27.224   5.225   6.382
 4940POPC   C2B64808  27.064   5.509   6.696
 4940POPC   C3B64809  27.007   5.408   7.109
 4940POPC   C4B64810  26.960   5.238   7.497
 4941POPC   NC364811  19.086  12.267   5.529
 4941POPC   PO464812  19.192  11.641   5.281
 4941POPC   GL164813  19.121  11.822   5.773
 4941POPC   GL264814  18.798  11.953   5.852
 4941POPC   C1A64815  19.078  11.918   6.268
 4941POPC   D2A64816  19.077  12.244   6.615
 4941POPC   C3A64817  19.157  12.138   7.082
 4941POPC   C4A64818  19.147  12.192   7.562
 4941POPC   C1B64819  18.756  12.328   6.140
 4941POPC   C2B64820  18.565  12.367   6.546
 4941POPC   C3B64821  18.710  12.368   6.965
 4941POPC   C4B64822  18.699  12.097   7.332
 4942POPC   NC364823  17.256   3.010   5.351
 4942POPC   PO464824  17.684   2.560   5.383
 4942POPC   GL164825  17.589   2.765   5.767
 4942POPC   GL264826  17.894   2.972   5.809
 4942POPC   C1A64827  17.416   2.544   6.133
 4942POPC   D2A64828  17.278   2.397   6.549
 4942POPC   C3A64829  17.492   2.581   6.895
 4942POPC   C4A64830  17.388   2.696   7.284
 4942POPC   C1B64831  17.776   2.908   6.253
 4942POPC   C2B64832  17.784   2.950   6.715
 4942POPC   C3B64833  17.741   3.021   7.164
 4942POPC   C4B64834  17.796   2.958   7.624
 4943POPC   NC364835  23.804  31.668   5.350
 4943POPC   PO464836  23.892  31.127   5.648
 4943POPC   GL164837  23.816  31.411   5.871
 4943POPC   GL264838  23.522  31.489   5.824
 4943POPC   C1A64839  23.848  31.318   6.270
 4943POPC   D2A64840  23.945  31.504   6.600
 4943POPC   C3A64841  23.784  31.292   6.930
 4943POPC   C4A64842  23.932  31.250   7.321
 4943POPC   C1B64843  23.334  31.423   6.184
 4943POPC   C2B64844  23.444  31.418   6.569
 4943POPC   C3B64845  23.409  31.658   6.893
 4943POPC   C4B64846  23.526  31.550   7.290
 4944POPC   NC364847  33.056  21.776   5.324
 4944POPC   PO464848  32.643  21.240   5.320
 4944POPC   GL164849  32.881  21.260   5.737
 4944POPC   GL264850  33.136  21.526   5.774
 4944POPC   C1A64851  32.977  21.038   6.141
 4944POPC   D2A64852  33.238  21.043   6.528
 4944POPC   C3A64853  33.020  21.035   6.893
 4944POPC   C4A64854  33.032  21.321   7.206
 4944POPC   C1B64855  32.993  21.536   6.226
 4944POPC   C2B64856  33.045  21.517   6.684
 4944POPC   C3B64857  33.145  21.789   7.054
 4944POPC   C4B64858  32.912  21.771   7.432
 4945POPC   NC364859  28.796   9.217   5.439
 4945POPC   PO464860  29.162   8.609   5.352
 4945POPC   GL164861  29.211   8.985   5.673
 4945POPC   GL264862  28.927   8.924   5.868
 4945POPC   C1A64863  29.194   9.322   6.061
 4945POPC   D2A64864  29.336   9.263   6.518
 4945POPC   C3A64865  29.302   9.237   6.995
 4945POPC   C4A64866  29.213   9.115   7.462
 4945POPC   C1B64867  29.235   8.846   6.230
 4945POPC   C2B64868  29.193   8.794   6.672
 4945POPC   C3B64869  29.190   8.724   7.124
 4945POPC   C4B64870  28.843   8.759   7.499
 4946POPC   NC364871  37.476  32.151   5.550
 4946POPC   PO464872  37.939  32.556   5.101
 4946POPC   GL164873  37.918  32.428   5.612
 4946POPC   GL264874  37.899  32.074   5.783
 4946POPC   C1A64875  37.703  32.478   6.069
 4946POPC   D2A64876  37.496  32.680   6.455
 4946POPC   C3A64877  37.627  32.544   6.888
 4946POPC   C4A64878  37.459  32.450   7.306
 4946POPC   C1B64879  37.671  31.968   6.167
 4946POPC   C2B64880  37.862  31.949   6.564
 4946POPC   C3B64881  37.725  32.031   6.956
 4946POPC   C4B64882  37.916  32.206   7.295
 4947POPC   NC364883  16.758  25.267   5.401
 4947POPC   PO464884  16.245  24.879   5.473
 4947POPC   GL164885  16.317  25.047   5.860
 4947POPC   GL264886  16.470  25.364   5.841
 4947POPC   C1A64887  16.483  25.054   6.283
 4947POPC   D2A64888  16.421  25.372   6.609
 4947POPC   C3A64889  16.637  25.307   6.995
 4947POPC   C4A64890  16.709  25.657   7.286
 4947POPC   C1B64891  16.781  25.446   6.187
 4947POPC   C2B64892  16.936  25.261   6.563
 4947POPC   C3B64893  17.083  25.525   6.907
 4947POPC   C4B64894  17.181  25.519   7.313
 4948POPC   NC364895  43.382  15.352   5.233
 4948POPC   PO464896  42.889  14.991   5.253
 4948POPC   GL164897  43.026  15.271   5.644
 4948POPC   GL264898  43.374  15.340   5.781
 4948POPC   C1A64899  42.902  15.265   6.107
 4948POPC   D2A64900  42.766  15.186   6.561
 4948POPC   C3A64901  42.950  15.437   6.898
 4948POPC   C4A64902  42.897  15.411   7.343
 4948POPC   C1B64903  43.371  15.097   6.201
 4948POPC   C2B64904  43.248  15.053   6.676
 4948POPC   C3B64905  43.076  14.972   7.120
 4948POPC   C4B64906  43.129  14.678   7.504
 4949POPC   NC364907  38.232  15.486   5.614
 4949POPC   PO464908  38.679  14.993   5.390
 4949POPC   GL164909  38.595  15.089   5.791
 4949POPC   GL264910  38.257  15.004   5.861
 4949POPC   C1A64911  38.547  15.296   6.191
 4949POPC   D2A64912  38.668  15.290   6.614
 4949POPC   C3A64913  38.364  15.405   6.901
 4949POPC   C4A64914  38.487  15.434   7.293
 4949POPC   C1B64915  38.510  14.783   6.199
 4949POPC   C2B64916  38.398  14.792   6.648
 4949POPC   C3B64917  38.447  14.917   7.082
 4949POPC   C4B64918  38.821  15.029   7.302
 4950POPC   NC364919  25.550   0.620   5.514
 4950POPC   PO464920  24.842   0.557   5.528
 4950POPC   GL164921  25.019   0.531   5.906
 4950POPC   GL264922  25.226   0.316   5.763
 4950POPC   C1A64923  25.000   0.379   6.343
 4950POPC   D2A64924  25.013   0.333   6.786
 4950POPC   C3A64925  25.095   0.666   7.085
 4950POPC   C4A64926  24.741   0.890   7.204
 4950POPC   C1B64927  25.436   0.244   6.122
 4950POPC   C2B64928  25.428   0.129   6.532
 4950POPC   C3B64929  25.488   0.281   6.967
 4950POPC   C4B64930  25.179   0.192   7.252
 4951POPC   NC364931  26.983  26.891   5.476
 4951POPC   PO464932  26.522  26.332   5.488
 4951POPC   GL164933  26.674  26.612   5.807
 4951POPC   GL264934  26.619  26.968   5.830
 4951POPC   C1A64935  26.866  26.691   6.193
 4951POPC   D2A64936  26.782  26.925   6.547
 4951POPC   C3A64937  26.965  26.758   6.893
 4951POPC   C4A64938  26.745  26.725   7.261
 4951POPC   C1B64939  26.454  27.187   6.200
 4951POPC   C2B64940  26.401  27.298   6.632
 4951POPC   C3B64941  26.617  27.163   6.992
 4951POPC   C4B64942  26.539  27.167   7.433
 4952POPC   NC364943  11.788  21.084   5.307
 4952POPC   PO464944  12.446  21.292   5.463
 4952POPC   GL164945  12.315  21.313   5.852
 4952POPC   GL264946  11.975  21.295   5.730
 4952POPC   C1A64947  12.420  21.331   6.292
 4952POPC   D2A64948  12.302  21.522   6.681
 4952POPC   C3A64949  12.277  21.288   7.059
 4952POPC   C4A64950  12.066  21.447   7.404
 4952POPC   C1B64951  11.873  21.400   6.134
 4952POPC   C2B64952  11.967  21.192   6.481
 4952POPC   C3B64953  11.825  21.259   6.848
 4952POPC   C4B64954  11.694  21.169   7.202
 4953POPC   NC364955  12.716   2.981   5.209
 4953POPC   PO464956  12.445   2.468   5.552
 4953POPC   GL164957  12.741   2.789   5.681
 4953POPC   GL264958  13.026   2.663   5.822
 4953POPC   C1A64959  12.819   3.058   6.049
 4953POPC   D2A64960  13.025   2.917   6.404
 4953POPC   C3A64961  12.828   2.865   6.783
 4953POPC   C4A64962  12.880   2.832   7.214
 4953POPC   C1B64963  13.136   2.451   6.168
 4953POPC   C2B64964  12.985   2.408   6.559
 4953POPC   C3B64965  13.158   2.495   6.943
 4953POPC   C4B64966  13.457   2.318   7.180
 4954POPC   NC364967  43.175  16.995   5.272
 4954POPC   PO464968  42.776  16.474   5.120
 4954POPC   GL164969  42.949  16.607   5.597
 4954POPC   GL264970  43.210  16.880   5.748
 4954POPC   C1A64971  42.889  16.666   6.082
 4954POPC   D2A64972  42.926  16.908   6.494
 4954POPC   C3A64973  43.090  16.824   6.888
 4954POPC   C4A64974  43.008  16.937   7.278
 4954POPC   C1B64975  43.155  17.148   6.111
 4954POPC   C2B64976  43.313  17.255   6.532
 4954POPC   C3B64977  43.134  17.323   6.933
 4954POPC   C4B64978  43.393  17.312   7.301
 4955POPC   NC364979  43.476  36.260   5.414
 4955POPC   PO464980  42.788  36.152   5.489
 4955POPC   GL164981  43.153  36.025   5.750
 4955POPC   GL264982  43.134  36.333   5.930
 4955POPC   C1A64983  43.158  35.860   6.169
 4955POPC   D2A64984  42.946  35.876   6.562
 4955POPC   C3A64985  43.168  36.071   6.871
 4955POPC   C4A64986  43.233  35.988   7.253
 4955POPC   C1B64987  43.040  36.350   6.388
 4955POPC   C2B64988  42.921  36.505   6.811
 4955POPC   C3B64989  42.998  36.424   7.233
 4955POPC   C4B64990  42.973  36.538   7.679
 4956POPC   NC364991  31.157  31.948   5.400
 4956POPC   PO464992  31.683  32.341   5.280
 4956POPC   GL164993  31.571  32.196   5.694
 4956POPC   GL264994  31.539  31.857   5.740
 4956POPC   C1A64995  31.475  32.316   6.120
 4956POPC   D2A64996  31.510  32.593   6.493
 4956POPC   C3A64997  31.364  32.363   6.854
 4956POPC   C4A64998  31.448  32.309   7.292
 4956POPC   C1B64999  31.628  31.810   6.177
 4956POPC   C2B65000  31.714  32.076   6.535
 4956POPC   C3B65001  31.679  31.957   6.957
 4956POPC   C4B65002  31.837  31.990   7.355
 4957POPC   NC365003   3.865  17.024   5.528
 4957POPC   PO465004   3.382  16.684   5.276
 4957POPC   GL165005   3.382  16.668   5.754
 4957POPC   GL265006   3.165  16.427   5.863
 4957POPC   C1A65007   3.598  16.828   6.181
 4957POPC   D2A65008   3.871  16.976   6.546
 4957POPC   C3A65009   3.679  16.953   6.962
 4957POPC   C4A65010   3.779  16.774   7.389
 4957POPC   C1B65011   3.072  16.769   6.172
 4957POPC   C2B65012   3.234  16.857   6.597
 4957POPC   C3B65013   3.292  16.616   6.985
 4957POPC   C4B65014   3.260  16.812   7.378
 4958POPC   NC365015  36.270  28.731   5.161
 4958POPC   PO465016  36.390  28.240   5.649
 4958POPC   GL165017  36.222  28.498   5.942
 4958POPC   GL265018  36.223  28.210   6.139
 4958POPC   C1A65019  36.501  28.620   6.275
 4958POPC   D2A65020  36.534  28.323   6.642
 4958POPC   C3A65021  36.320  28.381   7.045
 4958POPC   C4A65022  36.194  28.085   7.357
 4958POPC   C1B65023  35.997  28.433   6.416
 4958POPC   C2B65024  35.731  28.252   6.668
 4958POPC   C3B65025  35.808  28.220   7.046
 4958POPC   C4B65026  35.893  28.507   7.354
 4959POPC   NC365027  12.442  16.408   5.439
 4959POPC   PO465028  13.128  16.484   5.526
 4959POPC   GL165029  12.787  16.638   5.817
 4959POPC   GL265030  12.597  16.945   5.705
 4959POPC   C1A65031  12.806  16.688   6.283
 4959POPC   D2A65032  12.735  16.584   6.734
 4959POPC   C3A65033  13.006  16.679   7.107
 4959POPC   C4A65034  13.043  16.502   7.521
 4959POPC   C1B65035  12.565  17.102   6.138
 4959POPC   C2B65036  12.645  17.097   6.594
 4959POPC   C3B65037  12.623  16.992   7.043
 4959POPC   C4B65038  12.792  16.948   7.495
 4960POPC   NC365039  44.877   0.525   5.288
 4960POPC   PO465040  44.236   0.422   5.156
 4960POPC   GL165041  44.339   0.551   5.655
 4960POPC   GL265042  44.676   0.407   5.770
 4960POPC   C1A65043  44.422   0.642   6.134
 4960POPC   D2A65044  44.356   0.473   6.580
 4960POPC   C3A65045  44.538   0.424   7.020
 4960POPC   C4A65046  44.492   0.665   7.419
 4960POPC   C1B65047  44.682   0.208   6.235
 4960POPC   C2B65048  44.909   0.199   6.659
 4960POPC   C3B65049  44.820  44.991   7.070
 4960POPC   C4B65050  44.624   0.043   7.495
 4961POPC   NC365051   6.326  23.607   5.347
 4961POPC   PO465052   6.420  24.161   5.610
 4961POPC   GL165053   6.410  23.857   5.921
 4961POPC   GL265054   6.589  23.585   5.790
 4961POPC   C1A65055   6.264  23.746   6.328
 4961POPC   D2A65056   6.228  23.929   6.748
 4961POPC   C3A65057   6.421  23.725   7.093
 4961POPC   C4A65058   6.388  23.934   7.484
 4961POPC   C1B65059   6.592  23.361   6.198
 4961POPC   C2B65060   6.655  23.529   6.632
 4961POPC   C3B65061   6.938  23.649   6.986
 4961POPC   C4B65062   6.830  23.645   7.438
 4962POPC   NC365063  22.648   9.906   5.524
 4962POPC   PO465064  23.229   9.572   5.388
 4962POPC   GL165065  23.172   9.732   5.824
 4962POPC   GL265066  22.996  10.035   5.930
 4962POPC   C1A65067  22.969   9.647   6.253
 4962POPC   D2A65068  22.832   9.737   6.682
 4962POPC   C3A65069  22.921   9.471   7.082
 4962POPC   C4A65070  22.997   9.417   7.566
 4962POPC   C1B65071  22.696  10.107   6.301
 4962POPC   C2B65072  22.702  10.221   6.759
 4962POPC   C3B65073  23.089  10.036   6.989
 4962POPC   C4B65074  23.114   9.864   7.386
 4963POPC   NC365075  39.020  42.394   5.456
 4963POPC   PO465076  39.632  42.443   5.707
 4963POPC   GL165077  39.276  42.343   5.900
 4963POPC   GL265078  39.089  42.045   5.829
 4963POPC   C1A65079  39.079  42.358   6.280
 4963POPC   D2A65080  38.994  42.481   6.672
 4963POPC   C3A65081  39.397  42.521   6.894
 4963POPC   C4A65082  39.184  42.625   7.260
 4963POPC   C1B65083  38.911  41.888   6.215
 4963POPC   C2B65084  39.109  41.941   6.610
 4963POPC   C3B65085  39.124  42.117   7.031
 4963POPC   C4B65086  38.902  41.956   7.386
 4964POPC   NC365087  36.893  18.729   5.501
 4964POPC   PO465088  37.404  19.233   5.550
 4964POPC   GL165089  37.012  19.181   5.732
 4964POPC   GL265090  37.092  19.451   5.913
 4964POPC   C1A65091  36.788  19.025   6.096
 4964POPC   D2A65092  36.898  19.003   6.526
 4964POPC   C3A65093  36.778  18.766   6.875
 4964POPC   C4A65094  36.988  18.803   7.244
 4964POPC   C1B65095  36.959  19.480   6.315
 4964POPC   C2B65096  37.216  19.414   6.651
 4964POPC   C3B65097  37.045  19.242   7.000
 4964POPC   C4B65098  36.625  19.180   7.180
 4965POPC   NC365099   1.547  35.351   5.377
 4965POPC   PO465100   0.855  35.541   5.413
 4965POPC   GL165101   1.167  35.505   5.730
 4965POPC   GL265102   1.197  35.139   5.711
 4965POPC   C1A65103   1.292  35.368   6.164
 4965POPC   D2A65104   1.328  35.557   6.595
 4965POPC   C3A65105   1.064  35.646   6.957
 4965POPC   C4A65106   1.380  35.519   7.232
 4965POPC   C1B65107   0.970  34.986   6.095
 4965POPC   C2B65108   0.965  35.180   6.530
 4965POPC   C3B65109   1.175  35.147   6.931
 4965POPC   C4B65110   1.059  35.022   7.362
 4966POPC   NC365111  16.888  29.132   5.438
 4966POPC   PO465112  16.255  29.315   5.260
 4966POPC   GL165113  16.451  29.230   5.703
 4966POPC   GL265114  16.770  29.391   5.850
 4966POPC   C1A65115  16.625  28.948   6.094
 4966POPC   D2A65116  16.799  28.767   6.496
 4966POPC   C3A65117  16.699  28.981   6.898
 4966POPC   C4A65118  16.844  29.105   7.301
 4966POPC   C1B65119  16.962  29.517   6.221
 4966POPC   C2B65120  16.762  29.552   6.599
 4966POPC   C3B65121  16.533  29.489   6.960
 4966POPC   C4B65122  16.664  29.585   7.347
 4967POPC   NC365123  37.820  21.426   5.378
 4967POPC   PO465124  37.309  20.974   5.534
 4967POPC   GL165125  37.711  21.102   5.781
 4967POPC   GL265126  37.831  21.462   5.881
 4967POPC   C1A65127  37.771  20.996   6.227
 4967POPC   D2A65128  37.466  20.972   6.582
 4967POPC   C3A65129  37.538  21.079   7.021
 4967POPC   C4A65130  37.432  21.491   7.158
 4967POPC   C1B65131  37.969  21.450   6.304
 4967POPC   C2B65132  37.848  21.339   6.709
 4967POPC   C3B65133  37.929  21.603   7.065
 4967POPC   C4B65134  37.764  21.790   7.434
 4968POPC   NC365135   2.148  41.516   5.361
 4968POPC   PO465136   1.762  41.982   5.605
 4968POPC   GL165137   2.106  41.753   5.842
 4968POPC   GL265138   2.010  41.414   5.839
 4968POPC   C1A65139   2.343  41.550   6.228
 4968POPC   D2A65140   2.387  41.592   6.703
 4968POPC   C3A65141   2.005  41.687   6.938
 4968POPC   C4A65142   2.025  41.959   7.271
 4968POPC   C1B65143   1.722  41.378   6.198
 4968POPC   C2B65144   1.733  41.248   6.647
 4968POPC   C3B65145   1.980  41.173   7.020
 4968POPC   C4B65146   2.349  41.385   7.189
 4969POPC   NC365147  33.775  22.110   5.431
 4969POPC   PO465148  34.390  21.804   5.401
 4969POPC   GL165149  34.097  21.766   5.746
 4969POPC   GL265150  33.744  21.778   5.828
 4969POPC   C1A65151  34.101  21.964   6.128
 4969POPC   D2A65152  33.838  21.943   6.445
 4969POPC   C3A65153  34.017  22.141   6.792
 4969POPC   C4A65154  33.924  22.396   7.149
 4969POPC   C1B65155  33.436  21.768   6.137
 4969POPC   C2B65156  33.348  21.905   6.564
 4969POPC   C3B65157  33.623  21.849   6.917
 4969POPC   C4B65158  33.587  21.910   7.364
 4970POPC   NC365159  36.850  11.859   5.526
 4970POPC   PO465160  37.304  12.478   5.439
 4970POPC   GL165161  37.043  12.332   5.816
 4970POPC   GL265162  36.731  12.372   5.781
 4970POPC   C1A65163  36.952  12.086   6.228
 4970POPC   D2A65164  37.066  11.896   6.599
 4970POPC   C3A65165  36.947  12.256   6.838
 4970POPC   C4A65166  36.917  12.212   7.265
 4970POPC   C1B65167  36.608  12.443   6.163
 4970POPC   C2B65168  36.509  12.298   6.547
 4970POPC   C3B65169  36.408  12.439   6.931
 4970POPC   C4B65170  36.422  12.252   7.296
 4971POPC   NC365171   9.346  17.737   5.206
 4971POPC   PO465172   9.994  17.791   5.274
 4971POPC   GL165173   9.751  17.760   5.698
 4971POPC   GL265174   9.459  17.536   5.730
 4971POPC   C1A65175   9.791  17.599   6.152
 4971POPC   D2A65176   9.580  17.607   6.568
 4971POPC   C3A65177   9.848  17.528   6.933
 4971POPC   C4A65178   9.843  17.754   7.325
 4971POPC   C1B65179   9.454  17.206   6.084
 4971POPC   C2B65180   9.627  17.104   6.496
 4971POPC   C3B65181   9.537  17.095   6.935
 4971POPC   C4B65182   9.912  17.059   7.138
 4972POPC   NC365183   7.804   8.168   5.481
 4972POPC   PO465184   8.405   8.446   5.368
 4972POPC   GL165185   8.276   8.151   5.723
 4972POPC   GL265186   7.953   8.134   5.958
 4972POPC   C1A65187   8.392   8.148   6.166
 4972POPC   D2A65188   8.074   8.159   6.518
 4972POPC   C3A65189   8.191   8.070   6.954
 4972POPC   C4A65190   8.291   8.214   7.376
 4972POPC   C1B65191   8.053   8.542   6.191
 4972POPC   C2B65192   7.905   8.637   6.635
 4972POPC   C3B65193   8.075   8.582   7.071
 4972POPC   C4B65194   7.993   8.592   7.544
 4973POPC   NC365195   9.085  43.261   5.196
 4973POPC   PO465196   9.739  42.995   5.324
 4973POPC   GL165197   9.832  42.887   5.775
 4973POPC   GL265198   9.539  42.706   5.853
 4973POPC   C1A65199   9.920  43.012   6.216
 4973POPC   D2A65200  10.133  43.217   6.599
 4973POPC   C3A65201   9.887  43.109   6.982
 4973POPC   C4A65202   9.552  43.311   7.227
 4973POPC   C1B65203   9.393  42.904   6.215
 4973POPC   C2B65204   9.559  42.835   6.602
 4973POPC   C3B65205   9.359  42.939   6.960
 4973POPC   C4B65206   9.503  42.754   7.341
 4974POPC   NC365207   0.795  21.466   5.208
 4974POPC   PO465208   1.375  21.337   5.496
 4974POPC   GL165209   1.201  21.294   5.904
 4974POPC   GL265210   0.901  21.523   5.877
 4974POPC   C1A65211   0.985  21.225   6.303
 4974POPC   D2A65212   1.043  21.346   6.715
 4974POPC   C3A65213   1.155  21.149   7.082
 4974POPC   C4A65214   1.357  21.486   7.296
 4974POPC   C1B65215   0.765  21.682   6.293
 4974POPC   C2B65216   0.614  21.628   6.702
 4974POPC   C3B65217   0.879  21.673   7.093
 4974POPC   C4B65218   1.015  21.876   7.478
 4975POPC   NC365219  28.707  41.155   5.398
 4975POPC   PO465220  28.342  40.589   5.424
 4975POPC   GL165221  28.336  40.916   5.773
 4975POPC   GL265222  28.578  41.163   5.879
 4975POPC   C1A65223  28.306  40.799   6.239
 4975POPC   D2A65224  28.539  40.701   6.630
 4975POPC   C3A65225  28.305  40.531   7.007
 4975POPC   C4A65226  28.127  40.743   7.398
 4975POPC   C1B65227  28.453  41.284   6.266
 4975POPC   C2B65228  28.274  41.162   6.637
 4975POPC   C3B65229  28.427  41.033   7.034
 4975POPC   C4B65230  28.522  41.220   7.408
 4976POPC   NC365231  30.156  11.780   5.368
 4976POPC   PO465232  29.887  12.389   5.179
 4976POPC   GL165233  29.927  12.173   5.598
 4976POPC   GL265234  29.727  12.394   5.756
 4976POPC   C1A65235  29.920  11.987   6.018
 4976POPC   D2A65236  30.039  12.103   6.460
 4976POPC   C3A65237  30.006  11.909   6.877
 4976POPC   C4A65238  29.669  11.919   7.187
 4976POPC   C1B65239  29.608  12.338   6.183
 4976POPC   C2B65240  29.734  12.536   6.542
 4976POPC   C3B65241  29.779  12.368   6.912
 4976POPC   C4B65242  30.017  12.314   7.245
 4977POPC   NC365243   3.631  42.738   5.374
 4977POPC   PO465244   3.314  42.085   5.328
 4977POPC   GL165245   3.375  42.325   5.684
 4977POPC   GL265246   3.567  42.070   5.865
 4977POPC   C1A65247   3.276  42.498   6.109
 4977POPC   D2A65248   3.285  42.532   6.552
 4977POPC   C3A65249   3.603  42.265   6.759
 4977POPC   C4A65250   3.575  42.104   7.190
 4977POPC   C1B65251   3.908  41.889   6.136
 4977POPC   C2B65252   4.044  41.855   6.575
 4977POPC   C3B65253   3.957  41.761   7.046
 4977POPC   C4B65254   3.933  41.914   7.500
 4978POPC   NC365255   0.311   4.695   5.618
 4978POPC   PO465256   0.100   4.043   5.386
 4978POPC   GL165257   0.333   4.025   5.815
 4978POPC   GL265258   0.613   4.281   5.817
 4978POPC   C1A65259   0.318   4.324   6.222
 4978POPC   D2A65260   0.529   4.415   6.615
 4978POPC   C3A65261   0.298   4.365   6.985
 4978POPC   C4A65262   0.270   3.990   7.212
 4978POPC   C1B65263   0.738   4.622   6.161
 4978POPC   C2B65264   0.889   4.776   6.573
 4978POPC   C3B65265   0.917   4.560   6.973
 4978POPC   C4B65266   0.691   4.387   7.306
 4979POPC   NC365267  15.933  14.670   5.342
 4979POPC   PO465268  16.165  14.063   5.384
 4979POPC   GL165269  15.999  14.267   5.752
 4979POPC   GL265270  16.177  14.030   5.984
 4979POPC   C1A65271  15.913  14.452   6.155
 4979POPC   D2A65272  16.133  14.327   6.543
 4979POPC   C3A65273  15.923  14.450   6.924
 4979POPC   C4A65274  16.108  14.665   7.259
 4979POPC   C1B65275  15.850  13.969   6.290
 4979POPC   C2B65276  15.606  14.243   6.578
 4979POPC   C3B65277  15.529  14.119   7.011
 4979POPC   C4B65278  15.761  14.265   7.392
 4980POPC   NC365279  37.244  26.640   4.959
 4980POPC   PO465280  36.690  26.540   5.437
 4980POPC   GL165281  36.854  26.642   5.857
 4980POPC   GL265282  37.125  26.880   5.788
 4980POPC   C1A65283  36.880  26.870   6.272
 4980POPC   D2A65284  36.914  27.044   6.694
 4980POPC   C3A65285  36.563  26.900   6.926
 4980POPC   C4A65286  36.467  26.821   7.351
 4980POPC   C1B65287  37.308  26.629   6.135
 4980POPC   C2B65288  37.285  26.582   6.588
 4980POPC   C3B65289  37.064  26.634   6.989
 4980POPC   C4B65290  36.953  27.014   7.234
 4981POPC   NC365291  44.949   2.312   5.497
 4981POPC   PO465292  44.515   1.821   5.582
 4981POPC   GL165293  44.853   1.899   5.829
 4981POPC   GL265294  44.678   2.200   5.913
 4981POPC   C1A65295   0.019   1.994   6.238
 4981POPC   D2A65296  44.961   1.844   6.662
 4981POPC   C3A65297  44.898   2.153   6.987
 4981POPC   C4A65298  45.000   2.069   7.413
 4981POPC   C1B65299  44.524   2.153   6.308
 4981POPC   C2B65300  44.408   2.390   6.646
 4981POPC   C3B65301  44.368   2.259   7.051
 4981POPC   C4B65302  44.618   2.395   7.373
 4982POPC   NC365303  34.791  20.750   5.334
 4982POPC   PO465304  34.393  20.192   5.494
 4982POPC   GL165305  34.660  20.481   5.766
 4982POPC   GL265306  34.605  20.855   5.797
 4982POPC   C1A65307  34.640  20.571   6.219
 4982POPC   D2A65308  34.462  20.466   6.600
 4982POPC   C3A65309  34.741  20.423   6.940
 4982POPC   C4A65310  34.469  20.379   7.264
 4982POPC   C1B65311  34.357  21.044   6.150
 4982POPC   C2B65312  34.274  20.996   6.578
 4982POPC   C3B65313  34.434  20.851   6.953
 4982POPC   C4B65314  34.641  20.838   7.316
 4983POPC   NC365315  36.917  21.149   5.707
 4983POPC   PO465316  37.324  21.497   5.296
 4983POPC   GL165317  37.322  21.465   5.767
 4983POPC   GL265318  37.022  21.567   5.981
 4983POPC   C1A65319  37.423  21.353   6.204
 4983POPC   D2A65320  37.336  21.500   6.625
 4983POPC   C3A65321  37.041  21.290   6.896
 4983POPC   C4A65322  36.927  21.491   7.299
 4983POPC   C1B65323  36.940  21.242   6.347
 4983POPC   C2B65324  36.609  21.143   6.641
 4983POPC   C3B65325  36.538  21.463   6.923
 4983POPC   C4B65326  36.406  21.446   7.336
 4984POPC   NC365327  16.315  30.516   5.454
 4984POPC   PO465328  17.023  30.324   5.484
 4984POPC   GL165329  16.958  30.591   5.872
 4984POPC   GL265330  16.591  30.649   5.888
 4984POPC   C1A65331  16.866  30.664   6.327
 4984POPC   D2A65332  16.762  30.582   6.748
 4984POPC   C3A65333  16.830  30.941   7.010
 4984POPC   C4A65334  16.788  31.037   7.466
 4984POPC   C1B65335  16.400  30.889   6.265
 4984POPC   C2B65336  16.397  30.965   6.734
 4984POPC   C3B65337  16.358  30.908   7.164
 4984POPC   C4B65338  16.615  30.552   7.259
 4985POPC   NC365339   6.782  42.089   4.974
 4985POPC   PO465340   6.842  42.773   5.265
 4985POPC   GL165341   6.817  42.536   5.679
 4985POPC   GL265342   6.744  42.133   5.672
 4985POPC   C1A65343   6.769  42.666   6.132
 4985POPC   D2A65344   6.518  42.626   6.506
 4985POPC   C3A65345   6.800  42.560   6.870
 4985POPC   C4A65346   6.739  42.520   7.312
 4985POPC   C1B65347   6.828  42.155   6.142
 4985POPC   C2B65348   6.612  42.134   6.568
 4985POPC   C3B65349   6.613  42.082   7.008
 4985POPC   C4B65350   7.030  42.108   7.159
 4986POPC   NC365351  31.135   0.422   5.277
 4986POPC   PO465352  30.419   0.211   5.178
 4986POPC   GL165353  30.695   0.313   5.514
 4986POPC   GL265354  30.750   0.039   5.715
 4986POPC   C1A65355  30.864   0.571   5.887
 4986POPC   D2A65356  30.760   0.670   6.346
 4986POPC   C3A65357  30.983   0.519   6.739
 4986POPC   C4A65358  30.900   0.598   7.198
 4986POPC   C1B65359  30.542   0.239   6.081
 4986POPC   C2B65360  30.639   0.197   6.521
 4986POPC   C3B65361  30.545   0.300   6.933
 4986POPC   C4B65362  30.613   0.148   7.332
 4987POPC   NC365363  32.356  21.606   5.349
 4987POPC   PO465364  31.774  21.272   5.295
 4987POPC   GL165365  31.981  21.149   5.725
 4987POPC   GL265366  32.333  20.991   5.699
 4987POPC   C1A65367  31.970  21.149   6.230
 4987POPC   D2A65368  32.150  21.110   6.691
 4987POPC   C3A65369  32.060  21.385   7.073
 4987POPC   C4A65370  31.991  21.794   7.299
 4987POPC   C1B65371  32.496  21.198   6.099
 4987POPC   C2B65372  32.664  21.174   6.550
 4987POPC   C3B65373  32.551  21.196   7.035
 4987POPC   C4B65374  32.375  21.057   7.480
 4988POPC   NC365375  37.126  30.353   5.416
 4988POPC   PO465376  36.575  30.798   5.380
 4988POPC   GL165377  36.695  30.480   5.689
 4988POPC   GL265378  36.958  30.707   5.777
 4988POPC   C1A65379  36.857  30.363   6.114
 4988POPC   D2A65380  37.111  30.557   6.435
 4988POPC   C3A65381  36.939  30.633   6.844
 4988POPC   C4A65382  37.064  30.756   7.256
 4988POPC   C1B65383  36.728  30.892   6.116
 4988POPC   C2B65384  36.407  31.012   6.427
 4988POPC   C3B65385  36.518  30.960   6.860
 4988POPC   C4B65386  36.651  31.023   7.260
 4989POPC   NC365387   1.874  17.826   5.406
 4989POPC   PO465388   2.369  17.324   5.498
 4989POPC   GL165389   2.194  17.547   5.855
 4989POPC   GL265390   1.880  17.388   5.882
 4989POPC   C1A65391   2.062  17.544   6.324
 4989POPC   D2A65392   1.817  17.486   6.719
 4989POPC   C3A65393   2.120  17.437   7.070
 4989POPC   C4A65394   2.244  17.511   7.503
 4989POPC   C1B65395   1.689  17.181   6.263
 4989POPC   C2B65396   1.441  17.121   6.658
 4989POPC   C3B65397   1.462  17.297   7.080
 4989POPC   C4B65398   1.750  17.326   7.441
 4990POPC   NC365399  16.982  31.487   5.700
 4990POPC   PO465400  17.549  31.298   5.349
 4990POPC   GL165401  17.534  31.528   5.745
 4990POPC   GL265402  17.573  31.899   5.672
 4990POPC   C1A65403  17.649  31.490   6.195
 4990POPC   D2A65404  17.579  31.322   6.622
 4990POPC   C3A65405  17.555  31.460   7.061
 4990POPC   C4A65406  17.566  31.320   7.494
 4990POPC   C1B65407  17.363  31.947   6.081
 4990POPC   C2B65408  17.283  31.731   6.484
 4990POPC   C3B65409  17.202  31.842   6.902
 4990POPC   C4B65410  17.275  31.913   7.313
 4991POPC   NC365411  11.434  18.494   5.388
 4991POPC   PO465412  10.843  18.293   5.261
 4991POPC   GL165413  10.917  18.412   5.676
 4991POPC   GL265414  10.983  18.776   5.760
 4991POPC   C1A65415  11.180  18.223   6.007
 4991POPC   D2A65416  11.272  18.356   6.437
 4991POPC   C3A65417  11.181  18.121   6.804
 4991POPC   C4A65418  11.440  18.091   7.169
 4991POPC   C1B65419  10.844  18.565   6.167
 4991POPC   C2B65420  10.787  18.422   6.609
 4991POPC   C3B65421  10.981  18.557   6.985
 4991POPC   C4B65422  11.280  18.558   7.296
 4992POPC   NC365423  42.176  24.020   5.417
 4992POPC   PO465424  42.395  23.395   5.604
 4992POPC   GL165425  42.088  23.521   5.907
 4992POPC   GL265426  42.178  23.850   5.896
 4992POPC   C1A65427  42.104  23.565   6.349
 4992POPC   D2A65428  42.478  23.747   6.523
 4992POPC   C3A65429  42.517  23.574   6.902
 4992POPC   C4A65430  42.247  23.488   7.223
 4992POPC   C1B65431  41.927  24.029   6.187
 4992POPC   C2B65432  42.057  24.026   6.613
 4992POPC   C3B65433  42.150  23.955   7.063
 4992POPC   C4B65434  41.957  23.842   7.498
 4993POPC   NC365435  33.007   6.270   5.354
 4993POPC   PO465436  32.816   5.774   5.622
 4993POPC   GL165437  32.997   6.083   5.882
 4993POPC   GL265438  33.330   6.059   5.698
 4993POPC   C1A65439  32.903   5.971   6.337
 4993POPC   D2A65440  32.797   5.625   6.657
 4993POPC   C3A65441  32.803   5.706   7.116
 4993POPC   C4A65442  32.927   6.128   7.184
 4993POPC   C1B65443  33.438   6.029   6.159
 4993POPC   C2B65444  33.325   6.059   6.610
 4993POPC   C3B65445  33.287   5.798   6.976
 4993POPC   C4B65446  33.524   5.839   7.367
 4994POPC   NC365447  39.761  28.625   5.446
 4994POPC   PO465448  40.290  28.152   5.365
 4994POPC   GL165449  40.043  28.140   5.739
 4994POPC   GL265450  40.285  28.362   5.895
 4994POPC   C1A65451  39.918  28.157   6.208
 4994POPC   D2A65452  39.834  27.993   6.666
 4994POPC   C3A65453  39.903  28.285   7.044
 4994POPC   C4A65454  39.732  28.652   7.264
 4994POPC   C1B65455  40.368  28.745   6.158
 4994POPC   C2B65456  40.373  28.917   6.602
 4994POPC   C3B65457  40.305  28.674   7.009
 4994POPC   C4B65458  40.248  28.463   7.434
 4995POPC   NC365459  15.012  29.444   5.576
 4995POPC   PO465460  15.027  30.125   5.299
 4995POPC   GL165461  15.085  29.934   5.710
 4995POPC   GL265462  15.399  29.717   5.743
 4995POPC   C1A65463  15.219  29.998   6.154
 4995POPC   D2A65464  15.356  30.188   6.549
 4995POPC   C3A65465  15.042  30.152   6.891
 4995POPC   C4A65466  14.928  29.822   7.172
 4995POPC   C1B65467  15.557  29.606   6.138
 4995POPC   C2B65468  15.393  29.677   6.556
 4995POPC   C3B65469  15.420  29.811   6.971
 4995POPC   C4B65470  15.574  29.603   7.314
 4996POPC   NC365471  17.531  32.742   5.395
 4996POPC   PO465472  17.525  33.405   5.160
 4996POPC   GL165473  17.331  33.204   5.591
 4996POPC   GL265474  17.474  33.351   5.893
 4996POPC   C1A65475  17.308  32.903   6.007
 4996POPC   D2A65476  17.323  32.892   6.452
 4996POPC   C3A65477  17.614  32.809   6.782
 4996POPC   C4A65478  17.398  32.917   7.168
 4996POPC   C1B65479  17.638  33.303   6.282
 4996POPC   C2B65480  17.840  33.262   6.674
 4996POPC   C3B65481  17.708  33.354   7.069
 4996POPC   C4B65482  17.777  33.103   7.431
 4997POPC   NC365483  37.955  43.643   5.420
 4997POPC   PO465484  37.474  43.895   5.397
 4997POPC   GL165485  37.590  43.617   5.795
 4997POPC   GL265486  37.928  43.468   5.946
 4997POPC   C1A65487  37.547  43.658   6.268
 4997POPC   D2A65488  37.785  43.773   6.656
 4997POPC   C3A65489  37.623  43.741   7.094
 4997POPC   C4A65490  37.782  43.856   7.527
 4997POPC   C1B65491  37.909  43.314   6.422
 4997POPC   C2B65492  37.903  43.332   6.910
 4997POPC   C3B65493  38.094  43.558   7.250
 4997POPC   C4B65494  38.152  43.524   7.697
 4998POPC   NC365495   2.514  15.028   5.446
 4998POPC   PO465496   2.709  14.278   5.494
 4998POPC   GL165497   2.770  14.408   5.918
 4998POPC   GL265498   3.111  14.255   6.023
 4998POPC   C1A65499   2.923  14.661   6.282
 4998POPC   D2A65500   3.084  14.590   6.712
 4998POPC   C3A65501   2.864  14.536   7.160
 4998POPC   C4A65502   2.819  14.546   7.651
 4998POPC   C1B65503   2.816  14.155   6.352
 4998POPC   C2B65504   2.668  14.274   6.739
 4998POPC   C3B65505   2.605  14.060   7.111
 4998POPC   C4B65506   2.860  14.075   7.422
 4999POPC   NC365507  32.463  43.255   5.349
 4999POPC   PO465508  31.800  43.279   5.295
 4999POPC   GL165509  32.011  43.183   5.705
 4999POPC   GL265510  32.348  43.006   5.770
 4999POPC   C1A65511  32.097  43.289   6.144
 4999POPC   D2A65512  32.357  43.367   6.528
 4999POPC   C3A65513  32.158  43.225   6.887
 4999POPC   C4A65514  31.970  42.981   7.212
 4999POPC   C1B65515  32.551  43.045   6.185
 4999POPC   C2B65516  32.626  42.964   6.639
 4999POPC   C3B65517  32.610  42.956   7.068
 4999POPC   C4B65518  32.410  43.206   7.325
 5000POPC   NC365519  35.843  19.739   5.470
 5000POPC   PO465520  35.334  20.119   5.555
 5000POPC   GL165521  35.441  19.715   5.803
 5000POPC   GL265522  35.249  19.382   5.806
 5000POPC   C1A65523  35.636  19.512   6.168
 5000POPC   D2A65524  35.529  19.588   6.597
 5000POPC   C3A65525  35.584  20.009   6.732
 5000POPC   C4A65526  35.603  20.156   7.132
 5000POPC   C1B65527  35.080  19.615   6.191
 5000POPC   C2B65528  34.813  19.587   6.562
 5000POPC   C3B65529  35.004  19.488   6.950
 5000POPC   C4B65530  35.051  19.596   7.380
 5001POPC   NC365531  31.208  28.190   5.524
 5001POPC   PO465532  31.374  28.744   5.485
 5001POPC   GL165533  31.267  28.728   5.914
 5001POPC   GL265534  31.332  28.376   5.979
 5001POPC   C1A65535  31.187  28.681   6.369
 5001POPC   D2A65536  31.220  28.383   6.700
 5001POPC   C3A65537  31.338  28.549   7.107
 5001POPC   C4A65538  31.242  28.712   7.536
 5001POPC   C1B65539  31.663  28.533   6.232
 5001POPC   C2B65540  31.740  28.417   6.648
 5001POPC   C3B65541  31.861  28.512   7.058
 5001POPC   C4B65542  31.698  28.457   7.489
 5002POPC   NC365543   4.682  32.105   5.307
 5002POPC   PO465544   5.223  32.369   5.319
 5002POPC   GL165545   5.222  32.322   5.773
 5002POPC   GL265546   5.511  32.108   5.871
 5002POPC   C1A65547   4.913  32.279   6.132
 5002POPC   D2A65548   4.851  32.107   6.564
 5002POPC   C3A65549   4.788  32.411   6.905
 5002POPC   C4A65550   5.008  32.565   7.255
 5002POPC   C1B65551   5.288  31.935   6.259
 5002POPC   C2B65552   5.322  31.903   6.720
 5002POPC   C3B65553   5.182  32.103   7.109
 5002POPC   C4B65554   4.759  32.060   7.296
 5003POPC   NC365555   2.582  19.400   5.392
 5003POPC   PO465556   2.914  18.830   5.253
 5003POPC   GL165557   2.767  19.009   5.654
 5003POPC   GL265558   2.965  19.300   5.789
 5003POPC   C1A65559   2.529  19.112   6.052
 5003POPC   D2A65560   2.687  19.163   6.467
 5003POPC   C3A65561   2.445  19.305   6.802
 5003POPC   C4A65562   2.478  19.072   7.149
 5003POPC   C1B65563   3.001  18.919   6.089
 5003POPC   C2B65564   3.154  18.749   6.463
 5003POPC   C3B65565   2.915  18.793   6.835
 5003POPC   C4B65566   2.919  18.855   7.292
 5004POPC   NC365567  20.812  24.548   5.548
 5004POPC   PO465568  20.355  24.193   5.243
 5004POPC   GL165569  20.412  24.200   5.691
 5004POPC   GL265570  20.431  24.528   5.864
 5004POPC   C1A65571  20.469  24.119   6.139
 5004POPC   D2A65572  20.434  24.396   6.527
 5004POPC   C3A65573  20.600  24.273   6.923
 5004POPC   C4A65574  20.880  24.459   7.237
 5004POPC   C1B65575  20.496  24.792   6.200
 5004POPC   C2B65576  20.351  24.915   6.611
 5004POPC   C3B65577  20.549  24.778   7.000
 5004POPC   C4B65578  20.613  24.820   7.473
 5005POPC   NC365579  24.336  21.651   5.029
 5005POPC   PO465580  24.766  21.224   5.178
 5005POPC   GL165581  24.641  21.204   5.659
 5005POPC   GL265582  24.330  21.419   5.800
 5005POPC   C1A65583  24.670  21.232   6.144
 5005POPC   D2A65584  24.477  21.267   6.570
 5005POPC   C3A65585  24.664  21.471   6.928
 5005POPC   C4A65586  24.761  21.413   7.369
 5005POPC   C1B65587  24.195  21.553   6.250
 5005POPC   C2B65588  24.114  21.600   6.731
 5005POPC   C3B65589  24.232  21.575   7.185
 5005POPC   C4B65590  24.442  21.840   7.489
 5006POPC   NC365591  27.790  38.690   5.519
 5006POPC   PO465592  27.192  38.332   5.500
 5006POPC   GL165593  27.534  38.327   5.840
 5006POPC   GL265594  27.885  38.405   5.934
 5006POPC   C1A65595  27.436  38.444   6.276
 5006POPC   D2A65596  27.146  38.544   6.644
 5006POPC   C3A65597  27.359  38.461   7.033
 5006POPC   C4A65598  27.633  38.078   7.094
 5006POPC   C1B65599  27.826  38.761   6.244
 5006POPC   C2B65600  27.633  38.749   6.660
 5006POPC   C3B65601  27.782  38.861   7.067
 5006POPC   C4B65602  27.905  38.612   7.424
 5007POPC   NC365603  17.074  40.479   5.280
 5007POPC   PO465604  16.504  40.890   5.303
 5007POPC   GL165605  16.773  40.770   5.669
 5007POPC   GL265606  16.541  40.537   5.832
 5007POPC   C1A65607  16.943  40.797   6.126
 5007POPC   D2A65608  17.108  40.668   6.575
 5007POPC   C3A65609  16.836  40.830   6.937
 5007POPC   C4A65610  16.374  40.876   7.067
 5007POPC   C1B65611  16.562  40.324   6.238
 5007POPC   C2B65612  16.663  40.425   6.679
 5007POPC   C3B65613  16.471  40.347   7.108
 5007POPC   C4B65614  16.202  40.545   7.455
 5008POPC   NC365615  16.502  12.230   5.556
 5008POPC   PO465616  16.957  11.851   5.319
 5008POPC   GL165617  16.808  11.853   5.751
 5008POPC   GL265618  16.445  11.762   5.787
 5008POPC   C1A65619  16.950  12.019   6.160
 5008POPC   D2A65620  17.053  12.245   6.542
 5008POPC   C3A65621  16.829  12.171   6.910
 5008POPC   C4A65622  17.006  12.050   7.274
 5008POPC   C1B65623  16.437  12.032   6.173
 5008POPC   C2B65624  16.280  12.037   6.580
 5008POPC   C3B65625  16.313  12.215   6.986
 5008POPC   C4B65626  16.437  12.024   7.388
 5009POPC   NC365627  43.520  21.648   5.592
 5009POPC   PO465628  42.885  21.370   5.338
 5009POPC   GL165629  43.053  21.499   5.748
 5009POPC   GL265630  43.290  21.268   5.870
 5009POPC   C1A65631  43.251  21.659   6.180
 5009POPC   D2A65632  43.508  21.508   6.534
 5009POPC   C3A65633  43.283  21.376   6.894
 5009POPC   C4A65634  43.086  21.501   7.281
 5009POPC   C1B65635  43.153  21.154   6.256
 5009POPC   C2B65636  43.306  20.956   6.585
 5009POPC   C3B65637  43.123  20.850   6.946
 5009POPC   C4B65638  43.016  20.934   7.380
 5010POPC   NC365639  23.654  25.815   5.095
 5010POPC   PO465640  24.214  25.944   5.498
 5010POPC   GL165641  24.107  26.097   5.896
 5010POPC   GL265642  23.855  26.351   5.776
 5010POPC   C1A65643  24.091  26.071   6.363
 5010POPC   D2A65644  23.925  26.222   6.749
 5010POPC   C3A65645  23.998  25.870   7.017
 5010POPC   C4A65646  23.769  25.634   7.281
 5010POPC   C1B65647  23.638  26.192   6.163
 5010POPC   C2B65648  23.480  26.004   6.570
 5010POPC   C3B65649  23.403  25.907   7.018
 5010POPC   C4B65650  23.459  26.153   7.386
 5011POPC   NC365651  36.560  28.684   5.617
 5011POPC   PO465652  36.137  29.166   5.366
 5011POPC   GL165653  36.223  29.022   5.819
 5011POPC   GL265654  36.510  29.171   5.946
 5011POPC   C1A65655  36.202  29.042   6.308
 5011POPC   D2A65656  36.296  28.775   6.696
 5011POPC   C3A65657  36.090  28.880   7.027
 5011POPC   C4A65658  35.901  29.302   7.029
 5011POPC   C1B65659  36.679  29.119   6.394
 5011POPC   C2B65660  36.372  29.278   6.729
 5011POPC   C3B65661  36.423  29.239   7.129
 5011POPC   C4B65662  36.617  28.816   7.137
 5012POPC   NC365663  29.856   8.035   5.395
 5012POPC   PO465664  30.132   8.673   5.464
 5012POPC   GL165665  30.059   8.356   5.752
 5012POPC   GL265666  29.719   8.326   5.788
 5012POPC   C1A65667  30.039   8.140   6.141
 5012POPC   D2A65668  30.153   8.236   6.558
 5012POPC   C3A65669  29.908   8.092   6.886
 5012POPC   C4A65670  30.090   8.109   7.260
 5012POPC   C1B65671  29.640   8.477   6.193
 5012POPC   C2B65672  29.632   8.460   6.642
 5012POPC   C3B65673  29.703   8.528   7.091
 5012POPC   C4B65674  29.719   8.330   7.514
 5013POPC   NC365675  34.705  37.371   5.600
 5013POPC   PO465676  34.477  37.953   5.380
 5013POPC   GL165677  34.481  37.780   5.818
 5013POPC   GL265678  34.833  37.824   5.867
 5013POPC   C1A65679  34.543  37.578   6.254
 5013POPC   D2A65680  34.733  37.630   6.696
 5013POPC   C3A65681  34.421  37.587   7.036
 5013POPC   C4A65682  34.320  37.192   7.208
 5013POPC   C1B65683  34.920  37.944   6.297
 5013POPC   C2B65684  35.169  37.904   6.678
 5013POPC   C3B65685  35.042  37.914   7.105
 5013POPC   C4B65686  34.611  38.028   7.204
 5014POPC   NC365687  11.893  43.396   5.535
 5014POPC   PO465688  12.275  42.839   5.541
 5014POPC   GL165689  12.102  43.018   5.833
 5014POPC   GL265690  12.359  43.243   5.922
 5014POPC   C1A65691  12.062  42.848   6.223
 5014POPC   D2A65692  12.332  42.791   6.545
 5014POPC   C3A65693  12.179  43.073   6.837
 5014POPC   C4A65694  12.129  43.133   7.253
 5014POPC   C1B65695  12.016  43.392   6.181
 5014POPC   C2B65696  11.844  43.489   6.565
 5014POPC   C3B65697  11.984  43.650   6.958
 5014POPC   C4B65698  11.829  43.573   7.347
 5015POPC   NC365699  36.727  32.779   5.523
 5015POPC   PO465700  37.176  33.230   5.338
 5015POPC   GL165701  37.048  33.143   5.770
 5015POPC   GL265702  36.688  33.209   5.867
 5015POPC   C1A65703  37.050  33.325   6.201
 5015POPC   D2A65704  36.857  33.405   6.607
 5015POPC   C3A65705  37.104  33.217   6.937
 5015POPC   C4A65706  37.172  32.780   7.033
 5015POPC   C1B65707  36.725  32.876   6.187
 5015POPC   C2B65708  36.838  32.859   6.620
 5015POPC   C3B65709  36.660  32.984   7.011
 5015POPC   C4B65710  36.614  32.889   7.428
 5016POPC   NC365711   6.286  33.928   5.001
 5016POPC   PO465712   6.771  33.583   5.476
 5016POPC   GL165713   6.565  33.746   5.828
 5016POPC   GL265714   6.742  34.052   5.884
 5016POPC   C1A65715   6.427  33.893   6.241
 5016POPC   D2A65716   6.614  33.942   6.635
 5016POPC   C3A65717   6.484  33.736   7.004
 5016POPC   C4A65718   6.610  33.370   7.199
 5016POPC   C1B65719   6.960  33.952   6.246
 5016POPC   C2B65720   7.124  34.060   6.632
 5016POPC   C3B65721   6.929  34.110   7.001
 5016POPC   C4B65722   7.133  33.970   7.336
 5017POPC   NC365723  19.237  34.578   5.367
 5017POPC   PO465724  18.558  34.721   5.357
 5017POPC   GL165725  18.851  34.699   5.679
 5017POPC   GL265726  18.930  34.356   5.773
 5017POPC   C1A65727  19.062  34.758   6.062
 5017POPC   D2A65728  18.890  34.777   6.437
 5017POPC   C3A65729  18.949  34.753   6.862
 5017POPC   C4A65730  19.124  34.556   7.221
 5017POPC   C1B65731  19.064  34.242   6.228
 5017POPC   C2B65732  19.151  34.328   6.675
 5017POPC   C3B65733  19.473  34.247   7.001
 5017POPC   C4B65734  19.508  34.312   7.447
 5018POPC   NC365735  19.394  43.289   5.478
 5018POPC   PO465736  19.175  42.681   5.318
 5018POPC   GL165737  19.072  42.881   5.707
 5018POPC   GL265738  19.405  42.907   5.819
 5018POPC   C1A65739  19.039  43.174   6.097
 5018POPC   D2A65740  19.096  43.309   6.541
 5018POPC   C3A65741  19.012  43.019   6.917
 5018POPC   C4A65742  18.917  42.982   7.374
 5018POPC   C1B65743  19.552  43.077   6.205
 5018POPC   C2B65744  19.509  42.997   6.612
 5018POPC   C3B65745  19.458  43.276   6.923
 5018POPC   C4B65746  19.418  43.091   7.291
 5019POPC   NC365747  43.212  28.113   5.349
 5019POPC   PO465748  43.548  28.736   5.487
 5019POPC   GL165749  43.189  28.536   5.731
 5019POPC   GL265750  43.081  28.823   5.890
 5019POPC   C1A65751  43.270  28.220   6.114
 5019POPC   D2A65752  43.162  28.228   6.573
 5019POPC   C3A65753  43.384  28.271   6.986
 5019POPC   C4A65754  43.158  28.342   7.372
 5019POPC   C1B65755  43.020  28.645   6.269
 5019POPC   C2B65756  43.253  28.749   6.613
 5019POPC   C3B65757  43.149  28.755   7.026
 5019POPC   C4B65758  42.782  28.602   7.146
 5020POPC   NC365759   0.177   9.460   5.340
 5020POPC   PO465760  44.750   9.794   5.353
 5020POPC   GL165761  44.856   9.763   5.801
 5020POPC   GL265762  44.565   9.582   5.929
 5020POPC   C1A65763  44.821   9.852   6.281
 5020POPC   D2A65764  44.561   9.656   6.654
 5020POPC   C3A65765  44.609   9.743   7.119
 5020POPC   C4A65766  44.780   9.825   7.531
 5020POPC   C1B65767  44.770   9.337   6.284
 5020POPC   C2B65768  44.820   9.198   6.735
 5020POPC   C3B65769  44.792   9.244   7.194
 5020POPC   C4B65770  44.488   9.388   7.510
 5021POPC   NC365771   2.958  22.786   5.441
 5021POPC   PO465772   2.645  23.340   5.600
 5021POPC   GL165773   2.748  22.981   5.881
 5021POPC   GL265774   2.428  22.991   6.018
 5021POPC   C1A65775   2.777  22.747   6.291
 5021POPC   D2A65776   2.674  22.909   6.710
 5021POPC   C3A65777   2.979  23.038   7.011
 5021POPC   C4A65778   2.897  22.935   7.440
 5021POPC   C1B65779   2.689  23.262   6.321
 5021POPC   C2B65780   2.702  23.417   6.767
 5021POPC   C3B65781   2.565  23.271   7.208
 5021POPC   C4B65782   2.580  23.248   7.690
 5022POPC   NC365783  38.547   5.476   5.211
 5022POPC   PO465784  38.370   4.887   5.463
 5022POPC   GL165785  38.607   5.044   5.793
 5022POPC   GL265786  38.643   5.384   5.714
 5022POPC   C1A65787  38.729   5.257   6.205
 5022POPC   D2A65788  38.899   5.244   6.630
 5022POPC   C3A65789  38.615   5.155   6.973
 5022POPC   C4A65790  38.302   4.928   7.232
 5022POPC   C1B65791  38.261   5.316   6.065
 5022POPC   C2B65792  38.339   5.235   6.542
 5022POPC   C3B65793  38.111   5.305   6.959
 5022POPC   C4B65794  38.101   5.367   7.448
 5023POPC   NC365795  37.525  34.370   5.292
 5023POPC   PO465796  38.001  34.812   5.267
 5023POPC   GL165797  37.637  34.720   5.647
 5023POPC   GL265798  37.441  34.397   5.798
 5023POPC   C1A65799  37.582  34.782   6.115
 5023POPC   D2A65800  37.634  34.782   6.578
 5023POPC   C3A65801  37.440  34.980   6.933
 5023POPC   C4A65802  37.516  34.776   7.314
 5023POPC   C1B65803  37.457  34.170   6.212
 5023POPC   C2B65804  37.642  34.098   6.639
 5023POPC   C3B65805  37.605  34.319   7.050
 5023POPC   C4B65806  37.732  34.324   7.500
 5024POPC   NC365807  22.247  22.060   5.159
 5024POPC   PO465808  22.284  21.461   5.507
 5024POPC   GL165809  22.128  21.616   5.889
 5024POPC   GL265810  22.450  21.721   6.010
 5024POPC   C1A65811  22.118  21.590   6.368
 5024POPC   D2A65812  22.299  21.674   6.782
 5024POPC   C3A65813  22.002  21.549   7.092
 5024POPC   C4A65814  22.091  21.459   7.523
 5024POPC   C1B65815  22.615  21.522   6.394
 5024POPC   C2B65816  22.669  21.334   6.789
 5024POPC   C3B65817  22.480  21.309   7.190
 5024POPC   C4B65818  22.598  21.419   7.612
 5025POPC   NC365819  16.535  13.785   5.360
 5025POPC   PO465820  17.075  13.355   5.427
 5025POPC   GL165821  16.854  13.546   5.754
 5025POPC   GL265822  17.080  13.787   5.838
 5025POPC   C1A65823  16.940  13.407   6.189
 5025POPC   D2A65824  17.224  13.248   6.480
 5025POPC   C3A65825  17.126  13.385   6.872
 5025POPC   C4A65826  17.018  13.636   7.212
 5025POPC   C1B65827  16.972  13.911   6.257
 5025POPC   C2B65828  16.790  13.753   6.663
 5025POPC   C3B65829  16.544  13.739   7.061
 5025POPC   C4B65830  16.507  13.787   7.548
 5026POPC   NC365831  16.670  13.177   5.342
 5026POPC   PO465832  16.840  12.506   5.407
 5026POPC   GL165833  16.730  12.687   5.793
 5026POPC   GL265834  16.852  13.028   5.792
 5026POPC   C1A65835  16.831  12.593   6.233
 5026POPC   D2A65836  16.579  12.505   6.613
 5026POPC   C3A65837  16.680  12.695   7.008
 5026POPC   C4A65838  16.719  12.454   7.378
 5026POPC   C1B65839  16.578  13.052   6.137
 5026POPC   C2B65840  16.753  13.025   6.541
 5026POPC   C3B65841  16.619  13.226   6.896
 5026POPC   C4B65842  16.831  13.170   7.250
 5027POPC   NC365843  40.514  10.021   5.444
 5027POPC   PO465844  40.656   9.414   5.647
 5027POPC   GL165845  40.655   9.761   5.898
 5027POPC   GL265846  40.338   9.744   5.905
 5027POPC   C1A65847  40.826   9.739   6.311
 5027POPC   D2A65848  40.950   9.524   6.687
 5027POPC   C3A65849  40.875   9.721   7.068
 5027POPC   C4A65850  41.103   9.790   7.459
 5027POPC   C1B65851  40.321   9.558   6.311
 5027POPC   C2B65852  40.282   9.667   6.732
 5027POPC   C3B65853  40.369   9.877   7.097
 5027POPC   C4B65854  40.571   9.700   7.472
 5028POPC   NC365855   6.778  20.307   5.318
 5028POPC   PO465856   6.347  20.842   5.299
 5028POPC   GL165857   6.608  20.842   5.733
 5028POPC   GL265858   6.898  20.554   5.767
 5028POPC   C1A65859   6.640  20.681   6.186
 5028POPC   D2A65860   6.599  20.428   6.551
 5028POPC   C3A65861   6.603  20.661   6.949
 5028POPC   C4A65862   6.368  20.515   7.315
 5028POPC   C1B65863   6.941  20.260   6.152
 5028POPC   C2B65864   7.084  20.216   6.583
 5028POPC   C3B65865   6.813  20.182   6.957
 5028POPC   C4B65866   6.724  20.145   7.377
 5029POPC   NC365867   4.259   6.117   5.466
 5029POPC   PO465868   4.642   5.629   5.300
 5029POPC   GL165869   4.445   5.557   5.708
 5029POPC   GL265870   4.109   5.707   5.731
 5029POPC   C1A65871   4.328   5.533   6.159
 5029POPC   D2A65872   4.500   5.727   6.504
 5029POPC   C3A65873   4.349   5.664   6.908
 5029POPC   C4A65874   4.477   5.927   7.236
 5029POPC   C1B65875   4.056   5.980   6.118
 5029POPC   C2B65876   4.003   5.888   6.557
 5029POPC   C3B65877   4.042   6.085   6.958
 5029POPC   C4B65878   3.995   5.947   7.372
 5030POPC   NC365879  19.729  44.747   5.287
 5030POPC   PO465880  20.388  44.613   5.224
 5030POPC   GL165881  20.095  44.730   5.664
 5030POPC   GL265882  19.721  44.825   5.788
 5030POPC   C1A65883  20.018  44.550   6.115
 5030POPC   D2A65884  19.962  44.745   6.528
 5030POPC   C3A65885  19.857  44.539   6.848
 5030POPC   C4A65886  19.894  44.506   7.250
 5030POPC   C1B65887  19.508   0.020   6.180
 5030POPC   C2B65888  19.421   0.034   6.632
 5030POPC   C3B65889  19.430  44.796   6.993
 5030POPC   C4B65890  19.603  44.876   7.390
 5031POPC   NC365891   5.039  26.987   5.503
 5031POPC   PO465892   5.437  27.455   5.264
 5031POPC   GL165893   5.422  27.554   5.783
 5031POPC   GL265894   5.075  27.669   5.964
 5031POPC   C1A65895   5.436  27.559   6.300
 5031POPC   D2A65896   5.155  27.668   6.675
 5031POPC   C3A65897   5.206  27.563   7.137
 5031POPC   C4A65898   5.251  27.150   7.411
 5031POPC   C1B65899   4.837  27.901   6.352
 5031POPC   C2B65900   4.803  27.992   6.834
 5031POPC   C3B65901   4.878  27.954   7.303
 5031POPC   C4B65902   4.937  28.071   7.757
 5032POPC   NC365903  25.671  40.319   5.457
 5032POPC   PO465904  25.053  40.177   5.300
 5032POPC   GL165905  25.178  40.242   5.707
 5032POPC   GL265906  25.422  40.015   5.836
 5032POPC   C1A65907  25.037  40.273   6.145
 5032POPC   D2A65908  25.119  39.979   6.534
 5032POPC   C3A65909  25.110  40.030   7.031
 5032POPC   C4A65910  24.865  40.118   7.452
 5032POPC   C1B65911  25.524  40.172   6.263
 5032POPC   C2B65912  25.422  40.333   6.713
 5032POPC   C3B65913  25.621  40.172   7.077
 5032POPC   C4B65914  25.709  39.921   7.433
 5033POPC   NC365915  18.414   5.975   5.606
 5033POPC   PO465916  17.792   5.721   5.334
 5033POPC   GL165917  17.938   5.538   5.786
 5033POPC   GL265918  18.250   5.639   5.921
 5033POPC   C1A65919  17.891   5.705   6.259
 5033POPC   D2A65920  18.043   5.934   6.648
 5033POPC   C3A65921  18.060   5.629   7.006
 5033POPC   C4A65922  18.199   5.662   7.431
 5033POPC   C1B65923  18.395   5.974   6.251
 5033POPC   C2B65924  18.550   6.128   6.662
 5033POPC   C3B65925  18.424   5.983   7.058
 5033POPC   C4B65926  18.606   5.950   7.469
 5034POPC   NC365927   5.429   4.657   5.592
 5034POPC   PO465928   6.042   5.116   5.369
 5034POPC   GL165929   5.951   5.104   5.811
 5034POPC   GL265930   5.891   4.759   5.784
 5034POPC   C1A65931   5.760   5.187   6.234
 5034POPC   D2A65932   5.636   5.010   6.700
 5034POPC   C3A65933   5.645   5.286   7.092
 5034POPC   C4A65934   5.555   5.433   7.545
 5034POPC   C1B65935   5.756   4.706   6.169
 5034POPC   C2B65936   5.953   4.653   6.528
 5034POPC   C3B65937   6.115   4.885   6.849
 5034POPC   C4B65938   5.844   4.808   7.172
 5035POPC   NC365939   2.386   6.194   5.632
 5035POPC   PO465940   2.893   5.793   5.301
 5035POPC   GL165941   2.827   5.674   5.719
 5035POPC   GL265942   2.452   5.671   5.780
 5035POPC   C1A65943   2.960   5.874   6.093
 5035POPC   D2A65944   2.842   6.171   6.410
 5035POPC   C3A65945   3.031   6.089   6.800
 5035POPC   C4A65946   3.141   5.948   7.205
 5035POPC   C1B65947   2.466   5.876   6.194
 5035POPC   C2B65948   2.661   5.731   6.582
 5035POPC   C3B65949   2.766   5.674   6.997
 5035POPC   C4B65950   2.640   5.856   7.369
 5036POPC   NC365951   5.046  37.147   5.374
 5036POPC   PO465952   5.155  36.474   5.339
 5036POPC   GL165953   5.199  36.740   5.736
 5036POPC   GL265954   4.922  36.978   5.822
 5036POPC   C1A65955   5.249  36.897   6.200
 5036POPC   D2A65956   5.078  37.141   6.537
 5036POPC   C3A65957   5.238  36.989   6.918
 5036POPC   C4A65958   5.386  36.702   7.209
 5036POPC   C1B65959   4.677  36.950   6.174
 5036POPC   C2B65960   4.492  36.904   6.547
 5036POPC   C3B65961   4.715  36.943   6.890
 5036POPC   C4B65962   4.866  37.132   7.230
 5037POPC   NC365963  15.946  24.897   5.007
 5037POPC   PO465964  16.125  25.521   5.371
 5037POPC   GL165965  15.970  25.521   5.840
 5037POPC   GL265966  15.653  25.739   5.916
 5037POPC   C1A65967  16.047  25.303   6.244
 5037POPC   D2A65968  16.073  24.985   6.594
 5037POPC   C3A65969  16.108  25.155   7.008
 5037POPC   C4A65970  16.242  25.542   7.186
 5037POPC   C1B65971  15.572  25.446   6.213
 5037POPC   C2B65972  15.602  25.178   6.525
 5037POPC   C3B65973  15.416  25.260   6.878
 5037POPC   C4B65974  15.581  25.265   7.214
 5038POPC   NC365975   0.104  29.736   5.507
 5038POPC   PO465976  44.586  30.130   5.330
 5038POPC   GL165977  44.749  30.077   5.766
 5038POPC   GL265978  44.711  29.729   5.852
 5038POPC   C1A65979  44.580  30.043   6.217
 5038POPC   D2A65980  44.739  30.311   6.530
 5038POPC   C3A65981  44.673  30.151   6.926
 5038POPC   C4A65982  44.658  29.859   7.246
 5038POPC   C1B65983  44.836  29.627   6.309
 5038POPC   C2B65984  44.783  29.664   6.749
 5038POPC   C3B65985  44.853  29.387   7.091
 5038POPC   C4B65986  44.975  29.521   7.512
 5039POPC   NC365987  41.154   3.889   5.581
 5039POPC   PO465988  41.715   3.660   5.301
 5039POPC   GL165989  41.635   3.655   5.736
 5039POPC   GL265990  41.397   3.409   5.757
 5039POPC   C1A65991  41.806   3.549   6.174
 5039POPC   D2A65992  42.003   3.266   6.505
 5039POPC   C3A65993  41.775   3.186   6.917
 5039POPC   C4A65994  41.791   3.331   7.350
 5039POPC   C1B65995  41.312   3.551   6.176
 5039POPC   C2B65996  41.424   3.457   6.625
 5039POPC   C3B65997  41.361   3.459   7.095
 5039POPC   C4B65998  41.349   3.493   7.557
 5040POPC   NC365999  12.152  17.861   5.483
 5040POPC   PO466000  11.822  18.467   5.625
 5040POPC   GL166001  12.192  18.288   5.834
 5040POPC   GL266002  12.324  18.642   5.856
 5040POPC   C1A66003  12.181  17.989   6.224
 5040POPC   D2A66004  12.001  17.894   6.656
 5040POPC   C3A66005  11.842  18.269   6.871
 5040POPC   C4A66006  12.101  18.371   7.208
 5040POPC   C1B66007  12.462  18.424   6.246
 5040POPC   C2B66008  12.349  18.378   6.688
 5040POPC   C3B66009  12.510  18.636   7.034
 5040POPC   C4B66010  12.234  18.912   7.236
 5041POPC   NC366011  16.810  41.230   5.388
 5041POPC   PO466012  16.698  41.871   5.270
 5041POPC   GL166013  16.631  41.647   5.644
 5041POPC   GL266014  16.938  41.775   5.814
 5041POPC   C1A66015  16.469  41.666   6.068
 5041POPC   D2A66016  16.672  41.673   6.496
 5041POPC   C3A66017  16.532  41.350   6.801
 5041POPC   C4A66018  16.579  41.310   7.245
 5041POPC   C1B66019  16.884  41.367   6.070
 5041POPC   C2B66020  16.966  41.213   6.516
 5041POPC   C3B66021  17.017  41.315   6.976
 5041POPC   C4B66022  17.020  41.061   7.361
 5042POPC   NC366023   2.288  43.764   5.632
 5042POPC   PO466024   2.088  44.219   5.164
 5042POPC   GL166025   1.887  44.171   5.624
 5042POPC   GL266026   1.752  43.817   5.728
 5042POPC   C1A66027   1.887  44.109   6.112
 5042POPC   D2A66028   2.069  43.935   6.505
 5042POPC   C3A66029   2.035  44.088   6.966
 5042POPC   C4A66030   2.179  43.981   7.390
 5042POPC   C1B66031   1.878  43.579   6.133
 5042POPC   C2B66032   1.922  43.435   6.589
 5042POPC   C3B66033   1.915  43.607   7.041
 5042POPC   C4B66034   1.692  43.832   7.404
 5043POPC   NC366035  34.225  31.411   5.247
 5043POPC   PO466036  34.866  31.735   5.439
 5043POPC   GL166037  34.689  31.451   5.718
 5043POPC   GL266038  34.349  31.556   5.720
 5043POPC   C1A66039  34.729  31.452   6.169
 5043POPC   D2A66040  34.644  31.582   6.583
 5043POPC   C3A66041  34.958  31.631   6.914
 5043POPC   C4A66042  34.965  31.305   7.222
 5043POPC   C1B66043  34.213  31.496   6.131
 5043POPC   C2B66044  34.275  31.215   6.460
 5043POPC   C3B66045  34.488  31.156   6.826
 5043POPC   C4B66046  34.506  31.511   7.081
 5044POPC   NC366047   9.416  43.146   5.607
 5044POPC   PO466048   8.748  43.056   5.444
 5044POPC   GL166049   8.986  42.894   5.762
 5044POPC   GL266050   9.049  43.220   5.958
 5044POPC   C1A66051   8.870  42.816   6.187
 5044POPC   D2A66052   8.936  43.122   6.549
 5044POPC   C3A66053   8.770  42.921   6.928
 5044POPC   C4A66054   8.983  42.749   7.267
 5044POPC   C1B66055   9.277  43.453   6.287
 5044POPC   C2B66056   9.212  43.560   6.732
 5044POPC   C3B66057   9.037  43.323   7.089
 5044POPC   C4B66058   8.708  43.197   7.392
 5045POPC   NC366059  42.027  18.037   5.354
 5045POPC   PO466060  42.407  18.559   5.623
 5045POPC   GL166061  42.166  18.293   5.823
 5045POPC   GL266062  41.892  18.499   5.870
 5045POPC   C1A66063  42.282  18.184   6.240
 5045POPC   D2A66064  42.202  18.352   6.654
 5045POPC   C3A66065  42.401  18.107   6.959
 5045POPC   C4A66066  42.698  18.079   7.294
 5045POPC   C1B66067  41.773  18.361   6.249
 5045POPC   C2B66068  41.867  17.983   6.461
 5045POPC   C3B66069  41.927  17.869   6.878
 5045POPC   C4B66070  41.981  18.083   7.263
 5046POPC   NC366071  20.413  42.463   5.523
 5046POPC   PO466072  20.996  42.165   5.481
 5046POPC   GL166073  20.892  42.329   5.888
 5046POPC   GL266074  20.583  42.161   5.910
 5046POPC   C1A66075  20.730  42.429   6.309
 5046POPC   D2A66076  20.550  42.346   6.702
 5046POPC   C3A66077  20.857  42.467   6.978
 5046POPC   C4A66078  20.600  42.492   7.308
 5046POPC   C1B66079  20.325  42.057   6.267
 5046POPC   C2B66080  20.048  42.133   6.625
 5046POPC   C3B66081  20.141  42.044   7.069
 5046POPC   C4B66082  20.446  42.011   7.384
 5047POPC   NC366083  29.060  15.032   5.055
 5047POPC   PO466084  29.365  15.341   5.608
 5047POPC   GL166085  29.306  15.076   5.856
 5047POPC   GL266086  29.149  14.846   5.699
 5047POPC   C1A66087  29.083  15.073   6.203
 5047POPC   D2A66088  29.275  15.043   6.578
 5047POPC   C3A66089  29.080  15.249   6.892
 5047POPC   C4A66090  29.314  15.384   7.206
 5047POPC   C1B66091  28.979  14.599   6.023
 5047POPC   C2B66092  28.976  14.639   6.484
 5047POPC   C3B66093  28.918  14.745   6.936
 5047POPC   C4B66094  29.131  14.919   7.323
 5048POPC   NC366095  28.951   8.236   5.555
 5048POPC   PO466096  28.252   8.199   5.411
 5048POPC   GL166097  28.478   8.309   5.758
 5048POPC   GL266098  28.419   7.990   5.875
 5048POPC   C1A66099  28.358   8.478   6.164
 5048POPC   D2A66100  28.181   8.543   6.562
 5048POPC   C3A66101  28.289   8.227   6.858
 5048POPC   C4A66102  28.127   8.139   7.248
 5048POPC   C1B66103  28.632   8.043   6.202
 5048POPC   C2B66104  28.576   7.908   6.565
 5048POPC   C3B66105  28.775   7.994   6.906
 5048POPC   C4B66106  28.599   7.975   7.275
 5049POPC   NC366107  10.736  20.541   5.458
 5049POPC   PO466108  10.205  20.916   5.383
 5049POPC   GL166109  10.360  20.786   5.763
 5049POPC   GL266110  10.666  20.975   5.787
 5049POPC   C1A66111  10.427  20.574   6.174
 5049POPC   D2A66112  10.731  20.436   6.520
 5049POPC   C3A66113  10.586  20.515   6.957
 5049POPC   C4A66114  10.175  20.657   7.103
 5049POPC   C1B66115  10.841  20.894   6.215
 5049POPC   C2B66116  10.718  20.977   6.649
 5049POPC   C3B66117  10.888  20.914   7.091
 5049POPC   C4B66118  10.894  20.648   7.432
 5050POPC   NC366119   3.851   0.320   5.512
 5050POPC   PO466120   3.886   0.992   5.389
 5050POPC   GL166121   3.999   0.712   5.784
 5050POPC   GL266122   4.369   0.637   5.823
 5050POPC   C1A66123   4.053   0.515   6.215
 5050POPC   D2A66124   3.867   0.554   6.646
 5050POPC   C3A66125   4.113   0.504   7.006
 5050POPC   C4A66126   4.062   0.265   7.365
 5050POPC   C1B66127   4.568   0.489   6.219
 5050POPC   C2B66128   4.737   0.217   6.565
 5050POPC   C3B66129   4.568   0.236   6.981
 5050POPC   C4B66130   4.588   0.678   7.158
 5051POPC   NC366131  25.646  13.236   5.233
 5051POPC   PO466132  25.190  13.744   5.365
 5051POPC   GL166133  25.201  13.718   5.810
 5051POPC   GL266134  25.297  13.386   5.756
 5051POPC   C1A66135  25.262  13.802   6.260
 5051POPC   D2A66136  25.077  13.879   6.662
 5051POPC   C3A66137  25.252  14.009   7.038
 5051POPC   C4A66138  25.032  13.862   7.365
 5051POPC   C1B66139  25.542  13.343   6.130
 5051POPC   C2B66140  25.443  13.235   6.555
 5051POPC   C3B66141  25.199  13.425   6.881
 5051POPC   C4B66142  25.381  13.533   7.251
 5052POPC   NC366143   9.913  38.912   5.352
 5052POPC   PO466144   9.456  39.446   5.481
 5052POPC   GL166145   9.623  39.126   5.788
 5052POPC   GL266146   9.950  39.182   5.936
 5052POPC   C1A66147   9.548  39.096   6.267
 5052POPC   D2A66148   9.483  39.245   6.723
 5052POPC   C3A66149   9.759  39.111   7.069
 5052POPC   C4A66150   9.720  39.153   7.524
 5052POPC   C1B66151  10.073  39.532   6.208
 5052POPC   C2B66152   9.914  39.606   6.620
 5052POPC   C3B66153   9.851  39.594   7.052
 5052POPC   C4B66154  10.098  39.474   7.410
 5053POPC   NC366155  36.749  38.666   5.379
 5053POPC   PO466156  37.425  38.488   5.591
 5053POPC   GL166157  37.021  38.464   5.771
 5053POPC   GL266158  36.835  38.756   5.865
 5053POPC   C1A66159  36.919  38.359   6.209
 5053POPC   D2A66160  37.185  38.163   6.543
 5053POPC   C3A66161  37.001  38.241   6.933
 5053POPC   C4A66162  37.051  38.329   7.355
 5053POPC   C1B66163  36.675  38.804   6.262
 5053POPC   C2B66164  36.783  38.638   6.682
 5053POPC   C3B66165  36.683  38.678   7.130
 5053POPC   C4B66166  36.672  38.567   7.579
 5054POPC   NC366167  43.941  40.267   5.638
 5054POPC   PO466168  43.492  39.846   5.329
 5054POPC   GL166169  43.641  39.924   5.859
 5054POPC   GL266170  43.594  40.277   6.036
 5054POPC   C1A66171  43.784  39.949   6.359
 5054POPC   D2A66172  43.619  40.159   6.757
 5054POPC   C3A66173  43.676  39.970   7.189
 5054POPC   C4A66174  44.086  39.848   7.407
 5054POPC   C1B66175  43.974  40.404   6.259
 5054POPC   C2B66176  44.283  40.190   6.525
 5054POPC   C3B66177  44.114  40.071   6.915
 5054POPC   C4B66178  43.910  40.419   7.138
 5055POPC   NC366179  21.990  39.943   5.377
 5055POPC   PO466180  22.481  40.193   5.720
 5055POPC   GL166181  22.047  40.276   5.819
 5055POPC   GL266182  21.992  40.654   5.740
 5055POPC   C1A66183  21.929  40.101   6.243
 5055POPC   D2A66184  22.063  39.819   6.620
 5055POPC   C3A66185  22.105  39.893   7.082
 5055POPC   C4A66186  22.403  39.879   7.447
 5055POPC   C1B66187  22.118  40.602   6.200
 5055POPC   C2B66188  22.238  40.344   6.580
 5055POPC   C3B66189  22.314  40.370   7.032
 5055POPC   C4B66190  22.099  40.293   7.423
 5056POPC   NC366191  34.238  12.574   5.348
 5056POPC   PO466192  34.902  12.474   5.557
 5056POPC   GL166193  34.647  12.155   5.796
 5056POPC   GL266194  34.282  12.149   5.736
 5056POPC   C1A66195  34.676  11.981   6.195
 5056POPC   D2A66196  34.563  11.887   6.629
 5056POPC   C3A66197  34.789  12.134   6.923
 5056POPC   C4A66198  34.942  12.115   7.335
 5056POPC   C1B66199  34.233  12.286   6.216
 5056POPC   C2B66200  34.317  12.350   6.707
 5056POPC   C3B66201  34.340  12.142   7.153
 5056POPC   C4B66202  34.175  11.798   7.399
 5057POPC   NC366203  37.057  35.757   5.510
 5057POPC   PO466204  36.630  36.061   5.121
 5057POPC   GL166205  36.665  36.136   5.650
 5057POPC   GL266206  37.000  36.280   5.734
 5057POPC   C1A66207  36.840  35.991   6.130
 5057POPC   D2A66208  37.179  35.942   6.499
 5057POPC   C3A66209  36.963  35.940   6.931
 5057POPC   C4A66210  36.559  35.934   7.203
 5057POPC   C1B66211  37.181  36.379   6.154
 5057POPC   C2B66212  36.959  36.399   6.560
 5057POPC   C3B66213  36.714  36.418   6.938
 5057POPC   C4B66214  36.829  36.512   7.350
 5058POPC   NC366215  31.017  20.507   4.963
 5058POPC   PO466216  30.631  20.694   5.454
 5058POPC   GL166217  30.616  20.609   5.871
 5058POPC   GL266218  30.898  20.520   5.983
 5058POPC   C1A66219  30.471  20.535   6.281
 5058POPC   D2A66220  30.686  20.709   6.618
 5058POPC   C3A66221  30.672  20.561   6.999
 5058POPC   C4A66222  30.330  20.421   7.219
 5058POPC   C1B66223  31.007  20.887   6.264
 5058POPC   C2B66224  31.099  20.962   6.733
 5058POPC   C3B66225  30.905  20.994   7.142
 5058POPC   C4B66226  30.900  20.888   7.591
 5059POPC   NC366227   8.707  34.007   5.101
 5059POPC   PO466228   9.302  33.862   5.442
 5059POPC   GL166229   9.185  33.893   5.895
 5059POPC   GL266230   8.891  33.701   5.971
 5059POPC   C1A66231   9.038  34.135   6.281
 5059POPC   D2A66232   9.276  34.069   6.651
 5059POPC   C3A66233   9.178  33.819   6.989
 5059POPC   C4A66234   9.152  34.047   7.331
 5059POPC   C1B66235   8.941  33.672   6.439
 5059POPC   C2B66236   8.735  33.952   6.731
 5059POPC   C3B66237   8.674  33.884   7.155
 5059POPC   C4B66238   8.904  33.620   7.399
 5060POPC   NC366239  18.920   8.521   5.669
 5060POPC   PO466240  18.875   8.005   5.195
 5060POPC   GL166241  18.744   8.033   5.681
 5060POPC   GL266242  19.085   8.046   5.838
 5060POPC   C1A66243  18.738   8.160   6.194
 5060POPC   D2A66244  18.908   8.352   6.619
 5060POPC   C3A66245  18.820   8.202   7.032
 5060POPC   C4A66246  19.065   7.870   7.173
 5060POPC   C1B66247  19.133   7.810   6.236
 5060POPC   C2B66248  19.175   7.791   6.673
 5060POPC   C3B66249  19.321   8.150   6.863
 5060POPC   C4B66250  19.261   8.478   7.143
 5061POPC   NC366251  41.300  27.120   5.296
 5061POPC   PO466252  41.846  26.778   5.490
 5061POPC   GL166253  41.469  26.796   5.722
 5061POPC   GL266254  41.370  27.121   5.798
 5061POPC   C1A66255  41.315  26.728   6.132
 5061POPC   D2A66256  41.472  26.447   6.440
 5061POPC   C3A66257  41.692  26.540   6.807
 5061POPC   C4A66258  41.494  26.462   7.199
 5061POPC   C1B66259  41.672  27.098   6.137
 5061POPC   C2B66260  41.522  26.968   6.552
 5061POPC   C3B66261  41.368  26.899   6.965
 5061POPC   C4B66262  41.429  26.949   7.402
 5062POPC   NC366263  17.969  44.305   5.464
 5062POPC   PO466264  18.172  43.679   5.654
 5062POPC   GL166265  18.188  44.023   5.896
 5062POPC   GL266266  17.818  44.053   5.884
 5062POPC   C1A66267  18.350  44.012   6.324
 5062POPC   D2A66268  18.312  43.687   6.657
 5062POPC   C3A66269  18.451  43.961   6.983
 5062POPC   C4A66270  18.500  44.434   6.912
 5062POPC   C1B66271  17.854  43.863   6.276
 5062POPC   C2B66272  17.918  44.010   6.672
 5062POPC   C3B66273  17.945  43.925   7.076
 5062POPC   C4B66274  18.125  44.274   7.217
 5063POPC   NC366275  15.702  34.580   5.339
 5063POPC   PO466276  16.336  34.359   5.430
 5063POPC   GL166277  16.022  34.485   5.773
 5063POPC   GL266278  15.834  34.821   5.764
 5063POPC   C1A66279  15.994  34.397   6.253
 5063POPC   D2A66280  16.124  34.397   6.743
 5063POPC   C3A66281  15.747  34.571   7.007
 5063POPC   C4A66282  15.629  34.545   7.486
 5063POPC   C1B66283  16.134  34.891   6.083
 5063POPC   C2B66284  16.077  34.840   6.517
 5063POPC   C3B66285  16.165  34.908   6.957
 5063POPC   C4B66286  16.101  34.687   7.344
 5064POPC   NC366287  26.812  18.180   5.416
 5064POPC   PO466288  26.531  17.642   5.445
 5064POPC   GL166289  26.701  17.901   5.852
 5064POPC   GL266290  26.988  18.182   5.891
 5064POPC   C1A66291  26.674  18.086   6.296
 5064POPC   D2A66292  26.751  18.001   6.754
 5064POPC   C3A66293  26.827  18.305   7.099
 5064POPC   C4A66294  26.542  18.261   7.457
 5064POPC   C1B66295  27.203  18.057   6.279
 5064POPC   C2B66296  27.267  17.960   6.725
 5064POPC   C3B66297  27.335  18.145   7.112
 5064POPC   C4B66298  27.278  18.540   7.321
 5065POPC   NC366299  22.396  10.668   5.633
 5065POPC   PO466300  22.234  10.034   5.379
 5065POPC   GL166301  22.292  10.221   5.815
 5065POPC   GL266302  21.961  10.371   5.833
 5065POPC   C1A66303  22.319  10.464   6.244
 5065POPC   D2A66304  22.166  10.378   6.646
 5065POPC   C3A66305  22.171  10.567   7.086
 5065POPC   C4A66306  22.313  10.296   7.447
 5065POPC   C1B66307  21.800  10.433   6.259
 5065POPC   C2B66308  21.763  10.707   6.648
 5065POPC   C3B66309  21.674  10.672   7.097
 5065POPC   C4B66310  21.815  10.921   7.425
 5066POPC   NC366311  40.479  16.630   5.377
 5066POPC   PO466312  41.169  16.901   5.234
 5066POPC   GL166313  40.907  16.817   5.627
 5066POPC   GL266314  40.605  17.024   5.718
 5066POPC   C1A66315  40.775  16.683   6.070
 5066POPC   D2A66316  40.796  16.902   6.479
 5066POPC   C3A66317  40.717  16.749   6.902
 5066POPC   C4A66318  40.609  16.673   7.336
 5066POPC   C1B66319  40.396  17.077   6.185
 5066POPC   C2B66320  40.284  17.101   6.668
 5066POPC   C3B66321  40.374  17.086   7.124
 5066POPC   C4B66322  40.468  17.150   7.602
 5067POPC   NC366323  42.439  25.868   5.247
 5067POPC   PO466324  41.837  25.779   5.487
 5067POPC   GL166325  42.035  25.986   5.823
 5067POPC   GL266326  42.335  25.841   5.782
 5067POPC   C1A66327  42.292  26.200   6.151
 5067POPC   D2A66328  42.501  26.070   6.524
 5067POPC   C3A66329  42.394  26.192   6.957
 5067POPC   C4A66330  42.556  26.179   7.391
 5067POPC   C1B66331  42.290  25.681   6.241
 5067POPC   C2B66332  42.467  25.586   6.682
 5067POPC   C3B66333  42.509  25.708   7.124
 5067POPC   C4B66334  42.573  25.681   7.574
 5068POPC   NC366335  35.633  38.253   5.634
 5068POPC   PO466336  35.223  38.587   5.219
 5068POPC   GL166337  35.318  38.677   5.668
 5068POPC   GL266338  35.628  38.867   5.672
 5068POPC   C1A66339  35.347  38.481   6.121
 5068POPC   D2A66340  35.513  38.225   6.473
 5068POPC   C3A66341  35.360  38.348   6.882
 5068POPC   C4A66342  35.477  38.200   7.268
 5068POPC   C1B66343  35.628  38.920   6.133
 5068POPC   C2B66344  35.458  38.731   6.532
 5068POPC   C3B66345  35.579  38.836   6.935
 5068POPC   C4B66346  35.411  38.693   7.303
 5069POPC   NC366347   7.019  22.886   5.326
 5069POPC   PO466348   6.382  23.145   5.369
 5069POPC   GL166349   6.625  22.906   5.673
 5069POPC   GL266350   6.859  23.160   5.787
 5069POPC   C1A66351   6.605  22.778   6.120
 5069POPC   D2A66352   6.365  22.592   6.479
 5069POPC   C3A66353   6.440  22.766   6.900
 5069POPC   C4A66354   6.805  22.788   7.154
 5069POPC   C1B66355   7.023  23.049   6.231
 5069POPC   C2B66356   6.797  23.031   6.654
 5069POPC   C3B66357   6.666  23.250   7.099
 5069POPC   C4B66358   6.824  23.167   7.573
 5070POPC   NC366359  39.447   6.884   5.359
 5070POPC   PO466360  39.020   6.428   5.593
 5070POPC   GL166361  39.258   6.730   5.822
 5070POPC   GL266362  39.625   6.783   5.835
 5070POPC   C1A66363  39.371   6.620   6.259
 5070POPC   D2A66364  39.191   6.499   6.635
 5070POPC   C3A66365  39.259   6.641   7.024
 5070POPC   C4A66366  39.074   6.501   7.402
 5070POPC   C1B66367  39.717   7.010   6.232
 5070POPC   C2B66368  39.546   6.933   6.656
 5070POPC   C3B66369  39.500   7.095   7.079
 5070POPC   C4B66370  39.462   6.818   7.472
 5071POPC   NC366371  32.283   6.059   5.379
 5071POPC   PO466372  32.343   5.367   5.309
 5071POPC   GL166373  32.322   5.721   5.746
 5071POPC   GL266374  32.460   6.049   5.851
 5071POPC   C1A66375  32.442   5.721   6.223
 5071POPC   D2A66376  32.385   5.949   6.588
 5071POPC   C3A66377  32.294   5.726   6.962
 5071POPC   C4A66378  32.418   5.992   7.281
 5071POPC   C1B66379  32.077   6.090   6.101
 5071POPC   C2B66380  31.906   6.155   6.522
 5071POPC   C3B66381  32.076   6.198   6.946
 5071POPC   C4B66382  31.966   6.199   7.381
 5072POPC   NC366383  23.946  28.751   5.510
 5072POPC   PO466384  23.757  28.136   5.360
 5072POPC   GL166385  23.755  28.339   5.770
 5072POPC   GL266386  23.729  28.019   5.920
 5072POPC   C1A66387  23.573  28.454   6.193
 5072POPC   D2A66388  23.355  28.350   6.596
 5072POPC   C3A66389  23.530  28.580   6.941
 5072POPC   C4A66390  23.738  28.553   7.311
 5072POPC   C1B66391  24.038  27.955   6.260
 5072POPC   C2B66392  24.068  28.035   6.717
 5072POPC   C3B66393  24.031  28.123   7.147
 5072POPC   C4B66394  23.676  28.031   7.405
 5073POPC   NC366395  13.825  14.011   5.135
 5073POPC   PO466396  13.349  13.549   5.223
 5073POPC   GL166397  13.329  13.581   5.697
 5073POPC   GL266398  13.510  13.904   5.735
 5073POPC   C1A66399  13.461  13.456   6.170
 5073POPC   D2A66400  13.665  13.655   6.572
 5073POPC   C3A66401  13.811  13.498   7.009
 5073POPC   C4A66402  14.048  13.664   7.371
 5073POPC   C1B66403  13.317  13.958   6.154
 5073POPC   C2B66404  13.294  14.008   6.610
 5073POPC   C3B66405  13.377  13.767   7.001
 5073POPC   C4B66406  13.321  13.654   7.442
 5074POPC   NC366407  12.751  37.266   5.522
 5074POPC   PO466408  13.268  36.871   5.409
 5074POPC   GL166409  13.117  36.760   5.803
 5074POPC   GL266410  12.772  36.866   5.839
 5074POPC   C1A66411  13.016  36.514   6.162
 5074POPC   D2A66412  12.780  36.616   6.528
 5074POPC   C3A66413  13.018  36.603   6.935
 5074POPC   C4A66414  13.064  37.013   7.159
 5074POPC   C1B66415  12.716  37.145   6.218
 5074POPC   C2B66416  12.318  37.188   6.472
 5074POPC   C3B66417  12.308  37.098   6.916
 5074POPC   C4B66418  12.571  36.777   7.125
 5075POPC   NC366419   6.152  40.732   5.371
 5075POPC   PO466420   5.720  41.209   5.189
 5075POPC   GL166421   5.826  41.102   5.662
 5075POPC   GL266422   6.090  40.907   5.854
 5075POPC   C1A66423   5.749  41.138   6.153
 5075POPC   D2A66424   6.043  40.922   6.470
 5075POPC   C3A66425   5.952  40.830   6.912
 5075POPC   C4A66426   5.640  40.823   7.257
 5075POPC   C1B66427   5.820  40.624   6.088
 5075POPC   C2B66428   5.556  40.615   6.457
 5075POPC   C3B66429   5.584  40.467   6.885
 5075POPC   C4B66430   5.711  40.328   7.294
 5076POPC   NC366431  26.103  30.125   5.636
 5076POPC   PO466432  25.940  30.731   5.313
 5076POPC   GL166433  25.872  30.588   5.726
 5076POPC   GL266434  26.213  30.658   5.825
 5076POPC   C1A66435  25.869  30.659   6.188
 5076POPC   D2A66436  26.125  30.957   6.405
 5076POPC   C3A66437  26.105  30.972   6.852
 5076POPC   C4A66438  26.166  31.116   7.271
 5076POPC   C1B66439  26.393  30.541   6.216
 5076POPC   C2B66440  26.342  30.557   6.655
 5076POPC   C3B66441  26.496  30.679   7.080
 5076POPC   C4B66442  26.635  30.442   7.460
 5077POPC   NC366443   2.892   5.208   5.345
 5077POPC   PO466444   2.229   5.053   5.402
 5077POPC   GL166445   2.546   4.994   5.676
 5077POPC   GL266446   2.373   5.003   5.965
 5077POPC   C1A66447   2.848   5.164   6.005
 5077POPC   D2A66448   2.874   5.284   6.462
 5077POPC   C3A66449   2.836   5.179   6.891
 5077POPC   C4A66450   3.140   5.210   7.241
 5077POPC   C1B66451   2.428   5.371   6.241
 5077POPC   C2B66452   2.231   5.442   6.662
 5077POPC   C3B66453   2.365   5.357   7.082
 5077POPC   C4B66454   2.665   5.322   7.376
 5078POPC   NC366455  14.296   3.354   5.451
 5078POPC   PO466456  14.847   3.735   5.492
 5078POPC   GL166457  14.640   3.521   5.833
 5078POPC   GL266458  14.264   3.551   5.911
 5078POPC   C1A66459  14.628   3.591   6.284
 5078POPC   D2A66460  14.620   3.776   6.704
 5078POPC   C3A66461  14.517   3.604   7.133
 5078POPC   C4A66462  14.704   3.706   7.615
 5078POPC   C1B66463  14.132   3.724   6.308
 5078POPC   C2B66464  14.011   3.712   6.750
 5078POPC   C3B66465  14.129   3.940   7.111
 5078POPC   C4B66466  14.201   3.824   7.520
 5079POPC   NC366467  43.958  20.587   5.330
 5079POPC   PO466468  43.722  21.174   5.577
 5079POPC   GL166469  43.839  20.815   5.846
 5079POPC   GL266470  43.668  20.485   5.735
 5079POPC   C1A66471  44.124  20.820   6.235
 5079POPC   D2A66472  44.240  20.614   6.607
 5079POPC   C3A66473  44.055  20.720   6.954
 5079POPC   C4A66474  44.145  20.567   7.359
 5079POPC   C1B66475  43.918  20.349   6.104
 5079POPC   C2B66476  43.983  20.187   6.532
 5079POPC   C3B66477  44.044  20.213   6.968
 5079POPC   C4B66478  43.759  20.267   7.338
 5080POPC   NC366479  20.776  44.950   5.618
 5080POPC   PO466480  20.483   0.516   5.312
 5080POPC   GL166481  20.568   0.530   5.789
 5080POPC   GL266482  20.543   0.213   5.967
 5080POPC   C1A66483  20.860   0.546   6.185
 5080POPC   D2A66484  20.722   0.578   6.634
 5080POPC   C3A66485  20.880   0.444   7.028
 5080POPC   C4A66486  20.783   0.585   7.454
 5080POPC   C1B66487  20.361   0.389   6.315
 5080POPC   C2B66488  20.364   0.198   6.702
 5080POPC   C3B66489  20.397   0.313   7.089
 5080POPC   C4B66490  20.621   0.109   7.379
 5081POPC   NC366491  19.592  15.660   5.403
 5081POPC   PO466492  20.128  16.145   5.407
 5081POPC   GL166493  19.970  15.922   5.836
 5081POPC   GL266494  19.731  15.686   5.879
 5081POPC   C1A66495  20.068  15.701   6.255
 5081POPC   D2A66496  19.862  15.645   6.661
 5081POPC   C3A66497  20.095  15.683   7.010
 5081POPC   C4A66498  19.989  15.874   7.429
 5081POPC   C1B66499  19.632  15.950   6.221
 5081POPC   C2B66500  19.497  16.022   6.611
 5081POPC   C3B66501  19.586  16.102   7.010
 5081POPC   C4B66502  19.209  16.219   7.183
 5082POPC   NC366503  14.563  27.930   5.333
 5082POPC   PO466504  14.223  28.493   5.279
 5082POPC   GL166505  14.463  28.314   5.680
 5082POPC   GL266506  14.328  27.987   5.774
 5082POPC   C1A66507  14.634  28.185   6.131
 5082POPC   D2A66508  14.511  28.011   6.558
 5082POPC   C3A66509  14.420  28.345   6.869
 5082POPC   C4A66510  14.494  28.484   7.276
 5082POPC   C1B66511  14.123  28.231   6.078
 5082POPC   C2B66512  14.043  28.266   6.513
 5082POPC   C3B66513  13.920  28.411   6.936
 5082POPC   C4B66514  14.056  28.246   7.314
 5083POPC   NC366515  40.156  26.074   5.479
 5083POPC   PO466516  39.605  26.445   5.702
 5083POPC   GL166517  39.855  26.081   5.899
 5083POPC   GL266518  40.217  26.163   5.966
 5083POPC   C1A66519  39.958  25.866   6.295
 5083POPC   D2A66520  40.113  26.039   6.674
 5083POPC   C3A66521  40.316  25.789   6.954
 5083POPC   C4A66522  40.052  25.730   7.312
 5083POPC   C1B66523  40.312  26.379   6.331
 5083POPC   C2B66524  40.584  26.258   6.655
 5083POPC   C3B66525  40.591  26.329   7.055
 5083POPC   C4B66526  40.288  26.198   7.315
 5084POPC   NC366527  31.937   5.457   5.536
 5084POPC   PO466528  31.503   4.884   5.336
 5084POPC   GL166529  31.345   5.026   5.790
 5084POPC   GL266530  31.093   5.324   5.825
 5084POPC   C1A66531  31.499   4.981   6.248
 5084POPC   D2A66532  31.803   4.961   6.614
 5084POPC   C3A66533  31.537   4.966   6.965
 5084POPC   C4A66534  31.182   4.930   7.212
 5084POPC   C1B66535  31.241   5.435   6.254
 5084POPC   C2B66536  31.464   5.382   6.663
 5084POPC   C3B66537  31.435   5.441   7.130
 5084POPC   C4B66538  31.670   5.175   7.437
 5085POPC   NC366539  38.930  14.585   5.389
 5085POPC   PO466540  39.383  14.139   5.427
 5085POPC   GL166541  39.163  14.342   5.792
 5085POPC   GL266542  39.454  14.380   5.955
 5085POPC   C1A66543  39.117  14.541   6.273
 5085POPC   D2A66544  39.282  14.267   6.631
 5085POPC   C3A66545  39.291  14.345   7.041
 5085POPC   C4A66546  38.903  14.455   7.211
 5085POPC   C1B66547  39.649  14.424   6.346
 5085POPC   C2B66548  39.762  14.631   6.725
 5085POPC   C3B66549  39.740  14.573   7.151
 5085POPC   C4B66550  39.481  14.488   7.508
 5086POPC   NC366551  31.142   5.193   5.309
 5086POPC   PO466552  30.508   4.978   5.286
 5086POPC   GL166553  30.523   5.065   5.720
 5086POPC   GL266554  30.543   5.434   5.794
 5086POPC   C1A66555  30.526   4.780   6.072
 5086POPC   D2A66556  30.634   4.878   6.476
 5086POPC   C3A66557  30.439   4.816   6.848
 5086POPC   C4A66558  30.731   4.694   7.140
 5086POPC   C1B66559  30.732   5.305   6.202
 5086POPC   C2B66560  30.900   5.280   6.652
 5086POPC   C3B66561  30.801   5.229   7.116
 5086POPC   C4B66562  31.036   5.328   7.505
 5087POPC   NC366563   2.500  16.027   5.414
 5087POPC   PO466564   3.100  15.815   5.277
 5087POPC   GL166565   2.918  15.960   5.708
 5087POPC   GL266566   2.609  15.801   5.865
 5087POPC   C1A66567   2.821  16.185   6.129
 5087POPC   D2A66568   2.570  16.173   6.501
 5087POPC   C3A66569   2.638  15.937   6.899
 5087POPC   C4A66570   2.878  16.019   7.268
 5087POPC   C1B66571   2.971  15.688   6.141
 5087POPC   C2B66572   3.062  15.823   6.577
 5087POPC   C3B66573   3.054  15.601   6.972
 5087POPC   C4B66574   3.179  15.647   7.391
 5088POPC   NC366575  19.990  27.089   5.499
 5088POPC   PO466576  19.941  26.490   5.164
 5088POPC   GL166577  19.654  26.712   5.624
 5088POPC   GL266578  19.600  27.022   5.814
 5088POPC   C1A66579  19.582  26.608   6.087
 5088POPC   D2A66580  19.575  26.845   6.478
 5088POPC   C3A66581  19.823  26.668   6.827
 5088POPC   C4A66582  19.758  26.727   7.268
 5088POPC   C1B66583  19.958  26.980   6.142
 5088POPC   C2B66584  20.220  27.151   6.476
 5088POPC   C3B66585  20.035  27.156   6.882
 5088POPC   C4B66586  20.177  27.052   7.302
 5089POPC   NC366587  19.496  31.545   5.461
 5089POPC   PO466588  20.168  31.548   5.315
 5089POPC   GL166589  19.929  31.764   5.694
 5089POPC   GL266590  19.719  31.508   5.912
 5089POPC   C1A66591  19.957  31.861   6.187
 5089POPC   D2A66592  19.864  31.836   6.662
 5089POPC   C3A66593  20.010  31.443   6.874
 5089POPC   C4A66594  19.962  31.329   7.293
 5089POPC   C1B66595  19.507  31.567   6.315
 5089POPC   C2B66596  19.494  31.407   6.736
 5089POPC   C3B66597  19.570  31.648   7.096
 5089POPC   C4B66598  19.560  31.557   7.538
 5090POPC   NC366599   3.238  16.258   5.387
 5090POPC   PO466600   3.683  15.761   5.534
 5090POPC   GL166601   3.416  15.961   5.792
 5090POPC   GL266602   3.640  16.226   5.802
 5090POPC   C1A66603   3.332  16.085   6.219
 5090POPC   D2A66604   3.560  16.017   6.613
 5090POPC   C3A66605   3.381  16.015   7.041
 5090POPC   C4A66606   3.613  15.883   7.436
 5090POPC   C1B66607   3.795  16.340   6.226
 5090POPC   C2B66608   3.648  16.521   6.618
 5090POPC   C3B66609   3.751  16.408   7.039
 5090POPC   C4B66610   3.488  16.362   7.415
 5091POPC   NC366611   0.350  39.417   5.299
 5091POPC   PO466612   0.574  38.908   5.685
 5091POPC   GL166613   0.658  39.265   5.878
 5091POPC   GL266614   0.371  39.473   5.827
 5091POPC   C1A66615   0.710  39.274   6.313
 5091POPC   D2A66616   0.434  39.271   6.697
 5091POPC   C3A66617   0.629  39.264   7.081
 5091POPC   C4A66618   0.565  38.905   7.264
 5091POPC   C1B66619   0.233  39.177   6.192
 5091POPC   C2B66620   0.007  38.957   6.546
 5091POPC   C3B66621   0.131  38.959   6.968
 5091POPC   C4B66622   0.153  39.343   7.200
 5092POPC   NC366623  37.879  35.303   5.366
 5092POPC   PO466624  37.283  35.384   5.662
 5092POPC   GL166625  37.702  35.418   5.838
 5092POPC   GL266626  37.898  35.104   5.861
 5092POPC   C1A66627  37.697  35.409   6.266
 5092POPC   D2A66628  37.380  35.338   6.564
 5092POPC   C3A66629  37.513  35.490   6.963
 5092POPC   C4A66630  37.895  35.694   7.130
 5092POPC   C1B66631  38.024  35.007   6.304
 5092POPC   C2B66632  37.899  35.247   6.710
 5092POPC   C3B66633  37.876  35.168   7.154
 5092POPC   C4B66634  37.984  34.920   7.510
 5093POPC   NC366635  28.828   5.217   5.611
 5093POPC   PO466636  28.161   5.009   5.562
 5093POPC   GL166637  28.485   4.904   5.854
 5093POPC   GL266638  28.473   5.264   5.961
 5093POPC   C1A66639  28.684   4.922   6.280
 5093POPC   D2A66640  28.529   5.102   6.642
 5093POPC   C3A66641  28.346   4.832   6.914
 5093POPC   C4A66642  28.473   4.783   7.330
 5093POPC   C1B66643  28.190   5.044   6.254
 5093POPC   C2B66644  28.013   5.273   6.598
 5093POPC   C3B66645  27.911   5.213   6.998
 5093POPC   C4B66646  28.236   5.201   7.249
 5094POPC   NC366647  42.907  28.959   5.439
 5094POPC   PO466648  43.266  29.390   5.122
 5094POPC   GL166649  43.333  29.260   5.597
 5094POPC   GL266650  43.028  29.333   5.817
 5094POPC   C1A66651  43.447  29.162   6.057
 5094POPC   D2A66652  43.493  29.272   6.532
 5094POPC   C3A66653  43.140  29.225   6.822
 5094POPC   C4A66654  43.081  29.212   7.284
 5094POPC   C1B66655  42.972  29.163   6.278
 5094POPC   C2B66656  42.750  28.931   6.628
 5094POPC   C3B66657  42.646  29.129   7.004
 5094POPC   C4B66658  42.801  29.575   7.074
 5095POPC   NC366659  18.055   3.553   5.025
 5095POPC   PO466660  18.505   3.182   5.440
 5095POPC   GL166661  18.264   3.483   5.702
 5095POPC   GL266662  17.909   3.587   5.699
 5095POPC   C1A66663  18.257   3.717   6.089
 5095POPC   D2A66664  18.317   3.496   6.491
 5095POPC   C3A66665  18.246   3.762   6.805
 5095POPC   C4A66666  18.331   3.791   7.252
 5095POPC   C1B66667  17.882   3.383   6.098
 5095POPC   C2B66668  17.840   3.413   6.531
 5095POPC   C3B66669  18.086   3.307   6.935
 5095POPC   C4B66670  18.093   3.352   7.397
 5096POPC   NC366671  33.797  36.963   5.499
 5096POPC   PO466672  33.304  36.894   5.099
 5096POPC   GL166673  33.319  36.940   5.696
 5096POPC   GL266674  33.594  37.108   5.929
 5096POPC   C1A66675  33.394  36.755   6.186
 5096POPC   D2A66676  33.630  37.032   6.517
 5096POPC   C3A66677  33.818  36.918   6.937
 5096POPC   C4A66678  33.859  37.074   7.373
 5096POPC   C1B66679  33.927  36.845   6.143
 5096POPC   C2B66680  34.006  36.572   6.521
 5096POPC   C3B66681  34.237  36.544   6.920
 5096POPC   C4B66682  34.187  36.694   7.336
 5097POPC   NC366683  12.094   5.222   5.194
 5097POPC   PO466684  11.766   5.038   5.474
 5097POPC   GL166685  12.091   5.251   5.723
 5097POPC   GL266686  11.898   5.471   5.898
 5097POPC   C1A66687  12.298   5.213   6.152
 5097POPC   D2A66688  12.201   5.099   6.606
 5097POPC   C3A66689  12.302   4.955   7.050
 5097POPC   C4A66690  12.313   4.717   7.458
 5097POPC   C1B66691  11.816   5.323   6.325
 5097POPC   C2B66692  11.805   5.404   6.771
 5097POPC   C3B66693  11.850   5.229   7.177
 5097POPC   C4B66694  11.721   5.317   7.619
 5098POPC   NC366695  44.969  35.610   5.116
 5098POPC   PO466696  44.418  35.573   5.567
 5098POPC   GL166697  44.489  35.315   5.950
 5098POPC   GL266698  44.837  35.338   6.122
 5098POPC   C1A66699  44.507  34.981   6.243
 5098POPC   D2A66700  44.607  35.081   6.631
 5098POPC   C3A66701  44.734  35.300   6.942
 5098POPC   C4A66702  44.400  35.288   7.209
 5098POPC   C1B66703  44.854  35.748   6.301
 5098POPC   C2B66704  44.682  35.842   6.676
 5098POPC   C3B66705  44.595  35.761   7.091
 5098POPC   C4B66706  44.811  35.534   7.405
 5099POPC   NC366707  42.435  21.169   5.250
 5099POPC   PO466708  42.272  20.524   5.296
 5099POPC   GL166709  42.265  20.728   5.714
 5099POPC   GL266710  42.552  20.935   5.706
 5099POPC   C1A66711  42.216  20.717   6.187
 5099POPC   D2A66712  42.281  20.864   6.633
 5099POPC   C3A66713  42.095  20.692   7.037
 5099POPC   C4A66714  42.008  20.637   7.502
 5099POPC   C1B66715  42.711  20.907   6.130
 5099POPC   C2B66716  42.789  20.768   6.563
 5099POPC   C3B66717  42.629  20.726   6.988
 5099POPC   C4B66718  42.469  20.803   7.380
 5100POPC   NC366719   0.943  31.705   5.535
 5100POPC   PO466720   1.038  32.381   5.419
 5100POPC   GL166721   1.088  32.555   5.784
 5100POPC   GL266722   1.052  32.232   5.930
 5100POPC   C1A66723   0.997  32.643   6.199
 5100POPC   D2A66724   1.251  32.625   6.540
 5100POPC   C3A66725   1.163  32.393   6.894
 5100POPC   C4A66726   1.342  32.478   7.280
 5100POPC   C1B66727   1.299  32.177   6.291
 5100POPC   C2B66728   1.421  31.998   6.681
 5100POPC   C3B66729   1.162  31.868   7.010
 5100POPC   C4B66730   1.234  31.976   7.409
 5101POPC   NC366731  25.708  14.490   5.516
 5101POPC   PO466732  25.132  14.614   5.742
 5101POPC   GL166733  25.250  14.235   5.944
 5101POPC   GL266734  25.573  14.099   5.857
 5101POPC   C1A66735  25.100  14.291   6.355
 5101POPC   D2A66736  25.072  14.641   6.641
 5101POPC   C3A66737  25.215  14.577   7.050
 5101POPC   C4A66738  25.079  14.352   7.405
 5101POPC   C1B66739  25.645  14.303   6.267
 5101POPC   C2B66740  25.487  14.298   6.688
 5101POPC   C3B66741  25.662  14.355   7.095
 5101POPC   C4B66742  25.564  14.195   7.494
 5102POPC   NC366743  43.413  20.060   5.383
 5102POPC   PO466744  42.895  19.788   5.297
 5102POPC   GL166745  43.001  19.983   5.737
 5102POPC   GL266746  43.269  20.199   5.870
 5102POPC   C1A66747  43.077  19.805   6.173
 5102POPC   D2A66748  42.838  19.583   6.511
 5102POPC   C3A66749  42.998  19.599   6.891
 5102POPC   C4A66750  42.973  19.869   7.220
 5102POPC   C1B66751  43.454  20.152   6.267
 5102POPC   C2B66752  43.295  19.947   6.637
 5102POPC   C3B66753  43.396  20.060   7.043
 5102POPC   C4B66754  43.303  20.136   7.487
 5103POPC   NC366755   4.832  18.234   5.582
 5103POPC   PO466756   5.427  17.947   5.589
 5103POPC   GL166757   5.203  18.165   5.936
 5103POPC   GL266758   5.255  18.549   5.910
 5103POPC   C1A66759   5.074  18.173   6.371
 5103POPC   D2A66760   4.954  18.463   6.699
 5103POPC   C3A66761   5.281  18.447   6.982
 5103POPC   C4A66762   5.327  18.081   7.194
 5103POPC   C1B66763   4.895  18.668   6.174
 5103POPC   C2B66764   4.671  18.849   6.517
 5103POPC   C3B66765   4.640  18.849   6.925
 5103POPC   C4B66766   4.812  18.602   7.201
 5104POPC   NC366767  17.215  24.391   5.245
 5104POPC   PO466768  17.822  24.568   5.420
 5104POPC   GL166769  17.601  24.569   5.812
 5104POPC   GL266770  17.279  24.769   5.830
 5104POPC   C1A66771  17.514  24.636   6.270
 5104POPC   D2A66772  17.172  24.500   6.587
 5104POPC   C3A66773  17.327  24.363   6.982
 5104POPC   C4A66774  17.697  24.406   7.253
 5104POPC   C1B66775  17.296  25.104   6.187
 5104POPC   C2B66776  17.387  24.997   6.615
 5104POPC   C3B66777  17.149  24.888   6.972
 5104POPC   C4B66778  17.228  24.692   7.366
 5105POPC   NC366779  12.278  39.705   5.198
 5105POPC   PO466780  12.062  39.001   5.263
 5105POPC   GL166781  12.014  39.152   5.787
 5105POPC   GL266782  11.795  39.422   5.886
 5105POPC   C1A66783  12.238  39.283   6.162
 5105POPC   D2A66784  12.438  39.355   6.590
 5105POPC   C3A66785  12.251  39.219   6.981
 5105POPC   C4A66786  11.967  39.139   7.313
 5105POPC   C1B66787  11.756  39.320   6.332
 5105POPC   C2B66788  11.752  39.277   6.785
 5105POPC   C3B66789  11.751  39.578   7.091
 5105POPC   C4B66790  11.813  39.584   7.545
 5106POPC   NC366791  25.424   2.486   5.516
 5106POPC   PO466792  25.213   1.862   5.267
 5106POPC   GL166793  25.116   1.771   5.711
 5106POPC   GL266794  25.209   2.102   5.851
 5106POPC   C1A66795  25.184   1.712   6.179
 5106POPC   D2A66796  25.359   1.920   6.548
 5106POPC   C3A66797  25.140   1.780   6.933
 5106POPC   C4A66798  24.886   1.829   7.293
 5106POPC   C1B66799  24.980   2.160   6.256
 5106POPC   C2B66800  24.990   2.248   6.691
 5106POPC   C3B66801  25.141   2.261   7.125
 5106POPC   C4B66802  25.505   2.408   7.406
 5107POPC   NC366803   7.763   4.117   5.451
 5107POPC   PO466804   8.511   4.227   5.414
 5107POPC   GL166805   8.236   4.164   5.705
 5107POPC   GL266806   8.083   4.487   5.685
 5107POPC   C1A66807   8.007   4.161   6.089
 5107POPC   D2A66808   7.945   4.101   6.511
 5107POPC   C3A66809   7.958   4.359   6.842
 5107POPC   C4A66810   8.126   4.181   7.188
 5107POPC   C1B66811   8.363   4.519   6.076
 5107POPC   C2B66812   8.381   4.405   6.524
 5107POPC   C3B66813   8.405   4.572   6.957
 5107POPC   C4B66814   8.043   4.690   7.230
 5108POPC   NC366815  28.113  39.262   5.688
 5108POPC   PO466816  28.548  39.710   5.437
 5108POPC   GL166817  28.625  39.390   5.818
 5108POPC   GL266818  28.653  39.012   5.808
 5108POPC   C1A66819  28.475  39.234   6.253
 5108POPC   D2A66820  28.287  39.292   6.664
 5108POPC   C3A66821  28.282  39.123   7.082
 5108POPC   C4A66822  28.281  39.415   7.432
 5108POPC   C1B66823  28.853  38.909   6.217
 5108POPC   C2B66824  28.660  38.891   6.636
 5108POPC   C3B66825  28.814  39.015   7.040
 5108POPC   C4B66826  28.642  39.048   7.451
 5109POPC   NC366827  19.876   8.310   5.592
 5109POPC   PO466828  20.549   8.251   5.529
 5109POPC   GL166829  20.270   8.130   5.868
 5109POPC   GL266830  20.443   7.847   5.933
 5109POPC   C1A66831  20.185   8.159   6.309
 5109POPC   D2A66832  20.281   8.468   6.644
 5109POPC   C3A66833  20.402   8.376   7.025
 5109POPC   C4A66834  20.270   8.209   7.373
 5109POPC   C1B66835  20.642   7.944   6.310
 5109POPC   C2B66836  20.632   8.031   6.736
 5109POPC   C3B66837  20.521   7.827   7.117
 5109POPC   C4B66838  20.529   7.803   7.573
 5110POPC   NC366839  33.241   4.581   5.420
 5110POPC   PO466840  33.408   3.996   5.493
 5110POPC   GL166841  33.251   4.256   5.833
 5110POPC   GL266842  33.373   4.592   5.933
 5110POPC   C1A66843  32.958   4.290   6.156
 5110POPC   D2A66844  32.997   4.165   6.573
 5110POPC   C3A66845  32.825   4.383   6.886
 5110POPC   C4A66846  32.738   4.349   7.288
 5110POPC   C1B66847  33.343   4.519   6.398
 5110POPC   C2B66848  33.345   4.481   6.871
 5110POPC   C3B66849  33.227   4.218   7.219
 5110POPC   C4B66850  33.339   4.049   7.633
 5111POPC   NC366851  42.051   0.587   5.471
 5111POPC   PO466852  42.656   0.248   5.412
 5111POPC   GL166853  42.630   0.544   5.769
 5111POPC   GL266854  42.301   0.717   5.907
 5111POPC   C1A66855  42.580   0.452   6.213
 5111POPC   D2A66856  42.352   0.700   6.480
 5111POPC   C3A66857  42.521   0.686   6.889
 5111POPC   C4A66858  42.579   0.285   7.054
 5111POPC   C1B66859  42.099   0.382   6.162
 5111POPC   C2B66860  42.223   0.209   6.570
 5111POPC   C3B66861  42.081   0.431   6.925
 5111POPC   C4B66862  41.799   0.311   7.206
 5112POPC   NC366863  35.492  31.028   5.511
 5112POPC   PO466864  35.083  30.563   5.433
 5112POPC   GL166865  35.113  30.459   5.835
 5112POPC   GL266866  34.809  30.551   5.933
 5112POPC   C1A66867  35.394  30.607   6.148
 5112POPC   D2A66868  35.406  30.948   6.448
 5112POPC   C3A66869  35.539  30.832   6.878
 5112POPC   C4A66870  35.676  30.719   7.306
 5112POPC   C1B66871  34.920  30.617   6.368
 5112POPC   C2B66872  35.242  30.480   6.636
 5112POPC   C3B66873  35.287  30.408   7.064
 5112POPC   C4B66874  35.135  30.701   7.370
 5113POPC   NC366875  38.304  14.655   5.475
 5113POPC   PO466876  38.715  14.139   5.406
 5113POPC   GL166877  38.636  14.306   5.813
 5113POPC   GL266878  38.307  14.382   5.897
 5113POPC   C1A66879  38.668  14.292   6.276
 5113POPC   D2A66880  38.780  14.395   6.696
 5113POPC   C3A66881  38.589  14.107   6.980
 5113POPC   C4A66882  38.288  14.303   7.212
 5113POPC   C1B66883  38.155  14.204   6.266
 5113POPC   C2B66884  38.168  14.336   6.698
 5113POPC   C3B66885  37.998  14.647   7.003
 5113POPC   C4B66886  38.051  14.675   7.457
 5114POPC   NC366887  41.847  30.521   5.110
 5114POPC   PO466888  41.340  30.790   5.548
 5114POPC   GL166889  41.411  30.685   5.940
 5114POPC   GL266890  41.652  30.914   5.971
 5114POPC   C1A66891  41.340  30.522   6.334
 5114POPC   D2A66892  41.144  30.743   6.683
 5114POPC   C3A66893  41.393  30.755   7.042
 5114POPC   C4A66894  41.318  30.491   7.392
 5114POPC   C1B66895  41.391  31.039   6.326
 5114POPC   C2B66896  41.366  31.245   6.732
 5114POPC   C3B66897  41.200  31.227   7.154
 5114POPC   C4B66898  41.430  31.024   7.479
 5115POPC   NC366899  19.084   1.182   5.575
 5115POPC   PO466900  19.720   1.159   5.239
 5115POPC   GL166901  19.813   1.311   5.659
 5115POPC   GL266902  19.859   0.960   5.750
 5115POPC   C1A66903  19.963   1.393   6.114
 5115POPC   D2A66904  20.028   1.528   6.573
 5115POPC   C3A66905  20.029   1.223   6.903
 5115POPC   C4A66906  19.889   0.921   7.185
 5115POPC   C1B66907  19.587   1.042   6.082
 5115POPC   C2B66908  19.705   1.038   6.505
 5115POPC   C3B66909  19.471   0.995   6.867
 5115POPC   C4B66910  19.474   1.263   7.176
 5116POPC   NC366911  40.857  11.691   5.370
 5116POPC   PO466912  40.657  12.260   5.208
 5116POPC   GL166913  40.731  12.149   5.668
 5116POPC   GL266914  40.637  11.809   5.834
 5116POPC   C1A66915  40.784  12.175   6.159
 5116POPC   D2A66916  40.670  12.027   6.607
 5116POPC   C3A66917  40.767  12.249   7.049
 5116POPC   C4A66918  40.626  12.527   7.441
 5116POPC   C1B66919  40.865  11.658   6.259
 5116POPC   C2B66920  40.830  11.560   6.741
 5116POPC   C3B66921  40.600  11.774   7.081
 5116POPC   C4B66922  40.628  12.003   7.474
 5117POPC   NC366923   4.559  33.623   5.425
 5117POPC   PO466924   5.232  33.623   5.327
 5117POPC   GL166925   5.237  33.736   5.777
 5117POPC   GL266926   4.923  33.908   5.929
 5117POPC   C1A66927   5.362  33.793   6.203
 5117POPC   D2A66928   5.287  33.976   6.583
 5117POPC   C3A66929   5.438  33.850   6.976
 5117POPC   C4A66930   5.059  33.964   7.217
 5117POPC   C1B66931   4.881  34.196   6.312
 5117POPC   C2B66932   4.871  34.244   6.764
 5117POPC   C3B66933   4.576  34.149   7.100
 5117POPC   C4B66934   4.701  34.092   7.562
 5118POPC   NC366935  27.299  14.187   5.429
 5118POPC   PO466936  27.770  14.686   5.516
 5118POPC   GL166937  27.534  14.463   5.803
 5118POPC   GL266938  27.208  14.612   5.794
 5118POPC   C1A66939  27.614  14.220   6.173
 5118POPC   D2A66940  27.636  14.509   6.497
 5118POPC   C3A66941  27.664  14.441   6.906
 5118POPC   C4A66942  27.708  14.658   7.257
 5118POPC   C1B66943  27.155  14.438   6.213
 5118POPC   C2B66944  27.156  14.413   6.664
 5118POPC   C3B66945  27.246  14.699   7.000
 5118POPC   C4B66946  27.210  14.717   7.403
 5119POPC   NC366947  34.161  29.804   5.555
 5119POPC   PO466948  34.907  29.936   5.443
 5119POPC   GL166949  34.667  29.838   5.781
 5119POPC   GL266950  34.547  30.126   5.862
 5119POPC   C1A66951  34.571  29.780   6.224
 5119POPC   D2A66952  34.816  29.712   6.580
 5119POPC   C3A66953  34.514  29.716   6.855
 5119POPC   C4A66954  34.562  29.702   7.252
 5119POPC   C1B66955  34.441  30.316   6.253
 5119POPC   C2B66956  34.283  30.186   6.656
 5119POPC   C3B66957  34.407  30.193   7.042
 5119POPC   C4B66958  34.738  30.460   7.140
 5120POPC   NC366959   4.891  16.523   5.482
 5120POPC   PO466960   4.320  16.903   5.545
 5120POPC   GL166961   4.543  16.851   5.916
 5120POPC   GL266962   4.669  16.479   5.930
 5120POPC   C1A66963   4.326  16.687   6.279
 5120POPC   D2A66964   4.155  16.473   6.632
 5120POPC   C3A66965   4.158  16.755   6.973
 5120POPC   C4A66966   4.305  16.702   7.377
 5120POPC   C1B66967   4.613  16.257   6.324
 5120POPC   C2B66968   4.534  16.137   6.751
 5120POPC   C3B66969   4.712  16.291   7.121
 5120POPC   C4B66970   4.691  16.418   7.540
 5121POPC   NC366971  37.016  16.764   5.336
 5121POPC   PO466972  36.358  16.708   5.202
 5121POPC   GL166973  36.600  16.731   5.626
 5121POPC   GL266974  36.803  17.041   5.706
 5121POPC   C1A66975  36.841  16.649   6.056
 5121POPC   D2A66976  37.153  16.501   6.397
 5121POPC   C3A66977  37.054  16.344   6.824
 5121POPC   C4A66978  37.047  16.627   7.203
 5121POPC   C1B66979  37.039  17.119   6.106
 5121POPC   C2B66980  36.943  16.991   6.528
 5121POPC   C3B66981  36.804  17.047   6.956
 5121POPC   C4B66982  36.982  17.110   7.380
 5122POPC   NC366983   2.712  21.771   5.485
 5122POPC   PO466984   2.766  22.372   5.412
 5122POPC   GL166985   2.817  22.429   5.870
 5122POPC   GL266986   2.591  22.144   5.929
 5122POPC   C1A66987   2.899  22.256   6.330
 5122POPC   D2A66988   2.705  22.406   6.695
 5122POPC   C3A66989   2.824  22.554   7.092
 5122POPC   C4A66990   2.709  22.415   7.503
 5122POPC   C1B66991   2.488  21.950   6.354
 5122POPC   C2B66992   2.743  21.907   6.736
 5122POPC   C3B66993   2.713  22.052   7.140
 5122POPC   C4B66994   2.888  21.938   7.520
 5123POPC   NC366995  11.486  14.054   5.442
 5123POPC   PO466996  12.107  14.187   5.385
 5123POPC   GL166997  11.989  14.373   5.725
 5123POPC   GL266998  12.091  14.068   5.899
 5123POPC   C1A66999  11.870  14.456   6.135
 5123POPC   D2A67000  12.015  14.206   6.466
 5123POPC   C3A67001  11.938  14.279   6.888
 5123POPC   C4A67002  11.820  14.338   7.321
 5123POPC   C1B67003  12.365  14.329   6.113
 5123POPC   C2B67004  12.497  14.382   6.529
 5123POPC   C3B67005  12.442  14.199   6.921
 5123POPC   C4B67006  12.324  14.399   7.291
 5124POPC   NC367007  38.531  41.227   5.468
 5124POPC   PO467008  38.637  40.588   5.307
 5124POPC   GL167009  38.636  40.639   5.799
 5124POPC   GL267010  38.670  40.995   5.902
 5124POPC   C1A67011  38.576  40.630   6.259
 5124POPC   D2A67012  38.535  40.985   6.512
 5124POPC   C3A67013  38.320  40.880   6.835
 5124POPC   C4A67014  38.534  40.821   7.168
 5124POPC   C1B67015  38.260  41.102   6.101
 5124POPC   C2B67016  38.103  41.248   6.501
 5124POPC   C3B67017  38.023  41.314   6.909
 5124POPC   C4B67018  38.204  41.176   7.285
 5125POPC   NC367019  44.593  41.860   5.463
 5125POPC   PO467020  44.819  41.231   5.488
 5125POPC   GL167021  44.697  41.477   5.791
 5125POPC   GL267022  44.357  41.480   5.749
 5125POPC   C1A67023  44.659  41.440   6.212
 5125POPC   D2A67024  44.946  41.541   6.523
 5125POPC   C3A67025  44.722  41.523   6.878
 5125POPC   C4A67026  44.690  41.507   7.308
 5125POPC   C1B67027  44.376  41.842   6.069
 5125POPC   C2B67028  44.486  41.816   6.511
 5125POPC   C3B67029  44.408  41.936   6.933
 5125POPC   C4B67030  44.193  41.997   7.321
 5126POPC   NC367031  27.152  39.456   5.437
 5126POPC   PO467032  27.714  39.168   5.483
 5126POPC   GL167033  27.651  39.110   5.882
 5126POPC   GL267034  27.268  39.049   5.868
 5126POPC   C1A67035  27.848  39.327   6.264
 5126POPC   D2A67036  27.778  39.243   6.693
 5126POPC   C3A67037  27.862  39.436   7.077
 5126POPC   C4A67038  27.798  39.220   7.446
 5126POPC   C1B67039  27.408  39.083   6.319
 5126POPC   C2B67040  27.291  39.142   6.732
 5126POPC   C3B67041  27.372  39.146   7.156
 5126POPC   C4B67042  27.401  38.824   7.432
 5127POPC   NC367043   4.201  33.094   5.186
 5127POPC   PO467044   4.153  33.805   5.258
 5127POPC   GL167045   4.241  33.800   5.765
 5127POPC   GL267046   4.072  33.590   6.003
 5127POPC   C1A67047   4.389  33.998   6.160
 5127POPC   D2A67048   4.133  33.834   6.507
 5127POPC   C3A67049   4.231  33.604   6.882
 5127POPC   C4A67050   4.106  33.849   7.209
 5127POPC   C1B67051   4.571  33.547   6.109
 5127POPC   C2B67052   4.824  33.710   6.422
 5127POPC   C3B67053   4.724  33.749   6.826
 5127POPC   C4B67054   4.612  33.667   7.257
 5128POPC   NC367055  19.481  33.084   5.035
 5128POPC   PO467056  18.920  33.166   5.321
 5128POPC   GL167057  18.846  33.030   5.753
 5128POPC   GL267058  18.870  32.671   5.851
 5128POPC   C1A67059  18.823  33.295   6.141
 5128POPC   D2A67060  18.973  33.232   6.564
 5128POPC   C3A67061  19.290  33.365   6.845
 5128POPC   C4A67062  19.193  33.284   7.267
 5128POPC   C1B67063  19.153  32.854   6.177
 5128POPC   C2B67064  19.404  32.907   6.556
 5128POPC   C3B67065  19.177  32.873   6.909
 5128POPC   C4B67066  18.985  32.801   7.274
 5129POPC   NC367067  25.363  32.506   5.679
 5129POPC   PO467068  24.858  32.528   5.324
 5129POPC   GL167069  24.888  32.367   5.776
 5129POPC   GL267070  25.155  32.058   5.770
 5129POPC   C1A67071  25.058  32.398   6.212
 5129POPC   D2A67072  25.478  32.256   6.350
 5129POPC   C3A67073  25.557  32.240   6.791
 5129POPC   C4A67074  25.456  32.581   7.126
 5129POPC   C1B67075  25.161  31.893   6.178
 5129POPC   C2B67076  25.046  32.082   6.598
 5129POPC   C3B67077  25.102  32.203   7.026
 5129POPC   C4B67078  25.058  31.984   7.408
 5130POPC   NC367079  33.948   7.863   5.367
 5130POPC   PO467080  33.727   8.472   5.454
 5130POPC   GL167081  33.757   8.191   5.769
 5130POPC   GL267082  33.543   7.940   5.709
 5130POPC   C1A67083  33.760   8.309   6.187
 5130POPC   D2A67084  33.982   8.148   6.514
 5130POPC   C3A67085  33.795   8.314   6.877
 5130POPC   C4A67086  33.879   8.168   7.262
 5130POPC   C1B67087  33.622   7.827   6.140
 5130POPC   C2B67088  33.507   7.966   6.511
 5130POPC   C3B67089  33.565   7.847   6.937
 5130POPC   C4B67090  33.616   7.714   7.344
 5131POPC   NC367091   8.557  37.956   5.474
 5131POPC   PO467092   8.901  38.561   5.480
 5131POPC   GL167093   8.747  38.568   5.866
 5131POPC   GL267094   8.762  38.204   5.898
 5131POPC   C1A67095   8.823  38.743   6.262
 5131POPC   D2A67096   9.141  38.843   6.590
 5131POPC   C3A67097   8.962  38.628   6.941
 5131POPC   C4A67098   9.079  38.301   7.218
 5131POPC   C1B67099   9.128  38.348   6.153
 5131POPC   C2B67100   9.222  38.329   6.589
 5131POPC   C3B67101   9.182  37.976   6.820
 5131POPC   C4B67102   9.403  37.815   7.159
 5132POPC   NC367103   8.829  35.931   5.495
 5132POPC   PO467104   9.398  36.288   5.285
 5132POPC   GL167105   9.139  36.342   5.690
 5132POPC   GL267106   8.760  36.414   5.743
 5132POPC   C1A67107   9.148  36.175   6.136
 5132POPC   D2A67108   9.361  36.239   6.557
 5132POPC   C3A67109   9.137  36.144   6.962
 5132POPC   C4A67110   9.337  36.159   7.389
 5132POPC   C1B67111   8.626  36.197   6.152
 5132POPC   C2B67112   8.580  35.984   6.582
 5132POPC   C3B67113   8.627  36.149   7.010
 5132POPC   C4B67114   8.828  36.110   7.417
 5133POPC   NC367115  31.226  15.425   5.306
 5133POPC   PO467116  31.621  14.878   5.192
 5133POPC   GL167117  31.403  14.966   5.643
 5133POPC   GL267118  31.255  15.290   5.779
 5133POPC   C1A67119  31.507  15.004   6.121
 5133POPC   D2A67120  31.636  15.232   6.528
 5133POPC   C3A67121  31.494  15.096   6.970
 5133POPC   C4A67122  31.683  14.735   7.199
 5133POPC   C1B67123  31.101  15.365   6.181
 5133POPC   C2B67124  31.133  15.201   6.608
 5133POPC   C3B67125  31.037  15.418   6.984
 5133POPC   C4B67126  31.132  15.376   7.402
 5134POPC   NC367127  35.433  12.753   5.492
 5134POPC   PO467128  35.077  13.306   5.470
 5134POPC   GL167129  35.267  13.068   5.869
 5134POPC   GL267130  35.155  12.731   5.934
 5134POPC   C1A67131  35.605  12.875   6.187
 5134POPC   D2A67132  35.575  12.665   6.615
 5134POPC   C3A67133  35.514  12.884   7.022
 5134POPC   C4A67134  35.496  13.084   7.431
 5134POPC   C1B67135  35.132  12.767   6.365
 5134POPC   C2B67136  35.123  12.442   6.687
 5134POPC   C3B67137  35.297  12.421   7.102
 5134POPC   C4B67138  35.198  12.478   7.551
 5135POPC   NC367139  37.836   8.021   5.185
 5135POPC   PO467140  37.945   8.412   5.671
 5135POPC   GL167141  37.660   8.135   5.892
 5135POPC   GL267142  37.396   8.370   5.989
 5135POPC   C1A67143  37.771   7.953   6.322
 5135POPC   D2A67144  37.808   7.791   6.744
 5135POPC   C3A67145  37.658   8.044   7.095
 5135POPC   C4A67146  37.850   8.254   7.430
 5135POPC   C1B67147  37.752   8.472   6.287
 5135POPC   C2B67148  37.754   8.365   6.705
 5135POPC   C3B67149  37.612   8.567   7.076
 5135POPC   C4B67150  37.373   8.395   7.391
 5136POPC   NC367151  21.284  12.665   5.500
 5136POPC   PO467152  21.938  12.757   5.435
 5136POPC   GL167153  21.666  12.941   5.787
 5136POPC   GL267154  21.298  13.097   5.793
 5136POPC   C1A67155  21.484  12.825   6.199
 5136POPC   D2A67156  21.283  12.869   6.589
 5136POPC   C3A67157  21.554  12.817   6.915
 5136POPC   C4A67158  21.593  12.978   7.285
 5136POPC   C1B67159  21.144  13.252   6.207
 5136POPC   C2B67160  21.113  13.353   6.635
 5136POPC   C3B67161  21.327  13.327   6.995
 5136POPC   C4B67162  21.199  13.289   7.424
 5137POPC   NC367163  40.365  38.337   5.372
 5137POPC   PO467164  39.743  38.411   5.198
 5137POPC   GL167165  39.931  38.226   5.651
 5137POPC   GL267166  40.197  38.238   5.866
 5137POPC   C1A67167  39.759  38.201   6.115
 5137POPC   D2A67168  39.920  38.485   6.422
 5137POPC   C3A67169  39.904  38.449   6.857
 5137POPC   C4A67170  40.100  38.616   7.196
 5137POPC   C1B67171  40.427  38.281   6.242
 5137POPC   C2B67172  40.671  38.215   6.623
 5137POPC   C3B67173  40.491  38.317   7.018
 5137POPC   C4B67174  40.154  38.076   7.177
 5138POPC   NC367175   9.569  11.804   5.067
 5138POPC   PO467176   9.590  11.281   5.509
 5138POPC   GL167177   9.882  11.461   5.787
 5138POPC   GL267178   9.588  11.533   6.027
 5138POPC   C1A67179  10.055  11.433   6.205
 5138POPC   D2A67180   9.723  11.541   6.526
 5138POPC   C3A67181   9.758  11.323   6.924
 5138POPC   C4A67182   9.924  11.251   7.336
 5138POPC   C1B67183   9.246  11.271   6.233
 5138POPC   C2B67184   9.196  11.348   6.689
 5138POPC   C3B67185   9.298  11.438   7.119
 5138POPC   C4B67186   9.439  11.080   7.352
 5139POPC   NC367187  32.368  38.290   5.304
 5139POPC   PO467188  32.021  38.770   5.552
 5139POPC   GL167189  32.122  38.378   5.779
 5139POPC   GL267190  32.368  38.073   5.811
 5139POPC   C1A67191  32.337  38.473   6.182
 5139POPC   D2A67192  32.438  38.759   6.547
 5139POPC   C3A67193  32.415  38.481   6.927
 5139POPC   C4A67194  32.138  38.267   7.211
 5139POPC   C1B67195  32.585  38.023   6.232
 5139POPC   C2B67196  32.673  38.036   6.689
 5139POPC   C3B67197  32.643  38.051   7.154
 5139POPC   C4B67198  32.388  37.989   7.548
 5140POPC   NC367199   4.898  40.275   5.405
 5140POPC   PO467200   5.357  39.903   5.507
 5140POPC   GL167201   5.072  39.873   5.854
 5140POPC   GL267202   4.866  39.558   5.867
 5140POPC   C1A67203   5.076  40.121   6.257
 5140POPC   D2A67204   4.788  40.142   6.596
 5140POPC   C3A67205   4.855  40.290   7.028
 5140POPC   C4A67206   5.250  40.193   7.209
 5140POPC   C1B67207   4.974  39.619   6.330
 5140POPC   C2B67208   5.165  39.798   6.704
 5140POPC   C3B67209   5.222  39.704   7.122
 5140POPC   C4B67210   5.216  39.675   7.579
 5141POPC   NC367211  18.171  13.313   5.338
 5141POPC   PO467212  17.921  13.879   5.524
 5141POPC   GL167213  17.930  13.668   5.879
 5141POPC   GL267214  17.946  13.319   5.796
 5141POPC   C1A67215  17.937  13.707   6.283
 5141POPC   D2A67216  18.255  13.782   6.550
 5141POPC   C3A67217  18.102  13.677   6.918
 5141POPC   C4A67218  18.233  13.858   7.303
 5141POPC   C1B67219  18.355  13.421   6.034
 5141POPC   C2B67220  18.629  13.337   6.400
 5141POPC   C3B67221  18.557  13.353   6.842
 5141POPC   C4B67222  18.328  13.357   7.223
 5142POPC   NC367223  11.505   3.225   5.472
 5142POPC   PO467224  11.685   2.607   5.390
 5142POPC   GL167225  11.489   2.714   5.809
 5142POPC   GL267226  11.391   3.044   5.936
 5142POPC   C1A67227  11.347   2.603   6.231
 5142POPC   D2A67228  11.436   2.345   6.608
 5142POPC   C3A67229  11.195   2.511   6.979
 5142POPC   C4A67230  11.389   2.868   7.179
 5142POPC   C1B67231  11.071   3.039   6.277
 5142POPC   C2B67232  11.069   2.888   6.683
 5142POPC   C3B67233  10.929   3.047   7.076
 5142POPC   C4B67234  10.913   3.480   7.229
 5143POPC   NC367235   6.559  17.981   5.204
 5143POPC   PO467236   6.924  18.380   5.514
 5143POPC   GL167237   6.747  18.111   5.816
 5143POPC   GL267238   6.560  18.375   5.995
 5143POPC   C1A67239   6.607  17.897   6.200
 5143POPC   D2A67240   6.534  18.122   6.605
 5143POPC   C3A67241   6.806  18.108   6.978
 5143POPC   C4A67242   7.044  18.454   7.197
 5143POPC   C1B67243   6.267  18.692   6.199
 5143POPC   C2B67244   6.164  18.584   6.681
 5143POPC   C3B67245   6.350  18.396   7.030
 5143POPC   C4B67246   6.447  18.567   7.429
 5144POPC   NC367247  28.252  42.608   5.631
 5144POPC   PO467248  28.735  42.253   5.342
 5144POPC   GL167249  28.451  42.133   5.731
 5144POPC   GL267250  28.583  42.358   5.988
 5144POPC   C1A67251  28.198  42.080   6.139
 5144POPC   D2A67252  28.466  42.130   6.509
 5144POPC   C3A67253  28.316  42.032   6.894
 5144POPC   C4A67254  28.176  42.189   7.257
 5144POPC   C1B67255  28.328  42.572   6.317
 5144POPC   C2B67256  28.374  42.693   6.765
 5144POPC   C3B67257  28.441  42.646   7.206
 5144POPC   C4B67258  28.646  42.540   7.573
 5145POPC   NC367259   9.608  34.291   5.430
 5145POPC   PO467260   9.903  34.851   5.022
 5145POPC   GL167261   9.719  34.772   5.567
 5145POPC   GL267262  10.028  34.769   5.840
 5145POPC   C1A67263   9.626  34.543   6.032
 5145POPC   D2A67264   9.375  34.528   6.429
 5145POPC   C3A67265   9.543  34.504   6.834
 5145POPC   C4A67266   9.567  34.294   7.191
 5145POPC   C1B67267  10.101  34.585   6.224
 5145POPC   C2B67268  10.014  34.429   6.639
 5145POPC   C3B67269  10.038  34.596   7.065
 5145POPC   C4B67270   9.924  34.470   7.508
 5146POPC   NC367271  32.549  35.245   5.441
 5146POPC   PO467272  31.903  35.436   5.339
 5146POPC   GL167273  32.233  35.545   5.706
 5146POPC   GL267274  32.222  35.250   5.912
 5146POPC   C1A67275  32.479  35.598   6.152
 5146POPC   D2A67276  32.463  35.321   6.552
 5146POPC   C3A67277  32.488  35.502   6.982
 5146POPC   C4A67278  32.121  35.563   7.234
 5146POPC   C1B67279  32.647  35.105   6.121
 5146POPC   C2B67280  32.671  34.820   6.508
 5146POPC   C3B67281  32.646  34.972   6.929
 5146POPC   C4B67282  32.363  35.080   7.297
 5147POPC   NC367283   7.164  17.975   5.514
 5147POPC   PO467284   7.541  17.368   5.411
 5147POPC   GL167285   7.534  17.630   5.737
 5147POPC   GL267286   7.205  17.542   5.808
 5147POPC   C1A67287   7.667  17.543   6.160
 5147POPC   D2A67288   7.459  17.628   6.545
 5147POPC   C3A67289   7.678  17.641   6.934
 5147POPC   C4A67290   7.672  17.590   7.381
 5147POPC   C1B67291   7.121  17.774   6.168
 5147POPC   C2B67292   6.953  17.775   6.579
 5147POPC   C3B67293   7.151  17.714   6.957
 5147POPC   C4B67294   7.165  17.661   7.370
 5148POPC   NC367295   8.464   4.714   5.411
 5148POPC   PO467296   8.001   5.202   5.410
 5148POPC   GL167297   7.851   4.955   5.762
 5148POPC   GL267298   8.207   4.959   5.864
 5148POPC   C1A67299   7.873   4.715   6.162
 5148POPC   D2A67300   8.114   4.824   6.524
 5148POPC   C3A67301   7.936   5.025   6.859
 5148POPC   C4A67302   7.847   5.179   7.265
 5148POPC   C1B67303   8.424   5.157   6.224
 5148POPC   C2B67304   8.327   5.299   6.663
 5148POPC   C3B67305   8.344   5.219   7.134
 5148POPC   C4B67306   8.618   5.337   7.490
 5149POPC   NC367307  30.277  44.049   5.411
 5149POPC   PO467308  29.741  43.691   5.436
 5149POPC   GL167309  30.022  43.859   5.819
 5149POPC   GL267310  30.218  44.190   5.891
 5149POPC   C1A67311  30.205  43.847   6.280
 5149POPC   D2A67312  30.112  43.773   6.764
 5149POPC   C3A67313  29.707  43.972   6.957
 5149POPC   C4A67314  29.563  43.992   7.403
 5149POPC   C1B67315  30.110  44.380   6.279
 5149POPC   C2B67316  30.298  44.460   6.688
 5149POPC   C3B67317  30.377  44.154   7.009
 5149POPC   C4B67318  30.079  43.973   7.297
 5150POPC   NC367319  35.018   7.632   5.735
 5150POPC   PO467320  34.361   7.641   5.447
 5150POPC   GL167321  34.486   7.417   5.879
 5150POPC   GL267322  34.735   7.163   5.967
 5150POPC   C1A67323  34.308   7.220   6.268
 5150POPC   D2A67324  34.235   7.243   6.723
 5150POPC   C3A67325  34.292   7.211   7.175
 5150POPC   C4A67326  34.079   6.958   7.515
 5150POPC   C1B67327  34.798   7.412   6.340
 5150POPC   C2B67328  34.703   7.414   6.795
 5150POPC   C3B67329  34.912   7.473   7.168
 5150POPC   C4B67330  34.763   7.641   7.541
 5151POPC   NC367331  19.079  32.587   5.376
 5151POPC   PO467332  19.257  31.919   5.255
 5151POPC   GL167333  19.025  32.176   5.658
 5151POPC   GL267334  18.855  31.912   5.816
 5151POPC   C1A67335  19.113  32.322   6.121
 5151POPC   D2A67336  19.183  32.433   6.571
 5151POPC   C3A67337  18.920  32.422   6.938
 5151POPC   C4A67338  18.923  32.289   7.367
 5151POPC   C1B67339  18.977  31.817   6.262
 5151POPC   C2B67340  18.853  32.008   6.656
 5151POPC   C3B67341  18.694  31.943   7.090
 5151POPC   C4B67342  18.690  31.851   7.570
 5152POPC   NC367343  25.046  43.136   5.365
 5152POPC   PO467344  25.728  43.260   5.397
 5152POPC   GL167345  25.500  42.981   5.728
 5152POPC   GL267346  25.152  43.124   5.860
 5152POPC   C1A67347  25.380  42.800   6.167
 5152POPC   D2A67348  25.173  43.006   6.527
 5152POPC   C3A67349  25.296  43.054   6.969
 5152POPC   C4A67350  25.385  42.810   7.335
 5152POPC   C1B67351  24.883  43.331   6.181
 5152POPC   C2B67352  24.785  43.331   6.630
 5152POPC   C3B67353  24.768  43.121   7.028
 5152POPC   C4B67354  24.983  43.103   7.419
 5153POPC   NC367355   4.990  25.237   5.252
 5153POPC   PO467356   5.449  25.666   5.410
 5153POPC   GL167357   5.183  25.437   5.710
 5153POPC   GL267358   5.102  25.074   5.802
 5153POPC   C1A67359   5.245  25.382   6.169
 5153POPC   D2A67360   5.029  25.350   6.578
 5153POPC   C3A67361   5.236  25.485   6.951
 5153POPC   C4A67362   5.233  25.462   7.408
 5153POPC   C1B67363   5.213  24.895   6.270
 5153POPC   C2B67364   5.146  24.879   6.749
 5153POPC   C3B67365   5.162  24.992   7.194
 5153POPC   C4B67366   5.017  24.862   7.603
 5154POPC   NC367367  29.093  30.430   5.385
 5154POPC   PO467368  29.379  31.076   5.491
 5154POPC   GL167369  29.139  30.980   5.856
 5154POPC   GL267370  29.040  30.646   5.833
 5154POPC   C1A67371  29.338  31.041   6.260
 5154POPC   D2A67372  29.374  31.098   6.666
 5154POPC   C3A67373  29.610  30.830   6.923
 5154POPC   C4A67374  29.415  30.626   7.265
 5154POPC   C1B67375  29.176  30.579   6.267
 5154POPC   C2B67376  29.181  30.602   6.723
 5154POPC   C3B67377  28.933  30.554   7.102
 5154POPC   C4B67378  28.886  30.182   7.384
 5155POPC   NC367379   1.904  15.238   5.560
 5155POPC   PO467380   2.403  14.795   5.829
 5155POPC   GL167381   2.213  15.131   5.997
 5155POPC   GL267382   2.207  15.471   5.922
 5155POPC   C1A67383   2.201  15.210   6.443
 5155POPC   D2A67384   2.189  14.896   6.756
 5155POPC   C3A67385   2.150  15.005   7.139
 5155POPC   C4A67386   1.917  14.943   7.471
 5155POPC   C1B67387   1.790  15.349   6.184
 5155POPC   C2B67388   1.714  15.111   6.573
 5155POPC   C3B67389   1.708  15.216   7.028
 5155POPC   C4B67390   1.640  15.589   7.262
 5156POPC   NC367391   1.511  20.931   5.658
 5156POPC   PO467392   1.032  20.560   5.419
 5156POPC   GL167393   1.137  20.587   5.831
 5156POPC   GL267394   1.471  20.434   5.838
 5156POPC   C1A67395   1.200  20.781   6.219
 5156POPC   D2A67396   1.030  20.810   6.627
 5156POPC   C3A67397   1.368  20.716   6.881
 5156POPC   C4A67398   1.344  20.634   7.297
 5156POPC   C1B67399   1.337  20.280   6.251
 5156POPC   C2B67400   1.256  20.181   6.696
 5156POPC   C3B67401   1.011  20.383   6.988
 5156POPC   C4B67402   0.912  20.375   7.416
 5157POPC   NC367403  41.462   6.952   4.847
 5157POPC   PO467404  41.824   6.651   5.359
 5157POPC   GL167405  41.762   6.620   5.824
 5157POPC   GL267406  41.373   6.586   5.868
 5157POPC   C1A67407  41.693   6.924   6.184
 5157POPC   D2A67408  41.481   6.993   6.582
 5157POPC   C3A67409  41.729   7.075   6.936
 5157POPC   C4A67410  41.704   6.792   7.282
 5157POPC   C1B67411  41.193   6.768   6.214
 5157POPC   C2B67412  41.130   6.542   6.559
 5157POPC   C3B67413  41.415   6.435   6.829
 5157POPC   C4B67414  41.362   6.422   7.219
 5158POPC   NC367415  13.300  16.916   5.490
 5158POPC   PO467416  13.926  16.871   5.261
 5158POPC   GL167417  13.742  16.630   5.658
 5158POPC   GL267418  14.071  16.712   5.761
 5158POPC   C1A67419  13.440  16.693   6.089
 5158POPC   D2A67420  13.263  16.846   6.516
 5158POPC   C3A67421  13.448  16.613   6.875
 5158POPC   C4A67422  13.490  16.628   7.322
 5158POPC   C1B67423  13.928  16.799   6.151
 5158POPC   C2B67424  13.778  16.889   6.566
 5158POPC   C3B67425  13.895  16.831   6.990
 5158POPC   C4B67426  13.812  16.994   7.390
 5159POPC   NC367427   6.445  44.053   5.049
 5159POPC   PO467428   6.617  44.125   5.666
 5159POPC   GL167429   6.564  43.747   5.908
 5159POPC   GL267430   6.228  43.847   5.875
 5159POPC   C1A67431   6.674  43.723   6.337
 5159POPC   D2A67432   6.721  44.013   6.654
 5159POPC   C3A67433   6.618  43.815   7.010
 5159POPC   C4A67434   6.726  43.574   7.317
 5159POPC   C1B67435   6.291  44.081   6.272
 5159POPC   C2B67436   6.225  44.074   6.716
 5159POPC   C3B67437   6.311  44.220   7.117
 5159POPC   C4B67438   6.719  44.203   7.318
 5160POPC   NC367439  40.066   6.099   5.359
 5160POPC   PO467440  39.665   5.696   5.529
 5160POPC   GL167441  39.859   5.925   5.832
 5160POPC   GL267442  40.111   5.716   5.854
 5160POPC   C1A67443  40.133   6.081   6.221
 5160POPC   D2A67444  40.205   6.269   6.657
 5160POPC   C3A67445  39.979   6.109   7.046
 5160POPC   C4A67446  40.106   5.933   7.473
 5160POPC   C1B67447  39.795   5.697   6.268
 5160POPC   C2B67448  39.763   5.734   6.726
 5160POPC   C3B67449  39.894   5.599   7.150
 5160POPC   C4B67450  39.896   5.484   7.632
 5161POPC   NC367451   3.407  10.844   5.468
 5161POPC   PO467452   3.265  11.470   5.500
 5161POPC   GL167453   3.549  11.217   5.824
 5161POPC   GL267454   3.851  10.989   5.721
 5161POPC   C1A67455   3.492  11.118   6.297
 5161POPC   D2A67456   3.171  11.275   6.616
 5161POPC   C3A67457   3.096  11.145   7.061
 5161POPC   C4A67458   2.954  11.313   7.470
 5161POPC   C1B67459   3.988  11.199   6.121
 5161POPC   C2B67460   3.944  11.137   6.569
 5161POPC   C3B67461   3.592  11.082   6.833
 5161POPC   C4B67462   3.568  11.266   7.224
 5162POPC   NC367463  42.628  34.780   5.367
 5162POPC   PO467464  42.152  34.303   5.309
 5162POPC   GL167465  42.121  34.356   5.768
 5162POPC   GL267466  42.260  34.690   5.817
 5162POPC   C1A67467  42.263  34.341   6.190
 5162POPC   D2A67468  42.315  34.600   6.535
 5162POPC   C3A67469  42.383  34.386   6.914
 5162POPC   C4A67470  42.216  34.483   7.331
 5162POPC   C1B67471  42.606  34.720   6.092
 5162POPC   C2B67472  42.785  34.838   6.499
 5162POPC   C3B67473  42.842  34.778   6.945
 5162POPC   C4B67474  42.701  34.615   7.333
 5163POPC   NC367475  27.513  43.828   5.085
 5163POPC   PO467476  28.030  44.101   5.351
 5163POPC   GL167477  27.719  43.936   5.611
 5163POPC   GL267478  27.843  43.595   5.624
 5163POPC   C1A67479  27.671  43.975   6.075
 5163POPC   D2A67480  27.580  44.195   6.493
 5163POPC   C3A67481  27.459  44.021   6.877
 5163POPC   C4A67482  27.744  43.900   7.151
 5163POPC   C1B67483  27.828  43.471   6.088
 5163POPC   C2B67484  27.669  43.669   6.502
 5163POPC   C3B67485  27.680  43.473   6.929
 5163POPC   C4B67486  27.449  43.515   7.347
 5164POPC   NC367487  17.214  30.774   5.466
 5164POPC   PO467488  17.684  30.352   5.547
 5164POPC   GL167489  17.564  30.647   5.865
 5164POPC   GL267490  17.737  30.996   5.809
 5164POPC   C1A67491  17.353  30.512   6.245
 5164POPC   D2A67492  17.225  30.298   6.632
 5164POPC   C3A67493  17.208  30.582   7.004
 5164POPC   C4A67494  17.274  30.999   7.226
 5164POPC   C1B67495  17.744  30.931   6.274
 5164POPC   C2B67496  17.865  30.919   6.713
 5164POPC   C3B67497  17.699  30.783   7.106
 5164POPC   C4B67498  17.524  30.346   7.316
 5165POPC   NC367499  27.281  25.981   5.470
 5165POPC   PO467500  27.968  26.297   5.423
 5165POPC   GL167501  27.665  26.211   5.772
 5165POPC   GL267502  27.697  25.835   5.749
 5165POPC   C1A67503  27.447  26.359   6.186
 5165POPC   D2A67504  27.267  26.461   6.597
 5165POPC   C3A67505  27.498  26.305   6.957
 5165POPC   C4A67506  27.799  26.031   7.159
 5165POPC   C1B67507  27.449  25.859   6.120
 5165POPC   C2B67508  27.553  25.964   6.544
 5165POPC   C3B67509  27.400  25.806   6.919
 5165POPC   C4B67510  27.119  25.476   7.098
 5166POPC   NC367511  12.015   3.817   5.432
 5166POPC   PO467512  11.306   3.624   5.364
 5166POPC   GL167513  11.199   3.518   5.799
 5166POPC   GL267514  11.055   3.853   5.775
 5166POPC   C1A67515  11.292   3.480   6.265
 5166POPC   D2A67516  11.035   3.405   6.680
 5166POPC   C3A67517  11.355   3.362   7.028
 5166POPC   C4A67518  11.742   3.444   7.281
 5166POPC   C1B67519  10.947   3.830   6.209
 5166POPC   C2B67520  11.093   3.908   6.612
 5166POPC   C3B67521  11.083   3.916   7.053
 5166POPC   C4B67522  11.175   3.873   7.498
 5167POPC   NC367523  32.002  39.896   5.484
 5167POPC   PO467524  32.558  40.385   5.590
 5167POPC   GL167525  32.197  40.227   5.842
 5167POPC   GL267526  32.144  39.848   5.969
 5167POPC   C1A67527  32.148  40.243   6.279
 5167POPC   D2A67528  32.166  39.943   6.627
 5167POPC   C3A67529  32.136  40.180   7.010
 5167POPC   C4A67530  32.460  40.393   7.216
 5167POPC   C1B67531  32.519  39.875   6.215
 5167POPC   C2B67532  32.688  39.779   6.598
 5167POPC   C3B67533  32.570  39.911   6.978
 5167POPC   C4B67534  32.317  39.716   7.278
 5168POPC   NC367535   7.060  32.477   5.107
 5168POPC   PO467536   7.246  33.106   5.304
 5168POPC   GL167537   7.383  32.959   5.719
 5168POPC   GL267538   7.323  32.609   5.837
 5168POPC   C1A67539   7.276  33.075   6.142
 5168POPC   D2A67540   7.184  32.901   6.548
 5168POPC   C3A67541   7.309  33.159   6.915
 5168POPC   C4A67542   7.114  33.149   7.324
 5168POPC   C1B67543   7.556  32.643   6.237
 5168POPC   C2B67544   7.496  32.472   6.663
 5168POPC   C3B67545   7.242  32.654   7.005
 5168POPC   C4B67546   7.405  32.738   7.418
 5169POPC   NC367547  15.707   9.146   5.490
 5169POPC   PO467548  16.211   8.670   5.473
 5169POPC   GL167549  16.085   8.878   5.809
 5169POPC   GL267550  15.789   8.754   5.888
 5169POPC   C1A67551  16.148   8.779   6.268
 5169POPC   D2A67552  16.062   9.052   6.615
 5169POPC   C3A67553  16.099   8.971   7.056
 5169POPC   C4A67554  16.405   8.880   7.348
 5169POPC   C1B67555  15.805   9.153   6.146
 5169POPC   C2B67556  15.659   9.369   6.525
 5169POPC   C3B67557  15.641   9.172   6.901
 5169POPC   C4B67558  15.676   9.159   7.310
 5170POPC   NC367559  26.840   8.382   5.260
 5170POPC   PO467560  26.281   8.519   5.552
 5170POPC   GL167561  26.744   8.429   5.790
 5170POPC   GL267562  27.117   8.484   5.696
 5170POPC   C1A67563  26.898   8.152   6.177
 5170POPC   D2A67564  26.886   7.940   6.596
 5170POPC   C3A67565  26.756   8.155   6.943
 5170POPC   C4A67566  26.932   8.124   7.347
 5170POPC   C1B67567  27.153   8.595   6.170
 5170POPC   C2B67568  26.960   8.524   6.619
 5170POPC   C3B67569  26.983   8.596   7.122
 5170POPC   C4B67570  27.211   8.491   7.555
 5171POPC   NC367571  36.251  25.194   5.371
 5171POPC   PO467572  35.690  24.994   5.531
 5171POPC   GL167573  35.992  25.226   5.806
 5171POPC   GL267574  35.879  25.499   5.936
 5171POPC   C1A67575  36.393  25.352   6.050
 5171POPC   D2A67576  36.610  25.420   6.478
 5171POPC   C3A67577  36.436  25.464   6.916
 5171POPC   C4A67578  36.354  25.126   7.223
 5171POPC   C1B67579  35.962  25.318   6.329
 5171POPC   C2B67580  35.971  25.515   6.707
 5171POPC   C3B67581  35.931  25.430   7.127
 5171POPC   C4B67582  35.870  25.285   7.539
 5172POPC   NC367583  12.744  34.709   5.319
 5172POPC   PO467584  13.390  34.711   5.507
 5172POPC   GL167585  13.024  34.635   5.774
 5172POPC   GL267586  12.797  34.882   5.830
 5172POPC   C1A67587  12.979  34.487   6.214
 5172POPC   D2A67588  13.127  34.669   6.592
 5172POPC   C3A67589  12.931  34.581   6.970
 5172POPC   C4A67590  12.882  34.952   7.213
 5172POPC   C1B67591  12.496  34.603   6.076
 5172POPC   C2B67592  12.483  34.447   6.505
 5172POPC   C3B67593  12.422  34.612   6.924
 5172POPC   C4B67594  12.557  34.276   7.171
 5173POPC   NC367595   8.901   1.644   5.413
 5173POPC   PO467596   8.682   1.013   5.398
 5173POPC   GL167597   8.957   1.153   5.715
 5173POPC   GL267598   8.714   1.376   5.816
 5173POPC   C1A67599   8.994   1.074   6.181
 5173POPC   D2A67600   9.139   1.146   6.618
 5173POPC   C3A67601   8.923   0.968   6.980
 5173POPC   C4A67602   8.726   1.257   7.240
 5173POPC   C1B67603   8.788   1.720   6.095
 5173POPC   C2B67604   8.700   1.773   6.526
 5173POPC   C3B67605   8.802   1.691   6.960
 5173POPC   C4B67606   8.573   1.735   7.337
 5174POPC   NC367607  28.389  26.065   5.401
 5174POPC   PO467608  28.890  26.476   5.555
 5174POPC   GL167609  28.532  26.233   5.873
 5174POPC   GL267610  28.162  26.066   5.863
 5174POPC   C1A67611  28.351  26.125   6.324
 5174POPC   D2A67612  28.003  26.190   6.658
 5174POPC   C3A67613  28.213  26.306   7.039
 5174POPC   C4A67614  28.633  26.149   7.197
 5174POPC   C1B67615  27.946  25.813   6.229
 5174POPC   C2B67616  27.949  25.669   6.695
 5174POPC   C3B67617  28.273  25.789   7.018
 5174POPC   C4B67618  28.226  25.947   7.444
 5175POPC   NC367619  34.156  32.615   5.444
 5175POPC   PO467620  33.424  32.409   5.331
 5175POPC   GL167621  33.639  32.305   5.833
 5175POPC   GL267622  33.960  32.461   5.930
 5175POPC   C1A67623  33.534  32.140   6.231
 5175POPC   D2A67624  33.753  32.009   6.614
 5175POPC   C3A67625  33.672  32.110   7.030
 5175POPC   C4A67626  34.017  32.200   7.281
 5175POPC   C1B67627  33.933  32.445   6.386
 5175POPC   C2B67628  34.141  32.334   6.770
 5175POPC   C3B67629  34.285  32.588   7.086
 5175POPC   C4B67630  34.076  32.673   7.478
 5176POPC   NC367631  11.746  36.996   5.449
 5176POPC   PO467632  12.379  36.997   5.409
 5176POPC   GL167633  12.125  36.912   5.771
 5176POPC   GL267634  12.287  37.167   5.944
 5176POPC   C1A67635  11.898  36.822   6.187
 5176POPC   D2A67636  11.616  36.937   6.536
 5176POPC   C3A67637  11.745  36.870   6.964
 5176POPC   C4A67638  12.048  36.855   7.279
 5176POPC   C1B67639  12.400  36.762   6.158
 5176POPC   C2B67640  12.274  36.541   6.481
 5176POPC   C3B67641  12.145  36.577   6.862
 5176POPC   C4B67642  12.218  36.381   7.235
 5177POPC   NC367643  31.551   7.842   5.433
 5177POPC   PO467644  31.095   7.366   5.548
 5177POPC   GL167645  31.232   7.628   5.856
 5177POPC   GL267646  31.595   7.572   5.881
 5177POPC   C1A67647  31.253   7.415   6.264
 5177POPC   D2A67648  31.456   7.436   6.674
 5177POPC   C3A67649  31.312   7.340   7.085
 5177POPC   C4A67650  31.316   7.368   7.555
 5177POPC   C1B67651  31.771   7.371   6.257
 5177POPC   C2B67652  31.964   7.407   6.674
 5177POPC   C3B67653  31.816   7.202   7.047
 5177POPC   C4B67654  31.820   7.325   7.490
 5178POPC   NC367655   6.250  44.429   5.589
 5178POPC   PO467656   6.710  44.447   5.103
 5178POPC   GL167657   6.711  44.623   5.631
 5178POPC   GL267658   6.970  44.714   5.849
 5178POPC   C1A67659   6.537  44.671   6.102
 5178POPC   D2A67660   6.732  44.541   6.472
 5178POPC   C3A67661   6.548  44.607   6.852
 5178POPC   C4A67662   6.540  44.706   7.257
 5178POPC   C1B67663   6.971   0.030   6.167
 5178POPC   C2B67664   6.813   0.094   6.571
 5178POPC   C3B67665   6.890  44.985   6.975
 5178POPC   C4B67666   7.182   0.151   7.305
 5179POPC   NC367667  41.637  24.346   5.387
 5179POPC   PO467668  41.034  24.301   5.647
 5179POPC   GL167669  41.410  24.538   5.814
 5179POPC   GL267670  41.782  24.393   5.863
 5179POPC   C1A67671  41.551  24.713   6.209
 5179POPC   D2A67672  41.371  24.814   6.613
 5179POPC   C3A67673  41.620  24.716   6.990
 5179POPC   C4A67674  41.485  24.638   7.427
 5179POPC   C1B67675  42.044  24.578   6.180
 5179POPC   C2B67676  41.980  24.737   6.579
 5179POPC   C3B67677  42.035  24.457   6.882
 5179POPC   C4B67678  41.892  24.344   7.253
 5180POPC   NC367679  11.896  23.384   5.329
 5180POPC   PO467680  12.252  23.992   5.357
 5180POPC   GL167681  12.001  23.798   5.667
 5180POPC   GL267682  12.200  23.541   5.723
 5180POPC   C1A67683  12.042  23.864   6.140
 5180POPC   D2A67684  12.341  23.929   6.501
 5180POPC   C3A67685  12.217  24.051   6.937
 5180POPC   C4A67686  11.876  23.881   7.172
 5180POPC   C1B67687  11.991  23.364   6.096
 5180POPC   C2B67688  11.881  23.299   6.551
 5180POPC   C3B67689  11.993  23.418   6.978
 5180POPC   C4B67690  12.172  23.420   7.399
 5181POPC   NC367691  25.961  42.776   5.439
 5181POPC   PO467692  26.319  42.148   5.338
 5181POPC   GL167693  26.076  42.326   5.667
 5181POPC   GL267694  25.801  42.141   5.807
 5181POPC   C1A67695  26.170  42.539   6.057
 5181POPC   D2A67696  26.365  42.397   6.431
 5181POPC   C3A67697  26.139  42.453   6.814
 5181POPC   C4A67698  25.951  42.290   7.181
 5181POPC   C1B67699  25.877  42.168   6.277
 5181POPC   C2B67700  25.659  42.256   6.670
 5181POPC   C3B67701  25.599  41.970   7.021
 5181POPC   C4B67702  25.692  41.974   7.496
 5182POPC   NC367703  29.845  31.061   5.575
 5182POPC   PO467704  29.547  30.485   5.493
 5182POPC   GL167705  29.581  30.707   5.894
 5182POPC   GL267706  29.943  30.696   5.920
 5182POPC   C1A67707  29.678  30.635   6.357
 5182POPC   D2A67708  30.078  30.680   6.559
 5182POPC   C3A67709  30.137  30.441   6.938
 5182POPC   C4A67710  29.920  30.494   7.319
 5182POPC   C1B67711  29.921  31.073   6.230
 5182POPC   C2B67712  30.114  31.174   6.644
 5182POPC   C3B67713  30.092  30.942   7.047
 5182POPC   C4B67714  30.138  30.921   7.520
 5183POPC   NC367715  43.296   2.218   5.099
 5183POPC   PO467716  42.887   1.833   5.503
 5183POPC   GL167717  43.134   1.954   5.798
 5183POPC   GL267718  43.432   1.737   5.797
 5183POPC   C1A67719  43.101   1.871   6.211
 5183POPC   D2A67720  43.041   2.066   6.580
 5183POPC   C3A67721  43.113   1.909   6.931
 5183POPC   C4A67722  42.965   2.089   7.259
 5183POPC   C1B67723  43.437   1.480   6.194
 5183POPC   C2B67724  43.279   1.525   6.629
 5183POPC   C3B67725  43.456   1.465   7.024
 5183POPC   C4B67726  43.316   1.706   7.372
 5184POPC   NC367727  15.285   3.956   5.426
 5184POPC   PO467728  14.938   4.522   5.452
 5184POPC   GL167729  15.037   4.233   5.795
 5184POPC   GL267730  15.413   4.290   5.829
 5184POPC   C1A67731  15.107   4.113   6.245
 5184POPC   D2A67732  15.327   3.992   6.635
 5184POPC   C3A67733  15.039   3.986   6.970
 5184POPC   C4A67734  14.981   4.406   7.148
 5184POPC   C1B67735  15.629   4.233   6.247
 5184POPC   C2B67736  15.649   4.404   6.683
 5184POPC   C3B67737  15.504   4.227   7.077
 5184POPC   C4B67738  15.540   4.264   7.512
 5185POPC   NC367739  19.835  39.499   5.139
 5185POPC   PO467740  19.318  39.183   5.488
 5185POPC   GL167741  19.542  39.175   5.877
 5185POPC   GL267742  19.852  39.346   5.815
 5185POPC   C1A67743  19.690  39.350   6.293
 5185POPC   D2A67744  19.950  39.166   6.593
 5185POPC   C3A67745  19.843  38.973   6.984
 5185POPC   C4A67746  20.041  38.853   7.373
 5185POPC   C1B67747  20.114  39.626   6.125
 5185POPC   C2B67748  20.127  39.692   6.569
 5185POPC   C3B67749  19.999  39.491   6.974
 5185POPC   C4B67750  19.702  39.349   7.289
 5186POPC   NC367751  11.574   0.632   5.353
 5186POPC   PO467752  11.020   0.265   5.189
 5186POPC   GL167753  11.122   0.417   5.663
 5186POPC   GL267754  11.479   0.453   5.839
 5186POPC   C1A67755  11.029   0.491   6.126
 5186POPC   D2A67756  10.884   0.623   6.547
 5186POPC   C3A67757  11.017   0.578   6.972
 5186POPC   C4A67758  11.143   0.181   7.192
 5186POPC   C1B67759  11.451   0.230   6.266
 5186POPC   C2B67760  11.337   0.277   6.712
 5186POPC   C3B67761  11.511   0.524   7.118
 5186POPC   C4B67762  11.506   0.350   7.543
 5187POPC   NC367763  17.223  36.416   5.361
 5187POPC   PO467764  17.778  36.883   5.301
 5187POPC   GL167765  17.531  36.793   5.671
 5187POPC   GL267766  17.775  36.571   5.755
 5187POPC   C1A67767  17.332  37.055   6.007
 5187POPC   D2A67768  17.440  37.249   6.398
 5187POPC   C3A67769  17.362  36.976   6.735
 5187POPC   C4A67770  17.359  37.032   7.152
 5187POPC   C1B67771  17.746  36.794   6.164
 5187POPC   C2B67772  17.703  36.601   6.584
 5187POPC   C3B67773  17.772  36.730   7.011
 5187POPC   C4B67774  17.861  37.139   7.152
 5188POPC   NC367775  36.651   9.177   5.657
 5188POPC   PO467776  36.084   8.866   5.513
 5188POPC   GL167777  35.964   9.039   5.909
 5188POPC   GL267778  36.238   9.204   5.960
 5188POPC   C1A67779  35.960   9.063   6.390
 5188POPC   D2A67780  36.052   8.746   6.723
 5188POPC   C3A67781  35.991   8.842   7.158
 5188POPC   C4A67782  35.940   9.255   7.361
 5188POPC   C1B67783  36.471   8.958   6.252
 5188POPC   C2B67784  36.527   8.973   6.669
 5188POPC   C3B67785  36.370   9.159   7.007
 5188POPC   C4B67786  36.455   8.976   7.364
 5189POPC   NC367787  18.284   8.893   5.561
 5189POPC   PO467788  18.212   9.514   5.529
 5189POPC   GL167789  18.103   9.254   5.890
 5189POPC   GL267790  18.467   9.159   5.940
 5189POPC   C1A67791  18.086   8.881   6.181
 5189POPC   D2A67792  18.015   8.760   6.608
 5189POPC   C3A67793  18.246   8.923   6.957
 5189POPC   C4A67794  18.152   8.759   7.344
 5189POPC   C1B67795  18.606   8.828   6.219
 5189POPC   C2B67796  18.529   8.695   6.606
 5189POPC   C3B67797  18.728   8.713   6.992
 5189POPC   C4B67798  18.643   8.979   7.321
 5190POPC   NC367799  22.765  31.427   5.186
 5190POPC   PO467800  23.343  31.595   5.376
 5190POPC   GL167801  23.022  31.482   5.675
 5190POPC   GL267802  23.076  31.184   5.832
 5190POPC   C1A67803  22.873  31.624   6.092
 5190POPC   D2A67804  23.103  31.794   6.458
 5190POPC   C3A67805  22.930  31.828   6.855
 5190POPC   C4A67806  23.059  31.771   7.285
 5190POPC   C1B67807  22.850  31.134   6.219
 5190POPC   C2B67808  22.965  31.291   6.627
 5190POPC   C3B67809  23.040  31.310   7.058
 5190POPC   C4B67810  22.782  31.184   7.398
 5191POPC   NC367811  15.689  16.820   5.647
 5191POPC   PO467812  15.345  16.308   5.434
 5191POPC   GL167813  15.058  16.472   5.758
 5191POPC   GL267814  15.176  16.804   5.844
 5191POPC   C1A67815  14.844  16.532   6.181
 5191POPC   D2A67816  14.684  16.585   6.617
 5191POPC   C3A67817  15.020  16.587   6.916
 5191POPC   C4A67818  15.297  16.705   7.232
 5191POPC   C1B67819  15.356  16.895   6.263
 5191POPC   C2B67820  15.147  17.015   6.664
 5191POPC   C3B67821  15.241  17.181   7.078
 5191POPC   C4B67822  15.083  17.310   7.500
 5192POPC   NC367823  43.700  18.817   5.424
 5192POPC   PO467824  44.082  19.415   5.392
 5192POPC   GL167825  44.027  19.108   5.719
 5192POPC   GL267826  43.710  19.057   5.870
 5192POPC   C1A67827  44.145  19.119   6.151
 5192POPC   D2A67828  43.869  19.314   6.442
 5192POPC   C3A67829  43.955  19.204   6.883
 5192POPC   C4A67830  44.332  19.225   7.144
 5192POPC   C1B67831  43.831  18.731   6.183
 5192POPC   C2B67832  44.050  18.749   6.596
 5192POPC   C3B67833  43.991  18.660   7.050
 5192POPC   C4B67834  43.906  18.964   7.378
 5193POPC   NC367835  15.414  42.504   5.311
 5193POPC   PO467836  15.200  41.863   5.468
 5193POPC   GL167837  15.199  42.161   5.818
 5193POPC   GL267838  15.465  42.413   5.806
 5193POPC   C1A67839  15.094  42.162   6.263
 5193POPC   D2A67840  15.029  42.059   6.716
 5193POPC   C3A67841  14.868  42.368   7.028
 5193POPC   C4A67842  14.888  42.358   7.471
 5193POPC   C1B67843  15.598  42.562   6.193
 5193POPC   C2B67844  15.461  42.367   6.549
 5193POPC   C3B67845  15.380  42.352   6.964
 5193POPC   C4B67846  15.662  42.541   7.236
 5194POPC   NC367847  26.393   5.091   5.388
 5194POPC   PO467848  25.995   4.694   5.364
 5194POPC   GL167849  26.088   4.915   5.777
 5194POPC   GL267850  26.446   4.916   5.868
 5194POPC   C1A67851  26.117   4.968   6.271
 5194POPC   D2A67852  26.285   4.929   6.725
 5194POPC   C3A67853  26.038   5.093   7.093
 5194POPC   C4A67854  26.097   5.270   7.493
 5194POPC   C1B67855  26.510   5.272   6.146
 5194POPC   C2B67856  26.333   5.413   6.550
 5194POPC   C3B67857  26.457   5.374   6.977
 5194POPC   C4B67858  26.565   5.503   7.356
 5195POPC   NC367859  30.327  41.666   5.375
 5195POPC   PO467860  29.970  41.122   5.561
 5195POPC   GL167861  30.178  41.450   5.815
 5195POPC   GL267862  30.062  41.834   5.829
 5195POPC   C1A67863  30.028  41.474   6.224
 5195POPC   D2A67864  29.649  41.456   6.458
 5195POPC   C3A67865  29.796  41.316   6.851
 5195POPC   C4A67866  30.039  41.507   7.183
 5195POPC   C1B67867  29.854  41.945   6.258
 5195POPC   C2B67868  29.868  41.851   6.728
 5195POPC   C3B67869  29.769  41.926   7.174
 5195POPC   C4B67870  30.044  41.902   7.559
 5196POPC   NC367871   2.059  30.494   5.575
 5196POPC   PO467872   1.798  31.119   5.475
 5196POPC   GL167873   2.022  30.993   5.828
 5196POPC   GL267874   2.363  30.883   5.713
 5196POPC   C1A67875   1.846  30.857   6.255
 5196POPC   D2A67876   1.664  31.038   6.668
 5196POPC   C3A67877   1.797  30.774   7.054
 5196POPC   C4A67878   2.166  30.466   7.185
 5196POPC   C1B67879   2.426  30.973   6.157
 5196POPC   C2B67880   2.536  30.872   6.592
 5196POPC   C3B67881   2.356  30.916   7.013
 5196POPC   C4B67882   2.143  30.919   7.416
 5197POPC   NC367883  18.168   7.017   4.982
 5197POPC   PO467884  18.339   7.533   5.448
 5197POPC   GL167885  18.197   7.254   5.769
 5197POPC   GL267886  17.959   6.987   5.661
 5197POPC   C1A67887  18.372   7.268   6.191
 5197POPC   D2A67888  18.386   7.340   6.618
 5197POPC   C3A67889  18.417   7.260   7.030
 5197POPC   C4A67890  18.300   7.559   7.322
 5197POPC   C1B67891  18.084   6.859   6.084
 5197POPC   C2B67892  18.019   6.982   6.520
 5197POPC   C3B67893  18.041   6.908   6.973
 5197POPC   C4B67894  18.039   7.128   7.367
 5198POPC   NC367895  27.398  37.225   5.417
 5198POPC   PO467896  27.480  36.557   5.378
 5198POPC   GL167897  27.370  36.821   5.731
 5198POPC   GL267898  27.714  36.955   5.787
 5198POPC   C1A67899  27.376  37.087   6.154
 5198POPC   D2A67900  27.528  37.302   6.570
 5198POPC   C3A67901  27.503  37.138   6.979
 5198POPC   C4A67902  27.655  36.951   7.377
 5198POPC   C1B67903  27.964  36.772   6.160
 5198POPC   C2B67904  27.986  36.580   6.609
 5198POPC   C3B67905  27.994  36.483   7.080
 5198POPC   C4B67906  28.031  36.649   7.521
 5199POPC   NC367907  35.495  35.697   5.597
 5199POPC   PO467908  35.071  36.207   5.364
 5199POPC   GL167909  35.265  36.120   5.768
 5199POPC   GL267910  35.609  36.190   5.834
 5199POPC   C1A67911  35.257  35.981   6.209
 5199POPC   D2A67912  35.046  36.168   6.575
 5199POPC   C3A67913  35.234  36.041   6.940
 5199POPC   C4A67914  35.331  35.752   7.286
 5199POPC   C1B67915  35.804  35.930   6.148
 5199POPC   C2B67916  35.881  35.687   6.506
 5199POPC   C3B67917  35.656  35.777   6.850
 5199POPC   C4B67918  35.726  36.073   7.174
 5200POPC   NC367919   7.022  41.578   5.499
 5200POPC   PO467920   6.523  41.818   5.268
 5200POPC   GL167921   6.564  41.555   5.738
 5200POPC   GL267922   6.853  41.679   5.955
 5200POPC   C1A67923   6.589  41.282   6.181
 5200POPC   D2A67924   6.552  41.075   6.594
 5200POPC   C3A67925   6.336  41.230   6.934
 5200POPC   C4A67926   6.524  41.150   7.312
 5200POPC   C1B67927   6.501  41.768   6.234
 5200POPC   C2B67928   6.595  41.621   6.660
 5200POPC   C3B67929   6.715  41.584   7.079
 5200POPC   C4B67930   6.421  41.678   7.368
 5201POPC   NC367931  32.043  32.379   5.571
 5201POPC   PO467932  32.506  32.021   5.248
 5201POPC   GL167933  32.388  31.996   5.779
 5201POPC   GL267934  32.016  32.072   5.964
 5201POPC   C1A67935  32.394  32.004   6.279
 5201POPC   D2A67936  32.413  31.705   6.649
 5201POPC   C3A67937  32.205  31.880   7.010
 5201POPC   C4A67938  32.278  32.220   7.275
 5201POPC   C1B67939  31.969  32.454   6.215
 5201POPC   C2B67940  32.016  32.598   6.617
 5201POPC   C3B67941  31.883  32.450   7.011
 5201POPC   C4B67942  31.870  32.529   7.441
 5202POPC   NC367943  17.793  10.467   5.374
 5202POPC   PO467944  18.283  10.921   5.445
 5202POPC   GL167945  18.226  10.577   5.775
 5202POPC   GL267946  17.924  10.403   5.888
 5202POPC   C1A67947  18.366  10.513   6.206
 5202POPC   D2A67948  18.317  10.804   6.573
 5202POPC   C3A67949  18.432  10.718   7.009
 5202POPC   C4A67950  18.518  10.390   7.307
 5202POPC   C1B67951  17.998  10.166   6.263
 5202POPC   C2B67952  18.169  10.217   6.688
 5202POPC   C3B67953  18.046  10.319   7.105
 5202POPC   C4B67954  18.099  10.129   7.511
 5203POPC   NC367955   3.546  44.360   5.194
 5203POPC   PO467956   3.735  44.888   5.645
 5203POPC   GL167957   3.490  44.687   5.953
 5203POPC   GL267958   3.383  44.329   5.967
 5203POPC   C1A67959   3.627  44.777   6.372
 5203POPC   D2A67960   3.891   0.016   6.665
 5203POPC   C3A67961   3.800  44.812   7.040
 5203POPC   C4A67962   3.520  44.781   7.342
 5203POPC   C1B67963   3.736  44.273   6.280
 5203POPC   C2B67964   3.741  44.378   6.716
 5203POPC   C3B67965   3.839  44.227   7.101
 5203POPC   C4B67966   3.538  44.259   7.452
 5204POPC   NC367967  23.803  44.284   5.370
 5204POPC   PO467968  24.014  44.889   5.398
 5204POPC   GL167969  23.827  44.628   5.735
 5204POPC   GL267970  23.626  44.844   5.826
 5204POPC   C1A67971  23.604  44.453   6.131
 5204POPC   D2A67972  23.382  44.658   6.495
 5204POPC   C3A67973  23.432  44.448   6.897
 5204POPC   C4A67974  23.712  44.442   7.245
 5204POPC   C1B67975  23.833  44.974   6.187
 5204POPC   C2B67976  23.701   0.065   6.606
 5204POPC   C3B67977  23.678  44.901   6.996
 5204POPC   C4B67978  23.936  44.881   7.361
 5205POPC   NC367979   1.245   4.422   5.386
 5205POPC   PO467980   1.060   3.772   5.448
 5205POPC   GL167981   1.195   4.041   5.801
 5205POPC   GL267982   1.110   4.413   5.862
 5205POPC   C1A67983   1.284   4.150   6.237
 5205POPC   D2A67984   1.241   4.388   6.606
 5205POPC   C3A67985   1.269   4.183   6.988
 5205POPC   C4A67986   1.118   4.034   7.382
 5205POPC   C1B67987   1.265   4.688   6.188
 5205POPC   C2B67988   1.482   4.846   6.534
 5205POPC   C3B67989   1.538   4.667   6.944
 5205POPC   C4B67990   1.363   4.507   7.351
 5206POPC   NC367991  15.053  37.252   5.342
 5206POPC   PO467992  15.392  36.652   5.316
 5206POPC   GL167993  15.285  36.865   5.689
 5206POPC   GL267994  14.961  36.947   5.735
 5206POPC   C1A67995  15.176  36.721   6.138
 5206POPC   D2A67996  15.085  36.915   6.557
 5206POPC   C3A67997  15.219  36.724   6.967
 5206POPC   C4A67998  15.559  36.780   7.266
 5206POPC   C1B67999  14.893  37.195   6.117
 5206POPC   C2B68000  14.703  37.239   6.514
 5206POPC   C3B68001  14.868  37.169   6.952
 5206POPC   C4B68002  14.832  37.398   7.358
 5207POPC   NC368003  22.295  11.346   5.361
 5207POPC   PO468004  21.977  10.931   5.738
 5207POPC   GL168005  22.278  11.172   5.873
 5207POPC   GL268006  22.336  11.556   5.807
 5207POPC   C1A68007  22.457  11.004   6.234
 5207POPC   D2A68008  22.469  11.222   6.616
 5207POPC   C3A68009  22.110  11.077   6.841
 5207POPC   C4A68010  22.249  11.094   7.232
 5207POPC   C1B68011  22.363  11.530   6.224
 5207POPC   C2B68012  22.102  11.588   6.574
 5207POPC   C3B68013  22.218  11.556   6.979
 5207POPC   C4B68014  22.112  11.772   7.318
 5208POPC   NC368015  42.671  20.203   5.361
 5208POPC   PO468016  42.317  19.543   5.469
 5208POPC   GL168017  42.496  19.860   5.709
 5208POPC   GL268018  42.333  20.196   5.787
 5208POPC   C1A68019  42.563  19.819   6.137
 5208POPC   D2A68020  42.328  19.745   6.532
 5208POPC   C3A68021  42.538  19.830   6.918
 5208POPC   C4A68022  42.511  19.791   7.370
 5208POPC   C1B68023  42.271  20.209   6.268
 5208POPC   C2B68024  42.458  20.320   6.696
 5208POPC   C3B68025  42.411  20.283   7.161
 5208POPC   C4B68026  42.130  20.137   7.477
 5209POPC   NC368027  38.628  30.070   5.477
 5209POPC   PO468028  39.230  29.620   5.343
 5209POPC   GL168029  39.387  29.704   5.752
 5209POPC   GL268030  39.088  29.925   5.783
 5209POPC   C1A68031  39.447  29.763   6.190
 5209POPC   D2A68032  39.319  29.624   6.565
 5209POPC   C3A68033  39.381  29.892   6.895
 5209POPC   C4A68034  39.225  29.873   7.269
 5209POPC   C1B68035  39.276  30.221   6.089
 5209POPC   C2B68036  39.141  30.108   6.514
 5209POPC   C3B68037  38.875  29.860   6.826
 5209POPC   C4B68038  38.736  29.969   7.272
 5210POPC   NC368039  35.999  32.631   5.458
 5210POPC   PO468040  36.432  33.161   5.442
 5210POPC   GL168041  36.186  33.074   5.800
 5210POPC   GL268042  36.326  32.755   5.860
 5210POPC   C1A68043  36.136  33.217   6.237
 5210POPC   D2A68044  36.315  33.177   6.640
 5210POPC   C3A68045  36.034  33.305   6.961
 5210POPC   C4A68046  36.227  33.239   7.355
 5210POPC   C1B68047  36.226  32.702   6.288
 5210POPC   C2B68048  36.361  32.647   6.714
 5210POPC   C3B68049  36.182  32.818   7.083
 5210POPC   C4B68050  35.950  32.804   7.472
 5211POPC   NC368051  32.783  30.413   5.290
 5211POPC   PO468052  32.788  31.114   5.376
 5211POPC   GL168053  32.709  30.769   5.659
 5211POPC   GL268054  33.048  30.788   5.756
 5211POPC   C1A68055  32.704  30.661   6.102
 5211POPC   D2A68056  32.858  30.487   6.480
 5211POPC   C3A68057  32.833  30.758   6.845
 5211POPC   C4A68058  32.961  30.701   7.286
 5211POPC   C1B68059  33.255  30.573   6.117
 5211POPC   C2B68060  33.380  30.666   6.568
 5211POPC   C3B68061  33.375  30.526   7.011
 5211POPC   C4B68062  33.354  30.365   7.435
 5212POPC   NC368063  15.460   4.673   5.424
 5212POPC   PO468064  15.349   5.399   5.265
 5212POPC   GL168065  15.401   5.208   5.737
 5212POPC   GL268066  15.584   4.934   5.878
 5212POPC   C1A68067  15.157   5.025   6.167
 5212POPC   D2A68068  14.948   5.127   6.607
 5212POPC   C3A68069  15.028   4.990   7.049
 5212POPC   C4A68070  15.154   5.188   7.443
 5212POPC   C1B68071  15.600   4.751   6.280
 5212POPC   C2B68072  15.392   4.874   6.657
 5212POPC   C3B68073  15.524   5.015   7.061
 5212POPC   C4B68074  15.385   4.701   7.308
 5213POPC   NC368075  35.128  17.320   5.209
 5213POPC   PO468076  35.535  17.732   5.517
 5213POPC   GL168077  35.430  17.484   5.792
 5213POPC   GL268078  35.355  17.678   5.998
 5213POPC   C1A68079  35.502  17.234   6.171
 5213POPC   D2A68080  35.265  17.350   6.523
 5213POPC   C3A68081  35.327  17.170   6.895
 5213POPC   C4A68082  35.211  17.266   7.302
 5213POPC   C1B68083  35.560  17.744   6.374
 5213POPC   C2B68084  35.272  17.858   6.725
 5213POPC   C3B68085  35.332  17.796   7.174
 5213POPC   C4B68086  35.365  17.905   7.617
 5214POPC   NC368087   0.820  38.564   5.529
 5214POPC   PO468088   1.458  38.723   5.512
 5214POPC   GL168089   1.225  38.510   5.839
 5214POPC   GL268090   1.064  38.855   5.880
 5214POPC   C1A68091   1.117  38.210   6.199
 5214POPC   D2A68092   0.975  38.323   6.633
 5214POPC   C3A68093   1.318  38.550   6.810
 5214POPC   C4A68094   1.584  38.463   7.148
 5214POPC   C1B68095   1.246  38.750   6.280
 5214POPC   C2B68096   0.990  38.898   6.577
 5214POPC   C3B68097   0.979  38.910   6.975
 5214POPC   C4B68098   1.347  38.925   7.170
 5215POPC   NC368099   9.525  17.082   5.447
 5215POPC   PO468100  10.144  16.818   5.451
 5215POPC   GL168101   9.909  16.943   5.781
 5215POPC   GL268102   9.632  16.724   5.798
 5215POPC   C1A68103  10.028  16.907   6.196
 5215POPC   D2A68104  10.025  16.560   6.448
 5215POPC   C3A68105   9.838  16.656   6.830
 5215POPC   C4A68106   9.907  16.563   7.260
 5215POPC   C1B68107   9.549  16.669   6.236
 5215POPC   C2B68108   9.359  16.694   6.661
 5215POPC   C3B68109   9.423  16.516   7.109
 5215POPC   C4B68110   9.343  16.434   7.548
 5216POPC   NC368111  14.392  38.640   4.888
 5216POPC   PO468112  14.558  38.155   5.194
 5216POPC   GL168113  14.444  38.365   5.580
 5216POPC   GL268114  14.741  38.480   5.724
 5216POPC   C1A68115  14.337  38.301   6.042
 5216POPC   D2A68116  14.497  38.240   6.482
 5216POPC   C3A68117  14.224  38.278   6.849
 5216POPC   C4A68118  14.204  38.170   7.287
 5216POPC   C1B68119  14.962  38.569   6.122
 5216POPC   C2B68120  14.879  38.596   6.561
 5216POPC   C3B68121  14.708  38.440   6.954
 5216POPC   C4B68122  14.630  38.476   7.398
 5217POPC   NC368123  32.272  30.659   5.375
 5217POPC   PO468124  31.831  31.080   5.473
 5217POPC   GL168125  32.176  30.989   5.761
 5217POPC   GL268126  32.220  30.652   5.881
 5217POPC   C1A68127  32.364  31.057   6.160
 5217POPC   D2A68128  32.420  30.779   6.517
 5217POPC   C3A68129  32.324  30.892   6.924
 5217POPC   C4A68130  32.492  30.919   7.340
 5217POPC   C1B68131  32.253  30.386   6.242
 5217POPC   C2B68132  32.032  30.301   6.613
 5217POPC   C3B68133  31.957  30.511   6.998
 5217POPC   C4B68134  32.233  30.440   7.317
 5218POPC   NC368135  41.630  44.754   5.493
 5218POPC   PO468136  41.523  44.083   5.507
 5218POPC   GL168137  41.650  44.335   5.877
 5218POPC   GL268138  41.459  44.658   5.962
 5218POPC   C1A68139  41.750  44.447   6.312
 5218POPC   D2A68140  41.572  44.845   6.475
 5218POPC   C3A68141  41.760  44.942   6.867
 5218POPC   C4A68142  41.873  44.625   7.181
 5218POPC   C1B68143  41.244  44.392   6.290
 5218POPC   C2B68144  41.164  44.565   6.714
 5218POPC   C3B68145  41.348  44.710   7.101
 5218POPC   C4B68146  41.188  44.885   7.502
 5219POPC   NC368147  21.857  41.908   5.304
 5219POPC   PO468148  21.442  41.296   5.370
 5219POPC   GL168149  21.301  41.406   5.821
 5219POPC   GL268150  20.973  41.262   5.849
 5219POPC   C1A68151  21.433  41.639   6.195
 5219POPC   D2A68152  21.316  41.757   6.582
 5219POPC   C3A68153  21.461  41.586   6.958
 5219POPC   C4A68154  21.393  41.622   7.404
 5219POPC   C1B68155  21.017  41.341   6.312
 5219POPC   C2B68156  20.861  41.504   6.719
 5219POPC   C3B68157  20.971  41.459   7.170
 5219POPC   C4B68158  21.115  41.206   7.543
 5220POPC   NC368159  13.999  43.322   5.457
 5220POPC   PO468160  14.601  43.326   5.384
 5220POPC   GL168161  14.576  43.178   5.791
 5220POPC   GL268162  14.270  43.013   5.786
 5220POPC   C1A68163  14.620  42.933   6.160
 5220POPC   D2A68164  14.345  42.801   6.498
 5220POPC   C3A68165  14.424  42.954   6.909
 5220POPC   C4A68166  14.615  42.786   7.276
 5220POPC   C1B68167  14.181  43.212   6.176
 5220POPC   C2B68168  14.061  43.519   6.503
 5220POPC   C3B68169  14.100  43.399   6.929
 5220POPC   C4B68170  14.470  43.355   7.225
 5221POPC   NC368171  37.112  26.327   5.533
 5221POPC   PO468172  36.787  25.750   5.389
 5221POPC   GL168173  36.982  25.867   5.770
 5221POPC   GL268174  36.744  26.116   5.821
 5221POPC   C1A68175  37.123  26.121   6.160
 5221POPC   D2A68176  37.283  26.074   6.558
 5221POPC   C3A68177  37.037  26.099   6.919
 5221POPC   C4A68178  37.083  26.071   7.350
 5221POPC   C1B68179  36.685  25.859   6.205
 5221POPC   C2B68180  36.642  25.893   6.672
 5221POPC   C3B68181  36.611  25.898   7.148
 5221POPC   C4B68182  36.316  26.025   7.484
 5222POPC   NC368183  33.567  31.960   5.463
 5222POPC   PO468184  33.782  31.222   5.380
 5222POPC   GL168185  33.548  31.478   5.684
 5222POPC   GL268186  33.817  31.735   5.839
 5222POPC   C1A68187  33.497  31.443   6.129
 5222POPC   D2A68188  33.800  31.530   6.443
 5222POPC   C3A68189  33.715  31.424   6.853
 5222POPC   C4A68190  34.063  31.253   7.107
 5222POPC   C1B68191  34.024  31.983   6.154
 5222POPC   C2B68192  34.248  31.896   6.518
 5222POPC   C3B68193  34.113  31.806   6.940
 5222POPC   C4B68194  33.831  31.681   7.276
 5223POPC   NC368195  12.980  18.556   5.362
 5223POPC   PO468196  12.592  17.952   5.297
 5223POPC   GL168197  12.692  18.020   5.763
 5223POPC   GL268198  12.759  18.374   5.812
 5223POPC   C1A68199  12.697  17.910   6.229
 5223POPC   D2A68200  12.777  18.107   6.641
 5223POPC   C3A68201  12.595  18.134   7.075
 5223POPC   C4A68202  12.512  18.248   7.514
 5223POPC   C1B68203  12.983  18.339   6.202
 5223POPC   C2B68204  13.151  18.440   6.584
 5223POPC   C3B68205  13.061  18.388   7.002
 5223POPC   C4B68206  13.042  18.666   7.353
 5224POPC   NC368207  42.192  17.011   5.374
 5224POPC   PO468208  42.248  17.660   5.215
 5224POPC   GL168209  42.366  17.639   5.672
 5224POPC   GL268210  42.393  17.289   5.756
 5224POPC   C1A68211  42.289  17.617   6.143
 5224POPC   D2A68212  42.038  17.486   6.492
 5224POPC   C3A68213  42.258  17.465   6.897
 5224POPC   C4A68214  42.330  17.715   7.263
 5224POPC   C1B68215  42.627  17.123   6.097
 5224POPC   C2B68216  42.554  17.266   6.502
 5224POPC   C3B68217  42.639  17.116   6.901
 5224POPC   C4B68218  42.678  17.325   7.254
 5225POPC   NC368219  17.774  33.529   5.537
 5225POPC   PO468220  18.350  33.917   5.401
 5225POPC   GL168221  18.305  34.086   5.818
 5225POPC   GL268222  18.229  33.723   5.874
 5225POPC   C1A68223  18.211  34.139   6.276
 5225POPC   D2A68224  18.219  33.837   6.605
 5225POPC   C3A68225  18.469  33.909   6.938
 5225POPC   C4A68226  18.465  33.935   7.340
 5225POPC   C1B68227  18.332  33.486   6.229
 5225POPC   C2B68228  18.358  33.291   6.611
 5225POPC   C3B68229  18.231  33.449   6.989
 5225POPC   C4B68230  18.457  33.420   7.342
 5226POPC   NC368231  37.897  40.586   5.341
 5226POPC   PO468232  37.999  41.292   5.434
 5226POPC   GL168233  37.858  40.967   5.701
 5226POPC   GL268234  38.208  40.854   5.645
 5226POPC   C1A68235  37.599  40.741   6.048
 5226POPC   D2A68236  37.445  40.783   6.479
 5226POPC   C3A68237  37.545  40.477   6.864
 5226POPC   C4A68238  37.474  40.765   7.237
 5226POPC   C1B68239  38.116  40.617   6.010
 5226POPC   C2B68240  37.970  40.775   6.412
 5226POPC   C3B68241  37.820  40.879   6.825
 5226POPC   C4B68242  37.986  40.719   7.221
 5227POPC   NC368243  17.335   0.430   5.270
 5227POPC   PO468244  17.959   0.640   5.337
 5227POPC   GL168245  17.624   0.680   5.638
 5227POPC   GL268246  17.544   0.351   5.753
 5227POPC   C1A68247  17.620   0.691   6.123
 5227POPC   D2A68248  17.903   0.624   6.528
 5227POPC   C3A68249  17.661   0.625   6.945
 5227POPC   C4A68250  17.282   0.682   7.303
 5227POPC   C1B68251  17.429   0.204   6.171
 5227POPC   C2B68252  17.394   0.435   6.549
 5227POPC   C3B68253  17.291   0.290   6.970
 5227POPC   C4B68254  17.601   0.268   7.312
 5228POPC   NC368255   5.269  41.201   5.337
 5228POPC   PO468256   4.771  40.712   5.467
 5228POPC   GL168257   5.010  40.771   5.856
 5228POPC   GL268258   5.332  40.976   5.795
 5228POPC   C1A68259   4.964  40.650   6.318
 5228POPC   D2A68260   4.656  40.641   6.664
 5228POPC   C3A68261   4.780  40.890   7.012
 5228POPC   C4A68262   5.175  40.698   7.074
 5228POPC   C1B68263   5.234  41.078   6.209
 5228POPC   C2B68264   5.436  41.096   6.590
 5228POPC   C3B68265   5.377  41.178   7.010
 5228POPC   C4B68266   5.137  41.074   7.401
 5229POPC   NC368267  20.035   9.169   5.278
 5229POPC   PO468268  19.629   8.643   5.349
 5229POPC   GL168269  19.860   8.850   5.702
 5229POPC   GL268270  19.704   8.805   6.012
 5229POPC   C1A68271  20.009   9.183   6.029
 5229POPC   D2A68272  19.793   9.205   6.448
 5229POPC   C3A68273  20.025   9.282   6.842
 5229POPC   C4A68274  19.976   9.220   7.272
 5229POPC   C1B68275  19.959   8.672   6.305
 5229POPC   C2B68276  19.894   8.792   6.746
 5229POPC   C3B68277  19.669   8.839   7.137
 5229POPC   C4B68278  20.075   8.702   7.262
 5230POPC   NC368279  38.126  41.992   5.058
 5230POPC   PO468280  38.643  41.694   5.411
 5230POPC   GL168281  38.817  41.525   5.795
 5230POPC   GL268282  38.459  41.520   5.892
 5230POPC   C1A68283  38.806  41.370   6.228
 5230POPC   D2A68284  38.528  41.536   6.536
 5230POPC   C3A68285  38.553  41.343   6.919
 5230POPC   C4A68286  38.562  41.531   7.303
 5230POPC   C1B68287  38.068  41.591   6.118
 5230POPC   C2B68288  37.928  41.716   6.536
 5230POPC   C3B68289  38.187  41.768   6.885
 5230POPC   C4B68290  38.015  41.672   7.297
 5231POPC   NC368291  21.313  22.342   5.396
 5231POPC   PO468292  21.954  22.279   5.457
 5231POPC   GL168293  21.641  22.134   5.739
 5231POPC   GL268294  21.514  22.480   5.844
 5231POPC   C1A68295  21.409  21.992   6.112
 5231POPC   D2A68296  21.370  22.106   6.575
 5231POPC   C3A68297  21.453  22.225   7.009
 5231POPC   C4A68298  21.458  21.888   7.336
 5231POPC   C1B68299  21.617  22.423   6.267
 5231POPC   C2B68300  21.839  22.397   6.674
 5231POPC   C3B68301  21.860  22.541   7.116
 5231POPC   C4B68302  21.643  22.362   7.495
 5232POPC   NC368303  29.509  12.157   5.328
 5232POPC   PO468304  28.889  11.879   5.493
 5232POPC   GL168305  29.268  11.936   5.733
 5232POPC   GL268306  29.233  12.272   5.800
 5232POPC   C1A68307  29.418  11.843   6.132
 5232POPC   D2A68308  29.133  11.706   6.470
 5232POPC   C3A68309  29.260  11.858   6.867
 5232POPC   C4A68310  29.114  12.100   7.200
 5232POPC   C1B68311  29.057  12.201   6.225
 5232POPC   C2B68312  29.225  12.356   6.611
 5232POPC   C3B68313  29.306  12.524   7.009
 5232POPC   C4B68314  29.524  12.373   7.374
 5233POPC   NC368315  36.888  22.735   5.471
 5233POPC   PO468316  37.329  23.190   5.293
 5233POPC   GL168317  37.182  23.029   5.768
 5233POPC   GL268318  37.156  22.663   5.890
 5233POPC   C1A68319  36.985  22.999   6.227
 5233POPC   D2A68320  36.685  22.955   6.605
 5233POPC   C3A68321  36.862  22.959   7.016
 5233POPC   C4A68322  36.752  23.191   7.411
 5233POPC   C1B68323  37.300  22.574   6.295
 5233POPC   C2B68324  37.205  22.748   6.678
 5233POPC   C3B68325  37.320  22.730   7.098
 5233POPC   C4B68326  37.181  22.896   7.456
 5234POPC   NC368327  40.783  12.688   5.352
 5234POPC   PO468328  40.281  12.610   5.684
 5234POPC   GL168329  40.651  12.629   5.866
 5234POPC   GL268330  40.718  12.976   5.835
 5234POPC   C1A68331  40.858  12.676   6.241
 5234POPC   D2A68332  40.886  12.504   6.630
 5234POPC   C3A68333  40.859  12.748   7.036
 5234POPC   C4A68334  40.633  13.049   7.350
 5234POPC   C1B68335  40.820  13.177   6.266
 5234POPC   C2B68336  40.984  13.081   6.689
 5234POPC   C3B68337  41.039  13.231   7.115
 5234POPC   C4B68338  41.062  13.334   7.563
 5235POPC   NC368339  17.925  11.264   5.413
 5235POPC   PO468340  18.335  11.779   5.556
 5235POPC   GL168341  18.237  11.464   5.790
 5235POPC   GL268342  18.514  11.227   5.790
 5235POPC   C1A68343  18.293  11.431   6.221
 5235POPC   D2A68344  18.509  11.301   6.574
 5235POPC   C3A68345  18.241  11.224   6.888
 5235POPC   C4A68346  18.057  11.593   7.034
 5235POPC   C1B68347  18.628  10.979   6.176
 5235POPC   C2B68348  18.827  10.911   6.612
 5235POPC   C3B68349  18.766  11.146   6.990
 5235POPC   C4B68350  18.471  11.135   7.328
 5236POPC   NC368351  26.503  41.716   5.386
 5236POPC   PO468352  26.590  41.152   5.642
 5236POPC   GL168353  26.630  41.541   5.835
 5236POPC   GL268354  26.944  41.560   5.766
 5236POPC   C1A68355  26.739  41.734   6.204
 5236POPC   D2A68356  26.645  41.443   6.547
 5236POPC   C3A68357  26.464  41.631   6.886
 5236POPC   C4A68358  26.669  41.726   7.225
 5236POPC   C1B68359  27.007  41.294   6.184
 5236POPC   C2B68360  27.137  41.221   6.626
 5236POPC   C3B68361  26.978  41.361   7.050
 5236POPC   C4B68362  26.826  41.311   7.505
 5237POPC   NC368363  20.367  43.454   5.638
 5237POPC   PO468364  20.539  42.890   5.341
 5237POPC   GL168365  20.676  43.060   5.751
 5237POPC   GL268366  20.867  43.393   5.800
 5237POPC   C1A68367  20.634  42.960   6.187
 5237POPC   D2A68368  20.394  42.800   6.527
 5237POPC   C3A68369  20.531  42.870   6.935
 5237POPC   C4A68370  20.672  43.142   7.244
 5237POPC   C1B68371  21.017  43.303   6.199
 5237POPC   C2B68372  20.796  43.300   6.579
 5237POPC   C3B68373  20.915  43.486   6.927
 5237POPC   C4B68374  21.137  43.393   7.239
 5238POPC   NC368375   2.513  35.598   5.450
 5238POPC   PO468376   1.842  35.695   5.366
 5238POPC   GL168377   2.088  35.505   5.720
 5238POPC   GL268378   2.255  35.173   5.775
 5238POPC   C1A68379   1.949  35.504   6.146
 5238POPC   D2A68380   1.719  35.269   6.433
 5238POPC   C3A68381   1.697  35.294   6.875
 5238POPC   C4A68382   1.835  35.253   7.289
 5238POPC   C1B68383   2.399  35.294   6.210
 5238POPC   C2B68384   2.212  35.361   6.625
 5238POPC   C3B68385   2.342  35.349   7.062
 5238POPC   C4B68386   2.213  35.584   7.429
 5239POPC   NC368387  19.686   5.191   5.443
 5239POPC   PO468388  20.253   5.375   5.625
 5239POPC   GL168389  19.870   5.401   5.896
 5239POPC   GL268390  19.502   5.362   5.869
 5239POPC   C1A68391  19.745   5.202   6.300
 5239POPC   D2A68392  19.872   4.979   6.697
 5239POPC   C3A68393  19.740   5.179   7.066
 5239POPC   C4A68394  19.917   5.390   7.408
 5239POPC   C1B68395  19.272   5.591   6.160
 5239POPC   C2B68396  19.356   5.524   6.581
 5239POPC   C3B68397  19.249   5.440   7.013
 5239POPC   C4B68398  19.421   5.364   7.413
 5240POPC   NC368399  31.820  35.025   5.523
 5240POPC   PO468400  31.319  35.473   5.509
 5240POPC   GL168401  31.480  35.327   5.834
 5240POPC   GL268402  31.753  35.512   5.839
 5240POPC   C1A68403  31.353  35.261   6.244
 5240POPC   D2A68404  31.101  35.543   6.526
 5240POPC   C3A68405  31.259  35.525   6.959
 5240POPC   C4A68406  31.291  35.127   7.137
 5240POPC   C1B68407  31.859  35.394   6.241
 5240POPC   C2B68408  31.658  35.422   6.625
 5240POPC   C3B68409  31.759  35.269   6.995
 5240POPC   C4B68410  31.749  34.906   7.232
 5241POPC   NC368411   3.782  14.442   5.143
 5241POPC   PO468412   4.427  14.456   5.456
 5241POPC   GL168413   4.485  14.549   5.860
 5241POPC   GL268414   4.757  14.733   5.924
 5241POPC   C1A68415   4.382  14.478   6.255
 5241POPC   D2A68416   4.287  14.323   6.625
 5241POPC   C3A68417   4.053  14.451   6.956
 5241POPC   C4A68418   4.243  14.344   7.308
 5241POPC   C1B68419   4.869  14.847   6.331
 5241POPC   C2B68420   4.555  14.785   6.647
 5241POPC   C3B68421   4.539  14.667   7.028
 5241POPC   C4B68422   4.711  14.871   7.350
 5242POPC   NC368423   6.416  36.668   5.353
 5242POPC   PO468424   6.943  37.174   5.386
 5242POPC   GL168425   6.833  37.048   5.789
 5242POPC   GL268426   6.583  37.325   5.859
 5242POPC   C1A68427   6.746  36.666   6.064
 5242POPC   D2A68428   6.610  36.665   6.508
 5242POPC   C3A68429   6.584  36.550   6.945
 5242POPC   C4A68430   6.538  36.733   7.388
 5242POPC   C1B68431   6.605  37.121   6.283
 5242POPC   C2B68432   6.680  37.109   6.756
 5242POPC   C3B68433   6.631  37.185   7.216
 5242POPC   C4B68434   6.631  37.263   7.678
 5243POPC   NC368435  21.926  43.635   5.490
 5243POPC   PO468436  22.393  44.083   5.391
 5243POPC   GL168437  22.176  43.980   5.781
 5243POPC   GL268438  22.313  43.639   5.828
 5243POPC   C1A68439  22.022  44.052   6.219
 5243POPC   D2A68440  22.113  44.185   6.651
 5243POPC   C3A68441  21.904  43.918   6.964
 5243POPC   C4A68442  22.070  43.815   7.386
 5243POPC   C1B68443  22.478  43.825   6.190
 5243POPC   C2B68444  22.277  43.701   6.574
 5243POPC   C3B68445  22.420  43.755   6.993
 5243POPC   C4B68446  22.463  43.516   7.368
 5244POPC   NC368447  21.774   9.956   5.306
 5244POPC   PO468448  22.235   9.495   5.463
 5244POPC   GL168449  22.229   9.724   5.815
 5244POPC   GL268450  21.889   9.833   5.812
 5244POPC   C1A68451  22.192   9.954   6.233
 5244POPC   D2A68452  22.319   9.860   6.655
 5244POPC   C3A68453  22.125  10.055   7.023
 5244POPC   C4A68454  21.957   9.930   7.405
 5244POPC   C1B68455  21.946   9.510   6.174
 5244POPC   C2B68456  21.987   9.386   6.631
 5244POPC   C3B68457  22.180   9.535   7.045
 5244POPC   C4B68458  22.556   9.817   7.142
 5245POPC   NC368459   7.508  16.174   5.399
 5245POPC   PO468460   6.888  15.976   5.503
 5245POPC   GL168461   7.204  15.755   5.772
 5245POPC   GL268462   7.541  15.940   5.849
 5245POPC   C1A68463   7.329  15.679   6.208
 5245POPC   D2A68464   7.507  15.963   6.523
 5245POPC   C3A68465   7.331  15.891   6.915
 5245POPC   C4A68466   7.298  16.095   7.292
 5245POPC   C1B68467   7.538  16.326   6.111
 5245POPC   C2B68468   7.653  16.473   6.516
 5245POPC   C3B68469   7.533  16.395   6.942
 5245POPC   C4B68470   7.619  16.482   7.404
 5246POPC   NC368471  11.251  17.473   5.362
 5246POPC   PO468472  11.737  17.152   5.664
 5246POPC   GL168473  11.411  17.387   5.910
 5246POPC   GL268474  11.041  17.326   5.827
 5246POPC   C1A68475  11.347  17.466   6.366
 5246POPC   D2A68476  11.491  17.715   6.748
 5246POPC   C3A68477  11.371  17.592   7.182
 5246POPC   C4A68478  11.504  17.348   7.529
 5246POPC   C1B68479  10.883  17.556   6.198
 5246POPC   C2B68480  10.963  17.649   6.664
 5246POPC   C3B68481  10.924  17.382   7.048
 5246POPC   C4B68482  11.036  17.207   7.444
 5247POPC   NC368483   8.980   4.125   5.360
 5247POPC   PO468484   8.921   4.811   5.390
 5247POPC   GL168485   8.816   4.479   5.732
 5247POPC   GL268486   8.787   4.089   5.822
 5247POPC   C1A68487   8.863   4.450   6.165
 5247POPC   D2A68488   8.857   4.582   6.553
 5247POPC   C3A68489   8.831   4.274   6.860
 5247POPC   C4A68490   8.924   4.465   7.257
 5247POPC   C1B68491   9.139   4.020   6.117
 5247POPC   C2B68492   9.167   3.955   6.587
 5247POPC   C3B68493   9.260   4.029   7.034
 5247POPC   C4B68494   9.609   4.017   7.346
 5248POPC   NC368495  23.571  29.429   5.522
 5248POPC   PO468496  23.415  28.719   5.593
 5248POPC   GL168497  23.681  29.009   5.853
 5248POPC   GL268498  23.826  29.345   5.950
 5248POPC   C1A68499  23.823  28.925   6.242
 5248POPC   D2A68500  23.558  28.931   6.576
 5248POPC   C3A68501  23.829  29.017   6.922
 5248POPC   C4A68502  23.709  29.086   7.325
 5248POPC   C1B68503  23.486  29.349   6.249
 5248POPC   C2B68504  23.408  29.618   6.597
 5248POPC   C3B68505  23.458  29.485   7.008
 5248POPC   C4B68506  23.859  29.533   7.163
 5249POPC   NC368507  44.787  16.540   5.483
 5249POPC   PO468508  44.176  16.481   5.488
 5249POPC   GL168509  44.391  16.796   5.809
 5249POPC   GL268510  44.721  16.679   5.978
 5249POPC   C1A68511  44.420  17.026   6.225
 5249POPC   D2A68512  44.540  16.802   6.614
 5249POPC   C3A68513  44.677  17.036   6.971
 5249POPC   C4A68514  44.533  17.082   7.386
 5249POPC   C1B68515   0.045  16.448   6.270
 5249POPC   C2B68516   0.086  16.404   6.739
 5249POPC   C3B68517  44.815  16.525   7.131
 5249POPC   C4B68518  44.614  16.611   7.569
 5250POPC   NC368519   2.906  39.217   5.467
 5250POPC   PO468520   2.306  39.779   5.392
 5250POPC   GL168521   2.556  39.561   5.762
 5250POPC   GL268522   2.576  39.216   5.869
 5250POPC   C1A68523   2.760  39.499   6.212
 5250POPC   D2A68524   2.627  39.283   6.585
 5250POPC   C3A68525   2.783  39.465   6.960
 5250POPC   C4A68526   2.689  39.507   7.392
 5250POPC   C1B68527   2.819  38.968   6.187
 5250POPC   C2B68528   2.985  38.924   6.605
 5250POPC   C3B68529   2.835  38.949   7.002
 5250POPC   C4B68530   2.962  38.609   7.179
 5251POPC   NC368531  19.753  23.320   5.361
 5251POPC   PO468532  19.504  22.776   5.539
 5251POPC   GL168533  19.642  23.146   5.843
 5251POPC   GL268534  19.988  23.275   5.890
 5251POPC   C1A68535  19.664  23.404   6.251
 5251POPC   D2A68536  20.008  23.501   6.565
 5251POPC   C3A68537  19.958  23.278   6.966
 5251POPC   C4A68538  19.678  23.002   7.215
 5251POPC   C1B68539  19.967  22.997   6.296
 5251POPC   C2B68540  19.981  22.814   6.753
 5251POPC   C3B68541  20.174  22.843   7.196
 5251POPC   C4B68542  20.384  22.879   7.614
 5252POPC   NC368543  29.839   6.081   5.522
 5252POPC   PO468544  30.039   5.499   5.366
 5252POPC   GL168545  30.103   5.730   5.804
 5252POPC   GL268546  29.778   5.861   5.982
 5252POPC   C1A68547  30.148   5.673   6.272
 5252POPC   D2A68548  29.834   5.823   6.569
 5252POPC   C3A68549  30.005   5.866   6.976
 5252POPC   C4A68550  29.945   5.549   7.262
 5252POPC   C1B68551  29.609   6.184   6.274
 5252POPC   C2B68552  29.565   6.240   6.728
 5252POPC   C3B68553  29.522   6.017   7.116
 5252POPC   C4B68554  29.799   5.978   7.491
 5253POPC   NC368555  35.657  15.716   5.593
 5253POPC   PO468556  35.783  15.131   5.353
 5253POPC   GL168557  35.562  15.217   5.793
 5253POPC   GL268558  35.298  15.474   5.882
 5253POPC   C1A68559  35.596  15.368   6.267
 5253POPC   D2A68560  35.334  15.370   6.671
 5253POPC   C3A68561  35.539  15.419   7.080
 5253POPC   C4A68562  35.598  15.113   7.431
 5253POPC   C1B68563  35.033  15.341   6.241
 5253POPC   C2B68564  34.876  14.993   6.495
 5253POPC   C3B68565  34.925  14.879   6.921
 5253POPC   C4B68566  35.076  15.179   7.186
 5254POPC   NC368567  37.882  25.185   5.417
 5254POPC   PO468568  37.385  25.670   5.396
 5254POPC   GL168569  37.502  25.370   5.719
 5254POPC   GL268570  37.836  25.485   5.840
 5254POPC   C1A68571  37.570  25.104   6.091
 5254POPC   D2A68572  37.491  25.280   6.483
 5254POPC   C3A68573  37.583  25.131   6.892
 5254POPC   C4A68574  37.480  25.354   7.267
 5254POPC   C1B68575  38.052  25.607   6.230
 5254POPC   C2B68576  38.131  25.483   6.650
 5254POPC   C3B68577  37.937  25.574   7.060
 5254POPC   C4B68578  37.996  25.577   7.538
 5255POPC   NC368579  24.158  41.123   5.337
 5255POPC   PO468580  23.757  40.622   5.315
 5255POPC   GL168581  23.837  40.764   5.774
 5255POPC   GL268582  23.958  40.497   5.991
 5255POPC   C1A68583  23.842  40.943   6.238
 5255POPC   D2A68584  23.650  40.877   6.684
 5255POPC   C3A68585  23.940  40.886   7.070
 5255POPC   C4A68586  23.938  40.586   7.430
 5255POPC   C1B68587  23.509  40.547   6.198
 5255POPC   C2B68588  23.276  40.407   6.604
 5255POPC   C3B68589  23.322  40.440   7.061
 5255POPC   C4B68590  23.485  40.769   7.285
 5256POPC   NC368591   7.374  19.183   5.259
 5256POPC   PO468592   7.647  18.734   5.632
 5256POPC   GL168593   7.382  18.992   5.811
 5256POPC   GL268594   7.457  19.342   5.729
 5256POPC   C1A68595   7.248  19.020   6.230
 5256POPC   D2A68596   7.041  18.911   6.590
 5256POPC   C3A68597   7.207  19.008   6.974
 5256POPC   C4A68598   7.313  18.949   7.424
 5256POPC   C1B68599   7.541  19.423   6.146
 5256POPC   C2B68600   7.634  19.206   6.512
 5256POPC   C3B68601   7.575  19.347   6.909
 5256POPC   C4B68602   7.751  19.235   7.263
 5257POPC   NC368603  10.085  40.763   5.428
 5257POPC   PO468604   9.466  40.963   5.558
 5257POPC   GL168605   9.658  40.601   5.763
 5257POPC   GL268606   9.999  40.619   5.897
 5257POPC   C1A68607   9.595  40.462   6.194
 5257POPC   D2A68608   9.628  40.719   6.575
 5257POPC   C3A68609   9.435  40.613   6.961
 5257POPC   C4A68610   9.312  41.007   7.152
 5257POPC   C1B68611   9.910  40.971   6.185
 5257POPC   C2B68612   9.861  41.179   6.619
 5257POPC   C3B68613   9.834  40.972   7.014
 5257POPC   C4B68614   9.953  40.551   6.999
 5258POPC   NC368615  33.173   7.624   5.202
 5258POPC   PO468616  32.637   7.332   5.451
 5258POPC   GL168617  32.793   7.512   5.810
 5258POPC   GL268618  33.149   7.601   5.744
 5258POPC   C1A68619  32.780   7.287   6.206
 5258POPC   D2A68620  32.976   7.300   6.589
 5258POPC   C3A68621  32.910   7.090   6.960
 5258POPC   C4A68622  32.747   7.426   7.192
 5258POPC   C1B68623  33.259   7.481   6.176
 5258POPC   C2B68624  33.454   7.458   6.586
 5258POPC   C3B68625  33.304   7.404   7.002
 5258POPC   C4B68626  33.199   7.424   7.418
 5259POPC   NC368627  33.982  42.063   5.286
 5259POPC   PO468628  33.567  42.595   5.506
 5259POPC   GL168629  33.761  42.450   5.861
 5259POPC   GL268630  33.753  42.102   5.781
 5259POPC   C1A68631  33.624  42.467   6.300
 5259POPC   D2A68632  33.782  42.656   6.674
 5259POPC   C3A68633  33.686  42.543   7.089
 5259POPC   C4A68634  33.988  42.512   7.439
 5259POPC   C1B68635  33.932  42.050   6.203
 5259POPC   C2B68636  33.964  42.197   6.612
 5259POPC   C3B68637  34.063  42.206   7.029
 5259POPC   C4B68638  33.794  42.028   7.363
 5260POPC   NC368639  30.605  42.535   5.461
 5260POPC   PO468640  31.073  42.076   5.511
 5260POPC   GL168641  30.744  42.168   5.799
 5260POPC   GL268642  30.591  41.821   5.813
 5260POPC   C1A68643  30.642  42.386   6.175
 5260POPC   D2A68644  30.826  42.578   6.525
 5260POPC   C3A68645  30.644  42.423   6.908
 5260POPC   C4A68646  30.855  42.406   7.292
 5260POPC   C1B68647  30.392  41.943   6.200
 5260POPC   C2B68648  30.319  42.115   6.636
 5260POPC   C3B68649  30.394  41.977   7.091
 5260POPC   C4B68650  30.605  42.017   7.523
 5261POPC   NC368651  20.078  41.651   5.302
 5261POPC   PO468652  20.041  42.369   5.263
 5261POPC   GL168653  19.835  42.307   5.689
 5261POPC   GL268654  19.640  41.980   5.704
 5261POPC   C1A68655  19.904  42.369   6.160
 5261POPC   D2A68656  19.903  42.652   6.530
 5261POPC   C3A68657  20.112  42.548   6.920
 5261POPC   C4A68658  19.878  42.451   7.275
 5261POPC   C1B68659  19.489  42.031   6.153
 5261POPC   C2B68660  19.587  41.897   6.587
 5261POPC   C3B68661  19.638  42.114   6.962
 5261POPC   C4B68662  19.505  42.089   7.360
 5262POPC   NC368663   9.734  22.266   5.250
 5262POPC   PO468664   9.813  21.714   5.603
 5262POPC   GL168665   9.828  22.054   5.839
 5262POPC   GL268666   9.523  22.233   5.792
 5262POPC   C1A68667   9.851  22.026   6.293
 5262POPC   D2A68668   9.597  21.786   6.610
 5262POPC   C3A68669   9.700  21.912   7.026
 5262POPC   C4A68670  10.021  22.084   7.284
 5262POPC   C1B68671   9.487  22.379   6.256
 5262POPC   C2B68672   9.531  22.315   6.728
 5262POPC   C3B68673   9.488  22.337   7.199
 5262POPC   C4B68674   9.748  22.451   7.598
 5263POPC   NC368675  32.615   3.094   5.461
 5263POPC   PO468676  32.037   3.258   5.110
 5263POPC   GL168677  32.113   3.319   5.652
 5263POPC   GL268678  32.384   3.166   5.894
 5263POPC   C1A68679  32.127   3.537   6.102
 5263POPC   D2A68680  32.236   3.392   6.549
 5263POPC   C3A68681  32.111   3.328   6.975
 5263POPC   C4A68682  32.204   3.498   7.383
 5263POPC   C1B68683  32.631   3.404   6.228
 5263POPC   C2B68684  32.758   3.340   6.662
 5263POPC   C3B68685  32.620   3.455   7.082
 5263POPC   C4B68686  32.624   3.235   7.488
 5264POPC   NC368687  28.103  10.718   5.671
 5264POPC   PO468688  28.625  10.512   5.234
 5264POPC   GL168689  28.577  10.464   5.684
 5264POPC   GL268690  28.627  10.803   5.680
 5264POPC   C1A68691  28.444  10.432   6.144
 5264POPC   D2A68692  28.135  10.543   6.483
 5264POPC   C3A68693  28.289  10.435   6.902
 5264POPC   C4A68694  28.216  10.607   7.307
 5264POPC   C1B68695  28.747  10.877   6.102
 5264POPC   C2B68696  28.580  10.849   6.512
 5264POPC   C3B68697  28.772  10.927   6.917
 5264POPC   C4B68698  28.681  10.786   7.336
 5265POPC   NC368699   0.262  33.435   5.446
 5265POPC   PO468700   0.858  33.048   5.263
 5265POPC   GL168701   0.549  33.045   5.663
 5265POPC   GL268702   0.609  32.749   5.867
 5265POPC   C1A68703   0.368  33.247   6.072
 5265POPC   D2A68704   0.473  33.061   6.475
 5265POPC   C3A68705   0.416  33.149   6.913
 5265POPC   C4A68706   0.641  33.025   7.268
 5265POPC   C1B68707   0.210  32.765   6.122
 5265POPC   C2B68708  44.994  32.696   6.495
 5265POPC   C3B68709   0.208  32.663   6.844
 5265POPC   C4B68710   0.250  32.732   7.244
 5266POPC   NC368711   9.081   3.030   5.503
 5266POPC   PO468712   8.874   3.672   5.250
 5266POPC   GL168713   9.052   3.636   5.699
 5266POPC   GL268714   9.213   3.331   5.869
 5266POPC   C1A68715   8.892   3.584   6.149
 5266POPC   D2A68716   8.648   3.525   6.503
 5266POPC   C3A68717   8.809   3.652   6.902
 5266POPC   C4A68718   8.974   3.676   7.307
 5266POPC   C1B68719   9.167   3.171   6.290
 5266POPC   C2B68720   9.205   3.349   6.706
 5266POPC   C3B68721   9.061   3.198   7.118
 5266POPC   C4B68722   9.184   3.290   7.557
 5267POPC   NC368723  32.601  20.025   5.065
 5267POPC   PO468724  32.093  20.357   5.387
 5267POPC   GL168725  32.191  20.485   5.805
 5267POPC   GL268726  32.025  20.134   5.862
 5267POPC   C1A68727  32.279  20.746   6.205
 5267POPC   D2A68728  32.470  20.707   6.632
 5267POPC   C3A68729  32.304  20.753   7.071
 5267POPC   C4A68730  32.497  20.525   7.470
 5267POPC   C1B68731  32.250  20.222   6.243
 5267POPC   C2B68732  32.214  20.269   6.677
 5267POPC   C3B68733  32.277  20.259   7.098
 5267POPC   C4B68734  32.016  20.192   7.393
 5268POPC   NC368735  29.751  39.796   5.179
 5268POPC   PO468736  29.167  40.024   5.408
 5268POPC   GL168737  29.065  40.011   5.817
 5268POPC   GL268738  29.181  39.693   5.875
 5268POPC   C1A68739  28.960  39.940   6.246
 5268POPC   D2A68740  29.186  39.766   6.556
 5268POPC   C3A68741  29.143  39.997   6.923
 5268POPC   C4A68742  29.118  40.298   7.283
 5268POPC   C1B68743  29.474  39.494   6.169
 5268POPC   C2B68744  29.498  39.360   6.610
 5268POPC   C3B68745  29.249  39.492   6.983
 5268POPC   C4B68746  29.161  39.767   7.356
 5269POPC   NC368747  26.848  42.907   5.394
 5269POPC   PO468748  27.247  43.473   5.241
 5269POPC   GL168749  27.141  43.235   5.646
 5269POPC   GL268750  26.778  43.353   5.699
 5269POPC   C1A68751  26.947  43.017   6.052
 5269POPC   D2A68752  27.051  43.163   6.493
 5269POPC   C3A68753  26.896  42.981   6.915
 5269POPC   C4A68754  27.075  43.067   7.360
 5269POPC   C1B68755  26.729  43.462   6.160
 5269POPC   C2B68756  26.578  43.309   6.569
 5269POPC   C3B68757  26.490  43.278   6.970
 5269POPC   C4B68758  26.402  42.850   7.075
 5270POPC   NC368759  16.297  15.389   5.375
 5270POPC   PO468760  15.861  15.011   5.054
 5270POPC   GL168761  15.931  15.082   5.619
 5270POPC   GL268762  16.028  15.395   5.829
 5270POPC   C1A68763  16.063  14.967   6.090
 5270POPC   D2A68764  15.962  14.808   6.525
 5270POPC   C3A68765  15.778  14.944   6.899
 5270POPC   C4A68766  15.679  14.937   7.301
 5270POPC   C1B68767  15.917  15.444   6.268
 5270POPC   C2B68768  15.869  15.394   6.716
 5270POPC   C3B68769  16.088  15.496   7.093
 5270POPC   C4B68770  16.109  15.703   7.507
 5271POPC   NC368771  26.294  28.535   5.532
 5271POPC   PO468772  26.006  27.949   5.413
 5271POPC   GL168773  26.056  28.166   5.797
 5271POPC   GL268774  25.826  28.460   5.776
 5271POPC   C1A68775  26.322  28.163   6.189
 5271POPC   D2A68776  26.257  28.376   6.607
 5271POPC   C3A68777  26.276  28.108   6.936
 5271POPC   C4A68778  26.069  27.885   7.244
 5271POPC   C1B68779  25.943  28.486   6.216
 5271POPC   C2B68780  25.728  28.499   6.649
 5271POPC   C3B68781  25.939  28.497   7.041
 5271POPC   C4B68782  25.902  28.772   7.437
 5272POPC   NC368783  25.704   9.709   5.474
 5272POPC   PO468784  26.461   9.502   5.532
 5272POPC   GL168785  26.143   9.804   5.741
 5272POPC   GL268786  25.943   9.565   5.897
 5272POPC   C1A68787  25.818  10.051   6.046
 5272POPC   D2A68788  25.784  10.124   6.505
 5272POPC   C3A68789  25.993   9.844   6.803
 5272POPC   C4A68790  26.237   9.920   7.186
 5272POPC   C1B68791  26.167   9.735   6.245
 5272POPC   C2B68792  26.252   9.477   6.548
 5272POPC   C3B68793  26.380   9.365   6.915
 5272POPC   C4B68794  26.230   9.152   7.244
 5273POPC   NC368795  40.002  23.808   5.570
 5273POPC   PO468796  39.515  23.330   5.431
 5273POPC   GL168797  39.643  23.565   5.875
 5273POPC   GL268798  39.781  23.893   6.093
 5273POPC   C1A68799  40.024  23.467   6.186
 5273POPC   D2A68800  40.139  23.658   6.550
 5273POPC   C3A68801  40.155  23.491   6.923
 5273POPC   C4A68802  39.962  23.769   7.224
 5273POPC   C1B68803  40.272  23.969   6.176
 5273POPC   C2B68804  40.546  23.962   6.619
 5273POPC   C3B68805  40.417  23.920   7.067
 5273POPC   C4B68806  40.331  23.977   7.512
 5274POPC   NC368807  40.688  44.535   5.392
 5274POPC   PO468808  41.132   0.001   5.437
 5274POPC   GL168809  40.984  44.792   5.824
 5274POPC   GL268810  40.961  44.421   5.858
 5274POPC   C1A68811  41.077  44.868   6.282
 5274POPC   D2A68812  40.783  44.923   6.647
 5274POPC   C3A68813  40.844  44.813   7.091
 5274POPC   C4A68814  40.688  44.749   7.541
 5274POPC   C1B68815  40.716  44.524   6.268
 5274POPC   C2B68816  40.665  44.399   6.732
 5274POPC   C3B68817  40.492  44.403   7.191
 5274POPC   C4B68818  40.607  44.205   7.604
 5275POPC   NC368819  38.806  39.120   5.378
 5275POPC   PO468820  38.097  39.012   5.414
 5275POPC   GL168821  38.214  39.181   5.794
 5275POPC   GL268822  38.515  39.209   5.800
 5275POPC   C1A68823  38.206  39.427   6.178
 5275POPC   D2A68824  38.399  39.354   6.574
 5275POPC   C3A68825  38.131  39.420   6.919
 5275POPC   C4A68826  38.239  39.550   7.312
 5275POPC   C1B68827  38.497  39.004   6.203
 5275POPC   C2B68828  38.813  38.970   6.521
 5275POPC   C3B68829  38.931  39.155   6.893
 5275POPC   C4B68830  38.723  39.256   7.240
 5276POPC   NC368831  34.995  41.301   5.336
 5276POPC   PO468832  34.427  41.701   5.524
 5276POPC   GL168833  34.543  41.555   5.914
 5276POPC   GL268834  34.612  41.232   5.858
 5276POPC   C1A68835  34.643  41.490   6.355
 5276POPC   D2A68836  34.447  41.455   6.760
 5276POPC   C3A68837  34.792  41.499   7.064
 5276POPC   C4A68838  35.022  41.850   7.276
 5276POPC   C1B68839  34.386  41.046   6.196
 5276POPC   C2B68840  34.334  40.959   6.624
 5276POPC   C3B68841  34.457  41.011   7.059
 5276POPC   C4B68842  34.653  41.181   7.444
 5277POPC   NC368843  27.305   4.116   5.549
 5277POPC   PO468844  27.981   4.045   5.566
 5277POPC   GL168845  27.970   4.201   5.974
 5277POPC   GL268846  27.610   4.217   5.968
 5277POPC   C1A68847  27.825   4.403   6.393
 5277POPC   D2A68848  27.489   4.384   6.732
 5277POPC   C3A68849  27.635   4.475   7.153
 5277POPC   C4A68850  27.932   4.785   7.312
 5277POPC   C1B68851  27.433   4.022   6.341
 5277POPC   C2B68852  27.321   3.830   6.760
 5277POPC   C3B68853  27.226   4.106   7.123
 5277POPC   C4B68854  27.292   4.318   7.522
 5278POPC   NC368855  27.120  30.637   5.417
 5278POPC   PO468856  26.478  30.381   5.501
 5278POPC   GL168857  26.744  30.583   5.788
 5278POPC   GL268858  27.031  30.375   5.850
 5278POPC   C1A68859  26.818  30.842   6.169
 5278POPC   D2A68860  26.614  31.016   6.559
 5278POPC   C3A68861  26.881  30.990   6.918
 5278POPC   C4A68862  27.016  30.779   7.271
 5278POPC   C1B68863  26.886  30.340   6.265
 5278POPC   C2B68864  26.838  30.519   6.678
 5278POPC   C3B68865  26.980  30.330   7.062
 5278POPC   C4B68866  27.067  30.163   7.475
 5279POPC   NC368867  42.095  42.131   5.354
 5279POPC   PO468868  42.794  42.117   5.242
 5279POPC   GL168869  42.543  42.250   5.664
 5279POPC   GL268870  42.229  42.156   5.855
 5279POPC   C1A68871  42.600  42.364   6.131
 5279POPC   D2A68872  42.442  42.334   6.572
 5279POPC   C3A68873  42.550  42.472   6.988
 5279POPC   C4A68874  42.616  42.239   7.391
 5279POPC   C1B68875  42.035  42.359   6.240
 5279POPC   C2B68876  41.833  42.358   6.658
 5279POPC   C3B68877  42.039  42.389   7.096
 5279POPC   C4B68878  42.118  42.295   7.563
 5280POPC   NC368879  33.816  38.812   5.515
 5280POPC   PO468880  33.734  39.412   5.334
 5280POPC   GL168881  33.882  39.274   5.783
 5280POPC   GL268882  34.213  39.115   5.828
 5280POPC   C1A68883  33.693  39.191   6.224
 5280POPC   D2A68884  33.441  39.038   6.598
 5280POPC   C3A68885  33.529  39.239   7.010
 5280POPC   C4A68886  33.599  39.405   7.432
 5280POPC   C1B68887  34.278  39.433   6.174
 5280POPC   C2B68888  34.184  39.541   6.649
 5280POPC   C3B68889  34.029  39.404   7.101
 5280POPC   C4B68890  34.034  39.109   7.476
 5281POPC   NC368891  39.054  13.795   5.512
 5281POPC   PO468892  39.533  13.260   5.553
 5281POPC   GL168893  39.296  13.504   5.866
 5281POPC   GL268894  39.416  13.869   5.870
 5281POPC   C1A68895  39.106  13.495   6.295
 5281POPC   D2A68896  39.055  13.435   6.763
 5281POPC   C3A68897  39.168  13.422   7.188
 5281POPC   C4A68898  39.275  13.654   7.571
 5281POPC   C1B68899  39.121  14.008   6.194
 5281POPC   C2B68900  38.911  13.908   6.591
 5281POPC   C3B68901  39.062  13.897   7.006
 5281POPC   C4B68902  38.825  13.767   7.341
 5282POPC   NC368903  14.844  32.830   5.614
 5282POPC   PO468904  15.336  33.308   5.473
 5282POPC   GL168905  15.326  32.998   5.804
 5282POPC   GL268906  15.649  32.826   5.810
 5282POPC   C1A68907  15.148  32.830   6.220
 5282POPC   D2A68908  14.945  32.941   6.622
 5282POPC   C3A68909  14.925  32.731   7.020
 5282POPC   C4A68910  15.127  32.840   7.403
 5282POPC   C1B68911  15.606  33.071   6.216
 5282POPC   C2B68912  15.486  32.955   6.604
 5282POPC   C3B68913  15.426  33.009   7.018
 5282POPC   C4B68914  15.477  33.234   7.402
 5283POPC   NC368915  34.910  20.083   5.355
 5283POPC   PO468916  34.590  19.572   5.173
 5283POPC   GL168917  34.651  19.529   5.668
 5283POPC   GL268918  34.910  19.776   5.748
 5283POPC   C1A68919  34.553  19.735   6.122
 5283POPC   D2A68920  34.362  19.936   6.515
 5283POPC   C3A68921  34.578  19.909   6.909
 5283POPC   C4A68922  34.535  19.542   7.163
 5283POPC   C1B68923  34.897  20.120   6.065
 5283POPC   C2B68924  34.842  20.125   6.495
 5283POPC   C3B68925  35.078  19.987   6.830
 5283POPC   C4B68926  35.093  20.145   7.226
 5284POPC   NC368927  31.887  16.915   5.493
 5284POPC   PO468928  31.194  16.649   5.506
 5284POPC   GL168929  31.444  16.817   5.829
 5284POPC   GL268930  31.730  16.597   5.868
 5284POPC   C1A68931  31.546  17.029   6.230
 5284POPC   D2A68932  31.442  17.172   6.668
 5284POPC   C3A68933  31.566  16.915   7.037
 5284POPC   C4A68934  31.836  16.859   7.410
 5284POPC   C1B68935  31.414  16.377   6.114
 5284POPC   C2B68936  31.253  16.181   6.491
 5284POPC   C3B68937  31.357  16.362   6.893
 5284POPC   C4B68938  31.676  16.421   7.203
 5285POPC   NC368939  42.854  43.539   5.468
 5285POPC   PO468940  43.551  43.770   5.377
 5285POPC   GL168941  43.214  43.808   5.729
 5285POPC   GL268942  43.079  44.152   5.820
 5285POPC   C1A68943  43.183  43.794   6.188
 5285POPC   D2A68944  43.240  43.560   6.587
 5285POPC   C3A68945  42.900  43.542   6.924
 5285POPC   C4A68946  42.889  43.562   7.368
 5285POPC   C1B68947  42.903  44.225   6.273
 5285POPC   C2B68948  42.908  44.027   6.724
 5285POPC   C3B68949  43.050  44.051   7.188
 5285POPC   C4B68950  43.208  44.353   7.558
 5286POPC   NC368951   5.723  19.169   5.457
 5286POPC   PO468952   6.076  18.626   5.281
 5286POPC   GL168953   5.888  18.755   5.710
 5286POPC   GL268954   6.021  19.046   5.870
 5286POPC   C1A68955   5.693  18.749   6.134
 5286POPC   D2A68956   5.837  18.936   6.521
 5286POPC   C3A68957   5.677  18.804   6.932
 5286POPC   C4A68958   5.992  18.729   7.251
 5286POPC   C1B68959   5.721  19.281   6.147
 5286POPC   C2B68960   5.482  19.292   6.558
 5286POPC   C3B68961   5.669  19.310   6.945
 5286POPC   C4B68962   5.676  19.135   7.349
 5287POPC   NC368963  30.890  22.070   5.388
 5287POPC   PO468964  30.360  22.423   5.505
 5287POPC   GL168965  30.563  22.152   5.803
 5287POPC   GL268966  30.890  22.277   5.866
 5287POPC   C1A68967  30.408  22.034   6.230
 5287POPC   D2A68968  30.495  21.865   6.651
 5287POPC   C3A68969  30.653  22.145   6.966
 5287POPC   C4A68970  30.686  22.268   7.385
 5287POPC   C1B68971  30.909  21.902   6.109
 5287POPC   C2B68972  30.968  21.752   6.525
 5287POPC   C3B68973  30.945  21.731   6.975
 5287POPC   C4B68974  31.136  22.061   7.225
 5288POPC   NC368975  15.686   6.163   5.580
 5288POPC   PO468976  16.197   5.734   5.529
 5288POPC   GL168977  16.259   5.787   5.915
 5288POPC   GL268978  16.201   6.102   5.911
 5288POPC   C1A68979  16.367   5.843   6.343
 5288POPC   D2A68980  16.051   5.814   6.679
 5288POPC   C3A68981  16.255   5.745   7.038
 5288POPC   C4A68982  16.205   5.909   7.440
 5288POPC   C1B68983  15.930   6.090   6.258
 5288POPC   C2B68984  15.913   6.299   6.668
 5288POPC   C3B68985  15.896   6.164   7.114
 5288POPC   C4B68986  15.742   6.060   7.560
 5289POPC   NC368987  29.274  43.662   5.375
 5289POPC   PO468988  28.990  44.348   5.509
 5289POPC   GL168989  29.019  44.073   5.887
 5289POPC   GL268990  29.050  43.718   5.813
 5289POPC   C1A68991  29.000  44.055   6.363
 5289POPC   D2A68992  28.965  44.057   6.827
 5289POPC   C3A68993  29.229  44.276   7.166
 5289POPC   C4A68994  29.133  44.188   7.636
 5289POPC   C1B68995  29.269  43.648   6.164
 5289POPC   C2B68996  29.124  43.566   6.574
 5289POPC   C3B68997  29.274  43.640   6.989
 5289POPC   C4B68998  29.043  43.833   7.293
 5290POPC   NC368999  13.399  20.728   5.093
 5290POPC   PO469000  12.928  20.415   5.440
 5290POPC   GL169001  12.919  20.707   5.756
 5290POPC   GL269002  12.591  20.882   5.742
 5290POPC   C1A69003  13.083  20.705   6.186
 5290POPC   D2A69004  12.892  20.444   6.494
 5290POPC   C3A69005  13.102  20.523   6.845
 5290POPC   C4A69006  12.869  20.583   7.219
 5290POPC   C1B69007  12.580  20.738   6.145
 5290POPC   C2B69008  12.692  20.927   6.545
 5290POPC   C3B69009  12.542  20.867   6.967
 5290POPC   C4B69010  12.518  20.892   7.429
 5291POPC   NC369011  18.539  25.033   5.461
 5291POPC   PO469012  17.901  25.430   5.455
 5291POPC   GL169013  18.073  25.353   5.893
 5291POPC   GL269014  18.402  25.264   5.894
 5291POPC   C1A69015  18.155  25.477   6.299
 5291POPC   D2A69016  18.424  25.332   6.588
 5291POPC   C3A69017  18.220  25.539   6.897
 5291POPC   C4A69018  18.382  25.669   7.245
 5291POPC   C1B69019  18.413  24.969   6.228
 5291POPC   C2B69020  18.511  24.833   6.665
 5291POPC   C3B69021  18.444  25.077   7.038
 5291POPC   C4B69022  18.107  25.216   7.285
 5292POPC   NC369023  28.497   6.948   5.564
 5292POPC   PO469024  28.525   6.295   5.419
 5292POPC   GL169025  28.326   6.492   5.758
 5292POPC   GL269026  28.630   6.612   5.934
 5292POPC   C1A69027  28.196   6.551   6.188
 5292POPC   D2A69028  28.310   6.379   6.604
 5292POPC   C3A69029  28.291   6.629   7.001
 5292POPC   C4A69030  28.337   6.579   7.476
 5292POPC   C1B69031  28.617   6.771   6.381
 5292POPC   C2B69032  28.828   6.679   6.762
 5292POPC   C3B69033  28.871   6.729   7.194
 5292POPC   C4B69034  28.709   6.896   7.577
 5293POPC   NC369035  23.190  38.389   5.265
 5293POPC   PO469036  22.815  38.782   5.393
 5293POPC   GL169037  22.995  38.585   5.798
 5293POPC   GL269038  23.118  38.834   6.037
 5293POPC   C1A69039  22.979  38.338   6.222
 5293POPC   D2A69040  22.704  38.225   6.590
 5293POPC   C3A69041  22.706  38.335   7.062
 5293POPC   C4A69042  23.059  38.362   7.383
 5293POPC   C1B69043  22.740  38.775   6.267
 5293POPC   C2B69044  22.693  38.725   6.709
 5293POPC   C3B69045  22.962  38.784   7.061
 5293POPC   C4B69046  23.128  38.879   7.476
 5294POPC   NC369047  11.597  41.067   5.543
 5294POPC   PO469048  11.373  40.436   5.347
 5294POPC   GL169049  11.278  40.717   5.718
 5294POPC   GL269050  11.608  40.701   5.893
 5294POPC   C1A69051  11.236  40.982   6.124
 5294POPC   D2A69052  11.147  40.847   6.553
 5294POPC   C3A69053  11.340  40.934   6.971
 5294POPC   C4A69054  11.191  41.148   7.332
 5294POPC   C1B69055  11.510  40.559   6.296
 5294POPC   C2B69056  11.578  40.530   6.743
 5294POPC   C3B69057  11.762  40.545   7.154
 5294POPC   C4B69058  11.605  40.552   7.589
 5295POPC   NC369059  44.144  38.873   5.476
 5295POPC   PO469060  43.681  38.480   5.424
 5295POPC   GL169061  43.779  38.433   5.862
 5295POPC   GL269062  43.852  38.087   5.948
 5295POPC   C1A69063  43.880  38.553   6.310
 5295POPC   D2A69064  44.052  38.361   6.702
 5295POPC   C3A69065  44.026  38.635   7.051
 5295POPC   C4A69066  44.003  38.589   7.501
 5295POPC   C1B69067  43.709  38.069   6.381
 5295POPC   C2B69068  43.538  38.327   6.677
 5295POPC   C3B69069  43.422  38.287   7.087
 5295POPC   C4B69070  43.463  38.169   7.503
 5296POPC   NC369071  12.627  25.129   5.049
 5296POPC   PO469072  13.057  25.360   5.485
 5296POPC   GL169073  13.126  25.426   5.911
 5296POPC   GL269074  13.189  25.805   5.890
 5296POPC   C1A69075  12.890  25.310   6.303
 5296POPC   D2A69076  12.609  25.093   6.607
 5296POPC   C3A69077  12.663  25.227   7.030
 5296POPC   C4A69078  12.822  25.125   7.431
 5296POPC   C1B69079  13.157  25.748   6.344
 5296POPC   C2B69080  13.097  25.506   6.749
 5296POPC   C3B69081  13.005  25.572   7.198
 5296POPC   C4B69082  12.916  25.937   7.485
 5297POPC   NC369083  28.847  44.963   5.510
 5297POPC   PO469084  28.308  44.683   5.352
 5297POPC   GL169085  28.246  44.545   5.773
 5297POPC   GL269086  27.973  44.357   5.782
 5297POPC   C1A69087  28.388  44.674   6.190
 5297POPC   D2A69088  28.332  44.916   6.563
 5297POPC   C3A69089  28.389  44.654   6.886
 5297POPC   C4A69090  28.502  44.800   7.227
 5297POPC   C1B69091  28.072  44.277   6.202
 5297POPC   C2B69092  28.014  44.479   6.572
 5297POPC   C3B69093  27.990  44.323   6.974
 5297POPC   C4B69094  28.115  44.504   7.337
 5298POPC   NC369095   3.542  11.831   5.559
 5298POPC   PO469096   3.967  12.235   5.374
 5298POPC   GL169097   3.743  12.280   5.801
 5298POPC   GL269098   3.571  12.012   6.013
 5298POPC   C1A69099   3.706  12.426   6.251
 5298POPC   D2A69100   3.476  12.135   6.530
 5298POPC   C3A69101   3.530  12.261   6.950
 5298POPC   C4A69102   3.493  12.179   7.397
 5298POPC   C1B69103   3.678  11.629   6.246
 5298POPC   C2B69104   3.624  11.575   6.680
 5298POPC   C3B69105   3.526  11.756   7.082
 5298POPC   C4B69106   3.692  11.720   7.509
 5299POPC   NC369107  31.990  14.015   5.287
 5299POPC   PO469108  32.421  13.512   5.375
 5299POPC   GL169109  32.477  13.637   5.782
 5299POPC   GL269110  32.125  13.689   5.841
 5299POPC   C1A69111  32.595  13.603   6.221
 5299POPC   D2A69112  32.559  13.871   6.571
 5299POPC   C3A69113  32.349  13.768   6.965
 5299POPC   C4A69114  32.544  13.470   7.209
 5299POPC   C1B69115  32.134  13.374   6.189
 5299POPC   C2B69116  32.090  13.477   6.624
 5299POPC   C3B69117  32.084  13.300   7.037
 5299POPC   C4B69118  31.806  13.322   7.386
 5300POPC   NC369119  15.780  36.301   5.465
 5300POPC   PO469120  16.216  35.728   5.501
 5300POPC   GL169121  16.075  36.013   5.802
 5300POPC   GL269122  15.772  35.886   5.873
 5300POPC   C1A69123  16.076  36.193   6.220
 5300POPC   D2A69124  16.144  35.960   6.621
 5300POPC   C3A69125  16.234  36.187   6.969
 5300POPC   C4A69126  15.981  36.366   7.269
 5300POPC   C1B69127  15.914  35.702   6.245
 5300POPC   C2B69128  15.719  35.626   6.656
 5300POPC   C3B69129  15.758  35.912   7.022
 5300POPC   C4B69130  15.760  35.987   7.501
 5301POPC   NC369131  15.478  37.843   5.659
 5301POPC   PO469132  14.890  37.701   5.423
 5301POPC   GL169133  15.056  37.578   5.796
 5301POPC   GL269134  15.284  37.355   5.800
 5301POPC   C1A69135  15.192  37.639   6.218
 5301POPC   D2A69136  15.156  37.435   6.583
 5301POPC   C3A69137  15.048  37.637   6.950
 5301POPC   C4A69138  15.281  37.614   7.320
 5301POPC   C1B69139  15.414  37.175   6.185
 5301POPC   C2B69140  15.551  37.106   6.605
 5301POPC   C3B69141  15.409  37.220   6.998
 5301POPC   C4B69142  15.673  37.300   7.335
 5302POPC   NC369143  16.078  42.842   5.355
 5302POPC   PO469144  16.136  43.478   5.325
 5302POPC   GL169145  15.975  43.191   5.726
 5302POPC   GL269146  15.811  42.832   5.807
 5302POPC   C1A69147  16.080  43.049   6.179
 5302POPC   D2A69148  16.333  42.955   6.562
 5302POPC   C3A69149  16.164  43.233   6.891
 5302POPC   C4A69150  16.120  43.093   7.297
 5302POPC   C1B69151  15.572  43.123   6.073
 5302POPC   C2B69152  15.564  43.173   6.519
 5302POPC   C3B69153  15.723  42.990   6.884
 5302POPC   C4B69154  15.598  43.038   7.272
 5303POPC   NC369155  11.101  34.921   5.529
 5303POPC   PO469156  11.623  34.434   5.397
 5303POPC   GL169157  11.464  34.535   5.813
 5303POPC   GL269158  11.078  34.497   5.842
 5303POPC   C1A69159  11.531  34.360   6.227
 5303POPC   D2A69160  11.332  34.318   6.628
 5303POPC   C3A69161  11.422  34.583   6.964
 5303POPC   C4A69162  11.598  34.554   7.371
 5303POPC   C1B69163  11.093  34.653   6.282
 5303POPC   C2B69164  10.855  34.510   6.649
 5303POPC   C3B69165  10.956  34.412   7.075
 5303POPC   C4B69166  11.127  34.758   7.342
 5304POPC   NC369167  39.068  40.620   5.137
 5304POPC   PO469168  38.990  41.166   5.442
 5304POPC   GL169169  39.113  40.822   5.671
 5304POPC   GL269170  39.187  41.099   5.926
 5304POPC   C1A69171  39.066  40.645   6.087
 5304POPC   D2A69172  39.029  40.920   6.441
 5304POPC   C3A69173  38.930  40.714   6.829
 5304POPC   C4A69174  39.167  40.603   7.196
 5304POPC   C1B69175  39.507  40.952   6.213
 5304POPC   C2B69176  39.612  40.970   6.642
 5304POPC   C3B69177  39.309  41.059   6.955
 5304POPC   C4B69178  38.933  41.127   7.218
 5305POPC   NC369179   1.967  33.765   5.296
 5305POPC   PO469180   2.060  34.378   5.484
 5305POPC   GL169181   2.059  34.035   5.797
 5305POPC   GL269182   2.005  33.687   5.799
 5305POPC   C1A69183   2.259  33.869   6.185
 5305POPC   D2A69184   2.410  33.547   6.395
 5305POPC   C3A69185   2.293  33.624   6.804
 5305POPC   C4A69186   2.045  33.767   7.162
 5305POPC   C1B69187   1.749  33.888   6.202
 5305POPC   C2B69188   1.553  33.946   6.658
 5305POPC   C3B69189   1.559  33.927   7.125
 5305POPC   C4B69190   1.529  33.527   7.408
 5306POPC   NC369191  29.131  42.041   5.252
 5306POPC   PO469192  29.471  42.541   5.341
 5306POPC   GL169193  29.279  42.318   5.714
 5306POPC   GL269194  28.982  42.084   5.789
 5306POPC   C1A69195  29.408  42.197   6.137
 5306POPC   D2A69196  29.354  42.419   6.525
 5306POPC   C3A69197  29.472  42.201   6.844
 5306POPC   C4A69198  29.338  42.259   7.223
 5306POPC   C1B69199  28.929  42.113   6.268
 5306POPC   C2B69200  28.931  42.153   6.744
 5306POPC   C3B69201  28.829  42.271   7.169
 5306POPC   C4B69202  28.972  42.044   7.546
 5307POPC   NC369203   6.366   2.150   5.442
 5307POPC   PO469204   7.075   2.130   5.397
 5307POPC   GL169205   6.742   2.202   5.764
 5307POPC   GL269206   6.546   1.850   5.840
 5307POPC   C1A69207   6.664   2.176   6.217
 5307POPC   D2A69208   6.719   1.927   6.576
 5307POPC   C3A69209   6.667   2.154   6.942
 5307POPC   C4A69210   6.781   2.085   7.345
 5307POPC   C1B69211   6.412   1.592   6.224
 5307POPC   C2B69212   6.472   1.482   6.682
 5307POPC   C3B69213   6.508   1.684   7.119
 5307POPC   C4B69214   6.487   1.772   7.629
 5308POPC   NC369215  15.806  20.631   5.281
 5308POPC   PO469216  16.108  20.176   5.546
 5308POPC   GL169217  15.983  20.583   5.798
 5308POPC   GL269218  16.200  20.876   5.805
 5308POPC   C1A69219  15.739  20.722   6.213
 5308POPC   D2A69220  15.481  20.640   6.613
 5308POPC   C3A69221  15.703  20.561   7.020
 5308POPC   C4A69222  15.803  20.871   7.335
 5308POPC   C1B69223  16.259  20.706   6.237
 5308POPC   C2B69224  16.054  20.517   6.617
 5308POPC   C3B69225  16.146  20.309   7.026
 5308POPC   C4B69226  16.016  20.410   7.436
 5309POPC   NC369227  15.796  35.567   5.439
 5309POPC   PO469228  16.044  34.951   5.315
 5309POPC   GL169229  16.174  35.228   5.691
 5309POPC   GL269230  15.881  35.338   5.877
 5309POPC   C1A69231  16.295  35.378   6.141
 5309POPC   D2A69232  16.295  35.276   6.586
 5309POPC   C3A69233  16.088  35.435   6.961
 5309POPC   C4A69234  16.144  35.729   7.294
 5309POPC   C1B69235  15.777  35.210   6.296
 5309POPC   C2B69236  15.690  35.091   6.724
 5309POPC   C3B69237  15.741  35.068   7.175
 5309POPC   C4B69238  16.093  35.184   7.441
 5310POPC   NC369239  33.020   0.283   5.169
 5310POPC   PO469240  33.001  44.541   5.369
 5310POPC   GL169241  33.066  44.346   5.774
 5310POPC   GL269242  33.398  44.300   5.968
 5310POPC   C1A69243  32.955  44.413   6.196
 5310POPC   D2A69244  33.214  44.384   6.553
 5310POPC   C3A69245  33.120  44.563   6.944
 5310POPC   C4A69246  32.993  44.335   7.308
 5310POPC   C1B69247  33.374  44.722   6.184
 5310POPC   C2B69248  33.348  44.954   6.608
 5310POPC   C3B69249  33.396   0.034   7.068
 5310POPC   C4B69250  33.410   0.058   7.554
 5311POPC   NC369251  16.702   0.725   5.361
 5311POPC   PO469252  17.007   0.175   5.076
 5311POPC   GL169253  16.939   0.312   5.564
 5311POPC   GL269254  16.632   0.229   5.764
 5311POPC   C1A69255  17.024   0.437   6.020
 5311POPC   D2A69256  16.901   0.363   6.474
 5311POPC   C3A69257  16.930   0.644   6.860
 5311POPC   C4A69258  16.862   0.408   7.283
 5311POPC   C1B69259  16.530   0.535   6.110
 5311POPC   C2B69260  16.453   0.611   6.541
 5311POPC   C3B69261  16.434   0.535   6.994
 5311POPC   C4B69262  16.533   0.789   7.367
 5312POPC   NC369263  39.546  35.590   5.448
 5312POPC   PO469264  39.150  35.153   5.210
 5312POPC   GL169265  39.336  35.162   5.679
 5312POPC   GL269266  39.184  35.458   5.803
 5312POPC   C1A69267  39.442  35.229   6.169
 5312POPC   D2A69268  39.180  35.330   6.558
 5312POPC   C3A69269  39.367  35.163   6.959
 5312POPC   C4A69270  39.355  35.118   7.436
 5312POPC   C1B69271  38.816  35.512   6.067
 5312POPC   C2B69272  38.689  35.580   6.497
 5312POPC   C3B69273  38.873  35.632   6.904
 5312POPC   C4B69274  39.128  35.512   7.236
 5313POPC   NC369275  10.880  16.483   5.266
 5313POPC   PO469276  11.118  16.998   5.312
 5313POPC   GL169277  11.201  16.624   5.681
 5313POPC   GL269278  11.312  16.895   5.849
 5313POPC   C1A69279  11.286  16.542   6.183
 5313POPC   D2A69280  11.031  16.632   6.572
 5313POPC   C3A69281  11.151  16.662   7.011
 5313POPC   C4A69282  10.937  16.649   7.381
 5313POPC   C1B69283  11.097  17.029   6.240
 5313POPC   C2B69284  11.185  17.113   6.688
 5313POPC   C3B69285  11.411  17.101   7.060
 5313POPC   C4B69286  11.402  16.860   7.437
 5314POPC   NC369287  29.399  29.486   5.510
 5314POPC   PO469288  28.964  29.932   5.213
 5314POPC   GL169289  29.117  29.934   5.634
 5314POPC   GL269290  29.018  29.650   5.863
 5314POPC   C1A69291  29.108  30.148   6.026
 5314POPC   D2A69292  29.194  30.116   6.484
 5314POPC   C3A69293  28.915  30.006   6.846
 5314POPC   C4A69294  29.168  29.798   7.141
 5314POPC   C1B69295  29.424  29.755   6.112
 5314POPC   C2B69296  29.645  29.770   6.521
 5314POPC   C3B69297  29.639  29.563   6.951
 5314POPC   C4B69298  29.599  29.582   7.405
 5315POPC   NC369299  28.576  12.927   5.324
 5315POPC   PO469300  28.184  12.485   5.598
 5315POPC   GL169301  28.334  12.716   5.893
 5315POPC   GL269302  28.558  13.001   5.827
 5315POPC   C1A69303  28.352  12.554   6.314
 5315POPC   D2A69304  28.374  12.457   6.770
 5315POPC   C3A69305  28.199  12.786   7.014
 5315POPC   C4A69306  28.479  13.035   7.213
 5315POPC   C1B69307  28.275  13.107   6.191
 5315POPC   C2B69308  28.078  13.139   6.585
 5315POPC   C3B69309  28.043  13.330   6.978
 5315POPC   C4B69310  27.996  13.119   7.399
 5316POPC   NC369311  16.485  25.708   5.125
 5316POPC   PO469312  17.062  25.944   5.276
 5316POPC   GL169313  16.754  25.836   5.685
 5316POPC   GL269314  16.400  25.848   5.736
 5316POPC   C1A69315  16.797  25.971   6.150
 5316POPC   D2A69316  16.765  25.773   6.577
 5316POPC   C3A69317  16.856  26.009   6.939
 5316POPC   C4A69318  17.238  26.014   7.171
 5316POPC   C1B69319  16.350  25.742   6.214
 5316POPC   C2B69320  16.282  25.916   6.681
 5316POPC   C3B69321  16.371  26.050   7.139
 5316POPC   C4B69322  16.490  25.985   7.614
 5317POPC   NC369323  36.659  37.669   5.568
 5317POPC   PO469324  36.764  38.206   5.284
 5317POPC   GL169325  37.048  37.950   5.697
 5317POPC   GL269326  37.073  37.538   5.834
 5317POPC   C1A69327  36.943  37.852   6.191
 5317POPC   D2A69328  36.670  38.015   6.545
 5317POPC   C3A69329  36.738  37.788   6.912
 5317POPC   C4A69330  36.967  37.810   7.255
 5317POPC   C1B69331  37.236  37.405   6.242
 5317POPC   C2B69332  37.137  37.586   6.654
 5317POPC   C3B69333  37.064  37.355   7.040
 5317POPC   C4B69334  37.192  37.225   7.463
 5318POPC   NC369335  29.543   5.279   5.472
 5318POPC   PO469336  29.079   4.879   5.791
 5318POPC   GL169337  29.291   5.175   5.967
 5318POPC   GL269338  29.206   5.457   5.864
 5318POPC   C1A69339  29.321   5.273   6.407
 5318POPC   D2A69340  29.054   5.020   6.653
 5318POPC   C3A69341  29.208   4.981   7.041
 5318POPC   C4A69342  28.979   4.761   7.299
 5318POPC   C1B69343  28.883   5.433   6.227
 5318POPC   C2B69344  28.877   5.495   6.683
 5318POPC   C3B69345  28.759   5.258   7.067
 5318POPC   C4B69346  28.788   5.188   7.493
 5319POPC   NC369347  13.575  42.300   5.456
 5319POPC   PO469348  14.263  42.148   5.668
 5319POPC   GL169349  13.814  42.234   5.903
 5319POPC   GL269350  13.429  42.074   5.876
 5319POPC   C1A69351  13.526  42.425   6.214
 5319POPC   D2A69352  13.458  42.729   6.527
 5319POPC   C3A69353  13.522  42.525   6.936
 5319POPC   C4A69354  13.679  42.500   7.367
 5319POPC   C1B69355  13.454  41.934   6.279
 5319POPC   C2B69356  13.619  42.076   6.631
 5319POPC   C3B69357  13.375  42.040   6.990
 5319POPC   C4B69358  13.520  42.028   7.381
 5320POPC   NC369359  23.187  27.201   5.399
 5320POPC   PO469360  22.981  27.848   5.564
 5320POPC   GL169361  22.849  27.513   5.807
 5320POPC   GL269362  22.610  27.322   5.650
 5320POPC   C1A69363  22.935  27.517   6.225
 5320POPC   D2A69364  23.090  27.695   6.585
 5320POPC   C3A69365  22.880  27.500   6.929
 5320POPC   C4A69366  22.780  27.685   7.311
 5320POPC   C1B69367  22.581  27.135   6.083
 5320POPC   C2B69368  22.701  27.169   6.531
 5320POPC   C3B69369  22.636  26.994   6.944
 5320POPC   C4B69370  22.777  27.173   7.356
 5321POPC   NC369371   7.419  35.099   5.383
 5321POPC   PO469372   7.021  35.629   5.416
 5321POPC   GL169373   7.148  35.414   5.791
 5321POPC   GL269374   7.499  35.399   5.780
 5321POPC   C1A69375   7.016  35.274   6.214
 5321POPC   D2A69376   6.961  35.336   6.617
 5321POPC   C3A69377   7.317  35.329   6.893
 5321POPC   C4A69378   7.332  35.260   7.337
 5321POPC   C1B69379   7.520  35.329   6.216
 5321POPC   C2B69380   7.667  35.569   6.552
 5321POPC   C3B69381   7.823  35.505   6.956
 5321POPC   C4B69382   7.785  35.121   7.183
 5322POPC   NC369383  28.192  10.799   5.190
 5322POPC   PO469384  28.797  11.217   5.391
 5322POPC   GL169385  28.562  11.287   5.814
 5322POPC   GL269386  28.564  11.628   5.936
 5322POPC   C1A69387  28.294  11.151   6.168
 5322POPC   D2A69388  28.050  11.054   6.539
 5322POPC   C3A69389  28.272  10.980   6.913
 5322POPC   C4A69390  28.255  11.162   7.289
 5322POPC   C1B69391  28.194  11.652   6.227
 5322POPC   C2B69392  28.134  11.572   6.666
 5322POPC   C3B69393  28.451  11.577   7.011
 5322POPC   C4B69394  28.474  11.623   7.498
 5323POPC   NC369395  19.455  39.613   5.571
 5323POPC   PO469396  19.849  39.982   5.200
 5323POPC   GL169397  19.833  40.158   5.630
 5323POPC   GL269398  19.833  39.864   5.787
 5323POPC   C1A69399  20.008  40.224   6.075
 5323POPC   D2A69400  19.869  40.362   6.494
 5323POPC   C3A69401  19.913  40.153   6.892
 5323POPC   C4A69402  20.143  40.306   7.240
 5323POPC   C1B69403  19.665  39.869   6.235
 5323POPC   C2B69404  19.609  39.700   6.675
 5323POPC   C3B69405  19.593  39.815   7.106
 5323POPC   C4B69406  19.677  40.120   7.390
 5324POPC   NC369407  39.270  37.259   5.566
 5324POPC   PO469408  39.079  37.893   5.484
 5324POPC   GL169409  39.097  37.715   5.866
 5324POPC   GL269410  39.390  37.880   5.990
 5324POPC   C1A69411  38.945  37.863   6.276
 5324POPC   D2A69412  38.891  38.064   6.689
 5324POPC   C3A69413  39.126  37.779   6.944
 5324POPC   C4A69414  39.155  37.600   7.339
 5324POPC   C1B69415  39.360  37.492   6.237
 5324POPC   C2B69416  39.459  37.297   6.610
 5324POPC   C3B69417  39.549  37.449   7.012
 5324POPC   C4B69418  39.528  37.255   7.403
 5325POPC   NC369419   3.465  13.510   5.340
 5325POPC   PO469420   3.692  14.102   5.439
 5325POPC   GL169421   3.834  13.755   5.700
 5325POPC   GL269422   3.512  13.703   5.835
 5325POPC   C1A69423   3.932  13.524   6.091
 5325POPC   D2A69424   3.952  13.596   6.545
 5325POPC   C3A69425   3.689  13.616   6.929
 5325POPC   C4A69426   3.781  13.423   7.329
 5325POPC   C1B69427   3.587  13.871   6.260
 5325POPC   C2B69428   3.316  14.140   6.539
 5325POPC   C3B69429   3.130  14.117   6.971
 5325POPC   C4B69430   3.336  13.892   7.341
 5326POPC   NC369431  22.505  42.208   5.151
 5326POPC   PO469432  21.834  42.387   5.239
 5326POPC   GL169433  22.135  42.277   5.600
 5326POPC   GL269434  21.856  42.372   5.767
 5326POPC   C1A69435  22.234  42.353   6.086
 5326POPC   D2A69436  22.261  42.072   6.476
 5326POPC   C3A69437  22.333  42.276   6.899
 5326POPC   C4A69438  22.245  42.537   7.262
 5326POPC   C1B69439  21.787  42.106   6.127
 5326POPC   C2B69440  21.723  42.143   6.559
 5326POPC   C3B69441  21.857  41.980   6.963
 5326POPC   C4B69442  21.699  42.199   7.317
 5327POPC   NC369443  20.896  13.917   5.513
 5327POPC   PO469444  20.279  13.726   5.434
 5327POPC   GL169445  20.478  13.627   5.837
 5327POPC   GL269446  20.807  13.678   5.963
 5327POPC   C1A69447  20.463  13.385   6.226
 5327POPC   D2A69448  20.371  13.230   6.641
 5327POPC   C3A69449  20.668  13.382   6.953
 5327POPC   C4A69450  20.483  13.522   7.329
 5327POPC   C1B69451  20.833  13.701   6.403
 5327POPC   C2B69452  20.947  13.918   6.779
 5327POPC   C3B69453  20.679  13.949   7.140
 5327POPC   C4B69454  20.654  14.070   7.559
 5328POPC   NC369455  26.538  40.180   5.374
 5328POPC   PO469456  25.954  39.660   5.441
 5328POPC   GL169457  25.957  40.008   5.784
 5328POPC   GL269458  26.291  40.154   5.823
 5328POPC   C1A69459  26.038  40.040   6.264
 5328POPC   D2A69460  26.159  39.699   6.552
 5328POPC   C3A69461  26.017  39.762   6.970
 5328POPC   C4A69462  26.131  40.082   7.235
 5328POPC   C1B69463  26.494  39.848   6.116
 5328POPC   C2B69464  26.631  39.952   6.539
 5328POPC   C3B69465  26.538  40.053   6.952
 5328POPC   C4B69466  26.549  39.716   7.245
 5329POPC   NC369467  36.772  14.223   5.606
 5329POPC   PO469468  37.195  14.757   5.408
 5329POPC   GL169469  37.156  14.502   5.810
 5329POPC   GL269470  36.794  14.543   5.987
 5329POPC   C1A69471  37.142  14.184   6.170
 5329POPC   D2A69472  37.247  13.991   6.570
 5329POPC   C3A69473  37.020  14.195   6.923
 5329POPC   C4A69474  36.691  14.076   7.255
 5329POPC   C1B69475  36.623  14.224   6.297
 5329POPC   C2B69476  36.525  14.220   6.760
 5329POPC   C3B69477  36.653  14.549   7.079
 5329POPC   C4B69478  36.447  14.910   7.295
 5330POPC   NC369479  10.799  10.970   5.410
 5330POPC   PO469480  10.304  10.715   5.327
 5330POPC   GL169481  10.500  10.616   5.760
 5330POPC   GL269482  10.796  10.411   5.694
 5330POPC   C1A69483  10.356  10.525   6.230
 5330POPC   D2A69484  10.363  10.721   6.675
 5330POPC   C3A69485  10.419  10.569   7.109
 5330POPC   C4A69486  10.252  10.443   7.537
 5330POPC   C1B69487  10.846  10.427   6.160
 5330POPC   C2B69488  10.805  10.441   6.621
 5330POPC   C3B69489  10.938  10.568   7.038
 5330POPC   C4B69490  11.153  10.852   7.330
 5331POPC   NC369491  27.621  22.046   5.274
 5331POPC   PO469492  27.884  22.523   5.595
 5331POPC   GL169493  27.785  22.280   5.915
 5331POPC   GL269494  27.507  22.067   5.788
 5331POPC   C1A69495  27.779  22.280   6.368
 5331POPC   D2A69496  27.658  22.466   6.750
 5331POPC   C3A69497  27.730  22.237   7.112
 5331POPC   C4A69498  27.916  21.795   7.202
 5331POPC   C1B69499  27.305  22.291   6.126
 5331POPC   C2B69500  27.174  22.375   6.558
 5331POPC   C3B69501  27.242  22.189   6.964
 5331POPC   C4B69502  27.418  21.849   7.234
 5332POPC   NC369503   8.419  14.739   5.582
 5332POPC   PO469504   7.871  14.340   5.601
 5332POPC   GL169505   8.127  14.478   5.910
 5332POPC   GL269506   7.821  14.711   5.968
 5332POPC   C1A69507   8.398  14.423   6.294
 5332POPC   D2A69508   8.111  14.518   6.654
 5332POPC   C3A69509   8.078  14.328   7.043
 5332POPC   C4A69510   8.434  14.085   7.185
 5332POPC   C1B69511   8.108  14.852   6.261
 5332POPC   C2B69512   8.449  14.876   6.566
 5332POPC   C3B69513   8.560  14.610   6.947
 5332POPC   C4B69514   8.368  14.570   7.375
 5333POPC   NC369515  37.914   7.022   5.493
 5333POPC   PO469516  37.790   7.569   5.156
 5333POPC   GL169517  37.697   7.475   5.672
 5333POPC   GL269518  37.899   7.302   5.913
 5333POPC   C1A69519  37.507   7.546   6.119
 5333POPC   D2A69520  37.274   7.507   6.544
 5333POPC   C3A69521  37.404   7.594   7.006
 5333POPC   C4A69522  37.508   7.421   7.413
 5333POPC   C1B69523  37.785   7.139   6.328
 5333POPC   C2B69524  37.731   7.276   6.762
 5333POPC   C3B69525  37.876   7.159   7.158
 5333POPC   C4B69526  37.894   7.155   7.596
 5334POPC   NC369527   4.610  17.264   5.476
 5334POPC   PO469528   4.005  17.512   5.282
 5334POPC   GL169529   4.265  17.608   5.666
 5334POPC   GL269530   4.191  17.339   5.780
 5334POPC   C1A69531   4.502  17.571   6.102
 5334POPC   D2A69532   4.746  17.739   6.454
 5334POPC   C3A69533   4.607  17.523   6.827
 5334POPC   C4A69534   4.359  17.669   7.189
 5334POPC   C1B69535   4.167  17.166   6.156
 5334POPC   C2B69536   4.371  17.153   6.540
 5334POPC   C3B69537   4.135  17.299   6.883
 5334POPC   C4B69538   4.023  17.203   7.277
 5335POPC   NC369539  14.924  34.696   5.385
 5335POPC   PO469540  15.385  34.258   5.139
 5335POPC   GL169541  15.327  34.606   5.655
 5335POPC   GL269542  15.058  34.795   5.869
 5335POPC   C1A69543  15.483  34.726   6.115
 5335POPC   D2A69544  15.188  34.747   6.476
 5335POPC   C3A69545  15.286  34.844   6.931
 5335POPC   C4A69546  15.160  34.728   7.341
 5335POPC   C1B69547  15.062  34.392   6.091
 5335POPC   C2B69548  14.911  34.291   6.529
 5335POPC   C3B69549  14.917  34.477   6.931
 5335POPC   C4B69550  14.849  34.321   7.320
 5336POPC   NC369551   4.159  40.248   5.113
 5336POPC   PO469552   4.729  39.842   5.293
 5336POPC   GL169553   4.549  39.941   5.685
 5336POPC   GL269554   4.341  39.671   5.803
 5336POPC   C1A69555   4.593  39.926   6.148
 5336POPC   D2A69556   4.381  39.820   6.538
 5336POPC   C3A69557   4.342  40.217   6.814
 5336POPC   C4A69558   4.415  40.077   7.217
 5336POPC   C1B69559   4.020  39.821   6.117
 5336POPC   C2B69560   3.957  40.088   6.483
 5336POPC   C3B69561   3.966  39.897   6.883
 5336POPC   C4B69562   3.987  39.789   7.298
 5337POPC   NC369563  43.525  39.400   5.343
 5337POPC   PO469564  42.883  39.372   5.485
 5337POPC   GL169565  43.235  39.243   5.737
 5337POPC   GL269566  43.573  39.411   5.840
 5337POPC   C1A69567  43.225  39.144   6.145
 5337POPC   D2A69568  43.126  39.332   6.524
 5337POPC   C3A69569  43.111  39.114   6.848
 5337POPC   C4A69570  42.873  39.133   7.194
 5337POPC   C1B69571  43.439  39.601   6.226
 5337POPC   C2B69572  43.489  39.671   6.674
 5337POPC   C3B69573  43.386  39.525   7.063
 5337POPC   C4B69574  43.397  39.152   7.292
 5338POPC   NC369575  31.723   1.948   5.387
 5338POPC   PO469576  31.132   1.758   5.628
 5338POPC   GL169577  31.464   1.965   5.836
 5338POPC   GL269578  31.747   1.738   5.854
 5338POPC   C1A69579  31.370   2.096   6.240
 5338POPC   D2A69580  31.122   1.852   6.528
 5338POPC   C3A69581  31.163   1.992   6.950
 5338POPC   C4A69582  31.188   2.169   7.395
 5338POPC   C1B69583  31.728   1.723   6.305
 5338POPC   C2B69584  31.626   1.806   6.736
 5338POPC   C3B69585  31.628   2.046   7.126
 5338POPC   C4B69586  31.613   1.934   7.592
 5339POPC   NC369587  13.551  30.284   5.345
 5339POPC   PO469588  13.153  29.762   5.387
 5339POPC   GL169589  13.402  29.942   5.720
 5339POPC   GL269590  13.208  30.230   5.722
 5339POPC   C1A69591  13.693  29.983   6.097
 5339POPC   D2A69592  13.892  30.127   6.484
 5339POPC   C3A69593  13.658  29.955   6.825
 5339POPC   C4A69594  13.689  29.838   7.245
 5339POPC   C1B69595  13.175  30.311   6.119
 5339POPC   C2B69596  13.403  30.278   6.482
 5339POPC   C3B69597  13.261  30.268   6.912
 5339POPC   C4B69598  13.205  30.104   7.316
 5340POPC   NC369599  41.797  32.057   5.438
 5340POPC   PO469600  41.138  32.236   5.520
 5340POPC   GL169601  41.416  32.500   5.781
 5340POPC   GL269602  41.784  32.524   5.709
 5340POPC   C1A69603  41.426  32.562   6.231
 5340POPC   D2A69604  41.490  32.560   6.676
 5340POPC   C3A69605  41.361  32.208   6.945
 5340POPC   C4A69606  41.542  32.369   7.288
 5340POPC   C1B69607  41.800  32.219   6.083
 5340POPC   C2B69608  41.706  32.092   6.519
 5340POPC   C3B69609  41.865  32.168   6.928
 5340POPC   C4B69610  41.874  31.928   7.284
 5341POPC   NC369611  19.951  36.790   5.513
 5341POPC   PO469612  19.706  37.420   5.401
 5341POPC   GL169613  19.703  37.112   5.832
 5341POPC   GL269614  19.688  36.720   5.929
 5341POPC   C1A69615  19.890  37.028   6.273
 5341POPC   D2A69616  19.766  36.781   6.674
 5341POPC   C3A69617  20.023  36.849   7.101
 5341POPC   C4A69618  20.312  36.685   7.433
 5341POPC   C1B69619  19.431  36.808   6.266
 5341POPC   C2B69620  19.293  37.035   6.623
 5341POPC   C3B69621  19.509  37.043   7.037
 5341POPC   C4B69622  19.546  36.649   7.119
 5342POPC   NC369623   9.914   3.775   5.437
 5342POPC   PO469624   9.464   3.273   5.399
 5342POPC   GL169625   9.702   3.404   5.781
 5342POPC   GL269626   9.573   3.734   5.832
 5342POPC   C1A69627   9.582   3.441   6.245
 5342POPC   D2A69628   9.791   3.410   6.622
 5342POPC   C3A69629   9.651   3.711   6.881
 5342POPC   C4A69630   9.439   3.551   7.182
 5342POPC   C1B69631   9.978   3.709   6.110
 5342POPC   C2B69632  10.073   3.852   6.568
 5342POPC   C3B69633  10.147   3.712   6.987
 5342POPC   C4B69634   9.950   3.649   7.401
 5343POPC   NC369635  37.648  14.711   5.372
 5343POPC   PO469636  38.041  14.225   5.445
 5343POPC   GL169637  37.764  14.343   5.795
 5343POPC   GL269638  37.888  14.659   5.823
 5343POPC   C1A69639  37.558  14.488   6.202
 5343POPC   D2A69640  37.658  14.319   6.632
 5343POPC   C3A69641  37.492  14.416   7.057
 5343POPC   C4A69642  37.606  14.470   7.510
 5343POPC   C1B69643  38.018  14.694   6.256
 5343POPC   C2B69644  37.762  14.824   6.581
 5343POPC   C3B69645  37.569  14.907   6.967
 5343POPC   C4B69646  37.594  14.977   7.390
 5344POPC   NC369647  33.481  44.527   5.496
 5344POPC   PO469648  33.662   0.142   5.551
 5344POPC   GL169649  33.792  44.768   5.825
 5344POPC   GL269650  33.879  44.372   5.795
 5344POPC   C1A69651  33.887  44.681   6.234
 5344POPC   D2A69652  33.682  44.565   6.590
 5344POPC   C3A69653  33.793  44.720   6.959
 5344POPC   C4A69654  33.576  44.631   7.300
 5344POPC   C1B69655  34.030  44.181   6.209
 5344POPC   C2B69656  33.889  44.109   6.662
 5344POPC   C3B69657  33.946  44.251   7.099
 5344POPC   C4B69658  34.077  44.553   7.425
 5345POPC   NC369659  42.003  43.020   5.514
 5345POPC   PO469660  42.713  43.090   5.459
 5345POPC   GL169661  42.457  43.046   5.843
 5345POPC   GL269662  42.271  42.696   5.854
 5345POPC   C1A69663  42.397  43.294   6.254
 5345POPC   D2A69664  42.308  43.239   6.716
 5345POPC   C3A69665  42.405  43.381   7.160
 5345POPC   C4A69666  42.196  43.228   7.543
 5345POPC   C1B69667  42.358  42.785   6.314
 5345POPC   C2B69668  42.173  42.751   6.732
 5345POPC   C3B69669  42.074  42.953   7.124
 5345POPC   C4B69670  41.884  42.788   7.531
 5346POPC   NC369671  22.480  39.073   5.433
 5346POPC   PO469672  22.029  39.493   5.166
 5346POPC   GL169673  22.094  39.494   5.663
 5346POPC   GL269674  22.178  39.169   5.840
 5346POPC   C1A69675  22.185  39.564   6.156
 5346POPC   D2A69676  22.170  39.319   6.572
 5346POPC   C3A69677  22.405  39.398   6.963
 5346POPC   C4A69678  22.516  39.154   7.359
 5346POPC   C1B69679  22.259  38.934   6.239
 5346POPC   C2B69680  22.197  38.817   6.687
 5346POPC   C3B69681  22.078  39.010   7.095
 5346POPC   C4B69682  21.687  39.129   7.329
 5347POPC   NC369683  22.482   9.113   5.419
 5347POPC   PO469684  21.935   9.190   5.030
 5347POPC   GL169685  22.017   9.097   5.663
 5347POPC   GL269686  22.303   9.217   5.888
 5347POPC   C1A69687  21.945   9.005   6.155
 5347POPC   D2A69688  22.259   8.948   6.516
 5347POPC   C3A69689  22.100   8.826   6.932
 5347POPC   C4A69690  21.786   8.649   7.227
 5347POPC   C1B69691  22.450   9.476   6.254
 5347POPC   C2B69692  22.501   9.368   6.687
 5347POPC   C3B69693  22.540   9.089   7.010
 5347POPC   C4B69694  22.862   8.999   7.330
 5348POPC   NC369695   1.746  36.162   5.364
 5348POPC   PO469696   2.418  36.040   5.331
 5348POPC   GL169697   2.138  36.236   5.679
 5348POPC   GL269698   1.929  35.978   5.819
 5348POPC   C1A69699   2.034  36.400   6.114
 5348POPC   D2A69700   2.121  36.210   6.537
 5348POPC   C3A69701   1.865  36.221   6.897
 5348POPC   C4A69702   1.784  36.210   7.369
 5348POPC   C1B69703   1.768  35.965   6.245
 5348POPC   C2B69704   1.832  35.753   6.647
 5348POPC   C3B69705   1.837  35.747   7.111
 5348POPC   C4B69706   1.723  35.707   7.559
 5349POPC   NC369707  32.727  19.231   5.397
 5349POPC   PO469708  32.161  18.798   5.455
 5349POPC   GL169709  32.334  18.836   5.841
 5349POPC   GL269710  32.469  19.156   5.915
 5349POPC   C1A69711  32.150  18.845   6.241
 5349POPC   D2A69712  32.300  18.816   6.634
 5349POPC   C3A69713  32.088  18.858   7.010
 5349POPC   C4A69714  32.370  19.081   7.275
 5349POPC   C1B69715  32.347  19.317   6.346
 5349POPC   C2B69716  32.327  19.372   6.806
 5349POPC   C3B69717  32.654  19.461   7.092
 5349POPC   C4B69718  32.658  19.619   7.520
 5350POPC   NC369719  13.680  40.674   5.175
 5350POPC   PO469720  13.488  41.265   5.398
 5350POPC   GL169721  13.685  40.966   5.630
 5350POPC   GL269722  13.776  41.191   5.880
 5350POPC   C1A69723  13.751  40.658   5.979
 5350POPC   D2A69724  13.642  40.729   6.422
 5350POPC   C3A69725  13.833  40.533   6.776
 5350POPC   C4A69726  13.738  40.553   7.219
 5350POPC   C1B69727  13.364  40.985   6.060
 5350POPC   C2B69728  13.222  41.023   6.494
 5350POPC   C3B69729  13.375  40.821   6.874
 5350POPC   C4B69730  13.555  41.046   7.194
 5351POPC   NC369731  42.650  24.960   5.608
 5351POPC   PO469732  42.173  25.247   5.145
 5351POPC   GL169733  42.212  25.347   5.638
 5351POPC   GL269734  42.499  25.366   5.907
 5351POPC   C1A69735  42.076  25.156   6.070
 5351POPC   D2A69736  42.292  25.141   6.468
 5351POPC   C3A69737  42.080  25.196   6.857
 5351POPC   C4A69738  42.134  25.391   7.266
 5351POPC   C1B69739  42.748  25.389   6.275
 5351POPC   C2B69740  42.780  25.130   6.632
 5351POPC   C3B69741  42.579  25.198   7.024
 5351POPC   C4B69742  42.570  25.199   7.452
 5352POPC   NC369743  29.618  14.980   5.446
 5352POPC   PO469744  30.072  15.370   5.319
 5352POPC   GL169745  29.877  15.321   5.746
 5352POPC   GL269746  29.852  14.974   5.907
 5352POPC   C1A69747  30.028  15.392   6.173
 5352POPC   D2A69748  30.109  15.170   6.552
 5352POPC   C3A69749  29.846  15.136   6.923
 5352POPC   C4A69750  30.049  15.174   7.321
 5352POPC   C1B69751  29.926  14.747   6.314
 5352POPC   C2B69752  29.965  14.599   6.727
 5352POPC   C3B69753  29.910  14.621   7.132
 5352POPC   C4B69754  29.653  14.883   7.334
 5353POPC   NC369755   5.909  34.881   5.249
 5353POPC   PO469756   6.029  34.225   5.284
 5353POPC   GL169757   6.062  34.396   5.675
 5353POPC   GL269758   6.132  34.779   5.689
 5353POPC   C1A69759   5.794  34.533   5.989
 5353POPC   D2A69760   5.855  34.629   6.425
 5353POPC   C3A69761   5.625  34.792   6.768
 5353POPC   C4A69762   5.616  34.709   7.194
 5353POPC   C1B69763   6.167  34.891   6.107
 5353POPC   C2B69764   6.330  34.791   6.526
 5353POPC   C3B69765   6.108  34.689   6.925
 5353POPC   C4B69766   6.066  34.937   7.319
 5354POPC   NC369767  26.405  39.621   5.449
 5354POPC   PO469768  26.812  39.148   5.397
 5354POPC   GL169769  26.788  39.265   5.801
 5354POPC   GL269770  26.693  38.925   5.879
 5354POPC   C1A69771  26.956  39.340   6.222
 5354POPC   D2A69772  26.944  39.543   6.632
 5354POPC   C3A69773  26.920  39.376   7.061
 5354POPC   C4A69774  26.934  39.479   7.517
 5354POPC   C1B69775  26.491  38.873   6.276
 5354POPC   C2B69776  26.315  39.010   6.665
 5354POPC   C3B69777  26.498  39.039   7.072
 5354POPC   C4B69778  26.493  39.246   7.471
 5355POPC   NC369779  15.176  10.140   5.395
 5355POPC   PO469780  15.531   9.582   5.446
 5355POPC   GL169781  15.511   9.835   5.812
 5355POPC   GL269782  15.752  10.067   5.875
 5355POPC   C1A69783  15.401   9.710   6.233
 5355POPC   D2A69784  15.139   9.712   6.552
 5355POPC   C3A69785  15.128   9.688   6.973
 5355POPC   C4A69786  15.003   9.897   7.358
 5355POPC   C1B69787  15.712  10.098   6.330
 5355POPC   C2B69788  15.600   9.843   6.717
 5355POPC   C3B69789  15.602   9.654   7.137
 5355POPC   C4B69790  15.460   9.829   7.514
 5356POPC   NC369791   4.117   9.746   5.305
 5356POPC   PO469792   4.695   9.409   5.447
 5356POPC   GL169793   4.434   9.669   5.792
 5356POPC   GL269794   4.088   9.754   5.808
 5356POPC   C1A69795   4.369   9.811   6.222
 5356POPC   D2A69796   4.187   9.868   6.651
 5356POPC   C3A69797   4.448   9.732   7.030
 5356POPC   C4A69798   4.735   9.994   7.304
 5356POPC   C1B69799   3.884   9.977   6.146
 5356POPC   C2B69800   3.722  10.116   6.566
 5356POPC   C3B69801   3.856  10.061   7.010
 5356POPC   C4B69802   4.005   9.693   7.268
 5357POPC   NC369803   2.263   2.051   5.290
 5357POPC   PO469804   1.854   2.375   5.563
 5357POPC   GL169805   2.073   2.288   5.894
 5357POPC   GL269806   2.110   1.948   5.821
 5357POPC   C1A69807   2.003   2.192   6.311
 5357POPC   D2A69808   2.084   2.291   6.706
 5357POPC   C3A69809   2.100   1.980   7.053
 5357POPC   C4A69810   2.046   2.024   7.500
 5357POPC   C1B69811   2.275   1.778   6.179
 5357POPC   C2B69812   2.433   1.912   6.609
 5357POPC   C3B69813   2.531   1.729   7.020
 5357POPC   C4B69814   2.486   1.764   7.472
 5358POPC   NC369815  30.123  43.411   5.442
 5358POPC   PO469816  30.081  42.839   5.038
 5358POPC   GL169817  29.790  43.044   5.513
 5358POPC   GL269818  29.892  42.870   5.818
 5358POPC   C1A69819  29.620  43.254   5.961
 5358POPC   D2A69820  29.568  43.321   6.442
 5358POPC   C3A69821  29.800  43.236   6.853
 5358POPC   C4A69822  29.861  43.525   7.179
 5358POPC   C1B69823  30.111  42.888   6.218
 5358POPC   C2B69824  30.291  42.687   6.594
 5358POPC   C3B69825  30.108  42.814   6.958
 5358POPC   C4B69826  30.070  42.833   7.387
 5359POPC   NC369827  10.402  31.751   5.393
 5359POPC   PO469828  10.668  32.333   5.158
 5359POPC   GL169829  10.683  32.155   5.634
 5359POPC   GL269830  10.423  32.333   5.861
 5359POPC   C1A69831  10.787  32.104   6.114
 5359POPC   D2A69832  10.679  32.332   6.498
 5359POPC   C3A69833  10.395  32.138   6.800
 5359POPC   C4A69834  10.519  32.045   7.226
 5359POPC   C1B69835  10.299  32.591   6.184
 5359POPC   C2B69836  10.355  32.724   6.594
 5359POPC   C3B69837  10.490  32.586   6.970
 5359POPC   C4B69838  10.248  32.465   7.314
 5360POPC   NC369839  36.007  14.008   5.341
 5360POPC   PO469840  36.329  13.493   5.303
 5360POPC   GL169841  36.136  13.489   5.773
 5360POPC   GL269842  35.920  13.813   5.833
 5360POPC   C1A69843  36.024  13.518   6.269
 5360POPC   D2A69844  35.945  13.412   6.730
 5360POPC   C3A69845  36.247  13.530   7.051
 5360POPC   C4A69846  36.419  13.666   7.455
 5360POPC   C1B69847  35.948  14.024   6.263
 5360POPC   C2B69848  36.113  13.901   6.679
 5360POPC   C3B69849  36.190  14.020   7.120
 5360POPC   C4B69850  36.049  13.968   7.561
 5361POPC   NC369851  18.812  35.541   5.275
 5361POPC   PO469852  19.208  35.057   5.466
 5361POPC   GL169853  18.928  35.195   5.809
 5361POPC   GL269854  18.727  35.486   5.790
 5361POPC   C1A69855  19.056  35.264   6.251
 5361POPC   D2A69856  19.212  35.157   6.668
 5361POPC   C3A69857  19.187  35.422   7.035
 5361POPC   C4A69858  19.247  35.385   7.506
 5361POPC   C1B69859  18.577  35.392   6.217
 5361POPC   C2B69860  18.687  35.210   6.638
 5361POPC   C3B69861  18.626  35.465   7.011
 5361POPC   C4B69862  18.832  35.671   7.344
 5362POPC   NC369863  20.554  13.294   5.467
 5362POPC   PO469864  20.827  12.640   5.438
 5362POPC   GL169865  20.565  12.866   5.761
 5362POPC   GL269866  20.780  13.134   5.891
 5362POPC   C1A69867  20.483  12.882   6.221
 5362POPC   D2A69868  20.775  12.927   6.594
 5362POPC   C3A69869  20.549  12.867   6.994
 5362POPC   C4A69870  20.348  12.710   7.368
 5362POPC   C1B69871  20.975  12.742   6.124
 5362POPC   C2B69872  21.064  12.418   6.473
 5362POPC   C3B69873  20.922  12.508   6.893
 5362POPC   C4B69874  21.064  12.904   7.081
 5363POPC   NC369875  24.969  27.564   5.395
 5363POPC   PO469876  25.559  27.778   5.127
 5363POPC   GL169877  25.442  27.685   5.647
 5363POPC   GL269878  25.114  27.582   5.870
 5363POPC   C1A69879  25.554  27.458   6.099
 5363POPC   D2A69880  25.544  27.232   6.520
 5363POPC   C3A69881  25.496  27.394   6.960
 5363POPC   C4A69882  25.048  27.350   7.092
 5363POPC   C1B69883  25.243  27.857   6.202
 5363POPC   C2B69884  25.455  27.739   6.572
 5363POPC   C3B69885  25.232  27.840   6.967
 5363POPC   C4B69886  25.035  27.756   7.387
 5364POPC   NC369887  11.161  33.084   5.487
 5364POPC   PO469888  11.813  32.848   5.244
 5364POPC   GL169889  11.654  33.022   5.666
 5364POPC   GL269890  11.614  33.402   5.662
 5364POPC   C1A69891  11.523  32.844   6.113
 5364POPC   D2A69892  11.561  32.637   6.538
 5364POPC   C3A69893  11.435  32.767   6.949
 5364POPC   C4A69894  11.475  32.810   7.392
 5364POPC   C1B69895  11.658  33.353   6.124
 5364POPC   C2B69896  11.473  33.407   6.563
 5364POPC   C3B69897  11.402  33.273   7.003
 5364POPC   C4B69898  11.610  33.286   7.419
 5365POPC   NC369899  32.706  33.043   5.647
 5365POPC   PO469900  32.027  32.859   5.528
 5365POPC   GL169901  32.218  33.121   5.838
 5365POPC   GL269902  32.449  33.447   5.769
 5365POPC   C1A69903  32.403  32.938   6.233
 5365POPC   D2A69904  32.594  32.908   6.646
 5365POPC   C3A69905  32.447  32.577   6.917
 5365POPC   C4A69906  32.302  32.726   7.294
 5365POPC   C1B69907  32.296  33.442   6.214
 5365POPC   C2B69908  32.259  33.563   6.635
 5365POPC   C3B69909  32.410  33.322   6.936
 5365POPC   C4B69910  32.312  33.231   7.302
 5366POPC   NC369911  31.518  42.922   5.331
 5366POPC   PO469912  31.284  43.616   5.484
 5366POPC   GL169913  31.481  43.295   5.727
 5366POPC   GL269914  31.276  43.048   5.770
 5366POPC   C1A69915  31.549  43.297   6.182
 5366POPC   D2A69916  31.607  43.131   6.602
 5366POPC   C3A69917  31.389  43.306   6.969
 5366POPC   C4A69918  31.643  43.351   7.342
 5366POPC   C1B69919  31.532  42.793   6.051
 5366POPC   C2B69920  31.443  42.650   6.485
 5366POPC   C3B69921  31.621  42.700   6.890
 5366POPC   C4B69922  31.469  42.881   7.259
 5367POPC   NC369923  23.221  11.181   5.395
 5367POPC   PO469924  22.615  11.057   5.499
 5367POPC   GL169925  22.781  11.282   5.880
 5367POPC   GL269926  23.125  11.389   5.848
 5367POPC   C1A69927  22.922  11.151   6.308
 5367POPC   D2A69928  23.019  10.988   6.708
 5367POPC   C3A69929  22.758  11.114   7.041
 5367POPC   C4A69930  22.651  11.478   7.252
 5367POPC   C1B69931  23.331  11.429   6.226
 5367POPC   C2B69932  23.412  11.310   6.631
 5367POPC   C3B69933  23.251  11.322   7.055
 5367POPC   C4B69934  23.304  11.487   7.480
 5368POPC   NC369935  22.286  23.776   5.479
 5368POPC   PO469936  22.011  23.203   5.210
 5368POPC   GL169937  21.837  23.474   5.667
 5368POPC   GL269938  21.804  23.837   5.691
 5368POPC   C1A69939  21.958  23.622   6.125
 5368POPC   D2A69940  21.993  23.709   6.589
 5368POPC   C3A69941  22.373  23.742   6.870
 5368POPC   C4A69942  22.330  23.511   7.279
 5368POPC   C1B69943  21.925  24.112   6.069
 5368POPC   C2B69944  21.810  24.201   6.504
 5368POPC   C3B69945  21.986  24.109   6.916
 5368POPC   C4B69946  22.213  24.004   7.281
 5369POPC   NC369947  27.396  32.156   5.489
 5369POPC   PO469948  26.711  32.235   5.332
 5369POPC   GL169949  26.903  32.304   5.726
 5369POPC   GL269950  26.986  31.970   5.781
 5369POPC   C1A69951  26.918  32.273   6.198
 5369POPC   D2A69952  26.950  32.589   6.516
 5369POPC   C3A69953  27.033  32.465   6.911
 5369POPC   C4A69954  26.847  32.316   7.234
 5369POPC   C1B69955  26.619  31.868   6.026
 5369POPC   C2B69956  26.484  32.032   6.437
 5369POPC   C3B69957  26.521  31.909   6.872
 5369POPC   C4B69958  26.726  31.824   7.268
 5370POPC   NC369959  12.608  33.726   5.440
 5370POPC   PO469960  13.045  34.207   5.416
 5370POPC   GL169961  13.119  33.855   5.740
 5370POPC   GL269962  12.864  33.653   5.878
 5370POPC   C1A69963  13.092  33.962   6.222
 5370POPC   D2A69964  12.965  34.135   6.658
 5370POPC   C3A69965  12.826  33.838   7.010
 5370POPC   C4A69966  12.981  33.626   7.401
 5370POPC   C1B69967  12.794  33.394   6.255
 5370POPC   C2B69968  12.691  33.451   6.678
 5370POPC   C3B69969  12.668  33.315   7.099
 5370POPC   C4B69970  12.499  33.537   7.425
 5371POPC   NC369971   6.302   2.943   5.344
 5371POPC   PO469972   5.643   2.730   5.400
 5371POPC   GL169973   5.821   2.709   5.795
 5371POPC   GL269974   5.994   2.993   5.739
 5371POPC   C1A69975   5.851   2.557   6.242
 5371POPC   D2A69976   5.646   2.670   6.652
 5371POPC   C3A69977   5.795   2.465   7.041
 5371POPC   C4A69978   5.621   2.594   7.439
 5371POPC   C1B69979   5.966   3.059   6.161
 5371POPC   C2B69980   6.088   2.940   6.572
 5371POPC   C3B69981   5.935   2.967   6.982
 5371POPC   C4B69982   6.069   2.800   7.346
 5372POPC   NC369983  27.176  44.705   5.199
 5372POPC   PO469984  26.443  44.781   5.353
 5372POPC   GL169985  26.693  44.741   5.745
 5372POPC   GL269986  27.063  44.818   5.691
 5372POPC   C1A69987  26.730  44.518   6.159
 5372POPC   D2A69988  26.602  44.343   6.578
 5372POPC   C3A69989  26.663  44.636   6.942
 5372POPC   C4A69990  26.662  44.609   7.400
 5372POPC   C1B69991  27.195  44.761   6.118
 5372POPC   C2B69992  27.081  44.631   6.578
 5372POPC   C3B69993  27.152  44.814   7.016
 5372POPC   C4B69994  27.120  44.848   7.469
 5373POPC   NC369995   1.214  41.011   5.338
 5373POPC   PO469996   0.567  41.076   5.113
 5373POPC   GL169997   0.762  40.971   5.590
 5373POPC   GL269998   1.031  41.133   5.813
 5373POPC   C1A69999   0.864  40.732   6.045
 5373POPC   D2A70000   1.097  40.490   6.390
 5373POPC   C3A70001   1.078  40.604   6.852
 5373POPC   C4A70002   1.046  40.868   7.216
 5373POPC   C1B70003   1.379  40.971   6.102
 5373POPC   C2B70004   1.445  40.834   6.551
 5373POPC   C3B70005   1.530  40.899   7.007
 5373POPC   C4B70006   1.584  41.238   7.336
 5374POPC   NC370007   4.122  25.647   5.532
 5374POPC   PO470008   4.744  25.597   5.386
 5374POPC   GL170009   4.663  25.413   5.797
 5374POPC   GL270010   4.494  25.700   5.895
 5374POPC   C1A70011   4.424  25.202   6.196
 5374POPC   D2A70012   4.403  24.989   6.652
 5374POPC   C3A70013   4.403  25.182   7.099
 5374POPC   C4A70014   4.164  25.206   7.518
 5374POPC   C1B70015   4.701  25.605   6.278
 5374POPC   C2B70016   4.532  25.489   6.679
 5374POPC   C3B70017   4.297  25.686   7.022
 5374POPC   C4B70018   4.370  25.666   7.461
 5375POPC   NC370019  27.871  44.553   5.311
 5375POPC   PO470020  27.291  44.240   5.205
 5375POPC   GL170021  27.474  44.417   5.642
 5375POPC   GL270022  27.586  44.765   5.705
 5375POPC   C1A70023  27.626  44.500   6.108
 5375POPC   D2A70024  27.572  44.755   6.481
 5375POPC   C3A70025  27.557  44.557   6.871
 5375POPC   C4A70026  27.623  44.728   7.282
 5375POPC   C1B70027  27.793  44.997   6.070
 5375POPC   C2B70028  27.896   0.150   6.512
 5375POPC   C3B70029  27.959  44.906   6.944
 5375POPC   C4B70030  28.068  44.985   7.458
 5376POPC   NC370031   3.197   8.568   5.483
 5376POPC   PO470032   3.608   8.095   5.231
 5376POPC   GL170033   3.701   8.237   5.719
 5376POPC   GL270034   3.407   8.349   5.897
 5376POPC   C1A70035   3.808   8.433   6.174
 5376POPC   D2A70036   3.564   8.327   6.559
 5376POPC   C3A70037   3.727   8.392   6.979
 5376POPC   C4A70038   3.846   8.286   7.433
 5376POPC   C1B70039   3.183   8.126   6.214
 5376POPC   C2B70040   3.050   8.261   6.610
 5376POPC   C3B70041   3.202   8.443   6.946
 5376POPC   C4B70042   3.374   8.456   7.332
 5377POPC   NC370043  29.629  21.200   5.338
 5377POPC   PO470044  30.192  21.584   5.577
 5377POPC   GL170045  30.008  21.286   5.856
 5377POPC   GL270046  29.711  21.050   5.813
 5377POPC   C1A70047  30.010  21.344   6.292
 5377POPC   D2A70048  30.148  21.493   6.724
 5377POPC   C3A70049  30.114  21.312   7.175
 5377POPC   C4A70050  30.150  21.485   7.621
 5377POPC   C1B70051  29.559  21.094   6.237
 5377POPC   C2B70052  29.685  21.208   6.658
 5377POPC   C3B70053  29.657  21.106   7.063
 5377POPC   C4B70054  29.694  21.279   7.491
 5378POPC   NC370055  33.860   4.014   5.399
 5378POPC   PO470056  33.635   3.357   5.481
 5378POPC   GL170057  33.608   3.663   5.843
 5378POPC   GL270058  33.949   3.814   5.850
 5378POPC   C1A70059  33.580   3.649   6.323
 5378POPC   D2A70060  33.634   3.595   6.804
 5378POPC   C3A70061  33.465   3.759   7.207
 5378POPC   C4A70062  33.394   3.546   7.629
 5378POPC   C1B70063  34.113   3.817   6.250
 5378POPC   C2B70064  34.008   3.937   6.670
 5378POPC   C3B70065  34.051   3.807   7.121
 5378POPC   C4B70066  33.890   3.655   7.520
 5379POPC   NC370067  13.421  13.131   5.386
 5379POPC   PO470068  13.878  12.713   5.369
 5379POPC   GL170069  13.761  12.638   5.789
 5379POPC   GL270070  14.042  12.487   5.885
 5379POPC   C1A70071  13.671  12.870   6.176
 5379POPC   D2A70072  13.790  13.166   6.503
 5379POPC   C3A70073  13.448  13.210   6.803
 5379POPC   C4A70074  13.504  13.151   7.251
 5379POPC   C1B70075  13.886  12.422   6.301
 5379POPC   C2B70076  13.852  12.681   6.639
 5379POPC   C3B70077  13.883  12.882   7.004
 5379POPC   C4B70078  13.693  12.557   7.227
 5380POPC   NC370079  39.256  30.954   5.425
 5380POPC   PO470080  38.820  30.477   5.352
 5380POPC   GL170081  38.959  30.649   5.745
 5380POPC   GL270082  39.338  30.663   5.830
 5380POPC   C1A70083  38.966  30.610   6.188
 5380POPC   D2A70084  39.184  30.621   6.541
 5380POPC   C3A70085  38.949  30.675   6.875
 5380POPC   C4A70086  39.062  30.296   7.043
 5380POPC   C1B70087  39.591  30.667   6.208
 5380POPC   C2B70088  39.591  30.907   6.579
 5380POPC   C3B70089  39.440  30.852   6.990
 5380POPC   C4B70090  39.607  30.806   7.395
 5381POPC   NC370091  40.855  24.715   5.495
 5381POPC   PO470092  40.293  24.211   5.435
 5381POPC   GL170093  40.498  24.372   5.828
 5381POPC   GL270094  40.596  24.720   5.936
 5381POPC   C1A70095  40.651  24.318   6.263
 5381POPC   D2A70096  40.618  24.662   6.570
 5381POPC   C3A70097  40.770  24.589   7.002
 5381POPC   C4A70098  40.629  24.355   7.372
 5381POPC   C1B70099  41.017  24.669   6.212
 5381POPC   C2B70100  41.098  24.380   6.589
 5381POPC   C3B70101  41.239  24.393   7.037
 5381POPC   C4B70102  41.175  24.206   7.452
 5382POPC   NC370103   6.733  39.929   5.505
 5382POPC   PO470104   6.369  40.478   5.682
 5382POPC   GL170105   6.363  40.031   5.829
 5382POPC   GL270106   6.647  40.138   6.004
 5382POPC   C1A70107   6.416  39.753   6.198
 5382POPC   D2A70108   6.327  39.933   6.586
 5382POPC   C3A70109   6.621  40.007   6.897
 5382POPC   C4A70110   6.560  40.052   7.304
 5382POPC   C1B70111   6.917  40.283   6.322
 5382POPC   C2B70112   7.061  40.218   6.719
 5382POPC   C3B70113   6.925  40.372   7.113
 5382POPC   C4B70114   6.974  40.259   7.533
 5383POPC   NC370115  17.437  25.711   5.431
 5383POPC   PO470116  17.499  26.385   5.563
 5383POPC   GL170117  17.528  26.029   5.835
 5383POPC   GL270118  17.836  25.821   5.799
 5383POPC   C1A70119  17.319  25.894   6.201
 5383POPC   D2A70120  17.277  25.961   6.648
 5383POPC   C3A70121  17.575  26.244   6.850
 5383POPC   C4A70122  17.656  26.337   7.271
 5383POPC   C1B70123  17.882  25.949   6.240
 5383POPC   C2B70124  17.810  25.798   6.655
 5383POPC   C3B70125  17.759  25.834   7.118
 5383POPC   C4B70126  17.971  25.732   7.526
 5384POPC   NC370127  23.320  28.182   5.541
 5384POPC   PO470128  22.655  28.313   5.369
 5384POPC   GL170129  22.808  28.267   5.786
 5384POPC   GL270130  22.713  28.546   5.924
 5384POPC   C1A70131  22.880  28.058   6.187
 5384POPC   D2A70132  22.805  28.249   6.572
 5384POPC   C3A70133  22.917  28.051   6.945
 5384POPC   C4A70134  22.730  28.209   7.308
 5384POPC   C1B70135  23.049  28.557   6.209
 5384POPC   C2B70136  23.028  28.739   6.622
 5384POPC   C3B70137  23.007  28.571   7.024
 5384POPC   C4B70138  23.245  28.317   7.284
 5385POPC   NC370139  14.975  39.880   5.383
 5385POPC   PO470140  14.802  40.520   5.518
 5385POPC   GL170141  15.043  40.165   5.805
 5385POPC   GL270142  15.260  39.802   5.798
 5385POPC   C1A70143  14.909  39.887   6.141
 5385POPC   D2A70144  14.763  39.776   6.545
 5385POPC   C3A70145  15.038  39.972   6.818
 5385POPC   C4A70146  15.116  40.266   7.170
 5385POPC   C1B70147  15.492  39.959   6.143
 5385POPC   C2B70148  15.459  40.175   6.538
 5385POPC   C3B70149  15.533  40.043   6.955
 5385POPC   C4B70150  15.321  39.669   7.116
 5386POPC   NC370151  25.936   0.017   5.247
 5386POPC   PO470152  26.141   0.556   5.525
 5386POPC   GL170153  26.024   0.373   5.887
 5386POPC   GL270154  25.774   0.179   5.762
 5386POPC   C1A70155  25.837   0.523   6.293
 5386POPC   D2A70156  26.007   0.632   6.691
 5386POPC   C3A70157  26.000   0.449   7.089
 5386POPC   C4A70158  26.377   0.406   7.306
 5386POPC   C1B70159  25.885   0.026   6.222
 5386POPC   C2B70160  25.905   0.121   6.676
 5386POPC   C3B70161  25.855  44.953   7.078
 5386POPC   C4B70162  25.781   0.143   7.481
 5387POPC   NC370163   0.132  15.618   5.305
 5387POPC   PO470164   0.162  16.280   5.398
 5387POPC   GL170165   0.375  16.172   5.783
 5387POPC   GL270166   0.183  15.916   5.912
 5387POPC   C1A70167   0.555  16.273   6.171
 5387POPC   D2A70168   0.740  16.264   6.583
 5387POPC   C3A70169   0.505  16.131   6.915
 5387POPC   C4A70170   0.411  16.013   7.331
 5387POPC   C1B70171   0.551  15.748   6.132
 5387POPC   C2B70172   0.708  15.744   6.585
 5387POPC   C3B70173   0.574  15.617   7.031
 5387POPC   C4B70174   0.432  15.523   7.482
 5388POPC   NC370175   8.121  36.622   5.348
 5388POPC   PO470176   7.976  37.344   5.515
 5388POPC   GL170177   8.214  37.110   5.816
 5388POPC   GL270178   8.220  36.781   5.816
 5388POPC   C1A70179   8.270  37.112   6.265
 5388POPC   D2A70180   8.115  36.916   6.617
 5388POPC   C3A70181   8.329  37.127   6.935
 5388POPC   C4A70182   8.426  37.466   7.215
 5388POPC   C1B70183   8.476  36.679   6.167
 5388POPC   C2B70184   8.615  36.818   6.593
 5388POPC   C3B70185   8.453  36.651   6.976
 5388POPC   C4B70186   7.991  36.738   7.092
 5389POPC   NC370187   2.708   6.163   5.090
 5389POPC   PO470188   2.409   6.642   5.512
 5389POPC   GL170189   2.802   6.570   5.707
 5389POPC   GL270190   2.897   6.215   5.718
 5389POPC   C1A70191   2.789   6.647   6.140
 5389POPC   D2A70192   2.479   6.542   6.439
 5389POPC   C3A70193   2.689   6.508   6.841
 5389POPC   C4A70194   2.825   6.344   7.234
 5389POPC   C1B70195   3.181   6.343   6.062
 5389POPC   C2B70196   3.146   6.558   6.513
 5389POPC   C3B70197   3.206   6.563   6.960
 5389POPC   C4B70198   2.964   6.830   7.249
 5390POPC   NC370199  41.095  20.427   5.264
 5390POPC   PO470200  40.608  20.718   5.661
 5390POPC   GL170201  40.862  20.548   5.901
 5390POPC   GL270202  41.041  20.215   5.772
 5390POPC   C1A70203  40.817  20.683   6.326
 5390POPC   D2A70204  41.029  20.641   6.701
 5390POPC   C3A70205  40.759  20.717   7.018
 5390POPC   C4A70206  40.821  20.915   7.404
 5390POPC   C1B70207  40.880  20.148   6.197
 5390POPC   C2B70208  40.687  20.253   6.589
 5390POPC   C3B70209  40.837  20.198   7.012
 5390POPC   C4B70210  40.682  20.386   7.432
 5391POPC   NC370211   1.915   5.409   5.420
 5391POPC   PO470212   1.957   6.094   5.478
 5391POPC   GL170213   1.706   5.948   5.849
 5391POPC   GL270214   1.771   5.591   5.921
 5391POPC   C1A70215   1.526   6.002   6.293
 5391POPC   D2A70216   1.656   5.873   6.729
 5391POPC   C3A70217   1.846   6.146   7.037
 5391POPC   C4A70218   1.722   6.285   7.433
 5391POPC   C1B70219   1.977   5.743   6.304
 5391POPC   C2B70220   2.206   6.019   6.605
 5391POPC   C3B70221   2.277   5.869   6.991
 5391POPC   C4B70222   1.917   5.608   7.132
 5392POPC   NC370223  31.210   1.320   5.500
 5392POPC   PO470224  31.797   1.470   5.354
 5392POPC   GL170225  31.657   1.233   5.744
 5392POPC   GL270226  31.919   0.965   5.814
 5392POPC   C1A70227  31.399   1.335   6.158
 5392POPC   D2A70228  31.177   1.343   6.607
 5392POPC   C3A70229  31.435   1.388   7.009
 5392POPC   C4A70230  31.583   1.375   7.458
 5392POPC   C1B70231  31.921   1.252   6.173
 5392POPC   C2B70232  31.719   1.269   6.568
 5392POPC   C3B70233  31.823   1.048   6.931
 5392POPC   C4B70234  32.003   1.180   7.277
 5393POPC   NC370235   9.509  44.893   5.592
 5393POPC   PO470236  10.095   0.098   5.716
 5393POPC   GL170237   9.875  44.794   5.981
 5393POPC   GL270238   9.492  44.655   6.033
 5393POPC   C1A70239  10.113  44.920   6.340
 5393POPC   D2A70240   9.993   0.150   6.694
 5393POPC   C3A70241   9.861  44.933   7.000
 5393POPC   C4A70242  10.085  44.606   7.169
 5393POPC   C1B70243   9.626  44.819   6.434
 5393POPC   C2B70244   9.919  44.568   6.656
 5393POPC   C3B70245   9.741  44.326   6.938
 5393POPC   C4B70246   9.564  44.572   7.245
 5394POPC   NC370247  18.039  39.588   5.563
 5394POPC   PO470248  18.132  40.223   5.439
 5394POPC   GL170249  18.066  40.215   5.832
 5394POPC   GL270250  18.310  39.947   5.885
 5394POPC   C1A70251  17.998  40.227   6.250
 5394POPC   D2A70252  18.247  40.014   6.562
 5394POPC   C3A70253  18.439  40.129   6.961
 5394POPC   C4A70254  18.285  40.043   7.361
 5394POPC   C1B70255  18.593  39.835   6.230
 5394POPC   C2B70256  18.675  39.774   6.676
 5394POPC   C3B70257  18.343  39.635   6.971
 5394POPC   C4B70258  18.368  39.433   7.346
 5395POPC   NC370259   5.555  20.908   5.553
 5395POPC   PO470260   6.004  21.404   5.407
 5395POPC   GL170261   5.875  21.618   5.767
 5395POPC   GL270262   5.792  21.299   5.920
 5395POPC   C1A70263   6.042  21.660   6.182
 5395POPC   D2A70264   6.257  21.418   6.474
 5395POPC   C3A70265   6.000  21.380   6.836
 5395POPC   C4A70266   5.908  21.640   7.181
 5395POPC   C1B70267   5.784  21.190   6.376
 5395POPC   C2B70268   5.409  20.953   6.620
 5395POPC   C3B70269   5.417  20.908   7.094
 5395POPC   C4B70270   5.555  21.082   7.514
 5396POPC   NC370271  18.130  36.569   5.375
 5396POPC   PO470272  18.209  36.017   5.049
 5396POPC   GL170273  18.120  36.097   5.559
 5396POPC   GL270274  18.410  36.287   5.718
 5396POPC   C1A70275  18.146  35.984   6.038
 5396POPC   D2A70276  18.426  35.879   6.393
 5396POPC   C3A70277  18.295  35.884   6.828
 5396POPC   C4A70278  18.381  35.947   7.287
 5396POPC   C1B70279  18.614  36.328   6.160
 5396POPC   C2B70280  18.794  36.191   6.567
 5396POPC   C3B70281  18.630  36.265   6.974
 5396POPC   C4B70282  18.533  36.439   7.407
 5397POPC   NC370283   3.131  14.517   5.575
 5397POPC   PO470284   3.697  14.845   5.338
 5397POPC   GL170285   3.599  14.608   5.769
 5397POPC   GL270286   3.626  14.255   5.908
 5397POPC   C1A70287   3.446  14.585   6.243
 5397POPC   D2A70288   3.604  14.539   6.701
 5397POPC   C3A70289   3.386  14.601   7.122
 5397POPC   C4A70290   3.269  14.365   7.505
 5397POPC   C1B70291   3.873  14.293   6.298
 5397POPC   C2B70292   3.846  14.071   6.662
 5397POPC   C3B70293   3.638  14.127   7.006
 5397POPC   C4B70294   3.746  14.314   7.366
 5398POPC   NC370295  10.385  44.006   5.385
 5398POPC   PO470296  10.883  43.700   5.602
 5398POPC   GL170297  10.652  44.003   5.851
 5398POPC   GL270298  10.275  44.012   5.883
 5398POPC   C1A70299  10.657  44.186   6.265
 5398POPC   D2A70300  10.731  44.368   6.681
 5398POPC   C3A70301  10.662  43.987   6.933
 5398POPC   C4A70302  10.601  43.827   7.353
 5398POPC   C1B70303  10.360  43.662   6.144
 5398POPC   C2B70304  10.551  43.659   6.538
 5398POPC   C3B70305  10.432  43.509   6.946
 5398POPC   C4B70306  10.550  43.317   7.330
 5399POPC   NC370307  20.117  14.910   5.602
 5399POPC   PO470308  19.657  14.597   5.206
 5399POPC   GL170309  19.811  14.528   5.681
 5399POPC   GL270310  19.641  14.740   5.871
 5399POPC   C1A70311  19.813  14.317   6.133
 5399POPC   D2A70312  20.021  14.135   6.538
 5399POPC   C3A70313  19.870  14.204   6.978
 5399POPC   C4A70314  19.649  13.915   7.267
 5399POPC   C1B70315  19.864  14.791   6.263
 5399POPC   C2B70316  20.088  14.646   6.648
 5399POPC   C3B70317  19.904  14.732   7.042
 5399POPC   C4B70318  19.443  14.787   7.067
 5400POPC   NC370319  27.718   8.855   5.190
 5400POPC   PO470320  27.776   9.416   5.274
 5400POPC   GL170321  27.633   9.098   5.665
 5400POPC   GL270322  27.660   8.709   5.780
 5400POPC   C1A70323  27.519   9.031   6.127
 5400POPC   D2A70324  27.413   8.880   6.529
 5400POPC   C3A70325  27.660   9.028   6.868
 5400POPC   C4A70326  27.707   9.126   7.292
 5400POPC   C1B70327  27.683   8.522   6.239
 5400POPC   C2B70328  27.696   8.510   6.722
 5400POPC   C3B70329  27.993   8.628   7.057
 5400POPC   C4B70330  27.967   8.755   7.506
 5401POPC   NC370331  33.279  34.590   5.376
 5401POPC   PO470332  32.981  35.136   5.240
 5401POPC   GL170333  33.008  34.874   5.717
 5401POPC   GL270334  33.047  34.436   5.807
 5401POPC   C1A70335  33.067  34.746   6.186
 5401POPC   D2A70336  33.250  34.552   6.583
 5401POPC   C3A70337  33.100  34.655   7.014
 5401POPC   C4A70338  33.184  34.742   7.476
 5401POPC   C1B70339  32.943  34.237   6.264
 5401POPC   C2B70340  32.992  34.173   6.745
 5401POPC   C3B70341  33.253  34.142   7.085
 5401POPC   C4B70342  33.212  34.190   7.501
 5402POPC   NC370343  18.899   2.892   5.500
 5402POPC   PO470344  19.320   2.291   5.497
 5402POPC   GL170345  19.167   2.595   5.821
 5402POPC   GL270346  19.021   2.378   6.055
 5402POPC   C1A70347  19.011   2.888   6.185
 5402POPC   D2A70348  19.096   2.736   6.629
 5402POPC   C3A70349  19.176   2.959   6.990
 5402POPC   C4A70350  18.805   3.110   7.206
 5402POPC   C1B70351  18.705   2.507   6.354
 5402POPC   C2B70352  18.653   2.466   6.785
 5402POPC   C3B70353  18.776   2.545   7.196
 5402POPC   C4B70354  18.611   2.635   7.612
 5403POPC   NC370355  24.702  29.093   5.476
 5403POPC   PO470356  23.991  29.206   5.457
 5403POPC   GL170357  24.288  29.216   5.791
 5403POPC   GL270358  24.227  28.900   5.939
 5403POPC   C1A70359  24.248  29.277   6.263
 5403POPC   D2A70360  24.284  28.966   6.607
 5403POPC   C3A70361  24.592  29.143   6.898
 5403POPC   C4A70362  24.313  29.304   7.161
 5403POPC   C1B70363  24.612  28.890   6.220
 5403POPC   C2B70364  24.731  28.705   6.653
 5403POPC   C3B70365  24.632  28.698   7.113
 5403POPC   C4B70366  24.616  29.016   7.455
 5404POPC   NC370367  10.463  40.307   5.459
 5404POPC   PO470368  10.813  39.784   5.257
 5404POPC   GL170369  10.650  39.891   5.719
 5404POPC   GL270370  10.434  39.624   5.759
 5404POPC   C1A70371  10.587  40.115   6.172
 5404POPC   D2A70372  10.404  40.100   6.617
 5404POPC   C3A70373  10.470  40.376   6.992
 5404POPC   C4A70374  10.490  40.232   7.437
 5404POPC   C1B70375  10.593  39.569   6.176
 5404POPC   C2B70376  10.448  39.574   6.626
 5404POPC   C3B70377  10.657  39.558   7.040
 5404POPC   C4B70378  10.565  39.683   7.497
 5405POPC   NC370379  29.937  36.532   5.240
 5405POPC   PO470380  30.405  37.037   5.266
 5405POPC   GL170381  30.210  36.765   5.614
 5405POPC   GL270382  29.915  36.895   5.772
 5405POPC   C1A70383  30.236  36.599   6.076
 5405POPC   D2A70384  30.035  36.604   6.517
 5405POPC   C3A70385  30.022  37.011   6.739
 5405POPC   C4A70386  29.988  37.128   7.156
 5405POPC   C1B70387  29.735  37.201   6.061
 5405POPC   C2B70388  29.702  37.360   6.494
 5405POPC   C3B70389  29.517  37.234   6.911
 5405POPC   C4B70390  29.517  37.123   7.361
 5406POPC   NC370391  36.935  24.517   5.100
 5406POPC   PO470392  37.417  24.939   5.356
 5406POPC   GL170393  37.149  24.560   5.569
 5406POPC   GL270394  37.347  24.294   5.704
 5406POPC   C1A70395  36.943  24.373   5.990
 5406POPC   D2A70396  37.047  24.470   6.451
 5406POPC   C3A70397  36.980  24.267   6.864
 5406POPC   C4A70398  36.875  24.503   7.225
 5406POPC   C1B70399  37.392  24.603   6.067
 5406POPC   C2B70400  37.470  24.756   6.501
 5406POPC   C3B70401  37.332  24.663   6.914
 5406POPC   C4B70402  37.512  24.813   7.318
 5407POPC   NC370403  14.210  20.291   5.242
 5407POPC   PO470404  14.658  20.720   5.127
 5407POPC   GL170405  14.445  20.666   5.558
 5407POPC   GL270406  14.686  20.700   5.852
 5407POPC   C1A70407  14.187  20.642   5.985
 5407POPC   D2A70408  14.162  20.577   6.469
 5407POPC   C3A70409  14.137  20.640   6.957
 5407POPC   C4A70410  14.351  20.622   7.390
 5407POPC   C1B70411  14.595  20.867   6.282
 5407POPC   C2B70412  14.559  20.843   6.728
 5407POPC   C3B70413  14.482  21.064   7.107
 5407POPC   C4B70414  14.195  21.266   7.381
 5408POPC   NC370415  14.928  12.436   5.451
 5408POPC   PO470416  15.063  11.847   5.190
 5408POPC   GL170417  15.142  11.833   5.655
 5408POPC   GL270418  15.217  12.169   5.775
 5408POPC   C1A70419  15.265  11.724   6.109
 5408POPC   D2A70420  15.273  11.550   6.560
 5408POPC   C3A70421  15.116  11.827   6.874
 5408POPC   C4A70422  15.315  11.918   7.273
 5408POPC   C1B70423  15.441  12.209   6.155
 5408POPC   C2B70424  15.523  12.387   6.555
 5408POPC   C3B70425  15.364  12.264   6.928
 5408POPC   C4B70426  15.082  12.350   7.318
 5409POPC   NC370427  33.038  44.073   5.340
 5409POPC   PO470428  32.747  43.567   5.151
 5409POPC   GL170429  32.793  43.711   5.603
 5409POPC   GL270430  33.156  43.692   5.721
 5409POPC   C1A70431  32.805  43.958   6.001
 5409POPC   D2A70432  33.056  43.902   6.398
 5409POPC   C3A70433  32.989  44.027   6.846
 5409POPC   C4A70434  32.736  43.915   7.176
 5409POPC   C1B70435  33.369  43.438   6.053
 5409POPC   C2B70436  33.389  43.513   6.504
 5409POPC   C3B70437  33.211  43.553   6.889
 5409POPC   C4B70438  33.211  43.769   7.259
 5410POPC   NC370439  44.833   1.509   5.459
 5410POPC   PO470440  44.622   0.887   5.425
 5410POPC   GL170441  44.531   1.062   5.828
 5410POPC   GL270442  44.739   1.366   5.928
 5410POPC   C1A70443  44.439   1.142   6.275
 5410POPC   D2A70444  44.208   1.140   6.662
 5410POPC   C3A70445  44.488   1.237   7.010
 5410POPC   C4A70446  44.661   1.137   7.412
 5410POPC   C1B70447  44.603   1.643   6.257
 5410POPC   C2B70448  44.432   1.651   6.681
 5410POPC   C3B70449  44.597   1.750   7.093
 5410POPC   C4B70450  44.822   1.602   7.461
 5411POPC   NC370451  40.022  41.186   5.359
 5411POPC   PO470452  40.236  40.544   5.516
 5411POPC   GL170453  39.891  40.614   5.824
 5411POPC   GL270454  39.724  40.945   5.744
 5411POPC   C1A70455  39.906  40.627   6.291
 5411POPC   D2A70456  40.201  40.471   6.618
 5411POPC   C3A70457  40.046  40.470   7.060
 5411POPC   C4A70458  40.103  40.504   7.524
 5411POPC   C1B70459  40.096  41.047   6.023
 5411POPC   C2B70460  40.093  41.094   6.454
 5411POPC   C3B70461  40.104  40.940   6.861
 5411POPC   C4B70462  39.795  41.048   7.142
 5412POPC   NC370463  34.923  18.222   5.139
 5412POPC   PO470464  34.543  17.834   5.589
 5412POPC   GL170465  34.417  18.269   5.785
 5412POPC   GL270466  34.713  18.510   5.871
 5412POPC   C1A70467  34.293  18.499   6.187
 5412POPC   D2A70468  34.506  18.427   6.590
 5412POPC   C3A70469  34.346  18.364   7.018
 5412POPC   C4A70470  34.612  18.486   7.356
 5412POPC   C1B70471  34.709  18.142   6.186
 5412POPC   C2B70472  34.707  17.908   6.575
 5412POPC   C3B70473  34.567  17.876   6.979
 5412POPC   C4B70474  34.491  17.986   7.394
 5413POPC   NC370475  12.392  12.183   4.903
 5413POPC   PO470476  11.897  11.986   5.413
 5413POPC   GL170477  11.936  12.099   5.858
 5413POPC   GL270478  11.909  12.421   5.787
 5413POPC   C1A70479  12.250  12.149   6.225
 5413POPC   D2A70480  12.451  12.018   6.629
 5413POPC   C3A70481  12.208  11.953   7.030
 5413POPC   C4A70482  11.821  11.749   7.240
 5413POPC   C1B70483  11.890  12.511   6.215
 5413POPC   C2B70484  12.091  12.416   6.653
 5413POPC   C3B70485  12.044  12.420   7.124
 5413POPC   C4B70486  12.025  12.568   7.567
 5414POPC   NC370487  32.301   4.893   5.279
 5414POPC   PO470488  32.236   5.250   5.835
 5414POPC   GL170489  32.532   5.125   6.111
 5414POPC   GL270490  32.434   4.796   6.004
 5414POPC   C1A70491  32.430   5.294   6.522
 5414POPC   D2A70492  32.005   5.509   6.581
 5414POPC   C3A70493  31.929   5.335   6.975
 5414POPC   C4A70494  32.357   5.201   7.055
 5414POPC   C1B70495  32.307   4.797   6.436
 5414POPC   C2B70496  32.564   4.815   6.796
 5414POPC   C3B70497  32.413   4.717   7.191
 5414POPC   C4B70498  31.984   4.832   7.159
 5415POPC   NC370499  21.067  10.230   5.538
 5415POPC   PO470500  20.605  10.645   5.200
 5415POPC   GL170501  20.574  10.563   5.695
 5415POPC   GL270502  20.737  10.321   5.906
 5415POPC   C1A70503  20.494  10.687   6.141
 5415POPC   D2A70504  20.709  10.690   6.543
 5415POPC   C3A70505  20.513  10.500   6.892
 5415POPC   C4A70506  20.621  10.612   7.276
 5415POPC   C1B70507  20.628  10.213   6.318
 5415POPC   C2B70508  20.895  10.179   6.643
 5415POPC   C3B70509  20.848  10.152   7.063
 5415POPC   C4B70510  20.895  10.210   7.476
 5416POPC   NC370511  12.872  31.012   5.389
 5416POPC   PO470512  12.462  30.485   5.490
 5416POPC   GL170513  12.769  30.495   5.826
 5416POPC   GL270514  13.003  30.770   5.832
 5416POPC   C1A70515  12.778  30.629   6.272
 5416POPC   D2A70516  12.814  30.871   6.658
 5416POPC   C3A70517  12.841  30.569   6.995
 5416POPC   C4A70518  12.779  30.406   7.436
 5416POPC   C1B70519  13.275  30.805   6.206
 5416POPC   C2B70520  13.312  30.766   6.648
 5416POPC   C3B70521  13.207  30.955   7.042
 5416POPC   C4B70522  13.233  30.605   7.301
 5417POPC   NC370523   1.980   6.813   5.390
 5417POPC   PO470524   1.472   7.149   5.693
 5417POPC   GL170525   1.836   6.870   5.875
 5417POPC   GL270526   1.973   6.517   5.796
 5417POPC   C1A70527   2.010   6.776   6.286
 5417POPC   D2A70528   1.779   6.937   6.659
 5417POPC   C3A70529   1.747   6.667   7.019
 5417POPC   C4A70530   1.972   6.788   7.365
 5417POPC   C1B70531   1.956   6.268   6.171
 5417POPC   C2B70532   1.833   6.378   6.571
 5417POPC   C3B70533   2.168   6.495   6.833
 5417POPC   C4B70534   2.295   6.384   7.217
 5418POPC   NC370535   8.102  16.433   5.514
 5418POPC   PO470536   7.871  15.862   5.457
 5418POPC   GL170537   8.206  15.966   5.743
 5418POPC   GL270538   8.007  16.185   5.943
 5418POPC   C1A70539   8.446  15.987   6.152
 5418POPC   D2A70540   8.549  15.747   6.519
 5418POPC   C3A70541   8.456  15.955   6.887
 5418POPC   C4A70542   8.370  16.065   7.282
 5418POPC   C1B70543   8.134  16.364   6.320
 5418POPC   C2B70544   8.076  16.317   6.772
 5418POPC   C3B70545   7.883  16.016   7.054
 5418POPC   C4B70546   7.898  15.744   7.406
 5419POPC   NC370547  14.244  34.025   5.448
 5419POPC   PO470548  14.689  33.550   5.258
 5419POPC   GL170549  14.581  33.688   5.702
 5419POPC   GL270550  14.727  34.019   5.706
 5419POPC   C1A70551  14.546  33.531   6.157
 5419POPC   D2A70552  14.637  33.343   6.561
 5419POPC   C3A70553  14.436  33.584   6.877
 5419POPC   C4A70554  14.140  33.663   7.203
 5419POPC   C1B70555  14.654  34.049   6.128
 5419POPC   C2B70556  14.436  34.006   6.486
 5419POPC   C3B70557  14.546  34.124   6.891
 5419POPC   C4B70558  14.572  33.900   7.271
 5420POPC   NC370559   6.453  21.269   5.432
 5420POPC   PO470560   6.686  21.847   5.603
 5420POPC   GL170561   6.497  21.651   5.944
 5420POPC   GL270562   6.308  21.338   5.901
 5420POPC   C1A70563   6.737  21.655   6.316
 5420POPC   D2A70564   6.780  21.894   6.689
 5420POPC   C3A70565   6.903  21.604   7.002
 5420POPC   C4A70566   6.715  21.461   7.374
 5420POPC   C1B70567   6.603  21.178   6.186
 5420POPC   C2B70568   6.721  21.220   6.615
 5420POPC   C3B70569   6.488  21.250   6.961
 5420POPC   C4B70570   6.484  21.003   7.329
 5421POPC   NC370571  31.229  13.944   5.518
 5421POPC   PO470572  31.764  13.620   5.325
 5421POPC   GL170573  31.617  13.627   5.740
 5421POPC   GL270574  31.666  13.963   5.856
 5421POPC   C1A70575  31.623  13.548   6.200
 5421POPC   D2A70576  31.571  13.793   6.572
 5421POPC   C3A70577  31.704  13.660   6.975
 5421POPC   C4A70578  31.384  13.425   7.135
 5421POPC   C1B70579  31.368  14.101   6.184
 5421POPC   C2B70580  31.214  14.162   6.625
 5421POPC   C3B70581  31.192  13.921   7.017
 5421POPC   C4B70582  31.426  13.876   7.403
 5422POPC   NC370583  12.701  24.191   5.388
 5422POPC   PO470584  13.123  23.664   5.549
 5422POPC   GL170585  12.905  23.656   5.972
 5422POPC   GL270586  12.578  23.439   6.045
 5422POPC   C1A70587  12.792  23.696   6.418
 5422POPC   D2A70588  12.475  23.426   6.601
 5422POPC   C3A70589  12.478  23.606   7.006
 5422POPC   C4A70590  12.805  23.819   7.254
 5422POPC   C1B70591  12.903  23.225   6.299
 5422POPC   C2B70592  13.210  23.444   6.567
 5422POPC   C3B70593  13.207  23.574   6.992
 5422POPC   C4B70594  13.288  23.232   7.263
 5423POPC   NC370595  31.142  36.663   5.520
 5423POPC   PO470596  31.721  36.915   5.320
 5423POPC   GL170597  31.538  36.841   5.765
 5423POPC   GL270598  31.335  37.091   5.914
 5423POPC   C1A70599  31.366  36.623   6.156
 5423POPC   D2A70600  31.578  36.605   6.574
 5423POPC   C3A70601  31.353  36.753   6.953
 5423POPC   C4A70602  31.288  37.013   7.325
 5423POPC   C1B70603  31.649  37.037   6.267
 5423POPC   C2B70604  31.715  37.122   6.732
 5423POPC   C3B70605  31.641  37.345   7.133
 5423POPC   C4B70606  31.679  37.246   7.580
 5424POPC   NC370607  29.316  17.422   5.344
 5424POPC   PO470608  29.106  18.011   5.617
 5424POPC   GL170609  29.348  17.711   5.802
 5424POPC   GL270610  29.085  17.453   5.851
 5424POPC   C1A70611  29.472  17.483   6.180
 5424POPC   D2A70612  29.309  17.249   6.525
 5424POPC   C3A70613  29.466  17.388   6.858
 5424POPC   C4A70614  29.242  17.325   7.203
 5424POPC   C1B70615  28.968  17.574   6.307
 5424POPC   C2B70616  28.932  17.499   6.795
 5424POPC   C3B70617  28.725  17.358   7.205
 5424POPC   C4B70618  28.720  17.484   7.658
 5425POPC   NC370619   8.280  33.429   5.442
 5425POPC   PO470620   8.102  32.821   5.510
 5425POPC   GL170621   8.075  32.950   5.923
 5425POPC   GL270622   7.791  33.188   6.000
 5425POPC   C1A70623   8.411  32.975   6.225
 5425POPC   D2A70624   8.496  33.148   6.629
 5425POPC   C3A70625   8.144  33.120   6.903
 5425POPC   C4A70626   8.267  32.929   7.260
 5425POPC   C1B70627   7.920  32.990   6.415
 5425POPC   C2B70628   8.015  32.654   6.718
 5425POPC   C3B70629   7.849  32.656   7.132
 5425POPC   C4B70630   7.712  33.076   7.238
 5426POPC   NC370631  41.009  30.101   5.422
 5426POPC   PO470632  40.664  30.618   5.308
 5426POPC   GL170633  40.651  30.618   5.757
 5426POPC   GL270634  40.956  30.445   5.823
 5426POPC   C1A70635  40.649  30.799   6.193
 5426POPC   D2A70636  40.425  30.876   6.578
 5426POPC   C3A70637  40.678  30.787   6.945
 5426POPC   C4A70638  40.940  30.792   7.311
 5426POPC   C1B70639  40.653  30.295   6.147
 5426POPC   C2B70640  40.729  30.423   6.559
 5426POPC   C3B70641  40.617  30.241   6.929
 5426POPC   C4B70642  40.533  30.420   7.294
 5427POPC   NC370643  21.323   1.566   5.439
 5427POPC   PO470644  21.942   1.578   5.530
 5427POPC   GL170645  21.592   1.662   5.878
 5427POPC   GL270646  21.293   1.887   5.845
 5427POPC   C1A70647  21.323   1.643   6.282
 5427POPC   D2A70648  21.133   1.799   6.683
 5427POPC   C3A70649  21.347   1.717   7.091
 5427POPC   C4A70650  21.758   1.615   7.295
 5427POPC   C1B70651  21.201   2.140   6.241
 5427POPC   C2B70652  21.049   2.296   6.663
 5427POPC   C3B70653  21.159   2.217   7.113
 5427POPC   C4B70654  21.171   2.218   7.601
 5428POPC   NC370655  14.232   9.939   5.136
 5428POPC   PO470656  14.710  10.208   5.480
 5428POPC   GL170657  14.683   9.935   5.858
 5428POPC   GL270658  14.438   9.651   5.869
 5428POPC   C1A70659  14.723   9.882   6.309
 5428POPC   D2A70660  14.784  10.014   6.744
 5428POPC   C3A70661  14.604   9.778   7.079
 5428POPC   C4A70662  14.506  10.007   7.457
 5428POPC   C1B70663  14.297   9.601   6.303
 5428POPC   C2B70664  14.274   9.849   6.684
 5428POPC   C3B70665  14.108   9.909   7.125
 5428POPC   C4B70666  14.141   9.660   7.523
 5429POPC   NC370667  12.498  43.275   5.433
 5429POPC   PO470668  12.954  42.837   5.338
 5429POPC   GL170669  12.772  42.913   5.738
 5429POPC   GL270670  12.887  43.206   5.744
 5429POPC   C1A70671  12.679  42.980   6.210
 5429POPC   D2A70672  12.666  43.193   6.656
 5429POPC   C3A70673  12.636  43.046   7.130
 5429POPC   C4A70674  12.495  43.077   7.618
 5429POPC   C1B70675  13.188  43.111   6.072
 5429POPC   C2B70676  13.203  43.180   6.527
 5429POPC   C3B70677  13.102  43.250   6.969
 5429POPC   C4B70678  13.192  43.385   7.401
 5430POPC   NC370679  40.089  19.414   5.453
 5430POPC   PO470680  40.093  18.810   5.213
 5430POPC   GL170681  40.058  18.895   5.708
 5430POPC   GL270682  39.723  18.877   5.887
 5430POPC   C1A70683  40.186  18.915   6.197
 5430POPC   D2A70684  40.332  18.770   6.646
 5430POPC   C3A70685  40.170  18.999   7.016
 5430POPC   C4A70686  40.234  19.435   7.147
 5430POPC   C1B70687  39.728  19.174   6.265
 5430POPC   C2B70688  39.832  19.263   6.711
 5430POPC   C3B70689  39.746  19.292   7.175
 5430POPC   C4B70690  39.567  19.052   7.506
 5431W        W70691  18.631  26.689  14.885
 5432W        W70692   0.816  43.085   1.934
 5433W        W70693  32.718  40.555   0.918
 5434W        W70694   6.279  13.638   3.725
 5435W        W70695  43.881  21.071   4.197
 5436W        W70696   5.060  15.018  14.355
 5437W        W70697  27.605  29.109   2.217
 5438W        W70698  12.825  44.551   1.235
 5439W        W70699  32.031  37.959   1.453
 5440W        W70700  41.069   7.692   1.687
 5441W        W70701  42.850  21.535   3.857
 5442W        W70702  15.529   4.218   0.186
 5443W        W70703   5.447  19.615   3.086
 5444W        W70704  10.497  12.228   2.727
 5445W        W70705  12.046  33.492   2.259
 5446W        W70706  27.212  30.070  14.692
 5447W        W70707  38.768  17.589  14.342
 5448W        W70708  31.148   1.297   3.334
 5449W        W70709  40.875  11.890  10.033
 5450W        W70710  12.128   4.785  13.463
 5451W        W70711   2.888  34.402   2.229
 5452W        W70712  30.497  10.460   1.678
 5453W        W70713  17.548  39.436   0.158
 5454W        W70714  33.085  36.757   2.758
 5455W        W70715  34.236  17.041   0.324
 5456W        W70716  10.357  19.455  14.852
 5457W        W70717  40.318  13.740  12.684
 5458W        W70718  11.598  13.665   4.600
 5459W        W70719  34.732   1.472  14.989
 5460W        W70720  25.724  31.049   2.211
 5461W        W70721  12.184  12.829  11.335
 5462W        W70722   4.872  17.125  13.491
 5463W        W70723  21.236  29.217   2.272
 5464W        W70724   8.959   3.681  11.337
 5465W        W70725   3.450  26.142  12.591
 5466W        W70726  10.542  15.626  10.363
 5467W        W70727  13.215   6.923   0.404
 5468W        W70728  16.058  36.037   3.725
 5469W        W70729  16.510  26.905  12.931
 5470W        W70730  21.067  39.295   3.745
 5471W        W70731  29.545  13.188  12.519
 5472W        W70732  25.551  12.466  13.516
 5473W        W70733  29.684  30.510   3.565
 5474W        W70734  27.752  43.423   1.764
 5475W        W70735   3.905  30.880  11.165
 5476W        W70736  26.233   5.321   2.446
 5477W        W70737  13.804  33.041   1.916
 5478W        W70738  28.536  40.116  12.052
 5479W        W70739  12.665  42.266  14.605
 5480W        W70740  36.564   3.838  13.421
 5481W        W70741   1.556  25.807   3.992
 5482W        W70742  38.806   2.533  14.966
 5483W        W70743   5.306   2.157  12.985
 5484W        W70744  10.768  19.459   1.843
 5485W        W70745  34.064  24.145   3.385
 5486W        W70746  25.067  32.030   1.067
 5487W        W70747   6.199  10.573   0.753
 5488W        W70748  35.216  40.487  14.534
 5489W        W70749  19.087  28.873  14.105
 5490W        W70750  18.317   9.751  11.177
 5491W        W70751   2.536  41.647   0.445
 5492W        W70752   4.821  29.237  14.694
 5493W        W70753  29.795  39.280   3.015
 5494W        W70754  43.392  28.377  11.695
 5495W        W70755  32.209  39.025   1.216
 5496W        W70756  38.111   5.979   3.179
 5497W        W70757  35.793  23.560   0.687
 5498W        W70758  27.471  41.971   2.899
 5499W        W70759   6.653  20.177  14.351
 5500W        W70760  25.587  23.135  11.272
 5501W        W70761   4.319  33.614  12.899
 5502W        W70762  25.146  27.365  11.159
 5503W        W70763  35.071  21.555  12.397
 5504W        W70764  26.001  28.742   0.392
 5505W        W70765  30.177   6.763   1.430
 5506W        W70766  25.864  27.209   0.366
 5507W        W70767  17.363  11.518  11.064
 5508W        W70768   6.689  40.072  10.959
 5509W        W70769  42.108   9.803  10.806
 5510W        W70770  12.190  32.591  11.973
 5511W        W70771  18.788  13.135   0.433
 5512W        W70772  31.969   1.421   2.365
 5513W        W70773  42.711  43.117  14.386
 5514W        W70774   5.684  24.916   4.719
 5515W        W70775   1.397  30.564   4.668
 5516W        W70776  22.977  27.392   0.573
 5517W        W70777  34.456  38.478  11.440
 5518W        W70778   7.015  25.590   4.543
 5519W        W70779   8.896  17.320  10.423
 5520W        W70780   5.669  23.718  11.466
 5521W        W70781  37.746  19.455   4.567
 5522W        W70782  39.564  19.478   4.064
 5523W        W70783   0.027   9.067   1.218
 5524W        W70784  34.505  42.986   4.719
 5525W        W70785  40.181  25.044   4.140
 5526W        W70786  20.793  38.521  14.469
 5527W        W70787   3.454   7.261   3.422
 5528W        W70788  43.534  19.502  11.582
 5529W        W70789  17.884  25.692  12.104
 5530W        W70790  24.239   9.833  11.048
 5531W        W70791  11.120  37.002  13.125
 5532W        W70792  25.446  27.097  11.504
 5533W        W70793  35.752  23.703   3.671
 5534W        W70794  13.901  19.469   1.469
 5535W        W70795  31.872  37.307   1.171
 5536W        W70796  36.915   1.698   0.355
 5537W        W70797  10.575  25.320  12.602
 5538W        W70798  40.660  42.384  13.709
 5539W        W70799  17.815  26.524  10.891
 5540W        W70800  31.258  16.148  12.174
 5541W        W70801  34.232   1.496  14.815
 5542W        W70802  37.120  28.562  11.557
 5543W        W70803   2.256   1.938  10.236
 5544W        W70804  24.170   8.630   2.812
 5545W        W70805  28.960  23.163  13.747
 5546W        W70806  30.107  15.587   1.975
 5547W        W70807  18.044  18.398   2.685
 5548W        W70808  25.452  44.163  12.152
 5549W        W70809  30.228  31.971   1.337
 5550W        W70810  31.672   6.677   0.855
 5551W        W70811  22.186  33.388  13.847
 5552W        W70812  23.667   1.890  13.290
 5553W        W70813  24.627  41.497  14.400
 5554W        W70814   8.594  10.926  11.123
 5555W        W70815   3.401   2.297   3.556
 5556W        W70816  43.443  24.257  12.670
 5557W        W70817  19.761   6.206   0.810
 5558W        W70818   8.200  41.467  10.944
 5559W        W70819  14.340   2.459  10.665
 5560W        W70820  41.983  42.808  12.517
 5561W        W70821  24.792  30.171  13.307
 5562W        W70822  10.919  39.802  11.195
 5563W        W70823  13.527  32.633   1.728
 5564W        W70824  11.530   9.924   1.290
 5565W        W70825  39.000   8.378   1.245
 5566W        W70826  32.648  41.233  11.863
 5567W        W70827   9.588   6.840   5.431
 5568W        W70828  37.978  33.140  13.990
 5569W        W70829  35.954  30.458   0.269
 5570W        W70830  24.009  23.579   2.793
 5571W        W70831  31.487  15.735  14.288
 5572W        W70832   7.005  39.285  10.610
 5573W        W70833  15.736  35.129  10.517
 5574W        W70834  38.376  15.261  14.998
 5575W        W70835  37.530  19.555  10.582
 5576W        W70836   5.016  11.633  13.517
 5577W        W70837  34.980  43.735   2.650
 5578W        W70838  31.031  20.078  12.025
 5579W        W70839  18.348  21.584   4.119
 5580W        W70840   0.980  15.248   2.632
 5581W        W70841  24.004  43.849   3.712
 5582W        W70842  10.648  12.082  11.549
 5583W        W70843  11.130  41.371   2.356
 5584W        W70844  38.308  26.972   0.203
 5585W        W70845  33.642  11.914  13.510
 5586W        W70846  40.569  41.867   1.321
 5587W        W70847  17.015  13.049   3.100
 5588W        W70848   0.264  31.230  11.128
 5589W        W70849  17.519   5.652  12.604
 5590W        W70850  27.048  40.877  11.674
 5591W        W70851   7.092  30.133   3.077
 5592W        W70852  15.053  30.036   1.437
 5593W        W70853  12.576  21.372  13.022
 5594W        W70854   0.909  30.192   3.001
 5595W        W70855  16.112   2.872  12.139
 5596W        W70856  31.400  40.382   2.186
 5597W        W70857   7.351   7.442   3.609
 5598W        W70858  21.781  43.281   2.411
 5599W        W70859   4.115  35.469  11.951
 5600W        W70860  26.195  11.301  12.515
 5601W        W70861  21.746  26.168   4.898
 5602W        W70862   2.814  29.426   4.590
 5603W        W70863  43.599  13.678  12.557
 5604W        W70864  40.819  40.835  12.842
 5605W        W70865  35.565  31.467  13.543
 5606W        W70866   0.020  22.188  11.068
 5607W        W70867  41.345  39.057  11.119
 5608W        W70868  30.253  27.458  12.918
 5609W        W70869  41.312  35.533  12.946
 5610W        W70870  15.573  26.627   1.269
 5611W        W70871  37.450  27.852   1.178
 5612W        W70872  27.948  14.839  14.413
 5613W        W70873  28.090  24.787  12.401
 5614W        W70874  39.877  27.346   3.746
 5615W        W70875  42.286   3.460  12.512
 5616W        W70876  31.178   9.106   0.907
 5617W        W70877  29.463   3.784   0.024
 5618W        W70878   1.436   9.236  14.829
 5619W        W70879  26.878   0.228  10.636
 5620W        W70880  12.371  10.265   1.148
 5621W        W70881  40.801   4.734  14.428
 5622W        W70882  36.829  20.448  14.372
 5623W        W70883  42.037  32.702  14.475
 5624W        W70884  25.701  16.727   2.773
 5625W        W70885   3.865  34.197  13.835
 5626W        W70886  19.559  14.849   1.312
 5627W        W70887  10.874  14.771   4.219
 5628W        W70888  21.723  33.963  14.869
 5629W        W70889  28.986   5.675   1.827
 5630W        W70890  17.815  13.628  10.876
 5631W        W70891  23.505  17.629  14.458
 5632W        W70892  18.692  13.561  12.087
 5633W        W70893  43.868  44.330   5.038
 5634W        W70894  20.602  32.156  12.229
 5635W        W70895  30.665  20.183  11.407
 5636W        W70896  11.330  12.688   0.758
 5637W        W70897  16.593   0.515  14.798
 5638W        W70898  38.966  10.320   1.745
 5639W        W70899  41.486  10.246  11.082
 5640W        W70900  13.409   4.673   0.250
 5641W        W70901  27.078   0.095  14.803
 5642W        W70902  39.579  43.771   2.958
 5643W        W70903  28.484  21.071  12.037
 5644W        W70904   1.796  14.311  14.489
 5645W        W70905  11.640   9.366   1.390
 5646W        W70906   1.701  25.521   0.372
 5647W        W70907  40.594   6.142   1.745
 5648W        W70908  12.064  41.323   3.601
 5649W        W70909  27.928   3.209  14.819
 5650W        W70910   2.844  12.699  11.557
 5651W        W70911  20.528   7.747  12.528
 5652W        W70912  11.942  38.804  14.883
 5653W        W70913   1.302   2.421  12.504
 5654W        W70914   4.971  14.836   1.690
 5655W        W70915   9.603  44.359   2.124
 5656W        W70916  42.771  39.962  14.473
 5657W        W70917  31.483  34.296  14.492
 5658W        W70918  11.235  39.038  11.201
 5659W        W70919  18.117  21.227   1.648
 5660W        W70920  42.344  27.173  11.144
 5661W        W70921   7.573  12.621   2.596
 5662W        W70922  22.047  33.392  12.938
 5663W        W70923  36.367  42.851  14.378
 5664W        W70924  41.852  15.220  10.741
 5665W        W70925   6.249   0.493   3.985
 5666W        W70926  23.128  41.075  11.419
 5667W        W70927  10.107  30.573   9.664
 5668W        W70928  39.792  10.190   3.415
 5669W        W70929  23.021  21.847   4.817
 5670W        W70930  27.561   5.216  12.897
 5671W        W70931  13.497  27.769  14.278
 5672W        W70932  32.892   3.397  14.805
 5673W        W70933  32.354  26.880   1.832
 5674W        W70934  42.166  21.867   3.185
 5675W        W70935  34.587  20.535   4.730
 5676W        W70936  12.662  26.646   0.295
 5677W        W70937  34.080  38.555   0.236
 5678W        W70938   9.675   4.535  14.970
 5679W        W70939   5.544  30.979  14.982
 5680W        W70940  19.686  10.682   1.440
 5681W        W70941   4.712   0.890   3.243
 5682W        W70942  25.914  22.804   0.179
 5683W        W70943  31.844  19.605  14.952
 5684W        W70944  16.751  19.047   1.748
 5685W        W70945  24.589  29.618   1.936
 5686W        W70946  17.755  44.264   3.624
 5687W        W70947   2.317   7.620   2.187
 5688W        W70948   4.783  37.299  14.789
 5689W        W70949  39.265  21.867  14.485
 5690W        W70950  25.721  15.300  11.993
 5691W        W70951   0.847  12.561  10.929
 5692W        W70952  29.509   3.916   2.009
 5693W        W70953  12.505  27.221   1.672
 5694W        W70954  14.119  29.505   2.036
 5695W        W70955  44.507  32.163  13.409
 5696W        W70956  23.511  33.934  13.820
 5697W        W70957  25.587  13.073  12.840
 5698W        W70958   8.698  39.922  11.333
 5699W        W70959  29.720  25.000  14.236
 5700W        W70960  36.987  29.421  11.719
 5701W        W70961  15.053  43.987   1.617
 5702W        W70962   5.102  34.005   4.557
 5703W        W70963  31.020   9.895   2.151
 5704W        W70964  19.654  31.398   4.646
 5705W        W70965  36.040  10.231  14.771
 5706W        W70966  15.637  33.519  11.219
 5707W        W70967  26.015   1.688  13.000
 5708W        W70968   2.324   7.236  10.643
 5709W        W70969  18.476  14.225   4.078
 5710W        W70970  37.252   6.283   1.282
 5711W        W70971  11.618  28.881   1.935
 5712W        W70972  35.174  30.144  12.985
 5713W        W70973  29.088  37.592  13.959
 5714W        W70974  38.884  13.276  10.789
 5715W        W70975  14.762   9.936   0.908
 5716W        W70976  11.978  14.658  13.405
 5717W        W70977   2.960  33.317  11.441
 5718W        W70978  25.103  39.792   3.734
 5719W        W70979   0.953  22.906   1.073
 5720W        W70980  44.404  10.815   4.623
 5721W        W70981   9.889   5.801  12.201
 5722W        W70982  20.496  14.177   4.084
 5723W        W70983  34.809  18.988   2.309
 5724W        W70984  18.861  40.870   3.824
 5725W        W70985   6.802  19.685   3.431
 5726W        W70986   5.391   4.531   3.104
 5727W        W70987  32.337  14.470   0.225
 5728W        W70988  18.505  18.590   1.412
 5729W        W70989  10.587  23.100   3.804
 5730W        W70990  14.354  43.406  14.341
 5731W        W70991  34.822  26.444   9.893
 5732W        W70992  43.090  15.788   1.662
 5733W        W70993  28.644   8.378  12.117
 5734W        W70994  37.075   8.683   3.297
 5735W        W70995  12.652  42.542   2.933
 5736W        W70996  34.612  40.580   5.127
 5737W        W70997  25.261  17.023   0.784
 5738W        W70998  19.186  12.205   0.847
 5739W        W70999  12.782   3.341   1.842
 5740W        W71000  44.348  44.050  11.674
 5741W        W71001   9.040  29.722  11.073
 5742W        W71002  33.856   9.715  10.745
 5743W        W71003  12.699  24.548  12.107
 5744W        W71004   6.959  40.528   0.477
 5745W        W71005   7.273  44.718   3.753
 5746W        W71006   4.853  14.591   4.185
 5747W        W71007  33.381  13.648  11.704
 5748W        W71008  26.991   7.300  11.237
 5749W        W71009  34.394  31.713   1.704
 5750W        W71010   5.769   6.390   0.870
 5751W        W71011  23.126  35.978  13.764
 5752W        W71012  31.431  21.805  11.891
 5753W        W71013  12.980  32.151  12.245
 5754W        W71014   4.257   8.578  11.541
 5755W        W71015  17.194  26.525  12.920
 5756W        W71016  25.008  22.540   2.778
 5757W        W71017   3.787  43.022  14.837
 5758W        W71018  22.984  10.635  13.386
 5759W        W71019  15.241  20.635  12.951
 5760W        W71020   1.925  39.803   3.657
 5761W        W71021  27.780  10.149   3.784
 5762W        W71022  28.127  40.302   3.126
 5763W        W71023  33.359   8.208   1.727
 5764W        W71024  35.352  34.722  12.645
 5765W        W71025  12.000  42.479   2.271
 5766W        W71026  17.308   7.759  11.045
 5767W        W71027  34.329  12.642  11.057
 5768W        W71028  33.136  42.366  14.408
 5769W        W71029  21.270  36.914   2.214
 5770W        W71030  26.331   0.344   3.672
 5771W        W71031  42.927   6.586   2.412
 5772W        W71032  16.288  10.396   1.948
 5773W        W71033   8.190  32.549   1.348
 5774W        W71034  11.573  35.390  13.438
 5775W        W71035   0.191  23.220   3.774
 5776W        W71036  28.511  35.653  14.109
 5777W        W71037  20.599  22.686  11.254
 5778W        W71038  20.448  29.815  11.569
 5779W        W71039  18.262  38.560  14.975
 5780W        W71040  40.849  22.545  13.909
 5781W        W71041   1.772  23.697  14.835
 5782W        W71042  21.454  22.778  14.292
 5783W        W71043  25.284  28.622  14.303
 5784W        W71044  34.363  13.998  14.925
 5785W        W71045  30.369   0.513  12.579
 5786W        W71046  21.035  32.033  10.561
 5787W        W71047  38.133  44.383   3.658
 5788W        W71048   0.885  31.374  11.062
 5789W        W71049   8.393  42.468  12.850
 5790W        W71050  24.187   1.333   2.267
 5791W        W71051  29.422   6.810  10.724
 5792W        W71052  30.389  26.425   2.571
 5793W        W71053  33.712   6.965   4.562
 5794W        W71054  36.882  24.570   2.904
 5795W        W71055  20.029  13.852  12.690
 5796W        W71056  21.320  13.128   3.824
 5797W        W71057  18.985   8.357   2.967
 5798W        W71058  13.668  36.190   0.412
 5799W        W71059  36.432  31.444  10.726
 5800W        W71060  16.700  11.726  11.999
 5801W        W71061   8.169  14.160  13.861
 5802W        W71062  33.589  32.639   2.436
 5803W        W71063  41.085   6.729  11.835
 5804W        W71064  29.770  10.853  13.896
 5805W        W71065  44.958  14.338  13.331
 5806W        W71066  15.063  15.843  10.821
 5807W        W71067  12.930  26.875   2.564
 5808W        W71068  42.426  36.683  14.376
 5809W        W71069   4.700  24.766  13.112
 5810W        W71070  38.457  22.521   3.400
 5811W        W71071  44.481  28.919  12.964
 5812W        W71072  36.604  23.048   1.339
 5813W        W71073  44.545  24.448  13.362
 5814W        W71074  16.781   3.871  13.358
 5815W        W71075   5.976  42.347   1.512
 5816W        W71076  41.103  25.709  14.375
 5817W        W71077   3.969  20.857   0.439
 5818W        W71078   1.282   7.942  11.589
 5819W        W71079  13.001  27.272  14.880
 5820W        W71080  35.832  43.898   3.568
 5821W        W71081  11.746  12.362   0.822
 5822W        W71082  16.576   0.408  12.976
 5823W        W71083  19.219  33.344  12.024
 5824W        W71084  11.870  34.442   3.018
 5825W        W71085  31.870  39.886   4.089
 5826W        W71086  26.960  43.523   1.334
 5827W        W71087  22.103  11.295  14.768
 5828W        W71088  42.903  24.410   2.747
 5829W        W71089  40.482  16.394  12.393
 5830W        W71090  28.790  26.569   1.338
 5831W        W71091   2.218  27.091  13.043
 5832W        W71092  15.059  33.321   0.759
 5833W        W71093  39.759  39.834   3.626
 5834W        W71094   5.107  23.858   0.721
 5835W        W71095  18.005   7.359   0.774
 5836W        W71096   4.242  13.598   1.419
 5837W        W71097  16.636  35.777  11.050
 5838W        W71098  18.187  41.999   3.688
 5839W        W71099  36.950  35.983   1.535
 5840W        W71100  35.801  11.572   3.737
 5841W        W71101  27.231  13.982   0.262
 5842W        W71102   1.820  17.051   4.203
 5843W        W71103  23.035  24.796   3.199
 5844W        W71104  20.792  19.242  11.106
 5845W        W71105  43.932  19.067  12.867
 5846W        W71106  36.778  13.407   2.350
 5847W        W71107   7.627  28.671   0.472
 5848W        W71108  17.203  28.861  13.872
 5849W        W71109  26.603  31.377   1.787
 5850W        W71110  44.130  20.345   0.474
 5851W        W71111   0.700  19.775  11.849
 5852W        W71112  42.939  32.458  12.512
 5853W        W71113  33.780  30.376   5.110
 5854W        W71114  19.551  17.156  11.233
 5855W        W71115  40.016  30.531  13.091
 5856W        W71116  21.994  30.134   4.564
 5857W        W71117  26.539  23.594  13.577
 5858W        W71118  40.417  43.778  14.758
 5859W        W71119  44.064  30.457   2.850
 5860W        W71120  22.260  21.804  11.016
 5861W        W71121  43.353  42.349  11.121
 5862W        W71122  34.378  15.200   1.428
 5863W        W71123  41.001   2.685  10.161
 5864W        W71124  21.769   0.775   4.079
 5865W        W71125  44.995  20.287   0.319
 5866W        W71126  35.902  14.272   4.350
 5867W        W71127  25.496  28.039  11.768
 5868W        W71128   3.251  27.923   0.455
 5869W        W71129  26.925  28.222   4.194
 5870W        W71130  41.716  44.328   1.405
 5871W        W71131  29.922  22.993   0.181
 5872W        W71132  26.711  34.132   1.755
 5873W        W71133   2.912   9.084   2.741
 5874W        W71134  11.606   1.846  12.501
 5875W        W71135  14.576  10.161  14.523
 5876W        W71136   1.194  39.614  14.952
 5877W        W71137   6.702  28.617  14.408
 5878W        W71138  32.501  32.993  14.370
 5879W        W71139  36.388   2.205   1.773
 5880W        W71140  18.797  28.057   1.726
 5881W        W71141  30.108   4.366  12.052
 5882W        W71142  19.910  11.733  12.570
 5883W        W71143  30.461  28.078   0.515
 5884W        W71144  13.086   5.931   1.342
 5885W        W71145   7.751  14.421  12.077
 5886W        W71146  42.011  14.076  13.442
 5887W        W71147  26.864   1.744  10.588
 5888W        W71148  33.231  11.005  11.112
 5889W        W71149  28.935  34.043   4.156
 5890W        W71150  20.772   0.382   3.307
 5891W        W71151  43.972  44.566  12.087
 5892W        W71152   9.185  33.363  10.559
 5893W        W71153  38.039   7.721  13.554
 5894W        W71154  28.234  38.453   0.551
 5895W        W71155  31.340  43.444  10.886
 5896W        W71156   9.627  37.508   2.986
 5897W        W71157  39.135  11.022  13.992
 5898W        W71158   1.854  36.773   4.225
 5899W        W71159  37.940  18.715   2.778
 5900W        W71160  27.346   0.450  12.018
 5901W        W71161  16.632  18.834  13.709
 5902W        W71162  17.623  11.846  14.064
 5903W        W71163  15.387   0.839  13.238
 5904W        W71164  42.861   4.833   4.048
 5905W        W71165  16.955  24.137  14.494
 5906W        W71166  29.419  20.060  14.090
 5907W        W71167  23.597  25.912  13.913
 5908W        W71168  38.447  24.666  11.567
 5909W        W71169   4.638  23.205  14.744
 5910W        W71170  13.288  11.140  13.593
 5911W        W71171  43.325  18.869   2.356
 5912W        W71172  42.785  10.007  11.569
 5913W        W71173  34.989  17.128   1.224
 5914W        W71174   1.507  31.610   1.024
 5915W        W71175  40.974  26.025   1.748
 5916W        W71176   8.231   4.921  12.033
 5917W        W71177   6.512  39.947  14.779
 5918W        W71178  10.095   2.881   4.111
 5919W        W71179  12.780  18.521  13.952
 5920W        W71180  43.419  34.345   2.527
 5921W        W71181  33.089  32.461   2.506
 5922W        W71182  27.892  44.867   0.785
 5923W        W71183  30.474  21.135  11.622
 5924W        W71184  23.413  33.451   2.859
 5925W        W71185  14.105  22.620  14.464
 5926W        W71186  41.340  38.638   0.363
 5927W        W71187  20.895  24.100  12.809
 5928W        W71188   2.644  17.908  10.426
 5929W        W71189  34.137   0.581  11.208
 5930W        W71190  26.534  42.249  14.941
 5931W        W71191   2.011   5.178   4.159
 5932W        W71192  21.506   3.042  12.835
 5933W        W71193  26.108  17.073  10.323
 5934W        W71194   6.199  43.275   3.223
 5935W        W71195  37.277  38.712   0.200
 5936W        W71196   3.789  33.363  12.785
 5937W        W71197   6.872   6.716   1.591
 5938W        W71198  18.743  34.858   1.044
 5939W        W71199   2.287  35.132  14.291
 5940W        W71200  28.452  35.396   2.793
 5941W        W71201  41.372  41.968  13.753
 5942W        W71202   5.397  13.082  12.205
 5943W        W71203   6.770  39.324   3.791
 5944W        W71204  21.144  35.957  13.609
 5945W        W71205  28.210  28.041   1.793
 5946W        W71206   2.209   3.364   4.492
 5947W        W71207  33.386  18.224  12.617
 5948W        W71208  37.883   6.986   3.154
 5949W        W71209  39.066  20.147  11.025
 5950W        W71210   1.509  42.496  12.957
 5951W        W71211  15.764  20.605  12.898
 5952W        W71212  26.480  38.398  11.084
 5953W        W71213  13.652  14.803  14.001
 5954W        W71214  40.265  18.568  12.945
 5955W        W71215  43.046  13.627   0.870
 5956W        W71216  10.096  13.109  13.074
 5957W        W71217   4.746   9.123  11.260
 5958W        W71218  21.241  16.254  11.987
 5959W        W71219   6.679   0.734   2.328
 5960W        W71220  38.986  18.980  13.610
 5961W        W71221  30.565  34.039   0.676
 5962W        W71222  21.074  42.922   0.744
 5963W        W71223  38.030  32.176   3.332
 5964W        W71224  21.890  28.527   0.731
 5965W        W71225  42.890  12.645  14.367
 5966W        W71226  21.663  17.302   2.736
 5967W        W71227   9.402  12.607   2.328
 5968W        W71228  28.995  11.376   2.839
 5969W        W71229  34.488  28.503  13.129
 5970W        W71230  44.122   8.341  11.634
 5971W        W71231   8.719  22.891   4.916
 5972W        W71232  34.957  39.808   4.647
 5973W        W71233  11.780  44.914  10.937
 5974W        W71234   5.653  35.500   2.305
 5975W        W71235  27.969  14.614   2.043
 5976W        W71236   9.889   0.049  13.881
 5977W        W71237  34.438   6.629   1.474
 5978W        W71238  34.019  31.063   0.774
 5979W        W71239   5.414   6.439  12.495
 5980W        W71240  31.865   4.259   0.061
 5981W        W71241  27.989  14.278   4.630
 5982W        W71242  27.174  41.842   4.059
 5983W        W71243  10.624  31.997  11.066
 5984W        W71244   4.134  22.447   1.186
 5985W        W71245  10.382  22.695  13.460
 5986W        W71246  28.462  31.520  10.789
 5987W        W71247  13.351   3.059  10.356
 5988W        W71248  34.427  13.467  14.893
 5989W        W71249  25.014   9.272   3.611
 5990W        W71250  42.366   4.768   3.931
 5991W        W71251  32.517  19.277   1.575
 5992W        W71252  37.022   3.166  10.770
 5993W        W71253   1.606  37.107  13.052
 5994W        W71254  13.755  16.345   1.319
 5995W        W71255  43.961  39.476  14.836
 5996W        W71256  17.574  38.433   1.730
 5997W        W71257  41.030   2.460   4.996
 5998W        W71258  32.608   5.887   4.564
 5999W        W71259  35.487   9.806  10.394
 6000W        W71260  37.528  31.005  13.465
 6001W        W71261  43.336  25.143   0.168
 6002W        W71262  44.749  16.003   2.685
 6003W        W71263  22.797  38.097   4.614
 6004W        W71264  44.013  35.222   2.393
 6005W        W71265  24.063  14.114   0.545
 6006W        W71266  13.160  17.307  14.892
 6007W        W71267  31.199  14.567   3.721
 6008W        W71268  22.687  36.437   0.838
 6009W        W71269  40.252  33.987   4.881
 6010W        W71270   0.098  15.392   2.280
 6011W        W71271  28.965  37.407  12.294
 6012W        W71272  11.397  18.822   3.707
 6013W        W71273   4.759  35.578  13.559
 6014W        W71274   8.276  43.959   1.439
 6015W        W71275  23.547  31.402   1.219
 6016W        W71276   0.443  44.441   4.090
 6017W        W71277   2.481  35.550   0.880
 6018W        W71278   1.685  15.178   0.911
 6019W        W71279   4.494  28.942  12.453
 6020W        W71280  15.844  28.090   4.115
 6021W        W71281   6.422   5.809  14.062
 6022W        W71282  41.723  34.070   4.614
 6023W        W71283  32.349  25.083   4.056
 6024W        W71284  33.037  42.678  12.479
 6025W        W71285  26.547   8.246   2.789
 6026W        W71286  44.308  14.879  13.896
 6027W        W71287  40.747  25.426   3.131
 6028W        W71288  37.597  16.292  14.025
 6029W        W71289  42.926  24.331  14.353
 6030W        W71290   2.289  10.218   0.203
 6031W        W71291  17.572   6.633   1.047
 6032W        W71292  21.666  13.874   1.347
 6033W        W71293  40.092  44.445  12.925
 6034W        W71294  40.607  40.471  14.429
 6035W        W71295  23.481   1.210  13.565
 6036W        W71296  37.468   7.774  10.623
 6037W        W71297   2.879  42.441  13.196
 6038W        W71298   0.196  24.518   3.200
 6039W        W71299   2.561   6.433  12.805
 6040W        W71300  43.529  37.782   0.805
 6041W        W71301  22.468   8.657  13.353
 6042W        W71302   0.430   8.684   1.427
 6043W        W71303  31.602   2.933  11.966
 6044W        W71304   0.200   2.745  10.714
 6045W        W71305  32.853  27.499  11.991
 6046W        W71306  29.118  27.088   1.058
 6047W        W71307  14.271  40.915   4.121
 6048W        W71308   2.200   9.900   4.122
 6049W        W71309  38.063   5.944   0.264
 6050W        W71310   0.342  38.670   2.237
 6051W        W71311  33.420  37.025  12.565
 6052W        W71312  30.257  13.022   3.701
 6053W        W71313   6.447  36.420  13.506
 6054W        W71314  43.255   1.076   0.718
 6055W        W71315  18.536  33.086  11.993
 6056W        W71316  35.675  14.945   2.338
 6057W        W71317  27.576  22.526   2.237
 6058W        W71318  12.098   8.623   0.975
 6059W        W71319   4.928  10.886   3.271
 6060W        W71320  34.005  35.906  11.109
 6061W        W71321   9.788   0.377   0.799
 6062W        W71322  37.465  15.030   3.911
 6063W        W71323   9.633  30.106  11.657
 6064W        W71324  25.662  31.959  11.934
 6065W        W71325  17.171   3.828   4.464
 6066W        W71326  11.629  16.164  10.635
 6067W        W71327  38.075   4.320   5.079
 6068W        W71328  14.297  42.986   5.158
 6069W        W71329  28.058   0.416  14.548
 6070W        W71330  14.588  20.511   3.720
 6071W        W71331  18.722  22.281  14.322
 6072W        W71332  39.278  38.803   2.800
 6073W        W71333  26.446  31.058  13.975
 6074W        W71334  38.558  15.274   0.469
 6075W        W71335  32.713   2.077   2.129
 6076W        W71336  23.159  15.248   4.098
 6077W        W71337  31.881   0.449   3.214
 6078W        W71338  41.773  35.382  14.255
 6079W        W71339  42.546   4.266   2.564
 6080W        W71340  10.494  18.714  14.525
 6081W        W71341  15.272  43.975  11.643
 6082W        W71342  12.814  40.589   0.925
 6083W        W71343  12.888   9.677   2.612
 6084W        W71344  37.463  17.555  10.569
 6085W        W71345  40.562  11.566   4.089
 6086W        W71346  33.560  37.047   2.833
 6087W        W71347  15.154  42.431  14.743
 6088W        W71348  39.252   6.118  10.502
 6089W        W71349   8.289   6.747  14.923
 6090W        W71350   8.821   1.060   1.917
 6091W        W71351  20.606  13.276   3.293
 6092W        W71352  21.958  11.690  13.473
 6093W        W71353  41.408  13.399  12.175
 6094W        W71354   5.450   2.324  14.966
 6095W        W71355   9.819  35.579   3.139
 6096W        W71356  44.419  31.255  13.659
 6097W        W71357  32.699  16.888   2.679
 6098W        W71358   8.275  34.131   4.813
 6099W        W71359  20.297  10.713  12.540
 6100W        W71360  30.381   0.792  10.426
 6101W        W71361  22.257  13.339   2.300
 6102W        W71362  10.147  32.935   1.866
 6103W        W71363  14.133  10.215   1.059
 6104W        W71364  29.171  44.635   0.206
 6105W        W71365  30.246   7.630   3.496
 6106W        W71366  39.438  37.080  11.256
 6107W        W71367  25.499   0.128  13.343
 6108W        W71368  42.863  40.285  12.677
 6109W        W71369  44.561  33.932  12.361
 6110W        W71370  18.938   3.522  10.756
 6111W        W71371  33.859  28.878  12.305
 6112W        W71372   4.106  12.247   0.978
 6113W        W71373  21.865  43.512   3.291
 6114W        W71374  29.010  34.473   4.449
 6115W        W71375   2.464   9.859   2.861
 6116W        W71376  42.304   9.214  13.310
 6117W        W71377  12.618  10.813   0.338
 6118W        W71378  37.550  13.581  12.562
 6119W        W71379  22.035  11.361  12.513
 6120W        W71380   5.699  31.003   1.304
 6121W        W71381  16.819  11.302  12.296
 6122W        W71382  13.233  39.316  12.979
 6123W        W71383  27.493   1.157  11.148
 6124W        W71384  31.280  32.047   2.301
 6125W        W71385  37.412  43.272  10.630
 6126W        W71386  38.813  27.877   3.096
 6127W        W71387  23.742  34.594  11.462
 6128W        W71388  36.923   4.020  14.845
 6129W        W71389   3.395   9.204   1.377
 6130W        W71390   4.935  40.554  10.669
 6131W        W71391   1.442  22.663  12.895
 6132W        W71392   3.323  30.675  12.318
 6133W        W71393  10.264   0.920   3.350
 6134W        W71394  36.887  10.760   1.383
 6135W        W71395  40.314  36.963  14.664
 6136W        W71396  27.727  33.687  14.474
 6137W        W71397  19.297   1.729  14.350
 6138W        W71398  28.152   4.733  11.244
 6139W        W71399  42.608  28.022  11.482
 6140W        W71400  36.200  12.238   0.359
 6141W        W71401  42.814  31.580   2.745
 6142W        W71402  15.432   9.719   3.753
 6143W        W71403  22.498   8.644   3.847
 6144W        W71404  16.726   9.693   2.271
 6145W        W71405  37.453   1.170   2.783
 6146W        W71406  27.360   6.687   0.096
 6147W        W71407   8.703  15.663   2.815
 6148W        W71408  20.562  31.861   4.129
 6149W        W71409  28.112  28.615  12.895
 6150W        W71410  22.064   7.815  13.574
 6151W        W71411  13.421  10.323   0.290
 6152W        W71412  44.903  26.065   1.909
 6153W        W71413  30.446  25.790   0.881
 6154W        W71414  15.009  29.771  11.953
 6155W        W71415  38.929  15.120  12.915
 6156W        W71416  38.466  27.688  14.915
 6157W        W71417  14.110   4.393  10.479
 6158W        W71418  15.646  12.544   3.474
 6159W        W71419  18.663  14.152   0.771
 6160W        W71420   4.893  26.608   2.716
 6161W        W71421  39.903  25.639  14.494
 6162W        W71422  38.848  14.110   3.649
 6163W        W71423   4.939  35.378   0.033
 6164W        W71424  43.626  34.435   0.591
 6165W        W71425  26.162  31.363  14.286
 6166W        W71426  17.410  32.880  11.164
 6167W        W71427  22.927  41.386   4.593
 6168W        W71428   4.458   6.039   0.746
 6169W        W71429  30.843   3.368  12.475
 6170W        W71430   0.093  17.108   4.192
 6171W        W71431   5.976  14.354  13.374
 6172W        W71432  40.031  28.069   4.860
 6173W        W71433   2.361  27.095  12.546
 6174W        W71434  28.982  42.310   2.252
 6175W        W71435  18.238   2.240   0.948
 6176W        W71436   1.923   2.954  13.533
 6177W        W71437   6.671  11.483   4.238
 6178W        W71438  21.695  26.123  14.922
 6179W        W71439  41.201  33.974   2.769
 6180W        W71440  28.045  22.034  14.243
 6181W        W71441  11.109  36.676   3.868
 6182W        W71442   9.700  14.780  11.696
 6183W        W71443   7.396  26.196  10.975
 6184W        W71444  21.448  42.374   3.793
 6185W        W71445  19.350  12.080   1.738
 6186W        W71446  37.538  26.218  11.211
 6187W        W71447  15.243  32.807  13.520
 6188W        W71448  41.766  13.295   4.178
 6189W        W71449  17.965  38.131   2.257
 6190W        W71450  25.267  32.423  12.549
 6191W        W71451  12.321  34.542  10.491
 6192W        W71452  22.420  10.075  14.404
 6193W        W71453  11.444   1.333  12.121
 6194W        W71454  13.978  27.024   0.447
 6195W        W71455  14.123  21.434   3.700
 6196W        W71456   4.373  20.560   0.307
 6197W        W71457   5.878  15.320  11.580
 6198W        W71458  17.004  35.142  13.851
 6199W        W71459   3.499  38.857  11.460
 6200W        W71460   7.338  37.731   0.986
 6201W        W71461   3.356  17.671   1.694
 6202W        W71462   2.017   8.253  13.943
 6203W        W71463  43.287   4.975  14.916
 6204W        W71464  34.370  14.556   4.002
 6205W        W71465   0.979  12.692  12.890
 6206W        W71466  16.922  29.411  12.029
 6207W        W71467  22.042  41.120   1.660
 6208W        W71468  38.452  37.106  13.515
 6209W        W71469  20.460  29.053   3.677
 6210W        W71470   9.813  16.761  11.684
 6211W        W71471  38.815  13.623   4.294
 6212W        W71472  13.731   3.229   3.168
 6213W        W71473  23.519  31.390   0.676
 6214W        W71474  16.111  33.684  13.955
 6215W        W71475  21.642  34.076  12.990
 6216W        W71476  42.656   6.507  13.463
 6217W        W71477   0.539  12.055  14.377
 6218W        W71478  31.332  19.629  10.626
 6219W        W71479  16.562  25.069  11.434
 6220W        W71480   4.697  18.996   0.032
 6221W        W71481   0.453  22.179  11.424
 6222W        W71482  44.870   7.751   4.002
 6223W        W71483  37.925  19.242   0.552
 6224W        W71484  22.480   8.643  10.636
 6225W        W71485   4.558  34.962  14.471
 6226W        W71486   0.247  24.185   0.054
 6227W        W71487  43.583  40.937  13.991
 6228W        W71488  17.244  33.661   0.255
 6229W        W71489  31.219  27.598   1.335
 6230W        W71490   3.417  22.684  14.295
 6231W        W71491   6.431  37.180   2.785
 6232W        W71492  29.618   9.178  14.896
 6233W        W71493  19.749  30.630  13.074
 6234W        W71494  40.905  19.244  10.738
 6235W        W71495  37.319   0.933   0.895
 6236W        W71496  39.448  39.978   2.389
 6237W        W71497  17.094  11.356   1.334
 6238W        W71498  29.428  26.462   2.689
 6239W        W71499  24.220   9.817   1.624
 6240W        W71500  29.496  33.988   2.242
 6241W        W71501   6.693  18.894  13.258
 6242W        W71502  12.383   7.395  12.630
 6243W        W71503  31.813  23.138   4.852
 6244W        W71504  30.023  38.866  12.132
 6245W        W71505  14.875   2.610   1.358
 6246W        W71506  39.312   7.864  14.456
 6247W        W71507   0.312  19.844   0.228
 6248W        W71508  30.021  43.678   2.220
 6249W        W71509  42.260   8.821   3.272
 6250W        W71510  38.377  35.527   2.648
 6251W        W71511  14.843  39.912   1.438
 6252W        W71512   5.957  21.655  14.408
 6253W        W71513  27.504   5.732   2.168
 6254W        W71514  33.211   9.374   0.285
 6255W        W71515  39.927  35.111   1.254
 6256W        W71516   7.836  16.068   2.556
 6257W        W71517  12.215   5.183   1.755
 6258W        W71518  12.207   8.417   3.349
 6259W        W71519  18.226  24.295   1.693
 6260W        W71520   0.594  12.730  14.770
 6261W        W71521  44.676  26.315  10.920
 6262W        W71522  40.681  20.657  11.894
 6263W        W71523  41.402  43.948  12.050
 6264W        W71524  30.190  27.602   3.637
 6265W        W71525  10.430  27.110   2.456
 6266W        W71526  39.728  20.561   3.632
 6267W        W71527  27.699   5.105   3.651
 6268W        W71528  24.090  14.816   2.575
 6269W        W71529  44.876  13.282  13.596
 6270W        W71530  16.711  14.406   2.254
 6271W        W71531  42.473  18.692  12.110
 6272W        W71532  29.995  28.446   3.241
 6273W        W71533  35.688  31.143  11.093
 6274W        W71534  44.259   3.484  12.348
 6275W        W71535  11.912  14.280   0.252
 6276W        W71536  19.643  31.482   1.430
 6277W        W71537  19.497  32.585  14.366
 6278W        W71538  44.306   6.049   5.224
 6279W        W71539  42.032  12.368  13.870
 6280W        W71540   8.699  36.470  11.077
 6281W        W71541  35.699  32.014  14.709
 6282W        W71542  34.549  10.202   1.267
 6283W        W71543  42.391  20.171  13.104
 6284W        W71544  36.465  16.470   2.848
 6285W        W71545  21.360  17.181   2.179
 6286W        W71546   3.763  23.508   0.023
 6287W        W71547  30.512  29.172  10.422
 6288W        W71548  43.291  22.037  14.872
 6289W        W71549  33.671   4.943  12.888
 6290W        W71550  41.745  32.905   2.190
 6291W        W71551  19.763  15.651  14.319
 6292W        W71552   4.287  19.352   2.173
 6293W        W71553  14.539  37.479  14.817
 6294W        W71554   3.942  15.771   0.679
 6295W        W71555  40.957  39.008   4.937
 6296W        W71556   4.409  29.021  10.690
 6297W        W71557  28.050  13.856  11.201
 6298W        W71558  35.010  13.837  12.414
 6299W        W71559  12.147   4.701   2.672
 6300W        W71560   7.658  16.055  11.094
 6301W        W71561  38.645   4.882  11.138
 6302W        W71562   5.785  42.724  13.104
 6303W        W71563  35.983  37.968   4.179
 6304W        W71564  26.409  10.170  13.128
 6305W        W71565  32.407  38.467   4.707
 6306W        W71566  34.028   3.467   9.896
 6307W        W71567  41.897   3.764   1.245
 6308W        W71568   6.999  19.189   1.762
 6309W        W71569  36.015  23.304  11.696
 6310W        W71570  13.520  32.971   4.894
 6311W        W71571  42.500  44.472   0.850
 6312W        W71572   2.933  26.226   2.218
 6313W        W71573  39.943  41.076  10.781
 6314W        W71574  22.406   3.334  12.570
 6315W        W71575  23.660   7.364  11.627
 6316W        W71576   0.835  12.594  12.018
 6317W        W71577  39.299  39.505  11.610
 6318W        W71578   3.145  25.158   0.384
 6319W        W71579  34.852  21.795   1.338
 6320W        W71580  33.870  14.480  12.958
 6321W        W71581   1.592  36.396   4.504
 6322W        W71582  22.027   2.705  13.980
 6323W        W71583  17.821  18.545   3.224
 6324W        W71584  26.147  15.276   4.123
 6325W        W71585  32.151  11.460  11.264
 6326W        W71586  42.405  28.048  11.947
 6327W        W71587  31.076  34.838   2.637
 6328W        W71588  26.255   1.534  12.580
 6329W        W71589  37.321  39.424  14.953
 6330W        W71590   3.427   6.417  12.350
 6331W        W71591  13.053  22.503   2.673
 6332W        W71592   2.878  27.013   0.784
 6333W        W71593  28.533   1.696   0.372
 6334W        W71594  39.663   1.720  11.572
 6335W        W71595  15.715  25.406  10.344
 6336W        W71596   1.288   7.743  13.871
 6337W        W71597  37.333  14.193   3.799
 6338W        W71598  26.455  30.022  12.700
 6339W        W71599  34.501  13.929  10.694
 6340W        W71600  25.139   0.820  12.371
 6341W        W71601  11.647  12.686   2.161
 6342W        W71602   7.200   9.935   1.759
 6343W        W71603  42.482  40.074   4.198
 6344W        W71604  30.911  40.978   1.399
 6345W        W71605   0.577  13.107   4.716
 6346W        W71606  10.876  39.552  10.503
 6347W        W71607  11.916  25.607  14.895
 6348W        W71608  20.538  34.531  14.346
 6349W        W71609  37.497  30.997  11.634
 6350W        W71610   5.704  14.332  12.511
 6351W        W71611  44.999  38.289   2.738
 6352W        W71612  11.477  42.040  11.687
 6353W        W71613  34.942  30.862   3.687
 6354W        W71614  16.768  27.944  11.901
 6355W        W71615  26.374  40.472  12.563
 6356W        W71616  20.620  20.658  11.434
 6357W        W71617  16.335  35.687   2.441
 6358W        W71618  23.082  33.443  11.621
 6359W        W71619  18.150  37.977   4.202
 6360W        W71620  30.747  38.446   2.334
 6361W        W71621  27.253  21.196  13.501
 6362W        W71622  10.756   5.759  13.555
 6363W        W71623  33.126   3.903  11.183
 6364W        W71624  27.525  26.680  13.791
 6365W        W71625  25.234   8.982  14.694
 6366W        W71626  28.597   6.415   3.218
 6367W        W71627   4.425  22.000   0.289
 6368W        W71628  28.866  27.443  14.786
 6369W        W71629  34.033  33.832   0.757
 6370W        W71630  37.562  16.662   0.292
 6371W        W71631  39.515  19.399  11.351
 6372W        W71632  33.828  34.021  11.389
 6373W        W71633  12.749   8.695   4.131
 6374W        W71634  26.508  14.559  13.063
 6375W        W71635   9.759   1.800  14.043
 6376W        W71636  21.025  37.382   2.987
 6377W        W71637  10.270  33.421   0.018
 6378W        W71638  20.263  19.215   4.020
 6379W        W71639  15.314  38.857   2.941
 6380W        W71640   2.967  24.947   0.827
 6381W        W71641  26.534  42.757   4.609
 6382W        W71642  36.646  43.720   2.731
 6383W        W71643  44.613  25.430   5.084
 6384W        W71644  31.510  31.132  11.845
 6385W        W71645  19.215  23.284  11.048
 6386W        W71646  14.134  15.578   2.178
 6387W        W71647   4.386  44.447  14.930
 6388W        W71648  16.601  32.526   2.889
 6389W        W71649  16.999  19.209  13.788
 6390W        W71650  37.528   4.793  11.602
 6391W        W71651  38.749  24.609   3.665
 6392W        W71652  11.587  12.221   4.498
 6393W        W71653  35.877  25.658   1.003
 6394W        W71654  17.284   9.885   1.207
 6395W        W71655  14.262  36.379   4.270
 6396W        W71656  25.717  21.675  10.898
 6397W        W71657  18.793  25.959   3.166
 6398W        W71658   7.879  33.518  11.089
 6399W        W71659  12.395  18.124   3.742
 6400W        W71660   7.928  25.115   3.546
 6401W        W71661   9.090   7.124  12.109
 6402W        W71662  42.031  22.031   4.321
 6403W        W71663  11.180  16.785  11.958
 6404W        W71664   9.137   5.355  14.772
 6405W        W71665  37.586  32.483   3.788
 6406W        W71666  36.510  39.024  13.351
 6407W        W71667   7.378  14.406   3.191
 6408W        W71668  30.403  40.985   1.294
 6409W        W71669   9.847  15.358   3.771
 6410W        W71670  11.324  21.528   2.679
 6411W        W71671   9.116  39.046   1.878
 6412W        W71672  36.508  30.037   1.870
 6413W        W71673  15.027   2.277   4.476
 6414W        W71674  18.481   0.765   2.233
 6415W        W71675  41.083  40.736   1.093
 6416W        W71676  38.791   3.236  14.247
 6417W        W71677   6.031  43.834  11.321
 6418W        W71678  35.904  38.517   3.394
 6419W        W71679   0.833   8.180   3.443
 6420W        W71680   9.364  36.004  10.735
 6421W        W71681  13.506  11.206   0.457
 6422W        W71682  31.844  24.863  13.736
 6423W        W71683  43.002  31.417   1.824
 6424W        W71684  41.768  42.917   4.519
 6425W        W71685  34.028   1.746   2.355
 6426W        W71686   0.942  27.814  13.039
 6427W        W71687  42.544  41.435  13.036
 6428W        W71688   1.463  36.320  11.362
 6429W        W71689  43.692  36.866  12.995
 6430W        W71690  33.068   6.136  11.478
 6431W        W71691  21.018  11.304  12.444
 6432W        W71692  15.122  13.644  10.979
 6433W        W71693  25.732  24.172  13.760
 6434W        W71694  20.072  13.829  12.194
 6435W        W71695  27.037   4.632   4.763
 6436W        W71696  44.426  38.722   0.770
 6437W        W71697  32.439  18.942   1.195
 6438W        W71698  22.473  27.819   5.040
 6439W        W71699   1.373  34.467  13.854
 6440W        W71700  36.571  38.815  14.889
 6441W        W71701  41.776   9.807  11.233
 6442W        W71702  15.641  39.880   2.861
 6443W        W71703  20.567   8.437   0.373
 6444W        W71704  10.641  14.548   0.196
 6445W        W71705  10.408  20.740   4.615
 6446W        W71706  21.161  27.918   3.373
 6447W        W71707  38.286  43.298   1.875
 6448W        W71708  36.955  19.651   2.799
 6449W        W71709  40.346  38.493   2.190
 6450W        W71710   0.507  34.686  11.519
 6451W        W71711  20.668   0.524  14.900
 6452W        W71712  21.701  29.000   2.255
 6453W        W71713  29.078   2.701  14.010
 6454W        W71714  37.978  12.845  11.761
 6455W        W71715  17.718  38.563   2.737
 6456W        W71716  30.955  35.098  11.305
 6457W        W71717  34.343   2.390   4.577
 6458W        W71718  16.651  26.435  14.372
 6459W        W71719  30.976  10.117   4.678
 6460W        W71720  42.342  21.803  13.073
 6461W        W71721  26.123   8.284  10.716
 6462W        W71722  21.618  19.286  11.560
 6463W        W71723  36.846  18.552   3.802
 6464W        W71724  10.759  15.514  13.094
 6465W        W71725  19.564  12.454   2.820
 6466W        W71726  17.998  28.358  11.050
 6467W        W71727  33.183  27.606  14.839
 6468W        W71728  35.169  44.572   2.210
 6469W        W71729  32.958  28.443  11.040
 6470W        W71730  24.708   3.083  12.236
 6471W        W71731  34.408  19.995  14.382
 6472W        W71732  17.267  24.926   4.673
 6473W        W71733  29.384  32.039  11.897
 6474W        W71734  43.041  14.949  13.858
 6475W        W71735   3.235  15.617  13.425
 6476W        W71736  42.492  41.981   4.248
 6477W        W71737  43.291  31.470   2.855
 6478W        W71738  33.293  44.287   2.713
 6479W        W71739   4.407  37.468   1.405
 6480W        W71740   5.152  29.027  12.914
 6481W        W71741  32.925  33.152  14.609
 6482W        W71742  10.157  17.158  12.527
 6483W        W71743  19.806  31.988  14.743
 6484W        W71744  27.055  17.117   4.475
 6485W        W71745   0.782  43.169  13.021
 6486W        W71746  34.497  42.299  12.867
 6487W        W71747  17.712  24.544   2.748
 6488W        W71748  36.188  17.940   4.159
 6489W        W71749  44.348  13.244  12.926
 6490W        W71750  26.276  27.333   0.718
 6491W        W71751  18.699   2.332   2.643
 6492W        W71752  27.022   1.682  13.800
 6493W        W71753  17.261  24.152  14.055
 6494W        W71754  34.770  35.929  10.850
 6495W        W71755  30.934   9.238  10.867
 6496W        W71756  25.877   7.355   0.018
 6497W        W71757  26.741  20.435  12.358
 6498W        W71758  40.847  27.026  13.488
 6499W        W71759  40.006  35.794  11.923
 6500W        W71760   3.772  27.629   3.209
 6501W        W71761  15.572   6.661  13.530
 6502W        W71762  26.029  14.790  13.889
 6503W        W71763   3.208   1.749   4.287
 6504W        W71764  21.344  26.983   4.291
 6505W        W71765  44.110  10.159  12.485
 6506W        W71766  19.305  16.288  12.932
 6507W        W71767  16.121   7.629   2.187
 6508W        W71768   9.015  30.033   3.615
 6509W        W71769  13.950  17.002   3.608
 6510W        W71770  28.190  27.986  14.923
 6511W        W71771  40.394   7.450   3.693
 6512W        W71772   5.758  39.271   3.594
 6513W        W71773  23.989  10.639  11.482
 6514W        W71774   7.627   5.703  14.723
 6515W        W71775  25.974  22.820   2.782
 6516W        W71776  12.274  17.049  11.453
 6517W        W71777   1.554  27.650  13.875
 6518W        W71778  28.260  17.397  12.642
 6519W        W71779   6.135  16.144  11.175
 6520W        W71780  16.538  28.625  14.884
 6521W        W71781  15.346  37.996  14.144
 6522W        W71782  10.566  30.858   1.458
 6523W        W71783  25.970  39.751   2.069
 6524W        W71784   9.449  34.446   3.345
 6525W        W71785  10.742  26.808   1.723
 6526W        W71786  26.652  35.140  11.093
 6527W        W71787  32.128  27.032   1.399
 6528W        W71788   1.958  41.265  12.020
 6529W        W71789  28.148  13.733   3.855
 6530W        W71790   2.925  39.098  14.381
 6531W        W71791  40.436  14.597   4.151
 6532W        W71792  15.341  33.092  11.209
 6533W        W71793  35.022  23.546   1.637
 6534W        W71794   4.479  42.670  11.565
 6535W        W71795  22.627  10.649  13.774
 6536W        W71796  28.118  26.768   0.731
 6537W        W71797   6.946   8.709   3.627
 6538W        W71798  16.844   8.897   0.960
 6539W        W71799  40.457  20.815   1.918
 6540W        W71800   2.429  29.500   1.701
 6541W        W71801   5.288   4.897  10.680
 6542W        W71802   5.155  37.831   3.393
 6543W        W71803  44.985  20.740   1.293
 6544W        W71804   5.969  21.932  13.481
 6545W        W71805  13.970  10.330   0.337
 6546W        W71806  37.967  36.591   2.318
 6547W        W71807  13.241  24.263  13.527
 6548W        W71808   5.211   3.463  10.665
 6549W        W71809   5.434   7.862  11.965
 6550W        W71810  15.824   8.303   1.958
 6551W        W71811  26.911   5.647   4.535
 6552W        W71812  28.129   3.575   1.349
 6553W        W71813  44.488  22.254  11.552
 6554W        W71814  41.416  37.744  13.730
 6555W        W71815  34.994  27.035   2.555
 6556W        W71816  24.545  12.230   0.688
 6557W        W71817  24.118  15.242   0.356
 6558W        W71818   1.928  30.334  14.861
 6559W        W71819  37.375  13.301   3.751
 6560W        W71820  41.922   7.488  12.667
 6561W        W71821  16.613  22.516   0.041
 6562W        W71822  17.377  23.269   0.990
 6563W        W71823  26.664  38.113  10.685
 6564W        W71824  39.958  30.903  10.933
 6565W        W71825  39.722  30.990   4.482
 6566W        W71826  29.967  43.503  14.012
 6567W        W71827  10.229  37.344   9.787
 6568W        W71828  17.727  34.190  12.428
 6569W        W71829  40.541  26.164   0.442
 6570W        W71830   6.034  42.610  11.617
 6571W        W71831   2.271  37.341   4.678
 6572W        W71832  41.333  34.509   0.389
 6573W        W71833  44.320  24.167   1.852
 6574W        W71834  26.575  22.636  13.653
 6575W        W71835  19.912  19.553   4.162
 6576W        W71836   6.498  14.548   3.791
 6577W        W71837  38.793  11.027  11.158
 6578W        W71838  30.985  14.091  13.512
 6579W        W71839   3.186  17.526  11.094
 6580W        W71840  18.712  17.120   3.650
 6581W        W71841   9.609  25.827   0.305
 6582W        W71842   1.702  29.229  11.844
 6583W        W71843  39.110  40.084   4.654
 6584W        W71844   2.029  37.577   2.810
 6585W        W71845  25.105  11.558   2.208
 6586W        W71846   8.559  24.620   5.388
 6587W        W71847  29.393  25.574  10.562
 6588W        W71848  37.426   6.787  10.719
 6589W        W71849  24.619  21.794   2.802
 6590W        W71850  18.021  26.061   1.893
 6591W        W71851  16.271  41.818  10.904
 6592W        W71852  19.331   7.264   4.186
 6593W        W71853  12.705   3.414  10.731
 6594W        W71854  44.459  43.324  14.760
 6595W        W71855  15.804  29.392  11.171
 6596W        W71856  18.681   9.832   1.878
 6597W        W71857  10.741  44.478  11.613
 6598W        W71858  18.189  26.935  12.943
 6599W        W71859   3.238   5.946   4.893
 6600W        W71860  26.199  21.877  10.183
 6601W        W71861   3.968  29.946  13.565
 6602W        W71862  44.468  23.064  12.555
 6603W        W71863  22.653  12.911  14.351
 6604W        W71864  41.590  42.016  12.315
 6605W        W71865  30.825  44.278   4.940
 6606W        W71866  36.461  31.586   0.471
 6607W        W71867   3.423  24.545  12.851
 6608W        W71868  23.627  26.122  11.622
 6609W        W71869  27.605  13.288  10.761
 6610W        W71870  21.746  30.916  13.797
 6611W        W71871   2.786  22.096   0.370
 6612W        W71872  26.472  27.089  11.571
 6613W        W71873   3.013  11.382  10.939
 6614W        W71874  15.565   6.504  14.064
 6615W        W71875   5.267  36.932   0.213
 6616W        W71876   8.802  36.027  12.508
 6617W        W71877  15.676  36.424  11.142
 6618W        W71878   2.285  14.304   4.509
 6619W        W71879  13.405  14.005   0.405
 6620W        W71880  33.102   3.243   3.318
 6621W        W71881  17.098  41.845  11.288
 6622W        W71882  27.871  37.127   4.174
 6623W        W71883  20.723  43.424  14.869
 6624W        W71884  41.370   4.015   5.133
 6625W        W71885   6.411  30.137  14.965
 6626W        W71886   7.907  37.482  11.971
 6627W        W71887   3.393  32.992   3.083
 6628W        W71888  29.370  22.144   2.288
 6629W        W71889   0.637  34.436  10.683
 6630W        W71890  16.765   4.701   4.886
 6631W        W71891  14.297   9.779  14.712
 6632W        W71892  12.585  16.583   3.709
 6633W        W71893  14.926  10.844   4.961
 6634W        W71894   9.593  16.605  10.739
 6635W        W71895   2.504  42.033   2.290
 6636W        W71896  41.821  19.228   4.257
 6637W        W71897  32.451   9.864   4.060
 6638W        W71898  14.162  33.350  14.253
 6639W        W71899   3.450  39.081   9.948
 6640W        W71900   5.988  22.254   1.837
 6641W        W71901  20.513  23.363   5.039
 6642W        W71902  30.229  14.770   4.155
 6643W        W71903  23.979  25.525   3.049
 6644W        W71904  24.164   6.792  12.026
 6645W        W71905  18.802  27.868  11.165
 6646W        W71906  32.097  19.904  14.623
 6647W        W71907  29.016  34.001  12.450
 6648W        W71908   6.433  26.258  14.242
 6649W        W71909  21.233   5.690   3.369
 6650W        W71910  24.970  25.108   4.053
 6651W        W71911  14.758   0.706   4.262
 6652W        W71912  16.641   2.003   0.810
 6653W        W71913  12.804  39.352  12.419
 6654W        W71914  13.376  36.417   0.835
 6655W        W71915   8.441   5.722  11.614
 6656W        W71916  32.431  21.091  10.667
 6657W        W71917  44.794  13.736  14.387
 6658W        W71918   3.380  18.589   0.303
 6659W        W71919  33.438  38.500   3.162
 6660W        W71920   2.412  39.073  10.553
 6661W        W71921  24.022   7.675  14.228
 6662W        W71922   7.490  25.388   4.521
 6663W        W71923  17.282  28.635  10.709
 6664W        W71924  26.015  32.613  11.940
 6665W        W71925  23.639  24.761   1.460
 6666W        W71926  43.916  37.989  12.111
 6667W        W71927  33.958  37.692  11.723
 6668W        W71928  15.518  11.840   1.200
 6669W        W71929   2.515   5.837   1.934
 6670W        W71930   0.003  42.185  11.651
 6671W        W71931  40.568   5.826  11.975
 6672W        W71932  43.996   5.449   1.976
 6673W        W71933  16.889  37.684   4.206
 6674W        W71934   4.138  44.258  14.493
 6675W        W71935  35.371  18.016  11.648
 6676W        W71936  12.363  33.831   2.640
 6677W        W71937   9.203   2.960  14.335
 6678W        W71938   5.122   0.587  11.945
 6679W        W71939  42.833  38.495   2.577
 6680W        W71940  41.844  24.026  14.131
 6681W        W71941  26.041  19.865   5.185
 6682W        W71942  24.043  25.039   3.926
 6683W        W71943   9.867  32.901  13.981
 6684W        W71944  19.745  12.145  13.838
 6685W        W71945  44.485  12.185  10.741
 6686W        W71946  35.879  13.717  11.166
 6687W        W71947   0.999  23.219   3.420
 6688W        W71948  24.936   5.162  11.773
 6689W        W71949  20.882  43.413  11.931
 6690W        W71950  15.209  16.703  13.118
 6691W        W71951  15.566   0.569   3.267
 6692W        W71952   1.470  35.438   1.014
 6693W        W71953  33.138  19.659  13.288
 6694W        W71954   2.705  18.635  14.520
 6695W        W71955  28.159  27.904  11.028
 6696W        W71956  41.269  35.113  14.266
 6697W        W71957  39.285   4.469   4.983
 6698W        W71958   0.881  42.349  13.470
 6699W        W71959   1.313   5.923  10.563
 6700W        W71960   2.195  11.898  11.786
 6701W        W71961  41.050   0.617  11.286
 6702W        W71962  16.618  24.585   0.308
 6703W        W71963  30.636  31.376   0.508
 6704W        W71964  43.318  25.593   3.774
 6705W        W71965  25.472  39.139   3.371
 6706W        W71966  31.577   0.077  13.331
 6707W        W71967   7.203  26.115   4.097
 6708W        W71968   5.667   6.728   0.345
 6709W        W71969  36.408  11.507  12.506
 6710W        W71970   5.741   9.490  13.590
 6711W        W71971  39.452   9.877   1.152
 6712W        W71972  40.069  15.784   0.680
 6713W        W71973   7.387  16.924   2.840
 6714W        W71974  32.931  32.728  13.455
 6715W        W71975  34.989  35.166  14.939
 6716W        W71976  24.326  16.681  12.090
 6717W        W71977  14.178  35.418   0.334
 6718W        W71978  28.101  12.426   1.074
 6719W        W71979  17.754  44.957   2.758
 6720W        W71980   8.168  19.534   3.078
 6721W        W71981   5.990  11.468   1.870
 6722W        W71982  15.687   1.086   3.123
 6723W        W71983  28.527  39.320   4.111
 6724W        W71984   3.089  31.345  11.637
 6725W        W71985  42.206  28.611   0.999
 6726W        W71986  37.102   4.273   2.819
 6727W        W71987  29.103   1.911   2.380
 6728W        W71988  35.924  27.129  13.492
 6729W        W71989  16.630   8.277  13.589
 6730W        W71990  43.863  24.052   3.222
 6731W        W71991   2.957   6.750   0.306
 6732W        W71992  42.380  25.607  12.416
 6733W        W71993  26.074   4.177  13.920
 6734W        W71994  17.465   5.260   1.480
 6735W        W71995   5.741  44.243   3.318
 6736W        W71996  14.218  12.068  12.384
 6737W        W71997   5.668   2.334   4.546
 6738W        W71998  22.300  21.812  12.007
 6739W        W71999   8.388  11.640   4.902
 6740W        W72000   1.467  24.631  13.541
 6741W        W72001   5.136  16.803  10.875
 6742W        W72002   4.741  33.497  11.705
 6743W        W72003  32.892  26.463  14.357
 6744W        W72004  25.440   6.766  12.229
 6745W        W72005   3.996  31.598  11.604
 6746W        W72006   3.181  28.842  13.469
 6747W        W72007  19.052  41.809   2.866
 6748W        W72008  11.153  25.352   1.007
 6749W        W72009  18.767  31.963   4.150
 6750W        W72010   3.252  10.889  12.304
 6751W        W72011  40.491  37.375  13.389
 6752W        W72012   6.270   2.718   1.809
 6753W        W72013  22.928  10.726  10.501
 6754W        W72014  35.316  41.387   2.825
 6755W        W72015  27.934  34.352   0.850
 6756W        W72016  22.309  33.660  13.421
 6757W        W72017  10.200  16.681  14.444
 6758W        W72018  14.763   3.952   1.754
 6759W        W72019  32.397  41.959   3.668
 6760W        W72020  32.428  29.618   0.757
 6761W        W72021  30.063  13.815   2.126
 6762W        W72022  44.929   2.316  12.317
 6763W        W72023  16.564  17.222   1.026
 6764W        W72024   9.440  10.803   3.048
 6765W        W72025  33.845  30.138   0.911
 6766W        W72026  43.907  38.808  10.579
 6767W        W72027  23.570  36.302   3.821
 6768W        W72028  18.347  21.599   4.972
 6769W        W72029   3.816  17.861  12.499
 6770W        W72030  20.382  13.978   0.281
 6771W        W72031  12.343  42.290  11.205
 6772W        W72032  18.963  42.774  14.936
 6773W        W72033  29.681   8.269   0.897
 6774W        W72034  12.892  14.709   3.410
 6775W        W72035  30.610   3.484  14.307
 6776W        W72036  10.157  15.840   4.529
 6777W        W72037   8.485  20.789  12.716
 6778W        W72038  31.472  36.896   3.751
 6779W        W72039  13.520  29.635  14.300
 6780W        W72040  39.811  18.196   0.204
 6781W        W72041   3.697  12.055   4.948
 6782W        W72042  29.171  27.230  12.110
 6783W        W72043  31.993   6.731  14.312
 6784W        W72044   0.278  35.320   2.014
 6785W        W72045  30.409  17.733   3.276
 6786W        W72046  18.280  21.112   1.174
 6787W        W72047  44.703  43.749  14.415
 6788W        W72048  31.607  44.055   1.968
 6789W        W72049  29.890  26.122   1.693
 6790W        W72050  11.015  34.449   4.869
 6791W        W72051  30.601   1.757  11.078
 6792W        W72052   6.374   6.701  13.893
 6793W        W72053  33.423   3.323   4.995
 6794W        W72054   0.612  16.528   4.554
 6795W        W72055  41.514  30.495   1.621
 6796W        W72056   7.655  37.398  11.079
 6797W        W72057   6.389  31.970  12.923
 6798W        W72058  44.497   7.766  13.319
 6799W        W72059  26.455   8.700   5.072
 6800W        W72060   4.483  37.900   2.393
 6801W        W72061  16.813  18.227   4.085
 6802W        W72062   5.509  10.341   1.769
 6803W        W72063  24.271   6.223   0.062
 6804W        W72064  25.610  18.575   0.408
 6805W        W72065  21.554  38.673  11.064
 6806W        W72066  18.669  37.860  12.647
 6807W        W72067  27.765  13.291  12.427
 6808W        W72068  10.662  35.600  12.449
 6809W        W72069  13.930  22.508   4.536
 6810W        W72070  40.204  44.544  14.393
 6811W        W72071  38.291  22.128  13.066
 6812W        W72072  35.471  28.921   0.690
 6813W        W72073  39.075  42.338   3.329
 6814W        W72074  40.931  22.694   0.970
 6815W        W72075   1.899  24.586  13.269
 6816W        W72076  42.203  35.934  13.946
 6817W        W72077  38.905  42.436   1.890
 6818W        W72078  35.977   1.187   1.736
 6819W        W72079  42.303  13.701   1.739
 6820W        W72080  22.206  18.323   4.590
 6821W        W72081   2.909   9.814  11.671
 6822W        W72082   5.666   6.028   3.303
 6823W        W72083  16.810   3.668  11.077
 6824W        W72084  18.550  37.431   3.233
 6825W        W72085   4.775  11.349  12.619
 6826W        W72086   1.475  14.349   4.221
 6827W        W72087  20.054  21.790   4.500
 6828W        W72088  32.157   1.493   3.182
 6829W        W72089   6.634  35.862   3.704
 6830W        W72090  18.184  21.069   2.125
 6831W        W72091  26.104  35.620  14.460
 6832W        W72092  42.361   5.347   4.642
 6833W        W72093  19.322   3.282   2.771
 6834W        W72094  12.833  24.513  12.607
 6835W        W72095  31.219  18.955   0.500
 6836W        W72096  36.597  10.244  12.834
 6837W        W72097  19.068  19.313   3.212
 6838W        W72098  39.142  43.440  13.496
 6839W        W72099  34.502  38.177   4.870
 6840W        W72100  45.000  13.847   3.104
 6841W        W72101  35.642  24.101  14.422
 6842W        W72102  12.300  11.509  11.589
 6843W        W72103   7.875   0.133  14.778
 6844W        W72104  35.205   0.285   4.463
 6845W        W72105  27.070  23.824   3.084
 6846W        W72106  21.244  13.037   4.767
 6847W        W72107   5.305  34.460  14.053
 6848W        W72108  44.342  13.227   3.043
 6849W        W72109  40.613  31.490  13.076
 6850W        W72110  24.647  13.152   1.774
 6851W        W72111   7.743   9.049   0.769
 6852W        W72112  34.416   7.040   3.545
 6853W        W72113  26.169  14.855   1.608
 6854W        W72114   6.409   7.765   2.200
 6855W        W72115  23.966  18.839  12.546
 6856W        W72116  19.119  38.985   5.050
 6857W        W72117  42.044   6.841  11.482
 6858W        W72118  40.398   8.211   4.652
 6859W        W72119  40.515  21.268  11.287
 6860W        W72120  26.708  27.348   1.901
 6861W        W72121  21.818  16.218   4.649
 6862W        W72122   2.262  21.128   1.388
 6863W        W72123   0.908  14.717  13.080
 6864W        W72124  27.171  32.190  11.581
 6865W        W72125  16.058   0.835   1.881
 6866W        W72126  39.761  44.329  14.752
 6867W        W72127   9.284  28.734   1.138
 6868W        W72128  33.858  36.370   5.029
 6869W        W72129  32.897  14.332   3.581
 6870W        W72130   8.886  36.807  10.747
 6871W        W72131  38.955  30.964   4.105
 6872W        W72132  30.454  31.178   2.439
 6873W        W72133  18.300  18.621  10.401
 6874W        W72134  18.556  13.849   0.364
 6875W        W72135  39.530  37.777  14.959
 6876W        W72136   5.667  17.304   3.167
 6877W        W72137  29.960  43.581   4.568
 6878W        W72138   4.643  18.070  10.693
 6879W        W72139  22.324  39.888  10.548
 6880W        W72140   0.954  15.906   1.259
 6881W        W72141  28.653  14.351  14.482
 6882W        W72142  24.488  16.109   1.372
 6883W        W72143  43.295  44.394   4.486
 6884W        W72144  10.878  14.109  11.736
 6885W        W72145   2.726  20.116  14.512
 6886W        W72146  20.972  22.640   0.839
 6887W        W72147  40.265  15.664  14.351
 6888W        W72148   8.853   7.583  11.941
 6889W        W72149  16.811  15.049   3.242
 6890W        W72150  43.328  28.018  14.864
 6891W        W72151  39.806   3.249   0.987
 6892W        W72152  30.150  18.167   2.562
 6893W        W72153  37.661  26.621   1.791
 6894W        W72154  18.098  18.116  10.254
 6895W        W72155  40.274  13.276  12.894
 6896W        W72156  27.701  35.492  12.843
 6897W        W72157   5.843  20.568   0.895
 6898W        W72158  15.004   3.717  10.676
 6899W        W72159  18.368  40.720   3.858
 6900W        W72160  27.477  28.936   4.523
 6901W        W72161  42.612  38.514  14.858
 6902W        W72162  30.062  19.267   0.828
 6903W        W72163   4.125  40.054   1.741
 6904W        W72164  31.056  43.190   3.075
 6905W        W72165  12.130   2.625  13.303
 6906W        W72166   5.922   1.351  12.531
 6907W        W72167  27.984  18.654  14.381
 6908W        W72168  31.712   3.422  12.162
 6909W        W72169  25.164  17.418   9.754
 6910W        W72170  37.864  36.133  14.761
 6911W        W72171  35.374  23.342  10.781
 6912W        W72172   9.856  32.134  12.124
 6913W        W72173  22.702  40.439  14.348
 6914W        W72174  21.201  27.961  14.307
 6915W        W72175   0.705   2.651  10.646
 6916W        W72176  25.417   2.938   2.376
 6917W        W72177  44.202   7.291   2.339
 6918W        W72178  12.665  44.791  10.629
 6919W        W72179  38.289  38.561  12.841
 6920W        W72180  20.334  33.862  11.489
 6921W        W72181  32.113  35.791  13.050
 6922W        W72182   5.828  37.887  10.653
 6923W        W72183  40.611   1.385  13.094
 6924W        W72184  19.965  14.734   0.479
 6925W        W72185   3.955  33.859   3.804
 6926W        W72186  10.618   8.871   0.800
 6927W        W72187   7.105  26.174  12.429
 6928W        W72188  22.463  14.657  13.133
 6929W        W72189  40.863  14.571  12.121
 6930W        W72190  21.802  30.598  12.933
 6931W        W72191  20.684  28.435  14.815
 6932W        W72192   9.114  11.002  14.774
 6933W        W72193  22.630  37.642   1.949
 6934W        W72194  21.936  43.263   1.407
 6935W        W72195  28.355   2.695   4.188
 6936W        W72196  10.461   2.515   4.154
 6937W        W72197  33.809  13.656   3.504
 6938W        W72198   9.863  28.635  11.577
 6939W        W72199  20.186   5.655  14.500
 6940W        W72200  42.839  20.609   4.874
 6941W        W72201  30.259  39.144   0.340
 6942W        W72202  33.617  37.471   1.206
 6943W        W72203  16.482  21.237  12.621
 6944W        W72204  23.598  35.886   1.334
 6945W        W72205   3.908  43.299  14.392
 6946W        W72206  34.361  22.049  13.842
 6947W        W72207  23.887  25.215  12.392
 6948W        W72208  22.605   9.414  12.968
 6949W        W72209   9.704  30.899  12.437
 6950W        W72210  11.848  34.564   4.603
 6951W        W72211   6.871   3.434  13.751
 6952W        W72212  42.107  33.116   4.708
 6953W        W72213   0.978  15.267   4.036
 6954W        W72214  27.874  35.994   4.734
 6955W        W72215  41.272  37.477   1.326
 6956W        W72216   3.271  42.799  13.998
 6957W        W72217   0.903   8.920   1.351
 6958W        W72218   6.576  33.238   2.292
 6959W        W72219  37.103   0.932  13.942
 6960W        W72220  35.102   3.177  12.648
 6961W        W72221  11.599  31.400   2.248
 6962W        W72222  14.814  28.520   4.086
 6963W        W72223   2.671  29.096   4.963
 6964W        W72224  24.751  42.552  14.404
 6965W        W72225  41.233   6.205   0.893
 6966W        W72226  30.986  41.035   4.660
 6967W        W72227  30.319  26.806  10.732
 6968W        W72228  44.373  29.738   4.550
 6969W        W72229  27.047  35.821  11.055
 6970W        W72230  41.084  34.358   4.894
 6971W        W72231  17.755   4.983   4.116
 6972W        W72232  11.239  16.577   4.072
 6973W        W72233  26.471   1.023  13.399
 6974W        W72234  19.715  11.344  10.158
 6975W        W72235   9.707  30.812  13.930
 6976W        W72236  12.157  15.178  10.688
 6977W        W72237  31.587  10.619  14.693
 6978W        W72238  18.966  43.392   1.356
 6979W        W72239  34.484  43.313  13.845
 6980W        W72240   1.667  28.979  11.391
 6981W        W72241  18.579  18.048   1.296
 6982W        W72242   1.238  29.437   1.319
 6983W        W72243  20.781  11.264  12.901
 6984W        W72244  19.035   8.289   4.272
 6985W        W72245  18.575   0.435   3.866
 6986W        W72246  18.463  40.575   5.221
 6987W        W72247  23.197  25.095   2.784
 6988W        W72248  33.439  24.633  12.455
 6989W        W72249  42.559  41.484  11.566
 6990W        W72250  31.641  18.983   0.789
 6991W        W72251  31.943  40.850  14.741
 6992W        W72252  14.823  31.572   1.175
 6993W        W72253  11.157  31.169  11.520
 6994W        W72254  10.496   3.225   4.121
 6995W        W72255   1.088  40.524   5.454
 6996W        W72256  37.216  41.799   4.102
 6997W        W72257  32.629   1.044  12.497
 6998W        W72258  37.371   5.760   4.588
 6999W        W72259  22.159  20.063   4.253
 7000W        W72260   7.102  20.474   2.733
 7001W        W72261   2.310   0.007  13.044
 7002W        W72262  17.698  26.057   3.668
 7003W        W72263  26.600  18.332  13.842
 7004W        W72264   2.351   9.158   3.593
 7005W        W72265  21.560  31.429   0.497
 7006W        W72266  25.320  17.204  13.510
 7007W        W72267  28.276  40.447   3.627
 7008W        W72268  10.623  27.540   2.704
 7009W        W72269   1.430  12.228   1.735
 7010W        W72270  31.712  37.843   3.667
 7011W        W72271  12.177  31.532  12.016
 7012W        W72272  32.025  31.311   2.534
 7013W        W72273  40.537  32.978  14.336
 7014W        W72274  39.444  39.601   0.332
 7015W        W72275  39.051  31.390  14.249
 7016W        W72276  36.873  19.650  13.134
 7017W        W72277  37.033   0.801   3.559
 7018W        W72278  15.314  40.319   2.849
 7019W        W72279  26.436  22.139  11.920
 7020W        W72280  16.558   0.051  12.560
 7021W        W72281  31.395  36.293   4.892
 7022W        W72282   8.080  26.964   2.128
 7023W        W72283   6.404  41.368   5.007
 7024W        W72284  22.510  39.923  14.377
 7025W        W72285  22.615   6.536   3.587
 7026W        W72286  25.703  42.826   4.438
 7027W        W72287  36.141  35.200  11.170
 7028W        W72288  18.499   5.893   3.697
 7029W        W72289  10.705   5.209  13.777
 7030W        W72290   5.853  19.512   0.469
 7031W        W72291  42.751  35.600   3.733
 7032W        W72292  44.828   9.198   2.873
 7033W        W72293  38.568  27.159  12.026
 7034W        W72294  11.564  27.771  12.417
 7035W        W72295   7.017  35.526  11.298
 7036W        W72296  27.297  20.562  13.613
 7037W        W72297  24.917   8.311  12.114
 7038W        W72298  21.503  41.531  13.934
 7039W        W72299  13.698  39.825  14.871
 7040W        W72300  13.378  23.220   0.027
 7041W        W72301  25.190  31.431  12.917
 7042W        W72302  42.866  27.825  10.148
 7043W        W72303  39.846  33.384   2.906
 7044W        W72304  37.839  19.055   0.080
 7045W        W72305  19.307  18.119  12.111
 7046W        W72306  20.215   0.801  13.345
 7047W        W72307  37.923  10.910  14.393
 7048W        W72308  16.326   7.282   4.026
 7049W        W72309  14.278   7.343   1.810
 7050W        W72310   5.835  34.100  12.056
 7051W        W72311  24.396  19.970  14.395
 7052W        W72312  23.586  36.099  14.937
 7053W        W72313  32.753  23.964   3.479
 7054W        W72314  36.953  36.553  14.898
 7055W        W72315  17.973  37.482   3.415
 7056W        W72316  20.293  23.707  14.836
 7057W        W72317  36.110  15.463  11.876
 7058W        W72318  41.053  14.005  12.965
 7059W        W72319  28.541   0.821  10.943
 7060W        W72320  33.365  12.892  12.143
 7061W        W72321  16.365  15.574   3.892
 7062W        W72322  20.020  24.869   0.872
 7063W        W72323   4.412   4.286   0.433
 7064W        W72324   6.949  37.508   0.692
 7065W        W72325   3.881  30.640  10.718
 7066W        W72326  24.066  28.028   2.614
 7067W        W72327  40.483  10.874   0.950
 7068W        W72328  40.765  36.595  11.625
 7069W        W72329  27.044  38.471  11.896
 7070W        W72330   8.951  34.450  14.498
 7071W        W72331   3.244  31.415   3.949
 7072W        W72332  32.670   7.462   4.591
 7073W        W72333  17.862  33.286   2.242
 7074W        W72334   8.182  21.207  11.948
 7075W        W72335   6.208   4.053  12.905
 7076W        W72336  26.917  33.074   0.418
 7077W        W72337  29.430  15.236   3.115
 7078W        W72338  19.956   2.752  14.780
 7079W        W72339   1.497  15.325   4.520
 7080W        W72340  16.798  31.097  11.980
 7081W        W72341  35.487  29.549   3.803
 7082W        W72342   3.834  38.590   0.907
 7083W        W72343   9.122  22.104  11.238
 7084W        W72344  27.578   4.714  12.560
 7085W        W72345  37.786   8.187   4.680
 7086W        W72346   4.282  43.696   0.064
 7087W        W72347  25.172  33.436  13.793
 7088W        W72348  22.681  22.395   3.818
 7089W        W72349  12.848  30.283   4.056
 7090W        W72350  18.822  11.944   1.724
 7091W        W72351  17.704  27.304   1.097
 7092W        W72352   9.566   9.262   2.145
 7093W        W72353  33.557  25.107  12.628
 7094W        W72354  40.950   8.814  14.399
 7095W        W72355  23.903  39.375  13.733
 7096W        W72356  36.150  32.416  10.705
 7097W        W72357  35.798  34.958   3.079
 7098W        W72358   7.614  37.159  13.027
 7099W        W72359   9.412  35.339   3.345
 7100W        W72360  33.537   0.111   2.986
 7101W        W72361  28.490  41.042  12.008
 7102W        W72362  12.120  14.235  14.699
 7103W        W72363  41.951  24.025   2.155
 7104W        W72364   7.096  32.538  12.480
 7105W        W72365  19.271   1.255   1.485
 7106W        W72366   6.827   7.905   4.101
 7107W        W72367  14.742   3.257  11.564
 7108W        W72368  38.769   6.963   4.181
 7109W        W72369  43.447  13.714  11.549
 7110W        W72370  23.583  31.261  11.684
 7111W        W72371  28.911  18.808   4.227
 7112W        W72372  32.073  44.398  13.580
 7113W        W72373  28.634   0.725   1.976
 7114W        W72374  20.241  34.426   0.271
 7115W        W72375  31.163  41.902  11.965
 7116W        W72376  25.116   4.414  12.107
 7117W        W72377  26.011   7.319  12.218
 7118W        W72378  12.251  11.227  10.714
 7119W        W72379  16.052  41.383  11.422
 7120W        W72380  34.553   6.737  11.643
 7121W        W72381  17.895  44.491   0.806
 7122W        W72382  21.770   6.623  14.903
 7123W        W72383  43.414  43.512  13.926
 7124W        W72384  18.392  36.368   1.178
 7125W        W72385  20.724  40.844   2.174
 7126W        W72386  12.132  31.113   1.488
 7127W        W72387  42.856  15.436   1.958
 7128W        W72388   9.236  37.149  10.546
 7129W        W72389  29.059   3.285  12.047
 7130W        W72390   3.488  10.232  11.139
 7131W        W72391  12.028  10.408  12.426
 7132W        W72392   5.659  27.032   3.582
 7133W        W72393  44.925   2.009   0.003
 7134W        W72394   6.935  18.347  11.004
 7135W        W72395  39.861  26.782   0.412
 7136W        W72396  35.069  38.017   4.064
 7137W        W72397  26.592   4.066  10.460
 7138W        W72398  24.464   8.930  11.506
 7139W        W72399   0.072   9.813  14.298
 7140W        W72400  24.030  41.956   1.811
 7141W        W72401  33.437   9.382  14.774
 7142W        W72402  19.189  42.773   2.448
 7143W        W72403   9.934   2.786  11.991
 7144W        W72404  38.954  25.202   1.941
 7145W        W72405   5.728   8.483  13.793
 7146W        W72406  14.572  19.997   0.482
 7147W        W72407  28.405  42.472  13.539
 7148W        W72408   4.707  36.413  13.063
 7149W        W72409  19.977  13.307   2.859
 7150W        W72410  38.308  38.842   0.834
 7151W        W72411  19.598  20.745  10.318
 7152W        W72412  12.765  25.752  10.758
 7153W        W72413  19.592  11.115  14.471
 7154W        W72414  26.254  15.643  14.886
 7155W        W72415  14.276  30.691  14.000
 7156W        W72416  31.365  23.004   2.744
 7157W        W72417   7.419   3.261   1.347
 7158W        W72418  16.677  39.218   1.304
 7159W        W72419  13.398  40.242  11.322
 7160W        W72420  23.364  13.702  12.145
 7161W        W72421  41.490  10.582   0.775
 7162W        W72422  23.840  29.961  12.531
 7163W        W72423   7.775   0.816  13.261
 7164W        W72424  18.065   6.842  14.295
 7165W        W72425  28.153   3.911  14.472
 7166W        W72426   5.915   6.610   4.294
 7167W        W72427   1.814  10.674   2.860
 7168W        W72428   0.859  20.048   3.828
 7169W        W72429  31.162   4.044   1.325
 7170W        W72430  21.733   4.426  13.507
 7171W        W72431  44.881  41.316   4.420
 7172W        W72432  37.601  28.777   4.044
 7173W        W72433  35.285  23.929  12.619
 7174W        W72434   0.570   4.702  13.630
 7175W        W72435  12.237   8.880   3.577
 7176W        W72436  38.069  21.495   0.335
 7177W        W72437  39.035  31.906  12.452
 7178W        W72438  16.631  18.808  12.259
 7179W        W72439  22.990  19.209  12.507
 7180W        W72440  32.975   8.266  13.041
 7181W        W72441  34.804   7.753  14.989
 7182W        W72442  25.272  10.817   3.145
 7183W        W72443   5.471  23.413   0.685
 7184W        W72444  16.004   3.766   0.842
 7185W        W72445  33.038  43.006   3.894
 7186W        W72446   0.327   1.505  10.957
 7187W        W72447   7.701  41.893   1.276
 7188W        W72448  10.845  27.597   0.573
 7189W        W72449  41.589   3.060   0.348
 7190W        W72450  42.638  29.544   0.011
 7191W        W72451  35.265  19.755   2.723
 7192W        W72452  15.822  35.363   2.410
 7193W        W72453  28.802  34.419   2.834
 7194W        W72454  18.333   1.493  12.594
 7195W        W72455  10.381  10.359   4.081
 7196W        W72456  36.571  40.121  12.170
 7197W        W72457  10.622  31.011   5.566
 7198W        W72458   4.840  19.287  14.416
 7199W        W72459   6.666  25.647  11.646
 7200W        W72460  19.278   1.457   3.228
 7201W        W72461  44.964  34.912   3.988
 7202W        W72462  13.177   4.277   4.026
 7203W        W72463  26.930  25.676   4.145
 7204W        W72464   5.456   9.792   2.130
 7205W        W72465   5.845  26.167   1.799
 7206W        W72466   9.137  14.041  14.933
 7207W        W72467   6.206  32.354   3.459
 7208W        W72468  44.478  11.963   1.279
 7209W        W72469  16.967  26.182  11.208
 7210W        W72470  32.377  39.623   1.724
 7211W        W72471  25.978  24.461   0.922
 7212W        W72472  15.053  36.870   3.406
 7213W        W72473   2.529  22.793  10.545
 7214W        W72474  14.022  23.560  14.268
 7215W        W72475  23.235  20.181  13.359
 7216W        W72476  24.905  27.221  13.398
 7217W        W72477  20.066   9.732  14.978
 7218W        W72478   4.765  39.407   2.631
 7219W        W72479  20.208  31.126   3.610
 7220W        W72480  10.558  44.224  13.036
 7221W        W72481   3.751   4.246  13.823
 7222W        W72482  31.029   1.822  10.717
 7223W        W72483  44.878   1.814  14.345
 7224W        W72484  29.658  26.499  12.197
 7225W        W72485   2.408  41.333   4.562
 7226W        W72486   7.806  41.408   2.165
 7227W        W72487  35.585   7.639   4.091
 7228W        W72488  15.190   0.335   4.576
 7229W        W72489  22.198   6.520  11.403
 7230W        W72490  37.879  22.049   2.870
 7231W        W72491   8.437   5.734  10.127
 7232W        W72492   2.764   5.357   1.841
 7233W        W72493   2.610  37.159  12.068
 7234W        W72494  26.619  36.902   1.968
 7235W        W72495  13.661  33.046  10.755
 7236W        W72496  33.771   5.677   9.925
 7237W        W72497   3.321  27.095   3.784
 7238W        W72498  41.532  22.702   4.028
 7239W        W72499   7.161  27.950   1.877
 7240W        W72500  30.933  33.021   4.657
 7241W        W72501  41.521  11.442   9.886
 7242W        W72502  32.913  10.399  13.681
 7243W        W72503  27.384  26.947  14.534
 7244W        W72504  13.475  23.048   4.141
 7245W        W72505   0.336  21.107   1.218
 7246W        W72506  23.130   5.891   0.317
 7247W        W72507  31.921  23.018   2.767
 7248W        W72508  42.019  16.802   0.515
 7249W        W72509  28.092  15.809   0.778
 7250W        W72510  22.685  22.992  12.625
 7251W        W72511   8.664  23.936   4.977
 7252W        W72512   5.848   4.241  10.683
 7253W        W72513   7.720  14.311  12.971
 7254W        W72514  12.115   3.409  11.110
 7255W        W72515  29.678  35.845  13.163
 7256W        W72516  25.520   4.016   3.270
 7257W        W72517  17.077   1.031  11.082
 7258W        W72518   1.194  23.533  11.999
 7259W        W72519   1.952  20.592   2.699
 7260W        W72520  20.691   3.432  13.509
 7261W        W72521  44.803  41.990   0.012
 7262W        W72522  20.831  32.610   2.027
 7263W        W72523  37.121  21.506   0.337
 7264W        W72524   3.427  34.826  12.186
 7265W        W72525  19.049  42.996   0.385
 7266W        W72526  36.210  26.609  14.003
 7267W        W72527  15.369   8.794   3.332
 7268W        W72528   6.505   7.776  11.184
 7269W        W72529  35.629  16.545  11.594
 7270W        W72530  13.811  25.351   0.286
 7271W        W72531  19.100  35.238  14.932
 7272W        W72532  16.185  20.931  13.793
 7273W        W72533  20.179  38.492  14.478
 7274W        W72534  33.074  39.141  11.615
 7275W        W72535  12.216  10.696   3.756
 7276W        W72536  24.419   8.176   2.876
 7277W        W72537  13.380  12.186   2.727
 7278W        W72538  25.849  15.121   4.951
 7279W        W72539  35.611  28.073  11.160
 7280W        W72540   9.734  13.440  11.038
 7281W        W72541  33.811  34.494  12.171
 7282W        W72542  19.507  39.455   1.654
 7283W        W72543  12.696  35.466  14.740
 7284W        W72544  38.128  36.399  12.908
 7285W        W72545   9.371  42.333  12.834
 7286W        W72546   4.818   7.602  12.974
 7287W        W72547  21.649  43.743  13.026
 7288W        W72548  28.195  28.662  14.014
 7289W        W72549  12.829  37.349  11.964
 7290W        W72550  10.184  25.571  12.351
 7291W        W72551   1.908  40.341   1.899
 7292W        W72552  34.633  21.265  12.456
 7293W        W72553  42.327  35.478   4.007
 7294W        W72554  37.881  32.335  14.086
 7295W        W72555  31.686  41.316  14.816
 7296W        W72556  19.705   2.697  11.845
 7297W        W72557  16.745  24.966   3.755
 7298W        W72558  34.040  18.352   4.331
 7299W        W72559   6.713   9.876  10.785
 7300W        W72560  19.931  19.004  10.912
 7301W        W72561  35.953   5.106   3.584
 7302W        W72562  42.072  30.518   1.714
 7303W        W72563  32.427  23.228  13.575
 7304W        W72564   8.611  31.307   4.691
 7305W        W72565  17.589  22.200   4.339
 7306W        W72566  28.544   7.856  11.314
 7307W        W72567  23.124  21.986   0.425
 7308W        W72568   4.781  14.156   0.538
 7309W        W72569  22.109   0.184   0.774
 7310W        W72570  17.079   9.782   3.163
 7311W        W72571  36.647  24.507   4.280
 7312W        W72572   3.464  11.787   2.193
 7313W        W72573  44.333   4.908   3.742
 7314W        W72574   2.242  33.681  13.550
 7315W        W72575   2.528  18.043   0.415
 7316W        W72576  11.815  20.495  12.430
 7317W        W72577  39.201  29.232   2.817
 7318W        W72578   9.855  30.198   1.310
 7319W        W72579  41.740  39.526  11.138
 7320W        W72580   9.192  25.152  12.463
 7321W        W72581  19.541   8.235   1.312
 7322W        W72582  13.858  36.132   1.317
 7323W        W72583  40.521  19.824  11.189
 7324W        W72584  12.606  27.820   0.795
 7325W        W72585  24.703  31.067   4.296
 7326W        W72586   4.781  23.209   0.238
 7327W        W72587  14.308  11.072   2.291
 7328W        W72588  40.107  35.901   2.312
 7329W        W72589   8.846  13.091   4.588
 7330W        W72590  41.125  42.458   0.943
 7331W        W72591  14.126  34.135   4.401
 7332W        W72592  24.069  23.142   4.440
 7333W        W72593  14.604  13.631   1.883
 7334W        W72594  30.103  29.538  14.391
 7335W        W72595  18.168   0.637  10.379
 7336W        W72596   5.467  25.118   4.304
 7337W        W72597   0.056  15.361  10.603
 7338W        W72598  32.923  34.811  11.412
 7339W        W72599  38.937  18.972  11.897
 7340W        W72600  19.207  20.961  13.170
 7341W        W72601  34.124  16.624  12.988
 7342W        W72602  43.820   3.494   1.732
 7343W        W72603   3.962  39.012   3.797
 7344W        W72604  28.048  19.611  14.315
 7345W        W72605  25.006  24.704  13.940
 7346W        W72606   9.603  19.663   0.318
 7347W        W72607  43.149  29.332  11.542
 7348W        W72608  23.101  15.999   2.214
 7349W        W72609  11.743  14.552   3.161
 7350W        W72610  15.277  12.905   1.415
 7351W        W72611  41.974  36.808   3.949
 7352W        W72612   0.882  10.158  12.104
 7353W        W72613   0.272  18.648  13.946
 7354W        W72614   4.462  10.183  12.376
 7355W        W72615   9.198  12.552   0.428
 7356W        W72616   3.181  22.115  10.763
 7357W        W72617  14.281  43.912   3.714
 7358W        W72618   7.836   7.886  11.138
 7359W        W72619  30.005  14.041  12.589
 7360W        W72620   2.692  41.091   2.247
 7361W        W72621  23.868   0.165  13.956
 7362W        W72622  39.591  27.017   2.225
 7363W        W72623   6.155   2.073  12.082
 7364W        W72624  30.452   2.889   2.400
 7365W        W72625  38.050  21.210   3.680
 7366W        W72626  16.603   6.056   3.597
 7367W        W72627  20.494  24.636  11.444
 7368W        W72628  34.552  33.213   0.214
 7369W        W72629  19.068  19.621  13.571
 7370W        W72630  32.179  33.557   4.840
 7371W        W72631  29.621   3.349   5.043
 7372W        W72632   4.273  10.923  11.917
 7373W        W72633  41.615  22.381  14.259
 7374W        W72634  28.177  15.333  11.381
 7375W        W72635   6.310  12.635   2.851
 7376W        W72636  30.268  44.455  12.806
 7377W        W72637   4.812  26.003  10.171
 7378W        W72638  42.995  43.794   4.096
 7379W        W72639  39.858   0.797   0.028
 7380W        W72640  34.103  15.612  10.112
 7381W        W72641  43.767  42.041   1.815
 7382W        W72642  40.974  28.202  12.004
 7383W        W72643  27.680  35.712   1.428
 7384W        W72644   0.039   6.955   5.079
 7385W        W72645  32.989  35.857   3.820
 7386W        W72646  13.151   8.751  13.122
 7387W        W72647  18.727  31.067   4.744
 7388W        W72648  36.803  32.913   1.849
 7389W        W72649  34.351  30.859  14.877
 7390W        W72650   0.492  13.837   3.296
 7391W        W72651   5.197  33.970  14.897
 7392W        W72652  39.807  22.497  13.862
 7393W        W72653   9.673  16.108  13.993
 7394W        W72654  14.183  27.785  11.702
 7395W        W72655   8.950  37.334   4.779
 7396W        W72656  37.011  42.374  14.878
 7397W        W72657  24.723   9.739   1.515
 7398W        W72658  35.801  20.672  13.716
 7399W        W72659   9.583  27.059  14.015
 7400W        W72660  21.365  20.970   0.149
 7401W        W72661   7.707   5.418   3.217
 7402W        W72662  35.847  28.061  14.303
 7403W        W72663  28.675  36.050   2.626
 7404W        W72664  43.215  26.562  14.369
 7405W        W72665  19.265   4.374  10.676
 7406W        W72666  30.427   4.386  12.517
 7407W        W72667  13.205  40.851  11.791
 7408W        W72668  40.806  43.827   0.894
 7409W        W72669  40.814  14.415   5.005
 7410W        W72670  31.725  33.347   0.281
 7411W        W72671  34.071  27.928   1.272
 7412W        W72672  21.280  27.323  10.275
 7413W        W72673  14.291  10.641   0.674
 7414W        W72674  14.782  16.623   3.719
 7415W        W72675  24.534  32.040  10.204
 7416W        W72676  41.469   5.445  12.874
 7417W        W72677   9.412  43.803  14.331
 7418W        W72678  33.737  33.969   2.884
 7419W        W72679  28.527  37.584  11.024
 7420W        W72680  21.084  27.645   1.007
 7421W        W72681   5.131   6.883   4.736
 7422W        W72682  39.432  27.025  14.813
 7423W        W72683  18.671   0.468  10.705
 7424W        W72684  26.886   6.711   1.940
 7425W        W72685   3.856  27.925  10.924
 7426W        W72686  12.446  28.924   3.984
 7427W        W72687  41.999  13.710  10.692
 7428W        W72688   5.326  13.639   2.074
 7429W        W72689  21.303  19.301  11.153
 7430W        W72690  33.083  27.901   0.604
 7431W        W72691   2.367  13.251  10.116
 7432W        W72692  37.876   3.759   3.467
 7433W        W72693  12.164  44.716   0.029
 7434W        W72694   4.879  18.960  12.665
 7435W        W72695  21.550  16.087  11.136
 7436W        W72696  23.131  35.632   4.309
 7437W        W72697  31.516  24.461  13.425
 7438W        W72698  27.260  33.369   4.747
 7439W        W72699  32.441  16.873  10.618
 7440W        W72700   3.314  37.344  10.697
 7441W        W72701  23.436  30.411  12.012
 7442W        W72702  35.904   8.211  13.644
 7443W        W72703  32.437  16.242   4.265
 7444W        W72704  27.564  36.177   1.136
 7445W        W72705   4.595  37.271  11.183
 7446W        W72706  28.057  32.451   1.435
 7447W        W72707  33.985  18.048   3.933
 7448W        W72708  30.164  40.536   1.291
 7449W        W72709   9.308  12.793  11.124
 7450W        W72710  33.875  38.520   1.403
 7451W        W72711   5.851  33.290   4.156
 7452W        W72712  31.620  24.498  11.129
 7453W        W72713  40.452  39.601  11.112
 7454W        W72714   3.036  34.999   3.035
 7455W        W72715  42.481  25.573  14.864
 7456W        W72716  43.320  36.827   1.733
 7457W        W72717  32.955  24.573  10.194
 7458W        W72718  27.645   4.964  11.662
 7459W        W72719   2.774  22.469   3.719
 7460W        W72720  17.249  26.751  11.583
 7461W        W72721  20.345   8.894   2.258
 7462W        W72722  17.681   5.925  13.916
 7463W        W72723  32.492  12.897  12.072
 7464W        W72724  15.545  31.973  10.714
 7465W        W72725  29.156  32.495   1.898
 7466W        W72726   8.558  23.691   2.760
 7467W        W72727  44.464   7.790  12.748
 7468W        W72728   7.131  38.333  12.493
 7469W        W72729   9.719  42.762   4.653
 7470W        W72730  44.318  44.354   1.913
 7471W        W72731  18.589   8.947  14.719
 7472W        W72732   1.765  40.995  11.547
 7473W        W72733  40.560  14.012  13.444
 7474W        W72734   1.349  37.874   2.167
 7475W        W72735   5.214  29.168   9.985
 7476W        W72736  27.938   7.480   2.689
 7477W        W72737  29.682  39.400  12.437
 7478W        W72738  10.666  18.061   0.776
 7479W        W72739  38.342  11.376  11.244
 7480W        W72740   9.851  44.826  11.092
 7481W        W72741   8.386  33.373  11.041
 7482W        W72742  22.187  13.621  10.719
 7483W        W72743  44.717  16.804   3.351
 7484W        W72744   5.794  38.823   2.237
 7485W        W72745  40.939  35.535  14.124
 7486W        W72746  24.257  20.720   4.409
 7487W        W72747  41.233  14.156  11.006
 7488W        W72748  11.144  40.887  14.419
 7489W        W72749  16.242  23.766  10.752
 7490W        W72750  23.185   8.135  13.854
 7491W        W72751   8.759  39.496   1.788
 7492W        W72752   4.708  44.422  11.000
 7493W        W72753  38.068  23.556  13.715
 7494W        W72754  13.356  26.672   2.335
 7495W        W72755   3.383  15.182   4.117
 7496W        W72756  21.702  27.921   2.228
 7497W        W72757  36.851  17.667   1.439
 7498W        W72758   0.333   7.396  14.291
 7499W        W72759  14.306  18.582  13.866
 7500W        W72760   6.854  26.915  11.108
 7501W        W72761  26.727  34.576   1.388
 7502W        W72762   6.245  40.436  14.876
 7503W        W72763  41.556  27.956  13.443
 7504W        W72764  39.476  30.845  11.133
 7505W        W72765  16.087  44.858   1.008
 7506W        W72766  39.417  30.584   3.142
 7507W        W72767  23.546  41.531  13.304
 7508W        W72768  28.961  20.225   3.538
 7509W        W72769   3.745   1.480  12.032
 7510W        W72770  20.503   2.851   1.529
 7511W        W72771  21.871   8.433   2.224
 7512W        W72772  43.022  35.846  12.849
 7513W        W72773   9.669  30.948   3.828
 7514W        W72774  19.629  30.318   1.566
 7515W        W72775  36.525  40.304  14.845
 7516W        W72776  22.522  43.884   4.622
 7517W        W72777  22.223  21.548   1.832
 7518W        W72778   4.201  25.136  13.874
 7519W        W72779  44.237   2.734  13.946
 7520W        W72780  20.634  15.779  10.081
 7521W        W72781  39.306  12.186  10.638
 7522W        W72782  22.493  32.101  14.394
 7523W        W72783  21.167  15.782  12.179
 7524W        W72784  33.267  15.562   2.631
 7525W        W72785   4.413  38.117   0.915
 7526W        W72786  40.859   6.392   3.070
 7527W        W72787  20.075  10.409  14.366
 7528W        W72788  14.341  24.734   0.724
 7529W        W72789  20.079  37.992  12.240
 7530W        W72790  31.883  33.517   1.528
 7531W        W72791  24.054   2.424  14.875
 7532W        W72792  30.892   2.602   4.703
 7533W        W72793  14.313  13.734  11.859
 7534W        W72794  23.642   9.564  10.136
 7535W        W72795  24.074  24.706  14.851
 7536W        W72796   0.988  41.352  11.988
 7537W        W72797  25.965  37.457  10.623
 7538W        W72798  24.801  37.684  12.912
 7539W        W72799   7.123  29.267  12.616
 7540W        W72800  38.237  38.877   2.238
 7541W        W72801  38.497  12.086  11.701
 7542W        W72802  34.134  22.252  12.015
 7543W        W72803  23.932  26.277   5.212
 7544W        W72804   5.457   2.213  11.130
 7545W        W72805  30.214  25.576  12.725
 7546W        W72806  10.396  42.448   2.387
 7547W        W72807  33.028  27.374   5.341
 7548W        W72808  38.520  22.370   3.947
 7549W        W72809  44.007  12.496  12.520
 7550W        W72810   4.652  40.392   4.124
 7551W        W72811   1.361  14.782   0.924
 7552W        W72812  37.833  24.608   0.849
 7553W        W72813  23.940   3.615  10.391
 7554W        W72814  41.838   5.873   2.237
 7555W        W72815  42.625   1.119   1.430
 7556W        W72816  30.150  17.308   1.224
 7557W        W72817  41.233  12.198  13.377
 7558W        W72818  37.136   6.314  15.000
 7559W        W72819  37.482  16.790  11.158
 7560W        W72820   1.130   2.445   2.676
 7561W        W72821   9.650  35.058   2.330
 7562W        W72822  28.151   6.874   1.367
 7563W        W72823  29.166  39.500   4.587
 7564W        W72824  29.951  39.212   3.665
 7565W        W72825  10.760  33.924   4.150
 7566W        W72826  42.852  23.792  14.464
 7567W        W72827  20.943  35.859   2.246
 7568W        W72828  32.489  38.094   1.279
 7569W        W72829  39.015  33.165  13.477
 7570W        W72830  13.156  26.796   1.341
 7571W        W72831  16.340  33.682   2.343
 7572W        W72832  35.210  11.326   0.021
 7573W        W72833   4.505  21.085  11.045
 7574W        W72834  32.523  32.955   2.299
 7575W        W72835  17.664  21.367   0.413
 7576W        W72836  32.154  16.280   3.793
 7577W        W72837  24.996  23.581  10.786
 7578W        W72838   5.514  15.263  14.274
 7579W        W72839  33.002  10.830  10.606
 7580W        W72840   3.015  41.005   1.857
 7581W        W72841  37.415  12.262   1.944
 7582W        W72842  43.929   4.199   3.246
 7583W        W72843   5.393  11.784   2.110
 7584W        W72844   4.323   2.629   0.943
 7585W        W72845  10.853  18.367  14.427
 7586W        W72846  38.908  18.843   3.607
 7587W        W72847  18.078  14.985  13.957
 7588W        W72848  38.063  11.773  10.941
 7589W        W72849  11.119  28.180   3.173
 7590W        W72850  19.635  44.506  10.718
 7591W        W72851  27.414  31.401   1.808
 7592W        W72852   3.546  38.831   1.796
 7593W        W72853  35.799  22.769  13.425
 7594W        W72854   6.063  27.637   4.679
 7595W        W72855  43.267  42.874   1.718
 7596W        W72856  36.992  20.154  11.542
 7597W        W72857  35.679  36.079  11.296
 7598W        W72858   8.919   7.124   3.689
 7599W        W72859  42.175  13.258   0.939
 7600W        W72860  13.934  17.585  12.968
 7601W        W72861  28.692  17.249  10.636
 7602W        W72862  43.753  39.897   0.741
 7603W        W72863   0.985   8.214   2.944
 7604W        W72864  25.528  30.263  14.100
 7605W        W72865  18.092  28.658   3.804
 7606W        W72866  36.323  44.765  11.574
 7607W        W72867  33.171  22.045  12.160
 7608W        W72868  10.339   1.395  10.742
 7609W        W72869  22.796   0.893  14.528
 7610W        W72870  39.806   2.132   1.228
 7611W        W72871   4.912   0.510   0.715
 7612W        W72872  31.962  41.589  10.733
 7613W        W72873  38.098  42.378  11.936
 7614W        W72874  15.755   4.694   9.994
 7615W        W72875  17.635  10.991  14.359
 7616W        W72876  42.959  33.646  14.352
 7617W        W72877  15.241  10.435  14.073
 7618W        W72878  14.267  18.109  10.426
 7619W        W72879   7.295   4.504  11.932
 7620W        W72880  15.392  28.199   1.919
 7621W        W72881  38.811  37.083   3.404
 7622W        W72882  19.165  27.536  12.647
 7623W        W72883  23.583   8.885   4.615
 7624W        W72884  10.439  17.231  12.104
 7625W        W72885   5.805  42.509  10.192
 7626W        W72886   9.447  15.153  12.933
 7627W        W72887  34.601  22.136   4.440
 7628W        W72888  38.780  30.600  13.936
 7629W        W72889   3.770   5.269   0.830
 7630W        W72890  26.302  42.448  11.603
 7631W        W72891  43.335  40.421   2.467
 7632W        W72892  36.036   2.209  11.968
 7633W        W72893  42.859  28.995   1.450
 7634W        W72894  21.205  26.662   4.689
 7635W        W72895  34.021   7.580   2.293
 7636W        W72896  11.293  32.578  14.427
 7637W        W72897  41.574  38.453  12.599
 7638W        W72898   3.330   5.800   3.171
 7639W        W72899   1.842  15.904   1.209
 7640W        W72900  39.281   3.248   1.762
 7641W        W72901  22.596  30.998  14.864
 7642W        W72902   8.917  30.068   1.339
 7643W        W72903  27.633   3.033  10.666
 7644W        W72904  15.087  37.207  12.099
 7645W        W72905  23.609   5.784   3.642
 7646W        W72906  17.647  39.620  11.993
 7647W        W72907  38.809  40.990  12.318
 7648W        W72908  29.594  36.585   1.225
 7649W        W72909  44.978   5.351  12.049
 7650W        W72910  31.876  29.880   2.336
 7651W        W72911  15.164   9.254   3.385
 7652W        W72912  17.944   8.284  11.452
 7653W        W72913  31.419  21.806   3.179
 7654W        W72914  16.176   0.831  14.435
 7655W        W72915   0.249  11.652   2.629
 7656W        W72916  30.415  27.899  12.080
 7657W        W72917  28.034  21.102  14.135
 7658W        W72918  17.025  38.015  12.314
 7659W        W72919  41.354  12.042  14.936
 7660W        W72920  44.257  25.980  14.774
 7661W        W72921  13.384   4.459  11.484
 7662W        W72922  26.635  37.849   0.400
 7663W        W72923  19.065  20.304  12.059
 7664W        W72924  34.221  31.996   1.301
 7665W        W72925  18.142  41.818  14.204
 7666W        W72926   9.886   8.134   1.417
 7667W        W72927  14.924  26.554   5.009
 7668W        W72928  43.781  15.110  13.766
 7669W        W72929  38.393  42.492   1.231
 7670W        W72930   3.666   2.158  14.339
 7671W        W72931  19.487  25.998  13.518
 7672W        W72932  11.320  34.816  11.147
 7673W        W72933  16.716  30.863   1.403
 7674W        W72934  18.048  18.011   2.233
 7675W        W72935  12.707   9.053   3.774
 7676W        W72936  18.287  16.068   3.729
 7677W        W72937  10.136  42.771  12.078
 7678W        W72938  32.406  25.911  14.896
 7679W        W72939  43.282  11.121  11.984
 7680W        W72940  39.207  23.792  14.416
 7681W        W72941  37.947  36.263   2.715
 7682W        W72942  31.111  12.086  12.011
 7683W        W72943  42.298  34.903   4.399
 7684W        W72944  13.597  27.202  14.059
 7685W        W72945  29.968   7.389   4.798
 7686W        W72946  15.576   1.997   0.018
 7687W        W72947  33.560  12.678   3.771
 7688W        W72948  42.920   7.566   1.639
 7689W        W72949  11.553  18.616  11.217
 7690W        W72950  22.631  24.085  13.631
 7691W        W72951  21.242  37.102  11.677
 7692W        W72952  18.535  11.551  12.896
 7693W        W72953  41.187  20.596  11.813
 7694W        W72954  30.501  17.777  10.667
 7695W        W72955   4.853  43.004   0.959
 7696W        W72956  25.585   5.435  14.881
 7697W        W72957  38.789   6.456   4.134
 7698W        W72958   1.153  16.113  13.113
 7699W        W72959  23.179  28.350   4.105
 7700W        W72960  19.561  28.735  11.407
 7701W        W72961  32.378  13.141  12.576
 7702W        W72962  29.460  38.874   2.820
 7703W        W72963   6.199  13.047  12.514
 7704W        W72964  25.997  12.319   1.860
 7705W        W72965  14.335  17.477  11.218
 7706W        W72966  43.735  35.914  11.051
 7707W        W72967  44.801  11.652  14.346
 7708W        W72968  32.148  39.568   2.645
 7709W        W72969  10.692  42.345   1.883
 7710W        W72970  15.739  29.745  10.818
 7711W        W72971  34.813  11.419   2.651
 7712W        W72972  15.195  32.872  14.931
 7713W        W72973  33.723  39.941  13.951
 7714W        W72974  32.395  21.960  10.276
 7715W        W72975   8.784  30.299   4.556
 7716W        W72976  22.788  11.112  11.083
 7717W        W72977  18.556   0.413   2.930
 7718W        W72978  40.946  25.084   4.525
 7719W        W72979  12.253   5.706   1.730
 7720W        W72980  41.241  37.144  14.893
 7721W        W72981  36.047  19.238   4.517
 7722W        W72982  29.715  43.504  12.387
 7723W        W72983  24.257  23.963  12.887
 7724W        W72984  40.715   9.634   3.658
 7725W        W72985  26.067  18.219   0.670
 7726W        W72986  44.996  26.604   2.289
 7727W        W72987  34.359  15.328  14.367
 7728W        W72988   1.420   0.572  14.505
 7729W        W72989  40.885  30.674   2.774
 7730W        W72990  17.607   6.936  11.258
 7731W        W72991  41.479  38.211  11.582
 7732W        W72992  34.898  22.401   2.317
 7733W        W72993   7.274  22.894   4.644
 7734W        W72994  15.315   7.977   3.200
 7735W        W72995  20.970  38.915   3.040
 7736W        W72996   0.067  43.425   0.369
 7737W        W72997   1.959   5.268  13.931
 7738W        W72998  11.218   6.865  12.413
 7739W        W72999  12.810  40.497   1.758
 7740W        W73000  34.987  12.057   0.837
 7741W        W73001  43.069  17.721   0.364
 7742W        W73002  27.733   8.251  14.960
 7743W        W73003  36.161  43.183   1.232
 7744W        W73004   0.476  26.709  10.784
 7745W        W73005  20.265  20.032   1.717
 7746W        W73006   2.199   2.668   1.867
 7747W        W73007  17.216  35.896  10.665
 7748W        W73008  31.027  27.609   1.826
 7749W        W73009  19.883  40.374  14.888
 7750W        W73010  27.073  21.430   0.488
 7751W        W73011  27.228  15.753  13.859
 7752W        W73012  28.506  20.770  12.810
 7753W        W73013  26.922   9.415  12.037
 7754W        W73014  11.313  32.047   3.130
 7755W        W73015  34.396  34.582  13.536
 7756W        W73016  21.467  20.818  10.986
 7757W        W73017  13.880  43.070   3.678
 7758W        W73018  26.183  20.894  12.097
 7759W        W73019  22.018  30.093  10.723
 7760W        W73020   4.776  18.070  12.096
 7761W        W73021  24.516   5.541   3.193
 7762W        W73022  31.029  30.040   0.989
 7763W        W73023  40.022  29.119   3.258
 7764W        W73024  36.706  11.866   0.828
 7765W        W73025   3.946  29.197   4.189
 7766W        W73026  24.526  31.072  13.477
 7767W        W73027  42.267  11.758  14.523
 7768W        W73028   5.783  30.014  12.571
 7769W        W73029  42.757  28.362  12.511
 7770W        W73030   7.901   6.681   0.248
 7771W        W73031  38.919   6.400  10.772
 7772W        W73032   3.414  32.174  10.993
 7773W        W73033  28.472   5.904   5.053
 7774W        W73034  22.298  12.783   1.160
 7775W        W73035   2.549  13.247   0.937
 7776W        W73036  28.128  24.020   2.780
 7777W        W73037  38.177   7.537  12.995
 7778W        W73038  13.427  42.350   1.782
 7779W        W73039  12.533  16.373  11.839
 7780W        W73040  18.131  18.503   9.908
 7781W        W73041   5.013  17.220  11.503
 7782W        W73042  18.805  13.078  12.079
 7783W        W73043  12.735  35.479  14.228
 7784W        W73044  43.841  32.669  14.722
 7785W        W73045  38.263  21.584  12.954
 7786W        W73046   7.075  15.031  13.923
 7787W        W73047  16.331   3.506  10.900
 7788W        W73048  28.347  42.960   3.119
 7789W        W73049  16.245  14.064  11.740
 7790W        W73050  39.120  42.561   0.736
 7791W        W73051  34.661   9.701   3.304
 7792W        W73052   4.826  41.845   0.943
 7793W        W73053  13.254  39.565  10.678
 7794W        W73054  27.339  21.760   3.620
 7795W        W73055  11.347  21.092  11.912
 7796W        W73056  19.936   9.391   0.940
 7797W        W73057   1.242  36.466   4.051
 7798W        W73058  39.653  44.541   3.634
 7799W        W73059   7.428   8.719   3.866
 7800W        W73060   8.372   8.609   4.313
 7801W        W73061  30.954   9.220  14.506
 7802W        W73062   3.279  23.517   1.934
 7803W        W73063  37.495  32.190  12.522
 7804W        W73064  17.253  15.327   3.240
 7805W        W73065   7.479   3.836  10.825
 7806W        W73066  38.501  25.643  12.527
 7807W        W73067   1.990  26.185   1.839
 7808W        W73068  41.460  18.558   4.187
 7809W        W73069  20.273  40.991   0.642
 7810W        W73070  13.814  20.291  12.070
 7811W        W73071  18.498  15.596   1.791
 7812W        W73072   2.064  24.761   4.506
 7813W        W73073  22.054   6.052   2.212
 7814W        W73074  38.043  16.683  12.361
 7815W        W73075  35.093  20.458   2.278
 7816W        W73076  42.173   6.227   0.637
 7817W        W73077  16.910  23.186   1.900
 7818W        W73078  21.522  15.027  11.640
 7819W        W73079  23.441  27.340  12.117
 7820W        W73080  26.657  16.298  11.958
 7821W        W73081  17.619   3.311   4.911
 7822W        W73082  38.160  36.655   0.429
 7823W        W73083  19.180  20.225   1.782
 7824W        W73084  25.289   4.566   3.701
 7825W        W73085  21.688  25.961   3.203
 7826W        W73086  26.503  16.758  12.128
 7827W        W73087  30.458  44.292   3.597
 7828W        W73088   5.118  15.831   0.209
 7829W        W73089   6.978  39.811   0.024
 7830W        W73090  40.815  18.565  12.937
 7831W        W73091  32.620  22.291   4.578
 7832W        W73092  11.157  42.602   1.899
 7833W        W73093  29.223  42.043  14.324
 7834W        W73094  17.731  29.899   2.283
 7835W        W73095  37.260  41.544  12.011
 7836W        W73096  28.127   1.823   4.629
 7837W        W73097  23.031  43.053   2.806
 7838W        W73098  27.919  29.969   1.959
 7839W        W73099   9.877  15.831  11.293
 7840W        W73100  29.862  12.084  14.977
 7841W        W73101  44.399   5.817  10.285
 7842W        W73102  25.746   0.938  14.458
 7843W        W73103  23.761  12.211   2.850
 7844W        W73104  15.919  22.532  11.611
 7845W        W73105  33.637  24.569   4.997
 7846W        W73106  14.229  42.149  14.761
 7847W        W73107  26.632  24.063  13.390
 7848W        W73108  13.753  22.118   2.028
 7849W        W73109   6.948  18.272   1.697
 7850W        W73110  17.337  10.192  14.604
 7851W        W73111  37.520  23.744   2.646
 7852W        W73112  11.608  11.344   2.800
 7853W        W73113  43.278   9.191  10.251
 7854W        W73114  43.354   8.616  11.986
 7855W        W73115  37.369  38.930  11.884
 7856W        W73116   5.314  39.094  12.150
 7857W        W73117   3.224   7.910   4.723
 7858W        W73118  32.782  18.247  10.484
 7859W        W73119  26.796  32.908  11.689
 7860W        W73120  31.400  10.214   1.944
 7861W        W73121  27.903  43.380   5.104
 7862W        W73122  19.171   0.022  12.789
 7863W        W73123  35.647   1.358   2.118
 7864W        W73124  26.728  30.021  13.556
 7865W        W73125  40.786  23.160   1.268
 7866W        W73126  24.830  22.137  13.492
 7867W        W73127   7.098   3.638  10.474
 7868W        W73128  10.293   6.673  14.423
 7869W        W73129  18.635   3.689  11.128
 7870W        W73130   0.295  35.017  12.914
 7871W        W73131   3.837  33.041   2.816
 7872W        W73132  26.604   8.710   3.027
 7873W        W73133  12.390   2.149  13.130
 7874W        W73134  34.614  26.089   1.206
 7875W        W73135   1.000  25.958  13.468
 7876W        W73136  42.951  10.633   0.733
 7877W        W73137  30.396  44.452   0.721
 7878W        W73138  38.926  33.305   2.929
 7879W        W73139  31.204  38.375   2.140
 7880W        W73140  25.345  15.600  12.235
 7881W        W73141  12.816  18.834   4.659
 7882W        W73142  26.471   2.945   3.195
 7883W        W73143  32.629  31.043  14.652
 7884W        W73144   5.157  15.817  10.746
 7885W        W73145  23.715  11.617   1.956
 7886W        W73146  35.437  10.945   3.534
 7887W        W73147  36.987  16.351  13.308
 7888W        W73148  36.259  21.494  11.721
 7889W        W73149  40.470  37.168  14.226
 7890W        W73150  44.163  37.415  10.334
 7891W        W73151   3.683  35.071   3.593
 7892W        W73152  42.421  31.601  13.515
 7893W        W73153  21.518  21.270   1.913
 7894W        W73154   7.266  23.774   1.447
 7895W        W73155  15.101   7.868   0.342
 7896W        W73156  30.032  34.938   4.098
 7897W        W73157  21.441  28.836   0.711
 7898W        W73158  44.935  43.957   1.579
 7899W        W73159  19.745  15.913  12.065
 7900W        W73160  28.756  29.977  11.700
 7901W        W73161  43.048  44.241  14.773
 7902W        W73162  24.345   3.004   2.519
 7903W        W73163  26.896  29.530  14.601
 7904W        W73164   9.386  14.274   3.220
 7905W        W73165   3.338   8.627  10.081
 7906W        W73166  35.046  26.540   2.673
 7907W        W73167  35.376  16.051   3.833
 7908W        W73168   5.815   5.471   2.391
 7909W        W73169   9.393  23.231   0.711
 7910W        W73170  26.641  10.112   0.595
 7911W        W73171  35.102  16.593   1.912
 7912W        W73172   3.455   4.947   4.644
 7913W        W73173  11.377   2.370   4.827
 7914W        W73174  22.207  28.492  14.816
 7915W        W73175   2.199  44.227  11.534
 7916W        W73176  38.963  29.581  10.685
 7917W        W73177  14.099   7.390  14.079
 7918W        W73178  18.055   8.105   1.033
 7919W        W73179  44.757  32.664   4.537
 7920W        W73180  35.088   8.170   4.609
 7921W        W73181  35.062   3.856  11.428
 7922W        W73182  33.153  34.324   2.358
 7923W        W73183   0.909  27.009  11.780
 7924W        W73184  33.844  28.310   1.979
 7925W        W73185   6.619  40.495  12.438
 7926W        W73186  43.512   5.290   2.180
 7927W        W73187  18.409  18.089   4.996
 7928W        W73188  41.559  22.733   1.768
 7929W        W73189  11.733  18.662   0.347
 7930W        W73190  28.186  34.387  11.594
 7931W        W73191  36.882  40.832   4.314
 7932W        W73192  25.323  36.677  10.378
 7933W        W73193  33.144  33.247   2.362
 7934W        W73194   3.491  23.460   3.743
 7935W        W73195  18.633  31.313  13.441
 7936W        W73196   7.011  33.221   3.770
 7937W        W73197  12.215  11.601   0.288
 7938W        W73198  33.636  26.668  13.859
 7939W        W73199  35.071  16.554  13.933
 7940W        W73200   3.803   7.468   1.408
 7941W        W73201   9.448  40.569  13.559
 7942W        W73202  27.033   4.399  13.804
 7943W        W73203   8.199  21.245  12.814
 7944W        W73204  20.095  19.337   3.185
 7945W        W73205  13.168  14.208  12.479
 7946W        W73206  40.206  13.069  11.581
 7947W        W73207  43.814  23.600   4.004
 7948W        W73208  43.766  28.922   5.015
 7949W        W73209  42.374   2.765   2.740
 7950W        W73210  15.698  43.798  13.008
 7951W        W73211  11.203  11.676   2.696
 7952W        W73212   7.759  11.064  14.414
 7953W        W73213  41.284  37.122   4.211
 7954W        W73214  17.554  19.301  10.826
 7955W        W73215  22.814  24.699  12.027
 7956W        W73216  18.050   3.767  13.937
 7957W        W73217  29.047   8.857  14.534
 7958W        W73218  41.711  29.582  11.070
 7959W        W73219  41.401   8.389  12.951
 7960W        W73220   4.546   4.757   4.175
 7961W        W73221  11.285   4.922   4.132
 7962W        W73222  14.757  38.492  12.972
 7963W        W73223   5.721   3.420  11.836
 7964W        W73224  38.733   1.349   1.906
 7965W        W73225  13.873  22.951  10.627
 7966W        W73226  17.927  19.127   3.323
 7967W        W73227   0.494  12.132  13.264
 7968W        W73228  28.147  22.362  12.378
 7969W        W73229  35.210  21.089   1.673
 7970W        W73230  29.416   3.832   1.038
 7971W        W73231   0.548  12.710  12.623
 7972W        W73232  29.198  43.562  12.468
 7973W        W73233  29.241  18.232  13.425
 7974W        W73234  42.190  11.620   3.248
 7975W        W73235  32.234  18.557   0.639
 7976W        W73236  34.421   0.243  11.481
 7977W        W73237  11.747  15.041   1.411
 7978W        W73238   3.505   1.720   3.812
 7979W        W73239   3.272  30.949   3.717
 7980W        W73240  37.800  23.932   2.245
 7981W        W73241  28.911  30.884   4.488
 7982W        W73242  37.732   7.246  11.606
 7983W        W73243  34.929  15.832   0.011
 7984W        W73244  44.202   1.984   4.687
 7985W        W73245  18.551  19.542   0.371
 7986W        W73246  19.081   9.633  13.916
 7987W        W73247  18.208  12.799   1.741
 7988W        W73248  28.478  40.445   4.677
 7989W        W73249   5.835  22.675  14.027
 7990W        W73250  20.363  22.010   0.452
 7991W        W73251  14.331  25.549   2.927
 7992W        W73252  26.619  38.845   0.358
 7993W        W73253  14.149  26.275  12.480
 7994W        W73254  23.657  30.676   2.844
 7995W        W73255  22.885  38.587   3.878
 7996W        W73256  28.674  10.743   1.863
 7997W        W73257   6.184   4.303   2.790
 7998W        W73258   1.736  42.645   3.413
 7999W        W73259   5.831  37.512  13.949
 8000W        W73260  26.594  11.284   3.791
 8001W        W73261  14.718  10.262  10.131
 8002W        W73262  39.403  39.041  14.434
 8003W        W73263  40.545  12.849   2.353
 8004W        W73264  14.513  34.956   2.654
 8005W        W73265  19.394  27.629  14.488
 8006W        W73266  34.169   3.471  14.306
 8007W        W73267  31.454  23.877   9.895
 8008W        W73268  26.342  44.080  12.336
 8009W        W73269  28.045  43.349   1.348
 8010W        W73270  32.569  27.464  11.564
 8011W        W73271  38.350   6.673   4.374
 8012W        W73272   2.812  10.437   2.408
 8013W        W73273  37.414  27.256   2.271
 8014W        W73274  35.872  41.633   3.134
 8015W        W73275  29.377  16.163   1.617
 8016W        W73276   6.978  18.798   2.428
 8017W        W73277  10.837  38.269  11.091
 8018W        W73278  44.802  34.074   3.725
 8019W        W73279   5.395  33.142  14.477
 8020W        W73280   2.441  29.982   1.936
 8021W        W73281  35.145  35.374   5.082
 8022W        W73282   4.832  29.100   0.264
 8023W        W73283  38.931  31.564   2.140
 8024W        W73284  25.460   4.425  12.637
 8025W        W73285  35.789  30.015   0.511
 8026W        W73286  19.234   7.405   2.750
 8027W        W73287  12.615  37.150   3.370
 8028W        W73288  13.910  30.402  13.786
 8029W        W73289  28.423  23.001   3.635
 8030W        W73290  17.300   7.918  14.939
 8031W        W73291   8.415  41.425  11.510
 8032W        W73292   5.281   0.252  11.248
 8033W        W73293  42.744  43.002   1.790
 8034W        W73294  37.812  30.282   4.691
 8035W        W73295  14.295  28.589   4.262
 8036W        W73296   8.630   5.721  12.168
 8037W        W73297  43.538  41.763  14.840
 8038W        W73298   5.674  18.091   3.654
 8039W        W73299   4.543  27.721   2.176
 8040W        W73300  11.095  13.675   3.201
 8041W        W73301   1.018  21.306   1.832
 8042W        W73302  42.774  18.794   4.563
 8043W        W73303   9.862   7.301   0.809
 8044W        W73304  28.338   5.011   2.893
 8045W        W73305  15.776  15.321  11.884
 8046W        W73306  38.351  39.495   3.510
 8047W        W73307  23.658   3.552   5.706
 8048W        W73308  37.168  37.428   2.191
 8049W        W73309  35.139   8.424  14.833
 8050W        W73310  25.727   9.816  11.214
 8051W        W73311  12.405  17.479   1.442
 8052W        W73312  24.561  31.961  11.096
 8053W        W73313  40.603  38.378  12.199
 8054W        W73314  26.886  31.632   0.927
 8055W        W73315  44.322  40.499  13.785
 8056W        W73316  20.308  13.420  11.155
 8057W        W73317  32.094   2.936  14.980
 8058W        W73318   7.936  12.259   3.824
 8059W        W73319   3.309  15.114   0.902
 8060W        W73320  23.543  28.338   0.254
 8061W        W73321  20.189  25.298   2.055
 8062W        W73322  41.646  44.982  14.322
 8063W        W73323  43.455   3.900   3.211
 8064W        W73324  31.131  32.153  12.527
 8065W        W73325   5.158   2.263   4.493
 8066W        W73326  42.471  15.070  11.573
 8067W        W73327   1.625  34.977  11.198
 8068W        W73328  21.845  20.364   3.656
 8069W        W73329  33.984  40.570   0.860
 8070W        W73330  42.754  19.574  14.418
 8071W        W73331  22.259  26.586   3.850
 8072W        W73332  44.626  37.863   0.723
 8073W        W73333   6.727  43.969  14.696
 8074W        W73334  44.277  42.785  11.249
 8075W        W73335  35.915  14.042  11.566
 8076W        W73336  44.693   2.773   4.134
 8077W        W73337  24.148  20.678   2.465
 8078W        W73338   3.800   0.911   4.084
 8079W        W73339   8.350  28.653  12.512
 8080W        W73340   4.673  26.645   3.236
 8081W        W73341  25.943   9.425   4.026
 8082W        W73342   6.759  28.389  12.457
 8083W        W73343  18.036   1.964  12.814
 8084W        W73344  27.402  41.292   3.652
 8085W        W73345  30.048  31.401  14.065
 8086W        W73346  44.353   0.420   9.781
 8087W        W73347   5.347  26.730   0.285
 8088W        W73348   8.679   2.300  11.020
 8089W        W73349  23.605  30.520   3.767
 8090W        W73350  14.522  38.787   3.304
 8091W        W73351  23.504   9.910  12.907
 8092W        W73352  38.983  42.360  12.955
 8093W        W73353  27.015  40.402   0.937
 8094W        W73354   0.852  42.820   0.363
 8095W        W73355  14.725  38.404  14.455
 8096W        W73356  13.580  26.517  11.543
 8097W        W73357  10.250  22.802  14.413
 8098W        W73358  18.067  31.043  12.590
 8099W        W73359  37.174   0.427   1.424
 8100W        W73360  44.505  29.848  13.889
 8101W        W73361  41.837   2.850  13.251
 8102W        W73362   5.171  25.224  14.888
 8103W        W73363   7.861  21.333  12.341
 8104W        W73364  31.478  18.813  14.529
 8105W        W73365  13.055   4.771   2.759
 8106W        W73366  11.901  39.291  10.658
 8107W        W73367  15.531  16.563  14.010
 8108W        W73368  38.729   4.329   0.578
 8109W        W73369  41.585  11.124  12.641
 8110W        W73370  37.067  33.444  10.291
 8111W        W73371  31.452  21.913  12.919
 8112W        W73372   3.193  41.739  13.601
 8113W        W73373   2.152   1.856  12.556
 8114W        W73374  36.930   0.231   1.862
 8115W        W73375  39.554   0.571   1.288
 8116W        W73376  39.001   8.077  11.612
 8117W        W73377   0.580  22.232  14.958
 8118W        W73378  32.072  40.861  11.422
 8119W        W73379  18.530  32.249   1.533
 8120W        W73380  39.286  39.277   3.080
 8121W        W73381  35.692  32.590  12.502
 8122W        W73382  11.248   4.563   1.879
 8123W        W73383  13.926  13.633   3.773
 8124W        W73384  35.034  24.099   4.656
 8125W        W73385   8.943  28.487  11.605
 8126W        W73386   6.348  16.301   1.914
 8127W        W73387  22.279  11.071   0.209
 8128W        W73388  38.930  23.839  11.523
 8129W        W73389  13.600  42.501   4.039
 8130W        W73390  23.275  38.204   4.382
 8131W        W73391  38.810  19.531   3.515
 8132W        W73392  33.313  14.105   1.263
 8133W        W73393   6.860  42.880  14.254
 8134W        W73394  33.152  18.035   3.662
 8135W        W73395   9.269  31.202   1.983
 8136W        W73396  12.756  24.793   2.014
 8137W        W73397  41.419   5.440  12.018
 8138W        W73398   3.383  40.028  12.408
 8139W        W73399  29.161  14.818   3.759
 8140W        W73400  35.826  36.518   4.022
 8141W        W73401  27.048   1.800  12.019
 8142W        W73402  44.305  23.914  13.894
 8143W        W73403   9.193  22.564   2.623
 8144W        W73404   5.893  35.600   4.087
 8145W        W73405  12.553  30.512   1.648
 8146W        W73406  13.563  36.111   3.361
 8147W        W73407  39.618   1.099   1.331
 8148W        W73408  42.186  33.639   9.899
 8149W        W73409   8.762  31.135   4.205
 8150W        W73410  21.843  22.370  14.849
 8151W        W73411  29.983  35.619  11.400
 8152W        W73412  30.263  14.083  14.004
 8153W        W73413  41.933  33.400  13.413
 8154W        W73414   5.312  18.495   1.337
 8155W        W73415  16.854  35.376   0.719
 8156W        W73416  42.730  17.906  13.525
 8157W        W73417   8.426  32.484  14.955
 8158W        W73418  15.671  30.646   4.142
 8159W        W73419  32.828  33.385   1.472
 8160W        W73420  31.980  28.208  13.299
 8161W        W73421   7.824   7.361   1.462
 8162W        W73422  14.304  12.889   0.473
 8163W        W73423   5.333  41.360   0.770
 8164W        W73424  35.009  12.147   3.898
 8165W        W73425  27.291  41.543   2.631
 8166W        W73426  16.665  44.049  11.569
 8167W        W73427   4.535  25.283  12.367
 8168W        W73428  10.352   8.323   3.218
 8169W        W73429  25.078  26.177   3.291
 8170W        W73430  39.922  11.744   5.074
 8171W        W73431  29.498  25.968   2.866
 8172W        W73432  28.936  35.114  12.400
 8173W        W73433   2.005   1.721  14.858
 8174W        W73434  27.228  15.134   3.135
 8175W        W73435  30.719  13.555   4.638
 8176W        W73436  10.445  34.965   1.854
 8177W        W73437  22.877  30.160   2.378
 8178W        W73438  36.844  21.291  11.135
 8179W        W73439  10.842  10.416  12.115
 8180W        W73440  16.073  35.703  13.893
 8181W        W73441  16.785  17.126  12.945
 8182W        W73442  44.257  13.726  12.153
 8183W        W73443   4.633   3.849   0.685
 8184W        W73444  34.846  21.973  12.633
 8185W        W73445  15.848  36.857  14.292
 8186W        W73446  38.010  36.709  13.832
 8187W        W73447  12.857  31.481   0.799
 8188W        W73448   2.976  26.033  14.030
 8189W        W73449  30.058  36.905   3.799
 8190W        W73450   0.962  40.511   3.954
 8191W        W73451  39.397  31.688   2.591
 8192W        W73452  28.952  20.059  10.659
 8193W        W73453  20.579  25.245  12.588
 8194W        W73454  38.801   1.317   1.271
 8195W        W73455  30.647   6.718  13.005
 8196W        W73456  11.167  14.840  11.707
 8197W        W73457  14.346   9.438   1.772
 8198W        W73458  43.331  20.073  12.450
 8199W        W73459   2.954  23.556   4.571
 8200W        W73460  13.161   2.513   4.196
 8201W        W73461  17.477  28.510  14.878
 8202W        W73462  34.894   9.119   2.066
 8203W        W73463  25.075   1.467  14.951
 8204W        W73464  31.997  35.224  12.237
 8205W        W73465  43.361  21.480   5.148
 8206W        W73466  31.918   9.280  11.447
 8207W        W73467   4.710   7.693  14.861
 8208W        W73468  44.401  11.666  10.807
 8209W        W73469  39.113  44.672   1.414
 8210W        W73470   0.812  23.738   4.119
 8211W        W73471  31.801  10.176   0.469
 8212W        W73472   0.285  42.616   3.752
 8213W        W73473  26.820  29.162   2.802
 8214W        W73474   6.928   7.816   2.757
 8215W        W73475  20.989  35.667   4.975
 8216W        W73476  39.070  19.510   4.751
 8217W        W73477  44.872  24.071   4.326
 8218W        W73478  15.176  12.214  14.530
 8219W        W73479  18.084  40.980  10.421
 8220W        W73480  22.628  41.709   4.954
 8221W        W73481  11.796   2.723  14.992
 8222W        W73482   9.169  43.755   2.901
 8223W        W73483  27.949  18.949   0.740
 8224W        W73484  22.238  32.652  12.483
 8225W        W73485   9.379  36.864  10.933
 8226W        W73486  15.824  28.028  12.044
 8227W        W73487   7.953  43.364   2.795
 8228W        W73488  26.758  41.578   1.787
 8229W        W73489  14.254  39.546   2.878
 8230W        W73490  37.082  15.996  12.954
 8231W        W73491   3.723  38.589  14.499
 8232W        W73492   6.924  32.861  11.183
 8233W        W73493  33.558  31.896  13.374
 8234W        W73494  41.649  38.477   4.669
 8235W        W73495  19.502  16.879   3.616
 8236W        W73496  15.000  22.170  12.390
 8237W        W73497  31.228  39.453   2.910
 8238W        W73498  32.256  19.020  14.919
 8239W        W73499  23.899   0.769   4.934
 8240W        W73500  42.036  25.094  13.913
 8241W        W73501  32.097  42.536  12.578
 8242W        W73502  28.948  38.587   1.896
 8243W        W73503  33.053   4.398   0.941
 8244W        W73504  28.649  34.344   1.278
 8245W        W73505  18.175   1.891   1.783
 8246W        W73506  29.826   1.036   1.456
 8247W        W73507  39.384  41.089   3.760
 8248W        W73508  12.826   3.751  12.505
 8249W        W73509  14.529  13.043   2.710
 8250W        W73510   4.670  21.248  14.014
 8251W        W73511  24.477  31.225   2.931
 8252W        W73512  19.740  23.917  14.106
 8253W        W73513   4.804  42.065   2.298
 8254W        W73514  19.542   8.294   1.824
 8255W        W73515  17.729  11.923  11.062
 8256W        W73516  36.882  27.667  13.307
 8257W        W73517  11.798  14.855  13.934
 8258W        W73518  18.977  25.520   0.029
 8259W        W73519  38.231  30.571   4.987
 8260W        W73520  37.350  34.604   0.301
 8261W        W73521  44.012   3.930   4.612
 8262W        W73522  25.098  22.113   0.912
 8263W        W73523  32.544  37.434  14.384
 8264W        W73524  24.225  28.930   5.069
 8265W        W73525  29.559   5.373  12.302
 8266W        W73526   3.909  37.550   4.018
 8267W        W73527  30.169  17.671   2.815
 8268W        W73528   4.260  26.145   2.675
 8269W        W73529   4.320  27.058  14.225
 8270W        W73530  30.196  34.836   2.720
 8271W        W73531  22.465  33.882   0.230
 8272W        W73532  32.893  16.766   3.594
 8273W        W73533   3.371   5.434   4.104
 8274W        W73534  39.574  39.041  11.594
 8275W        W73535  21.071  40.930  11.188
 8276W        W73536  11.729  35.957  12.847
 8277W        W73537  15.028   5.971   0.265
 8278W        W73538  40.132  22.948  11.130
 8279W        W73539  41.513  37.969   3.199
 8280W        W73540  26.039  10.052   1.294
 8281W        W73541  21.511  13.913   4.687
 8282W        W73542  36.374  44.935   2.229
 8283W        W73543  38.911   4.822   1.915
 8284W        W73544   0.807  24.719  12.365
 8285W        W73545  10.430   4.379  14.707
 8286W        W73546  39.544  31.352  11.226
 8287W        W73547  19.700  14.258  11.241
 8288W        W73548  42.307  37.442   1.086
 8289W        W73549   1.010  19.615  13.454
 8290W        W73550  39.282  40.398   0.733
 8291W        W73551  10.915   5.821   9.864
 8292W        W73552  11.158   9.409  14.075
 8293W        W73553   0.672  40.951  10.688
 8294W        W73554  31.551  23.547  14.546
 8295W        W73555  29.115  19.516  10.082
 8296W        W73556   6.849  25.652   1.849
 8297W        W73557  18.158  18.260  14.212
 8298W        W73558  23.984   0.003   1.761
 8299W        W73559  23.519  28.584   4.462
 8300W        W73560   6.645  44.951  10.542
 8301W        W73561  32.578   4.203   2.337
 8302W        W73562  24.558  21.488   1.304
 8303W        W73563  21.158  11.117  13.333
 8304W        W73564  19.360  39.097  13.002
 8305W        W73565   0.729  14.546  14.985
 8306W        W73566  36.102  20.348   2.272
 8307W        W73567  17.127  38.330   1.331
 8308W        W73568  25.648  15.510  10.176
 8309W        W73569  29.168  40.928  13.476
 8310W        W73570   0.601  43.490   1.000
 8311W        W73571   1.353  35.372  13.789
 8312W        W73572  26.658   4.650   5.479
 8313W        W73573   0.853  42.912  12.545
 8314W        W73574  22.381  44.732  14.416
 8315W        W73575   4.338  30.619  10.447
 8316W        W73576  17.548  13.097   3.183
 8317W        W73577  18.358   1.893   4.525
 8318W        W73578  12.029  15.776   1.795
 8319W        W73579  43.588  25.318  12.557
 8320W        W73580  19.656   2.101   0.034
 8321W        W73581  11.889  21.237  13.692
 8322W        W73582  18.230  11.183   3.097
 8323W        W73583  37.099   3.770   1.191
 8324W        W73584   7.070   9.181  12.925
 8325W        W73585  37.860  35.125  12.665
 8326W        W73586  44.062  11.197  13.749
 8327W        W73587  11.958  34.298  11.412
 8328W        W73588  28.710  28.583   2.875
 8329W        W73589   3.982  37.135  11.744
 8330W        W73590  18.847  14.718   4.739
 8331W        W73591  39.951  25.929  12.597
 8332W        W73592  25.967  16.013   1.359
 8333W        W73593  32.703  16.373  12.954
 8334W        W73594   8.924  43.795   3.355
 8335W        W73595  21.578  19.279   4.118
 8336W        W73596   5.365  44.311   1.357
 8337W        W73597   3.824  37.975  11.180
 8338W        W73598  40.995   1.268   4.409
 8339W        W73599  29.853   2.801  10.819
 8340W        W73600  17.663  43.424  10.721
 8341W        W73601  19.351  13.695  12.979
 8342W        W73602   8.965  17.816   0.277
 8343W        W73603  24.460  16.180   1.885
 8344W        W73604  24.057  23.206   2.410
 8345W        W73605  34.236  21.586  14.192
 8346W        W73606  40.811  39.637   4.306
 8347W        W73607  43.891  31.035   1.355
 8348W        W73608  32.984   9.109  12.562
 8349W        W73609   1.662  11.855  12.447
 8350W        W73610   1.724  29.305  10.947
 8351W        W73611   3.664  19.016  11.672
 8352W        W73612  25.993  25.712  13.044
 8353W        W73613  32.446  13.832   0.925
 8354W        W73614  19.328   8.472   0.872
 8355W        W73615   9.403  15.673   4.639
 8356W        W73616  34.582   9.754  13.964
 8357W        W73617  20.203  13.323  14.689
 8358W        W73618  26.536  16.659   2.294
 8359W        W73619  31.992  35.105   1.658
 8360W        W73620  32.500  26.206   3.973
 8361W        W73621  29.165  19.253  13.779
 8362W        W73622   3.803  19.630  14.364
 8363W        W73623  11.990  31.674   0.874
 8364W        W73624  38.183  16.314   1.868
 8365W        W73625  21.292  34.661  14.613
 8366W        W73626  23.032  41.380   2.360
 8367W        W73627  21.018   7.650  14.897
 8368W        W73628  31.601  38.070   2.258
 8369W        W73629  11.787  27.521   3.601
 8370W        W73630   3.943  11.826   3.284
 8371W        W73631  22.478  28.102   0.030
 8372W        W73632  24.596  44.853  12.918
 8373W        W73633  17.188  13.515   0.864
 8374W        W73634  32.309  40.183  13.008
 8375W        W73635   9.413  42.798  10.752
 8376W        W73636  15.661   9.264   3.569
 8377W        W73637  44.460  23.734   4.623
 8378W        W73638   6.524   4.945  11.065
 8379W        W73639   4.461   0.575   2.786
 8380W        W73640  19.772  31.074   0.879
 8381W        W73641  13.340  35.338  11.792
 8382W        W73642  22.733  12.943  13.519
 8383W        W73643  18.792  11.063  12.019
 8384W        W73644  18.784  13.643  13.917
 8385W        W73645  11.433   3.371   3.295
 8386W        W73646  34.542  20.119  12.649
 8387W        W73647  38.264   7.110   4.067
 8388W        W73648  29.499  30.536   4.049
 8389W        W73649  15.276  33.342  13.574
 8390W        W73650  31.879  33.286  12.072
 8391W        W73651  40.063  32.697   3.566
 8392W        W73652   4.918  23.226  12.837
 8393W        W73653  10.315  18.161  14.501
 8394W        W73654   9.994  37.517   4.452
 8395W        W73655  15.236  12.703  10.559
 8396W        W73656  42.422  37.606  12.409
 8397W        W73657  42.387  15.142  10.710
 8398W        W73658  20.577  17.550   0.349
 8399W        W73659   6.372  36.333   1.192
 8400W        W73660  30.924  27.463  14.191
 8401W        W73661  24.694  18.302  13.806
 8402W        W73662  10.737  25.782  11.674
 8403W        W73663  38.391  27.049   0.695
 8404W        W73664  17.540   5.990  10.798
 8405W        W73665  39.040  28.147   2.715
 8406W        W73666  11.365  26.428  14.241
 8407W        W73667   5.867  23.119  14.525
 8408W        W73668  26.620  11.767   3.601
 8409W        W73669  27.141  27.713  13.378
 8410W        W73670  17.138  19.895  14.307
 8411W        W73671  29.619  15.637   2.821
 8412W        W73672   0.228  28.403  11.195
 8413W        W73673  23.519  44.775  13.761
 8414W        W73674  28.573  25.683   0.327
 8415W        W73675  38.303  36.809   3.265
 8416W        W73676  35.322  26.551   0.825
 8417W        W73677  33.803   2.742   9.808
 8418W        W73678  38.017  32.133   2.160
 8419W        W73679  20.099  31.912  13.373
 8420W        W73680  23.130  26.929   3.941
 8421W        W73681  23.435   3.542  10.330
 8422W        W73682  16.293  25.951  13.955
 8423W        W73683  42.041  14.746  11.586
 8424W        W73684  42.447   9.276   3.103
 8425W        W73685  33.612   0.425  14.076
 8426W        W73686   8.700   3.662   3.735
 8427W        W73687  25.584  34.829  12.661
 8428W        W73688  34.830  34.099  14.353
 8429W        W73689  16.285  17.128  12.868
 8430W        W73690  29.910  26.739  14.955
 8431W        W73691   9.810   0.989  11.560
 8432W        W73692   7.147  40.502   1.378
 8433W        W73693  17.152  36.980  10.799
 8434W        W73694   9.400  23.084   5.338
 8435W        W73695   9.230   2.512   1.190
 8436W        W73696   9.901   5.654   0.271
 8437W        W73697  34.652  26.670  11.239
 8438W        W73698  38.185  37.995   2.441
 8439W        W73699  17.334  39.821   2.831
 8440W        W73700  40.346   5.279   2.623
 8441W        W73701  40.872  10.798  14.549
 8442W        W73702   8.283  28.444   2.699
 8443W        W73703  29.407  43.373  13.514
 8444W        W73704   8.432  34.869   1.944
 8445W        W73705   1.548  16.650  13.931
 8446W        W73706  24.489   0.941   1.838
 8447W        W73707  43.231  34.812  13.434
 8448W        W73708  26.008  14.814  11.064
 8449W        W73709  39.301  16.807  11.886
 8450W        W73710  13.209  15.495   0.263
 8451W        W73711  36.853  24.704   1.992
 8452W        W73712   1.382  43.882   4.378
 8453W        W73713  31.040  10.249  10.623
 8454W        W73714  39.634  41.890   4.931
 8455W        W73715   8.686  42.959   1.490
 8456W        W73716   5.703  37.852   3.644
 8457W        W73717   2.723  10.633   2.890
 8458W        W73718  31.635   0.328  11.159
 8459W        W73719  23.466  10.146  12.383
 8460W        W73720  31.432   1.962  14.820
 8461W        W73721  38.785  21.570  12.937
 8462W        W73722  33.076  32.727  14.841
 8463W        W73723  33.547  13.128  10.857
 8464W        W73724  41.269  12.704  10.773
 8465W        W73725  43.313  27.173  10.647
 8466W        W73726  15.933  37.398   0.072
 8467W        W73727   7.097  38.770  13.894
 8468W        W73728  11.589  33.377   1.288
 8469W        W73729  26.397  12.805  11.149
 8470W        W73730  39.764  43.464  12.945
 8471W        W73731  19.902  22.213  11.852
 8472W        W73732  22.748  26.998  14.986
 8473W        W73733  17.900  35.451  12.525
 8474W        W73734  42.840  42.592   2.543
 8475W        W73735  36.716   6.045   4.996
 8476W        W73736   2.205  17.852   3.026
 8477W        W73737  35.474  42.984  11.190
 8478W        W73738  24.939   0.820  12.840
 8479W        W73739  40.790  23.237  12.837
 8480W        W73740  42.981  37.153  11.105
 8481W        W73741  26.682   5.794  10.716
 8482W        W73742  17.073  23.041   2.837
 8483W        W73743  40.369   8.538  12.542
 8484W        W73744  33.684  17.934  14.347
 8485W        W73745  28.135  25.220   2.165
 8486W        W73746  38.217  19.194   2.921
 8487W        W73747  13.823  36.582   4.107
 8488W        W73748   7.185  17.174   3.262
 8489W        W73749  24.518  17.914  14.170
 8490W        W73750  24.624  39.505   9.845
 8491W        W73751   7.024   3.751   3.350
 8492W        W73752  14.542  38.292  14.923
 8493W        W73753  17.094  11.826   1.538
 8494W        W73754  32.653  26.773  13.972
 8495W        W73755  39.804  14.142  11.635
 8496W        W73756  33.980   6.181  14.843
 8497W        W73757  20.434  18.879  10.933
 8498W        W73758  18.118  33.666  13.771
 8499W        W73759   1.127   6.278   1.801
 8500W        W73760  31.229   5.771  12.553
 8501W        W73761  29.411  20.966  10.545
 8502W        W73762  32.488  12.325  12.928
 8503W        W73763  31.560  39.052   2.376
 8504W        W73764  11.683  23.509  13.321
 8505W        W73765   2.049  35.386  11.163
 8506W        W73766  14.574  43.536  11.540
 8507W        W73767  28.154   9.503   3.644
 8508W        W73768  32.299  37.993   2.752
 8509W        W73769  11.122  18.999  10.601
 8510W        W73770  16.566  39.522   0.849
 8511W        W73771  22.204  43.019  14.233
 8512W        W73772  12.910  15.739  11.642
 8513W        W73773  28.271   0.357  10.853
 8514W        W73774  41.032   7.667  11.536
 8515W        W73775  26.114   0.790   3.810
 8516W        W73776  26.794  34.093  12.944
 8517W        W73777  40.220  29.317   2.752
 8518W        W73778  20.721  33.079  11.164
 8519W        W73779  22.188  15.043   0.830
 8520W        W73780  41.435   1.911  11.207
 8521W        W73781  27.455   3.956   4.668
 8522W        W73782  36.956  43.406  14.827
 8523W        W73783  21.475  31.788  10.625
 8524W        W73784  39.696   8.937   3.070
 8525W        W73785  38.186  36.304  14.110
 8526W        W73786   0.325   2.712   1.718
 8527W        W73787  10.907  23.538   1.785
 8528W        W73788  23.601   1.995   3.337
 8529W        W73789  32.038   2.240  10.991
 8530W        W73790  15.726  19.123   4.141
 8531W        W73791   8.594  39.048  11.579
 8532W        W73792  21.227  42.482  11.445
 8533W        W73793   6.241  30.584   0.246
 8534W        W73794  28.385   4.842   1.494
 8535W        W73795  26.086  14.902  14.386
 8536W        W73796  32.476  23.415  11.048
 8537W        W73797  35.761   1.687   2.807
 8538W        W73798  26.585  32.990   2.745
 8539W        W73799  36.478   2.487   0.511
 8540W        W73800  22.321   5.218   1.903
 8541W        W73801  35.422  44.231   0.773
 8542W        W73802  25.332  37.918  11.071
 8543W        W73803  19.813   4.963  10.519
 8544W        W73804   4.282  39.810   4.659
 8545W        W73805   8.517  11.445  11.135
 8546W        W73806  20.530  12.416  12.460
 8547W        W73807  26.022  36.445  11.109
 8548W        W73808  33.888  33.361  14.012
 8549W        W73809  19.799  24.470   1.154
 8550W        W73810  14.724  15.222  13.324
 8551W        W73811  19.758  26.019   0.074
 8552W        W73812  26.458  39.321   3.273
 8553W        W73813  18.598   1.435   3.715
 8554W        W73814  15.836   3.469   0.392
 8555W        W73815   3.979   2.300  11.682
 8556W        W73816  29.566   5.941   4.667
 8557W        W73817  28.104  39.036  10.210
 8558W        W73818   3.905  39.299   3.278
 8559W        W73819  29.750   3.324   3.674
 8560W        W73820   6.280   8.231  14.058
 8561W        W73821  44.723  42.327   1.701
 8562W        W73822  13.524   6.115  11.056
 8563W        W73823  41.463   0.816  13.799
 8564W        W73824  14.736  12.308  10.596
 8565W        W73825  20.515   4.514   3.233
 8566W        W73826  37.262  21.261  14.749
 8567W        W73827  42.019   1.258  14.317
 8568W        W73828  34.713   8.473   2.722
 8569W        W73829  21.486   4.715  11.660
 8570W        W73830  16.954  34.674   4.178
 8571W        W73831  20.706  21.516   0.794
 8572W        W73832  32.141  42.426  14.443
 8573W        W73833  22.257  12.328   2.766
 8574W        W73834  37.906  10.467  10.276
 8575W        W73835   0.031  29.434   3.927
 8576W        W73836  41.531  26.161   0.320
 8577W        W73837   3.367  14.570   0.979
 8578W        W73838  24.387  10.129  12.884
 8579W        W73839  35.349   6.384   0.630
 8580W        W73840   7.372  25.004   0.393
 8581W        W73841  40.522   7.552  11.434
 8582W        W73842  41.360   0.200  11.198
 8583W        W73843  43.981  27.176  13.025
 8584W        W73844   2.866  36.698   1.871
 8585W        W73845  16.692  27.427   3.811
 8586W        W73846  28.218   9.481  10.724
 8587W        W73847  28.361   5.230  11.097
 8588W        W73848   0.621  28.131  10.981
 8589W        W73849  36.601  35.806   0.375
 8590W        W73850   8.613  34.564  12.477
 8591W        W73851  38.395  33.999  10.724
 8592W        W73852  30.795   7.371  12.665
 8593W        W73853  20.101  22.712  11.918
 8594W        W73854  42.364  37.625   4.044
 8595W        W73855   4.888  38.334   0.281
 8596W        W73856   4.758  17.425  14.937
 8597W        W73857  25.216  21.341   4.938
 8598W        W73858   0.387   7.336   0.713
 8599W        W73859  23.137   6.832   4.416
 8600W        W73860  21.136  28.062   4.294
 8601W        W73861  36.444  28.216   1.418
 8602W        W73862  39.039  24.507   4.148
 8603W        W73863  36.725  10.606  12.489
 8604W        W73864  43.566   1.770   5.295
 8605W        W73865  34.206  17.990  14.268
 8606W        W73866  37.223  33.854  11.743
 8607W        W73867   0.803   6.434  13.394
 8608W        W73868  34.620  24.154   1.132
 8609W        W73869  17.994   3.459   2.961
 8610W        W73870  35.580   4.009  11.446
 8611W        W73871  19.660  40.528   0.335
 8612W        W73872   5.993  27.219   0.838
 8613W        W73873  21.242  17.846   5.420
 8614W        W73874  21.712  41.845   4.496
 8615W        W73875  30.037  21.989  14.866
 8616W        W73876  16.959  43.439   1.750
 8617W        W73877  33.966  20.866   1.691
 8618W        W73878  22.024  14.745   4.368
 8619W        W73879  44.643   9.000   4.713
 8620W        W73880  18.624  36.457   4.356
 8621W        W73881   4.355  15.647   2.941
 8622W        W73882   3.384  30.997  14.270
 8623W        W73883   8.675  24.792   0.463
 8624W        W73884  18.883  25.171  10.990
 8625W        W73885  37.065   3.900  11.515
 8626W        W73886  42.236   7.271  10.731
 8627W        W73887   6.907  31.179   2.856
 8628W        W73888  17.146   9.742   2.598
 8629W        W73889  19.028  41.106  11.200
 8630W        W73890   9.357  39.365   4.604
 8631W        W73891  38.149  13.789   2.787
 8632W        W73892   1.021  18.536   2.597
 8633W        W73893   3.117   6.761   2.435
 8634W        W73894  22.546  18.257   4.092
 8635W        W73895  30.655   5.833   3.745
 8636W        W73896  17.117  23.298  12.976
 8637W        W73897  11.127  13.871   1.332
 8638W        W73898  11.443  15.862   3.629
 8639W        W73899  25.518  44.096  13.392
 8640W        W73900  26.862   8.279  13.475
 8641W        W73901   0.573  12.793  10.456
 8642W        W73902  29.554   4.317   0.293
 8643W        W73903   5.516  29.546   2.615
 8644W        W73904  21.754   2.746  12.485
 8645W        W73905  34.077  16.676  14.356
 8646W        W73906  17.690   0.497   2.878
 8647W        W73907  23.531  26.194  10.747
 8648W        W73908  10.772  30.992  12.447
 8649W        W73909  21.094  15.074   3.552
 8650W        W73910   2.156  25.706   1.932
 8651W        W73911  33.067  29.109   4.837
 8652W        W73912  13.124  13.562   0.319
 8653W        W73913  36.937  31.842   0.528
 8654W        W73914  26.645  11.642   0.762
 8655W        W73915   7.935   0.755  13.772
 8656W        W73916   5.861  26.280   3.876
 8657W        W73917  21.665  33.924   4.035
 8658W        W73918  39.135  12.654   4.079
 8659W        W73919  12.776  18.514  10.480
 8660W        W73920   3.978  20.614   1.281
 8661W        W73921  26.721  37.608   0.856
 8662W        W73922  33.824  19.346  12.746
 8663W        W73923  26.400  20.273   0.164
 8664W        W73924   6.905  25.510   2.868
 8665W        W73925  35.005  29.751  13.322
 8666W        W73926  37.360  29.425   1.057
 8667W        W73927  35.917  38.337  13.858
 8668W        W73928  18.972   5.826   3.229
 8669W        W73929  25.199  16.042   4.328
 8670W        W73930  30.081  10.449   1.343
 8671W        W73931   4.967  19.079  10.277
 8672W        W73932  40.250  14.527   0.957
 8673W        W73933  40.863   5.484   4.287
 8674W        W73934  24.170  26.456  11.646
 8675W        W73935  24.526  27.215   3.762
 8676W        W73936   3.329  42.288  13.915
 8677W        W73937  25.706  42.330   2.982
 8678W        W73938  36.855   0.703   2.060
 8679W        W73939  24.984   9.247   1.166
 8680W        W73940  14.178   9.182   2.710
 8681W        W73941  22.892  12.009  12.591
 8682W        W73942  31.674  42.211   3.227
 8683W        W73943   3.256  27.697  14.379
 8684W        W73944  31.039   2.281   2.868
 8685W        W73945  10.253  34.196  13.838
 8686W        W73946  15.580  38.531  11.984
 8687W        W73947  32.202  26.761  12.760
 8688W        W73948   8.408  13.735  12.119
 8689W        W73949   6.226  38.275  12.519
 8690W        W73950   5.072   6.466  10.317
 8691W        W73951   2.103  21.151   2.302
 8692W        W73952  16.116  24.061   4.267
 8693W        W73953   8.756  38.531  12.842
 8694W        W73954  27.140  20.489  12.716
 8695W        W73955   0.643  32.167  11.275
 8696W        W73956  18.473  17.172   1.724
 8697W        W73957  20.924   4.005   5.154
 8698W        W73958   7.954  36.959  11.122
 8699W        W73959  43.355  27.241   4.520
 8700W        W73960   6.847  42.278   3.944
 8701W        W73961  39.881  27.849   3.810
 8702W        W73962  40.459  34.899  12.108
 8703W        W73963   4.325   6.440  14.844
 8704W        W73964  12.741   5.514  14.469
 8705W        W73965   9.399  36.897   2.310
 8706W        W73966  15.320  40.390  14.847
 8707W        W73967   5.928  20.966  11.693
 8708W        W73968  14.314  43.965   1.133
 8709W        W73969  19.927  36.776   3.034
 8710W        W73970  11.688  29.656   3.049
 8711W        W73971  12.024   5.799  10.710
 8712W        W73972  27.052  30.583   1.853
 8713W        W73973  28.886   1.730  10.645
 8714W        W73974  31.919  43.848   4.303
 8715W        W73975  15.987  22.780   0.860
 8716W        W73976  20.100  11.397   3.225
 8717W        W73977  41.331  43.970  13.439
 8718W        W73978  41.274   0.816  10.733
 8719W        W73979   0.895   0.203  11.553
 8720W        W73980  26.093  14.880  13.030
 8721W        W73981   3.815   1.033   3.213
 8722W        W73982  40.504  44.563  12.565
 8723W        W73983  42.516  27.454  13.490
 8724W        W73984  16.523  13.731   1.636
 8725W        W73985  20.523   1.943   3.292
 8726W        W73986  16.329   3.312   3.956
 8727W        W73987  22.522  30.644  13.474
 8728W        W73988  17.963   7.832  11.715
 8729W        W73989  28.179  10.243  10.347
 8730W        W73990   6.625  19.498  11.726
 8731W        W73991  28.951  39.372  10.673
 8732W        W73992   5.408  34.365  10.744
 8733W        W73993  32.543   8.073   0.632
 8734W        W73994  44.607  36.819   2.715
 8735W        W73995  25.774  33.612  13.422
 8736W        W73996  13.092  26.568  14.373
 8737W        W73997  18.497  11.578  13.870
 8738W        W73998  31.603   0.459  12.973
 8739W        W73999  31.569  34.983   2.833
 8740W        W74000  10.923  33.554  13.027
 8741W        W74001  25.425  28.397   2.232
 8742W        W74002  31.951  34.618   1.832
 8743W        W74003   6.586  18.854  12.349
 8744W        W74004  40.232  26.050  14.436
 8745W        W74005  28.464  42.765   1.773
 8746W        W74006  27.243  36.949  12.872
 8747W        W74007   7.771  33.873  11.457
 8748W        W74008   1.549   6.382  13.027
 8749W        W74009  26.282  11.827  13.856
 8750W        W74010  14.506  39.836  10.324
 8751W        W74011  36.129  13.275   1.629
 8752W        W74012  21.266  25.779  13.299
 8753W        W74013  33.443  26.613  14.769
 8754W        W74014   5.301  15.335   0.308
 8755W        W74015  26.772  19.129   3.430
 8756W        W74016  32.371  42.774   5.083
 8757W        W74017  14.213  42.393   0.215
 8758W        W74018  24.574  34.939   2.642
 8759W        W74019   4.514  31.697  13.525
 8760W        W74020  31.946  28.154  14.520
 8761W        W74021  31.429   6.833   0.424
 8762W        W74022  43.358  19.125  14.882
 8763W        W74023  35.851   7.957  12.431
 8764W        W74024  21.526  27.133  11.510
 8765W        W74025  30.696  33.167   0.761
 8766W        W74026  43.054  36.509  12.155
 8767W        W74027  40.508   2.881   3.333
 8768W        W74028  18.629   1.906   3.475
 8769W        W74029  15.771  39.593   4.897
 8770W        W74030  38.026  44.332   0.817
 8771W        W74031  30.600  40.298   3.010
 8772W        W74032  32.960  36.117  14.384
 8773W        W74033  24.599  13.751  14.253
 8774W        W74034   2.364  41.549   1.203
 8775W        W74035  13.104  23.041  11.126
 8776W        W74036   5.024  15.905  12.910
 8777W        W74037  22.565  19.351   1.598
 8778W        W74038   2.800  10.121   1.968
 8779W        W74039   5.715   1.229  11.003
 8780W        W74040  25.790  16.737   1.739
 8781W        W74041  22.173  11.885   1.731
 8782W        W74042  34.841  29.921  12.531
 8783W        W74043   8.620  35.540  12.577
 8784W        W74044  24.165  11.912   1.965
 8785W        W74045   9.748  28.940   0.958
 8786W        W74046  40.695  38.332   3.718
 8787W        W74047   0.747   5.982  13.682
 8788W        W74048  36.841  16.129   2.765
 8789W        W74049  21.997  12.989  11.910
 8790W        W74050  44.447   8.030   4.197
 8791W        W74051   7.154  30.608   2.868
 8792W        W74052   8.874  20.052   1.283
 8793W        W74053  30.949  17.997   3.657
 8794W        W74054  41.547  17.736   1.742
 8795W        W74055  16.315  32.405  10.704
 8796W        W74056  23.545  13.264   1.372
 8797W        W74057  34.362  32.618  14.355
 8798W        W74058  41.279  29.884  10.732
 8799W        W74059   4.934   2.312   3.150
 8800W        W74060  34.787   6.801  14.862
 8801W        W74061  31.332  37.107   5.022
 8802W        W74062  22.322  16.135  10.630
 8803W        W74063  25.365  35.080  14.579
 8804W        W74064  25.180   4.023   3.636
 8805W        W74065   2.883  42.544  13.726
 8806W        W74066   6.304   0.398   0.502
 8807W        W74067  41.277   2.601   2.142
 8808W        W74068  20.723   1.072   2.768
 8809W        W74069  31.459  28.024  14.567
 8810W        W74070  11.600  18.663   4.627
 8811W        W74071   2.920   3.972  10.633
 8812W        W74072  13.069   0.463   0.289
 8813W        W74073  25.466  26.702  12.410
 8814W        W74074  38.324  31.622  12.485
 8815W        W74075  34.391  37.922  13.564
 8816W        W74076  13.721  13.248  11.592
 8817W        W74077  10.591  28.444  11.976
 8818W        W74078  40.720  25.421   4.871
 8819W        W74079   2.214  16.502   2.889
 8820W        W74080  44.303  25.278  13.780
 8821W        W74081  20.646  15.172  14.885
 8822W        W74082  14.594  29.949   1.678
 8823W        W74083   2.418  38.007  11.832
 8824W        W74084  40.992   1.812  13.572
 8825W        W74085  24.646  12.479   3.630
 8826W        W74086  36.906  35.978   2.515
 8827W        W74087  17.266  14.203   5.009
 8828W        W74088   9.922   2.242  11.983
 8829W        W74089  41.751  44.948  11.415
 8830W        W74090  35.305  18.999   1.004
 8831W        W74091  16.286   7.801   4.795
 8832W        W74092  39.229   7.280  14.660
 8833W        W74093  31.760   8.395  11.616
 8834W        W74094  21.001  11.543  11.634
 8835W        W74095   6.112  37.120   0.949
 8836W        W74096  19.945   3.726   0.892
 8837W        W74097  33.370  42.540  13.942
 8838W        W74098   5.803   7.969   4.147
 8839W        W74099  20.067  42.981   2.392
 8840W        W74100  32.958  42.832   2.848
 8841W        W74101  16.271   1.998   1.622
 8842W        W74102   7.679  29.640   4.322
 8843W        W74103  17.738   3.254  12.614
 8844W        W74104  29.694  11.408   0.323
 8845W        W74105  43.424  34.442  11.260
 8846W        W74106   0.748   9.408   4.073
 8847W        W74107   4.711   5.147   3.837
 8848W        W74108  24.340  43.798   4.164
 8849W        W74109   1.490  33.599  14.828
 8850W        W74110   1.231  42.409   0.398
 8851W        W74111  44.024  34.621  12.499
 8852W        W74112  42.469   7.105  12.925
 8853W        W74113  17.995  13.887  12.522
 8854W        W74114  34.355  37.648   2.584
 8855W        W74115  12.776  33.402  14.463
 8856W        W74116  15.261  29.141  13.744
 8857W        W74117  33.711  25.218   1.821
 8858W        W74118  27.026   8.761  13.362
 8859W        W74119   3.218  22.983   3.790
 8860W        W74120   9.086  24.739   2.198
 8861W        W74121  32.202  17.625  11.949
 8862W        W74122   9.092   7.717  14.886
 8863W        W74123  34.134   9.337   0.422
 8864W        W74124  21.755  23.505   4.554
 8865W        W74125   0.040  30.236  11.121
 8866W        W74126  21.585  33.037  11.984
 8867W        W74127  24.127  20.145  11.207
 8868W        W74128  44.291  27.698   3.312
 8869W        W74129  18.014  27.362   4.274
 8870W        W74130  40.858  17.106  14.826
 8871W        W74131  12.501  43.156  10.217
 8872W        W74132  36.561   1.058   2.823
 8873W        W74133   2.665   9.698  10.619
 8874W        W74134  16.262  30.164   3.586
 8875W        W74135  18.961   6.606  13.895
 8876W        W74136  38.706  14.463  12.413
 8877W        W74137  30.594  13.667   3.691
 8878W        W74138  39.564   1.933   2.136
 8879W        W74139   3.810   8.810  11.392
 8880W        W74140  18.377  29.655   4.092
 8881W        W74141  40.950  22.237   1.245
 8882W        W74142  26.511  40.929  14.292
 8883W        W74143  13.766  25.571  12.771
 8884W        W74144  10.259  37.991   4.544
 8885W        W74145  39.087  37.568  13.544
 8886W        W74146  29.883  15.956   4.149
 8887W        W74147  40.641   5.190  14.329
 8888W        W74148  30.906  15.305  11.087
 8889W        W74149  23.614  41.437   5.104
 8890W        W74150  14.152  11.708  11.966
 8891W        W74151  29.433   1.106  14.365
 8892W        W74152  41.879  44.564  13.365
 8893W        W74153  31.863  15.350  13.423
 8894W        W74154  35.852  26.766   3.628
 8895W        W74155  43.869  23.743   0.895
 8896W        W74156   2.928  30.611  13.593
 8897W        W74157  29.105  20.609   2.672
 8898W        W74158   1.446  38.334   1.707
 8899W        W74159   4.350  12.066  14.006
 8900W        W74160  26.556   7.571   1.838
 8901W        W74161  42.917  28.198  10.512
 8902W        W74162  29.446  36.781   0.775
 8903W        W74163  19.574   4.456   0.304
 8904W        W74164  25.111  42.376   4.642
 8905W        W74165   6.742  33.156  11.574
 8906W        W74166  43.376  36.993   4.599
 8907W        W74167  21.671  27.377  13.675
 8908W        W74168  23.913  15.064  14.892
 8909W        W74169  30.178  39.764  11.626
 8910W        W74170  31.616  17.128  11.250
 8911W        W74171  26.904  18.717  13.412
 8912W        W74172  13.884  39.012  13.835
 8913W        W74173  37.471  42.812   0.966
 8914W        W74174  30.407  31.884  11.854
 8915W        W74175   6.090  29.698  14.390
 8916W        W74176  25.798  42.497  11.690
 8917W        W74177   8.411   4.917  11.158
 8918W        W74178  31.863  36.932   1.885
 8919W        W74179  13.193  28.026   4.240
 8920W        W74180  16.220   1.714  11.360
 8921W        W74181   5.125  43.794   2.826
 8922W        W74182  44.832  32.911   2.018
 8923W        W74183  13.146   3.140   2.775
 8924W        W74184  19.760   6.376   3.430
 8925W        W74185  36.094  42.751  13.936
 8926W        W74186  12.896  23.160  13.300
 8927W        W74187  12.570   9.785   1.321
 8928W        W74188  15.030  21.055  14.098
 8929W        W74189   9.184  38.365   2.603
 8930W        W74190  28.494  14.331  13.933
 8931W        W74191  14.078  23.302  11.104
 8932W        W74192  37.931   3.379   5.495
 8933W        W74193   6.737  19.681  10.716
 8934W        W74194  20.719   7.796  11.507
 8935W        W74195   8.298  28.120   2.181
 8936W        W74196  13.655   4.526  14.281
 8937W        W74197  13.548  29.362  11.987
 8938W        W74198  25.950  10.642   2.598
 8939W        W74199  33.674   0.882  13.721
 8940W        W74200  30.517  42.527  10.744
 8941W        W74201  24.630  17.054   5.538
 8942W        W74202  36.410  39.755  11.207
 8943W        W74203  34.788  29.567  12.884
 8944W        W74204  29.578  38.292   4.123
 8945W        W74205  15.623   3.645  13.425
 8946W        W74206   7.054   1.504   0.307
 8947W        W74207  30.465  43.555   4.369
 8948W        W74208  29.381  11.335  14.031
 8949W        W74209  26.020  35.851   2.662
 8950W        W74210  36.437   7.667   4.103
 8951W        W74211  32.935  24.589   2.715
 8952W        W74212  36.504  18.836  11.007
 8953W        W74213  10.618  28.081   3.254
 8954W        W74214  22.467  27.487   2.278
 8955W        W74215  31.614   5.826  14.377
 8956W        W74216   2.786  33.020  14.982
 8957W        W74217  13.249  33.084   3.154
 8958W        W74218  37.781  22.089  10.245
 8959W        W74219   6.992  42.766   3.252
 8960W        W74220  24.775  27.425   0.941
 8961W        W74221  21.604   0.030  14.779
 8962W        W74222  40.412  17.166   1.101
 8963W        W74223   2.908   1.000   3.788
 8964W        W74224  17.691  15.565   2.510
 8965W        W74225  34.333  43.906   0.219
 8966W        W74226  19.639   3.605   2.465
 8967W        W74227  31.313   2.205   3.901
 8968W        W74228  17.120  28.590   1.789
 8969W        W74229   2.364  34.426  11.056
 8970W        W74230  15.721  18.716   3.234
 8971W        W74231  40.048   2.236  11.678
 8972W        W74232  22.553   9.670   0.432
 8973W        W74233  35.933  37.287   0.936
 8974W        W74234  24.057  19.826   4.346
 8975W        W74235  34.441  22.222  12.427
 8976W        W74236  27.949  26.584  10.597
 8977W        W74237  36.419  17.810  14.044
 8978W        W74238  15.494  33.198   3.711
 8979W        W74239  27.535  22.236   2.653
 8980W        W74240  15.574   8.861   2.200
 8981W        W74241  28.986  14.628  13.070
 8982W        W74242  26.494  35.751  11.701
 8983W        W74243  23.042  14.061  11.411
 8984W        W74244  36.922  34.152  12.489
 8985W        W74245  16.067  27.741  14.114
 8986W        W74246  36.031  28.249  13.427
 8987W        W74247  34.707  37.003   4.616
 8988W        W74248  27.781   3.378   2.684
 8989W        W74249  35.625  35.664  10.399
 8990W        W74250  30.820  33.826   2.641
 8991W        W74251   6.694   4.255   4.858
 8992W        W74252  12.126  18.540  12.492
 8993W        W74253  34.095  35.517   0.711
 8994W        W74254  30.108  18.358  13.228
 8995W        W74255   1.050  19.505  11.549
 8996W        W74256  35.603   5.958   4.538
 8997W        W74257  22.095  32.184   0.254
 8998W        W74258  44.678  29.150  14.452
 8999W        W74259  14.765  29.078  11.481
 9000W        W74260  18.069  34.919  11.720
 9001W        W74261  14.406  18.181   1.861
 9002W        W74262   5.849  23.728   1.775
 9003W        W74263  30.472  13.541   1.990
 9004W        W74264  40.606   7.267   1.297
 9005W        W74265  13.197   9.677   1.367
 9006W        W74266   5.364  17.260  14.617
 9007W        W74267  32.426  25.863   3.594
 9008W        W74268   5.393  39.991   3.168
 9009W        W74269   8.211  20.225  10.520
 9010W        W74270  16.010  34.348  14.856
 9011W        W74271  31.168  27.415  11.952
 9012W        W74272  31.671  10.840   3.651
 9013W        W74273  14.555   9.245  13.248
 9014W        W74274  14.219  10.790   0.178
 9015W        W74275  38.904  18.513   0.828
 9016W        W74276  28.041   0.332   3.106
 9017W        W74277   6.003  11.698   3.384
 9018W        W74278   1.713   2.429   4.537
 9019W        W74279  21.161   8.598  12.941
 9020W        W74280   1.410   6.337  10.869
 9021W        W74281  26.230  20.650   1.214
 9022W        W74282  36.241   2.449   3.200
 9023W        W74283  31.974  14.593  13.028
 9024W        W74284  39.313  42.800   3.280
 9025W        W74285  36.780  27.158   3.862
 9026W        W74286  40.713  18.780   0.816
 9027W        W74287   1.452   1.640   2.242
 9028W        W74288   5.130  12.710   1.695
 9029W        W74289  14.631  29.518   1.975
 9030W        W74290  35.467  26.031  10.285
 9031W        W74291  23.264   4.353  12.591
 9032W        W74292  40.729  14.188   3.540
 9033W        W74293  44.522  30.637   5.090
 9034W        W74294  27.835  38.410   0.882
 9035W        W74295  22.588  34.365   9.767
 9036W        W74296  23.333  42.504   3.014
 9037W        W74297  19.176  15.519   0.037
 9038W        W74298  25.587  34.775  11.653
 9039W        W74299  18.822  21.106  13.552
 9040W        W74300  24.809  22.580  12.052
 9041W        W74301  19.590   0.425  14.966
 9042W        W74302  36.234  19.569   2.654
 9043W        W74303  41.999  40.793   1.696
 9044W        W74304  16.897  43.517  11.132
 9045W        W74305  37.316  30.126   4.756
 9046W        W74306  14.422   7.761   5.048
 9047W        W74307  21.811  15.981   0.871
 9048W        W74308   5.959  17.775  14.379
 9049W        W74309  20.283   3.401   1.754
 9050W        W74310  31.368  33.301   2.842
 9051W        W74311  35.968   8.727   4.360
 9052W        W74312  21.644   5.314  11.776
 9053W        W74313  35.659  39.928  12.121
 9054W        W74314  22.224  37.379   2.219
 9055W        W74315  22.408  33.892   5.340
 9056W        W74316  19.901   3.665  11.514
 9057W        W74317  36.042  25.891   1.435
 9058W        W74318  39.193   4.213   0.915
 9059W        W74319  20.487  35.805   1.288
 9060W        W74320  41.348  30.269  12.469
 9061W        W74321  18.288  27.068   1.729
 9062W        W74322  20.767  12.689   4.072
 9063W        W74323   9.730  44.865   0.735
 9064W        W74324  32.531  27.655   2.579
 9065W        W74325  13.202   2.219  13.445
 9066W        W74326   7.663  25.313  12.340
 9067W        W74327  11.131  18.066  13.034
 9068W        W74328  32.901   0.275   4.664
 9069W        W74329   8.813   5.909  13.911
 9070W        W74330   3.431  11.209  13.158
 9071W        W74331  32.359  32.505  14.359
 9072W        W74332  12.505  31.851   0.953
 9073W        W74333  20.582  29.540   4.396
 9074W        W74334  33.347  39.001   3.693
 9075W        W74335   0.624  34.956  12.443
 9076W        W74336   8.627  25.001   5.017
 9077W        W74337  29.166  24.029  13.406
 9078W        W74338   7.868  22.313   2.749
 9079W        W74339  38.471   5.225   4.221
 9080W        W74340   0.302  44.332  12.487
 9081W        W74341  11.236  14.871   4.609
 9082W        W74342  39.754  31.333  10.739
 9083W        W74343  39.067  13.262   4.600
 9084W        W74344  38.884  26.096   0.749
 9085W        W74345   6.409  14.152  13.668
 9086W        W74346   9.959   2.768   3.626
 9087W        W74347   6.255  44.278  10.635
 9088W        W74348  31.459  37.051  12.994
 9089W        W74349  27.726  29.432   2.769
 9090W        W74350  24.117  14.755   3.557
 9091W        W74351   9.242  34.342   0.768
 9092W        W74352  22.103  41.571   2.451
 9093W        W74353  28.912  11.750  14.230
 9094W        W74354  33.888  16.792   2.191
 9095W        W74355   3.414  20.995  13.897
 9096W        W74356  34.783  10.679   0.971
 9097W        W74357  32.007  28.543   4.538
 9098W        W74358  21.839  40.614  13.878
 9099W        W74359  10.120  13.032   0.885
 9100W        W74360  19.981  16.548  14.010
 9101W        W74361  32.650  10.658   1.498
 9102W        W74362  12.283  17.349   2.387
 9103W        W74363  13.509  18.995  10.760
 9104W        W74364  30.059  24.395   0.685
 9105W        W74365  14.992  28.622   1.371
 9106W        W74366  11.886  43.831   0.788
 9107W        W74367  28.446  16.167  12.486
 9108W        W74368   5.954  38.203  13.448
 9109W        W74369  36.602  37.610   0.397
 9110W        W74370   6.779  37.080  13.445
 9111W        W74371  38.112  10.314  12.931
 9112W        W74372   9.331  14.790  14.354
 9113W        W74373  27.657  22.620   0.405
 9114W        W74374  42.702  34.561  10.845
 9115W        W74375  31.014  39.496   0.747
 9116W        W74376  24.722  44.777  14.196
 9117W        W74377  37.106  25.598   4.974
 9118W        W74378   9.606  27.961   3.529
 9119W        W74379  35.028  18.750  13.439
 9120W        W74380  24.663  42.448  12.524
 9121W        W74381   4.438   8.129   2.363
 9122W        W74382  23.170  30.589  11.552
 9123W        W74383  20.860  10.229  13.385
 9124W        W74384  43.071   9.090   0.543
 9125W        W74385  23.102   2.419   0.333
 9126W        W74386  22.097   7.932   1.879
 9127W        W74387  11.400  30.456  11.173
 9128W        W74388   3.882   5.036   2.643
 9129W        W74389  40.870  33.831   4.214
 9130W        W74390  23.434  35.790  12.987
 9131W        W74391  30.396  16.018   1.888
 9132W        W74392  39.947  26.635   5.160
 9133W        W74393  34.656  34.942  14.278
 9134W        W74394  36.660  42.377  14.460
 9135W        W74395  17.077  27.743   1.169
 9136W        W74396  19.006   8.074   3.455
 9137W        W74397  39.724  21.742   3.096
 9138W        W74398  38.819  37.287   0.256
 9139W        W74399  16.263  10.744   0.992
 9140W        W74400  13.711  38.069   4.122
 9141W        W74401  44.348   0.226   4.164
 9142W        W74402   7.444  37.997   4.043
 9143W        W74403   3.305  33.151  12.873
 9144W        W74404  15.683  17.028  14.631
 9145W        W74405  12.326  23.710  12.619
 9146W        W74406  13.082  30.052   2.258
 9147W        W74407  30.814  29.645  10.238
 9148W        W74408  18.283  43.366   0.393
 9149W        W74409  35.507  20.684   1.794
 9150W        W74410  43.529  17.223   2.825
 9151W        W74411   0.255  30.251   1.296
 9152W        W74412  30.162  26.239   0.853
 9153W        W74413  36.042  11.598  11.810
 9154W        W74414  15.090  22.757  14.082
 9155W        W74415  40.035  31.273   4.121
 9156W        W74416   2.642  30.172   2.555
 9157W        W74417  29.609  36.994  12.845
 9158W        W74418  22.745  36.657  14.962
 9159W        W74419  25.622   2.371   4.147
 9160W        W74420  28.917  36.387  12.140
 9161W        W74421  17.369  22.629   4.072
 9162W        W74422  37.805  40.962   4.083
 9163W        W74423  41.816  11.133   0.075
 9164W        W74424  19.823  25.155   0.471
 9165W        W74425  35.369  41.452   1.162
 9166W        W74426  24.384   8.420   1.957
 9167W        W74427  11.449   2.373   1.377
 9168W        W74428  44.438  33.682   3.727
 9169W        W74429  43.951  43.874   3.514
 9170W        W74430   8.335   7.686   2.237
 9171W        W74431  12.190   4.261   0.563
 9172W        W74432  41.952  25.020   1.872
 9173W        W74433   9.264  34.060  13.988
 9174W        W74434  20.994  38.268   1.866
 9175W        W74435  38.865   7.731   4.846
 9176W        W74436  19.813   5.528  14.875
 9177W        W74437  42.732  44.015   0.975
 9178W        W74438  25.519   0.346  14.887
 9179W        W74439  18.023   1.463   2.754
 9180W        W74440  42.283   7.453   0.119
 9181W        W74441  14.339  42.205  13.069
 9182W        W74442  36.900  23.940   2.249
 9183W        W74443  14.918  11.190  12.851
 9184W        W74444  41.673  21.267  10.363
 9185W        W74445  12.926  18.773   0.405
 9186W        W74446  16.695  16.696  13.250
 9187W        W74447  23.504  35.002  10.251
 9188W        W74448  28.557  17.795   1.869
 9189W        W74449  17.170  41.843  14.491
 9190W        W74450  20.676  16.697   0.767
 9191W        W74451  25.352  22.481  12.016
 9192W        W74452  36.420   8.823   3.061
 9193W        W74453  17.880  31.125   2.880
 9194W        W74454  11.348  18.545  14.288
 9195W        W74455  39.940  39.498   4.286
 9196W        W74456  16.861   1.058  12.924
 9197W        W74457   9.095   9.187   1.935
 9198W        W74458  23.612  31.478  13.513
 9199W        W74459   2.514  29.507  11.945
 9200W        W74460  18.124  18.651  11.399
 9201W        W74461  24.297  30.144  13.474
 9202W        W74462   0.012  21.159  11.982
 9203W        W74463  27.060   6.317   3.560
 9204W        W74464   2.232   3.972  13.393
 9205W        W74465  29.920  11.348   4.204
 9206W        W74466  10.970  36.194   3.766
 9207W        W74467   9.266  25.026   2.725
 9208W        W74468  22.103  27.534   4.786
 9209W        W74469  10.405  43.954  12.583
 9210W        W74470  13.368  40.500  14.304
 9211W        W74471  42.073  10.627   4.117
 9212W        W74472  16.171  28.718   0.757
 9213W        W74473  31.590  40.386  14.836
 9214W        W74474   5.295  17.731  11.433
 9215W        W74475   8.845  36.685   3.725
 9216W        W74476  28.201  41.932  12.031
 9217W        W74477  35.424  12.901  13.981
 9218W        W74478  17.085   6.183   3.707
 9219W        W74479  13.862  43.295  12.046
 9220W        W74480  25.879  25.950  14.958
 9221W        W74481  10.851  13.118   4.948
 9222W        W74482  41.737  43.542  12.450
 9223W        W74483  24.038  24.064   0.764
 9224W        W74484   5.868   8.346   0.931
 9225W        W74485   4.207   7.752   4.555
 9226W        W74486  10.162  21.429  11.438
 9227W        W74487  37.338  11.161  13.558
 9228W        W74488   5.656  36.984  14.862
 9229W        W74489   9.755  31.189   0.292
 9230W        W74490  36.073  18.958  14.818
 9231W        W74491  31.224   3.355  11.264
 9232W        W74492  39.824   8.259   0.235
 9233W        W74493  26.559  21.108  12.372
 9234W        W74494  18.036   3.711   1.633
 9235W        W74495  10.548  22.449  11.152
 9236W        W74496  25.879   5.464  11.734
 9237W        W74497  22.015  18.789   0.669
 9238W        W74498  39.866  20.266  14.180
 9239W        W74499   8.633   0.206  12.069
 9240W        W74500  20.813  15.359  12.800
 9241W        W74501  12.556   6.333  10.032
 9242W        W74502  10.375   4.796   1.363
 9243W        W74503  15.477  11.083   9.909
 9244W        W74504  12.450  19.998  13.389
 9245W        W74505  26.912  22.066   0.280
 9246W        W74506  38.957  23.041  11.056
 9247W        W74507  17.252  35.494   4.745
 9248W        W74508  27.385   7.860   3.573
 9249W        W74509  14.179   6.381   3.379
 9250W        W74510  28.685  16.790   4.526
 9251W        W74511  21.035  27.617   1.518
 9252W        W74512  43.012  23.493   1.038
 9253W        W74513  14.170  11.526  12.431
 9254W        W74514   4.721  16.778   0.238
 9255W        W74515  25.740  30.474   3.488
 9256W        W74516   6.618  30.531  11.912
 9257W        W74517  29.333   3.243  13.352
 9258W        W74518   2.817  27.540   4.770
 9259W        W74519  16.069  19.256  12.983
 9260W        W74520   7.593  41.780  11.027
 9261W        W74521  19.995  16.783   3.690
 9262W        W74522  29.697  35.844  13.989
 9263W        W74523  27.397  44.323   2.404
 9264W        W74524   2.810  12.274  11.246
 9265W        W74525  27.099   5.792   3.519
 9266W        W74526  20.802   4.288  11.986
 9267W        W74527  25.560  41.071   0.026
 9268W        W74528  37.590  42.435  13.427
 9269W        W74529  17.324  12.402  12.937
 9270W        W74530  15.176  25.679   4.044
 9271W        W74531  14.186  20.793   0.639
 9272W        W74532  32.054  40.570   1.897
 9273W        W74533  16.275  36.871  10.528
 9274W        W74534  28.735  36.625   3.809
 9275W        W74535  26.139  24.724  12.100
 9276W        W74536  40.060  31.379  11.162
 9277W        W74537  28.200  11.004   1.943
 9278W        W74538  28.889  38.086   1.858
 9279W        W74539   9.667  33.126  10.685
 9280W        W74540   0.962  13.288   2.334
 9281W        W74541  25.634   5.230   9.903
 9282W        W74542   0.749  33.284  12.588
 9283W        W74543   1.409  42.246  13.478
 9284W        W74544   9.886  42.159   1.267
 9285W        W74545  33.612  24.936   0.278
 9286W        W74546  11.842   9.617   0.998
 9287W        W74547  18.727  27.402   0.481
 9288W        W74548  36.048  22.794  10.945
 9289W        W74549  34.278  14.139  14.359
 9290W        W74550  41.594  25.112   2.677
 9291W        W74551  16.233  17.006   4.241
 9292W        W74552  15.380  11.695   0.708
 9293W        W74553  18.114  35.912  12.588
 9294W        W74554  22.119   5.787  12.299
 9295W        W74555  12.212  31.926   3.100
 9296W        W74556  32.950  20.106   4.672
 9297W        W74557   8.970  25.132  11.524
 9298W        W74558  26.874   7.895   3.607
 9299W        W74559   6.883   0.204   3.156
 9300W        W74560  44.775  44.446   0.370
 9301W        W74561  30.637   6.911   0.714
 9302W        W74562  43.516  14.047   1.027
 9303W        W74563   6.591  27.958   0.103
 9304W        W74564  23.164  40.241  11.111
 9305W        W74565  16.622   3.228  13.952
 9306W        W74566  16.733  42.958   3.107
 9307W        W74567   5.285  19.706  11.820
 9308W        W74568   4.463  32.532   2.304
 9309W        W74569  40.780  12.692   4.832
 9310W        W74570  19.568  20.475   0.035
 9311W        W74571  25.429  20.979  14.403
 9312W        W74572  36.459  42.222   3.625
 9313W        W74573  33.134  38.282  12.506
 9314W        W74574  12.928  23.397   2.871
 9315W        W74575  12.804  35.965  14.509
 9316W        W74576  12.657   2.808   1.640
 9317W        W74577  33.170   0.382   1.750
 9318W        W74578  13.022   0.440   1.239
 9319W        W74579  25.251  28.021  13.570
 9320W        W74580  42.822  35.142  13.531
 9321W        W74581  27.675  22.466   3.124
 9322W        W74582  10.593  32.625   1.928
 9323W        W74583  21.026  10.214   1.373
 9324W        W74584   8.156   0.444  11.168
 9325W        W74585   4.845  28.878   2.805
 9326W        W74586  31.828  32.906   0.543
 9327W        W74587   1.313  35.127   0.067
 9328W        W74588  34.628  18.183  12.460
 9329W        W74589   0.912  29.694   3.830
 9330W        W74590  19.335  41.928   0.364
 9331W        W74591   0.735   6.969   2.225
 9332W        W74592  15.723  30.131  12.509
 9333W        W74593  38.460  33.136   2.731
 9334W        W74594  23.910  11.838  12.528
 9335W        W74595  38.903   5.899   4.811
 9336W        W74596   9.394  43.754  10.615
 9337W        W74597  23.539  37.314   2.367
 9338W        W74598  10.236  14.857  10.631
 9339W        W74599  43.458   8.729   4.699
 9340W        W74600  20.659   4.130   2.675
 9341W        W74601   3.457  14.134  14.726
 9342W        W74602  15.517  23.637   4.584
 9343W        W74603  37.914  29.574   3.289
 9344W        W74604  32.804  16.060   2.378
 9345W        W74605   3.966  38.479  13.944
 9346W        W74606  35.641  32.154  11.143
 9347W        W74607  39.485  18.113  10.772
 9348W        W74608  34.038  24.173   3.882
 9349W        W74609  42.517   6.255   1.590
 9350W        W74610  30.206  13.372  14.397
 9351W        W74611  42.367   0.225  13.995
 9352W        W74612   0.342  43.034   1.158
 9353W        W74613  35.430  40.857  11.038
 9354W        W74614   6.326  19.256  13.490
 9355W        W74615   3.656  34.428  11.572
 9356W        W74616  36.871  23.243   0.734
 9357W        W74617  42.671   0.993  12.020
 9358W        W74618  41.792  29.034   4.609
 9359W        W74619  31.131  37.861   2.166
 9360W        W74620  10.299  33.790   1.482
 9361W        W74621  31.422  31.510  14.438
 9362W        W74622   8.526   6.719  10.191
 9363W        W74623  17.484  15.704   0.688
 9364W        W74624  38.768  17.336   1.474
 9365W        W74625  37.155  12.906   1.113
 9366W        W74626  38.633  43.245   2.764
 9367W        W74627  32.046  19.770  11.604
 9368W        W74628  18.468  26.134   2.697
 9369W        W74629  18.963  31.046  13.134
 9370W        W74630  25.186  27.142  13.869
 9371W        W74631  32.579  42.933  12.435
 9372W        W74632   0.220  14.354  10.579
 9373W        W74633  35.902  37.927   1.437
 9374W        W74634  37.354  32.297  11.020
 9375W        W74635  24.847   3.491   4.437
 9376W        W74636   9.127  41.433  10.982
 9377W        W74637  33.111  10.045   2.222
 9378W        W74638  33.641  15.286   0.952
 9379W        W74639  44.686   7.332  13.521
 9380W        W74640   7.368  40.934  12.513
 9381W        W74641  44.873  22.565  11.869
 9382W        W74642  28.956   0.969   3.883
 9383W        W74643  34.416  39.552   1.032
 9384W        W74644  24.922   9.692  10.601
 9385W        W74645  42.348   8.380   3.009
 9386W        W74646  35.592  35.506   1.399
 9387W        W74647  17.247  38.053  12.767
 9388W        W74648   8.499  26.547   2.692
 9389W        W74649  21.556  24.254   3.531
 9390W        W74650  14.840  18.221   4.342
 9391W        W74651  18.649  23.371   4.607
 9392W        W74652  24.150  12.421   1.910
 9393W        W74653  36.078  14.980   2.673
 9394W        W74654  44.058  15.203  12.389
 9395W        W74655   5.979   1.390  10.579
 9396W        W74656  35.334   8.119   1.168
 9397W        W74657  38.408   8.845   1.874
 9398W        W74658   3.638  12.397   0.841
 9399W        W74659  36.847  36.030  12.408
 9400W        W74660  23.684  13.369  11.880
 9401W        W74661  27.019  26.625  11.242
 9402W        W74662  44.277  41.071  14.521
 9403W        W74663  18.821  23.690  10.503
 9404W        W74664  28.497   0.060   3.172
 9405W        W74665  39.705  24.268   1.297
 9406W        W74666   2.927  13.254   4.545
 9407W        W74667  34.404  21.802   0.009
 9408W        W74668  20.042  35.449   1.343
 9409W        W74669  24.504  13.114   2.277
 9410W        W74670  44.009  43.951   2.969
 9411W        W74671  26.157  41.834   0.001
 9412W        W74672  44.522  27.182  14.465
 9413W        W74673  11.888  13.227   2.993
 9414W        W74674  40.250  31.728  11.629
 9415W        W74675  15.146  39.485   1.316
 9416W        W74676   1.705  31.121   1.010
 9417W        W74677  17.789  38.884   0.748
 9418W        W74678  42.384  21.688   4.109
 9419W        W74679   8.430   0.413   1.819
 9420W        W74680  28.162  41.041   4.639
 9421W        W74681   4.223  41.498  13.138
 9422W        W74682  39.877   6.186   2.911
 9423W        W74683  38.514  38.540   1.916
 9424W        W74684  13.049  15.848   1.760
 9425W        W74685  41.377   2.770   3.344
 9426W        W74686  22.302   3.728   2.719
 9427W        W74687  13.801  39.432   4.816
 9428W        W74688  36.951  35.055   1.041
 9429W        W74689  11.213   8.584  14.988
 9430W        W74690   9.268  43.074   3.745
 9431W        W74691  44.772  29.769  13.420
 9432W        W74692  29.044   7.851  10.615
 9433W        W74693  38.991   5.774   3.654
 9434W        W74694  16.215  37.311   4.141
 9435W        W74695  22.142  23.919   4.220
 9436W        W74696  31.366  40.051  10.901
 9437W        W74697   3.708  37.850   0.160
 9438W        W74698  43.908  21.538  10.316
 9439W        W74699   3.814   3.876   0.960
 9440W        W74700  15.841  25.606   2.139
 9441W        W74701  37.184   5.424  11.767
 9442W        W74702  18.791   4.789  10.338
 9443W        W74703  17.780  38.217  10.577
 9444W        W74704  37.381   9.903  11.451
 9445W        W74705  11.035  35.793  12.110
 9446W        W74706  17.957  43.759   0.283
 9447W        W74707  14.057  23.693   2.144
 9448W        W74708  28.061  29.206  11.640
 9449W        W74709  33.336  39.345  12.005
 9450W        W74710  25.718   5.820   0.872
 9451W        W74711  23.178  40.310  14.572
 9452W        W74712  37.012  29.590   2.255
 9453W        W74713   0.212  30.961  12.421
 9454W        W74714   6.247  43.343   4.551
 9455W        W74715  30.828   0.953   4.616
 9456W        W74716   4.965   8.103  12.093
 9457W        W74717  30.442  42.312  11.992
 9458W        W74718  24.575   9.739  14.672
 9459W        W74719  26.402   3.475  12.885
 9460W        W74720  10.298  28.089   1.011
 9461W        W74721   5.743  34.551  13.726
 9462W        W74722  25.115  15.895  14.618
 9463W        W74723  34.833  17.299   4.598
 9464W        W74724  31.147  35.329  11.889
 9465W        W74725  16.276  11.321   1.721
 9466W        W74726  33.962  37.096  13.382
 9467W        W74727   4.316  18.267  14.518
 9468W        W74728  41.345   5.246   0.847
 9469W        W74729  32.455  28.197   3.132
 9470W        W74730  18.789   6.478   1.363
 9471W        W74731   7.212  10.432  12.424
 9472W        W74732  39.390  38.365  13.392
 9473W        W74733  23.605   6.887   4.640
 9474W        W74734  40.828  11.111  12.124
 9475W        W74735  39.350  13.841   3.590
 9476W        W74736  44.873  15.674  14.991
 9477W        W74737  36.679  12.729   1.184
 9478W        W74738  32.529  34.874   0.941
 9479W        W74739  38.942  21.320  10.606
 9480W        W74740   9.466  26.727  14.388
 9481W        W74741  15.048   6.433   0.511
 9482W        W74742  32.148  25.210  13.048
 9483W        W74743  31.605   0.728  12.510
 9484W        W74744  24.973   2.740  14.029
 9485W        W74745   8.691  22.685   2.709
 9486W        W74746  22.527  15.837  14.880
 9487W        W74747  10.242  28.223  14.035
 9488W        W74748   6.838  16.204   2.062
 9489W        W74749  35.113  38.336   0.763
 9490W        W74750   6.366  30.964   1.594
 9491W        W74751  22.786  16.701  13.087
 9492W        W74752  43.573  39.747  12.509
 9493W        W74753  35.408  42.537   4.087
 9494W        W74754  35.983  15.005  14.929
 9495W        W74755  32.830  30.394  12.591
 9496W        W74756  32.466  24.637  10.358
 9497W        W74757  13.908  28.638  11.520
 9498W        W74758  33.896  26.009  12.779
 9499W        W74759  26.946   0.053   2.733
 9500W        W74760  13.625  13.583  11.997
 9501W        W74761  42.182  41.057  13.075
 9502W        W74762  35.500  39.896  14.870
 9503W        W74763  43.296  40.984   0.302
 9504W        W74764  35.493  13.995   2.361
 9505W        W74765  21.201  13.977   2.091
 9506W        W74766  11.558  34.560  14.915
 9507W        W74767   0.283  14.362  12.949
 9508W        W74768  33.631  20.203   2.393
 9509W        W74769  19.086  12.224  11.123
 9510W        W74770  18.550  27.251   4.439
 9511W        W74771  34.378  33.840   4.584
 9512W        W74772  14.622  32.945   3.811
 9513W        W74773  13.213  20.987   4.491
 9514W        W74774  36.802  16.834   0.833
 9515W        W74775   3.143  27.402  11.549
 9516W        W74776   9.934   3.299   0.420
 9517W        W74777  21.643  20.326   4.970
 9518W        W74778  12.533  35.135  12.088
 9519W        W74779  35.974  13.256  10.681
 9520W        W74780   8.938  16.894  13.776
 9521W        W74781  25.721  13.534   0.189
 9522W        W74782  25.121   3.646  13.867
 9523W        W74783  19.166  32.974  14.470
 9524W        W74784  16.849  11.019   3.072
 9525W        W74785  19.514  28.754  14.951
 9526W        W74786  17.645   9.236  14.002
 9527W        W74787   9.717  16.310   0.312
 9528W        W74788   8.127  21.577  10.679
 9529W        W74789  16.791   5.912  13.954
 9530W        W74790  13.049   4.431  12.947
 9531W        W74791   4.395  37.789   3.820
 9532W        W74792  24.917  20.722   1.698
 9533W        W74793  36.306  36.578  13.863
 9534W        W74794   4.275  28.088  13.548
 9535W        W74795  39.076  17.580   3.636
 9536W        W74796  37.044  34.867  11.386
 9537W        W74797  23.964  29.919  14.952
 9538W        W74798  12.726  15.987   4.642
 9539W        W74799  40.777  39.669  10.704
 9540W        W74800  10.394  26.642  13.182
 9541W        W74801  30.914   3.283  11.674
 9542W        W74802  21.256   5.172  14.815
 9543W        W74803  14.214   0.515   3.132
 9544W        W74804  11.967  32.033  14.265
 9545W        W74805   1.307  13.873   0.954
 9546W        W74806  25.699  11.601   1.795
 9547W        W74807   4.434  42.083  12.576
 9548W        W74808  29.623   6.789  12.988
 9549W        W74809  10.846  23.387  14.047
 9550W        W74810  33.471  32.529  11.690
 9551W        W74811  29.211  22.960  10.581
 9552W        W74812  12.793  34.562   1.059
 9553W        W74813   2.735   7.175   2.761
 9554W        W74814  18.105  18.367  13.342
 9555W        W74815  37.239  22.157  12.077
 9556W        W74816  20.211  14.393   1.104
 9557W        W74817   6.445   7.778  12.117
 9558W        W74818   1.355  27.139  14.984
 9559W        W74819  32.138  16.093   4.698
 9560W        W74820  19.057   7.418  12.452
 9561W        W74821  10.344   8.661   1.909
 9562W        W74822  17.532  38.041  14.511
 9563W        W74823  43.392  35.114  12.171
 9564W        W74824   6.702  31.595  11.677
 9565W        W74825  44.922  40.111  10.773
 9566W        W74826   3.980  18.541  11.076
 9567W        W74827  15.307  20.189  10.137
 9568W        W74828  17.605  22.508   2.734
 9569W        W74829  11.889  12.230  12.525
 9570W        W74830  36.773   9.766   0.085
 9571W        W74831   7.225  41.977   0.726
 9572W        W74832  22.043  42.866  12.425
 9573W        W74833  27.119   6.456  12.498
 9574W        W74834  18.500   4.342   4.468
 9575W        W74835  37.032  33.087   2.285
 9576W        W74836   4.610  15.742  14.297
 9577W        W74837  24.490  40.139  14.094
 9578W        W74838  13.777   3.660   1.825
 9579W        W74839  30.550  10.048  10.701
 9580W        W74840  34.585  19.376  12.096
 9581W        W74841  41.080  12.325   1.702
 9582W        W74842  34.959   7.310  10.412
 9583W        W74843  44.027   9.619  10.363
 9584W        W74844   3.824  44.382  11.623
 9585W        W74845   2.300  27.549  13.360
 9586W        W74846   3.974  19.925  11.071
 9587W        W74847  22.012   3.095   1.250
 9588W        W74848  16.154  35.625  11.180
 9589W        W74849  11.726  13.833   1.788
 9590W        W74850   4.143  34.209  11.515
 9591W        W74851  40.104  33.102   0.803
 9592W        W74852   9.272   7.268   2.823
 9593W        W74853  20.563  25.707   4.271
 9594W        W74854  28.599  25.620  14.320
 9595W        W74855  23.265   5.997   5.313
 9596W        W74856   6.428  31.645  14.497
 9597W        W74857  39.359  38.827  13.607
 9598W        W74858  35.669  13.055  13.495
 9599W        W74859  15.471  21.027   5.379
 9600W        W74860  20.089  28.469  11.590
 9601W        W74861  28.232  14.149  11.580
 9602W        W74862  24.756  16.565   1.771
 9603W        W74863  24.029  42.911   3.918
 9604W        W74864  37.871  28.005   1.939
 9605W        W74865   9.369  10.842  13.374
 9606W        W74866  10.433   1.370   4.043
 9607W        W74867  41.542  35.587   0.388
 9608W        W74868  40.837  33.106   2.373
 9609W        W74869   9.180  29.573   3.796
 9610W        W74870  24.114  27.958   1.562
 9611W        W74871  27.723   9.739  12.917
 9612W        W74872  42.576  25.959  12.061
 9613W        W74873  26.666  12.176   0.795
 9614W        W74874  34.586  38.012  13.085
 9615W        W74875  26.719  39.548  12.609
 9616W        W74876  24.913  19.109  12.576
 9617W        W74877  36.858  23.319  11.604
 9618W        W74878  17.726   3.906   1.269
 9619W        W74879   9.852   8.299   2.712
 9620W        W74880  38.948  44.026  11.089
 9621W        W74881  32.554  23.701   4.548
 9622W        W74882  12.096   2.093   1.816
 9623W        W74883  15.677  42.450   0.015
 9624W        W74884  34.791   5.591  10.225
 9625W        W74885   9.656  28.257   0.303
 9626W        W74886   2.279  28.142  11.517
 9627W        W74887  13.021  21.824   3.565
 9628W        W74888  44.836  13.256  14.575
 9629W        W74889  41.045  43.162  14.935
 9630W        W74890  39.360   5.353   3.085
 9631W        W74891   7.395   7.907   3.890
 9632W        W74892  34.347  15.249  11.612
 9633W        W74893  29.975  16.525  11.481
 9634W        W74894  20.514  26.441   2.166
 9635W        W74895  16.442  24.598   2.467
 9636W        W74896  36.888   2.912   2.691
 9637W        W74897  36.109  23.151  12.563
 9638W        W74898   7.222  27.295  14.440
 9639W        W74899  12.581  21.200  14.503
 9640W        W74900  38.321  16.607   0.708
 9641W        W74901   7.285   4.162   3.099
 9642W        W74902  18.849  17.670   1.862
 9643W        W74903  33.557  12.610   1.465
 9644W        W74904  27.325   3.159   3.467
 9645W        W74905  15.187   9.750   0.717
 9646W        W74906  41.318  31.591  12.365
 9647W        W74907  38.317  23.728  14.951
 9648W        W74908  30.181  36.165   0.507
 9649W        W74909  26.129  19.172   9.923
 9650W        W74910  21.987  31.660   0.265
 9651W        W74911  25.140  39.999   2.493
 9652W        W74912  11.156  22.603  14.028
 9653W        W74913  43.797  33.417   2.328
 9654W        W74914  24.481  41.091  10.676
 9655W        W74915  38.847  11.230   3.366
 9656W        W74916  14.341  43.192  14.800
 9657W        W74917  42.382  22.375  14.356
 9658W        W74918  41.379  35.716   2.857
 9659W        W74919  34.048  37.509   2.184
 9660W        W74920  23.485   9.408   1.492
 9661W        W74921  26.273  15.874  13.487
 9662W        W74922  39.045   5.122   0.875
 9663W        W74923  31.336  31.230  14.024
 9664W        W74924  15.448  30.013  14.901
 9665W        W74925  37.571   0.140   4.063
 9666W        W74926  28.332  11.402   0.726
 9667W        W74927  15.257  35.988  14.989
 9668W        W74928  43.069  38.581  14.644
 9669W        W74929   7.750  12.332   4.763
 9670W        W74930  35.879  38.437   2.343
 9671W        W74931  44.696   5.412   0.987
 9672W        W74932  21.178  29.397  14.346
 9673W        W74933  23.279  17.763  14.928
 9674W        W74934  33.589  33.588   2.131
 9675W        W74935  10.484  41.037  13.967
 9676W        W74936  14.710  37.007   0.802
 9677W        W74937  30.875  39.098   1.694
 9678W        W74938   3.318  14.211  14.236
 9679W        W74939   9.721   6.696  11.968
 9680W        W74940  11.177   8.733  14.468
 9681W        W74941  41.194  38.368  14.373
 9682W        W74942  32.639   1.954  11.130
 9683W        W74943  33.913   7.241  13.559
 9684W        W74944   3.983  14.715   1.794
 9685W        W74945  41.089  43.079  11.201
 9686W        W74946  23.462   6.827   1.789
 9687W        W74947  31.984  11.899   1.687
 9688W        W74948  24.944  16.231  13.468
 9689W        W74949  24.313  21.697  12.066
 9690W        W74950  32.907  11.905   1.339
 9691W        W74951  28.384  11.747   4.442
 9692W        W74952  30.980  19.599  13.851
 9693W        W74953  35.845  18.487  14.312
 9694W        W74954   8.744  17.680  12.757
 9695W        W74955  42.426  12.856   1.170
 9696W        W74956  21.526  40.072  14.638
 9697W        W74957  26.341  14.066   1.913
 9698W        W74958  21.499  44.391   3.142
 9699W        W74959  37.520  25.205  13.840
 9700W        W74960  19.492  28.186   0.813
 9701W        W74961  38.760  23.491   3.429
 9702W        W74962   5.691  44.558   4.175
 9703W        W74963   4.336   4.850  12.704
 9704W        W74964  19.614  35.407  11.637
 9705W        W74965   3.489  37.864   1.189
 9706W        W74966  12.056  22.433  11.977
 9707W        W74967  28.587  30.197   4.055
 9708W        W74968  28.060  39.281  10.660
 9709W        W74969  37.844  34.505  13.859
 9710W        W74970  29.389  11.846  12.861
 9711W        W74971  24.446  34.005  13.833
 9712W        W74972  21.195  21.688  10.653
 9713W        W74973  16.100  27.180  11.212
 9714W        W74974  27.496  30.553  13.032
 9715W        W74975  40.249  34.311  12.898
 9716W        W74976  13.191  20.270   1.370
 9717W        W74977  10.427  28.025  14.891
 9718W        W74978  35.896   3.462  13.308
 9719W        W74979  44.484  10.890  13.810
 9720W        W74980  20.089   4.497  14.997
 9721W        W74981  34.082  22.513  11.568
 9722W        W74982  21.769  12.898  10.597
 9723W        W74983  15.153   2.730  10.543
 9724W        W74984  30.866  19.765   3.177
 9725W        W74985  21.055  21.694  13.435
 9726W        W74986   8.954  15.181  12.801
 9727W        W74987  41.355   1.925  10.693
 9728W        W74988  15.117  26.628   1.525
 9729W        W74989   4.981  17.076   4.945
 9730W        W74990  30.892  29.164  11.195
 9731W        W74991   7.807   1.242  13.549
 9732W        W74992  38.994  17.648  13.873
 9733W        W74993  24.601   2.746  14.961
 9734W        W74994   4.192  12.793   1.648
 9735W        W74995  29.577  42.960   3.174
 9736W        W74996  39.364  13.560   4.083
 9737W        W74997   0.949  29.705   0.928
 9738W        W74998  41.761  39.410   0.453
 9739W        W74999  29.105  30.927  12.392
 9740W        W75000  30.202  22.161  12.966
 9741W        W75001  12.141  12.631   3.216
 9742W        W75002  24.971  24.071   3.372
 9743W        W75003   9.327  13.224   3.255
 9744W        W75004  16.553  40.253   1.306
 9745W        W75005  43.073   8.926  12.811
 9746W        W75006  23.085  41.587   2.830
 9747W        W75007  32.312   6.618  11.223
 9748W        W75008  21.319  37.525   1.202
 9749W        W75009   2.264  35.978  13.496
 9750W        W75010  28.080  44.744  12.017
 9751W        W75011  15.358  38.443   2.160
 9752W        W75012   3.943  41.361  10.579
 9753W        W75013  15.181  22.775   4.700
 9754W        W75014  38.361  12.509  10.602
 9755W        W75015  34.607   7.957   2.749
 9756W        W75016  24.663  16.313  10.428
 9757W        W75017   3.834  34.867   2.349
 9758W        W75018  35.392  21.294  14.109
 9759W        W75019  16.482  10.392  14.416
 9760W        W75020  17.814   1.521   0.913
 9761W        W75021  38.641  13.275   3.175
 9762W        W75022   0.777  27.665  11.141
 9763W        W75023  14.154  10.050  11.428
 9764W        W75024  12.747  24.324   2.335
 9765W        W75025  37.529   7.587  13.925
 9766W        W75026  35.988  23.129  13.053
 9767W        W75027  23.482   5.690  12.427
 9768W        W75028  40.020  43.398  14.460
 9769W        W75029  22.895  24.466  10.764
 9770W        W75030  25.610  10.734  11.475
 9771W        W75031  42.856   3.121  12.277
 9772W        W75032  37.123   1.335   1.210
 9773W        W75033  42.960  18.326  12.580
 9774W        W75034  34.348  18.052   4.627
 9775W        W75035  17.693   5.674  13.458
 9776W        W75036  36.052  28.644   2.413
 9777W        W75037  43.463   5.875   2.829
 9778W        W75038  21.058   6.910   4.007
 9779W        W75039  35.971  27.389  12.446
 9780W        W75040  29.706  35.495   0.274
 9781W        W75041  37.725  35.004  14.425
 9782W        W75042  33.366  41.604  10.072
 9783W        W75043  20.463   2.388   0.311
 9784W        W75044  17.620   7.419  11.483
 9785W        W75045  30.391  15.717  14.231
 9786W        W75046  34.553  33.111  13.390
 9787W        W75047  33.812  44.153  13.102
 9788W        W75048  31.156  38.873  12.986
 9789W        W75049  23.891  10.793   1.048
 9790W        W75050  25.717  20.159   2.633
 9791W        W75051   5.869  43.439  11.063
 9792W        W75052  30.067   9.649  13.334
 9793W        W75053  38.021   6.231  13.263
 9794W        W75054  27.129   4.655   5.276
 9795W        W75055  25.512  20.043  12.847
 9796W        W75056  41.998  23.902  12.757
 9797W        W75057  36.939  17.692   0.923
 9798W        W75058  25.250   5.216   2.510
 9799W        W75059  28.424  14.608   0.699
 9800W        W75060   1.016  21.011  10.426
 9801W        W75061   4.959  22.603  14.111
 9802W        W75062  22.561   1.001   3.717
 9803W        W75063  32.105   6.475  11.690
 9804W        W75064  27.357  15.779  10.166
 9805W        W75065   4.576  17.707  13.627
 9806W        W75066  14.546  31.211  12.117
 9807W        W75067   0.417   8.142   1.142
 9808W        W75068  34.932  38.120  11.564
 9809W        W75069  13.342   0.231   2.966
 9810W        W75070   5.958   6.762  13.053
 9811W        W75071  33.972   5.457  11.971
 9812W        W75072   6.765  25.833   4.138
 9813W        W75073   9.770  23.877  11.619
 9814W        W75074   2.759  27.114   3.474
 9815W        W75075  25.705   3.632  14.454
 9816W        W75076  16.838  31.795  12.978
 9817W        W75077  29.589  19.674  10.230
 9818W        W75078  25.656  28.131  12.735
 9819W        W75079  35.738  26.284   3.962
 9820W        W75080  37.637  41.926   1.960
 9821W        W75081  35.679  36.764   3.577
 9822W        W75082  42.168  24.242  11.077
 9823W        W75083  41.427  11.180   2.310
 9824W        W75084  13.872  30.896  13.004
 9825W        W75085   4.184  16.676   1.384
 9826W        W75086  29.584   7.294   3.861
 9827W        W75087   2.616   5.944  14.404
 9828W        W75088  42.346  23.976   0.981
 9829W        W75089  14.262  12.061   2.923
 9830W        W75090  38.968   9.000  11.508
 9831W        W75091  17.118  23.263  13.947
 9832W        W75092   9.490   2.925   1.393
 9833W        W75093   8.084   7.172  12.119
 9834W        W75094   3.406  14.881   1.379
 9835W        W75095  24.983  39.497   3.313
 9836W        W75096  23.694  41.766   3.157
 9837W        W75097   5.988  10.832   3.341
 9838W        W75098  44.547  22.133  13.512
 9839W        W75099   7.260   9.778   4.223
 9840W        W75100  12.698  26.408  12.547
 9841W        W75101  11.671  29.913   4.656
 9842W        W75102  33.333  18.521  14.340
 9843W        W75103  20.683  38.547  10.612
 9844W        W75104  35.138  34.256  14.754
 9845W        W75105  44.415   4.691  11.599
 9846W        W75106  14.817  36.433  14.281
 9847W        W75107  28.944  26.063   1.433
 9848W        W75108  22.703  13.819   1.400
 9849W        W75109   9.298  12.407   1.447
 9850W        W75110  13.119  40.422   2.172
 9851W        W75111  29.098  24.124   0.200
 9852W        W75112  36.916  26.430   1.384
 9853W        W75113  23.881  37.047   3.254
 9854W        W75114  36.928   3.725   2.316
 9855W        W75115  38.821  42.394   2.875
 9856W        W75116  34.486  16.645  13.476
 9857W        W75117   7.894  12.853  14.897
 9858W        W75118  30.009  35.672   2.121
 9859W        W75119  29.251  35.453  14.407
 9860W        W75120  10.419  15.028   4.225
 9861W        W75121  11.089  31.616   4.074
 9862W        W75122  23.070  13.779  10.542
 9863W        W75123   7.440  38.244  11.238
 9864W        W75124  29.576  28.699   1.558
 9865W        W75125  16.199  28.170   0.747
 9866W        W75126  24.077   7.310  12.000
 9867W        W75127  22.429   6.401   2.296
 9868W        W75128  19.414  17.853   0.075
 9869W        W75129  17.792   2.470  14.337
 9870W        W75130  27.965   4.768  14.038
 9871W        W75131  39.317  31.843   0.415
 9872W        W75132   7.721  10.587   2.725
 9873W        W75133  21.281  23.730   4.485
 9874W        W75134  23.125  27.892   0.483
 9875W        W75135  11.685  26.008  14.058
 9876W        W75136   3.762  19.805   0.228
 9877W        W75137  15.313  38.456  10.659
 9878W        W75138   2.947  38.636  11.998
 9879W        W75139  11.715   1.512  14.072
 9880W        W75140  11.851  30.340   1.301
 9881W        W75141  43.340  13.737  12.060
 9882W        W75142  10.523  19.247  14.250
 9883W        W75143   8.886  11.252   0.182
 9884W        W75144  42.823  25.996  14.967
 9885W        W75145   8.403   0.371  11.625
 9886W        W75146  41.003  25.214  12.020
 9887W        W75147  25.652  37.794   1.820
 9888W        W75148   3.502   1.960  13.290
 9889W        W75149  27.697  22.365  14.047
 9890W        W75150  12.545  43.376   2.332
 9891W        W75151  19.067   4.765  14.066
 9892W        W75152  38.163  21.668  13.760
 9893W        W75153   0.827  33.331   2.195
 9894W        W75154  14.864  36.567  10.528
 9895W        W75155  33.568   3.240   3.092
 9896W        W75156  13.101   0.235  11.639
 9897W        W75157  15.988  35.195  12.573
 9898W        W75158   4.825  24.597  12.643
 9899W        W75159  13.739  11.167   3.661
 9900W        W75160  30.901   7.949   1.413
 9901W        W75161  10.921   3.293   3.266
 9902W        W75162  39.280  12.206   1.493
 9903W        W75163  10.208  23.299  10.978
 9904W        W75164  38.868  21.567  11.076
 9905W        W75165  41.110  14.462   9.895
 9906W        W75166  43.936  10.636   4.473
 9907W        W75167  23.787  13.957   4.655
 9908W        W75168  41.266  33.031  12.457
 9909W        W75169  24.750  15.345   1.810
 9910W        W75170  20.232  11.367  11.002
 9911W        W75171  20.584  26.850   3.213
 9912W        W75172  20.445  39.289   3.156
 9913W        W75173  27.570   0.598   2.366
 9914W        W75174  20.609  11.310   2.555
 9915W        W75175  13.830  44.460  11.143
 9916W        W75176   3.325  12.906   5.130
 9917W        W75177   2.563  14.635   0.333
 9918W        W75178  40.029  41.144  11.673
 9919W        W75179  20.806  27.021  12.638
 9920W        W75180  39.377  36.784   4.158
 9921W        W75181  37.968  27.942   0.256
 9922W        W75182  40.615   5.771  13.517
 9923W        W75183  34.593  40.828   2.737
 9924W        W75184  20.494  40.099  10.721
 9925W        W75185  24.716  24.736   0.458
 9926W        W75186   3.430   2.962  13.958
 9927W        W75187  22.538  25.449  11.011
 9928W        W75188  39.333  44.439  12.689
 9929W        W75189  21.821   2.258  14.920
 9930W        W75190  31.463  24.634   5.129
 9931W        W75191  14.519  30.436   1.857
 9932W        W75192   1.440  23.678  12.884
 9933W        W75193   2.209   2.505  11.983
 9934W        W75194  17.867   2.451  12.901
 9935W        W75195  28.591  43.792  14.231
 9936W        W75196  30.701  37.978   1.204
 9937W        W75197  23.221  28.730  14.987
 9938W        W75198  18.541  13.207  11.079
 9939W        W75199  28.891  14.465  14.935
 9940W        W75200  43.482  27.022   3.216
 9941W        W75201  14.963  12.636  11.506
 9942W        W75202  14.313  17.642   0.353
 9943W        W75203  17.679   6.360   0.636
 9944W        W75204   3.240  36.975   1.601
 9945W        W75205  12.281  11.037   4.140
 9946W        W75206   4.676  21.645   2.176
 9947W        W75207  16.918  35.021  12.498
 9948W        W75208   1.546   1.406   4.290
 9949W        W75209   6.323  25.089  12.319
 9950W        W75210  22.198  38.754  11.047
 9951W        W75211  41.543   5.369   2.762
 9952W        W75212  39.585  21.072   3.709
 9953W        W75213  16.212  30.147  12.643
 9954W        W75214   7.378   8.685   1.228
 9955W        W75215  33.317  18.165   0.261
 9956W        W75216  23.159  20.830  11.700
 9957W        W75217   9.594   5.751   1.771
 9958W        W75218  10.026  37.540   2.682
 9959W        W75219  20.778   6.301  11.943
 9960W        W75220  14.801   7.359  12.704
 9961W        W75221  44.521   0.505  12.511
 9962W        W75222  32.658  20.349   0.672
 9963W        W75223  26.908  22.068   3.676
 9964W        W75224  15.649  26.577  10.615
 9965W        W75225  12.238   5.471   2.196
 9966W        W75226  35.620   8.368  14.996
 9967W        W75227  18.545   1.340  14.570
 9968W        W75228  28.937   4.554  11.714
 9969W        W75229  12.798  34.847  13.404
 9970W        W75230  19.644  16.721  11.521
 9971W        W75231  43.906   9.226   3.362
 9972W        W75232  26.224  22.494   9.279
 9973W        W75233   3.711  11.459  13.518
 9974W        W75234  27.130   3.271  12.070
 9975W        W75235  39.446  23.258  12.618
 9976W        W75236  40.043  35.343  13.851
 9977W        W75237   7.300  21.923   4.591
 9978W        W75238  31.529  21.481   2.339
 9979W        W75239   3.320   3.446  11.159
 9980W        W75240  35.450  14.908  14.867
 9981W        W75241  19.613  10.443   0.990
 9982W        W75242  21.865  39.046   0.673
 9983W        W75243  10.530  22.092   0.448
 9984W        W75244   0.206  25.552   3.251
 9985W        W75245  12.793  21.017   3.566
 9986W        W75246  19.013   7.125   5.018
 9987W        W75247  41.081  29.723   3.747
 9988W        W75248   9.658  37.646  11.207
 9989W        W75249   1.957  36.097   4.905
 9990W        W75250  28.624  28.366   4.451
 9991W        W75251  14.599  43.077  13.351
 9992W        W75252  21.160  38.570   0.234
 9993W        W75253   9.936  44.466   0.471
 9994W        W75254  33.949  30.698   4.654
 9995W        W75255  15.284  18.829   4.156
 9996W        W75256  23.259  33.922  11.522
 9997W        W75257  25.661  41.517   0.286
 9998W        W75258  15.230  14.876  14.473
 9999W        W75259  38.855  18.298   4.255
10000W        W75260  22.399   0.734  14.036
10001W        W75261  37.425  32.040   0.454
10002W        W75262  12.404  44.870  13.579
10003W        W75263  43.976  34.600   2.877
10004W        W75264   7.138  17.389  14.868
10005W        W75265  28.652  35.894  12.838
10006W        W75266  15.789  40.055   1.722
10007W        W75267  39.358  37.802   3.102
10008W        W75268  27.976   9.339   0.772
10009W        W75269  26.558  37.053  11.165
10010W        W75270  35.869  24.723   3.720
10011W        W75271  40.437   3.964   2.299
10012W        W75272  31.826  43.833  13.897
10013W        W75273   1.861  43.025   0.701
10014W        W75274   6.189  41.279  10.330
10015W        W75275  39.756  21.233   3.215
10016W        W75276  29.803  16.449   4.331
10017W        W75277  40.436  30.949  14.772
10018W        W75278  22.534  42.509   1.405
10019W        W75279  33.677   2.770   1.487
10020W        W75280   3.723  31.070   4.878
10021W        W75281  30.244   6.380  12.897
10022W        W75282  34.155  19.524   0.575
10023W        W75283  42.043  19.170   1.639
10024W        W75284  41.488  38.771  12.207
10025W        W75285   4.292  22.778  12.427
10026W        W75286  24.174  36.084   1.793
10027W        W75287  34.010  34.527  14.818
10028W        W75288  12.435  11.755  12.819
10029W        W75289  16.816  38.448  13.477
10030W        W75290  42.584  32.857   3.417
10031W        W75291  42.928  19.058   2.656
10032W        W75292  10.160  15.876   3.123
10033W        W75293  44.752   9.409  14.133
10034W        W75294  44.060   2.165  10.792
10035W        W75295  39.500   7.883   3.785
10036W        W75296  19.198   5.137   3.758
10037W        W75297  17.023  12.770  11.689
10038W        W75298  38.574  43.503   2.270
10039W        W75299  11.755  22.523   3.319
10040W        W75300   6.071  21.580   0.806
10041W        W75301  11.404  31.134  13.019
10042W        W75302  34.655  23.109   4.591
10043W        W75303   0.784   6.414  11.160
10044W        W75304   5.398  15.114  11.653
10045W        W75305  36.626  36.304   2.227
10046W        W75306  26.650   6.299  11.213
10047W        W75307  13.609  26.161   3.374
10048W        W75308   8.217   8.859   0.783
10049W        W75309  36.818  38.392  12.946
10050W        W75310   8.448  41.912   1.917
10051W        W75311  16.836  15.660   4.803
10052W        W75312  38.498  28.525   1.912
10053W        W75313  16.162  28.926  13.191
10054W        W75314   7.835  20.118  11.832
10055W        W75315  39.846  26.657  12.018
10056W        W75316  31.860  14.301   0.276
10057W        W75317  43.224  43.753  14.793
10058W        W75318  22.594  44.984  13.338
10059W        W75319  23.165  28.468   3.429
10060W        W75320  25.691  33.525   0.538
10061W        W75321  20.329   5.319   1.816
10062W        W75322  10.740  20.486  12.186
10063W        W75323  15.825  39.877  12.600
10064W        W75324  15.537  31.401  13.612
10065W        W75325  37.633   5.402   2.181
10066W        W75326  13.874  27.945   0.423
10067W        W75327  21.255  15.868  14.482
10068W        W75328  17.690  13.091  11.578
10069W        W75329  25.205   0.518  13.962
10070W        W75330  38.481  23.059   3.391
10071W        W75331  36.409   5.115   2.690
10072W        W75332  40.401  27.395  10.991
10073W        W75333  44.145  33.116  13.307
10074W        W75334  31.567  20.565   1.891
10075W        W75335  40.884   8.829  13.433
10076W        W75336  39.754  43.365   3.842
10077W        W75337  26.165  12.636  10.726
10078W        W75338  18.361  25.641   4.115
10079W        W75339  35.151  13.013  14.449
10080W        W75340   5.352  23.474   1.775
10081W        W75341  44.366  19.070   3.248
10082W        W75342  33.502  42.439  12.553
10083W        W75343  17.382  16.276  12.937
10084W        W75344  27.466  39.076   1.356
10085W        W75345  17.178  20.170   2.418
10086W        W75346  10.310  20.753  12.081
10087W        W75347  42.479  18.091  12.462
10088W        W75348  18.668  31.449   2.660
10089W        W75349  43.809  41.015   0.395
10090W        W75350   4.350  22.615   2.906
10091W        W75351   2.465  13.015  14.067
10092W        W75352  34.580  33.948   3.239
10093W        W75353   8.828  13.050   4.077
10094W        W75354  31.873  20.680   0.560
10095W        W75355  35.033  31.537  14.888
10096W        W75356  20.510  19.661  12.480
10097W        W75357   5.255  35.810  13.730
10098W        W75358  34.051  33.432  10.698
10099W        W75359  42.948   7.984   4.570
10100W        W75360  38.934  38.983  13.331
10101W        W75361   4.991  12.635  12.726
10102W        W75362  25.025  27.226   3.642
10103W        W75363  38.951  11.913   0.564
10104W        W75364  40.401  19.259   3.666
10105W        W75365  25.126  21.160  14.805
10106W        W75366  37.897  35.152   0.448
10107W        W75367  36.579  12.546  12.679
10108W        W75368  44.461  44.215   1.340
10109W        W75369  38.734   2.404  11.088
10110W        W75370  37.758   1.461  12.417
10111W        W75371  31.043  43.853  11.697
10112W        W75372  20.529  26.108   3.925
10113W        W75373  32.109   3.395  14.407
10114W        W75374  35.447  38.839  11.717
10115W        W75375  22.146  11.275  13.748
10116W        W75376  30.474  38.320   1.506
10117W        W75377  30.627  19.755   4.825
10118W        W75378  41.943  30.914  13.497
10119W        W75379   9.684  44.735   3.256
10120W        W75380  39.980  18.243   1.733
10121W        W75381  12.670  19.489  14.245
10122W        W75382  14.351  13.665   0.095
10123W        W75383  33.923   1.215  12.852
10124W        W75384   5.463  23.986  10.194
10125W        W75385  18.587  25.065  14.388
10126W        W75386  10.936  28.860  11.140
10127W        W75387  23.616  35.381   3.407
10128W        W75388  10.088  36.975  12.880
10129W        W75389  12.289   1.005   1.405
10130W        W75390  28.654   8.347   4.060
10131W        W75391  15.773  26.356   1.745
10132W        W75392  40.879   2.356   2.378
10133W        W75393  31.738  19.752   0.437
10134W        W75394  36.443  24.457  12.867
10135W        W75395  19.536   8.176   4.203
10136W        W75396   2.265  44.693   1.203
10137W        W75397   1.129  12.049   1.370
10138W        W75398  27.569  21.119   1.524
10139W        W75399  17.323  42.820  12.541
10140W        W75400  35.455  36.436  10.896
10141W        W75401  15.613  22.459  14.945
10142W        W75402  40.786   7.749   1.256
10143W        W75403  29.425   6.409  12.373
10144W        W75404   5.606   9.156  11.029
10145W        W75405  40.794   2.807  13.449
10146W        W75406  10.639   3.484   0.783
10147W        W75407   4.291  38.864  14.583
10148W        W75408  30.883  15.745   5.038
10149W        W75409  24.036  13.899   4.148
10150W        W75410   0.531  33.946   3.186
10151W        W75411  17.144  10.984  12.967
10152W        W75412  39.293   5.648  12.374
10153W        W75413  38.561  29.659  14.928
10154W        W75414  15.758  14.686   0.858
10155W        W75415  21.227  43.496   0.731
10156W        W75416  34.888  43.317  10.583
10157W        W75417   9.382  24.656   0.793
10158W        W75418  20.080  37.277  11.556
10159W        W75419  34.277   0.631   3.590
10160W        W75420   9.294  16.791   3.705
10161W        W75421  38.974  17.998   4.737
10162W        W75422  37.930  16.969  10.260
10163W        W75423  24.855  30.571   4.231
10164W        W75424  25.619  18.885   1.380
10165W        W75425  26.034  40.784  10.770
10166W        W75426  26.737   5.890  13.464
10167W        W75427  19.629  18.607  13.895
10168W        W75428  40.831  15.291   1.880
10169W        W75429  22.572  16.779  12.574
10170W        W75430   4.619  34.013  14.852
10171W        W75431  37.416  24.422  11.471
10172W        W75432  38.246   4.567   3.510
10173W        W75433  15.556  39.028   3.354
10174W        W75434  32.146  38.477   1.229
10175W        W75435  35.203   0.234  13.085
10176W        W75436  21.054  22.599   2.227
10177W        W75437  11.867  36.591   2.786
10178W        W75438  20.962  22.125   9.758
10179W        W75439  35.076  12.182  13.573
10180W        W75440   2.323   3.543  11.471
10181W        W75441  43.455   1.254   4.408
10182W        W75442   8.821   2.754   3.629
10183W        W75443  29.741  42.135  14.355
10184W        W75444  23.956  41.474   4.643
10185W        W75445   0.341   7.549  10.936
10186W        W75446   3.644  37.485  13.022
10187W        W75447   7.817  36.302  14.506
10188W        W75448  35.053   7.825  10.489
10189W        W75449   0.809   5.159  14.198
10190W        W75450   3.164   3.630   1.860
10191W        W75451  44.476  41.551   4.140
10192W        W75452  43.914   1.569   0.459
10193W        W75453   7.920  36.893   2.543
10194W        W75454  14.226  44.397  11.993
10195W        W75455  25.034  42.078  11.422
10196W        W75456   5.945   0.725   3.098
10197W        W75457  13.678   2.909   0.288
10198W        W75458  16.650  31.116   4.685
10199W        W75459  30.057  12.094   3.660
10200W        W75460   4.410   7.886   1.185
10201W        W75461  11.780  13.535  10.711
10202W        W75462  38.346  22.160  13.590
10203W        W75463  15.567  16.076  12.960
10204W        W75464   0.654   2.321   2.904
10205W        W75465   0.766   9.124   2.730
10206W        W75466  25.380  34.681   0.816
10207W        W75467   3.963  35.600   1.793
10208W        W75468  35.361  16.435   0.721
10209W        W75469  11.262  15.203   1.980
10210W        W75470  12.434  25.609  14.937
10211W        W75471  15.569  42.573  11.464
10212W        W75472   2.761  10.777   4.292
10213W        W75473   2.772  34.555   3.242
10214W        W75474   7.333  13.119   1.333
10215W        W75475  44.118   7.805  11.886
10216W        W75476   4.251  25.208   1.187
10217W        W75477  10.694   8.722  14.210
10218W        W75478   8.615  20.212  13.451
10219W        W75479  38.068  42.482  14.769
10220W        W75480  25.391   6.194  12.335
10221W        W75481  17.206   6.637  13.996
10222W        W75482  44.864  13.850   3.617
10223W        W75483  11.717  31.425   0.062
10224W        W75484  32.409   2.455   2.777
10225W        W75485   7.422  26.528  14.259
10226W        W75486  11.264   6.692   1.172
10227W        W75487  10.702  37.939   4.817
10228W        W75488   5.877   9.851   3.576
10229W        W75489   4.926  33.569   2.547
10230W        W75490  36.439  33.314   2.738
10231W        W75491  24.722  22.771  12.990
10232W        W75492  41.836  16.110  14.999
10233W        W75493  42.415  13.101  14.319
10234W        W75494  24.094  36.852  13.729
10235W        W75495  36.388  30.002  13.407
10236W        W75496  36.099  39.919  13.388
10237W        W75497  16.299  43.477  11.987
10238W        W75498  38.674   1.936   0.559
10239W        W75499   9.770  12.982   2.206
10240W        W75500   4.312   3.417  11.121
10241W        W75501  14.205  37.019   3.071
10242W        W75502   4.866  38.546   3.629
10243W        W75503  20.172  14.676  13.986
10244W        W75504  15.003  14.078   3.945
10245W        W75505  37.447   8.472   4.418
10246W        W75506   1.442   2.378  13.805
10247W        W75507  23.375   1.861   2.496
10248W        W75508  11.193  35.769  13.427
10249W        W75509  29.891  39.819  14.550
10250W        W75510  41.844  33.167  14.413
10251W        W75511  21.223  13.791  11.186
10252W        W75512  37.559  38.978   3.749
10253W        W75513   1.705  20.826   0.909
10254W        W75514  34.605  39.368  11.418
10255W        W75515  33.617   4.890  13.397
10256W        W75516  16.410  36.415  13.521
10257W        W75517  13.586  43.634  11.754
10258W        W75518   1.290  31.346  14.541
10259W        W75519  11.683  35.954   3.098
10260W        W75520  20.921   6.286  12.726
10261W        W75521  25.207   3.957  13.416
10262W        W75522   3.488  20.266  14.953
10263W        W75523  28.948  16.768   3.213
10264W        W75524  31.612  29.879   0.482
10265W        W75525  28.013  11.516  13.394
10266W        W75526  26.572  19.240  14.998
10267W        W75527  24.947  15.551   1.023
10268W        W75528  32.380   4.239  13.165
10269W        W75529  43.470  19.128  11.927
10270W        W75530  12.656  37.149   0.738
10271W        W75531  17.599   4.732  11.146
10272W        W75532  22.603  30.003   3.704
10273W        W75533  39.946  39.836  11.184
10274W        W75534  16.321  29.426   2.270
10275W        W75535  19.048  27.603  14.109
10276W        W75536  10.309  42.920   1.458
10277W        W75537   1.849  30.010   3.248
10278W        W75538   9.729  30.510   4.700
10279W        W75539  22.143  18.630  13.792
10280W        W75540  41.482   5.424  10.981
10281W        W75541  42.771  27.138  11.398
10282W        W75542  26.953  10.207  13.083
10283W        W75543  32.881  12.271   0.383
10284W        W75544  28.574  20.072  13.454
10285W        W75545  13.268  11.352  14.104
10286W        W75546  28.464  18.004   3.260
10287W        W75547  17.481  38.194   0.008
10288W        W75548  19.781   7.083  12.570
10289W        W75549  39.582  21.965   0.141
10290W        W75550  20.161  24.356   1.751
10291W        W75551  37.339  21.509  11.545
10292W        W75552  31.600  35.470   4.906
10293W        W75553  10.718   5.608   0.062
10294W        W75554  20.127  17.322   0.189
10295W        W75555  21.272  43.384   2.341
10296W        W75556  28.062  30.957   2.274
10297W        W75557  44.670  21.336  11.547
10298W        W75558  10.065  34.803   1.544
10299W        W75559  28.396  23.680   0.863
10300W        W75560  36.156  35.864   5.214
10301W        W75561  25.613   4.619   4.120
10302W        W75562   8.379  18.007   1.818
10303W        W75563  12.217   6.913  12.785
10304W        W75564   7.722  38.031   1.719
10305W        W75565  31.894  15.341  14.414
10306W        W75566   8.960  18.214   3.976
10307W        W75567  25.246  35.457   5.129
10308W        W75568  32.241  34.433   0.858
10309W        W75569  12.788   4.179   2.318
10310W        W75570   7.645  15.669  13.358
10311W        W75571   0.930  33.273  11.092
10312W        W75572  40.829  14.320   4.430
10313W        W75573  17.034   5.414  12.589
10314W        W75574  40.418  28.413   4.594
10315W        W75575   6.723  17.329   0.907
10316W        W75576   8.266  38.951  13.457
10317W        W75577   4.137   5.755   3.737
10318W        W75578   9.309  23.975   0.156
10319W        W75579   7.615  26.893  14.570
10320W        W75580  19.072  13.915  12.082
10321W        W75581  33.374  10.411   0.013
10322W        W75582  38.843  44.503  12.861
10323W        W75583  19.245   2.978   0.742
10324W        W75584  14.381  31.400   0.969
10325W        W75585  30.196  30.032   0.668
10326W        W75586  39.678   4.918   0.368
10327W        W75587  17.086   0.001   0.768
10328W        W75588  30.751  10.807   2.585
10329W        W75589  33.642  12.450   0.117
10330W        W75590   7.510  30.001  10.091
10331W        W75591  44.953  33.569   3.746
10332W        W75592  23.670  33.333   4.701
10333W        W75593  11.848  21.735  13.903
10334W        W75594  34.160   8.976  12.955
10335W        W75595   7.216  44.957  13.451
10336W        W75596  12.802  24.021  11.270
10337W        W75597  37.985  32.895   4.707
10338W        W75598  44.362  27.553   2.388
10339W        W75599  42.411  36.651  11.537
10340W        W75600  36.564   7.592  11.144
10341W        W75601  41.248   9.843  14.828
10342W        W75602  31.437  20.958  14.962
10343W        W75603  25.759  28.877  13.986
10344W        W75604  35.550  21.795  12.444
10345W        W75605  27.896  23.038   2.718
10346W        W75606  12.826  29.999  10.632
10347W        W75607  44.009  27.411   0.376
10348W        W75608  41.582  27.038   3.972
10349W        W75609  29.691  40.566   2.558
10350W        W75610  24.182  37.326   2.869
10351W        W75611  12.046  34.052  10.590
10352W        W75612  35.734  27.177  12.029
10353W        W75613  15.307  40.501  10.838
10354W        W75614  22.085  44.900  12.585
10355W        W75615  11.882  15.362  11.090
10356W        W75616  20.246  44.713   2.856
10357W        W75617  36.568  36.063  12.981
10358W        W75618   1.314  15.613   2.349
10359W        W75619  17.188  37.802   1.090
10360W        W75620  23.773   2.939  12.520
10361W        W75621  19.966   4.452  10.999
10362W        W75622  42.378  28.212  14.816
10363W        W75623  21.585  16.290  14.343
10364W        W75624  19.528  36.542  14.457
10365W        W75625  26.661  44.089  14.419
10366W        W75626   1.461  32.039   2.293
10367W        W75627  12.339  21.576   4.611
10368W        W75628   5.384  31.583   3.326
10369W        W75629  29.353  38.227   2.723
10370W        W75630  10.749  34.328  13.823
10371W        W75631  26.201  35.613  13.071
10372W        W75632  18.730  29.092  13.099
10373W        W75633  42.382  41.119   1.815
10374W        W75634   8.132   6.337   4.279
10375W        W75635  36.996  34.501  11.739
10376W        W75636  41.911   4.151  11.224
10377W        W75637   3.476   4.415  10.706
10378W        W75638  31.350  38.510   0.963
10379W        W75639   6.167  18.995  13.969
10380W        W75640  26.431   7.863   4.811
10381W        W75641   4.729  42.944  14.577
10382W        W75642  39.491  33.739   3.670
10383W        W75643   3.259  44.053  14.568
10384W        W75644  22.435  32.944  11.262
10385W        W75645  24.353  25.587  13.007
10386W        W75646  14.265  44.802   4.077
10387W        W75647  10.123   3.312   2.861
10388W        W75648  33.320   2.274   2.692
10389W        W75649  17.623   7.392  12.455
10390W        W75650  16.772  28.964  11.467
10391W        W75651  34.883  18.762   4.764
10392W        W75652  33.581  15.234   1.848
10393W        W75653  25.586   6.674  11.742
10394W        W75654   2.270  37.842   4.582
10395W        W75655  30.460  20.028  14.937
10396W        W75656  22.510  32.442  13.705
10397W        W75657   7.302  14.846  11.456
10398W        W75658  18.493  22.492  13.393
10399W        W75659  38.946  27.702  14.675
10400W        W75660  13.413  24.679   0.766
10401W        W75661  42.401   7.275   3.404
10402W        W75662   1.292  20.581  10.589
10403W        W75663  25.969   1.907  14.596
10404W        W75664   6.966  20.617  14.465
10405W        W75665  43.932   3.957   1.861
10406W        W75666  43.374  36.397  13.492
10407W        W75667  20.870  30.481   0.819
10408W        W75668  32.670  10.790   0.369
10409W        W75669  10.861  32.080  11.890
10410W        W75670  25.002  13.316   3.159
10411W        W75671   4.973  35.296   1.021
10412W        W75672   6.647  40.278   0.164
10413W        W75673   4.469   8.631   2.232
10414W        W75674  22.511  10.421  10.426
10415W        W75675  44.391   9.358  11.589
10416W        W75676  39.878   5.686  12.976
10417W        W75677  22.520  42.481  12.536
10418W        W75678  19.175  21.199   3.056
10419W        W75679  31.987  36.669  10.771
10420W        W75680  10.988   5.103   4.999
10421W        W75681  17.293  43.118  14.209
10422W        W75682   2.950   7.224  11.712
10423W        W75683  14.148  43.990   2.291
10424W        W75684  31.171   5.384  10.756
10425W        W75685  29.732  15.229   2.180
10426W        W75686   3.038  28.758   2.037
10427W        W75687   3.524  27.578   2.140
10428W        W75688   9.969  35.580   4.555
10429W        W75689  27.044  19.173  10.305
10430W        W75690  34.864   0.789   5.335
10431W        W75691  14.612  18.779   3.044
10432W        W75692  43.105  38.967  12.884
10433W        W75693   9.775  40.482   4.456
10434W        W75694  29.167  31.567   5.117
10435W        W75695   8.126  27.916   0.280
10436W        W75696  18.568  35.549   2.713
10437W        W75697  31.796   9.651  14.331
10438W        W75698  28.728  28.473   2.372
10439W        W75699  13.513  44.494  12.107
10440W        W75700   5.335  38.782  12.611
10441W        W75701  29.046  39.528   2.341
10442W        W75702  24.676  22.779   1.878
10443W        W75703  38.945  15.310   1.539
10444W        W75704  19.415  28.040  11.974
10445W        W75705  25.251  42.353   2.740
10446W        W75706  15.270  35.313   2.355
10447W        W75707  20.686  14.657  14.933
10448W        W75708   0.246  30.097   1.790
10449W        W75709  10.356   6.251   3.504
10450W        W75710  16.006  20.815   2.607
10451W        W75711  28.336  21.756  11.453
10452W        W75712  17.755  29.901  14.442
10453W        W75713  33.858   4.306   3.158
10454W        W75714  22.446  39.934  13.315
10455W        W75715  44.384  38.284   0.520
10456W        W75716   8.644  40.913   0.922
10457W        W75717  29.986  39.535   0.523
10458W        W75718   3.237  27.642   4.197
10459W        W75719  20.813  29.437   2.487
10460W        W75720  15.644   4.352   0.689
10461W        W75721  13.056  44.032   0.234
10462W        W75722   5.960  40.738   3.923
10463W        W75723  21.577  36.060  14.899
10464W        W75724  37.440   2.269  11.482
10465W        W75725  32.412  30.462  13.378
10466W        W75726   0.312   3.959  14.743
10467W        W75727  24.641  38.780  14.413
10468W        W75728  23.567  19.377  12.954
10469W        W75729  11.873  27.365  12.520
10470W        W75730  11.261  27.440  14.223
10471W        W75731  23.180  11.687   1.843
10472W        W75732  30.547  18.053   2.867
10473W        W75733  29.377  39.613  14.592
10474W        W75734  30.620  20.067  12.444
10475W        W75735  40.522  28.865  11.187
10476W        W75736  22.709  26.962   4.377
10477W        W75737  23.026   5.497   0.665
10478W        W75738  18.204  23.715   4.654
10479W        W75739  22.296  33.334   3.286
10480W        W75740  34.043   1.344   1.354
10481W        W75741  26.444  23.968  12.533
10482W        W75742  27.771  37.502  13.825
10483W        W75743  17.182  41.933  12.251
10484W        W75744  21.377  25.868  12.158
10485W        W75745  34.412  11.599   3.195
10486W        W75746  32.600  20.815   0.908
10487W        W75747  17.828  35.439  11.122
10488W        W75748   7.182  21.184  12.931
10489W        W75749  43.359   1.759  11.119
10490W        W75750  29.900  16.677   1.050
10491W        W75751   1.790  34.517  14.809
10492W        W75752   0.752  17.548  10.871
10493W        W75753  27.423   2.286   3.913
10494W        W75754  34.421  36.459  11.731
10495W        W75755   1.656  32.940  11.543
10496W        W75756  20.013  23.170  13.172
10497W        W75757   1.169  19.553   0.618
10498W        W75758  26.948  12.710   0.687
10499W        W75759  25.132  37.021   0.247
10500W        W75760  35.647  22.056   0.265
10501W        W75761   6.995   7.473   0.488
10502W        W75762  16.664  36.002  13.350
10503W        W75763  22.133  44.261  11.017
10504W        W75764  23.131  43.108   4.500
10505W        W75765  31.995  27.614  10.246
10506W        W75766   8.183   5.005  14.512
10507W        W75767   4.746  10.893   1.327
10508W        W75768  14.457   5.198   4.575
10509W        W75769  21.208  32.871   2.305
10510W        W75770  24.536  35.933   2.908
10511W        W75771  23.043   4.672  14.696
10512W        W75772   6.242  29.499  10.648
10513W        W75773  20.979   5.869  11.170
10514W        W75774  44.678  22.726   1.136
10515W        W75775  23.315  16.800  13.047
10516W        W75776  39.101  16.333   0.092
10517W        W75777  31.203  22.694   3.678
10518W        W75778  37.073  42.399  13.473
10519W        W75779  40.375  17.989   2.869
10520W        W75780  22.559   1.218  14.879
10521W        W75781   1.193  41.775  13.536
10522W        W75782  34.118  41.243  13.522
10523W        W75783  42.363  13.252   3.326
10524W        W75784   4.374  41.848   3.694
10525W        W75785  35.941  33.181  12.940
10526W        W75786   2.300  40.122  10.342
10527W        W75787   1.816   6.310  12.438
10528W        W75788  18.504  30.389  12.052
10529W        W75789   4.876  29.025   2.292
10530W        W75790   0.382  32.452   4.612
10531W        W75791  29.301   5.577   0.721
10532W        W75792  34.904   3.922   3.405
10533W        W75793  33.082  41.161  14.053
10534W        W75794  40.861  32.605  14.055
10535W        W75795  28.761  35.364   4.616
10536W        W75796  41.926  11.862  13.751
10537W        W75797  11.790  38.281  13.840
10538W        W75798  27.251  35.372   4.163
10539W        W75799  13.223  44.339   4.232
10540W        W75800   6.044   5.398   3.286
10541W        W75801  32.761   9.108  13.464
10542W        W75802  34.008  24.610   2.590
10543W        W75803  43.979   7.903   0.427
10544W        W75804  24.142  14.315   3.870
10545W        W75805  11.302  20.081   1.234
10546W        W75806  31.566   9.188   5.119
10547W        W75807  39.837  37.626   2.006
10548W        W75808  18.913   6.974   4.282
10549W        W75809  34.070  18.976  11.566
10550W        W75810  17.364  27.167  10.721
10551W        W75811  36.032  23.623  12.101
10552W        W75812  39.564  21.732  13.500
10553W        W75813  22.146  25.409   0.903
10554W        W75814  41.510  33.567  13.141
10555W        W75815  26.710  35.014   1.673
10556W        W75816  43.898  17.669   1.751
10557W        W75817  24.991   7.727   3.596
10558W        W75818  29.309   2.471   2.180
10559W        W75819   6.732   4.349   0.250
10560W        W75820  20.180  25.656   2.430
10561W        W75821  44.954  34.426   1.833
10562W        W75822  27.229   0.454  12.949
10563W        W75823  21.006   9.260   1.542
10564W        W75824  10.851  37.929   1.232
10565W        W75825   2.431  38.793   0.695
10566W        W75826   1.780   7.102   2.817
10567W        W75827  29.919   8.692   1.925
10568W        W75828  11.806  33.068  14.870
10569W        W75829  14.066  37.968   3.262
10570W        W75830  14.240  30.228   4.904
10571W        W75831  37.475  32.161  13.325
10572W        W75832   1.572  13.232   1.916
10573W        W75833  43.367  35.863  13.479
10574W        W75834  18.187  29.644   0.128
10575W        W75835  25.120  30.590  13.425
10576W        W75836  27.144  40.768   4.484
10577W        W75837   6.261  36.132  14.707
10578W        W75838  24.972  37.425  13.338
10579W        W75839  21.238   2.756   1.697
10580W        W75840  16.752   0.974  14.682
10581W        W75841  15.732  23.500  11.601
10582W        W75842  22.152  15.033   1.739
10583W        W75843  11.512   5.205   5.053
10584W        W75844  44.903  19.022   3.913
10585W        W75845  31.598   6.296  10.814
10586W        W75846  33.376   0.812  12.052
10587W        W75847  29.442   0.603  14.448
10588W        W75848  30.851   6.802   3.157
10589W        W75849   0.878   1.993   4.953
10590W        W75850  35.190  27.672   4.918
10591W        W75851  15.865  21.369  11.524
10592W        W75852  14.609  37.025  10.423
10593W        W75853  23.217  29.827   2.586
10594W        W75854   8.561  33.582   2.326
10595W        W75855  40.910  20.933  13.963
10596W        W75856  34.404  34.395  13.024
10597W        W75857   5.508  31.274   2.950
10598W        W75858   2.071  24.139  14.848
10599W        W75859  11.237  12.905   0.236
10600W        W75860  29.692  42.427   1.657
10601W        W75861   4.856  27.227   3.850
10602W        W75862  24.534  24.856  12.686
10603W        W75863  27.437   9.260  14.822
10604W        W75864   0.826   8.654  14.278
10605W        W75865  25.182   9.758  14.318
10606W        W75866   6.757  19.171   3.218
10607W        W75867  26.278  28.536   3.794
10608W        W75868  39.410  44.790   1.841
10609W        W75869  21.247  43.277   4.072
10610W        W75870  15.539   5.076  11.112
10611W        W75871   9.457  33.186  14.109
10612W        W75872  42.487  33.071   4.367
10613W        W75873   3.731  43.843  12.408
10614W        W75874   1.725  40.248   3.449
10615W        W75875  32.923  10.092  14.170
10616W        W75876  38.134  39.723   0.958
10617W        W75877  43.046  43.175   5.071
10618W        W75878  36.037  33.099  12.052
10619W        W75879   1.238  23.577  11.054
10620W        W75880   9.653  39.109  12.169
10621W        W75881  15.602  35.447  14.388
10622W        W75882  44.704   4.504   0.921
10623W        W75883   8.238   3.795   4.105
10624W        W75884  17.858  37.315  12.409
10625W        W75885  25.509  23.118   3.282
10626W        W75886  28.691  32.277   2.206
10627W        W75887  42.450  23.506  12.022
10628W        W75888  24.887  11.795   4.097
10629W        W75889  22.772  41.717   2.056
10630W        W75890  19.070  23.943  11.466
10631W        W75891   6.609  38.164   2.937
10632W        W75892   3.398  25.894   0.877
10633W        W75893   7.226  38.065   4.522
10634W        W75894  18.120   9.368  13.923
10635W        W75895  10.531  18.920  14.985
10636W        W75896  39.059  24.470  13.578
10637W        W75897  11.821  22.285   0.820
10638W        W75898  39.833  15.235   3.373
10639W        W75899  31.932  39.530  14.027
10640W        W75900  22.393  38.740  13.996
10641W        W75901  35.607  11.023   0.716
10642W        W75902   8.847  11.291  10.762
10643W        W75903  23.274  13.230  11.573
10644W        W75904  40.581  17.794   1.459
10645W        W75905  24.126  14.290   3.328
10646W        W75906  21.736  24.233  10.787
10647W        W75907  19.671   0.425   0.481
10648W        W75908  14.966  34.311  14.957
10649W        W75909  37.884  36.468  11.062
10650W        W75910  38.332  33.988  11.603
10651W        W75911   4.010  10.396   1.294
10652W        W75912  15.933  40.032   5.221
10653W        W75913  42.558  29.890   4.101
10654W        W75914   1.791   5.249   3.223
10655W        W75915  10.337  28.368  11.538
10656W        W75916   8.837  26.276  12.519
10657W        W75917  43.691  44.349   0.354
10658W        W75918  21.212   4.017   4.300
10659W        W75919  39.493  40.135  13.080
10660W        W75920  35.796  31.985  13.812
10661W        W75921  41.978   8.774   4.568
10662W        W75922   1.194  22.007  14.237
10663W        W75923  26.545  37.678  13.614
10664W        W75924  37.131  18.266  13.391
10665W        W75925  43.689  14.566   1.313
10666W        W75926  36.394  17.482   0.016
10667W        W75927  11.616   6.721  14.029
10668W        W75928  27.109  18.235   0.819
10669W        W75929  13.859  18.905   0.322
10670W        W75930  30.895  40.935   3.268
10671W        W75931  35.772  41.294   0.185
10672W        W75932  27.052  14.615   1.026
10673W        W75933  20.057  37.781  11.548
10674W        W75934  43.591  14.820  11.081
10675W        W75935  39.448   8.404  12.362
10676W        W75936  23.956  25.579  13.353
10677W        W75937  20.103   7.328   3.216
10678W        W75938  27.756  29.382   4.505
10679W        W75939  15.356   4.680   3.691
10680W        W75940   1.683   4.698   0.287
10681W        W75941  12.171  13.880   0.491
10682W        W75942  39.382  23.139  13.520
10683W        W75943  32.865  17.548  11.020
10684W        W75944  28.700  24.314   3.784
10685W        W75945   0.362   6.801   3.739
10686W        W75946  17.159  21.196   0.008
10687W        W75947   8.857   8.700   2.217
10688W        W75948  38.402   8.251   2.876
10689W        W75949  31.626  39.305   3.229
10690W        W75950   3.997  12.124   1.949
10691W        W75951   9.259  34.071   4.144
10692W        W75952  36.391  36.328   3.244
10693W        W75953  12.198   5.442  11.067
10694W        W75954   4.416   3.398   0.527
10695W        W75955  11.185  27.461   9.708
10696W        W75956  32.140  11.917  14.291
10697W        W75957   9.960  11.237  10.235
10698W        W75958  35.594  13.797  14.487
10699W        W75959  16.246  38.049  12.951
10700W        W75960   8.885  28.128  14.797
10701W        W75961  11.156  13.559  14.492
10702W        W75962   4.091  42.837   5.169
10703W        W75963  42.846  16.644  14.943
10704W        W75964  22.769  10.816   4.443
10705W        W75965   2.436  40.747  14.759
10706W        W75966  36.715  19.755   0.472
10707W        W75967   3.002  22.564   2.791
10708W        W75968   2.704  39.874  12.463
10709W        W75969  15.965  18.854   4.946
10710W        W75970  20.774   5.036   1.932
10711W        W75971  44.448  30.249  13.393
10712W        W75972   7.783  29.903  11.455
10713W        W75973  32.918  35.297   0.895
10714W        W75974   8.950  40.500  10.529
10715W        W75975  15.779  18.836   1.327
10716W        W75976  31.826   3.621   1.945
10717W        W75977   8.878  21.619  11.153
10718W        W75978  18.943  35.891   3.739
10719W        W75979  22.629  37.372   9.995
10720W        W75980  36.667  35.896   3.203
10721W        W75981  22.071  36.191  12.605
10722W        W75982   7.863  13.285  12.940
10723W        W75983  40.331  11.274  12.022
10724W        W75984  22.276  43.434   2.341
10725W        W75985  10.735  37.064  12.640
10726W        W75986  40.065   5.291  13.634
10727W        W75987  36.366  36.945  12.502
10728W        W75988   1.461  12.057   3.728
10729W        W75989  24.549  39.818   3.236
10730W        W75990  44.711   6.156  10.559
10731W        W75991  30.607   3.777   1.389
10732W        W75992  22.729  12.357   4.349
10733W        W75993  35.034  20.606   3.140
10734W        W75994   8.432  26.017  12.320
10735W        W75995  38.836  27.145   1.639
10736W        W75996  23.223   5.929   3.080
10737W        W75997   6.873  31.476   3.600
10738W        W75998  22.171  32.418  11.991
10739W        W75999  10.606   7.778  14.616
10740W        W76000   8.706  30.796   4.605
10741W        W76001  38.397  22.816  13.977
10742W        W76002  28.894  22.511  13.057
10743W        W76003   8.276   0.437  14.707
10744W        W76004  22.253  28.544   0.323
10745W        W76005  16.261  40.971  14.392
10746W        W76006   8.463  12.274   1.675
10747W        W76007  22.475  38.328  11.168
10748W        W76008  41.360  20.888   2.579
10749W        W76009  25.349   4.177   1.759
10750W        W76010  38.480  37.115   2.898
10751W        W76011  20.947  13.670   1.116
10752W        W76012  29.164  27.922   1.844
10753W        W76013   7.181  32.306  10.757
10754W        W76014  10.337  31.338   4.495
10755W        W76015  40.023  19.039  12.945
10756W        W76016  22.929  26.053  11.979
10757W        W76017  33.618  21.265   1.722
10758W        W76018   2.253  24.048  12.574
10759W        W76019  33.790  36.641   1.748
10760W        W76020  34.533   5.159  13.761
10761W        W76021  13.663  35.744   2.353
10762W        W76022  26.526   3.976  10.960
10763W        W76023  13.226  18.652   4.915
10764W        W76024  14.587  19.982  10.677
10765W        W76025   6.217  19.278  12.574
10766W        W76026  30.109  21.786  11.170
10767W        W76027  38.820  44.751   0.240
10768W        W76028  13.649  12.134   3.757
10769W        W76029  20.806   6.749  12.423
10770W        W76030  23.890  43.704   0.254
10771W        W76031  12.079  27.937   3.505
10772W        W76032  32.606   3.841  11.243
10773W        W76033  39.784  42.382  12.120
10774W        W76034  33.123  15.801   1.239
10775W        W76035  14.466  15.383   0.271
10776W        W76036  25.721  38.621   1.337
10777W        W76037  29.568  11.713   2.362
10778W        W76038  42.394  40.292   3.695
10779W        W76039  25.348   4.684  13.083
10780W        W76040  22.220  27.049   2.407
10781W        W76041  16.767  34.145  13.550
10782W        W76042   7.407  21.273  10.672
10783W        W76043  32.120  43.194  11.575
10784W        W76044  32.404  43.345   2.269
10785W        W76045   9.814  43.809   4.704
10786W        W76046   1.342   7.652   3.553
10787W        W76047   7.849  41.498  10.062
10788W        W76048  32.411  24.190  12.542
10789W        W76049   4.227  41.921   4.544
10790W        W76050  12.973  27.688   9.998
10791W        W76051   9.240  41.097   1.683
10792W        W76052   3.713  25.000  13.741
10793W        W76053  26.100  18.624  12.167
10794W        W76054  34.006  39.070  11.616
10795W        W76055  26.753  30.662   1.455
10796W        W76056  16.176  31.877   1.761
10797W        W76057  25.937  25.432  13.493
10798W        W76058   6.220  30.114  11.044
10799W        W76059  27.161   2.147  13.430
10800W        W76060  29.036  39.511   2.869
10801W        W76061   4.498   6.778  14.502
10802W        W76062  37.098  12.661   0.256
10803W        W76063  14.670  23.002  13.838
10804W        W76064  32.014   3.726   0.855
10805W        W76065   5.431  14.328  14.909
10806W        W76066  44.943   5.431  14.934
10807W        W76067  14.038  26.070   2.376
10808W        W76068  34.916  15.541  14.104
10809W        W76069  28.269  19.380  13.844
10810W        W76070  23.635   1.701   1.270
10811W        W76071  31.718  12.385   0.253
10812W        W76072  23.641   9.198  13.575
10813W        W76073  43.929  42.304   4.050
10814W        W76074  36.973  18.435   1.472
10815W        W76075  25.748  42.185  10.908
10816W        W76076  31.916  24.999  10.749
10817W        W76077   3.370  39.571   3.741
10818W        W76078  26.686  15.721   2.662
10819W        W76079  41.843  31.925   1.217
10820W        W76080  26.541   7.150   4.286
10821W        W76081  28.626  18.828   2.702
10822W        W76082  30.554  16.672  12.036
10823W        W76083   1.213  24.297  11.650
10824W        W76084  20.216  11.831   0.517
10825W        W76085  35.895  40.807   4.161
10826W        W76086   5.474  11.203   3.704
10827W        W76087  28.477  31.989  10.507
10828W        W76088  40.667  36.471   0.782
10829W        W76089  23.735  22.779   0.976
10830W        W76090  17.307   9.678   4.097
10831W        W76091  43.532   9.256   0.279
10832W        W76092  44.240   9.792   1.567
10833W        W76093  10.918  23.794  13.182
10834W        W76094  41.122  38.337  10.552
10835W        W76095  26.781  24.652   2.207
10836W        W76096  27.662  24.176   2.603
10837W        W76097  30.231  41.048   4.131
10838W        W76098  29.103  25.979  10.796
10839W        W76099   0.602  12.998   5.243
10840W        W76100   0.878  12.148   1.862
10841W        W76101  37.873  35.964  12.436
10842W        W76102  41.024  17.302  12.507
10843W        W76103  23.596   8.416  14.026
10844W        W76104   5.721   0.000   3.645
10845W        W76105  33.408   3.198  14.442
10846W        W76106  32.468  40.964  11.100
10847W        W76107   1.352   8.951  14.357
10848W        W76108  21.510   8.936   4.880
10849W        W76109  23.741  29.444   1.889
10850W        W76110  19.787  32.364  13.389
10851W        W76111   1.213  44.382   3.259
10852W        W76112  39.482  19.375   5.085
10853W        W76113  12.160  18.195   3.259
10854W        W76114   1.016  15.381   1.243
10855W        W76115  24.524  32.527  11.956
10856W        W76116  20.804  36.160   1.072
10857W        W76117  17.564  14.369   3.668
10858W        W76118  31.898  38.661  14.320
10859W        W76119  37.568  42.068  11.679
10860W        W76120  42.239   5.450   1.014
10861W        W76121  39.023  44.084   1.609
10862W        W76122  31.341  25.338   1.349
10863W        W76123   4.989  10.906  12.447
10864W        W76124  13.315  25.808  14.903
10865W        W76125  28.606   1.478   3.627
10866W        W76126  30.597  21.465   3.591
10867W        W76127  19.298  28.832  10.967
10868W        W76128  13.606  22.006   4.210
10869W        W76129  29.959  24.663  11.666
10870W        W76130   7.312  23.780  13.616
10871W        W76131  37.512  40.015   3.312
10872W        W76132  36.879  38.818  12.634
10873W        W76133  39.424  41.032  13.568
10874W        W76134  16.352  12.169  14.748
10875W        W76135  30.485  40.459  10.682
10876W        W76136  22.121  41.294  12.855
10877W        W76137  35.877  36.193  12.007
10878W        W76138  44.519  27.037   1.606
10879W        W76139  37.395  21.913   1.399
10880W        W76140  35.364  23.063  13.939
10881W        W76141  37.016  39.738  13.867
10882W        W76142  14.290  36.686  11.175
10883W        W76143  20.624  42.565  12.246
10884W        W76144  42.307   3.475   0.844
10885W        W76145   7.063  42.438  12.519
10886W        W76146  30.978  28.640   1.898
10887W        W76147  24.480  27.397   0.363
10888W        W76148  28.683  33.037  14.773
10889W        W76149  25.103  39.968  13.941
10890W        W76150   9.347   6.722   9.755
10891W        W76151  15.541  24.201   2.328
10892W        W76152   3.355  34.705  13.137
10893W        W76153  10.343   8.749   2.443
10894W        W76154  23.448  19.874  12.987
10895W        W76155   7.124  39.363  12.431
10896W        W76156  38.339  33.571  12.604
10897W        W76157   8.777  40.736   4.607
10898W        W76158  32.335  19.217  12.101
10899W        W76159  42.329  40.089  12.557
10900W        W76160  31.553  42.094   3.905
10901W        W76161   0.788  33.334   3.585
10902W        W76162  22.598   2.971   2.556
10903W        W76163   9.453  12.248  14.301
10904W        W76164  31.771  40.853  11.844
10905W        W76165   2.264  44.991  12.119
10906W        W76166  15.687  39.148  11.201
10907W        W76167   5.260   7.250  13.818
10908W        W76168  39.744   3.192   1.491
10909W        W76169  34.327  34.071  14.282
10910W        W76170  23.937  30.802   4.167
10911W        W76171  42.429  43.044  11.436
10912W        W76172  28.408  16.554   2.175
10913W        W76173  37.382  22.779  14.880
10914W        W76174   0.572  33.934   1.321
10915W        W76175  34.288  11.713  10.448
10916W        W76176  17.713   9.795   2.352
10917W        W76177  44.229  42.870  14.543
10918W        W76178   8.237  41.100  14.122
10919W        W76179  32.962   0.872   1.510
10920W        W76180   0.866  26.427   1.255
10921W        W76181  30.170  35.344  14.546
10922W        W76182   8.685  22.615   0.899
10923W        W76183  28.940  41.446   2.113
10924W        W76184  43.816   2.334   0.674
10925W        W76185   7.565   7.861   3.395
10926W        W76186   0.684  32.907   2.482
10927W        W76187  40.142  44.466  10.953
10928W        W76188  28.956   3.967  13.905
10929W        W76189  11.337  19.203   2.905
10930W        W76190  33.405  30.101   9.974
10931W        W76191  29.351  35.332   2.852
10932W        W76192  15.939  19.283   5.278
10933W        W76193  42.560  19.231  13.147
10934W        W76194   8.242  11.351  14.902
10935W        W76195  14.364  42.734  13.032
10936W        W76196  17.249  23.912  12.370
10937W        W76197  26.322  37.048  14.435
10938W        W76198  27.961  29.504   4.986
10939W        W76199  38.964  15.844  12.468
10940W        W76200  14.161  38.275  11.984
10941W        W76201  37.050  39.022   4.646
10942W        W76202  24.013  16.256  13.337
10943W        W76203  17.859  27.777   0.942
10944W        W76204  17.373  30.083   2.783
10945W        W76205  28.630   8.151  14.048
10946W        W76206  43.449  36.375  12.508
10947W        W76207   7.149  39.547   4.702
10948W        W76208  16.279  40.324  11.224
10949W        W76209  33.949  41.023   2.667
10950W        W76210   6.668  37.996  10.718
10951W        W76211  19.261   9.265   2.861
10952W        W76212  39.342   8.894  12.178
10953W        W76213  28.099  17.878   3.654
10954W        W76214  40.767  17.265   0.318
10955W        W76215  19.698  10.950  11.603
10956W        W76216  19.452  44.403  13.849
10957W        W76217  18.715   8.657  12.939
10958W        W76218  10.238  38.122  13.009
10959W        W76219  28.760   7.227   1.753
10960W        W76220  34.255  43.591  12.506
10961W        W76221  35.314  23.322   0.681
10962W        W76222   6.381  23.052   1.869
10963W        W76223  35.975   5.804  13.288
10964W        W76224  41.102  33.653  13.920
10965W        W76225  27.017   5.151  12.361
10966W        W76226  42.384  26.965   0.830
10967W        W76227  39.760  38.228  14.040
10968W        W76228  42.188  44.931   0.242
10969W        W76229  23.548  10.188  11.502
10970W        W76230  20.895  17.121   2.400
10971W        W76231  23.127  30.698   3.635
10972W        W76232  44.833  41.974   3.210
10973W        W76233  42.860  14.913   1.808
10974W        W76234  16.727   9.760  14.876
10975W        W76235   9.808  19.399  10.497
10976W        W76236  30.621   7.246  12.203
10977W        W76237   4.453  41.367   2.671
10978W        W76238   4.957  18.359   4.464
10979W        W76239  26.566  37.141   9.800
10980W        W76240  22.720  30.941   4.925
10981W        W76241  40.890  16.679  11.028
10982W        W76242   8.641  40.350   0.210
10983W        W76243  39.298   8.623  11.427
10984W        W76244  10.745  33.655   3.706
10985W        W76245   8.976  21.087  12.554
10986W        W76246  33.452  13.693   4.314
10987W        W76247   1.837  14.600   4.525
10988W        W76248  11.378  16.741   2.635
10989W        W76249   8.265   4.758   3.084
10990W        W76250   5.735  40.775   0.339
10991W        W76251   0.705  42.174   3.704
10992W        W76252  44.714   2.340  13.547
10993W        W76253  34.587  29.048   0.821
10994W        W76254   0.357  23.362  13.808
10995W        W76255  13.585  33.640  13.003
10996W        W76256  30.371  32.418  14.376
10997W        W76257  33.317  35.239   2.230
10998W        W76258  15.924  15.031   3.167
10999W        W76259  25.971  42.281   1.260
11000W        W76260  32.503   7.861   2.879
11001W        W76261   0.909   0.723   4.522
11002W        W76262  26.884   8.852  13.854
11003W        W76263  29.244  37.930   1.535
11004W        W76264  42.570  36.006   4.051
11005W        W76265  44.270  10.970   1.307
11006W        W76266  25.262  23.576   3.224
11007W        W76267   6.835   0.541  13.970
11008W        W76268   7.834  39.122  12.906
11009W        W76269   2.496  29.221  12.542
11010W        W76270  36.991  28.917  10.548
11011W        W76271  20.055  23.121   1.172
11012W        W76272  26.170   9.350  13.582
11013W        W76273  30.160  20.257  14.443
11014W        W76274  21.408  44.812   1.276
11015W        W76275  26.933   6.429  11.625
11016W        W76276  33.376  22.965   4.507
11017W        W76277  34.738  12.684  12.875
11018W        W76278  27.501  17.114   2.189
11019W        W76279  30.139  40.729  14.990
11020W        W76280  26.859  36.689   5.560
11021W        W76281  16.594  30.900   3.161
11022W        W76282  28.545   4.032  12.159
11023W        W76283  18.702  10.169  14.415
11024W        W76284  27.077  20.192   2.357
11025W        W76285   3.896  30.568   3.191
11026W        W76286   7.595  43.718  12.862
11027W        W76287  26.070   4.156  11.191
11028W        W76288  16.905  26.627  10.948
11029W        W76289  42.186  36.326   3.867
11030W        W76290  32.489  44.181  13.344
11031W        W76291  37.350  43.279  13.028
11032W        W76292  32.518  44.507  12.372
11033W        W76293  36.126  31.782  12.115
11034W        W76294  37.990  20.954   4.593
11035W        W76295   5.492  20.952  11.083
11036W        W76296  38.075  43.294  12.001
11037W        W76297  43.723  27.677  14.998
11038W        W76298   9.780  17.641  11.882
11039W        W76299  13.235  37.966  11.583
11040W        W76300  36.519  35.552  10.434
11041W        W76301  17.020  32.443   3.864
11042W        W76302  27.083  12.332  14.639
11043W        W76303   8.544   0.832   1.532
11044W        W76304  16.587  13.999   3.195
11045W        W76305  41.663   3.203   1.524
11046W        W76306  27.670  20.589  12.119
11047W        W76307  28.614  30.708   3.123
11048W        W76308   4.327  28.062   4.554
11049W        W76309   8.386  19.991   3.196
11050W        W76310  34.184  26.456  11.145
11051W        W76311  35.657   8.748  13.330
11052W        W76312  16.921  11.730  12.680
11053W        W76313  11.475   2.878  12.538
11054W        W76314  43.245  35.871  11.639
11055W        W76315  19.071  17.549   0.362
11056W        W76316  27.143  32.269  12.459
11057W        W76317   0.390  15.922   4.996
11058W        W76318  13.052  37.557   3.648
11059W        W76319  38.262  14.268   1.662
11060W        W76320  21.461  30.869  14.368
11061W        W76321  24.274  19.823  12.496
11062W        W76322  16.877   5.373  13.425
11063W        W76323   0.866   4.765   1.273
11064W        W76324  25.441  39.319  11.072
11065W        W76325  15.699  41.434   2.804
11066W        W76326  40.558   6.711  11.814
11067W        W76327  40.312   0.990  10.776
11068W        W76328  18.865  23.747   3.816
11069W        W76329  37.476  28.617   0.475
11070W        W76330  22.320  35.363  12.006
11071W        W76331  14.651   7.484   4.638
11072W        W76332  26.651  19.312  11.228
11073W        W76333  35.995  26.880   2.177
11074W        W76334  40.790   3.528   4.055
11075W        W76335   2.159  43.114  13.009
11076W        W76336  34.661  15.619   1.331
11077W        W76337  10.125  32.636   3.194
11078W        W76338  33.951  44.271   4.566
11079W        W76339  38.439  20.061  12.602
11080W        W76340  12.706   8.092  11.579
11081W        W76341  40.927  15.264  14.420
11082W        W76342  34.466  28.948  14.747
11083W        W76343  20.834  36.476  14.818
11084W        W76344  23.381   2.030  10.170
11085W        W76345  43.189   7.942   3.234
11086W        W76346  16.013  30.164   1.612
11087W        W76347  29.141  36.497  14.943
11088W        W76348  21.751  24.086  11.263
11089W        W76349  26.042  20.760   1.684
11090W        W76350  38.843  39.388   4.352
11091W        W76351  24.241  39.628  11.505
11092W        W76352  12.413  42.949   0.824
11093W        W76353   6.898  22.170  10.506
11094W        W76354  15.557  37.768   1.221
11095W        W76355   1.829  26.644   4.454
11096W        W76356   6.069  13.598   1.228
11097W        W76357   8.886  40.460  11.430
11098W        W76358  13.295   4.955  11.579
11099W        W76359  41.775  26.610   4.130
11100W        W76360  37.970  33.009   4.187
11101W        W76361  31.209  17.676  14.863
11102W        W76362   1.847  11.442   0.390
11103W        W76363  38.922   4.428   3.833
11104W        W76364  23.732  26.501   0.224
11105W        W76365  35.315  25.872   0.184
11106W        W76366  41.600  11.612   1.226
11107W        W76367  43.865  40.655   3.788
11108W        W76368  35.903   5.278  10.883
11109W        W76369  40.054  19.534  14.872
11110W        W76370  17.142  14.305   4.129
11111W        W76371   7.682   8.383  13.290
11112W        W76372  38.090  16.135  12.570
11113W        W76373  13.263  26.355  11.921
11114W        W76374  22.222  12.277   1.365
11115W        W76375   7.724  41.253   3.716
11116W        W76376  25.567  28.011   4.217
11117W        W76377   8.333  14.376  12.632
11118W        W76378   7.272  44.459  12.975
11119W        W76379  41.296   2.401   9.840
11120W        W76380  15.573  26.523  12.083
11121W        W76381  23.127  14.059   1.761
11122W        W76382  39.772   9.222   3.757
11123W        W76383   7.213  43.376   2.129
11124W        W76384  39.940  35.286  14.748
11125W        W76385  23.119   0.594   3.186
11126W        W76386  41.995   1.351  12.795
11127W        W76387   1.948   4.362  10.705
11128W        W76388  43.282  27.150  13.923
11129W        W76389  42.302  23.200  13.066
11130W        W76390  20.948  23.158   0.996
11131W        W76391  24.427  33.463  11.163
11132W        W76392   0.942  22.583   2.830
11133W        W76393  34.122   5.699  12.581
11134W        W76394  24.617  14.171   1.772
11135W        W76395   8.232  11.919   3.470
11136W        W76396  13.780   0.400   3.745
11137W        W76397  16.868  21.792   3.223
11138W        W76398   4.160  17.664   1.942
11139W        W76399  34.602   6.973  11.185
11140W        W76400  29.512  22.066   0.263
11141W        W76401  16.159   1.971  13.254
11142W        W76402  23.709   0.948   0.466
11143W        W76403  37.143   5.909  11.950
11144W        W76404  17.549  28.336   1.601
11145W        W76405  12.197   8.064  11.790
11146W        W76406  15.497  13.562  13.507
11147W        W76407  12.351  24.764  12.419
11148W        W76408  15.923  24.570   2.534
11149W        W76409  32.675  34.592  10.990
11150W        W76410  12.692  37.952   0.293
11151W        W76411  12.867   9.660   2.104
11152W        W76412  19.144  37.803   0.448
11153W        W76413   6.462   2.464   0.865
11154W        W76414  43.539  42.377   3.658
11155W        W76415  16.796  40.458   4.311
11156W        W76416  12.243  26.944  10.191
11157W        W76417  27.003  43.347   2.270
11158W        W76418   5.844  23.044  10.782
11159W        W76419  38.272  26.105  14.815
11160W        W76420   6.201   3.473   1.108
11161W        W76421   0.584  32.924   3.230
11162W        W76422  16.314  26.374  13.603
11163W        W76423  12.659  36.682   1.715
11164W        W76424   4.016   9.664   4.560
11165W        W76425  30.039  18.171  13.698
11166W        W76426   0.966  32.752   4.158
11167W        W76427   3.672  40.401   4.143
11168W        W76428  12.770  35.721   3.632
11169W        W76429   9.465  33.905   0.965
11170W        W76430  40.982   5.335   0.250
11171W        W76431  29.737   8.743  12.893
11172W        W76432   8.673  30.791   3.206
11173W        W76433  29.103   4.704   1.800
11174W        W76434   7.935  12.129  10.556
11175W        W76435  32.036   7.389   1.744
11176W        W76436  29.560  34.941   3.696
11177W        W76437  18.884  12.163   2.182
11178W        W76438  19.666  30.697   3.944
11179W        W76439  11.878   9.369   4.977
11180W        W76440   5.803  15.200   0.329
11181W        W76441  43.991   8.658   2.057
11182W        W76442   4.598  26.026   5.108
11183W        W76443  35.094  40.980  14.978
11184W        W76444   8.696  33.201   0.782
11185W        W76445  30.007  26.111  13.428
11186W        W76446  17.118   6.690  11.176
11187W        W76447  36.735   5.924   2.786
11188W        W76448  35.432   7.655   3.195
11189W        W76449  32.582  39.895  11.258
11190W        W76450  43.533  38.482   4.371
11191W        W76451  32.889  42.457   3.204
11192W        W76452  32.814  34.955  14.701
11193W        W76453   3.477  11.043  14.087
11194W        W76454  35.133  38.907  12.871
11195W        W76455  41.148  22.671  13.511
11196W        W76456   7.138   0.330  11.197
11197W        W76457  43.433  20.284   3.754
11198W        W76458  44.437  15.973  11.380
11199W        W76459  44.693   2.576   0.909
11200W        W76460  36.990  28.697  14.382
11201W        W76461  44.258  36.124   2.407
11202W        W76462  24.375   6.939   3.360
11203W        W76463   0.203  32.398  14.608
11204W        W76464  20.617   1.956   1.440
11205W        W76465  36.150  21.594  11.245
11206W        W76466  14.015  39.025   2.460
11207W        W76467  21.641   4.832  13.191
11208W        W76468  15.476   1.350  11.640
11209W        W76469  40.242  19.027  14.227
11210W        W76470   8.023  20.691  10.648
11211W        W76471   9.389  33.545   1.872
11212W        W76472  23.654  15.895   3.539
11213W        W76473  28.291  38.955   4.726
11214W        W76474  19.355  40.331  14.321
11215W        W76475  11.432  13.142  11.069
11216W        W76476   1.951   7.556  12.578
11217W        W76477  27.752  34.662   1.228
11218W        W76478  30.455  31.695   1.722
11219W        W76479  44.411  30.764  13.463
11220W        W76480  25.043  31.127  10.639
11221W        W76481  20.266  42.516  13.160
11222W        W76482  12.313  40.493  10.692
11223W        W76483   9.814   8.757   2.433
11224W        W76484  18.638   7.166  14.008
11225W        W76485  14.851  23.971  14.760
11226W        W76486  33.530  34.356  13.140
11227W        W76487   9.696  31.618  11.981
11228W        W76488  35.593  13.301  14.332
11229W        W76489  27.514  30.563   0.084
11230W        W76490  26.900  41.758   4.474
11231W        W76491  28.068  13.385  10.986
11232W        W76492  28.705   8.062   2.334
11233W        W76493  42.809  38.412   3.102
11234W        W76494   6.585   3.838   0.324
11235W        W76495   6.168  16.724  13.038
11236W        W76496  28.753  41.311   1.108
11237W        W76497  36.020  22.346  14.835
11238W        W76498   3.798  19.302   0.458
11239W        W76499  42.842   6.301  13.023
11240W        W76500  39.226  28.970   0.312
11241W        W76501  23.856  14.193  11.439
11242W        W76502   4.572  10.033   3.484
11243W        W76503   4.200  42.577   4.288
11244W        W76504   9.318   7.085   3.315
11245W        W76505  23.141  35.512   3.233
11246W        W76506  22.021  11.607   2.135
11247W        W76507  35.097  28.183   3.157
11248W        W76508   9.101   3.558   0.666
11249W        W76509  18.641   8.606  13.807
11250W        W76510   8.255  37.703   3.588
11251W        W76511  10.875  43.502  13.370
11252W        W76512  10.679   6.217   2.327
11253W        W76513  17.036  24.836  11.370
11254W        W76514  36.618  42.856   1.693
11255W        W76515  14.701  27.992  10.698
11256W        W76516  37.070  24.000  13.096
11257W        W76517  11.904  29.676  12.984
11258W        W76518  21.096  32.829  12.824
11259W        W76519   3.215   8.169  10.319
11260W        W76520  42.784   8.079   2.371
11261W        W76521  14.661  15.282   1.186
11262W        W76522  10.236   5.664  14.555
11263W        W76523  11.649  12.799   3.130
11264W        W76524  32.860   0.828   0.157
11265W        W76525  16.063  41.969   1.778
11266W        W76526  42.011   3.217  10.302
11267W        W76527  17.854  36.863  12.669
11268W        W76528  42.495   3.764   4.210
11269W        W76529   8.621  28.477  12.078
11270W        W76530   4.242   4.943  11.632
11271W        W76531   2.067  12.804  14.347
11272W        W76532   6.755  38.561   0.817
11273W        W76533  29.870  21.629  14.522
11274W        W76534  20.162  28.723   4.676
11275W        W76535  21.768   5.997   0.300
11276W        W76536   7.441  26.059  11.464
11277W        W76537  24.181  20.496   3.718
11278W        W76538  19.191  24.779  12.520
11279W        W76539  14.662   2.020   0.692
11280W        W76540  39.981   2.426  13.496
11281W        W76541   3.359   7.852   1.227
11282W        W76542  44.784  30.546  10.700
11283W        W76543   6.559  27.808  11.265
11284W        W76544  16.547  24.993  10.514
11285W        W76545   9.289  22.548  13.492
11286W        W76546  27.128  34.732   2.319
11287W        W76547  44.290  25.703   4.783
11288W        W76548   9.900  17.473  10.474
11289W        W76549  14.891  25.974  13.984
11290W        W76550   4.141  29.918   0.869
11291W        W76551  13.836  38.113  11.620
11292W        W76552   1.910  38.638   4.449
11293W        W76553   7.011  19.222   2.757
11294W        W76554  14.285   2.520  11.535
11295W        W76555  13.748   0.762   2.375
11296W        W76556  39.073  15.338  12.467
11297W        W76557  15.256   6.902   1.354
11298W        W76558  14.808  27.033   1.367
11299W        W76559  33.853  21.123  14.559
11300W        W76560  20.061  38.405   3.779
11301W        W76561  30.135  30.429   0.287
11302W        W76562  18.698  20.543  13.911
11303W        W76563   5.205  28.951  13.921
11304W        W76564  17.308  16.048  10.492
11305W        W76565   8.694  41.356  14.401
11306W        W76566  43.516  24.796  12.514
11307W        W76567  37.500  36.140  11.124
11308W        W76568   6.888  41.366   3.727
11309W        W76569  37.285  32.908   2.702
11310W        W76570  28.025  23.786   3.247
11311W        W76571  38.432   7.170   4.548
11312W        W76572  44.812  10.979   2.425
11313W        W76573  12.967  16.361   1.671
11314W        W76574   1.491  41.935   0.286
11315W        W76575  22.921  10.671   2.574
11316W        W76576   1.506  12.374   0.344
11317W        W76577  27.201  24.771  11.368
11318W        W76578  29.901   3.704   0.307
11319W        W76579  42.099  28.136   0.324
11320W        W76580  12.691   6.148   0.455
11321W        W76581   9.602  25.585  13.561
11322W        W76582  19.995   5.734   0.807
11323W        W76583  21.976  34.893  13.300
11324W        W76584  10.398  40.381   0.917
11325W        W76585   8.188  22.448  11.023
11326W        W76586  37.586  19.976   3.314
11327W        W76587   3.360  34.917   4.016
11328W        W76588  18.487  13.181  13.897
11329W        W76589  43.048  26.698  11.504
11330W        W76590  34.912  32.996   2.007
11331W        W76591  33.484   2.005   4.657
11332W        W76592  28.474   2.407  11.878
11333W        W76593  14.755  18.751   0.760
11334W        W76594  17.771  20.747  10.978
11335W        W76595   8.691  41.877   0.900
11336W        W76596   3.450  38.471  14.033
11337W        W76597  31.472  30.252   0.803
11338W        W76598  38.707  11.711   0.967
11339W        W76599  41.041  35.506   0.426
11340W        W76600  36.860   4.884   4.458
11341W        W76601   0.490  31.180   0.296
11342W        W76602  37.798  18.403   1.414
11343W        W76603  15.941  16.803  12.121
11344W        W76604  34.088  35.329  12.513
11345W        W76605  26.487  27.959   1.176
11346W        W76606   1.009   8.218  14.000
11347W        W76607  18.215  22.287  12.543
11348W        W76608  13.071   4.660   1.886
11349W        W76609  21.528  21.427  14.981
11350W        W76610  17.222  42.793  10.435
11351W        W76611  28.158   1.746   3.621
11352W        W76612  35.556  30.416  10.509
11353W        W76613  44.396  10.369   2.780
11354W        W76614  32.854   6.130   0.462
11355W        W76615   0.335  30.415   4.742
11356W        W76616  15.191   1.265   0.766
11357W        W76617  14.198   1.468   2.906
11358W        W76618  28.536  21.151   1.831
11359W        W76619  23.657  24.132  10.584
11360W        W76620  14.231  31.886   1.118
11361W        W76621  15.229  34.576  12.953
11362W        W76622  39.056  33.378   0.310
11363W        W76623  28.363  41.456  13.195
11364W        W76624  39.068  26.967   2.144
11365W        W76625  37.900  40.608  14.365
11366W        W76626  14.779  41.886  10.640
11367W        W76627  20.052  36.408  13.047
11368W        W76628  27.588   2.993   4.510
11369W        W76629  31.962   8.832  12.485
11370W        W76630  32.095  40.069  11.258
11371W        W76631  13.969  17.485  10.466
11372W        W76632  23.209  10.113  14.163
11373W        W76633  36.603  26.353   3.433
11374W        W76634  41.853  27.957  14.886
11375W        W76635  21.605   1.230  10.738
11376W        W76636   0.403   4.450  14.502
11377W        W76637  38.311  35.391  12.822
11378W        W76638  21.650  20.201  12.183
11379W        W76639  34.999  42.750   0.957
11380W        W76640   4.857  32.227   2.905
11381W        W76641  20.093   4.879   1.959
11382W        W76642   6.393  32.935   1.697
11383W        W76643  20.015   3.332  14.432
11384W        W76644  42.426  14.312   5.470
11385W        W76645  15.087  42.052   3.401
11386W        W76646  43.750  28.177   3.708
11387W        W76647  20.573   9.226  11.434
11388W        W76648  12.367  41.248   2.669
11389W        W76649  13.328  16.581   4.307
11390W        W76650  13.534  36.349   1.657
11391W        W76651  42.839  42.299  12.169
11392W        W76652  11.320  34.360   1.792
11393W        W76653   0.746  38.483  10.726
11394W        W76654  32.528  40.076  14.514
11395W        W76655  26.613  37.080  11.662
11396W        W76656  26.173  39.539  11.467
11397W        W76657  31.482  26.436   1.806
11398W        W76658  33.504  19.856  14.414
11399W        W76659  32.998  19.510  10.552
11400W        W76660  15.470   8.232   5.680
11401W        W76661   4.371  44.332   1.521
11402W        W76662  15.144  12.627  14.952
11403W        W76663   8.566  24.150   3.701
11404W        W76664  16.118  43.571  12.846
11405W        W76665  22.593  18.096   2.765
11406W        W76666   7.043  28.391  11.993
11407W        W76667  38.572   7.318  11.244
11408W        W76668  43.480  21.442   2.776
11409W        W76669   9.956   6.334   3.102
11410W        W76670  14.625  29.015   0.423
11411W        W76671  37.165  40.182   2.327
11412W        W76672  35.424  27.081  11.616
11413W        W76673  31.457  17.664  12.509
11414W        W76674   2.195  41.291  13.817
11415W        W76675  18.319   0.208  13.578
11416W        W76676   0.330  18.740  12.130
11417W        W76677  32.498   6.905  14.283
11418W        W76678  16.115  16.741  13.164
11419W        W76679  41.592  11.582  14.924
11420W        W76680  34.527  17.598  14.443
11421W        W76681  10.177  21.459   3.186
11422W        W76682  41.993   8.709   2.814
11423W        W76683  35.116  29.892   3.656
11424W        W76684  34.504  34.995   0.105
11425W        W76685   2.314  10.098  12.388
11426W        W76686  13.851  18.832  13.177
11427W        W76687  19.158  24.682  14.877
11428W        W76688  35.017  28.763   0.216
11429W        W76689  31.373  16.136   3.316
11430W        W76690   5.794  39.620   3.220
11431W        W76691  22.689  37.442  11.298
11432W        W76692   6.937   2.139  13.470
11433W        W76693   3.196  29.933  12.123
11434W        W76694   8.914   2.605  14.587
11435W        W76695  28.530  26.515  11.794
11436W        W76696  41.515  37.807  11.953
11437W        W76697  22.488   0.788  11.991
11438W        W76698  34.878   3.318  10.709
11439W        W76699   8.970   8.681  14.507
11440W        W76700   0.114   9.547   1.378
11441W        W76701  26.310   8.585  12.026
11442W        W76702  32.273  39.629  12.883
11443W        W76703   7.850  38.726   4.075
11444W        W76704  21.176  15.225   1.770
11445W        W76705  11.685   5.711   0.469
11446W        W76706  36.740  21.619  11.512
11447W        W76707  34.520  18.277  13.564
11448W        W76708  37.460  40.293   0.443
11449W        W76709   1.477  16.509  12.979
11450W        W76710   6.489  43.425   2.805
11451W        W76711  42.636  29.671  13.669
11452W        W76712  31.686  29.294  11.146
11453W        W76713  18.139  17.169   4.549
11454W        W76714  22.132  17.252   3.698
11455W        W76715  24.680  14.825  12.601
11456W        W76716  44.837  21.900   3.770
11457W        W76717  31.771  32.050   2.059
11458W        W76718  38.719  40.618   2.771
11459W        W76719  38.783  12.631   0.980
11460W        W76720   2.347  42.552   1.417
11461W        W76721  32.658   4.476  14.161
11462W        W76722  18.491  26.428   0.308
11463W        W76723  23.512  39.027  13.285
11464W        W76724  32.237  34.532  11.313
11465W        W76725  19.827  39.013  11.530
11466W        W76726  35.684  35.101  14.536
11467W        W76727  33.436  39.658  14.298
11468W        W76728  34.933  33.538  12.811
11469W        W76729  33.980  22.480   0.810
11470W        W76730   3.741  41.382   3.181
11471W        W76731   5.659   6.310   1.534
11472W        W76732  33.187  40.074   3.149
11473W        W76733  42.415  37.929  13.219
11474W        W76734  37.119  22.640  11.244
11475W        W76735  29.267  43.037  14.322
11476W        W76736  26.769  11.828  12.156
11477W        W76737   4.940  43.549   4.514
11478W        W76738  18.753  16.638   3.264
11479W        W76739  27.197  16.547  14.237
11480W        W76740  11.821  34.011  11.824
11481W        W76741  11.786   6.412   3.344
11482W        W76742  41.838  38.947   1.597
11483W        W76743  27.610  24.523  11.239
11484W        W76744   6.362  42.249  14.738
11485W        W76745  25.166  37.105   3.137
11486W        W76746  30.530  22.223   0.388
11487W        W76747  15.878  13.229  13.459
11488W        W76748   5.440  34.935  13.914
11489W        W76749   1.208   0.223   0.906
11490W        W76750  30.509  40.255  11.158
11491W        W76751  20.056   5.440   0.336
11492W        W76752  37.428  38.127   3.765
11493W        W76753   8.719   9.426  11.374
11494W        W76754  26.638  15.139   4.298
11495W        W76755   2.499  34.366  13.052
11496W        W76756  43.973  22.044   1.015
11497W        W76757  42.930   8.870  11.802
11498W        W76758  35.996  23.031   1.875
11499W        W76759  12.276   6.451   0.453
11500W        W76760  19.693   3.301   3.666
11501W        W76761  14.789  13.779  12.160
11502W        W76762  22.570  29.910   0.283
11503W        W76763   8.356  36.696   3.892
11504W        W76764  28.546   9.388  11.241
11505W        W76765  20.760  44.389   3.572
11506W        W76766  44.119  26.322  13.947
11507W        W76767  40.952  18.831  11.668
11508W        W76768  31.446  38.908   2.872
11509W        W76769  27.483  29.012  12.331
11510W        W76770  41.341  26.437   2.407
11511W        W76771  27.795  28.847  10.957
11512W        W76772  25.758  38.461  11.590
11513W        W76773   4.440  29.749  10.744
11514W        W76774  25.933  15.342  13.771
11515W        W76775  27.760   9.648   3.940
11516W        W76776  16.550  43.045   2.617
11517W        W76777   4.257   2.458   1.487
11518W        W76778  20.744   7.705  13.002
11519W        W76779  35.869  41.950   3.600
11520W        W76780  12.089  42.768  13.348
11521W        W76781  44.304  16.703   0.577
11522W        W76782  20.258  23.020   2.327
11523W        W76783  42.260  19.522   4.155
11524W        W76784  44.905  27.163  13.406
11525W        W76785  39.373  14.001  11.313
11526W        W76786  38.267  16.491  13.727
11527W        W76787  13.820   1.801   4.420
11528W        W76788   8.370  15.330   1.473
11529W        W76789  40.324  25.445   3.829
11530W        W76790  40.111  14.399  12.913
11531W        W76791  28.615   0.510   4.541
11532W        W76792  10.865  38.946   1.297
11533W        W76793  37.816   3.477  10.270
11534W        W76794  10.266  44.972   2.932
11535W        W76795  38.589  31.965   5.237
11536W        W76796  43.488  32.565   4.077
11537W        W76797   2.451  16.552   4.783
11538W        W76798  42.326  27.702  14.879
11539W        W76799   3.928  24.905   3.581
11540W        W76800  42.435  30.670   3.367
11541W        W76801  37.323   9.173   5.359
11542W        W76802  40.461  34.629  11.686
11543W        W76803   6.233  19.030  10.626
11544W        W76804  13.286  31.450   0.479
11545W        W76805  41.573  33.425  12.646
11546W        W76806  14.752  38.031   3.734
11547W        W76807  39.516  30.555  12.365
11548W        W76808  28.160  34.645   3.209
11549W        W76809  11.322  38.532   4.853
11550W        W76810  17.397   3.261  12.209
11551W        W76811  29.051  19.621   5.290
11552W        W76812  35.007   6.150   3.412
11553W        W76813  24.440  22.967   1.448
11554W        W76814   6.807   1.928  13.925
11555W        W76815  10.745  14.647   3.350
11556W        W76816  22.898  39.949   3.748
11557W        W76817  31.683   9.741  14.825
11558W        W76818  39.489  23.318   4.751
11559W        W76819  15.509  42.615   0.474
11560W        W76820  43.351  17.433  12.527
11561W        W76821  13.121  28.776  10.268
11562W        W76822  27.233  21.143   2.794
11563W        W76823   9.619   5.265   0.462
11564W        W76824  24.142  29.109  13.970
11565W        W76825  39.118   7.312  13.911
11566W        W76826   8.401  35.812   0.787
11567W        W76827  16.789  38.024  13.036
11568W        W76828   1.973  12.907  11.056
11569W        W76829  17.265  30.412  14.822
11570W        W76830  29.055  31.135  14.279
11571W        W76831  15.702   4.952   3.982
11572W        W76832  39.469   5.373  11.716
11573W        W76833  21.557  12.843  12.865
11574W        W76834  20.849  12.823   2.208
11575W        W76835  23.291   1.459  11.152
11576W        W76836  42.874  12.188   0.395
11577W        W76837  12.756  40.608  11.867
11578W        W76838  13.280   5.955   2.222
11579W        W76839  34.403  15.794  14.934
11580W        W76840   6.230  12.394   3.321
11581W        W76841  39.952  11.229   5.072
11582W        W76842  27.154  24.905  14.265
11583W        W76843   1.780  13.604   0.790
11584W        W76844  42.550  27.158  13.064
11585W        W76845  25.989  28.625   3.088
11586W        W76846  33.877  36.388  14.857
11587W        W76847  14.333   8.933   3.130
11588W        W76848  33.220   3.435  13.874
11589W        W76849  14.336  32.198  12.143
11590W        W76850  20.625  18.528  12.199
11591W        W76851  33.922   0.816  10.377
11592W        W76852  35.101   1.305  14.109
11593W        W76853  11.881   7.783  13.171
11594W        W76854  15.442  11.689   2.651
11595W        W76855   2.012  23.098  14.014
11596W        W76856   2.678   1.262  10.892
11597W        W76857   9.083  14.839   4.110
11598W        W76858  37.558  10.073   2.721
11599W        W76859  35.382  37.584  13.144
11600W        W76860  27.605  44.204   4.150
11601W        W76861  21.622  32.805   3.159
11602W        W76862  15.031   1.419  13.027
11603W        W76863   9.336  39.288   3.716
11604W        W76864  36.630   1.732   1.791
11605W        W76865  34.475  26.397  14.321
11606W        W76866   8.186  14.608  13.059
11607W        W76867   9.411   0.414  14.493
11608W        W76868  12.339  14.168   4.886
11609W        W76869  22.174  38.790  12.929
11610W        W76870  17.585  18.748   1.185
11611W        W76871  29.527  32.995   0.091
11612W        W76872   6.678  26.626   5.219
11613W        W76873  42.471  24.232  14.014
11614W        W76874  22.377  23.211  11.096
11615W        W76875  11.736  21.813   2.576
11616W        W76876  41.187   9.149   3.705
11617W        W76877  26.627   4.806  11.590
11618W        W76878  16.726  16.198  12.192
11619W        W76879  31.041  35.353  12.382
11620W        W76880  32.140  14.153   2.513
11621W        W76881  15.769   8.146  11.033
11622W        W76882  18.735  33.554  11.988
11623W        W76883  11.479   9.880  12.486
11624W        W76884  11.928  21.787   1.733
11625W        W76885  27.193  15.050  14.394
11626W        W76886  40.241  38.059  11.468
11627W        W76887  11.100  41.449  14.782
11628W        W76888  42.241  22.174  13.906
11629W        W76889  10.344  26.006   2.755
11630W        W76890  27.521  11.199   1.226
11631W        W76891   6.930  10.575  13.022
11632W        W76892  32.909  37.544   1.798
11633W        W76893   1.714  40.400  13.454
11634W        W76894   7.478  14.180   1.446
11635W        W76895  24.780   2.248  12.063
11636W        W76896   0.161  20.313  12.508
11637W        W76897  44.258   9.583  14.039
11638W        W76898   8.428   9.080  13.937
11639W        W76899  18.317  29.508  11.146
11640W        W76900   4.446  24.718  14.911
11641W        W76901  39.036  34.062   2.389
11642W        W76902  29.876  24.205  12.982
11643W        W76903  16.177  23.635  13.085
11644W        W76904  30.496  23.857   3.644
11645W        W76905   1.491  24.026   1.169
11646W        W76906  37.589   1.634  10.752
11647W        W76907  13.919  25.275   3.964
11648W        W76908   9.981   2.034  10.210
11649W        W76909  29.681  17.057   3.300
11650W        W76910  34.976  18.580  12.326
11651W        W76911   1.736  29.504   3.377
11652W        W76912  35.054   6.776   1.567
11653W        W76913  26.099   5.320   1.946
11654W        W76914  38.271  32.155   0.794
11655W        W76915  32.167  29.879  14.820
11656W        W76916  21.297  14.289   1.659
11657W        W76917  11.195  41.829   1.497
11658W        W76918  15.197  13.605  12.558
11659W        W76919  40.280  11.131   2.747
11660W        W76920  21.297   8.372   2.420
11661W        W76921  38.453  25.636  13.055
11662W        W76922  27.170  44.296  13.779
11663W        W76923  10.832  14.796  12.374
11664W        W76924   9.400  25.573  11.652
11665W        W76925  21.062  37.344   0.764
11666W        W76926  23.156  42.644   4.257
11667W        W76927   9.713  28.697   3.154
11668W        W76928  15.698  19.643   4.114
11669W        W76929  15.391   9.988   2.391
11670W        W76930  23.982   3.472  13.353
11671W        W76931   5.294  43.225  12.501
11672W        W76932  44.763  44.811  11.364
11673W        W76933  15.369  11.077   4.137
11674W        W76934   2.293  13.664   2.947
11675W        W76935   1.573  22.775   0.120
11676W        W76936   7.835  32.012   0.434
11677W        W76937  42.465  34.142   2.307
11678W        W76938  32.959  36.854  14.813
11679W        W76939  40.995  26.906  10.671
11680W        W76940  42.058  17.802  12.804
11681W        W76941  44.223  12.013   0.003
11682W        W76942   2.789  13.887   1.802
11683W        W76943  10.096   0.668  12.020
11684W        W76944  11.629  13.647   3.177
11685W        W76945  13.558  30.294  11.874
11686W        W76946  19.218  33.427   1.365
11687W        W76947   6.257  41.537  13.994
11688W        W76948   0.796   1.734  11.096
11689W        W76949   1.879  44.042  13.068
11690W        W76950   2.342   6.699  13.864
11691W        W76951  26.689  14.752  14.897
11692W        W76952  38.721   8.659  12.473
11693W        W76953  20.750  14.585  10.418
11694W        W76954  24.420  23.522  13.071
11695W        W76955  29.622  38.461  12.091
11696W        W76956  36.820  41.425   2.621
11697W        W76957  29.198  37.116   0.484
11698W        W76958  41.500   5.772   0.775
11699W        W76959  21.943  38.096  11.628
11700W        W76960  25.007  22.965   2.508
11701W        W76961  42.821   7.350  12.107
11702W        W76962  32.594  24.327   1.771
11703W        W76963  17.286  10.558   9.884
11704W        W76964  17.425  37.625  12.470
11705W        W76965  20.158  36.112  13.479
11706W        W76966  42.389  10.607  11.855
11707W        W76967  12.753   2.540   4.556
11708W        W76968  26.607   8.162  13.954
11709W        W76969   1.878  36.765  10.761
11710W        W76970  39.447  24.051  10.935
11711W        W76971  43.766   8.557  14.868
11712W        W76972  33.410  34.834   1.468
11713W        W76973  22.560  34.025   0.760
11714W        W76974  38.664  33.401  14.066
11715W        W76975   7.434  32.521   2.337
11716W        W76976   2.966  37.896   2.657
11717W        W76977  16.423   9.902   1.907
11718W        W76978  31.522  43.407   3.239
11719W        W76979  27.047  40.465   2.252
11720W        W76980  23.994  34.788  12.515
11721W        W76981  42.207  40.550  13.933
11722W        W76982   9.546   4.720  13.550
11723W        W76983  19.766  27.419  11.432
11724W        W76984  16.549  32.247   1.720
11725W        W76985  12.053   7.140   3.731
11726W        W76986  23.602  10.792  13.157
11727W        W76987  26.198  32.953   1.909
11728W        W76988  35.740  19.736   4.616
11729W        W76989  32.567  32.653   4.544
11730W        W76990  23.844  36.407  11.623
11731W        W76991  10.665  39.498   0.037
11732W        W76992  21.734  11.228   3.662
11733W        W76993  42.433  30.013  14.971
11734W        W76994   0.204  40.504  13.483
11735W        W76995  40.258  32.606   2.274
11736W        W76996  27.014   9.625   4.015
11737W        W76997  42.643  34.034   4.444
11738W        W76998  10.424  35.497   0.237
11739W        W76999  17.643  41.850  12.534
11740W        W77000   7.372   7.303   5.009
11741W        W77001  41.970   5.657   3.575
11742W        W77002  10.329  25.483  11.860
11743W        W77003  23.187  11.287   3.909
11744W        W77004  37.909  37.115   2.123
11745W        W77005  31.444  11.524   4.927
11746W        W77006  25.626   1.976   1.393
11747W        W77007  41.425  37.551   3.982
11748W        W77008   2.403  17.886  12.166
11749W        W77009   3.682  11.152   3.277
11750W        W77010   5.899  15.068   4.484
11751W        W77011  34.833  31.920  11.529
11752W        W77012  40.586  19.351  13.895
11753W        W77013  26.176  37.881   1.772
11754W        W77014   5.676   2.387   3.626
11755W        W77015  14.029  37.353   3.984
11756W        W77016  38.352  34.082  12.497
11757W        W77017   6.644  15.958  14.053
11758W        W77018  10.316   6.888  14.962
11759W        W77019  30.389  24.264  14.700
11760W        W77020  16.635   7.797   0.306
11761W        W77021  22.294  39.869  14.877
11762W        W77022  43.700  30.284  12.782
11763W        W77023   6.332  20.027   1.345
11764W        W77024  19.438  33.653  12.487
11765W        W77025  25.784  26.231   2.458
11766W        W77026  33.608  10.308  11.165
11767W        W77027   2.424   3.772  10.629
11768W        W77028   0.445  18.769  13.468
11769W        W77029  13.898   4.450   4.762
11770W        W77030   4.852   5.443   2.356
11771W        W77031  20.785  20.798  10.582
11772W        W77032   3.618  43.445  11.217
11773W        W77033  19.814  15.418  11.941
11774W        W77034  21.353  15.835  10.704
11775W        W77035  30.135  26.478   3.183
11776W        W77036  32.546   0.577  11.484
11777W        W77037   6.437  24.973   4.215
11778W        W77038  42.031   3.457  10.786
11779W        W77039  26.098   8.225  10.205
11780W        W77040  38.563   8.602   2.289
11781W        W77041   3.896  17.586   0.476
11782W        W77042  17.395  36.167   1.627
11783W        W77043   8.778  10.738   3.618
11784W        W77044  12.428  20.094   0.283
11785W        W77045  24.710  32.772   1.791
11786W        W77046   6.362  29.866  13.920
11787W        W77047   4.307  28.407  13.052
11788W        W77048  36.836   8.774  13.975
11789W        W77049  25.532  14.465   3.232
11790W        W77050  17.494  40.147  12.970
11791W        W77051  26.465  32.779  13.337
11792W        W77052  11.165  26.618   0.296
11793W        W77053  20.797  28.437   2.232
11794W        W77054  12.742  38.220  14.844
11795W        W77055  41.544  18.687  10.982
11796W        W77056  43.037  25.607   1.755
11797W        W77057  18.667  12.647   0.488
11798W        W77058   7.805  27.915   1.445
11799W        W77059  35.672  42.951  12.605
11800W        W77060  33.394   2.721  10.649
11801W        W77061  42.832  18.659   3.071
11802W        W77062  18.501   2.001   2.245
11803W        W77063  42.897  30.981   1.163
11804W        W77064   6.540  11.435   3.508
11805W        W77065  29.682  34.944   2.726
11806W        W77066  16.881  30.107   1.891
11807W        W77067  26.116  30.413   4.658
11808W        W77068   4.931  23.518   1.463
11809W        W77069  10.773  41.758  11.093
11810W        W77070  26.684  30.005   0.957
11811W        W77071  17.119  25.737  12.570
11812W        W77072  40.428  33.971   1.802
11813W        W77073   7.384  25.659   1.892
11814W        W77074  26.032  21.825  12.556
11815W        W77075  39.124  14.276   2.239
11816W        W77076  40.355  34.221   0.897
11817W        W77077  22.698  18.325   3.223
11818W        W77078   5.158  21.932  11.187
11819W        W77079  11.693   9.817   2.749
11820W        W77080  38.050  16.728   3.611
11821W        W77081  42.378  39.638  14.018
11822W        W77082   2.038  37.062   2.835
11823W        W77083  28.401  25.066  14.098
11824W        W77084   6.591  35.913  13.588
11825W        W77085  35.048  18.507  13.891
11826W        W77086  27.545   4.569   4.902
11827W        W77087  13.256  14.801   0.814
11828W        W77088  39.084   9.632  12.589
11829W        W77089  10.725  34.386   2.136
11830W        W77090  34.653  22.533  13.046
11831W        W77091   5.840  25.649   1.776
11832W        W77092  24.910  24.962   2.242
11833W        W77093  43.733  38.882  11.060
11834W        W77094  31.451  43.340  10.393
11835W        W77095   8.437   5.542   4.156
11836W        W77096   2.461  30.940   1.316
11837W        W77097  41.261   5.237   1.361
11838W        W77098   2.758  11.425   3.098
11839W        W77099  40.320  11.672   0.518
11840W        W77100  34.393  38.067  11.119
11841W        W77101  27.189  39.501  10.638
11842W        W77102  44.276   4.984  14.296
11843W        W77103   4.684   1.796   1.856
11844W        W77104   7.320  17.622   1.037
11845W        W77105  34.488  31.383   0.761
11846W        W77106  38.252  25.979   1.806
11847W        W77107   4.679  27.594   0.827
11848W        W77108  33.979  10.696  14.055
11849W        W77109   7.810  16.632   4.585
11850W        W77110  42.050  23.407  12.664
11851W        W77111  43.072  11.684   2.918
11852W        W77112  24.891  34.496   3.642
11853W        W77113  24.428  33.998   0.274
11854W        W77114  18.990  41.286  13.982
11855W        W77115  24.770  44.681   2.045
11856W        W77116   4.307  29.417   3.251
11857W        W77117   3.602   3.882   0.482
11858W        W77118   1.316  20.251  12.794
11859W        W77119   2.577  44.442  10.288
11860W        W77120   4.657  36.864   1.948
11861W        W77121  38.997  30.890   0.835
11862W        W77122  10.625  13.999   2.026
11863W        W77123  13.118  40.321   2.675
11864W        W77124  44.436  36.438   0.377
11865W        W77125  27.928  16.388   1.247
11866W        W77126  30.871  21.572  10.625
11867W        W77127   0.996  37.336   2.781
11868W        W77128  21.262  36.271  12.399
11869W        W77129  19.522   1.581  14.814
11870W        W77130   3.182   9.372  13.347
11871W        W77131  34.843  16.345   4.605
11872W        W77132  39.878  18.486  11.210
11873W        W77133  40.511  43.890   2.163
11874W        W77134  32.961  42.615  11.604
11875W        W77135  13.706  36.743  13.536
11876W        W77136   2.033  43.689  11.358
11877W        W77137  23.584  17.155   4.036
11878W        W77138  32.657   0.854  10.660
11879W        W77139  41.006  20.667  12.937
11880W        W77140  33.877  27.062   4.127
11881W        W77141   2.949  36.269   2.157
11882W        W77142   7.680  20.591  11.973
11883W        W77143  32.866   7.915   1.915
11884W        W77144  12.958   9.156   2.044
11885W        W77145   1.478  16.291  13.493
11886W        W77146   7.006  39.622  14.017
11887W        W77147  11.585  18.190  12.025
11888W        W77148  38.040  30.247   2.527
11889W        W77149  35.281  44.218   2.726
11890W        W77150  28.249   2.877   3.709
11891W        W77151   6.598  22.532   0.672
11892W        W77152   5.538  40.614   4.228
11893W        W77153  24.861   8.457   2.849
11894W        W77154  24.758   1.248   0.910
11895W        W77155  34.376  17.553   4.330
11896W        W77156   3.873  31.538  10.727
11897W        W77157   1.608  38.444   1.223
11898W        W77158  29.183  29.134  14.932
11899W        W77159  18.520  10.908   4.515
11900W        W77160  11.671  27.931  10.619
11901W        W77161  41.284  44.357   4.089
11902W        W77162  22.807  12.639  14.750
11903W        W77163  36.081  42.428  14.507
11904W        W77164  33.118  28.209   4.925
11905W        W77165  38.411  34.969  10.988
11906W        W77166  11.932  27.508   2.239
11907W        W77167  22.222  23.199  13.498
11908W        W77168   6.122  42.376  12.953
11909W        W77169  29.671  38.929   2.333
11910W        W77170  33.774  22.343   4.149
11911W        W77171  27.431  20.055  12.637
11912W        W77172  11.337  36.495   2.848
11913W        W77173  22.366   6.426   0.821
11914W        W77174   5.260  30.692   1.256
11915W        W77175  41.935   7.736  13.407
11916W        W77176  18.265   4.713  11.501
11917W        W77177  35.272  32.871  14.670
11918W        W77178  41.490  10.658   2.289
11919W        W77179  20.021  19.731   2.812
11920W        W77180  23.977  32.163  11.586
11921W        W77181   7.435  42.695  14.796
11922W        W77182  22.178   3.751  10.938
11923W        W77183  41.850  16.021   3.676
11924W        W77184  42.540  34.636   2.167
11925W        W77185  12.090  38.083  12.566
11926W        W77186  12.751  41.592  12.033
11927W        W77187  27.380   8.737   3.679
11928W        W77188  31.589  28.521  11.574
11929W        W77189  14.102  40.551   2.835
11930W        W77190  17.108  24.765  12.618
11931W        W77191  35.110  21.970   4.606
11932W        W77192  36.865  17.994  14.245
11933W        W77193  22.710  41.290   4.104
11934W        W77194  23.220  38.941  11.048
11935W        W77195  36.874  22.012   0.798
11936W        W77196  12.307  39.148   3.401
11937W        W77197   6.423  31.381  13.788
11938W        W77198  38.018   6.205   2.303
11939W        W77199  17.773  38.326  12.433
11940W        W77200  21.965  39.455  14.096
11941W        W77201   5.274   1.925   3.161
11942W        W77202  41.862  31.722  11.517
11943W        W77203  25.056  18.742   1.357
11944W        W77204  36.883   9.312  14.664
11945W        W77205  31.171   9.235   1.784
11946W        W77206  34.031  16.049   2.809
11947W        W77207  24.000  38.551  11.946
11948W        W77208   6.709  44.934  13.411
11949W        W77209   0.803  25.715  14.316
11950W        W77210  18.112  27.709   1.404
11951W        W77211  16.056  31.948  10.680
11952W        W77212  32.175   2.847   4.736
11953W        W77213  18.045  26.595   1.753
11954W        W77214  36.979  38.876  13.642
11955W        W77215   8.324   4.001  10.804
11956W        W77216  13.048   1.012  12.921
11957W        W77217  37.972   4.263  14.236
11958W        W77218   9.880  16.131  10.871
11959W        W77219   6.897   1.947   3.557
11960W        W77220   3.685  21.794  11.598
11961W        W77221   0.865   7.878  14.954
11962W        W77222  23.320  24.583  12.055
11963W        W77223  16.678  36.383   4.700
11964W        W77224   8.430  37.611  13.850
11965W        W77225  29.662  24.667   0.450
11966W        W77226   8.448  38.049  13.576
11967W        W77227  32.683   5.009   2.879
11968W        W77228  40.324   4.257  12.917
11969W        W77229  28.024   7.983  11.410
11970W        W77230  43.974  24.950   1.432
11971W        W77231  18.973  10.256   4.490
11972W        W77232  20.448  35.092  14.614
11973W        W77233   5.121   0.919   4.075
11974W        W77234  22.727   8.368  13.001
11975W        W77235  27.064  33.819  13.866
11976W        W77236  30.669  18.549   0.838
11977W        W77237   4.061  35.913  14.737
11978W        W77238  31.632  19.294  14.336
11979W        W77239  42.035  44.897  11.829
11980W        W77240   7.688  29.939   2.504
11981W        W77241  16.907  30.710   0.412
11982W        W77242  31.479  25.224  12.461
11983W        W77243  33.338  44.409   4.549
11984W        W77244   2.848  43.505   2.953
11985W        W77245   0.763  24.055  11.705
11986W        W77246  44.744  22.710  10.335
11987W        W77247  28.659   2.208  12.673
11988W        W77248  29.909   3.381   1.336
11989W        W77249  44.985  25.002  10.875
11990W        W77250  41.766  35.557  13.212
11991W        W77251   4.052   8.930  11.960
11992W        W77252  36.933  36.080  13.383
11993W        W77253  25.146  26.668   4.876
11994W        W77254  28.299  12.445  14.176
11995W        W77255   5.162  31.992   0.977
11996W        W77256  36.931  35.003   0.005
11997W        W77257  17.642  14.153  10.736
11998W        W77258   1.825   2.927  10.765
11999W        W77259  13.300  12.103  12.046
12000W        W77260  17.311   0.063  11.919
12001W        W77261   6.153  39.749  12.416
12002W        W77262  38.441   3.601   3.561
12003W        W77263  40.824  44.399  11.808
12004W        W77264  37.657   3.278  12.138
12005W        W77265   9.424  29.147   3.070
12006W        W77266  30.959  15.688  12.891
12007W        W77267  38.558   2.487  13.020
12008W        W77268  37.141   7.355   3.148
12009W        W77269  26.466  18.985  10.277
12010W        W77270  37.580  13.816  14.500
12011W        W77271  15.076  10.722  11.895
12012W        W77272  13.769   3.801  14.552
12013W        W77273   7.944  18.473  10.811
12014W        W77274   8.169   7.211  14.595
12015W        W77275  18.057  10.759   3.627
12016W        W77276  16.137  12.418  14.279
12017W        W77277  37.446  14.718   2.610
12018W        W77278  13.611   2.798   4.140
12019W        W77279   5.941  33.147  13.025
12020W        W77280  31.962  14.583  11.613
12021W        W77281  42.582  13.769   2.158
12022W        W77282  18.624  20.659  11.459
12023W        W77283  39.350  16.648  13.295
12024W        W77284  17.798  43.028   2.609
12025W        W77285  36.500  29.512   2.182
12026W        W77286   1.951  35.623  14.483
12027W        W77287  38.317  40.456   3.113
12028W        W77288  13.112  21.329   4.849
12029W        W77289  41.694   0.275   3.558
12030W        W77290  42.444  11.072   2.867
12031W        W77291   3.675  30.141   4.780
12032W        W77292   3.851  11.233  11.093
12033W        W77293  26.172  32.127  11.827
12034W        W77294   2.422  31.657  11.089
12035W        W77295  22.415  15.184   3.283
12036W        W77296  24.553  32.193  14.887
12037W        W77297  15.856  19.463  10.405
12038W        W77298  14.294  32.059   2.816
12039W        W77299   7.849   1.535   2.893
12040W        W77300  34.276  12.691  13.502
12041W        W77301   2.662  19.091  12.952
12042W        W77302  36.159   5.994  12.363
12043W        W77303  13.727  34.958   0.959
12044W        W77304  42.123   8.862  11.463
12045W        W77305  16.636  43.547  11.586
12046W        W77306   0.820   5.990  14.184
12047W        W77307  40.502   2.856  10.892
12048W        W77308  15.656  34.671   1.782
12049W        W77309  14.500  12.114  11.007
12050W        W77310  32.499  37.132  13.933
12051W        W77311  31.623  40.324  12.573
12052W        W77312  24.970  26.032  11.971
12053W        W77313  12.739  13.051   0.572
12054W        W77314  10.672   1.392   0.918
12055W        W77315  39.316  31.925  12.903
12056W        W77316  20.334  15.738  10.527
12057W        W77317  41.796   1.733  14.276
12058W        W77318  24.549  10.425   2.678
12059W        W77319   0.598  22.986  10.751
12060W        W77320  30.900  36.055  12.504
12061W        W77321   4.823   1.812   0.287
12062W        W77322  39.256  25.656   1.811
12063W        W77323   9.830   9.709  14.990
12064W        W77324  39.064  14.911   1.239
12065W        W77325   5.611  20.275  14.432
12066W        W77326  19.909  42.237   3.643
12067W        W77327  15.202  16.333   1.223
12068W        W77328  32.985  30.672  14.061
12069W        W77329   2.963  18.261   0.236
12070W        W77330  15.577  25.984  11.376
12071W        W77331   6.823  19.854   0.109
12072W        W77332  38.300   3.116  11.454
12073W        W77333  23.076  28.926  14.502
12074W        W77334  16.079  18.628   3.676
12075W        W77335  11.224   5.994  13.317
12076W        W77336  34.466   1.100   9.858
12077W        W77337   4.791  28.453   1.466
12078W        W77338  16.716  36.811   2.413
12079W        W77339   0.175   7.712  14.837
12080W        W77340   6.075   4.874   0.685
12081W        W77341  25.027  11.105  13.011
12082W        W77342   2.516  24.136   3.326
12083W        W77343  41.624  39.550   2.802
12084W        W77344   0.731  23.588   3.165
12085W        W77345  15.666  19.686   5.524
12086W        W77346  21.239  43.092   4.556
12087W        W77347  37.910   6.637   4.682
12088W        W77348  39.883  13.354   4.088
12089W        W77349   2.806  38.864  14.838
12090W        W77350  37.417  42.835   2.321
12091W        W77351  33.591   3.551  10.179
12092W        W77352  31.892  22.795   3.248
12093W        W77353  36.437  22.693  10.632
12094W        W77354  30.110  39.929  13.523
12095W        W77355  36.564  15.541   4.171
12096W        W77356  18.918  42.370   2.214
12097W        W77357  34.032  26.967   2.972
12098W        W77358  20.726  31.392   2.367
12099W        W77359  22.955  18.016   0.238
12100W        W77360  11.121  43.336  13.784
12101W        W77361   5.871  29.856  14.839
12102W        W77362  41.413  21.214   0.252
12103W        W77363  10.675  33.382   4.148
12104W        W77364  11.092  36.028   0.262
12105W        W77365   4.457  11.399   1.916
12106W        W77366  24.030  44.089   1.853
12107W        W77367  22.147   8.830  12.653
12108W        W77368  22.100  43.806   0.452
12109W        W77369   9.926  27.870  12.929
12110W        W77370  36.850  29.407   3.751
12111W        W77371  10.396  33.579   1.006
12112W        W77372  41.903  12.559   0.384
12113W        W77373  11.831  37.502  13.388
12114W        W77374  11.843  35.444  10.678
12115W        W77375  10.867  39.590  12.616
12116W        W77376  37.090  16.829  13.439
12117W        W77377  19.476   3.399  12.969
12118W        W77378  18.742  24.204  13.807
12119W        W77379  25.965  12.291   3.408
12120W        W77380   8.475   3.380   4.298
12121W        W77381  15.969  19.712  11.709
12122W        W77382  44.480  21.761   1.819
12123W        W77383  44.859  37.443  12.972
12124W        W77384   7.610  33.574  13.920
12125W        W77385  20.802  37.998  14.371
12126W        W77386  12.584  44.806   3.409
12127W        W77387   3.182  14.797  10.666
12128W        W77388  38.247   2.449  14.232
12129W        W77389   8.357  14.556   1.664
12130W        W77390  41.545   2.701   1.699
12131W        W77391  37.460  43.012  11.435
12132W        W77392   2.788  31.373  14.939
12133W        W77393   1.078  44.556   0.905
12134W        W77394  14.001   9.406  11.178
12135W        W77395  24.785  11.763   0.807
12136W        W77396  44.943   0.633   1.600
12137W        W77397  24.249  21.289   3.291
12138W        W77398   8.356  15.298  11.976
12139W        W77399  36.435  41.736   4.594
12140W        W77400  10.828  20.559   2.432
12141W        W77401  22.208   3.850  12.586
12142W        W77402  32.872  42.416  13.940
12143W        W77403  14.385   9.785  14.203
12144W        W77404  23.734  11.930  11.197
12145W        W77405  20.764  35.045  11.618
12146W        W77406  10.210   5.707  13.990
12147W        W77407  40.322  30.209   1.784
12148W        W77408  20.369   9.914  11.881
12149W        W77409  38.318  26.613  12.097
12150W        W77410  43.358  37.311   1.916
12151W        W77411  28.380  28.925   5.089
12152W        W77412  17.603  14.467   2.385
12153W        W77413  28.123  24.467   1.869
12154W        W77414   3.191  32.164  13.398
12155W        W77415  38.147   5.654  14.427
12156W        W77416  39.603  35.105   4.233
12157W        W77417  18.619   5.417   4.981
12158W        W77418  30.363  34.329  13.360
12159W        W77419  38.819  12.277   4.149
12160W        W77420  30.939  22.516  14.981
12161W        W77421   2.281   0.897   3.127
12162W        W77422   4.934  30.670  11.042
12163W        W77423   8.161   8.163   4.155
12164W        W77424  15.153  26.750  13.335
12165W        W77425  35.854  44.738  12.464
12166W        W77426  15.563  36.152   3.520
12167W        W77427  14.836  20.579  14.297
12168W        W77428  17.054  21.743  11.986
12169W        W77429  41.391  35.617   1.838
12170W        W77430  12.197  28.868  11.542
12171W        W77431   2.054  16.135  11.878
12172W        W77432  24.302  34.933   3.986
12173W        W77433  32.659  18.272   1.584
12174W        W77434  37.996  14.672  14.078
12175W        W77435  12.777   0.804   2.902
12176W        W77436   4.237   3.155   4.158
12177W        W77437  37.100  11.384   2.796
12178W        W77438   5.832  21.239   3.177
12179W        W77439  11.770   4.391  11.842
12180W        W77440  24.134  11.372  11.977
12181W        W77441  24.725  14.913   1.521
12182W        W77442  38.976  10.279   3.841
12183W        W77443  29.421   4.250   3.808
12184W        W77444   6.146  44.469   5.096
12185W        W77445  28.635  31.411  12.985
12186W        W77446  39.078  22.585  13.197
12187W        W77447   9.501   9.905  14.245
12188W        W77448   5.983  32.584   1.389
12189W        W77449   0.353  31.897  13.017
12190W        W77450  42.073  23.864   3.694
12191W        W77451  25.630  32.412   4.525
12192W        W77452  26.107   1.990   1.962
12193W        W77453  44.811  29.393   2.243
12194W        W77454  13.701  36.584   2.617
12195W        W77455  38.083  24.892  11.835
12196W        W77456  29.134  31.620   0.442
12197W        W77457  36.708  12.353  13.573
12198W        W77458  40.106   2.494   4.125
12199W        W77459  34.123  43.900   0.734
12200W        W77460   9.609  16.604   0.726
12201W        W77461  17.551  24.954   1.548
12202W        W77462  29.695  20.993  10.968
12203W        W77463   5.352  19.735  12.816
12204W        W77464  21.318  41.280  10.889
12205W        W77465  31.921  12.612   3.620
12206W        W77466  20.988  43.287  10.983
12207W        W77467  15.236  28.168  10.670
12208W        W77468  19.060  28.030  14.415
12209W        W77469  16.760  43.269   3.900
12210W        W77470  34.565  14.842  11.026
12211W        W77471  30.610  10.690  11.557
12212W        W77472  14.958  19.360   5.076
12213W        W77473   0.219  40.942  12.521
12214W        W77474   2.030  17.486  12.532
12215W        W77475  41.490  19.006  11.635
12216W        W77476  26.185  28.515   4.806
12217W        W77477  25.281  13.182   3.581
12218W        W77478  32.100   5.391   2.139
12219W        W77479   6.727  13.211  12.448
12220W        W77480  15.150  28.206   4.637
12221W        W77481  30.186   3.169  14.359
12222W        W77482  11.836   4.180   2.284
12223W        W77483   6.229  33.622   2.173
12224W        W77484  40.021  37.512  10.598
12225W        W77485  26.140  38.856  14.045
12226W        W77486  12.416  12.189   1.412
12227W        W77487  27.599   0.839  13.873
12228W        W77488  21.583   6.616  11.974
12229W        W77489  39.324  25.203  14.456
12230W        W77490  38.060   2.325  12.892
12231W        W77491  43.992   1.323  14.108
12232W        W77492  14.391  13.198   3.568
12233W        W77493  12.391  19.262  11.548
12234W        W77494  43.620  21.975   2.793
12235W        W77495  43.474  16.559   4.701
12236W        W77496  42.750  25.650   4.597
12237W        W77497  19.273   7.828  14.187
12238W        W77498  42.500  33.230  10.667
12239W        W77499  35.002  44.101   2.289
12240W        W77500  38.524  24.506   0.324
12241W        W77501   1.797   9.234   1.870
12242W        W77502   8.584   1.287  14.419
12243W        W77503  23.007  42.987  13.887
12244W        W77504  10.681  42.044  12.107
12245W        W77505  32.965  39.909  11.680
12246W        W77506  20.426   8.154  12.993
12247W        W77507  23.620  21.326   2.738
12248W        W77508  20.329  33.283   2.129
12249W        W77509  28.187  17.179  10.729
12250W        W77510  43.444  12.909   2.891
12251W        W77511  10.515  41.747  11.547
12252W        W77512  32.375  12.694  13.960
12253W        W77513  15.276  17.163  11.462
12254W        W77514  40.996  36.137  13.617
12255W        W77515  15.773   9.859  13.443
12256W        W77516  12.039  42.040   1.835
12257W        W77517  32.223   6.648   4.693
12258W        W77518  29.618   7.713  11.907
12259W        W77519  16.195  35.605  11.689
12260W        W77520  23.591  14.299   0.436
12261W        W77521   2.204  28.114   3.648
12262W        W77522   0.462  29.431  14.833
12263W        W77523  32.026  11.338   3.081
12264W        W77524   7.498  11.248   0.781
12265W        W77525  22.686  31.626  14.280
12266W        W77526  37.128  13.275  12.797
12267W        W77527  15.725   5.479   3.908
12268W        W77528  10.686  29.116   3.750
12269W        W77529  24.946  32.984  12.445
12270W        W77530   1.434  18.815  12.894
12271W        W77531  19.358  27.870   3.254
12272W        W77532  20.748  37.193  13.879
12273W        W77533  11.885  33.366   0.425
12274W        W77534  20.691   4.641   2.744
12275W        W77535  18.810  22.544  12.418
12276W        W77536  17.382  12.128  11.888
12277W        W77537  15.863  44.557   3.511
12278W        W77538   9.356  36.339   3.088
12279W        W77539  24.904  19.907  10.004
12280W        W77540  34.503   5.015  11.062
12281W        W77541  37.400  22.404   1.620
12282W        W77542  42.943  21.979   4.105
12283W        W77543  28.497  39.733  11.409
12284W        W77544  36.124  25.566   0.012
12285W        W77545   4.894  22.306  11.424
12286W        W77546  39.773  20.632  13.197
12287W        W77547  35.030  30.805   2.352
12288W        W77548  41.363  24.703   0.735
12289W        W77549  13.095  37.010   4.302
12290W        W77550   9.744  41.203   1.592
12291W        W77551  35.969  27.899   1.281
12292W        W77552  10.939  15.094  14.819
12293W        W77553  22.077   1.247   0.675
12294W        W77554  32.175  27.947   2.297
12295W        W77555  21.728  20.631  11.898
12296W        W77556  24.451  36.915  10.779
12297W        W77557  16.661  16.563  11.197
12298W        W77558   6.123   8.865  11.630
12299W        W77559  16.019   5.244  11.006
12300W        W77560  19.646  13.659  13.447
12301W        W77561  10.726  43.763   4.205
12302W        W77562  33.077   1.471  11.157
12303W        W77563  18.426  33.125   2.349
12304W        W77564  38.305   2.579   0.326
12305W        W77565   1.732  34.034   1.741
12306W        W77566   0.359   6.120  11.081
12307W        W77567  22.864  36.532   1.327
12308W        W77568  21.277  42.448   0.949
12309W        W77569  21.687  31.172   2.210
12310W        W77570  36.001  31.603   3.903
12311W        W77571  39.986  38.999   4.105
12312W        W77572  25.203  40.759  11.126
12313W        W77573  17.582  36.693   2.799
12314W        W77574  44.300  22.142  10.456
12315W        W77575   8.122  23.750  14.453
12316W        W77576  29.037  20.003   1.495
12317W        W77577  24.728  41.966  12.752
12318W        W77578  23.106  21.691  10.976
12319W        W77579  39.188  28.044   1.765
12320W        W77580   1.690  24.432   3.974
12321W        W77581  18.773  12.289  14.417
12322W        W77582  16.700  10.566   1.184
12323W        W77583   5.172   4.652  12.501
12324W        W77584  25.069  31.065  12.579
12325W        W77585  28.981  36.440   1.970
12326W        W77586  36.500  29.516  13.021
12327W        W77587   4.195  36.872   2.663
12328W        W77588  14.994  42.043   1.088
12329W        W77589  24.271  28.273   4.408
12330W        W77590  12.762   7.241  14.709
12331W        W77591   3.631  13.648  13.416
12332W        W77592  20.001  34.871   0.408
12333W        W77593  11.412  36.986   3.598
12334W        W77594   1.368  14.973  10.462
12335W        W77595  14.859   7.391   3.738
12336W        W77596  15.376  33.364  11.647
12337W        W77597  13.286  23.693   3.208
12338W        W77598  23.528  23.466   3.767
12339W        W77599  32.121  13.366   1.772
12340W        W77600  28.464  25.616   2.095
12341W        W77601  42.579  30.873  14.006
12342W        W77602  12.097  16.452   3.198
12343W        W77603  25.006  39.698  13.413
12344W        W77604  29.983  24.183   4.312
12345W        W77605  17.328  21.041   3.016
12346W        W77606  14.165  41.371   4.378
12347W        W77607   8.744  12.127  11.518
12348W        W77608  22.248   7.225  11.950
12349W        W77609  14.059  10.668   4.555
12350W        W77610   3.830  44.813   3.842
12351W        W77611  39.821  42.025  10.653
12352W        W77612  38.629  25.597   3.387
12353W        W77613  37.969  24.485  13.288
12354W        W77614  41.989  19.044   1.136
12355W        W77615  12.957  24.427   1.668
12356W        W77616  37.718  29.233  11.132
12357W        W77617  16.720   5.174   3.278
12358W        W77618  26.230  26.013   1.199
12359W        W77619  13.274  44.617  12.546
12360W        W77620  37.500  13.880  11.136
12361W        W77621  12.303  11.674   4.719
12362W        W77622  37.050  36.654  14.398
12363W        W77623  39.883  37.796  11.098
12364W        W77624  41.416  31.981   0.908
12365W        W77625  16.395  35.020  14.525
12366W        W77626  20.114   6.703   2.212
12367W        W77627  10.438  19.572  11.071
12368W        W77628  27.465  31.044  11.934
12369W        W77629  18.592  20.959   2.822
12370W        W77630  42.574  29.244  11.095
12371W        W77631  39.003  43.527  14.320
12372W        W77632  32.165  43.837  14.297
12373W        W77633  19.710  19.748   3.233
12374W        W77634  24.048  34.129   4.559
12375W        W77635  31.014   8.926  12.666
12376W        W77636   9.581  28.359   2.717
12377W        W77637   7.371   3.756  12.243
12378W        W77638  32.456  18.140  14.387
12379W        W77639  23.810  31.497  14.383
12380W        W77640  34.999  21.906   2.259
12381W        W77641   0.098  42.543  13.076
12382W        W77642  34.429  21.956  11.094
12383W        W77643  25.297  26.174   1.831
12384W        W77644   6.310  12.822   1.398
12385W        W77645  34.616  40.335  13.878
12386W        W77646  16.190  34.103   5.007
12387W        W77647  41.018  28.535   0.096
12388W        W77648  26.835  16.725   3.682
12389W        W77649  32.244   1.950   2.910
12390W        W77650  44.815  40.351   2.331
12391W        W77651  32.760   7.582   1.524
12392W        W77652  23.494   1.738   1.996
12393W        W77653  35.723  19.039   1.431
12394W        W77654  12.815  11.115  14.300
12395W        W77655  14.590  17.386   4.232
12396W        W77656  44.705  34.481   0.313
12397W        W77657  17.890  31.630  14.546
12398W        W77658  13.272  12.895   4.575
12399W        W77659  21.467   7.158  12.986
12400W        W77660   6.249  42.633   1.867
12401W        W77661  27.663  25.100   2.011
12402W        W77662  25.210  14.775   1.388
12403W        W77663   0.857   0.211  12.629
12404W        W77664  27.964  35.284  14.975
12405W        W77665  39.508  27.899  10.840
12406W        W77666  19.840  29.711   0.687
12407W        W77667  21.131   4.340  14.378
12408W        W77668   9.355  24.107  13.407
12409W        W77669  26.036   7.099   0.431
12410W        W77670   2.134   1.202   1.757
12411W        W77671  42.593  14.871   3.373
12412W        W77672   4.914  14.729  11.192
12413W        W77673  30.047  22.690   2.169
12414W        W77674  44.518  44.242   4.922
12415W        W77675  24.546   0.948  13.124
12416W        W77676  23.743   9.241  11.503
12417W        W77677  34.468  35.038   0.986
12418W        W77678  20.704   6.253   2.623
12419W        W77679  27.964  14.148   0.714
12420W        W77680  33.923  17.677   0.581
12421W        W77681  30.556  22.122   1.307
12422W        W77682  35.630  24.031   0.347
12423W        W77683  16.112  13.901  14.360
12424W        W77684  32.236  13.031   3.739
12425W        W77685  36.394  28.267  12.297
12426W        W77686  28.869   2.357   3.059
12427W        W77687  23.502  27.572   2.293
12428W        W77688  24.768  33.892   1.783
12429W        W77689  35.538   6.873   1.788
12430W        W77690  28.142   7.811   3.837
12431W        W77691  27.684  11.284   0.024
12432W        W77692   2.392   1.450  14.307
12433W        W77693  42.063  41.463   2.217
12434W        W77694  22.479  25.511   1.447
12435W        W77695  33.590  30.871   2.639
12436W        W77696   5.242  37.599   0.839
12437W        W77697  28.512  30.070   1.360
12438W        W77698  29.523  20.146  11.513
12439W        W77699  40.925  41.903   4.097
12440W        W77700  41.423   4.231  11.034
12441W        W77701  38.432  30.364   3.140
12442W        W77702  39.929  24.999   2.837
12443W        W77703   9.329  16.553   3.232
12444W        W77704   4.274   7.329  13.816
12445W        W77705  18.637  18.757  11.256
12446W        W77706  29.860  23.484  14.432
12447W        W77707  24.730  32.353   0.486
12448W        W77708   2.193   0.907  14.944
12449W        W77709   0.694   1.813   0.406
12450W        W77710  36.123  26.946  12.710
12451W        W77711  14.143  20.285   0.493
12452W        W77712  35.615  24.033   1.304
12453W        W77713  19.936  34.539   2.873
12454W        W77714   8.212   3.599  12.476
12455W        W77715  28.566   8.565   2.256
12456W        W77716  37.576  33.064   2.248
12457W        W77717   8.871  10.251   4.278
12458W        W77718  30.477  11.844   1.278
12459W        W77719  27.613  18.050   0.898
12460W        W77720  41.439  20.103  14.395
12461W        W77721   5.458   5.592  11.448
12462W        W77722  24.688  33.366   0.750
12463W        W77723   9.314  11.447   1.928
12464W        W77724   6.834  18.806   4.762
12465W        W77725  31.990   9.432  10.966
12466W        W77726  41.880  32.655   4.717
12467W        W77727  22.727  17.634  14.075
12468W        W77728   4.401  29.042   2.072
12469W        W77729  18.141  11.961  13.905
12470W        W77730  10.721  18.180   2.662
12471W        W77731   1.774   7.793  14.074
12472W        W77732   7.735  28.191   4.335
12473W        W77733  42.046  40.834   4.495
12474W        W77734  16.649   7.105  12.753
12475W        W77735  39.149  36.356  13.097
12476W        W77736   8.053  18.081   0.020
12477W        W77737  24.981  34.449  10.993
12478W        W77738  13.149  33.723   0.874
12479W        W77739  22.182  41.376   0.707
12480W        W77740  30.440  42.189   0.348
12481W        W77741  28.150   8.244   4.112
12482W        W77742  27.986   2.331   1.912
12483W        W77743  10.270  29.389  13.451
12484W        W77744   6.039  23.619  12.381
12485W        W77745  42.101  43.687  11.600
12486W        W77746  43.372  13.397   2.755
12487W        W77747  23.082  20.125   3.061
12488W        W77748   1.744  30.041  11.992
12489W        W77749  32.781  30.960   2.603
12490W        W77750  13.891   5.257  12.697
12491W        W77751  39.530   6.401   2.399
12492W        W77752   1.442  39.529   3.777
12493W        W77753  22.651  23.371  12.290
12494W        W77754   0.277  40.990   4.324
12495W        W77755  13.736  42.214   3.203
12496W        W77756  11.578  36.856  14.825
12497W        W77757  37.549  10.984   1.912
12498W        W77758  36.444  17.130  10.114
12499W        W77759  10.271  32.547   0.235
12500W        W77760  25.501  29.879  13.773
12501W        W77761  20.624  37.610   3.748
12502W        W77762  27.771  10.096  13.513
12503W        W77763   0.985  43.793  12.650
12504W        W77764  34.608  12.272   1.813
12505W        W77765  39.073  32.600   1.564
12506W        W77766  33.917  12.884  11.351
12507W        W77767  35.434  35.534  14.358
12508W        W77768  34.353  31.117  10.564
12509W        W77769   7.756   6.300  10.296
12510W        W77770  32.679  34.587   4.127
12511W        W77771  12.517  14.072  13.851
12512W        W77772  41.935   6.879   0.037
12513W        W77773  13.291  13.105   0.535
12514W        W77774   0.574  28.613  12.645
12515W        W77775   3.500  29.636   4.098
12516W        W77776  27.198  33.216  11.630
12517W        W77777  42.798  37.368   4.111
12518W        W77778  34.071   8.765  12.498
12519W        W77779  20.082  12.618   4.818
12520W        W77780  42.448  34.663  11.612
12521W        W77781  31.313  21.987  11.275
12522W        W77782  17.734   1.895  14.971
12523W        W77783  34.288  10.074  14.280
12524W        W77784  31.808  41.810   4.260
12525W        W77785   7.388  13.323  10.510
12526W        W77786  22.479   2.360  11.674
12527W        W77787  13.048  29.976   1.137
12528W        W77788   0.891   5.797   1.169
12529W        W77789   6.434  21.670   2.276
12530W        W77790  32.728  11.665   0.671
12531W        W77791   1.886  33.967   4.802
12532W        W77792  12.181  37.853   3.804
12533W        W77793   4.361   0.834  12.288
12534W        W77794  32.495  12.378  12.071
12535W        W77795  38.396  18.073   0.135
12536W        W77796  12.790  24.540   3.397
12537W        W77797  34.666  19.957  12.149
12538W        W77798  19.926  25.237  12.141
12539W        W77799  35.221  24.528  11.027
12540W        W77800   0.573  31.413  13.969
12541W        W77801  44.712  35.142   1.181
12542W        W77802  25.731  30.706   0.365
12543W        W77803  34.056   2.355  13.815
12544W        W77804  29.563  32.377  12.696
12545W        W77805  12.753  27.566   0.370
12546W        W77806  26.315   5.022  10.128
12547W        W77807  36.542  27.453  10.551
12548W        W77808   7.079   6.192   0.333
12549W        W77809  29.477   3.382   4.568
12550W        W77810  43.762  10.491   1.976
12551W        W77811  27.085  43.950   2.751
12552W        W77812  30.483  42.336   4.585
12553W        W77813  30.176  14.633   3.669
12554W        W77814  32.221  41.949   2.251
12555W        W77815  32.915   6.653  13.398
12556W        W77816  30.913  41.641   2.736
12557W        W77817  39.812  24.982  13.183
12558W        W77818  31.560  20.493   0.960
12559W        W77819  26.741  10.624   0.709
12560W        W77820  10.130  20.240   2.910
12561W        W77821  35.947   5.335  13.854
12562W        W77822  19.727  29.722  14.905
12563W        W77823  41.918  19.226  12.543
12564W        W77824  26.157  44.393   2.751
12565W        W77825  13.647  37.640  11.659
12566W        W77826  42.009  10.613   2.309
12567W        W77827  29.640   7.396   1.958
12568W        W77828  27.620   0.484   4.910
12569W        W77829  14.785  21.725   3.249
12570W        W77830   9.826  34.004   2.249
12571W        W77831  12.707  43.780  12.913
12572W        W77832   0.708  16.883   0.405
12573W        W77833  34.803  41.827   4.052
12574W        W77834  18.564  29.593   4.898
12575W        W77835  16.039  34.045   2.548
12576W        W77836  28.661  39.789  14.024
12577W        W77837  32.096   7.443   0.852
12578W        W77838   4.919   9.242   0.367
12579W        W77839  20.408  14.137   2.060
12580W        W77840   6.267   7.732   0.003
12581W        W77841  44.732  42.898  14.538
12582W        W77842  38.544  26.171  13.890
12583W        W77843  16.423  17.102  14.651
12584W        W77844  10.850  16.533  12.936
12585W        W77845  30.973  23.612   1.309
12586W        W77846   6.622  17.297  14.983
12587W        W77847   3.386  44.305   2.586
12588W        W77848   6.232  32.468  13.140
12589W        W77849  33.538   1.385   2.882
12590W        W77850  15.998  34.950  12.132
12591W        W77851  33.380   0.977   3.201
12592W        W77852   9.301  36.763   2.808
12593W        W77853  11.601  19.083  10.757
12594W        W77854  10.194  31.720  12.037
12595W        W77855  25.939   3.367  11.550
12596W        W77856  43.016  23.334   0.541
12597W        W77857  16.131  21.811   0.134
12598W        W77858  35.667  25.672  12.027
12599W        W77859  21.727  18.357  13.021
12600W        W77860  32.527  17.031   0.880
12601W        W77861  29.857  38.214  12.737
12602W        W77862  32.896  42.821  14.287
12603W        W77863  12.158  40.777   2.713
12604W        W77864  20.695   1.782   4.706
12605W        W77865  14.653  21.979   1.958
12606W        W77866  40.598  26.550  14.197
12607W        W77867  12.337  24.205  14.949
12608W        W77868  38.878  13.317  13.321
12609W        W77869   4.116   7.823  12.504
12610W        W77870  10.932  24.976  12.465
12611W        W77871   3.971   0.342  13.869
12612W        W77872  13.822  28.066  13.924
12613W        W77873  26.626  37.106   0.942
12614W        W77874  31.556   6.442  12.078
12615W        W77875  35.387  16.201  11.907
12616W        W77876  40.797  30.846  11.998
12617W        W77877  42.284  31.878  11.250
12618W        W77878  37.581  38.826  11.052
12619W        W77879  12.190  37.730  11.069
12620W        W77880  25.001  22.077  13.986
12621W        W77881  38.763   1.669   2.297
12622W        W77882   3.241  35.865   3.589
12623W        W77883  19.262  18.408   0.296
12624W        W77884   5.922  14.677  11.024
12625W        W77885   4.364  40.265  11.080
12626W        W77886   3.367  35.612  14.377
12627W        W77887  43.412  32.079   4.220
12628W        W77888  20.503  12.483   4.486
12629W        W77889  29.865  44.556  13.758
12630W        W77890  36.607  31.483   2.234
12631W        W77891  26.289  34.144  12.999
12632W        W77892  15.056   4.292  12.974
12633W        W77893  38.093  28.915   1.479
12634W        W77894  38.837  29.377   2.013
12635W        W77895  21.482  40.792   3.340
12636W        W77896  18.972   3.043   3.205
12637W        W77897  18.565   0.941  12.855
12638W        W77898  33.928  34.423   4.044
12639W        W77899   8.014  23.725  14.974
12640W        W77900  17.759  42.454  14.012
12641W        W77901  44.541  32.198   2.711
12642W        W77902  19.355  12.763   3.193
12643W        W77903  40.327  38.201  12.761
12644W        W77904  24.459  16.202   4.937
12645W        W77905  20.148  41.345  10.421
12646W        W77906  15.282  30.099  13.796
12647W        W77907  40.704  37.073  14.996
12648W        W77908  42.715  35.873   3.280
12649W        W77909  23.744  13.490   3.351
12650W        W77910  34.355  30.736  11.744
12651W        W77911  42.072  40.018   1.245
12652W        W77912  16.125  31.549  12.865
12653W        W77913  35.535   2.237  10.147
12654W        W77914  43.268   3.135  13.395
12655W        W77915  31.432  39.808   3.267
12656W        W77916  36.844  36.830  13.930
12657W        W77917  13.709  42.605   3.543
12658W        W77918  17.245  25.298   5.136
12659W        W77919  27.421  34.928  11.699
12660W        W77920  18.547  28.544   3.515
12661W        W77921  23.217  39.303  14.794
12662W        W77922  17.745   9.244  11.600
12663W        W77923   4.943  21.281   1.889
12664W        W77924  11.499  34.235   4.853
12665W        W77925   5.808  23.638  14.356
12666W        W77926  10.185  36.104  13.098
12667W        W77927   0.327  17.100  14.775
12668W        W77928  10.326  40.719  14.761
12669W        W77929  32.525  16.374  11.607
12670W        W77930  12.534  14.876  12.472
12671W        W77931  25.514  34.458  11.188
12672W        W77932  19.975  25.117   5.084
12673W        W77933  30.537   4.807  10.724
12674W        W77934   2.588   3.484   2.677
12675W        W77935   6.723   9.641   0.094
12676W        W77936  25.125  40.831   3.764
12677W        W77937  22.948   4.197   2.728
12678W        W77938  13.132  14.183  14.965
12679W        W77939  35.851   8.087   0.353
12680W        W77940  30.043  19.422   3.623
12681W        W77941   0.670  28.440   1.360
12682W        W77942  20.866   1.912   2.918
12683W        W77943  44.889  18.162   4.306
12684W        W77944  19.713   1.373  13.832
12685W        W77945  41.971   8.216   2.657
12686W        W77946  42.463  13.139  11.376
12687W        W77947  22.337  26.639  11.646
12688W        W77948  43.831   3.384   2.849
12689W        W77949  11.124  28.697   1.383
12690W        W77950  32.776  19.468  12.074
12691W        W77951  21.586   8.814   0.375
12692W        W77952  33.887  24.154  11.301
12693W        W77953   2.871  29.745   5.488
12694W        W77954  33.158   4.822  12.171
12695W        W77955  25.741  16.648   5.034
12696W        W77956  14.871  31.028  11.577
12697W        W77957  41.305   2.057  13.128
12698W        W77958  43.317   7.212  12.811
12699W        W77959  27.713  21.311   2.003
12700W        W77960   8.982  11.214  11.262
12701W        W77961   3.908  40.712   3.200
12702W        W77962   5.643  36.697   1.777
12703W        W77963  17.764  10.247  14.933
12704W        W77964  34.424  25.071   4.641
12705W        W77965  28.478  44.437   1.297
12706W        W77966   3.252  27.040   0.425
12707W        W77967  13.866  26.584   3.632
12708W        W77968  32.554  20.793   4.690
12709W        W77969  42.872  17.346   4.671
12710W        W77970  28.245  35.579   3.220
12711W        W77971   2.922  16.840  10.789
12712W        W77972  15.684  44.666   2.213
12713W        W77973  24.991  33.440  14.812
12714W        W77974  24.206  20.110  13.509
12715W        W77975  42.211   5.765   5.098
12716W        W77976   3.428  28.500   2.282
12717W        W77977   3.457   0.305   3.785
12718W        W77978  24.150  24.040   4.108
12719W        W77979  35.671  38.610  12.106
12720W        W77980  25.382  13.101   2.846
12721W        W77981  38.117  10.565  13.392
12722W        W77982  27.554  32.467  13.863
12723W        W77983  41.592  36.625  14.572
12724W        W77984  34.153   5.043   2.736
12725W        W77985  36.836   5.422  10.605
12726W        W77986  20.223  33.834  13.160
12727W        W77987  16.589   9.173   2.315
12728W        W77988   5.854  44.811   0.631
12729W        W77989   2.705   8.010   2.196
12730W        W77990   0.017  28.945  11.990
12731W        W77991   8.924   5.872  11.785
12732W        W77992  18.502  24.327   1.235
12733W        W77993  11.922  26.703  12.937
12734W        W77994  28.598   1.921  13.987
12735W        W77995   9.130   3.326   4.593
12736W        W77996  38.537  24.009  12.932
12737W        W77997  20.694  31.517  13.327
12738W        W77998  41.280  41.346  13.430
12739W        W77999  16.747  15.126   1.692
12740W        W78000  36.282  44.938  10.384
12741W        W78001  28.102  22.739   3.300
12742W        W78002  17.134  22.751  10.388
12743W        W78003  17.085  36.548   1.761
12744W        W78004  31.878  30.029   4.367
12745W        W78005  33.360  29.042   1.948
12746W        W78006   4.925  30.697   4.593
12747W        W78007  38.856   8.384  10.714
12748W        W78008  22.500  44.228   1.298
12749W        W78009  34.134  28.481   3.860
12750W        W78010  19.120  13.856   0.936
12751W        W78011  23.095  22.533  13.692
12752W        W78012  33.701  30.857   3.627
12753W        W78013  44.722   6.165  12.349
12754W        W78014  38.265  28.447  14.385
12755W        W78015  29.413  14.195   3.175
12756W        W78016  40.833   6.283  12.028
12757W        W78017  18.211  22.401  14.370
12758W        W78018   3.332  17.271   4.669
12759W        W78019   0.502   8.234  14.062
12760W        W78020  12.656  38.038   4.695
12761W        W78021   7.973  23.953  13.340
12762W        W78022  26.781  10.746  14.289
12763W        W78023   9.359  36.287   1.653
12764W        W78024   3.396  20.828   2.565
12765W        W78025  39.900  41.829   2.269
12766W        W78026  33.557  36.013   4.772
12767W        W78027   4.337  28.073  12.606
12768W        W78028  26.197  14.264   0.445
12769W        W78029  17.182  24.025   1.436
12770W        W78030  14.339  31.683  12.273
12771W        W78031  12.512  28.725  12.140
12772W        W78032  26.639  43.833  11.373
12773W        W78033  30.799  27.430  13.701
12774W        W78034  39.569  16.181   2.956
12775W        W78035  35.787  33.638   0.084
12776W        W78036  41.731  34.850  14.232
12777W        W78037  21.850  26.051  14.072
12778W        W78038   5.255  42.476  13.959
12779W        W78039   4.284  24.483  14.471
12780W        W78040   0.999  31.698   0.965
12781W        W78041  14.723   4.606   2.452
12782W        W78042  24.179  25.662  12.461
12783W        W78043   9.339  25.628  12.633
12784W        W78044  38.841  32.596   3.221
12785W        W78045   0.967   8.668   0.891
12786W        W78046  10.321  29.447  11.676
12787W        W78047  15.344  28.066   0.991
12788W        W78048   0.676  37.467  11.590
12789W        W78049  11.567   3.372   0.667
12790W        W78050  44.100  16.768  14.117
12791W        W78051  17.994  20.323  10.754
12792W        W78052  14.945  15.282   2.143
12793W        W78053   2.249  12.849   9.777
12794W        W78054  31.168  25.904   3.042
12795W        W78055   6.330  11.887   0.978
12796W        W78056  28.187  32.121   3.028
12797W        W78057   6.675  11.588   2.145
12798W        W78058  37.396  31.602   4.840
12799W        W78059   2.146   9.259  12.655
12800W        W78060  41.993   3.838   4.409
12801W        W78061  37.390   8.571  14.825
12802W        W78062   2.429  32.904   4.589
12803W        W78063   6.136  41.285   0.992
12804W        W78064   2.526  37.872   1.304
12805W        W78065  38.098   4.011   0.025
12806W        W78066  32.964   5.740   4.205
12807W        W78067   5.400  27.300  11.219
12808W        W78068  38.984  42.353   0.264
12809W        W78069  34.079   0.031   1.743
12810W        W78070  11.301  29.800  13.853
12811W        W78071   2.331  19.758  10.513
12812W        W78072  27.079  42.127   4.824
12813W        W78073  22.781  36.178   2.327
12814W        W78074  15.487  12.391  11.473
12815W        W78075  44.179  20.989  13.929
12816W        W78076  17.204  40.819  11.177
12817W        W78077  32.568  42.149  12.039
12818W        W78078  34.900   5.373  13.102
12819W        W78079  23.662  40.839  10.618
12820W        W78080  10.131  11.265   4.550
12821W        W78081   2.975   8.261  12.123
12822W        W78082  10.952  31.416  13.958
12823W        W78083   3.168  19.690   4.395
12824W        W78084  42.441   7.835  11.580
12825W        W78085  20.862  25.096  10.851
12826W        W78086  18.215  16.787  10.700
12827W        W78087  10.909   3.848  14.416
12828W        W78088   2.901   5.831  11.181
12829W        W78089   7.359  31.490  12.276
12830W        W78090  30.049  38.293   0.795
12831W        W78091   0.160  10.094  11.350
12832W        W78092   7.457  12.684  11.583
12833W        W78093  13.226  23.612  14.694
12834W        W78094  18.370  23.444  11.098
12835W        W78095  38.457  11.326   0.663
12836W        W78096  15.785  17.981   1.840
12837W        W78097  43.044  11.140   5.413
12838W        W78098   7.645  33.460   4.525
12839W        W78099  33.442   5.795   2.567
12840W        W78100   9.900  30.891   0.858
12841W        W78101   2.954  36.426   2.689
12842W        W78102  22.019  31.078  12.555
12843W        W78103  13.554  37.098  14.437
12844W        W78104  14.335  26.309   0.957
12845W        W78105  18.958   7.344  12.993
12846W        W78106  24.268  36.153   2.297
12847W        W78107  38.919  37.883   1.815
12848W        W78108  13.798   5.826   0.807
12849W        W78109   3.340   3.728   3.069
12850W        W78110  41.490  32.817  14.306
12851W        W78111  22.980   3.573   9.846
12852W        W78112  43.410  25.302  13.857
12853W        W78113  25.276   8.674  11.959
12854W        W78114  18.733  12.380  11.632
12855W        W78115   3.313  19.893   2.839
12856W        W78116  29.937  37.505   1.208
12857W        W78117  23.558  23.951   4.558
12858W        W78118  20.154  43.119  11.763
12859W        W78119  27.429  38.210  14.515
12860W        W78120  23.284  16.233  11.633
12861W        W78121  16.096  10.063   2.308
12862W        W78122  29.591  15.666   3.351
12863W        W78123  28.087  26.864  13.441
12864W        W78124  18.118  11.744  14.955
12865W        W78125  38.584   5.201  12.602
12866W        W78126   5.787  18.969  11.833
12867W        W78127  10.405  38.036  14.026
12868W        W78128  16.434   9.691  12.340
12869W        W78129   4.556  16.461  14.847
12870W        W78130   4.409  27.919  12.091
12871W        W78131  21.171  41.605  10.527
12872W        W78132   2.719  38.004   0.791
12873W        W78133  24.033  37.357  12.378
12874W        W78134  16.666  10.324   4.861
12875W        W78135   2.807  15.669   3.543
12876W        W78136  17.712  40.597   4.084
12877W        W78137  28.319   9.358   0.139
12878W        W78138   3.609  38.266   2.205
12879W        W78139  16.875  31.531  10.666
12880W        W78140  44.284  37.836   1.120
12881W        W78141  13.061  33.536   1.336
12882W        W78142  35.951  18.006  13.875
12883W        W78143  26.011  44.721  14.597
12884W        W78144  28.476  30.223   3.206
12885W        W78145  29.435   6.851   0.734
12886W        W78146  37.404  21.152  12.139
12887W        W78147   8.419  42.918  12.566
12888W        W78148   8.866   7.836   0.698
12889W        W78149  19.875   7.152  13.511
12890W        W78150  43.285   3.829  14.291
12891W        W78151  37.962  32.879  10.695
12892W        W78152  36.996   9.433  11.274
12893W        W78153   5.028  15.293   1.966
12894W        W78154  42.475  23.278   0.476
12895W        W78155  39.837  37.299  11.028
12896W        W78156  41.505  21.324  13.429
12897W        W78157  31.351  12.748  13.853
12898W        W78158  25.790  14.507   0.231
12899W        W78159  25.214   5.724   1.023
12900W        W78160  10.063  15.262   2.355
12901W        W78161  28.495   5.918   2.950
12902W        W78162   4.228   5.029  14.369
12903W        W78163  17.234   3.823  14.419
12904W        W78164   7.423  14.378   2.332
12905W        W78165   4.529  10.425   1.347
12906W        W78166  23.235  11.722   4.216
12907W        W78167  27.070   0.646  13.730
12908W        W78168  36.297  12.745  13.107
12909W        W78169  20.481  31.612  13.951
12910W        W78170   5.608   2.820  14.898
12911W        W78171  19.086   5.035  11.734
12912W        W78172   8.684  36.336   2.168
12913W        W78173  30.399  27.520  11.743
12914W        W78174  17.490  24.447   1.462
12915W        W78175  36.064  44.922   1.464
12916W        W78176  44.992  17.456  12.308
12917W        W78177  17.831  25.036   2.833
12918W        W78178   5.351  42.807  11.012
12919W        W78179  39.488  29.656  11.547
12920W        W78180  17.722  24.983   1.061
12921W        W78181  43.831   8.847  12.111
12922W        W78182   4.491  11.211  10.620
12923W        W78183  13.560  38.141  12.505
12924W        W78184   9.438  32.589  12.981
12925W        W78185  39.007  22.538  11.123
12926W        W78186  30.378  32.635  10.761
12927W        W78187  35.509   1.989  14.507
12928W        W78188  37.928  14.701   2.871
12929W        W78189   8.428   9.120  14.906
12930W        W78190  42.013  27.042   4.776
12931W        W78191   4.778  10.614  13.340
12932W        W78192  21.460  38.342   4.343
12933W        W78193   8.969  33.014   1.206
12934W        W78194  21.011  18.102  12.288
12935W        W78195   3.725  42.284   1.501
12936W        W78196  37.561  39.843   4.335
12937W        W78197  16.223   8.181   4.171
12938W        W78198  18.743   3.181  11.104
12939W        W78199  17.746  38.802  11.462
12940W        W78200  37.859  44.930   0.138
12941W        W78201   8.164  32.553  14.299
12942W        W78202  30.901   0.282   0.371
12943W        W78203   5.399  26.444   1.931
12944W        W78204  20.481  15.561   4.136
12945W        W78205  42.444  42.558   0.792
12946W        W78206  30.860  34.643   3.701
12947W        W78207  39.238  13.228  11.756
12948W        W78208  12.300  33.946  11.578
12949W        W78209  31.400  39.623  11.964
12950W        W78210   8.851  44.448  11.686
12951W        W78211   3.983  12.271   3.827
12952W        W78212  23.112  24.100  12.364
12953W        W78213  32.362  11.376  12.203
12954W        W78214   6.855  17.107  11.324
12955W        W78215  25.682  31.062  11.400
12956W        W78216  36.319  21.071   9.873
12957W        W78217  29.574  33.980  14.425
12958W        W78218  17.726  39.979  13.964
12959W        W78219  37.381  37.605  11.648
12960W        W78220  17.353  14.989   2.386
12961W        W78221  37.346  14.626  10.470
12962W        W78222   6.436  44.924   4.385
12963W        W78223  13.470  44.754   4.466
12964W        W78224  27.354  23.248  14.044
12965W        W78225  27.716  27.633  11.714
12966W        W78226  21.895  39.148  10.920
12967W        W78227  37.426  24.693  13.956
12968W        W78228  30.316  19.203   0.353
12969W        W78229   2.153  39.320  11.884
12970W        W78230  34.060  16.873   3.159
12971W        W78231  28.834  39.888   4.725
12972W        W78232  20.605  17.353  12.648
12973W        W78233  24.123  26.520   0.577
12974W        W78234  43.498  39.778  11.966
12975W        W78235  26.196  37.932  12.277
12976W        W78236  33.089  34.151  13.448
12977W        W78237  38.321  37.481  11.716
12978W        W78238  39.861  33.838   0.090
12979W        W78239  30.211  44.532   1.750
12980W        W78240  31.387  23.763   4.137
12981W        W78241   3.141  13.831  13.451
12982W        W78242  20.468  30.149  12.864
12983W        W78243  38.855  38.064  12.426
12984W        W78244  21.821   3.263  14.881
12985W        W78245  40.988  37.282   4.608
12986W        W78246  39.568  31.460  12.966
12987W        W78247  10.192   2.326  11.557
12988W        W78248   7.934   2.761   3.315
12989W        W78249  12.226  29.051  12.536
12990W        W78250  12.699   6.543   2.867
12991W        W78251  32.637   3.065   1.920
12992W        W78252  24.972  24.664  12.887
12993W        W78253  21.018   0.282  11.463
12994W        W78254  33.144  43.324  11.090
12995W        W78255  18.256  34.897  12.192
12996W        W78256  28.983   5.781   0.376
12997W        W78257  27.635  40.251   0.383
12998W        W78258   3.402  31.495  12.860
12999W        W78259  37.085  24.843  14.642
13000W        W78260  24.035  20.855   1.007
13001W        W78261  29.644   8.274   0.007
13002W        W78262  11.788  17.255  10.826
13003W        W78263  17.480   3.837  13.939
13004W        W78264  27.706   9.231  13.488
13005W        W78265  15.307  29.583   4.673
13006W        W78266   4.738  44.570  11.483
13007W        W78267  18.632   6.396  11.023
13008W        W78268  35.959   1.557  12.873
13009W        W78269  23.689   2.192   1.105
13010W        W78270  27.725   9.143   3.729
13011W        W78271  37.292  23.951  11.687
13012W        W78272  36.533  13.691   1.259
13013W        W78273  11.874  28.014  12.784
13014W        W78274  33.551  39.949   0.908
13015W        W78275  44.949   6.853   1.344
13016W        W78276  25.781  36.905   4.246
13017W        W78277   9.723  43.271   3.992
13018W        W78278   5.721  23.214  14.037
13019W        W78279  32.202  28.893  14.944
13020W        W78280  13.597  20.646   3.519
13021W        W78281   9.599  25.088  12.828
13022W        W78282  42.645  24.390  11.128
13023W        W78283   9.753  11.254   2.165
13024W        W78284  18.285  44.499  14.949
13025W        W78285  30.932   3.631   1.785
13026W        W78286  38.865   3.005  13.758
13027W        W78287  41.768  22.194  12.964
13028W        W78288   3.289  44.228  13.429
13029W        W78289   2.360   3.903   3.236
13030W        W78290  38.458  25.635   0.517
13031W        W78291  13.447  10.452  14.774
13032W        W78292  28.121  10.977   3.733
13033W        W78293  21.654  42.789   1.019
13034W        W78294  41.041  17.729  13.435
13035W        W78295   3.693  34.981  12.598
13036W        W78296  21.864  19.119  11.992
13037W        W78297  30.427   8.369   4.594
13038W        W78298  43.224  27.151  12.246
13039W        W78299  31.900  16.020   3.374
13040W        W78300  15.196  33.074   1.218
13041W        W78301  15.818  15.440  12.370
13042W        W78302   2.785  37.287   0.588
13043W        W78303   9.666  43.407   5.019
13044W        W78304  38.583  12.727   0.507
13045W        W78305  33.150   3.441   4.381
13046W        W78306  28.584  41.816   4.309
13047W        W78307  28.365  21.327   0.713
13048W        W78308  19.221   0.702  11.568
13049W        W78309  42.382   8.151  11.987
13050W        W78310  25.239  42.568  12.970
13051W        W78311  36.585   2.978  12.922
13052W        W78312   3.362  39.572  11.017
13053W        W78313  40.390  35.788   4.876
13054W        W78314   8.924  33.566  10.953
13055W        W78315   6.910  29.043   4.253
13056W        W78316  31.292  26.342   2.740
13057W        W78317  15.119  32.196   3.080
13058W        W78318  20.433   3.730  10.724
13059W        W78319   1.777  26.977   3.152
13060W        W78320  37.692  13.575   2.850
13061W        W78321  19.622  22.950  11.168
13062W        W78322  30.221  44.867  13.570
13063W        W78323   7.708  12.079  12.356
13064W        W78324  37.143  25.458  10.982
13065W        W78325  12.050   1.700  11.120
13066W        W78326   7.916  25.684   4.491
13067W        W78327  43.330   3.703  12.438
13068W        W78328  38.373   4.748   4.974
13069W        W78329  26.064   4.835   0.914
13070W        W78330  36.459  25.342   0.367
13071W        W78331  21.976  32.491  14.797
13072W        W78332  13.397  32.397   0.850
13073W        W78333  13.688  33.102  12.932
13074W        W78334  20.071   9.704   4.024
13075W        W78335  21.164  10.623  10.386
13076W        W78336  11.950   4.591  14.873
13077W        W78337  40.835  28.741   1.844
13078W        W78338  13.412  36.840  11.479
13079W        W78339  20.090  25.797   4.418
13080W        W78340  22.266  35.442  13.907
13081W        W78341  27.956  35.056   5.043
13082W        W78342   7.921  36.461  13.414
13083W        W78343  41.298  16.265   0.277
13084W        W78344  43.859  26.145  11.586
13085W        W78345  31.997  12.442   1.683
13086W        W78346  36.583  13.443  11.259
13087W        W78347  18.463   6.177   0.449
13088W        W78348  15.329  24.972  12.469
13089W        W78349  20.782   1.379   0.326
13090W        W78350  33.042  24.198   0.564
13091W        W78351  18.468  36.440  10.840
13092W        W78352  43.646  24.630  11.047
13093W        W78353  11.938   6.362   0.863
13094W        W78354  35.608  14.953  13.607
13095W        W78355  29.346  24.601   1.781
13096W        W78356  27.916   7.477  11.458
13097W        W78357   1.457  10.690   3.223
13098W        W78358  22.868   4.041   4.228
13099W        W78359   6.445  21.237   0.243
13100W        W78360  10.830  33.308   0.944
13101W        W78361  17.583  31.112  12.368
13102W        W78362  14.561   6.141   1.412
13103W        W78363  29.988  28.860  12.653
13104W        W78364  26.459   4.116   4.127
13105W        W78365  18.767  22.323   3.091
13106W        W78366   1.016  27.602   3.570
13107W        W78367  25.043  43.323  12.071
13108W        W78368  23.472   7.176   2.441
13109W        W78369  22.938  26.980  13.543
13110W        W78370   6.337   0.755   2.734
13111W        W78371  22.174  21.528   3.902
13112W        W78372  42.090  41.582  10.448
13113W        W78373   7.441  32.658   1.438
13114W        W78374  34.561   6.309  14.989
13115W        W78375  16.363  11.659  14.943
13116W        W78376  17.684   6.144  14.439
13117W        W78377  24.723  11.575   3.296
13118W        W78378   2.863  27.747   1.425
13119W        W78379  28.239  11.865   3.925
13120W        W78380  28.282  13.666   1.855
13121W        W78381  15.280   5.706  10.502
13122W        W78382   9.423  29.968   1.504
13123W        W78383  36.820   9.133   3.204
13124W        W78384  21.484  14.132  12.477
13125W        W78385   2.792   9.401   2.318
13126W        W78386  27.700  15.994  10.841
13127W        W78387  44.641   1.438  13.573
13128W        W78388  34.028  10.482  10.295
13129W        W78389  21.035  36.818   0.756
13130W        W78390  11.759   3.521   4.564
13131W        W78391  37.058  18.429   4.324
13132W        W78392  11.717  12.011  10.436
13133W        W78393  17.743   2.212  13.783
13134W        W78394   6.902  13.629  12.944
13135W        W78395  22.557  43.289   2.819
13136W        W78396   0.110  17.524   0.544
13137W        W78397  38.731  37.635  14.839
13138W        W78398  34.833  23.613   4.609
13139W        W78399  42.147  10.253   1.232
13140W        W78400  43.019  29.616   3.639
13141W        W78401   1.473  27.779   2.272
13142W        W78402   1.719   3.338   4.689
13143W        W78403  42.386  11.311   2.392
13144W        W78404  25.091   3.717   4.048
13145W        W78405  19.257  32.395   0.446
13146W        W78406   0.931   0.456  14.668
13147W        W78407  20.339  25.704  12.576
13148W        W78408  21.161   4.720   3.375
13149W        W78409   4.459  28.141  14.936
13150W        W78410  36.947  27.930  11.149
13151W        W78411  12.007  35.089  13.326
13152W        W78412  32.632  36.929   0.782
13153W        W78413  15.946   7.995  13.161
13154W        W78414   3.455  39.368   0.902
13155W        W78415  36.936  17.595   4.628
13156W        W78416  29.928  24.122  13.881
13157W        W78417  38.428  44.897  11.169
13158W        W78418  11.250  39.021  13.082
13159W        W78419  37.990  10.426  11.861
13160W        W78420  22.549  24.931  14.333
13161W        W78421   5.174   2.547  14.581
13162W        W78422  15.244  34.358   3.739
13163W        W78423   2.280  17.383  12.087
13164W        W78424   9.826  17.682  14.300
13165W        W78425  28.449  13.143   0.325
13166W        W78426  42.702   2.942   3.082
13167W        W78427   2.172   8.903   1.722
13168W        W78428   1.963   7.083  12.381
13169W        W78429  37.243   2.727  10.606
13170W        W78430  36.634  22.631  13.796
13171W        W78431  10.288  37.720  10.644
13172W        W78432   2.953  29.589   2.949
13173W        W78433  39.302   1.497   2.215
13174W        W78434  42.928  31.062   2.796
13175W        W78435  26.636  17.436   4.469
13176W        W78436   9.767  43.596   0.274
13177W        W78437  29.473  40.659  14.476
13178W        W78438  12.206  34.373   1.746
13179W        W78439  25.446   6.495   0.138
13180W        W78440  34.541  37.191  11.064
13181W        W78441  28.987   5.603   1.175
13182W        W78442  43.014  34.470   2.870
13183W        W78443   0.297  13.017  14.430
13184W        W78444  14.109  17.662  11.638
13185W        W78445  44.882   3.475  10.330
13186W        W78446  30.910  38.539  14.501
13187W        W78447  29.550  19.662  11.159
13188W        W78448  18.363  19.790   3.441
13189W        W78449  22.317   8.360  11.183
13190W        W78450  18.739  31.116   0.294
13191W        W78451  33.920  28.443   0.407
13192W        W78452  40.651  43.396  11.206
13193W        W78453  36.949  29.766  12.118
13194W        W78454  17.155  16.916  10.687
13195W        W78455  22.298  12.101   4.176
13196W        W78456  30.577  31.937  14.543
13197W        W78457  12.283  16.544  11.406
13198W        W78458  38.335   6.775   0.648
13199W        W78459  29.341  11.090  14.794
13200W        W78460   2.317  32.913  12.057
13201W        W78461  20.023  11.820  14.468
13202W        W78462  36.524  31.404   1.441
13203W        W78463  13.252   3.773   4.196
13204W        W78464  30.907  24.182   0.613
13205W        W78465   4.941  10.214  13.064
13206W        W78466  34.700  32.596  13.376
13207W        W78467  31.984  32.944   0.063
13208W        W78468  37.517  37.252   0.939
13209W        W78469  20.578  40.827   3.385
13210W        W78470  35.634  25.263  13.534
13211W        W78471   2.042  12.363  10.951
13212W        W78472  17.712  33.576  12.894
13213W        W78473  25.747   3.805  11.415
13214W        W78474   2.842   3.810   0.017
13215W        W78475  31.483  27.947  13.532
13216W        W78476   1.748  42.920   1.213
13217W        W78477  38.903   7.805   3.211
13218W        W78478  41.974  19.115   2.793
13219W        W78479  28.542  20.105   1.335
13220W        W78480  15.240  26.276  13.055
13221W        W78481  38.630  11.292   1.670
13222W        W78482   4.832   5.877  11.710
13223W        W78483  39.373  18.033  14.972
13224W        W78484  14.302  32.509   2.512
13225W        W78485  27.484  21.813  13.949
13226W        W78486  38.178   7.644  11.862
13227W        W78487  20.093   9.371  10.745
13228W        W78488  44.552  39.996   9.794
13229W        W78489  20.991  21.516  11.549
13230W        W78490  22.463  14.878  14.495
13231W        W78491  13.598  26.215   3.892
13232W        W78492  23.873  40.826   3.553
13233W        W78493  42.913  30.682  11.984
13234W        W78494  43.286   8.131  11.901
13235W        W78495  17.830  17.517  11.071
13236W        W78496   6.233  21.823   1.237
13237W        W78497   5.319  41.392  10.740
13238W        W78498  31.172  13.259   4.633
13239W        W78499   9.779   9.768   3.847
13240W        W78500  34.467  13.714   2.455
13241W        W78501  11.914  28.433   3.765
13242W        W78502  13.339   6.647  14.986
13243W        W78503  13.361  25.493   3.334
13244W        W78504  12.116  14.345   1.258
13245W        W78505  15.924  17.654   1.464
13246W        W78506   8.067  13.668   3.271
13247W        W78507  19.041   5.543  10.455
13248W        W78508  35.558  16.073  12.789
13249W        W78509   7.882  41.418  13.309
13250W        W78510  43.950   5.646   1.404
13251W        W78511  34.218   9.849   0.311
13252W        W78512  33.080  24.266   3.226
13253W        W78513  31.890  42.344  14.891
13254W        W78514  27.123  44.318  13.274
13255W        W78515  27.529  26.976  10.606
13256W        W78516  16.754  31.853   1.469
13257W        W78517  36.017  36.188   2.477
13258W        W78518  19.643  44.880   1.200
13259W        W78519  41.289  25.138   1.327
13260W        W78520  41.320  44.246   0.308
13261W        W78521  42.444  41.948  11.400
13262W        W78522   7.708   5.947   3.478
13263W        W78523  29.016  39.063   2.615
13264W        W78524  30.569  12.902   4.125
13265W        W78525  39.677  29.158  13.266
13266W        W78526   8.623  27.197  12.504
13267W        W78527   6.445  15.838   2.155
13268W        W78528  35.893  33.945   2.365
13269W        W78529  24.255  25.699   0.403
13270W        W78530  18.751  17.288  11.529
13271W        W78531  32.352  11.891  11.005
13272W        W78532  20.741   4.684   0.406
13273W        W78533   5.190  30.737   0.304
13274W        W78534   9.612  35.582   4.166
13275W        W78535  13.288  39.558  14.252
13276W        W78536  15.130  33.655  13.960
13277W        W78537  33.141  36.291  12.927
13278W        W78538  14.477  35.989   0.044
13279W        W78539  22.344  41.494   2.938
13280W        W78540  22.784   9.164   3.303
13281W        W78541  20.796   4.391  13.944
13282W        W78542   8.452  19.791  10.722
13283W        W78543  20.616  39.252   2.291
13284W        W78544  18.786  40.714  10.979
13285W        W78545   5.747  15.599   3.302
13286W        W78546  19.561   5.243  11.676
13287W        W78547  32.083  22.750   2.359
13288W        W78548  18.583  24.738   4.791
13289W        W78549   1.793  24.995   0.424
13290W        W78550  33.337   3.202  13.427
13291W        W78551  29.833   9.766   1.732
13292W        W78552  15.622  27.103  12.810
13293W        W78553  37.571  10.335   4.814
13294W        W78554  13.359   6.652   0.917
13295W        W78555  16.251  40.827  14.903
13296W        W78556  36.134  24.561   4.184
13297W        W78557  21.672  37.540   4.280
13298W        W78558   9.604  44.085   0.376
13299W        W78559  42.333   0.952  12.456
13300W        W78560  25.802  44.342  14.916
13301W        W78561  24.445  22.763  14.421
13302W        W78562   3.697   2.038  13.805
13303W        W78563  10.881  38.051  13.272
13304W        W78564  21.975  35.121  14.455
13305W        W78565  43.952  13.761  13.520
13306W        W78566   1.825   4.175   0.303
13307W        W78567  39.048  17.118  13.800
13308W        W78568   1.764  23.203   0.827
13309W        W78569  34.083  22.353   2.722
13310W        W78570  20.964   5.441  12.598
13311W        W78571  30.726   7.373  10.943
13312W        W78572  30.343  33.309   1.275
13313W        W78573  39.541   4.456   1.218
13314W        W78574  11.247  43.730   2.736
13315W        W78575  27.522   5.826   0.390
13316W        W78576  20.068  27.917  12.400
13317W        W78577  20.278  33.847  13.993
13318W        W78578  19.110  44.838   3.220
13319W        W78579  43.978   2.285   4.076
13320W        W78580  34.092  28.937   4.213
13321W        W78581  36.946  21.292  12.387
13322W        W78582  19.848  16.993  14.312
13323W        W78583  33.138  41.324   1.303
13324W        W78584   2.336  35.100  13.771
13325W        W78585  27.755  10.340   1.310
13326W        W78586  14.971  29.640  13.621
13327W        W78587  11.224  15.098  14.390
13328W        W78588   5.657  26.987  11.518
13329W        W78589  19.731  40.030  11.679
13330W        W78590  32.702  24.933  12.755
13331W        W78591  11.766  33.594  10.527
13332W        W78592  35.483  18.686   0.603
13333W        W78593   4.351  36.556   1.374
13334W        W78594  15.774  27.738   0.031
13335W        W78595  12.670  21.121   4.638
13336W        W78596  25.086  37.489  10.897
13337W        W78597  25.379  10.236  12.982
13338W        W78598  25.867  29.446   1.870
13339W        W78599  40.301  28.332  14.168
13340W        W78600  26.211  29.151  13.955
13341W        W78601   4.754  13.086  12.769
13342W        W78602  27.941  41.008   2.801
13343W        W78603  27.048  34.592   1.819
13344W        W78604  34.567   7.486  13.247
13345W        W78605   0.382  33.566   2.488
13346W        W78606   2.524  22.563  14.801
13347W        W78607  24.162  38.397   0.232
13348W        W78608  18.594  28.232   2.364
13349W        W78609  41.790  12.056   0.261
13350W        W78610  33.423  22.613   3.190
13351W        W78611  31.806  14.511   3.838
13352W        W78612  36.953   3.484  11.214
13353W        W78613  43.347  28.215   4.872
13354W        W78614   3.687  27.373  11.582
13355W        W78615  36.736  33.532   2.327
13356W        W78616  36.949  25.588   1.365
13357W        W78617   5.017  21.117  11.160
13358W        W78618   9.318  14.357   1.311
13359W        W78619  35.305   3.732   4.218
13360W        W78620  10.537  24.943   4.559
13361W        W78621  43.008  32.199  13.791
13362W        W78622  13.225  18.066  11.639
13363W        W78623  17.194   0.871  12.570
13364W        W78624  40.770  26.719   4.268
13365W        W78625  24.535  34.903  14.023
13366W        W78626  22.139  42.904   2.383
13367W        W78627  26.656  26.630  11.644
13368W        W78628  22.830  19.274  13.499
13369W        W78629   4.898  21.158   2.816
13370W        W78630  15.055  16.331  11.996
13371W        W78631  42.343  30.677  14.450
13372W        W78632   1.956  24.540  12.218
13373W        W78633  12.833  31.689   0.320
13374W        W78634  39.066   7.172  12.133
13375W        W78635  17.657  14.186   4.664
13376W        W78636  37.422   0.656  14.807
13377W        W78637  10.334  26.968   0.816
13378W        W78638  12.854   5.913  14.110
13379W        W78639   3.225  25.808   2.439
13380W        W78640  32.071  40.420   5.358
13381W        W78641   3.488   6.969  11.116
13382W        W78642   2.745  23.745   0.224
13383W        W78643  38.158  37.428   4.269
13384W        W78644  29.648  40.677   1.325
13385W        W78645  20.653   1.010  12.538
13386W        W78646  26.626  36.128  13.907
13387W        W78647  31.480  44.788  13.769
13388W        W78648   7.308  34.215  14.287
13389W        W78649   9.882  35.082   2.838
13390W        W78650  32.588  26.727   0.505
13391W        W78651   0.060  15.787   1.323
13392W        W78652  10.299  22.546  13.948
13393W        W78653  40.788  15.897   1.309
13394W        W78654  36.935  37.464  12.026
13395W        W78655  44.676  27.071   3.538
13396W        W78656  16.099  37.166  10.893
13397W        W78657  40.824   9.112  14.811
13398W        W78658  44.377  12.570   1.840
13399W        W78659  24.025  44.375  14.521
13400W        W78660  24.522  27.446   2.375
13401W        W78661  40.393  23.862  11.919
13402W        W78662  31.352  34.542   4.595
13403W        W78663  34.893   2.041   2.107
13404W        W78664   1.855  38.775  12.487
13405W        W78665  28.517   2.880  11.689
13406W        W78666  39.100  35.575  14.882
13407W        W78667  22.535  23.402   3.649
13408W        W78668  39.378  13.221   1.283
13409W        W78669  36.911  19.236   3.193
13410W        W78670  12.844  35.449  10.973
13411W        W78671  42.691   0.398  13.544
13412W        W78672  44.763   0.770  10.847
13413W        W78673  14.073   9.496   0.484
13414W        W78674  37.633  30.583   0.220
13415W        W78675   1.676  44.477   0.364
13416W        W78676  29.976   2.685   2.393
13417W        W78677  14.145  39.074   4.876
13418W        W78678  29.658  25.602   3.294
13419W        W78679  26.400  21.324   3.648
13420W        W78680  22.266  10.910   0.682
13421W        W78681  40.848  40.596  13.678
13422W        W78682  29.698  27.068  11.442
13423W        W78683  15.640  25.447  14.302
13424W        W78684  39.974  16.408  12.312
13425W        W78685  20.840   8.322  14.859
13426W        W78686   6.795  35.370   2.795
13427W        W78687  31.319  15.206   1.428
13428W        W78688  25.591  10.703   4.449
13429W        W78689   2.803   7.276   0.501
13430W        W78690  35.275  20.224  11.988
13431W        W78691  11.840  34.103   0.834
13432W        W78692  40.344  16.722  14.744
13433W        W78693  23.678   4.640   2.256
13434W        W78694  39.422  39.311   3.588
13435W        W78695   8.732   8.924   4.020
13436W        W78696   1.989   0.824  11.158
13437W        W78697  10.109  43.059  12.523
13438W        W78698  43.684   0.363  13.417
13439W        W78699  11.404  13.236  11.968
13440W        W78700  32.024   7.746  13.138
13441W        W78701  10.995  20.734   1.709
13442W        W78702   8.652  21.220   2.815
13443W        W78703  36.066  14.445   5.017
13444W        W78704  25.803  16.329  10.398
13445W        W78705  42.529  14.555  11.622
13446W        W78706  27.946  19.506  11.451
13447W        W78707  27.143  35.934  12.983
13448W        W78708   6.885  11.072  14.955
13449W        W78709  38.959  16.847   1.392
13450W        W78710  41.942  34.607  13.213
13451W        W78711  10.709  44.307   3.409
13452W        W78712  39.885   1.012  13.129
13453W        W78713  39.249  36.961   0.210
13454W        W78714  28.677  41.067   4.730
13455W        W78715  27.050  23.816   1.186
13456W        W78716  30.286  43.024  14.454
13457W        W78717  40.016  11.095  11.158
13458W        W78718  23.643   3.936  11.128
13459W        W78719  25.348  37.881   0.774
13460W        W78720  11.260   0.081  12.422
13461W        W78721  12.661  25.137   0.846
13462W        W78722   5.271  17.102   0.858
13463W        W78723  25.639  42.658   2.583
13464W        W78724   5.900  29.700  11.909
13465W        W78725  44.752  31.036  11.531
13466W        W78726  37.894  32.393  10.886
13467W        W78727  18.194  41.364   2.367
13468W        W78728   8.765  10.736   0.974
13469W        W78729   5.703  42.968  12.366
13470W        W78730  40.375  16.210   1.406
13471W        W78731   0.382  28.665   0.460
13472W        W78732  30.149  33.985   0.987
13473W        W78733  21.470  27.098  13.247
13474W        W78734   3.980   7.800   0.703
13475W        W78735  19.723  29.428  13.554
13476W        W78736  13.137  30.303  14.922
13477W        W78737  39.018   7.636  13.101
13478W        W78738  36.943   6.056   0.941
13479W        W78739  12.339  44.284   1.265
13480W        W78740  27.995  10.035   4.236
13481W        W78741  36.710  19.470   5.073
13482W        W78742  21.221  34.700  11.523
13483W        W78743   1.514  18.702   1.126
13484W        W78744   5.182   0.286   3.301
13485W        W78745  27.669   4.320   2.493
13486W        W78746  35.924  19.481   3.999
13487W        W78747  14.005   9.703  13.862
13488W        W78748  44.830   1.769  12.056
13489W        W78749  15.334  38.831   3.785
13490W        W78750  31.001   9.691   3.314
13491W        W78751  24.693  27.423   4.648
13492W        W78752  44.910  15.500   0.478
13493W        W78753  25.157   1.431   4.440
13494W        W78754  20.225  29.930  11.095
13495W        W78755  28.041  34.107  14.578
13496W        W78756   3.872  19.050   4.759
13497W        W78757  24.076  36.034   3.143
13498W        W78758   7.503  15.362  10.722
13499W        W78759  33.576  24.502   1.334
13500W        W78760  25.528  20.809   4.129
13501W        W78761  21.432  22.708  14.811
13502W        W78762  17.538  43.765  11.491
13503W        W78763   4.409   7.926   4.105
13504W        W78764  27.504   3.270   3.960
13505W        W78765  22.044   2.108   1.223
13506W        W78766  15.840  42.016  14.727
13507W        W78767   7.353  22.621   3.031
13508W        W78768   8.637   7.255   0.697
13509W        W78769  37.828  25.901  14.320
13510W        W78770  26.690  36.488   2.857
13511W        W78771  28.181  36.253   0.041
13512W        W78772  21.212  26.273  10.529
13513W        W78773  17.616  29.228  12.394
13514W        W78774  18.420  25.213  11.183
13515W        W78775  33.616  24.509   3.675
13516W        W78776  35.898   2.168   5.257
13517W        W78777   6.049  29.305  10.231
13518W        W78778  22.042  29.708   1.771
13519W        W78779  18.101  19.640   2.193
13520W        W78780   9.180  19.722  12.975
13521W        W78781  30.500  36.445   1.575
13522W        W78782  14.562   1.370  13.959
13523W        W78783  15.622  29.851   4.333
13524W        W78784  30.811  12.417  12.459
13525W        W78785  42.852   8.413  12.021
13526W        W78786  14.173  15.146  14.897
13527W        W78787  33.371  17.756  12.785
13528W        W78788  38.885  33.068  14.904
13529W        W78789  12.860  11.382  12.391
13530W        W78790  35.782  26.638   5.080
13531W        W78791  35.084  39.325   4.800
13532W        W78792  12.634   0.779   2.357
13533W        W78793   4.781  12.758  14.017
13534W        W78794  18.665  24.802   1.086
13535W        W78795  19.196   0.776  12.460
13536W        W78796  25.661  29.043   4.861
13537W        W78797  34.192   2.460   5.495
13538W        W78798  40.775   3.804  13.441
13539W        W78799  41.969   8.818  11.956
13540W        W78800  26.867  26.024  11.114
13541W        W78801  28.105   4.658   0.715
13542W        W78802  15.721   2.219  11.970
13543W        W78803  25.578   3.403  14.024
13544W        W78804  33.055  12.898   2.361
13545W        W78805  38.396  10.353   3.098
13546W        W78806  39.420  42.745  14.474
13547W        W78807   9.361  21.445  12.625
13548W        W78808  23.050  20.668  11.213
13549W        W78809  21.124  29.650  13.900
13550W        W78810  39.541  35.024  12.330
13551W        W78811  16.815  42.861  12.600
13552W        W78812   2.849   0.423  11.132
13553W        W78813  30.979   1.955   1.389
13554W        W78814  15.854  18.350  11.216
13555W        W78815  20.698  11.084  14.838
13556W        W78816  22.320  12.861   3.687
13557W        W78817  24.054  33.002  14.400
13558W        W78818   9.157  12.672  14.250
13559W        W78819  35.403  22.887  11.999
13560W        W78820   1.967  42.513   4.272
13561W        W78821  13.490  14.351  13.801
13562W        W78822  30.435  35.823   4.252
13563W        W78823  39.309  14.670  14.962
13564W        W78824   7.680  29.044  13.334
13565W        W78825  39.623   0.411  11.162
13566W        W78826  42.997   5.733   1.925
13567W        W78827  24.585   9.640  12.096
13568W        W78828   9.607  12.837   0.329
13569W        W78829  25.995  30.057   3.750
13570W        W78830  30.747  39.401   0.260
13571W        W78831  23.701  40.514  12.419
13572W        W78832  44.191  29.714  12.523
13573W        W78833  16.096   2.898  13.632
13574W        W78834  41.509  37.285   0.892
13575W        W78835   4.691  43.296  10.443
13576W        W78836  27.627  26.474   2.234
13577W        W78837  28.975   9.575  11.570
13578W        W78838  10.858  37.560   3.308
13579W        W78839  13.583   8.773   4.612
13580W        W78840  11.876  39.331  12.415
13581W        W78841  34.771  30.110  13.879
13582W        W78842  16.012  16.243  14.898
13583W        W78843  22.663  38.042  13.516
13584W        W78844  10.943  12.156  13.448
13585W        W78845  36.076  34.096   1.900
13586W        W78846  36.010  16.726   1.903
13587W        W78847  29.855   8.808  13.393
13588W        W78848   8.193  38.256   0.032
13589W        W78849  12.329  39.459  11.679
13590W        W78850  21.852  42.131   3.045
13591W        W78851   1.321  26.659  14.536
13592W        W78852  34.574   9.452   1.836
13593W        W78853  35.022  21.188  10.118
13594W        W78854  25.672  23.585  12.861
13595W        W78855  19.228  32.083   4.350
13596W        W78856  36.838  26.949   1.978
13597W        W78857  20.966  40.328   2.160
13598W        W78858  27.474  18.119  14.215
13599W        W78859   2.396  14.010  12.834
13600W        W78860  41.889   4.663  11.151
13601W        W78861  12.382  13.683   2.343
13602W        W78862   0.054  32.385   0.136
13603W        W78863  37.641  14.674  14.468
13604W        W78864   5.941  30.010   3.787
13605W        W78865   0.764  20.117  14.443
13606W        W78866   3.705  14.037  11.086
13607W        W78867  24.875  34.718   0.861
13608W        W78868   7.168   1.031   1.281
13609W        W78869  28.251  13.841   2.800
13610W        W78870   3.787  42.058  11.193
13611W        W78871  13.004  18.147   5.068
13612W        W78872   9.968   0.668   2.558
13613W        W78873   4.367  14.211  14.247
13614W        W78874  21.083  29.645  12.935
13615W        W78875  23.485  43.423  12.658
13616W        W78876  41.255  43.972  10.783
13617W        W78877  38.850   4.757  12.618
13618W        W78878  28.346  26.998  11.804
13619W        W78879   6.003   0.898  10.744
13620W        W78880   5.334  28.480  14.427
13621W        W78881  41.891  44.913  12.318
13622W        W78882  16.920  14.865   0.720
13623W        W78883  34.745  20.621  13.566
13624W        W78884  15.700  28.641   2.707
13625W        W78885   1.653  24.206  12.489
13626W        W78886  35.037  40.293  13.548
13627W        W78887  37.547   4.344  12.446
13628W        W78888  22.425  35.047  13.600
13629W        W78889   2.429  31.946   4.637
13630W        W78890   3.353  33.495   4.791
13631W        W78891  35.278  26.895  12.917
13632W        W78892  11.081  10.844  14.447
13633W        W78893   0.364  23.464   4.209
13634W        W78894  41.953   7.673  10.891
13635W        W78895  10.542  43.959   1.306
13636W        W78896  18.343  35.787  11.734
13637W        W78897  27.727   3.911   4.216
13638W        W78898  44.330  41.865  13.530
13639W        W78899  42.838  12.331  12.728
13640W        W78900   6.029  22.604   4.935
13641W        W78901  14.259  17.168  10.799
13642W        W78902   6.232  11.172   2.231
13643W        W78903  14.107  21.475  13.906
13644W        W78904   1.017  30.824  13.513
13645W        W78905   4.199  17.443  14.750
13646W        W78906  14.608  16.639   2.269
13647W        W78907  28.236   9.746  12.882
13648W        W78908  18.484  12.294  13.393
13649W        W78909  28.175   6.389   2.132
13650W        W78910   5.935  11.250  13.889
13651W        W78911   5.919   0.983  14.384
13652W        W78912  17.836  22.582   1.467
13653W        W78913   8.993   0.438   0.451
13654W        W78914  30.347   4.346  10.831
13655W        W78915  44.032   2.991   4.630
13656W        W78916   0.186  32.406  13.845
13657W        W78917   5.650  24.126   2.008
13658W        W78918  21.645  29.217  14.549
13659W        W78919  26.502  27.124  14.733
13660W        W78920  16.126  29.657  14.324
13661W        W78921  18.398  43.483  13.552
13662W        W78922  26.995   3.406  10.388
13663W        W78923  30.061   8.701   4.438
13664W        W78924  18.225  39.298   4.924
13665W        W78925  29.040  34.571  11.960
13666W        W78926  38.862  43.028   0.762
13667W        W78927  17.811  25.852  12.999
13668W        W78928   0.730  22.950  13.058
13669W        W78929   9.847  27.231   0.238
13670W        W78930   7.769  39.864  11.204
13671W        W78931  37.927  40.230   1.796
13672W        W78932  22.129   5.764  12.799
13673W        W78933  31.075  42.078   4.144
13674W        W78934   6.869  14.878   3.945
13675W        W78935  10.001   2.377  10.671
13676W        W78936  25.992  33.133  12.079
13677W        W78937  41.418  40.892  11.556
13678W        W78938  12.085  34.971  10.675
13679W        W78939  11.272  22.023  12.885
13680W        W78940   8.485  35.640  11.028
13681W        W78941   9.713  38.613   3.094
13682W        W78942  17.420  43.205   1.685
13683W        W78943   1.931  29.032  14.396
13684W        W78944  19.181   3.700  14.581
13685W        W78945  16.213  15.282  14.148
13686W        W78946  41.752  38.247   2.825
13687W        W78947  40.113  13.266   3.224
13688W        W78948  34.935   8.755  14.448
13689W        W78949  19.583  24.817  14.605
13690W        W78950  31.446  15.221   0.907
13691W        W78951  44.208  44.373   0.463
13692W        W78952   6.390  21.432  12.690
13693W        W78953   1.357  34.077  12.012
13694W        W78954  31.206   8.393  14.941
13695W        W78955  42.477   9.917  13.904
13696W        W78956  23.628  27.638   4.507
13697W        W78957  21.045  31.562   0.684
13698W        W78958  40.572  26.375   1.931
13699W        W78959   9.720  37.816   1.944
13700W        W78960   1.879  21.255  14.497
13701W        W78961  40.502  25.181   0.289
13702W        W78962  10.177   5.863   0.927
13703W        W78963  20.206  27.455   2.879
13704W        W78964   0.348  11.203  10.233
13705W        W78965  13.444   1.652   2.732
13706W        W78966  19.970  34.376  12.209
13707W        W78967  43.731   8.668   1.600
13708W        W78968  16.214   0.507  13.996
13709W        W78969  24.884  23.171   3.630
13710W        W78970  11.667  32.503  10.536
13711W        W78971   6.655  19.201  10.855
13712W        W78972  10.316  33.948   3.844
13713W        W78973  22.053   5.528   2.276
13714W        W78974  24.662  12.675   2.014
13715W        W78975   0.585  39.613  13.515
13716W        W78976  14.409  26.966   0.138
13717W        W78977  24.983  28.819   3.344
13718W        W78978  24.691   8.630   4.218
13719W        W78979  36.812  35.541   2.254
13720W        W78980  23.626  10.195   2.699
13721W        W78981  19.075   1.417   4.751
13722W        W78982  33.186  27.813  10.706
13723W        W78983  36.368   5.643   3.019
13724W        W78984  21.668  43.218   0.669
13725W        W78985  20.492  42.213  13.514
13726W        W78986  18.884   1.240  12.554
13727W        W78987  17.710  43.083  14.665
13728W        W78988  36.015  42.605   0.068
13729W        W78989  18.570  36.248  12.654
13730W        W78990   2.802   6.838   1.938
13731W        W78991   1.441   3.099  11.269
13732W        W78992   1.017  43.310   0.289
13733W        W78993  43.303  18.318  12.968
13734W        W78994  14.291  19.603  12.917
13735W        W78995  17.265  36.062   3.118
13736W        W78996  31.878  32.894   1.425
13737W        W78997  16.813  19.258   1.287
13738W        W78998  38.159  31.243   3.231
13739W        W78999   9.357  13.617   4.657
13740W        W79000  20.757  16.768   4.259
13741W        W79001  37.494  30.679   3.852
13742W        W79002  31.537  29.258  12.913
13743W        W79003  26.502  43.846  11.878
13744W        W79004  12.303   9.081  12.881
13745W        W79005  22.690  23.254   4.115
13746W        W79006   6.865  38.363   3.330
13747W        W79007  32.894  21.944  13.122
13748W        W79008  14.577  19.660  10.289
13749W        W79009  17.285  41.031   0.434
13750W        W79010   4.980  23.097   1.794
13751W        W79011  33.819   2.355   1.214
13752W        W79012   5.843  41.032  12.781
13753W        W79013  13.301  43.473  13.500
13754W        W79014  10.127  28.558   4.003
13755W        W79015  14.825  41.731  11.983
13756W        W79016  40.769  36.785   1.677
13757W        W79017  19.227  10.677  13.870
13758W        W79018   9.242  13.728  13.453
13759W        W79019  44.337   6.767   2.263
13760W        W79020  37.872  30.154   1.330
13761W        W79021  17.760  16.547  13.361
13762W        W79022  15.746  21.139   0.294
13763W        W79023  14.388  34.849  14.468
13764W        W79024   6.550   0.107  13.891
13765W        W79025  32.060  18.567  13.324
13766W        W79026  44.198  35.833   4.169
13767W        W79027  14.736  42.187  11.081
13768W        W79028  30.194  14.837  14.461
13769W        W79029   7.572  21.447   1.320
13770W        W79030  23.571  21.952  10.826
13771W        W79031  36.127  43.542   2.643
13772W        W79032  37.606  10.317   2.240
13773W        W79033  34.968  25.601   2.714
13774W        W79034  39.710  32.650  11.486
13775W        W79035  11.137  17.566  12.428
13776W        W79036  38.327  29.442   4.252
13777W        W79037  31.527  44.012  13.375
13778W        W79038   7.830  33.832   2.377
13779W        W79039   1.782  16.090   1.680
13780W        W79040  10.936  21.665  14.418
13781W        W79041  29.749  11.142  11.557
13782W        W79042   5.886  25.669   3.641
13783W        W79043  10.434   4.759  13.801
13784W        W79044  30.476  15.030   2.817
13785W        W79045  12.447  37.364   2.921
13786W        W79046   5.481  34.184   2.313
13787W        W79047  26.186  43.930   0.943
13788W        W79048   5.189  40.329   2.815
13789W        W79049   1.434  35.606   2.046
13790W        W79050  26.547  10.346   4.153
13791W        W79051  25.522  14.315  14.787
13792W        W79052  42.943   2.814   1.028
13793W        W79053   2.556  39.482  12.125
13794W        W79054  39.100  29.018   1.746
13795W        W79055   4.693   1.258  10.973
13796W        W79056  44.844  44.020  12.430
13797W        W79057  19.433  10.105   4.279
13798W        W79058  18.458  39.264  11.975
13799W        W79059  17.984  34.526  14.402
13800W        W79060  38.271  32.035   1.691
13801W        W79061  29.140   9.811  12.464
13802W        W79062  16.332  24.485  13.140
13803W        W79063  16.131  10.571   2.411
13804W        W79064   9.343  22.235  12.102
13805W        W79065   3.373  25.163   3.044
13806W        W79066  23.170  12.132   4.545
13807W        W79067   4.378  42.472  12.914
13808W        W79068   2.656  39.635  13.456
13809W        W79069   4.975  12.761   0.475
13810W        W79070  29.981  15.129   4.436
13811W        W79071  44.769  39.678  12.830
13812W        W79072   6.744   4.097  10.720
13813W        W79073   5.834  41.916   1.195
13814W        W79074  11.382  42.818   4.540
13815W        W79075  32.725  28.640   3.315
13816W        W79076   1.275  37.801   4.652
13817W        W79077  14.698  44.414   4.753
13818W        W79078   6.750   8.343   2.801
13819W        W79079  31.595  42.152  12.123
13820W        W79080   1.062  12.189   0.510
13821W        W79081  26.140  31.601   0.281
13822W        W79082  10.375  26.454  14.839
13823W        W79083  11.459  20.993   4.042
13824W        W79084  32.832  44.027  13.980
13825W        W79085  39.144  15.596  12.927
13826W        W79086   9.897  37.845  13.339
13827W        W79087  37.603  30.096  13.917
13828W        W79088  30.698  36.021   2.676
13829W        W79089  29.427  10.603   1.249
13830W        W79090  22.480  26.914  12.066
13831W        W79091  12.816  26.106  10.332
13832W        W79092  34.579  32.726   0.405
13833W        W79093  25.697   7.715  13.631
13834W        W79094  41.166  16.690   0.905
13835W        W79095  18.229   0.226   2.247
13836W        W79096  35.604  15.660   4.750
13837W        W79097  15.807  19.649  14.295
13838W        W79098  43.838  20.314  11.257
13839W        W79099  16.092   8.661   0.366
13840W        W79100  37.686   0.930  12.519
13841W        W79101   2.360  17.030   2.705
13842W        W79102  24.678  21.106  13.909
13843W        W79103  33.265  37.925  14.139
13844W        W79104   4.608  12.451   4.564
13845W        W79105  33.914  33.109  14.499
13846W        W79106  36.015   5.381  11.409
13847W        W79107  36.041  36.553   4.514
13848W        W79108   8.234  27.985  11.243
13849W        W79109  42.956   4.826   4.572
13850W        W79110  40.473  43.081  12.490
13851W        W79111   5.691   6.694   2.258
13852W        W79112  39.523  10.864   0.824
13853W        W79113  16.526   5.370  14.642
13854W        W79114  19.676  39.053   2.740
13855W        W79115  41.364   1.650  12.139
13856W        W79116   0.690   4.306  14.920
13857W        W79117  22.481  29.939   4.562
13858W        W79118  10.684  30.320   4.315
13859W        W79119  30.899  22.442  11.258
13860W        W79120  33.912  29.972   2.203
13861W        W79121  21.326   9.669  10.387
13862W        W79122  18.163   5.953  11.873
13863W        W79123  34.135   5.801   4.655
13864W        W79124  41.669  29.885  13.423
13865W        W79125   7.183   5.312   3.851
13866W        W79126  35.519  10.267  14.908
13867W        W79127  20.057  22.201   4.160
13868W        W79128  17.579  40.328  11.363
13869W        W79129  36.617  35.294   0.488
13870W        W79130  23.775  29.158   1.452
13871W        W79131  19.004  18.178   2.281
13872W        W79132  17.274  42.391   0.732
13873W        W79133   2.350  27.672   2.693
13874W        W79134  20.723   1.389   1.958
13875W        W79135  43.873   9.991   9.966
13876W        W79136  41.500  13.453   0.461
13877W        W79137  33.424   6.327  12.915
13878W        W79138  36.823   0.404   1.019
13879W        W79139  35.968  43.429  11.544
13880W        W79140  16.720   1.310   2.298
13881W        W79141  19.738   5.481   2.668
13882W        W79142  28.071   1.287  13.898
13883W        W79143  33.183   1.524  14.642
13884W        W79144  11.173  24.715  13.018
13885W        W79145   6.699  31.538  13.047
13886W        W79146  38.279  44.411  14.470
13887W        W79147  32.155  39.752  14.956
13888W        W79148  17.551  22.099  14.973
13889W        W79149  30.115  15.551  11.518
13890W        W79150  13.424  13.766   3.708
13891W        W79151   2.709  26.514   0.784
13892W        W79152  22.088  12.104  12.979
13893W        W79153  23.125  44.195  11.293
13894W        W79154   8.427  40.765  14.987
13895W        W79155  38.488  20.817   4.561
13896W        W79156   0.096  10.218   4.336
13897W        W79157  15.973   1.365  14.835
13898W        W79158  34.844  30.942   2.819
13899W        W79159  30.366  28.070  10.946
13900W        W79160  15.816  10.941   0.805
13901W        W79161   4.822  36.192   2.724
13902W        W79162   0.425  36.642   0.237
13903W        W79163  40.867  35.258  11.015
13904W        W79164  19.046   0.520  12.919
13905W        W79165  26.003  44.974   0.429
13906W        W79166   8.998  21.755  11.651
13907W        W79167  40.496  27.895   1.789
13908W        W79168  20.176   9.858  11.403
13909W        W79169  17.206  39.290  13.938
13910W        W79170  41.762  12.837   3.798
13911W        W79171  42.949   6.973  14.689
13912W        W79172   6.460  12.873  14.859
13913W        W79173  15.511  40.307   1.303
13914W        W79174  13.338  21.776   0.410
13915W        W79175  10.187  23.453   4.214
13916W        W79176   5.675  11.383  11.493
13917W        W79177  10.898  18.412  12.600
13918W        W79178   4.990  20.745   0.172
13919W        W79179  21.694  21.732   4.378
13920W        W79180  36.045   2.108  12.914
13921W        W79181  14.066  30.597  14.524
13922W        W79182  25.649  30.147  12.116
13923W        W79183  20.135  16.092   1.023
13924W        W79184  18.308   9.586   0.342
13925W        W79185  15.046  15.499   0.827
13926W        W79186   3.527  40.369   0.785
13927W        W79187  27.060  34.157   2.351
13928W        W79188  13.098   4.147   1.888
13929W        W79189   0.766  36.843   2.298
13930W        W79190  30.476  19.798   2.313
13931W        W79191  20.403   5.920  12.058
13932W        W79192  24.670  36.395  14.833
13933W        W79193   4.279   5.645   3.211
13934W        W79194  35.852   5.866  14.739
13935W        W79195   4.380  38.634   0.883
13936W        W79196  33.820  20.265  14.350
13937W        W79197  44.810  37.540  11.570
13938W        W79198  41.363  22.713  13.969
13939W        W79199  19.122  23.706   0.984
13940W        W79200  27.740  32.330  12.982
13941W        W79201  39.776  10.732   1.296
13942W        W79202  36.771  17.166  12.692
13943W        W79203  31.839  36.152   4.087
13944W        W79204  16.158   5.448   4.673
13945W        W79205  17.613  29.990  11.387
13946W        W79206  28.436  41.268   1.543
13947W        W79207  11.241  31.204  10.648
13948W        W79208  36.545  38.816   0.940
13949W        W79209  29.655  41.561  13.044
13950W        W79210  40.186  15.792   4.178
13951W        W79211  20.771  29.722   1.529
13952W        W79212  33.558  20.469  12.625
13953W        W79213  41.543  31.008   2.341
13954W        W79214  28.440  21.946  12.435
13955W        W79215   8.449   0.267   3.765
13956W        W79216  21.247  15.734   3.772
13957W        W79217  11.695  40.980  11.135
13958W        W79218   4.566   1.448   4.693
13959W        W79219  26.423  36.045   4.467
13960W        W79220  32.946   0.764   3.004
13961W        W79221   7.850  28.543  10.782
13962W        W79222   6.285  20.254   4.619
13963W        W79223  11.385  15.724   4.941
13964W        W79224  28.436  27.606   1.379
13965W        W79225  28.204   8.232   0.972
13966W        W79226   2.266  15.661   4.094
13967W        W79227  13.567   4.027   2.764
13968W        W79228  21.130   9.264  10.660
13969W        W79229  37.777   4.547  13.243
13970W        W79230  20.138  18.736   4.144
13971W        W79231  40.451  36.371  12.623
13972W        W79232  43.570   2.291   1.811
13973W        W79233  38.904  41.369   3.788
13974W        W79234  35.868   8.991  12.499
13975W        W79235  21.711  44.759   3.444
13976W        W79236   5.751  23.594   3.321
13977W        W79237   6.767  14.724  13.658
13978W        W79238  25.187  41.085   3.232
13979W        W79239  39.200   2.032   5.312
13980W        W79240  21.674   5.368   1.152
13981W        W79241  23.949  41.112   2.201
13982W        W79242  43.898  39.264   2.077
13983W        W79243  17.347  28.351  13.882
13984W        W79244  37.983   4.890  10.352
13985W        W79245  11.644  16.732   4.341
13986W        W79246  40.480   4.844  13.982
13987W        W79247  22.941   3.396  12.519
13988W        W79248  31.750   5.000  13.630
13989W        W79249  28.660  10.111   1.221
13990W        W79250   2.156  17.336  14.862
13991W        W79251   3.417  26.219   1.859
13992W        W79252  22.423  16.773  13.537
13993W        W79253   0.165   7.144  11.210
13994W        W79254  28.552  19.172   4.204
13995W        W79255  14.663  37.838   0.172
13996W        W79256  37.006   6.153  12.974
13997W        W79257  18.271  35.179   4.116
13998W        W79258  18.168  32.677   0.741
13999W        W79259  30.169  33.728   2.359
14000W        W79260   9.587  32.632  14.370
14001W        W79261   1.977  39.949  14.674
14002W        W79262  14.013  11.580   0.806
14003W        W79263  11.374  21.822  12.390
14004W        W79264  10.671  12.236  12.928
14005W        W79265  43.290  42.404  11.644
14006W        W79266  11.264  31.593  14.347
14007W        W79267   7.936  32.425   2.240
14008W        W79268   6.295   4.690   2.484
14009W        W79269  16.352  17.204   2.386
14010W        W79270   4.350  23.538  12.050
14011W        W79271  12.864  12.383  12.361
14012W        W79272  18.342  17.576   4.841
14013W        W79273  44.510  41.592  11.551
14014W        W79274  43.305  17.257   0.293
14015W        W79275  12.833  16.694   1.274
14016W        W79276   8.071   6.276  14.786
14017W        W79277  32.411  21.033   3.702
14018W        W79278  16.331  26.451   2.408
14019W        W79279  17.697  30.893  10.407
14020W        W79280  36.044   5.869   4.237
14021W        W79281  14.185  11.176   3.224
14022W        W79282   2.740  24.363   4.129
14023W        W79283   6.996   2.385   3.273
14024W        W79284  20.227  15.824   2.845
14025W        W79285  35.910  37.923   0.264
14026W        W79286   6.928  35.849  13.962
14027W        W79287   3.774  41.722   1.727
14028W        W79288  33.276   0.032   2.104
14029W        W79289   8.675  17.056   2.145
14030W        W79290  44.771  10.116   3.381
14031W        W79291   7.354  36.348  13.147
14032W        W79292  28.045  14.993  14.961
14033W        W79293  30.847  29.148  12.624
14034W        W79294   6.685  44.295   2.449
14035W        W79295  34.234  25.157  10.352
14036W        W79296  17.769  15.713  14.277
14037W        W79297  23.142  14.688  10.547
14038W        W79298  32.149  44.773   2.686
14039W        W79299  24.743  20.668  11.626
14040W        W79300  26.437  12.704  12.082
14041W        W79301  18.743  17.233  13.960
14042W        W79302   6.870  44.085  11.105
14043W        W79303  16.379  12.946  12.948
14044W        W79304   4.964   4.852   1.358
14045W        W79305  11.101  21.685  13.759
14046W        W79306   3.472  26.941  13.287
14047W        W79307  30.758  26.164   2.824
14048W        W79308   8.934  35.863   0.402
14049W        W79309  26.526  28.107   2.110
14050W        W79310  44.556  17.245   3.624
14051W        W79311  33.518  11.635   0.440
14052W        W79312  27.211  31.291  13.605
14053W        W79313  26.015  43.286  12.450
14054W        W79314   3.459   2.209   2.164
14055W        W79315  16.764  39.359   3.643
14056W        W79316   3.131  42.936   4.777
14057W        W79317  43.249  34.205   2.049
14058W        W79318  21.160  36.454   3.394
14059W        W79319  32.181  39.107  13.035
14060W        W79320  10.595  32.908  11.047
14061W        W79321  44.158  39.652  14.368
14062W        W79322  26.021  24.874   0.488
14063W        W79323  43.348  10.026   2.995
14064W        W79324  39.833  31.948   2.776
14065W        W79325   8.711  29.051  13.269
14066W        W79326  21.527  39.970   0.354
14067W        W79327  25.272  10.492  14.938
14068W        W79328  12.516  10.702  14.459
14069W        W79329  15.070  20.641   0.016
14070W        W79330   8.364   4.394  11.149
14071W        W79331  21.236  41.898   3.646
14072W        W79332   2.518  38.947  11.926
14073W        W79333   7.331  20.549   4.074
14074W        W79334  29.504  26.136  10.516
14075W        W79335  24.092   5.743   3.436
14076W        W79336   1.365  39.962  13.568
14077W        W79337  43.838  38.444   3.370
14078W        W79338  11.772  27.200   3.108
14079W        W79339  32.086  25.158   3.091
14080W        W79340  25.760  29.571  11.482
14081W        W79341  24.384  11.674   1.178
14082W        W79342   0.792  20.934   0.498
14083W        W79343  33.533  30.033  14.953
14084W        W79344  23.618  41.896   4.589
14085W        W79345  11.834  42.823  14.741
14086W        W79346  30.661  43.398  13.292
14087W        W79347   0.234   9.740   3.132
14088W        W79348  36.489  17.585   1.808
14089W        W79349  10.610  19.732   3.681
14090W        W79350  14.831  35.898   4.736
14091W        W79351   3.744  32.135   4.969
14092W        W79352  26.112  34.862  14.845
14093W        W79353  27.128  33.521   4.140
14094W        W79354  10.877   6.835   0.846
14095W        W79355   7.989  21.739  11.192
14096W        W79356  10.834  43.603   1.575
14097W        W79357  20.593   7.988  10.309
14098W        W79358  35.831  35.344   2.716
14099W        W79359  30.453  16.365   2.287
14100W        W79360  10.212  44.832   2.432
14101W        W79361  39.362  32.504   3.226
14102W        W79362  34.813  12.547   4.189
14103W        W79363   1.327  42.319   0.890
14104W        W79364  42.249  30.201   2.663
14105W        W79365  10.449   0.509   4.597
14106W        W79366  12.167  26.578   1.837
14107W        W79367  16.089  13.814   3.129
14108W        W79368   2.534   9.645   3.660
14109W        W79369  12.035  17.709   2.754
14110W        W79370  32.572  15.352  10.536
14111W        W79371  23.119  43.985  14.785
14112W        W79372   3.696  36.948   1.909
14113W        W79373  42.802  17.768  14.906
14114W        W79374   8.900  11.778  10.958
14115W        W79375  40.285  19.608   0.347
14116W        W79376  13.965   1.876  14.478
14117W        W79377  44.230  23.454   4.246
14118W        W79378  27.439  38.778  11.620
14119W        W79379   0.064  32.030  12.509
14120W        W79380  34.146  31.441  13.782
14121W        W79381  23.701   0.065  12.732
14122W        W79382  27.080   9.820  14.752
14123W        W79383  19.085  15.600  14.120
14124W        W79384  11.600   8.029   4.966
14125W        W79385   4.463  14.223   4.115
14126W        W79386  40.103  44.000  11.724
14127W        W79387  21.188  11.299   3.763
14128W        W79388  28.283  30.524   1.379
14129W        W79389   4.433  25.259   0.349
14130W        W79390   4.995  29.541   0.533
14131W        W79391  24.285  15.356  14.152
14132W        W79392  36.926  44.787   5.186
14133W        W79393  26.594  26.756   4.187
14134W        W79394  33.943  44.249  10.300
14135W        W79395   0.970  28.680   1.709
14136W        W79396  17.270  33.270  12.881
14137W        W79397   3.686  36.071   2.874
14138W        W79398  16.604   4.415   1.032
14139W        W79399  15.734  26.133  12.963
14140W        W79400  33.418  31.930   0.026
14141W        W79401  29.599  11.787   4.543
14142W        W79402  43.681  31.945   1.374
14143W        W79403  16.127  11.524  11.600
14144W        W79404   3.298  17.860  12.347
14145W        W79405  37.185  27.983   3.696
14146W        W79406  30.000   5.194  11.513
14147W        W79407  13.354  24.573  14.856
14148W        W79408  34.676  19.372  13.004
14149W        W79409  29.860  10.308  13.132
14150W        W79410  39.866  23.636  11.870
14151W        W79411   4.016  17.035   2.183
14152W        W79412  21.732  21.692   3.680
14153W        W79413   0.895  16.442   1.269
14154W        W79414   2.863   5.157  11.215
14155W        W79415  44.744  18.097  13.378
14156W        W79416  29.087   1.639  13.920
14157W        W79417   2.270  14.548   2.193
14158W        W79418  40.414  21.777  10.697
14159W        W79419  15.521  36.995  11.491
14160W        W79420  40.907  31.483   4.038
14161W        W79421  22.761  29.665   0.701
14162W        W79422  12.283   5.329  14.252
14163W        W79423  32.578  19.550  14.367
14164W        W79424  23.817   1.297  10.274
14165W        W79425  25.060   8.719   1.933
14166W        W79426  21.038  28.400  12.545
14167W        W79427   9.460  17.957   0.035
14168W        W79428  13.573  24.016   4.191
14169W        W79429  22.241  28.064  12.107
14170W        W79430   9.342  35.498  10.868
14171W        W79431  29.101  15.748   1.735
14172W        W79432  27.510  13.078   1.751
14173W        W79433  30.903  19.784  11.606
14174W        W79434  37.096  17.586  11.373
14175W        W79435  38.441  19.114  11.906
14176W        W79436  11.344  42.477   0.951
14177W        W79437  29.653  41.092   1.678
14178W        W79438   3.531  19.572   2.506
14179W        W79439  43.927  19.115   2.740
14180W        W79440  37.229  10.726  12.400
14181W        W79441   2.474   4.917   2.593
14182W        W79442   6.154  23.612   2.180
14183W        W79443   2.456  32.171  12.688
14184W        W79444  31.524  21.015  13.045
14185W        W79445  43.864   1.282  12.623
14186W        W79446  15.600   4.217   3.581
14187W        W79447   8.362  31.560  10.519
14188W        W79448  33.624  38.602   0.472
14189W        W79449  39.024   5.650  11.945
14190W        W79450   2.766  16.791  11.761
14191W        W79451  17.534  17.767   0.215
14192W        W79452  27.689  13.212   3.124
14193W        W79453  21.091  21.337  10.270
14194W        W79454  28.652   7.361  12.127
14195W        W79455  19.097  20.889  12.686
14196W        W79456   6.455  31.430   3.903
14197W        W79457  19.271   3.319  14.909
14198W        W79458  38.939  34.050   0.898
14199W        W79459  36.352  11.657  13.784
14200W        W79460  34.582  13.552   4.324
14201W        W79461  12.396   0.828   4.276
14202W        W79462  36.567  30.180  12.010
14203W        W79463   6.631  12.595  12.139
14204W        W79464  44.467  23.005   4.170
14205W        W79465   3.242  11.136   1.284
14206W        W79466   9.322  12.526  12.903
14207W        W79467  28.501  38.284   3.187
14208W        W79468  40.898  33.767  13.070
14209W        W79469  42.956  25.133   1.952
14210W        W79470  19.177  40.418   3.112
14211W        W79471  24.102  18.510   3.322
14212W        W79472  29.269  24.909  14.477
14213W        W79473  20.933  42.291  13.771
14214W        W79474  42.812   0.849   0.739
14215W        W79475   5.454  41.771  12.884
14216W        W79476   1.720  22.253   0.856
14217W        W79477  11.838   6.783  10.613
14218W        W79478  43.101  38.343   4.038
14219W        W79479  12.630  27.645   3.270
14220W        W79480  34.900   8.195   0.309
14221W        W79481   2.495  31.396  11.719
14222W        W79482   5.287   8.961   1.035
14223W        W79483  22.513   4.535  12.193
14224W        W79484  44.764  20.600   1.754
14225W        W79485  16.902   8.838   4.206
14226W        W79486  37.038  26.139  12.876
14227W        W79487  15.753  43.266   4.062
14228W        W79488   9.916  24.172  13.508
14229W        W79489  39.312  18.561  14.998
14230W        W79490  16.541  19.289   0.431
14231W        W79491  29.372  19.805  13.092
14232W        W79492  36.940  43.282   1.702
14233W        W79493  22.566   5.657  13.942
14234W        W79494  17.664  11.530  12.424
14235W        W79495  28.504   5.871   1.943
14236W        W79496  37.685  20.740  10.704
14237W        W79497  38.641  29.096   4.063
14238W        W79498  35.287  13.292   0.297
14239W        W79499   5.085  28.368  12.962
14240W        W79500  28.849  10.630  14.136
14241W        W79501  27.476  30.441   0.977
14242W        W79502  37.138   8.855  14.393
14243W        W79503   3.863   8.930  13.275
14244W        W79504  43.853  13.830   2.842
14245W        W79505  13.398  30.016   0.746
14246W        W79506  35.879  30.125  13.580
14247W        W79507  14.844  35.066   2.119
14248W        W79508  10.893   0.483  10.787
14249W        W79509  32.616  22.134  10.739
14250W        W79510   4.191  16.272  11.062
14251W        W79511  26.158   3.811  14.309
14252W        W79512  37.028  40.004   3.652
14253W        W79513   8.836   7.288   3.200
14254W        W79514   8.003  24.177  14.724
14255W        W79515  34.208  15.701  13.518
14256W        W79516  32.525  28.138  12.578
14257W        W79517  28.167  17.080   3.406
14258W        W79518  40.544  16.306  11.084
14259W        W79519  18.953  39.562  11.865
14260W        W79520   5.046  30.176  10.227
14261W        W79521  44.639  25.602  13.521
14262W        W79522  24.652  26.715   3.740
14263W        W79523  31.993  42.427   2.209
14264W        W79524  23.531  42.035  13.184
14265W        W79525   0.894  28.120   3.578
14266W        W79526  35.932  33.731   0.916
14267W        W79527  37.866  44.624  14.722
14268W        W79528  15.800  30.949   0.851
14269W        W79529  29.791  10.850   4.047
14270W        W79530   8.842  13.614   4.718
14271W        W79531  10.164   9.873   1.631
14272W        W79532  13.946  30.155   3.607
14273W        W79533  12.762  38.579   4.772
14274W        W79534  38.945   2.301  11.561
14275W        W79535   1.418  17.323  11.261
14276W        W79536  32.622  11.690   4.156
14277W        W79537  18.157   3.229  13.977
14278W        W79538  16.080  36.296   4.220
14279W        W79539  22.075  22.547   3.298
14280W        W79540  34.125  21.031  12.064
14281W        W79541  23.454   8.212   2.887
14282W        W79542  28.685  29.446  13.942
14283W        W79543   0.155  14.735   1.387
14284W        W79544  41.978   8.589  13.840
14285W        W79545  35.495  11.875   0.891
14286W        W79546  32.565  31.310   3.781
14287W        W79547  39.823  16.677  11.729
14288W        W79548  24.380  15.688   1.747
14289W        W79549  24.416  16.210  14.183
14290W        W79550   2.521  30.453   3.256
14291W        W79551  18.644  26.968  11.146
14292W        W79552  18.686  32.218  14.998
14293W        W79553  28.667  41.831  12.930
14294W        W79554  29.215  14.645  13.531
14295W        W79555  40.417  38.112   2.511
14296W        W79556   5.400  38.480   3.107
14297W        W79557  11.660   8.629   1.763
14298W        W79558  38.077  19.559  14.860
14299W        W79559  17.117  24.955   4.174
14300W        W79560  19.202  26.585   2.251
14301W        W79561  32.183  20.473   0.923
14302W        W79562  22.902  42.755  10.622
14303W        W79563   7.762  15.750   0.243
14304W        W79564   6.854  32.539   3.182
14305W        W79565  16.547   4.271   3.905
14306W        W79566  30.078  32.438   0.161
14307W        W79567   7.244  28.167   4.187
14308W        W79568  11.771  10.232   0.282
14309W        W79569   1.529  27.109  11.277
14310W        W79570  26.725  25.119  14.535
14311W        W79571  25.568  10.034   1.560
14312W        W79572  11.768  33.011  10.744
14313W        W79573   3.223  12.062   1.452
14314W        W79574  44.836  23.138  13.019
14315W        W79575  39.906   5.734   3.671
14316W        W79576  30.033  38.478  11.290
14317W        W79577   9.276  34.636  10.774
14318W        W79578  21.531  41.407   0.483
14319W        W79579  35.163  16.309  11.459
14320W        W79580  26.202  40.823   3.060
14321W        W79581   7.884  33.637  11.898
14322W        W79582  43.890   6.937   0.354
14323W        W79583   5.908   6.893  14.025
14324W        W79584  22.659  26.654  12.939
14325W        W79585  44.001  20.124   4.578
14326W        W79586   6.743  44.419  14.296
14327W        W79587  22.193  25.246  14.552
14328W        W79588   2.995  14.199   3.314
14329W        W79589  12.689  15.129   3.779
14330W        W79590  31.340  37.028   3.255
14331W        W79591  18.034  22.048  10.751
14332W        W79592  32.224  28.531  13.659
14333W        W79593  25.596  13.372  11.930
14334W        W79594  16.196   4.467   1.830
14335W        W79595  28.718   3.287   0.949
14336W        W79596   1.752  41.869   1.720
14337W        W79597  44.952  43.220  14.900
14338W        W79598  10.942  39.054  14.908
14339W        W79599   4.887  31.918  13.255
14340W        W79600   3.396   5.261  10.718
14341W        W79601   4.915  41.934   3.258
14342W        W79602  17.801   5.863  12.997
14343W        W79603  12.077  24.984  10.738
14344W        W79604  43.471  41.610  14.346
14345W        W79605  39.448  15.275  14.298
14346W        W79606  41.016  16.618  14.052
14347W        W79607  11.837  12.201   2.273
14348W        W79608   1.952  42.142   0.250
14349W        W79609  16.112  10.165  12.773
14350W        W79610  39.054  29.426   4.804
14351W        W79611  35.131  20.247   2.752
14352W        W79612  27.111  19.975   3.238
14353W        W79613   5.739  35.334   3.140
14354W        W79614   4.963  32.904   0.997
14355W        W79615   9.682  24.206   1.824
14356W        W79616  39.759  38.906  13.294
14357W        W79617  36.544  16.812   3.744
14358W        W79618  20.183   6.125   4.505
14359W        W79619  41.590  38.849   2.064
14360W        W79620  12.375   1.038  14.664
14361W        W79621  34.335   2.196   1.189
14362W        W79622  37.921  43.236   4.493
14363W        W79623   5.205  13.718   4.473
14364W        W79624  32.077  27.511   1.651
14365W        W79625  44.292   9.069   4.336
14366W        W79626  43.341   9.054   0.963
14367W        W79627  44.366  31.946  10.705
14368W        W79628  19.152  27.514  13.151
14369W        W79629  22.071  11.525   0.360
14370W        W79630  16.672  31.529  14.973
14371W        W79631   1.498  11.637  10.369
14372W        W79632   0.407   2.955   2.786
14373W        W79633  27.994   0.902   0.247
14374W        W79634   8.933   1.266   4.154
14375W        W79635  18.106  29.744  10.728
14376W        W79636  17.979   0.837   2.252
14377W        W79637  33.676   8.246  11.185
14378W        W79638  28.444  34.378   0.805
14379W        W79639  12.458   8.854   2.741
14380W        W79640  31.241  36.014  13.839
14381W        W79641  13.106  24.960   5.121
14382W        W79642  25.343   1.306  12.468
14383W        W79643  30.951   2.020  13.594
14384W        W79644  38.505   9.231   4.061
14385W        W79645  25.187   1.828   3.672
14386W        W79646  25.517  35.003   3.639
14387W        W79647  43.582  22.442  11.954
14388W        W79648  12.176   8.600   1.787
14389W        W79649  28.111  26.506  12.074
14390W        W79650   1.259  34.200   1.848
14391W        W79651  19.214  28.351  14.047
14392W        W79652  30.637  18.280  10.323
14393W        W79653   0.532   3.145   0.554
14394W        W79654   6.897  15.334   3.678
14395W        W79655  35.497  26.212  10.795
14396W        W79656  41.953  40.765   3.108
14397W        W79657  21.254   1.273   4.189
14398W        W79658  24.513  25.461  11.148
14399W        W79659  26.959  17.761  11.637
14400W        W79660   7.344  34.922   2.761
14401W        W79661   8.882  23.311  11.817
14402W        W79662  26.174  36.161  14.735
14403W        W79663  18.597  28.755   0.730
14404W        W79664  28.884  30.684  14.076
14405W        W79665  19.008  22.207  12.051
14406W        W79666  36.581  35.869   1.873
14407W        W79667  44.787  23.727   0.127
14408W        W79668  11.100  17.050   4.082
14409W        W79669  29.977  17.745  14.644
14410W        W79670  25.751  19.822   3.424
14411W        W79671  32.253  11.861   0.618
14412W        W79672  33.441  35.115   3.109
14413W        W79673   9.786  23.756   4.130
14414W        W79674  17.430  11.831  12.786
14415W        W79675   0.226   1.298  14.863
14416W        W79676  26.611   7.322   2.406
14417W        W79677  33.145  19.274  11.521
14418W        W79678   4.127  16.132   0.070
14419W        W79679  21.614  17.058   4.781
14420W        W79680  12.809  29.387   1.845
14421W        W79681  42.810   5.177  14.826
14422W        W79682  20.496  40.304  11.192
14423W        W79683  20.611  31.962  13.583
14424W        W79684  11.639  14.577   1.188
14425W        W79685   7.170  19.212  10.763
14426W        W79686  27.928   2.973   4.114
14427W        W79687  22.076  12.585  11.122
14428W        W79688  14.276  17.090   4.547
14429W        W79689  37.054   8.314   2.033
14430W        W79690  12.832  15.104  11.222
14431W        W79691  37.755  32.518  11.722
14432W        W79692  38.871  40.976  14.414
14433W        W79693  32.460   0.289  12.788
14434W        W79694  21.859  13.783  12.526
14435W        W79695  29.285  22.578   2.820
14436W        W79696  17.712  32.596   4.637
14437W        W79697  25.787   9.111   4.731
14438W        W79698  11.730   5.914   0.951
14439W        W79699  24.124  33.528  14.448
14440W        W79700  27.467  43.109  11.491
14441W        W79701   9.879   4.444   0.851
14442W        W79702   8.874  14.292   3.178
14443W        W79703  31.145   4.957  12.993
14444W        W79704  17.433  21.245   3.469
14445W        W79705   2.170  25.584   4.551
14446W        W79706  43.766  23.243  12.142
14447W        W79707  43.567  30.622   2.893
14448W        W79708  31.360  18.363  10.779
14449W        W79709  11.438   5.788   4.060
14450W        W79710  30.754   6.747   2.632
14451W        W79711  35.672  20.613  11.944
14452W        W79712  44.744  13.846  12.106
14453W        W79713   5.821   1.035  11.719
14454W        W79714   0.952   5.017   3.988
14455W        W79715   9.937  36.848   2.318
14456W        W79716  41.790   0.393  14.954
14457W        W79717  24.270  37.887   0.031
14458W        W79718  36.505  33.804  12.396
14459W        W79719  23.911  36.432  13.466
14460W        W79720  24.436   3.951   2.197
14461W        W79721  11.758  36.250   2.120
14462W        W79722  28.225  32.016   1.215
14463W        W79723  43.782  11.466   2.233
14464W        W79724   2.476   4.281  10.664
14465W        W79725  19.109  42.249   1.712
14466W        W79726   8.324  40.159  11.079
14467W        W79727  25.042  10.671   4.246
14468W        W79728  38.971   4.774  14.020
14469W        W79729   2.975  20.090  12.608
14470W        W79730  11.778  17.121   1.988
14471W        W79731  11.653   7.647  13.606
14472W        W79732  29.691  20.095   4.275
14473W        W79733  29.513  19.241  10.511
14474W        W79734  16.279   8.419  14.902
14475W        W79735   0.607  10.230   2.281
14476W        W79736  33.624  19.767   3.716
14477W        W79737  23.820  29.391  12.010
14478W        W79738   6.431   1.924  13.483
14479W        W79739  28.614  42.926  14.775
14480W        W79740   9.387  38.010   4.194
14481W        W79741   3.406  42.014   4.157
14482W        W79742  18.775  23.741  13.565
14483W        W79743  32.054  13.730   1.362
14484W        W79744  35.369  13.088   2.648
14485W        W79745  39.456   1.051  12.419
14486W        W79746  35.897   8.700  13.783
14487W        W79747  15.055  32.020   0.331
14488W        W79748  25.949  30.669  12.168
14489W        W79749  12.408  40.038   3.181
14490W        W79750  23.494  24.625   1.932
14491W        W79751   5.217  24.970   3.521
14492W        W79752   2.221  23.604  13.957
14493W        W79753  41.442   1.300  10.563
14494W        W79754  33.272  24.538   0.238
14495W        W79755   0.426  31.889  12.148
14496W        W79756  23.591   5.561   1.378
14497W        W79757  43.610  10.880  14.026
14498W        W79758   6.209  38.780  12.551
14499W        W79759  15.322   1.009  14.257
14500W        W79760  42.880  25.123  11.845
14501W        W79761  29.868  44.805  13.186
14502W        W79762  44.755  12.411   1.199
14503W        W79763  22.344  30.669   1.751
14504W        W79764  20.014  36.097   2.705
14505W        W79765  26.390   5.825   2.399
14506W        W79766  13.244  30.106  14.355
14507W        W79767  27.574  15.215   3.845
14508W        W79768   0.715  13.312  11.490
14509W        W79769   7.285  44.760   2.789
14510W        W79770  42.031   0.429   0.400
14511W        W79771  21.803  12.413  10.739
14512W        W79772  16.040  18.156  10.776
14513W        W79773  25.725  13.573  14.269
14514W        W79774  37.862  42.347   1.641
14515W        W79775   9.942  34.511  13.518
14516W        W79776  31.708   1.509  11.632
14517W        W79777  43.877  44.138   2.490
14518W        W79778  11.046  44.298  13.452
14519W        W79779  34.351  15.303   2.305
14520W        W79780  27.087  30.360   3.132
14521W        W79781  35.381  15.161   3.707
14522W        W79782   3.659  26.945  10.407
14523W        W79783  28.740  44.840   3.583
14524W        W79784  15.901  32.928  14.525
14525W        W79785  37.195   0.335  12.237
14526W        W79786  25.509  19.607   0.680
14527W        W79787   9.249   7.609   4.847
14528W        W79788  12.694  26.256   4.057
14529W        W79789   6.414  30.244   1.401
14530W        W79790  33.081  26.924   2.849
14531W        W79791   7.843   1.382  12.606
14532W        W79792   3.687  19.269  10.670
14533W        W79793  20.450  16.667  13.780
14534W        W79794  21.828  27.891  11.872
14535W        W79795  31.057  30.902  13.548
14536W        W79796  11.242  41.559   3.359
14537W        W79797  15.002   3.914   1.298
14538W        W79798  15.768  32.447  10.715
14539W        W79799  23.428  40.197   1.269
14540W        W79800  32.040  23.668  14.444
14541W        W79801   3.528  16.591  13.919
14542W        W79802  20.119  36.354  10.481
14543W        W79803  16.646  39.002   1.892
14544W        W79804  39.264  15.782  13.428
14545W        W79805   0.342  25.167   1.779
14546W        W79806  20.111  10.350   1.195
14547W        W79807  23.017   1.334   0.813
14548W        W79808  36.520  13.412  14.452
14549W        W79809  10.110  16.312  14.922
14550W        W79810  20.561   9.151  13.873
14551W        W79811  40.084  34.626   3.480
14552W        W79812   7.146  35.053  10.751
14553W        W79813  11.837  40.686  10.740
14554W        W79814   7.155   8.794  14.913
14555W        W79815  40.292  14.868   2.324
14556W        W79816  19.076  11.559   3.761
14557W        W79817  14.062  22.229   4.125
14558W        W79818  28.196  38.794   1.204
14559W        W79819  32.048  27.009  11.895
14560W        W79820  24.263   5.237  14.838
14561W        W79821  23.966  42.337  11.997
14562W        W79822  17.117  22.813   0.857
14563W        W79823  11.900  38.830  12.564
14564W        W79824  13.320  40.231   1.745
14565W        W79825  41.762  32.917  12.529
14566W        W79826   9.093  17.800  10.502
14567W        W79827   8.185  18.159   3.570
14568W        W79828  11.939   2.433   0.422
14569W        W79829   6.171   6.866   2.369
14570W        W79830  25.747  12.431   1.399
14571W        W79831  32.975  13.025  12.984
14572W        W79832  42.016  25.444  10.641
14573W        W79833  30.448  21.287   4.571
14574W        W79834   5.364  43.273   4.488
14575W        W79835  29.496  24.208  11.694
14576W        W79836  36.467  18.076   2.699
14577W        W79837  13.663   7.837   1.354
14578W        W79838  41.856  36.329  10.730
14579W        W79839  28.192   7.808   0.660
14580W        W79840   7.083  30.719  11.489
14581W        W79841  11.161  22.039  13.392
14582W        W79842   9.997   7.473   2.696
14583W        W79843   7.717  23.204  11.219
14584W        W79844  24.303  44.272   3.586
14585W        W79845  12.857  33.023  13.150
14586W        W79846  32.537  45.000   1.271
14587W        W79847  19.059  28.448  14.955
14588W        W79848  32.232  34.007  13.471
14589W        W79849  18.850  20.684   1.796
14590W        W79850  41.375  15.721  13.364
14591W        W79851  13.627  40.697   0.407
14592W        W79852  43.060   1.572  11.501
14593W        W79853  18.507  17.085   4.914
14594W        W79854  31.741  38.138  11.797
14595W        W79855  23.139  37.496   4.974
14596W        W79856  39.942  29.954  10.774
14597W        W79857  12.724  28.396   1.803
14598W        W79858  11.721  19.695   2.233
14599W        W79859  33.225  22.080   4.900
14600W        W79860  14.590   9.843  11.878
14601W        W79861  26.887   0.730  13.258
14602W        W79862  17.553   3.443   4.425
14603W        W79863  27.236  19.172   5.316
14604W        W79864   0.034  31.359  14.855
14605W        W79865   2.394  11.278  11.455
14606W        W79866  35.355  17.679   4.253
14607W        W79867  10.878  37.561  13.463
14608W        W79868  31.022  10.103   0.860
14609W        W79869   1.751   9.625   4.107
14610W        W79870  43.716  31.072   0.783
14611W        W79871  26.065  13.942  14.478
14612W        W79872  18.777  33.632  12.910
14613W        W79873   5.497  20.057   3.334
14614W        W79874  15.577  10.718  11.903
14615W        W79875  38.908   5.953   2.724
14616W        W79876   5.111   1.655  10.280
14617W        W79877  29.643  30.036  11.417
14618W        W79878   9.785  21.790  13.329
14619W        W79879  15.636  24.483  12.464
14620W        W79880  31.014  33.938  10.675
14621W        W79881  24.010   0.544   2.899
14622W        W79882  38.324   8.338  10.772
14623W        W79883  16.395   9.731   1.410
14624W        W79884  25.238  28.565   4.324
14625W        W79885  43.587   9.849  14.624
14626W        W79886   5.694  38.492  11.636
14627W        W79887  43.893  14.637  14.479
14628W        W79888   5.396   8.870  12.119
14629W        W79889  39.295  14.481   5.037
14630W        W79890  19.341  28.723   2.980
14631W        W79891  25.597  43.637   0.711
14632W        W79892  20.897  28.600   2.789
14633W        W79893  16.637  36.262  14.996
14634W        W79894   8.231  20.000  13.124
14635W        W79895  11.641  21.483  12.110
14636W        W79896  23.132  13.511  14.801
14637W        W79897  38.325  21.484   2.418
14638W        W79898  16.135  21.207  13.331
14639W        W79899  44.317   4.676  13.871
14640W        W79900   3.901   2.279  13.053
14641W        W79901  23.061   4.900   0.156
14642W        W79902  39.002  25.517   4.141
14643W        W79903   7.748  20.777  11.074
14644W        W79904  13.933  19.379   4.132
14645W        W79905   8.257  29.001  11.214
14646W        W79906  36.968   3.694  12.526
14647W        W79907  32.290  37.969  10.622
14648W        W79908  11.581  14.424  10.681
14649W        W79909  36.149  14.830  14.470
14650W        W79910   3.009  24.670  13.146
14651W        W79911  29.273  13.780  12.052
14652W        W79912  39.969   5.260   0.062
14653W        W79913  24.564   3.016   0.403
14654W        W79914  14.941   5.138  14.167
14655W        W79915  42.275  12.315   3.261
14656W        W79916   4.406  23.934  14.457
14657W        W79917  17.631   5.957   1.818
14658W        W79918   6.427  36.978   4.924
14659W        W79919  42.457   0.196   1.128
14660W        W79920  25.194   8.690  13.460
14661W        W79921  39.190  12.683  12.489
14662W        W79922  43.643  21.096  11.743
14663W        W79923  18.161  43.336   1.325
14664W        W79924  10.068   7.718  13.989
14665W        W79925  23.624   6.241  13.680
14666W        W79926  24.233  30.538  14.405
14667W        W79927  26.571   1.439  13.673
14668W        W79928  26.098  43.946  11.559
14669W        W79929  29.890   0.141   1.064
14670W        W79930  10.814   6.010  12.561
14671W        W79931  13.108  18.558  11.561
14672W        W79932  28.069   8.870  14.530
14673W        W79933  24.690   9.647  14.184
14674W        W79934  20.204  44.694  12.513
14675W        W79935  37.923   1.672   2.207
14676W        W79936  35.807  10.682  14.915
14677W        W79937  43.468   5.319  14.565
14678W        W79938  22.557  21.492  13.808
14679W        W79939  18.044  20.166  14.902
14680W        W79940  23.567   5.872   1.833
14681W        W79941  39.600  23.605  13.499
14682W        W79942  33.740  25.488   1.194
14683W        W79943  27.922   6.692  13.353
14684W        W79944  22.615  22.990  14.444
14685W        W79945  39.588   0.732  10.294
14686W        W79946  42.569  18.592  11.139
14687W        W79947   7.719  28.619   4.618
14688W        W79948  21.338  18.325   4.582
14689W        W79949  39.359   2.970  12.605
14690W        W79950  17.138  28.695   3.753
14691W        W79951  16.826  44.443  10.727
14692W        W79952  17.219   2.605   0.266
14693W        W79953   5.004   3.347  13.978
14694W        W79954  20.994  23.672  14.366
14695W        W79955  43.397  44.672  10.785
14696W        W79956   3.525  44.201   0.772
14697W        W79957  41.329  44.072   1.705
14698W        W79958   2.387  14.839  13.968
14699W        W79959  38.053  21.789   4.295
14700W        W79960  25.250  43.150   0.461
14701W        W79961  20.305  29.722  12.067
14702W        W79962  41.000  42.712   3.243
14703W        W79963   9.123  32.244  13.916
14704W        W79964  25.689  25.780  12.266
14705W        W79965  18.558  24.996   3.319
14706W        W79966   0.272  22.219   2.840
14707W        W79967  36.965   2.414   2.752
14708W        W79968  42.543  16.082  14.479
14709W        W79969  16.307  18.125   0.396
14710W        W79970   0.992  17.949   4.617
14711W        W79971  31.005  33.697  11.135
14712W        W79972  23.104   6.453   1.374
14713W        W79973  29.377  19.143   0.548
14714W        W79974  26.161  17.027  12.853
14715W        W79975   4.921  42.632  11.260
14716W        W79976  41.937  13.308  12.857
14717W        W79977  17.133  32.829  10.724
14718W        W79978  19.693  21.027  12.356
14719W        W79979  18.503  42.429  10.709
14720W        W79980  42.800   1.919  12.934
14721W        W79981  15.861  22.280   2.198
14722W        W79982  22.116  20.679   3.355
14723W        W79983  27.627   4.701  11.239
14724W        W79984   2.399  31.114  13.526
14725W        W79985  39.593  22.670  13.412
14726W        W79986  11.782  34.993   3.153
14727W        W79987   3.054  37.794   1.452
14728W        W79988  21.123  16.651   0.515
14729W        W79989  32.922  43.330   3.179
14730W        W79990   7.396  28.273  10.809
14731W        W79991   8.668  40.344  14.714
14732W        W79992  24.027  18.315  12.584
14733W        W79993  37.372  26.129  14.437
14734W        W79994  23.726   4.112   1.356
14735W        W79995  38.961  44.474   2.822
14736W        W79996   8.205  27.933   2.664
14737W        W79997  40.292   9.211  13.018
14738W        W79998  34.021  21.345   0.524
14739W        W79999  12.721  39.585   1.671
14740W        W80000  27.639  10.363   3.285
14741W        W80001   9.820  40.440  12.402
14742W        W80002  44.478  39.962   1.438
14743W        W80003  39.383   1.345  14.013
14744W        W80004   3.351  15.325  14.533
14745W        W80005  29.405  30.723  14.010
14746W        W80006   3.733  29.988   1.525
14747W        W80007  22.977  38.469   2.378
14748W        W80008   7.801  44.847  11.591
14749W        W80009  28.349   0.009   0.996
14750W        W80010  35.944  28.743  13.535
14751W        W80011  10.607  21.934   2.376
14752W        W80012   2.975  16.881   0.810
14753W        W80013  31.691   7.880   4.613
14754W        W80014  14.977  15.336   0.315
14755W        W80015   9.735   3.081   3.228
14756W        W80016  40.041  11.598   4.112
14757W        W80017  18.241  41.227  13.539
14758W        W80018  35.028  22.121   2.772
14759W        W80019  29.944  20.236   4.707
14760W        W80020  17.052  21.295  12.893
14761W        W80021  44.553  15.385  10.689
14762W        W80022  44.537   3.346   5.019
14763W        W80023  17.065  36.552  14.215
14764W        W80024  18.317   1.025   1.792
14765W        W80025  28.064  36.522  11.709
14766W        W80026   0.812  25.818   0.463
14767W        W80027  38.929  44.818   2.388
14768W        W80028   8.706  36.624   2.612
14769W        W80029  24.427  26.113  12.000
14770W        W80030   0.732  17.830   3.349
14771W        W80031   7.892  13.570   4.350
14772W        W80032  16.788  25.511   3.121
14773W        W80033  22.883  38.820   3.057
14774W        W80034  33.568  38.136  14.518
14775W        W80035  11.814  26.171  13.578
14776W        W80036  14.718  28.154   0.063
14777W        W80037  39.939  36.320  14.979
14778W        W80038  33.308  43.919  13.843
14779W        W80039  43.053  26.603  12.989
14780W        W80040  14.342  14.502   0.371
14781W        W80041  22.931  36.566  12.051
14782W        W80042  31.284  18.676  11.499
14783W        W80043   8.323  13.669   4.647
14784W        W80044  24.056  36.992   1.129
14785W        W80045  10.785  33.646   4.584
14786W        W80046  30.068  35.005  11.221
14787W        W80047   7.454   0.841  13.645
14788W        W80048   8.422  26.599  12.544
14789W        W80049  17.734  39.448   2.042
14790W        W80050  10.822  33.160  10.646
14791W        W80051  11.704  29.613  14.206
14792W        W80052  21.242  19.213  14.914
14793W        W80053  17.800  20.902   3.208
14794W        W80054  31.129  44.762   3.775
14795W        W80055  35.273  23.819  10.948
14796W        W80056   6.481   4.502   1.911
14797W        W80057  37.496  42.315   4.178
14798W        W80058  18.862  20.042  13.772
14799W        W80059   5.231  20.595  11.904
14800W        W80060  29.241  13.205  12.012
14801W        W80061  37.562  19.131   1.868
14802W        W80062  14.818   7.800  12.378
14803W        W80063   4.925  43.550   3.647
14804W        W80064  19.753  40.930   0.822
14805W        W80065  17.349  15.220  12.613
14806W        W80066  38.922  13.596   3.780
14807W        W80067  29.936  27.525  14.309
14808W        W80068   7.427   5.083  13.651
14809W        W80069   0.696   9.725  12.842
14810W        W80070  14.726   8.727  11.336
14811W        W80071   1.821  17.038   0.616
14812W        W80072  32.357  35.097  14.107
14813W        W80073   7.191  37.584  14.382
14814W        W80074   0.026  18.194  13.850
14815W        W80075  33.104  33.614  14.740
14816W        W80076   2.722  22.611   1.432
14817W        W80077  42.208  13.659   4.060
14818W        W80078  19.919  28.190  11.985
14819W        W80079  40.417  41.336  14.805
14820W        W80080  14.969  36.701   1.186
14821W        W80081   7.408  17.226  10.686
14822W        W80082  14.271  30.876   1.715
14823W        W80083  15.225  36.560   2.260
14824W        W80084  32.801  38.971  10.109
14825W        W80085  36.276  20.839  13.819
14826W        W80086  18.113  26.164   3.944
14827W        W80087  35.935  35.484  12.563
14828W        W80088  42.494  32.117  13.609
14829W        W80089  22.589  18.796  13.548
14830W        W80090  22.678  41.204  10.428
14831W        W80091   8.298  37.834   0.909
14832W        W80092  10.407  44.936   0.023
14833W        W80093   8.094  35.697   3.041
14834W        W80094  34.376  30.082   1.035
14835W        W80095   6.464   6.040   2.779
14836W        W80096  15.363  24.975   4.224
14837W        W80097  24.203  42.022   3.881
14838W        W80098   9.609   6.372   4.058
14839W        W80099   0.885  29.388  13.431
14840W        W80100   5.164  30.445  11.473
14841W        W80101  21.034  38.833   3.973
14842W        W80102  20.326   8.984  12.619
14843W        W80103  25.638  35.935   0.371
14844W        W80104  28.937  17.066  14.423
14845W        W80105  32.870   8.288  10.735
14846W        W80106  21.701  31.987  11.056
14847W        W80107  36.049  19.949   0.895
14848W        W80108  31.862  29.669  12.860
14849W        W80109   2.711  28.062   5.499
14850W        W80110  39.517  17.802   1.478
14851W        W80111  10.830  24.962   1.169
14852W        W80112  30.926  24.314  14.733
14853W        W80113  15.166   6.957   3.983
14854W        W80114  33.358  15.285  14.587
14855W        W80115   3.138  20.983  12.133
14856W        W80116   2.196  25.738  14.138
14857W        W80117  42.854  14.200  13.934
14858W        W80118   3.925  42.307  13.396
14859W        W80119  16.586  38.881   3.280
14860W        W80120  24.765  35.601  12.375
14861W        W80121   9.153   2.962   3.965
14862W        W80122  44.323  13.520  14.411
14863W        W80123   8.160  34.388   0.210
14864W        W80124  34.227  39.927  13.917
14865W        W80125  32.586  42.833   2.129
14866W        W80126   4.226   0.425  12.013
14867W        W80127   2.424  12.681  12.288
14868W        W80128  31.232  42.981  12.673
14869W        W80129  38.248   9.809  13.000
14870W        W80130  32.466  15.323  11.875
14871W        W80131  25.438  30.624  12.139
14872W        W80132  13.300  19.460  12.060
14873W        W80133  21.314  11.819   4.216
14874W        W80134   2.277  18.853   0.780
14875W        W80135  18.807  18.034  11.988
14876W        W80136  28.276   3.082   1.210
14877W        W80137   8.812   4.017  14.742
14878W        W80138  16.676  39.735   1.320
14879W        W80139  32.571  15.255   0.848
14880W        W80140  22.453   2.306   4.941
14881W        W80141  37.089   5.776   0.515
14882W        W80142   0.260  31.061   4.196
14883W        W80143  16.620  43.934   2.350
14884W        W80144   1.891  39.477  11.451
14885W        W80145   8.164  32.677   4.681
14886W        W80146   9.310  38.808   2.816
14887W        W80147   5.863  20.306   1.373
14888W        W80148   9.438   2.927   2.412
14889W        W80149  26.963  14.159   4.104
14890W        W80150  37.369  38.572  14.619
14891W        W80151  11.408  43.570  12.514
14892W        W80152   5.460  29.079  11.579
14893W        W80153   4.692  33.658   1.552
14894W        W80154  42.393   0.248   2.138
14895W        W80155  21.520  15.821  12.995
14896W        W80156  24.038   4.266   2.271
14897W        W80157   7.608  12.560  12.532
14898W        W80158   8.391   8.986   1.265
14899W        W80159  26.567  38.804  12.836
14900W        W80160   8.149  23.638  12.499
14901W        W80161  24.106   8.029  13.274
14902W        W80162  12.027  17.572   1.796
14903W        W80163  25.530  41.298   2.726
14904W        W80164  14.626  42.206   0.458
14905W        W80165  33.529  33.635   1.628
14906W        W80166  36.751  29.586  14.742
14907W        W80167  40.481  34.511   4.187
14908W        W80168  41.837  44.484   4.550
14909W        W80169  41.528  20.783  13.130
14910W        W80170  16.600  11.687   3.634
14911W        W80171  24.575   9.413  13.450
14912W        W80172  12.324  18.133   2.719
14913W        W80173  10.709   1.836   0.020
14914W        W80174  27.105  44.406   4.175
14915W        W80175  32.940   8.622  14.776
14916W        W80176  23.545  34.865   3.561
14917W        W80177   9.321   0.656  11.585
14918W        W80178  29.078  28.110   3.406
14919W        W80179  30.500  31.078  10.900
14920W        W80180  13.369  31.538  12.556
14921W        W80181  38.331  30.705  11.439
14922W        W80182  11.341   8.968   0.390
14923W        W80183   1.753  15.054  14.970
14924W        W80184  34.809  34.026  13.009
14925W        W80185   6.267  13.196   4.093
14926W        W80186  28.596  11.390   3.141
14927W        W80187  31.706  20.179  12.834
14928W        W80188  38.595  30.112   0.779
14929W        W80189  11.934  37.516   2.920
14930W        W80190  38.273  23.551   4.628
14931W        W80191   9.355   7.870   2.188
14932W        W80192  23.211  44.483   1.772
14933W        W80193  30.353  14.530  11.611
14934W        W80194  38.413  31.548  10.684
14935W        W80195  25.447  13.198  11.441
14936W        W80196   3.438  16.259  11.510
14937W        W80197  21.850  13.730  13.081
14938W        W80198  40.023  37.992  13.122
14939W        W80199  19.478   0.910  13.897
14940W        W80200  12.931  30.839   1.883
14941W        W80201  20.458  32.685  14.714
14942W        W80202  16.096  44.036   3.173
14943W        W80203  25.175  16.208   0.500
14944W        W80204  26.611  33.226   1.783
14945W        W80205  19.214  22.498  11.583
14946W        W80206  27.936  28.135   3.094
14947W        W80207   4.856  24.445   4.901
14948W        W80208  17.660  26.994  11.115
14949W        W80209  10.789   1.960   3.570
14950W        W80210   4.520  37.923  14.509
14951W        W80211  22.575  36.074  13.581
14952W        W80212  14.696  27.196   3.782
14953W        W80213  26.122   9.125   2.771
14954W        W80214  39.818  34.908   2.129
14955W        W80215  30.835  21.610   1.762
14956W        W80216  12.736  36.896   1.217
14957W        W80217  33.047  27.468   2.745
14958W        W80218  19.634  23.545  11.997
14959W        W80219   2.535  20.538  12.929
14960W        W80220  13.200  12.867  10.663
14961W        W80221   4.014  44.432   0.840
14962W        W80222  20.747   5.988   3.074
14963W        W80223  37.952  28.603   0.659
14964W        W80224  35.726   2.446   3.326
14965W        W80225   3.045  30.621   3.344
14966W        W80226  34.170  31.280  12.587
14967W        W80227  11.083  32.885   1.889
14968W        W80228  28.444   4.848  13.862
14969W        W80229   9.452  27.832  11.678
14970W        W80230  23.432   9.663  11.502
14971W        W80231  34.355   8.662  14.697
14972W        W80232  40.601  39.824   5.277
14973W        W80233  12.450  41.259   3.921
14974W        W80234   0.294   0.171   1.008
14975W        W80235  23.136  38.071   2.098
14976W        W80236  26.047  41.300   3.795
14977W        W80237  44.747   9.367   4.395
14978W        W80238  19.564  10.841   4.570
14979W        W80239  27.935  18.019   4.242
14980W        W80240   7.415  28.504   2.835
14981W        W80241  18.112  22.253  11.758
14982W        W80242  30.568  35.974  11.188
14983W        W80243  38.506  26.540  14.990
14984W        W80244  15.370   7.363  10.456
14985W        W80245  32.063  15.586  12.078
14986W        W80246  37.953  13.236  11.042
14987W        W80247  36.588  34.950  11.099
14988W        W80248  14.765  38.753   4.563
14989W        W80249   8.892  17.708   4.306
14990W        W80250   4.474   7.819   2.761
14991W        W80251  35.834  42.380   4.881
14992W        W80252   1.764  20.729   3.693
14993W        W80253  10.872  18.546   4.818
14994W        W80254  43.783  36.810   4.090
14995W        W80255  30.101  10.693  14.947
14996W        W80256  18.230  19.372  11.080
14997W        W80257  18.855  30.118   4.945
14998W        W80258  35.834  11.969  11.524
14999W        W80259  14.410   6.186  12.628
15000W        W80260   2.570  19.778   1.640
15001W        W80261   6.237   3.916  10.721
15002W        W80262  35.842  11.382   4.217
15003W        W80263   0.736  29.469   0.466
15004W        W80264  14.072  38.845  11.180
15005W        W80265  21.422  35.571   4.163
15006W        W80266  26.929   8.154  14.368
15007W        W80267   6.848  35.556  11.797
15008W        W80268  27.976   2.838  13.399
15009W        W80269  37.038  16.565   0.338
15010W        W80270  27.947  36.744  14.965
15011W        W80271  16.058  29.675  12.857
15012W        W80272  21.012   8.878  12.045
15013W        W80273  31.370   1.351   2.835
15014W        W80274  35.190  20.144  11.037
15015W        W80275  11.225  43.026   0.381
15016W        W80276  20.663  28.598  13.830
15017W        W80277  44.744  17.664  14.296
15018W        W80278  22.832   1.452   0.285
15019W        W80279  12.801  28.492  14.284
15020W        W80280   2.277  33.520  12.038
15021W        W80281  24.472   2.512  14.534
15022W        W80282   7.876  30.415   2.464
15023W        W80283  19.606  34.731  10.264
15024W        W80284   4.921  21.669  11.983
15025W        W80285  21.428  23.576   2.331
15026W        W80286  25.098   1.385   3.939
15027W        W80287  17.794  24.012  14.025
15028W        W80288  14.211  15.240  12.584
15029W        W80289  20.671   2.737  11.975
15030W        W80290  30.415  39.620  13.070
15031W        W80291  34.235  26.898   1.533
15032W        W80292   9.099   6.369   4.139
15033W        W80293  28.540  34.041  14.456
15034W        W80294   4.900   6.398  12.498
15035W        W80295   9.449   6.490   3.180
15036W        W80296  18.685  32.595   0.755
15037W        W80297   8.323   8.294  10.539
15038W        W80298  20.252  43.405  12.875
15039W        W80299  33.559   2.474  13.964
15040W        W80300  15.665  13.413  10.724
15041W        W80301  41.549  38.610  10.626
15042W        W80302   0.731  13.057   2.747
15043W        W80303   8.252   2.293   3.221
15044W        W80304   5.774  11.922   1.797
15045W        W80305  41.582   5.392  11.496
15046W        W80306   4.059  43.917   1.435
15047W        W80307   0.366  32.134   0.485
15048W        W80308  28.443  27.662  14.567
15049W        W80309  10.889  15.636  10.740
15050W        W80310  34.834   7.269  14.615
15051W        W80311  23.397   2.213   2.911
15052W        W80312  37.053  24.080  12.152
15053W        W80313  15.292  38.457   0.330
15054W        W80314  41.839   4.354  14.859
15055W        W80315   2.337  27.781   1.321
15056W        W80316   2.540  28.610  14.973
15057W        W80317   2.787   0.019  12.794
15058W        W80318  32.163   6.429  13.454
15059W        W80319  27.968   9.853   1.239
15060W        W80320  10.435  15.048   1.438
15061W        W80321  12.680  40.094   0.894
15062W        W80322  15.188  14.067  12.330
15063W        W80323  11.930  22.296  12.947
15064W        W80324  36.063  40.466   1.384
15065W        W80325  27.513  17.737  13.864
15066W        W80326   1.334  14.572   3.350
15067W        W80327  36.883   0.627  14.395
15068W        W80328  31.484  18.278   0.035
15069W        W80329  29.237  20.545   4.329
15070W        W80330  24.185  43.371   3.669
15071W        W80331   0.705  13.451   1.457
15072W        W80332  14.726  35.576   1.511
15073W        W80333  37.819  12.804   0.693
15074W        W80334  15.339  29.977   2.476
15075W        W80335   4.962  27.480  12.528
15076W        W80336  38.190  15.553   2.190
15077W        W80337  15.160  19.473   9.748
15078W        W80338   0.571  24.092  14.618
15079W        W80339   9.927  19.445   4.069
15080W        W80340  43.205  13.337  11.278
15081W        W80341  38.845  20.745  12.213
15082W        W80342  40.545  40.880   3.137
15083W        W80343  15.521  31.960   0.517
15084W        W80344  38.199  34.537  13.422
15085W        W80345   2.105  39.062   4.167
15086W        W80346  20.633  41.410  14.734
15087W        W80347  29.610  40.226   2.163
15088W        W80348  34.430  39.881   4.497
15089W        W80349  39.926  30.212  14.903
15090W        W80350   1.989   6.107  11.056
15091W        W80351   8.370  13.845  11.252
15092W        W80352   1.674  12.683   1.760
15093W        W80353  43.496  15.121  11.500
15094W        W80354  32.404  37.040   4.216
15095W        W80355  21.233  15.243   4.507
15096W        W80356  35.844  28.005  10.691
15097W        W80357   1.684  41.391  13.833
15098W        W80358  15.665  29.983   3.491
15099W        W80359  36.571  25.648   2.343
15100W        W80360  23.227  39.544  13.516
15101W        W80361   8.753   1.245  11.660
15102W        W80362  39.962  22.467  11.181
15103W        W80363  30.644  18.082  12.527
15104W        W80364   3.411  23.026   2.079
15105W        W80365  15.766  41.324   0.381
15106W        W80366  13.638  41.541   4.484
15107W        W80367  41.245  37.376  11.840
15108W        W80368  20.045   4.176  11.433
15109W        W80369   3.802   3.304  12.857
15110W        W80370  38.274  26.670  14.544
15111W        W80371  25.635  35.057  10.703
15112W        W80372  43.090  13.713  12.505
15113W        W80373  11.971  26.191   0.291
15114W        W80374  22.084   1.408  10.822
15115W        W80375  40.340  27.591   3.754
15116W        W80376   0.505  38.575  12.955
15117W        W80377  39.161  33.999  11.184
15118W        W80378   4.717  28.741  12.889
15119W        W80379   8.712  22.259  14.790
15120W        W80380  40.067  13.577   2.359
15121W        W80381  38.493  40.370  14.378
15122W        W80382  17.622   8.281   4.291
15123W        W80383  35.436  35.847   3.718
15124W        W80384  28.320  14.924  11.670
15125W        W80385  38.145  33.185  11.066
15126W        W80386  15.307   5.462  13.984
15127W        W80387  43.345   3.313   1.725
15128W        W80388   0.255  40.327   2.724
15129W        W80389  37.761  44.723  13.859
15130W        W80390   7.938  40.340  11.336
15131W        W80391  28.461   6.509  10.817
15132W        W80392   8.342  15.127   3.650
15133W        W80393  36.122  31.028  11.576
15134W        W80394  42.590   1.826   4.231
15135W        W80395   5.835  13.468   0.758
15136W        W80396  15.200   8.554  12.996
15137W        W80397  18.322  23.335  12.454
15138W        W80398  29.599   7.584   1.478
15139W        W80399  40.646  38.196  14.271
15140W        W80400  24.986  31.719  13.717
15141W        W80401  27.877  41.586  13.039
15142W        W80402  10.362  39.520  13.061
15143W        W80403  11.507  30.797   4.138
15144W        W80404  32.195  34.445  10.814
15145W        W80405  34.975  37.778   3.039
15146W        W80406  41.886  24.380  10.664
15147W        W80407  44.655  14.843   1.362
15148W        W80408  37.165  40.584  10.632
15149W        W80409   4.789   0.084  11.497
15150W        W80410  34.677  24.060   2.681
15151W        W80411  40.815   1.756  14.440
15152W        W80412  12.432   7.431   2.815
15153W        W80413  35.055   1.822  14.301
15154W        W80414  40.017  22.497   4.837
15155W        W80415  35.505  28.182  12.577
15156W        W80416  36.472  22.145   1.306
15157W        W80417  28.972   4.634   0.301
15158W        W80418  42.940  30.728  12.495
15159W        W80419  28.370  26.308   2.669
15160W        W80420  41.934   1.000  13.650
15161W        W80421  37.038   2.742  12.751
15162W        W80422   2.414   3.415  11.002
15163W        W80423  15.797  41.206  10.995
15164W        W80424   3.888  31.372  12.052
15165W        W80425  32.264  44.473  10.629
15166W        W80426  30.565  34.971   2.330
15167W        W80427  10.070  31.604  10.743
15168W        W80428   7.337  27.392  12.978
15169W        W80429   9.928  41.547  14.523
15170W        W80430  22.903  37.320  13.009
15171W        W80431   4.338  30.225   2.676
15172W        W80432  25.107  26.669   3.471
15173W        W80433  41.480  23.739   1.658
15174W        W80434  28.488   1.090   3.285
15175W        W80435  37.796  29.085   0.489
15176W        W80436  10.854  37.990  13.777
15177W        W80437  28.327  33.005   0.757
15178W        W80438  31.662  30.441   0.328
15179W        W80439  42.844  35.006   4.552
15180W        W80440  36.984  38.632   2.297
15181W        W80441  20.156  22.005  10.746
15182W        W80442  27.707  35.829   1.935
15183W        W80443  26.743  20.412  11.651
15184W        W80444  38.322  24.145  13.457
15185W        W80445   9.239  19.978  12.032
15186W        W80446  41.859  13.236  10.498
15187W        W80447  24.432  26.102   0.694
15188W        W80448  35.117  22.442   1.855
15189W        W80449  26.318   9.860   2.227
15190W        W80450  36.527  28.556  14.145
15191W        W80451  28.362   3.140  14.348
15192W        W80452   5.133  25.712   2.319
15193W        W80453  40.944  16.189   4.146
15194W        W80454  15.714  30.969   3.126
15195W        W80455  28.924  16.747  12.464
15196W        W80456   6.444  38.942   3.920
15197W        W80457  32.061  42.210  13.406
15198W        W80458  15.428  32.307   0.894
15199W        W80459  27.770  26.102   0.001
15200W        W80460  30.986  33.960   4.919
15201W        W80461  25.507  43.379   1.186
15202W        W80462  12.493  20.520  14.944
15203W        W80463  38.305   1.540   0.258
15204W        W80464   0.466  33.969   2.189
15205W        W80465  16.779  29.734  11.019
15206W        W80466  27.492  23.540   1.320
15207W        W80467  35.841  13.162   2.903
15208W        W80468   6.686  25.151  10.758
15209W        W80469  12.595  31.478   3.668
15210W        W80470   8.030   2.814  11.412
15211W        W80471  10.269  32.876   3.640
15212W        W80472  30.275  14.590  14.914
15213W        W80473  32.450   8.695  13.406
15214W        W80474   0.646   6.421  14.431
15215W        W80475  30.186  41.826   3.672
15216W        W80476  11.591  44.846   1.690
15217W        W80477   9.399  20.088  11.524
15218W        W80478  11.899  42.237  12.040
15219W        W80479  18.717   1.858  10.077
15220W        W80480  23.762  43.289   2.797
15221W        W80481  23.025  31.834  11.041
15222W        W80482  30.838  13.372  10.707
15223W        W80483  40.530   2.833  13.028
15224W        W80484  41.661  36.472  12.013
15225W        W80485  16.182  18.555  13.757
15226W        W80486  23.554  43.344  12.097
15227W        W80487  40.571  29.116  13.575
15228W        W80488  14.228  36.520  12.021
15229W        W80489  14.832  14.777   1.930
15230W        W80490   4.631  32.476   1.810
15231W        W80491   4.485  23.707   3.658
15232W        W80492   7.942   4.933   4.476
15233W        W80493  35.595  37.764   4.828
15234W        W80494  32.459   3.480  12.843
15235W        W80495  15.029  21.438   3.587
15236W        W80496  32.761  33.035   1.842
15237W        W80497   2.211  31.233   0.894
15238W        W80498  24.537  19.647  12.056
15239W        W80499  15.357  41.470  10.112
15240W        W80500  21.423  30.943   1.808
15241W        W80501  17.751  16.205   4.362
15242W        W80502  14.118  25.711   1.966
15243W        W80503  11.376   2.171  13.581
15244W        W80504   2.207   8.133   2.103
15245W        W80505  38.574  35.904   2.310
15246W        W80506  17.985  36.934  13.195
15247W        W80507  27.621  25.388   4.604
15248W        W80508  20.272  17.494   1.653
15249W        W80509  28.002  25.333  12.476
15250W        W80510  43.390  43.008  14.085
15251W        W80511  25.564   2.179   3.663
15252W        W80512  13.288  21.271   4.073
15253W        W80513  19.740  16.418   1.005
15254W        W80514   0.417  26.917   1.926
15255W        W80515  30.531  44.942  14.855
15256W        W80516  15.681   3.354   3.386
15257W        W80517  40.561  21.585   4.775
15258W        W80518  14.414   4.865   0.353
15259W        W80519   0.780  23.526  11.684
15260W        W80520  11.480  38.558   0.907
15261W        W80521  34.575   8.861  12.673
15262W        W80522  20.752  34.591   0.890
15263W        W80523  21.550  37.513  13.698
15264W        W80524  40.490  41.272   3.484
15265W        W80525  32.399  38.160  13.974
15266W        W80526  20.329  36.558  14.884
15267W        W80527  36.770  39.453  11.605
15268W        W80528  30.520  28.905   2.847
15269W        W80529  20.384  36.333   1.337
15270W        W80530  18.818  13.687  11.199
15271W        W80531  16.062   0.056   3.872
15272W        W80532   7.476  13.871  11.124
15273W        W80533  10.850  40.259   3.098
15274W        W80534  30.977  18.998  11.993
15275W        W80535  37.961  37.101   1.182
15276W        W80536  39.724   5.213  10.683
15277W        W80537  38.591  39.458  13.875
15278W        W80538  32.860  31.746  11.934
15279W        W80539  10.715  30.046  10.135
15280W        W80540  17.772  16.123  10.931
15281W        W80541  28.843  36.998   4.171
15282W        W80542  26.631  43.661  10.549
15283W        W80543   5.354  28.575   2.709
15284W        W80544  25.390   2.378   0.232
15285W        W80545   2.464  15.250  11.388
15286W        W80546  21.494  28.261   3.567
15287W        W80547  42.722  17.970   2.198
15288W        W80548   1.757   6.731   4.403
15289W        W80549  31.663  38.274   1.276
15290W        W80550  32.560  10.214   2.802
15291W        W80551   7.670   2.293  14.349
15292W        W80552   8.806  17.529  11.847
15293W        W80553  34.191  40.022  13.035
15294W        W80554  23.923  41.866   0.401
15295W        W80555   9.726  30.069  12.678
15296W        W80556  11.582  36.777   4.041
15297W        W80557  17.644  44.400  12.676
15298W        W80558  43.038   1.454   4.186
15299W        W80559  23.615   5.848  14.054
15300W        W80560   2.298  23.247   3.670
15301W        W80561  10.089  33.850  10.616
15302W        W80562  12.123   8.243  14.246
15303W        W80563  14.689   4.108   2.651
15304W        W80564   0.260  11.700  14.124
15305W        W80565   2.958  27.273   1.233
15306W        W80566  33.395  33.535  12.925
15307W        W80567   3.453  34.259  10.115
15308W        W80568  32.955  31.554   0.937
15309W        W80569   0.231  14.258  11.492
15310W        W80570   2.121  42.030  11.046
15311W        W80571  41.128   9.815   0.955
15312W        W80572  36.135  11.092   1.718
15313W        W80573  36.793  30.404   1.653
15314W        W80574   6.763  10.056  14.777
15315W        W80575  42.831  26.944   3.424
15316W        W80576  21.138  34.215  12.750
15317W        W80577  36.967  22.108  13.238
15318W        W80578  17.805  37.540  11.935
15319W        W80579  11.239  14.212  11.058
15320W        W80580  31.917  34.550   2.862
15321W        W80581   7.210  35.629   2.620
15322W        W80582   7.885  36.087  10.768
15323W        W80583  15.671  44.794  14.878
15324W        W80584  27.737  38.319  11.632
15325W        W80585  11.795   4.432   4.313
15326W        W80586  19.736  29.457  14.432
15327W        W80587  42.116  40.546  13.088
15328W        W80588   2.300  35.446   2.733
15329W        W80589  32.437  34.986  10.724
15330W        W80590   5.851  24.971  13.654
15331W        W80591  10.759  23.032  14.464
15332W        W80592   8.059  16.256  14.424
15333W        W80593  27.869  21.300  10.852
15334W        W80594  17.241  18.708  12.912
15335W        W80595  26.020   5.936  11.904
15336W        W80596  22.169  21.278  11.137
15337W        W80597   9.212  20.708   2.420
15338W        W80598  20.615  39.061  10.603
15339W        W80599  22.558  24.937  12.408
15340W        W80600  29.671  20.714   3.511
15341W        W80601   2.223  23.959  11.662
15342W        W80602   1.628   0.719   2.650
15343W        W80603  14.395  33.360   2.379
15344W        W80604  11.274  24.685  12.162
15345W        W80605   0.363  16.297   3.306
15346W        W80606  44.411  33.578  10.143
15347W        W80607   8.975  17.768  11.406
15348W        W80608   3.967   9.674   2.696
15349W        W80609  35.175  11.354  12.025
15350W        W80610  41.497   9.356  11.278
15351W        W80611  28.101   8.213  10.955
15352W        W80612  20.104  40.759   3.697
15353W        W80613  30.440  41.143  14.914
15354W        W80614  28.630  21.507  12.251
15355W        W80615  14.134  35.858   0.979
15356W        W80616  41.264   3.530   4.915
15357W        W80617  31.074   2.344   0.512
15358W        W80618  32.426   1.200   2.236
15359W        W80619   0.785  38.967   2.253
15360W        W80620  11.603  17.583  14.478
15361W        W80621  20.538  37.772  12.181
15362W        W80622  11.294  25.481  13.381
15363W        W80623   2.899  12.668   5.324
15364W        W80624  25.354  43.289  14.407
15365W        W80625  21.050  16.814  13.351
15366W        W80626  25.649   6.401   1.907
15367W        W80627  12.040  44.347  14.375
15368W        W80628  32.545   5.792   0.227
15369W        W80629  16.123  28.549  10.860
15370W        W80630   3.390  29.321  13.498
15371W        W80631  10.600  21.835   0.898
15372W        W80632   9.827  13.394  11.936
15373W        W80633  12.139  27.100  11.996
15374W        W80634  28.688   7.871  12.087
15375W        W80635  34.497  19.271  13.964
15376W        W80636  38.045  33.001   0.791
15377W        W80637  10.758   9.379  11.512
15378W        W80638  39.208  12.160  12.553
15379W        W80639  39.271  28.777  13.378
15380W        W80640  24.221  10.818   2.492
15381W        W80641  15.589  15.677  13.911
15382W        W80642   0.730  15.772  11.502
15383W        W80643  30.487   7.303   3.808
15384W        W80644  43.211  44.934  13.080
15385W        W80645   7.646  26.390   3.199
15386W        W80646   4.315  12.570  13.984
15387W        W80647  25.065   7.294  11.130
15388W        W80648  30.012  17.584  11.523
15389W        W80649  21.033  27.508   4.281
15390W        W80650  37.103  30.056   4.287
15391W        W80651  11.320  42.059   4.191
15392W        W80652  38.922  43.106   5.012
15393W        W80653  40.949  44.535  12.846
15394W        W80654  35.368  11.024  13.210
15395W        W80655  10.092  19.778   3.665
15396W        W80656  21.712  14.636   2.473
15397W        W80657  15.653  14.372   2.673
15398W        W80658  24.677  23.680  11.625
15399W        W80659  22.543  35.540  13.466
15400W        W80660  37.956  29.760  13.182
15401W        W80661  23.191  35.025   4.509
15402W        W80662   1.512   8.197  12.004
15403W        W80663  16.539  43.154  11.106
15404W        W80664  20.590  38.715  11.896
15405W        W80665   5.144   5.160  14.557
15406W        W80666  30.735  12.873  10.865
15407W        W80667  25.518  22.075   2.325
15408W        W80668   2.749  18.859   1.047
15409W        W80669  10.726  34.505  12.118
15410W        W80670  37.277  37.021  10.848
15411W        W80671  29.857  27.224   3.603
15412W        W80672  32.029  26.005  12.377
15413W        W80673  18.896  37.532   3.599
15414W        W80674  11.061  22.556   1.373
15415W        W80675  12.188   9.411   1.346
15416W        W80676  19.655   8.388  11.181
15417W        W80677   4.547  36.041  11.681
15418W        W80678   7.800  19.965   2.396
15419W        W80679  37.459  40.004  11.578
15420W        W80680  25.335  20.126   0.721
15421W        W80681  20.991  11.192  14.371
15422W        W80682  17.765  14.287   5.211
15423W        W80683   5.190  33.890  12.478
15424W        W80684  44.415  18.059  10.727
15425W        W80685  15.371   5.372   4.734
15426W        W80686  43.659  26.050  14.066
15427W        W80687  14.850  36.522   0.657
15428W        W80688  11.723  24.651  14.366
15429W        W80689  10.291  40.606   4.536
15430W        W80690  28.214  33.058  13.508
15431W        W80691  17.808  40.279   3.116
15432W        W80692   3.095  28.610  14.854
15433W        W80693  27.187  10.215   4.624
15434W        W80694   4.422   3.036   1.745
15435W        W80695  25.149  23.112  10.981
15436W        W80696  39.302  40.715  14.530
15437W        W80697  21.279  14.684   2.767
15438W        W80698  12.429   1.906   3.108
15439W        W80699   9.959  28.919  12.109
15440W        W80700   0.704   8.745  12.394
15441W        W80701  15.586  22.792  10.336
15442W        W80702  39.535  44.522  11.103
15443W        W80703  26.495  18.690   3.435
15444W        W80704  44.262  38.937   0.295
15445W        W80705  42.494   8.795   4.599
15446W        W80706  43.573  39.337   1.680
15447W        W80707  23.713   0.786  11.565
15448W        W80708  31.956  20.171  14.216
15449W        W80709  28.188  29.491  13.056
15450W        W80710  19.633  41.422  11.922
15451W        W80711   5.798  38.541   3.446
15452W        W80712  24.254  22.595   4.137
15453W        W80713   9.440  22.034  11.643
15454W        W80714  17.228  32.538  14.284
15455W        W80715  10.598  25.521  10.820
15456W        W80716  14.996  43.572   2.672
15457W        W80717  32.074  24.771  14.263
15458W        W80718   0.144  27.038  11.100
15459W        W80719   7.560  11.813   2.189
15460W        W80720   3.151   5.709   2.692
15461W        W80721  21.169  16.779  10.628
15462W        W80722  14.847  27.446   4.216
15463W        W80723   5.948  39.101   1.815
15464W        W80724  24.293  32.366   4.081
15465W        W80725  40.686  41.387   1.445
15466W        W80726  26.717  20.628   1.370
15467W        W80727  33.822  20.835   3.981
15468W        W80728   9.323  22.764   0.449
15469W        W80729  36.893  31.474   0.946
15470W        W80730  32.115   2.746  12.838
15471W        W80731  18.092  43.888   1.264
15472W        W80732  26.238  37.551   4.454
15473W        W80733   4.900  40.465   2.194
15474W        W80734   2.168  40.829   1.469
15475W        W80735  16.457  44.749   4.084
15476W        W80736  14.913  25.324   1.173
15477W        W80737  23.289  31.587  14.560
15478W        W80738   4.662  27.094  13.382
15479W        W80739   1.686  37.073  13.922
15480W        W80740  27.142   3.543  13.454
15481W        W80741  14.188  43.036  10.300
15482W        W80742  41.371   3.282   3.255
15483W        W80743   1.785   9.873  14.387
15484W        W80744   1.403  28.039  14.840
15485W        W80745  27.560  15.099  10.760
15486W        W80746  14.210  17.023   1.553
15487W        W80747  26.566  40.458  14.538
15488W        W80748   1.217  19.233  11.972
15489W        W80749  37.390   2.240   4.956
15490W        W80750   4.866   2.787   1.731
15491W        W80751  28.985  26.652  14.831
15492W        W80752  42.033  32.373   4.211
15493W        W80753  37.830  43.854  11.528
15494W        W80754  41.311  16.418   2.414
15495W        W80755  31.329  31.735  13.971
15496W        W80756  11.100   0.269   0.416
15497W        W80757  32.165  28.096   4.297
15498W        W80758  11.824   5.947   1.889
15499W        W80759  23.481  18.195   0.187
15500W        W80760  26.704  25.603   3.702
15501W        W80761  19.629  39.450   0.835
15502W        W80762  23.261  30.336  14.312
15503W        W80763  27.733  25.760  12.989
15504W        W80764  29.421  10.987  11.190
15505W        W80765  20.032  21.802  12.179
15506W        W80766   8.446   4.319  12.953
15507W        W80767   9.388  15.116  11.959
15508W        W80768  33.153  13.114  13.885
15509W        W80769  32.027  35.945   3.217
15510W        W80770  31.674  38.505   4.200
15511W        W80771  29.573  12.335  12.944
15512W        W80772   4.227  34.459  11.055
15513W        W80773   1.719   2.014   1.909
15514W        W80774  40.029  27.926  14.425
15515W        W80775   0.317  15.829   2.145
15516W        W80776  18.012  38.784   3.154
15517W        W80777   2.723  22.130   3.329
15518W        W80778  37.892  28.911  12.493
15519W        W80779   6.709  27.101  10.620
15520W        W80780   3.284  32.834   0.847
15521W        W80781  24.313  19.675  13.795
15522W        W80782  38.304   5.931  10.800
15523W        W80783   8.500   1.544  13.967
15524W        W80784  21.663   5.739  12.072
15525W        W80785   2.773  24.253  12.352
15526W        W80786  28.868   8.213  11.697
15527W        W80787  39.103  26.414   5.027
15528W        W80788  13.995  29.078  11.234
15529W        W80789  23.008  43.260  11.218
15530W        W80790  27.938   5.383  10.714
15531W        W80791  39.111  28.933  14.332
15532W        W80792  15.545   0.633  11.077
15533W        W80793  30.600  43.075   2.816
15534W        W80794  39.357   8.261   0.468
15535W        W80795  16.721  34.025  12.658
15536W        W80796  25.036  22.176  10.611
15537W        W80797  44.759  28.941   1.354
15538W        W80798  19.898  28.890   5.108
15539W        W80799  40.077   1.886  12.491
15540W        W80800  18.839  29.904   4.059
15541W        W80801  28.621   2.952  13.949
15542W        W80802  18.980   6.895  11.858
15543W        W80803  44.146  42.578   3.064
15544W        W80804   4.413  23.120   4.151
15545W        W80805  32.921  19.743  11.538
15546W        W80806   6.386  24.084  11.477
15547W        W80807  11.126  12.772  11.257
15548W        W80808   4.983   8.477   1.425
15549W        W80809  42.879  38.373   1.250
15550W        W80810  43.576   9.619   1.596
15551W        W80811  33.532  30.965   4.525
15552W        W80812  31.342  39.468  13.188
15553W        W80813  24.236   9.750   3.148
15554W        W80814  34.096  41.995   1.475
15555W        W80815  15.629   8.436  13.386
15556W        W80816  29.888  13.766   4.576
15557W        W80817  17.223  15.839   3.204
15558W        W80818   4.285  22.249  14.843
15559W        W80819  25.030  26.532  12.674
15560W        W80820  10.874  20.261   1.468
15561W        W80821  37.791  26.847  14.450
15562W        W80822  21.203  35.565  14.984
15563W        W80823  41.453  42.100   1.137
15564W        W80824  18.729  36.339  13.644
15565W        W80825  13.612   5.459  14.253
15566W        W80826  24.183   7.961   4.087
15567W        W80827  15.974  19.367  12.125
15568W        W80828  28.902  25.522   0.751
15569W        W80829  34.800   4.446  12.593
15570W        W80830  40.501  43.023   2.532
15571W        W80831   0.505  23.126  14.237
15572W        W80832  20.707   9.719   0.781
15573W        W80833  35.916  14.541  13.498
15574W        W80834  16.197  34.070   3.047
15575W        W80835  29.556  43.246   4.696
15576W        W80836   2.318  16.892  11.989
15577W        W80837  30.097  28.427  10.342
15578W        W80838   3.045  21.776  14.340
15579W        W80839  21.014   5.329   1.570
15580W        W80840  23.027  22.548  12.538
15581W        W80841  25.024  34.944   3.847
15582W        W80842  26.687  34.618   9.781
15583W        W80843   5.255  44.576   0.449
15584W        W80844  28.616  16.229   3.729
15585W        W80845  19.731  44.564   3.664
15586W        W80846  24.762  19.755   4.545
15587W        W80847  38.446  36.311   3.240
15588W        W80848  13.458  38.832   1.637
15589W        W80849  23.487  35.118   0.825
15590W        W80850   7.744  41.393   4.205
15591W        W80851   0.493   7.295   1.839
15592W        W80852   4.721  34.631   1.795
15593W        W80853  17.318   5.390   2.801
15594W        W80854  29.571  22.212  14.754
15595W        W80855  42.477  14.173   1.708
15596W        W80856  18.577  30.021   1.793
15597W        W80857   1.080  42.325  14.450
15598W        W80858  27.138  13.278  13.661
15599W        W80859   2.313  33.336   1.505
15600W        W80860  37.846  27.590   3.245
15601W        W80861   2.386  43.414   1.300
15602W        W80862  22.091  10.309  10.708
15603W        W80863  15.678  16.600   1.885
15604W        W80864  23.261   1.447   4.102
15605W        W80865  14.828  34.024   3.629
15606W        W80866  10.664  31.489  13.170
15607W        W80867  40.557  30.099  13.458
15608W        W80868  12.222  16.742   2.778
15609W        W80869   8.302  22.454  13.267
15610W        W80870  40.762  20.458   3.687
15611W        W80871  18.270  15.518   3.832
15612W        W80872  41.604  39.934  13.513
15613W        W80873  33.456   4.468   2.708
15614W        W80874  28.146  32.410   5.114
15615W        W80875   4.096   6.382  11.562
15616W        W80876   8.304  33.962  14.964
15617W        W80877  25.111  14.027  13.085
15618W        W80878  14.664  11.431  10.535
15619W        W80879   4.348  40.520  12.869
15620W        W80880  17.560  27.947   0.476
15621W        W80881   0.620  44.859  10.842
15622W        W80882   8.691  37.939  11.532
15623W        W80883  35.606  16.803   3.636
15624W        W80884  42.218  11.246   0.408
15625W        W80885  18.224  16.276  10.739
15626W        W80886  10.991   9.719  12.433
15627W        W80887  36.697   3.729   4.817
15628W        W80888  24.080  30.616  11.425
15629W        W80889  42.294  18.026  11.128
15630W        W80890  36.998  15.739  13.971
15631W        W80891  41.392  42.280   4.724
15632W        W80892  33.898  20.685   4.477
15633W        W80893  42.820  24.435   3.674
15634W        W80894  32.939  22.655  11.462
15635W        W80895  32.908  23.838  11.953
15636W        W80896  44.417   8.830   3.362
15637W        W80897  43.795  36.468   0.803
15638W        W80898  12.814  10.885  14.852
15639W        W80899  34.531  22.148   2.897
15640W        W80900  14.684   2.983   4.839
15641W        W80901  23.718  32.017   2.261
15642W        W80902  23.087  10.186  13.133
15643W        W80903  38.096  33.924  12.063
15644W        W80904  14.842  25.394   2.590
15645W        W80905   7.423  42.514   0.294
15646W        W80906  15.080  17.340  11.901
15647W        W80907  35.708  40.948   3.684
15648W        W80908   8.028  31.100  12.684
15649W        W80909  30.412  34.130   2.789
15650W        W80910  16.108  39.067   4.224
15651W        W80911  41.057   4.448   4.985
15652W        W80912  20.980   8.217  10.663
15653W        W80913  39.389  22.182  13.330
15654W        W80914  42.379  29.235  13.425
15655W        W80915  29.715  25.253   2.199
15656W        W80916  14.589   7.211   2.233
15657W        W80917  25.178  21.650   3.193
15658W        W80918  18.439  19.214   2.165
15659W        W80919  32.637  15.716  13.534
15660W        W80920  44.020  33.145  13.879
15661W        W80921  34.624  41.230  13.467
15662W        W80922  20.243  29.802   1.873
15663W        W80923  23.970   7.146   2.602
15664W        W80924  26.969  26.068  14.112
15665W        W80925  43.613  13.736   2.402
15666W        W80926  36.037  25.529   4.104
15667W        W80927  23.905  40.217   4.981
15668W        W80928  29.731  29.942  13.074
15669W        W80929  22.280  14.293   3.674
15670W        W80930  44.036   2.044   2.160
15671W        W80931  44.829  23.554   0.654
15672W        W80932  43.775  14.392  10.215
15673W        W80933   1.026  30.761  12.492
15674W        W80934  35.477  35.458   4.679
15675W        W80935  23.814  28.118   4.573
15676W        W80936  33.863  38.994  14.465
15677W        W80937   7.304  43.410   4.365
15678W        W80938  27.647  15.993  13.016
15679W        W80939  12.942  30.115  13.838
15680W        W80940  40.333  37.806   0.652
15681W        W80941  12.756  35.341   1.269
15682W        W80942  29.986  21.116  11.833
15683W        W80943   9.311  34.056  12.895
15684W        W80944  28.196  42.053  14.355
15685W        W80945  16.551  22.946   2.796
15686W        W80946   2.826  29.370  13.049
15687W        W80947  37.035  12.567   2.157
15688W        W80948  38.881  32.209   0.498
15689W        W80949  34.933   3.839  10.532
15690W        W80950  37.877  38.615  14.487
15691W        W80951  28.488  36.194  11.869
15692W        W80952  30.196  24.112   3.288
15693W        W80953  23.267   4.909   2.049
15694W        W80954  12.439  10.206   3.881
15695W        W80955  42.283  13.158   4.187
15696W        W80956  38.263  15.841  13.540
15697W        W80957  37.984   0.276   0.973
15698W        W80958   6.920  15.519   1.191
15699W        W80959  35.606  13.139  11.286
15700W        W80960  17.271   1.897   3.599
15701W        W80961  18.192  31.147  11.729
15702W        W80962  12.774  26.415   1.261
15703W        W80963  24.393   2.105   4.587
15704W        W80964  31.881  33.063  12.533
15705W        W80965  39.803   6.426  11.102
15706W        W80966  17.626  11.342   0.809
15707W        W80967  10.820   4.969   2.524
15708W        W80968  25.286  10.885  11.856
15709W        W80969  30.435  38.929   0.840
15710W        W80970  15.620  17.480  14.391
15711W        W80971  31.986  11.505   5.052
15712W        W80972  26.330  20.371  12.041
15713W        W80973  37.361   1.873   4.089
15714W        W80974  23.612  12.686  13.400
15715W        W80975  32.601  29.942  10.477
15716W        W80976  43.568   1.670  13.388
15717W        W80977  26.880  14.947  11.532
15718W        W80978  30.087  43.497   1.746
15719W        W80979  22.090  28.436  14.321
15720W        W80980  43.530   1.701   4.097
15721W        W80981  15.862   6.208  14.970
15722W        W80982  34.184  24.546   4.909
15723W        W80983  36.427  43.317   1.778
15724W        W80984  34.673  38.610   0.823
15725W        W80985  42.541   9.491   0.669
15726W        W80986  23.181  31.751  13.403
15727W        W80987  26.605  28.148  10.742
15728W        W80988   4.905  19.659   0.951
15729W        W80989  20.163   8.805   0.619
15730W        W80990  14.336  38.346   3.051
15731W        W80991  17.021  15.048  10.724
15732W        W80992  12.196  44.540   1.874
15733W        W80993   1.488  21.041  10.176
15734W        W80994  30.889   0.691  11.116
15735W        W80995  42.561  44.806   1.925
15736W        W80996  44.395  41.545  14.331
15737W        W80997  29.008  31.004  10.580
15738W        W80998  40.310  25.658   3.354
15739W        W80999   0.344  18.029   4.091
15740W        W81000  27.469   4.250  12.315
15741W        W81001  34.412  20.205  13.553
15742W        W81002  21.459  10.875   3.907
15743W        W81003  32.073   2.361   0.648
15744W        W81004  27.235  25.662   1.282
15745W        W81005  43.838  38.544   2.856
15746W        W81006  35.161  15.703   1.371
15747W        W81007  30.034  10.311   2.412
15748W        W81008  11.449  20.210  14.477
15749W        W81009  31.697   4.764  12.933
15750W        W81010  33.439  29.479   1.658
15751W        W81011  29.591  17.926   3.763
15752W        W81012  36.072   0.736  14.986
15753W        W81013  13.116  40.874  14.538
15754W        W81014  32.055   9.707   2.208
15755W        W81015   3.399  19.073  14.530
15756W        W81016  37.551  15.048  13.451
15757W        W81017   8.371  21.223  13.368
15758W        W81018   8.764   6.401   2.264
15759W        W81019   9.910   4.158   3.902
15760W        W81020  40.991  14.307  13.389
15761W        W81021  18.696  31.755   1.361
15762W        W81022  43.750  18.443   1.390
15763W        W81023   0.430  28.417   0.906
15764W        W81024  13.599  29.874  11.537
15765W        W81025  17.738  36.353   3.820
15766W        W81026  42.023  28.818  13.498
15767W        W81027  35.570  14.184  13.353
15768W        W81028  36.488  29.484  13.542
15769W        W81029  32.390  36.955  12.542
15770W        W81030  23.132  36.674  11.222
15771W        W81031  29.448  33.509   3.033
15772W        W81032   6.409  23.228  11.420
15773W        W81033  27.543   1.496  11.616
15774W        W81034  34.863   4.725  14.345
15775W        W81035  43.871  43.244  14.070
15776W        W81036   0.324  24.024  12.299
15777W        W81037  20.710  30.233   2.829
15778W        W81038  38.348   1.148   1.061
15779W        W81039  27.430  31.490  13.057
15780W        W81040  15.438   1.509  14.938
15781W        W81041  22.281  28.555  13.490
15782W        W81042  38.437  19.640   1.776
15783W        W81043   1.258  17.781  11.439
15784W        W81044  39.469  30.538  14.828
15785W        W81045  30.665  30.130  10.455
15786W        W81046  12.257  22.898  14.410
15787W        W81047  15.860  31.149   2.686
15788W        W81048   6.171  22.138   3.347
15789W        W81049  30.898  11.667   2.770
15790W        W81050   1.433  41.471   0.491
15791W        W81051  41.039  11.563   2.317
15792W        W81052  42.000  42.728  14.957
15793W        W81053  16.508  25.062   2.246
15794W        W81054  44.651  36.198  12.076
15795W        W81055  11.095  27.695   1.814
15796W        W81056   1.394  40.584   3.693
15797W        W81057  16.653  41.509   2.868
15798W        W81058   7.941  11.641   1.256
15799W        W81059   9.828  12.380  10.997
15800W        W81060  43.489  38.799   1.799
15801W        W81061  38.114  26.518   4.735
15802W        W81062  33.855  43.999   0.048
15803W        W81063   6.798   9.870   4.036
15804W        W81064  31.530  20.893  12.019
15805W        W81065   4.664  32.399  12.614
15806W        W81066  25.515  26.493  10.904
15807W        W81067   3.733  34.682  10.253
15808W        W81068  29.020  14.376   3.538
15809W        W81069  32.666  28.466  13.413
15810W        W81070  22.186  15.615  13.300
15811W        W81071  16.980   2.881   4.922
15812W        W81072  34.689   2.883  10.988
15813W        W81073   6.699  27.103   4.495
15814W        W81074  39.507  12.350  12.189
15815W        W81075  34.317  18.612   2.775
15816W        W81076  39.558  41.344  12.746
15817W        W81077   9.699  43.268   4.493
15818W        W81078   9.649  21.572   3.157
15819W        W81079  43.896  34.339  11.065
15820W        W81080  15.066  35.168   0.113
15821W        W81081  17.427  35.504  12.324
15822W        W81082  28.961  41.300  12.109
15823W        W81083  28.934  41.875  11.072
15824W        W81084  44.100  14.618   2.207
15825W        W81085  12.416  28.566   4.683
15826W        W81086  13.708  41.320  13.832
15827W        W81087   6.688  21.986   3.662
15828W        W81088  20.341  17.010  14.140
15829W        W81089  38.133   6.788  11.974
15830W        W81090  24.610  41.768  11.299
15831W        W81091   1.180  41.200   2.295
15832W        W81092  22.555  27.173   3.329
15833W        W81093  35.946  41.435  12.348
15834W        W81094  25.233  29.373   0.059
15835W        W81095  32.655  18.212  13.434
15836W        W81096  15.167  26.325  10.533
15837W        W81097  32.645  19.490   2.963
15838W        W81098   9.443  41.223  11.479
15839W        W81099  33.687  14.825   0.460
15840W        W81100   8.188   9.101  11.917
15841W        W81101  14.610  43.313   2.879
15842W        W81102   4.915  43.736  13.917
15843W        W81103  40.424  39.430  13.434
15844W        W81104   2.109  36.662  14.591
15845W        W81105   0.866  25.592  11.820
15846W        W81106  36.965  16.180   4.502
15847W        W81107  18.318  20.728   1.704
15848W        W81108  35.003  26.234   4.593
15849W        W81109   6.023  19.038   2.720
15850W        W81110  44.075  31.086  14.459
15851W        W81111  13.648  44.914   4.922
15852W        W81112   2.705  15.610   1.578
15853W        W81113  24.699  42.987   2.138
15854W        W81114  15.807  29.619  14.757
15855W        W81115  39.378  39.926  14.485
15856W        W81116  18.760   5.779   4.144
15857W        W81117  24.758  28.759  13.430
15858W        W81118  14.661  44.923  10.890
15859W        W81119   8.408  15.693   0.003
15860W        W81120  11.214  23.483   1.304
15861W        W81121  22.235  27.469   1.050
15862W        W81122  30.612  23.163  13.373
15863W        W81123  17.797  17.472  14.378
15864W        W81124   7.393  25.430  12.931
15865W        W81125  29.145  22.465  12.552
15866W        W81126  39.584  31.040   2.368
15867W        W81127  25.466  33.548  11.110
15868W        W81128  42.318  31.712  14.437
15869W        W81129  28.404  43.931  13.339
15870W        W81130  39.166  23.405   0.425
15871W        W81131  23.237   2.201   3.834
15872W        W81132  30.630  31.899  13.585
15873W        W81133   5.464  21.757  11.836
15874W        W81134  21.299  39.321  13.498
15875W        W81135  23.334  38.790  14.751
15876W        W81136  23.013   4.839   1.167
15877W        W81137   2.257  10.876   4.167
15878W        W81138   8.715  28.610   0.336
15879W        W81139  21.298  32.676  12.356
15880W        W81140  27.829  21.052   3.729
15881W        W81141  29.816  28.617  10.739
15882W        W81142   1.672  38.818  13.816
15883W        W81143  12.258  25.207   4.703
15884W        W81144  12.247  14.299   2.779
15885W        W81145  27.439  40.278   3.864
15886W        W81146  23.664   7.744   2.872
15887W        W81147   6.308  43.392  13.119
15888W        W81148  31.630  11.849  14.356
15889W        W81149  21.244  10.922  13.966
15890W        W81150   5.814  10.867  11.498
15891W        W81151  11.066  40.099  13.971
15892W        W81152   4.949  35.903  14.960
15893W        W81153   5.671  39.941   0.751
15894W        W81154  21.665   4.864   1.002
15895W        W81155   6.753  13.668   1.935
15896W        W81156   4.503   2.859   4.503
15897W        W81157  14.544  34.647  14.947
15898W        W81158  23.638  30.435  12.488
15899W        W81159  34.555  35.272   0.539
15900W        W81160   8.634  21.351  14.958
15901W        W81161  21.377  11.940  14.027
15902W        W81162  43.112   6.404  11.610
15903W        W81163   1.605  23.084  10.775
15904W        W81164   1.512   8.243  13.963
15905W        W81165   8.705  14.754   3.370
15906W        W81166  26.609  36.547   2.342
15907W        W81167  16.525  14.294  10.775
15908W        W81168  43.891   3.831  14.422
15909W        W81169  27.136  43.525   0.790
15910W        W81170  23.070  30.797   3.136
15911W        W81171  12.763  22.925   3.424
15912W        W81172  33.313   3.425   2.693
15913W        W81173   4.996  36.551  11.219
15914W        W81174  27.913   1.449  11.259
15915W        W81175  20.696   2.440  10.961
15916W        W81176  37.505   9.362  12.475
15917W        W81177  22.513  23.033   0.742
15918W        W81178  26.017  20.778   4.928
15919W        W81179   3.124  35.942  13.209
15920W        W81180  29.713  21.135  10.050
15921W        W81181   1.373  12.253  12.299
15922W        W81182  14.030  18.795  12.504
15923W        W81183  29.345  42.511   1.281
15924W        W81184  22.442  31.601   4.279
15925W        W81185  35.902  11.858   4.524
15926W        W81186  30.356   7.764   4.013
15927W        W81187  35.620  18.761  11.226
15928W        W81188   4.625  28.773  14.010
15929W        W81189  29.461  40.600   0.839
15930W        W81190  17.802  35.957  13.004
15931W        W81191  37.923  43.407  13.813
15932W        W81192  43.462  38.291   2.036
15933W        W81193  44.735  31.667  13.522
15934W        W81194  44.383  21.678   3.748
15935W        W81195  38.467  30.608   0.095
15936W        W81196  43.231  43.004   1.221
15937W        W81197  24.718  16.028   4.147
15938W        W81198  12.931  39.396  11.520
15939W        W81199   1.583  38.456   3.572
15940W        W81200  36.086  17.807  12.486
15941W        W81201  32.947  44.293  13.543
15942W        W81202  11.070   9.800  11.582
15943W        W81203  39.441  26.591   1.405
15944W        W81204   9.351  27.651  14.096
15945W        W81205  35.813  13.711   1.676
15946W        W81206  38.790  26.135  14.839
15947W        W81207  24.280  44.329   5.116
15948W        W81208  42.365   0.900  14.531
15949W        W81209   2.424  20.649   1.634
15950W        W81210  38.547  30.926   2.194
15951W        W81211   3.483  17.199  11.586
15952W        W81212  37.864  24.056   0.880
15953W        W81213  40.580  14.586   0.566
15954W        W81214   5.482   0.209  11.727
15955W        W81215   3.716  28.548   3.394
15956W        W81216  26.200  24.966  12.562
15957W        W81217  40.023  41.655  13.864
15958W        W81218  43.192   6.863   2.039
15959W        W81219  30.632  38.094   3.724
15960W        W81220  26.207  25.451  10.783
15961W        W81221  28.759  33.937  14.926
15962W        W81222   0.014  10.544  12.922
15963W        W81223  42.104  15.898  13.172
15964W        W81224  12.295   6.726   0.900
15965W        W81225   5.361  30.188   1.216
15966W        W81226  27.894  22.432  14.939
15967W        W81227  11.134   9.399  11.139
15968W        W81228  32.083  12.385  14.828
15969W        W81229  21.258  41.525  11.869
15970W        W81230  25.724  37.889   0.285
15971W        W81231  20.266  21.551  11.799
15972W        W81232  43.539  29.981   2.246
15973W        W81233  31.088  36.610  10.804
15974W        W81234  28.801  20.977   2.861
15975W        W81235   3.911  19.190   2.487
15976W        W81236  37.108  15.321  12.598
15977W        W81237  30.073  14.523   0.920
15978W        W81238  27.264  25.906  14.979
15979W        W81239  12.763  33.551  12.549
15980W        W81240   8.590  16.361  11.733
15981W        W81241  21.562  10.713   1.403
15982W        W81242  37.822   6.932  12.518
15983W        W81243  20.814  36.374  12.637
15984W        W81244  27.975  41.257   0.450
15985W        W81245   4.769  37.619   4.206
15986W        W81246  32.239  20.809   3.277
15987W        W81247  43.817  43.398   4.101
15988W        W81248   8.089  37.913  10.812
15989W        W81249  11.426  14.118   3.168
15990W        W81250  40.677  12.036  13.356
15991W        W81251   9.868  15.012  13.876
15992W        W81252  39.277  14.290   4.578
15993W        W81253  14.305  23.472  13.008
15994W        W81254  23.719  24.828  11.139
15995W        W81255   0.816  26.609  10.346
15996W        W81256  26.719   7.790  13.610
15997W        W81257  10.240  41.274   2.426
15998W        W81258  30.290  36.475  12.123
15999W        W81259   9.044  36.448  13.895
16000W        W81260  16.292   4.813   0.923
16001W        W81261  26.089   2.722   1.444
16002W        W81262  25.992  36.459   4.512
16003W        W81263   4.985  11.779   3.207
16004W        W81264   4.902  31.325  13.510
16005W        W81265  10.723  17.386  11.282
16006W        W81266  30.843  20.932  10.003
16007W        W81267  41.468  27.085  12.515
16008W        W81268   6.909  12.234   3.676
16009W        W81269  42.273  41.515  14.738
16010W        W81270  37.760  34.339  12.005
16011W        W81271  33.825  32.566  13.057
16012W        W81272  18.214  23.133  11.996
16013W        W81273  22.086   0.420  13.649
16014W        W81274  19.327  21.466  14.295
16015W        W81275  15.223   1.961  14.201
16016W        W81276   9.968   9.567   2.979
16017W        W81277  10.739  38.885   4.380
16018W        W81278  28.092  31.979  13.497
16019W        W81279  19.895   5.781  12.035
16020W        W81280  16.078  32.468   2.865
16021W        W81281   0.994   5.746   1.676
16022W        W81282  13.627  22.293  13.969
16023W        W81283   5.986  19.082   5.027
16024W        W81284  30.715  31.140  12.491
16025W        W81285  25.744  34.462   1.284
16026W        W81286  17.314  31.062   3.659
16027W        W81287  42.039  37.598  11.206
16028W        W81288   5.749  19.930  11.971
16029W        W81289   0.739  35.837   1.360
16030W        W81290  44.843  40.090  12.408
16031W        W81291  32.827  33.876  11.419
16032W        W81292   7.664  22.662  14.031
16033W        W81293  28.935  16.653   3.720
16034W        W81294  33.352   2.806  12.361
16035W        W81295  31.172  39.324  12.725
16036W        W81296  44.028   9.878   4.715
16037W        W81297  38.996  18.802   0.394
16038W        W81298  33.315  41.886  11.908
16039W        W81299  33.116  42.360   1.330
16040W        W81300  25.985  23.839   0.390
16041W        W81301  29.989  44.463  14.242
16042W        W81302  14.729  25.886   2.754
16043W        W81303  30.298  23.909  12.982
16044W        W81304  26.068  26.460   0.973
16045W        W81305  42.835  14.181  12.509
16046W        W81306   0.048  31.577  13.955
16047W        W81307   2.439   3.251   1.233
16048W        W81308  38.519  27.423  14.463
16049W        W81309  10.923  30.696  13.536
16050W        W81310  22.724  41.431  14.038
16051W        W81311   5.052  37.287  14.334
16052W        W81312  30.436  29.228   3.277
16053W        W81313   4.869  26.624  10.963
16054W        W81314   5.836   5.309   0.549
16055W        W81315  44.044  37.534   1.503
16056W        W81316  20.097   1.485  11.977
16057W        W81317  17.876  30.857   0.665
16058W        W81318  17.132  30.563   1.735
16059W        W81319  11.905  42.997  12.908
16060W        W81320  15.781  16.679  13.565
16061W        W81321  16.125   9.607   4.273
16062W        W81322  15.929   9.709   3.802
16063W        W81323  18.029  36.564   1.738
16064W        W81324   5.436   1.795   4.610
16065W        W81325   5.727  13.259   2.664
16066W        W81326  39.313   4.005  12.906
16067W        W81327   7.908  35.927   1.664
16068W        W81328  42.806  44.486  11.932
16069W        W81329   7.917  36.162  13.846
16070W        W81330  44.755  27.702  10.696
16071W        W81331  11.202  19.725   2.051
16072W        W81332  30.058  14.681  11.226
16073W        W81333  16.324  21.121   0.043
16074W        W81334  43.088  34.383   1.072
16075W        W81335  42.833  44.282   4.058
16076W        W81336  27.199  11.100  11.586
16077W        W81337   3.003  42.104   1.228
16078W        W81338   8.722  20.597   0.424
16079W        W81339   0.744   2.192  10.357
16080W        W81340  30.482  28.442   3.728
16081W        W81341  35.770  24.227   3.665
16082W        W81342  15.619  39.251   2.229
16083W        W81343  20.169  40.938  14.285
16084W        W81344  12.123  23.389   2.707
16085W        W81345  19.939   3.612  10.602
16086W        W81346   3.708  18.105  13.060
16087W        W81347  35.291  26.562   4.969
16088W        W81348  30.735  30.669  11.140
16089W        W81349  21.472  16.196   3.156
16090W        W81350  39.404  27.556  14.505
16091W        W81351  24.104  17.664  13.914
16092W        W81352   6.821   6.267   4.006
16093W        W81353  24.548   6.655  12.344
16094W        W81354  13.991  10.265   2.357
16095W        W81355  29.650  22.050   0.761
16096W        W81356  15.751   1.209  12.044
16097W        W81357  44.030  12.006   0.670
16098W        W81358  25.620   0.959   1.206
16099W        W81359  23.537   7.248   4.294
16100W        W81360  24.242  34.842  12.035
16101W        W81361  22.119  42.509   2.747
16102W        W81362  16.736  20.537   0.832
16103W        W81363  23.771  22.108  12.565
16104W        W81364  36.650  16.304  12.917
16105W        W81365  28.210  32.641   0.383
16106W        W81366  15.383  12.946  13.025
16107W        W81367  25.099   2.654  12.854
16108W        W81368   9.582   5.267  11.976
16109W        W81369  27.165  23.912  10.317
16110W        W81370  15.872  20.282   0.006
16111W        W81371  31.859  21.673  12.285
16112W        W81372  17.935  28.887  12.138
16113W        W81373  43.234  40.880  14.530
16114W        W81374  17.381  11.621   4.083
16115W        W81375   6.181  20.669  12.146
16116W        W81376  26.718  39.909   4.447
16117W        W81377  32.318  22.066  14.036
16118W        W81378  41.368  29.814   4.752
16119W        W81379  16.987  27.903  14.599
16120W        W81380  25.430  36.021   2.352
16121W        W81381  12.447  22.626   3.789
16122W        W81382   0.943  39.127   0.849
16123W        W81383  30.150  26.142   2.171
16124W        W81384  13.571  33.997  12.619
16125W        W81385  14.550  23.446   2.887
16126W        W81386  36.362  26.895  13.615
16127W        W81387  16.377  38.093  11.674
16128W        W81388  13.657  37.737   4.744
16129W        W81389  20.931   1.241  11.453
16130W        W81390  24.070   6.354  14.598
16131W        W81391  44.723  24.466  12.880
16132W        W81392  10.166  11.563  13.069
16133W        W81393  33.813  27.183  12.081
16134W        W81394  39.952  33.212  12.162
16135W        W81395   1.517   9.242  12.026
16136W        W81396   0.341   5.614   2.871
16137W        W81397  37.372  14.701  12.313
16138W        W81398  12.744  41.992   0.296
16139W        W81399  35.533   9.440   2.640
16140W        W81400  18.847  44.126  12.943
16141W        W81401  42.692  29.392   0.799
16142W        W81402  15.298  26.431   4.668
16143W        W81403  22.440   9.350   1.838
16144W        W81404  43.978  20.773  13.495
16145W        W81405  41.705  38.272   1.005
16146W        W81406  18.328   8.840  11.152
16147W        W81407   5.725  31.175  13.083
16148W        W81408  23.098  14.519   0.773
16149W        W81409  41.437  12.769  14.290
16150W        W81410   0.802  25.181  12.624
16151W        W81411  31.179  37.585  14.887
16152W        W81412   3.685  34.357   0.956
16153W        W81413  24.054  38.774   1.852
16154W        W81414  40.302  37.682   3.551
16155W        W81415  42.642  30.989  14.802
16156W        W81416  28.033   0.350  11.318
16157W        W81417  41.904   8.498  12.987
16158W        W81418  28.570  44.590  14.008
16159W        W81419   3.759   8.826  13.815
16160W        W81420  27.137   4.927  14.008
16161W        W81421  39.311  32.656   2.406
16162W        W81422  12.418   7.497   3.605
16163W        W81423  38.044  34.147   1.447
16164W        W81424  16.043  39.870   4.201
16165W        W81425  43.555  36.968   2.755
16166W        W81426   3.846  22.503  12.371
16167W        W81427  27.111  14.283  13.841
16168W        W81428  10.455   1.398   3.160
16169W        W81429  21.064  15.209  11.464
16170W        W81430  11.816   7.193  14.885
16171W        W81431  43.526  23.239  10.991
16172W        W81432   3.768   9.827   3.156
16173W        W81433  30.411   9.192  11.188
16174W        W81434  28.111  36.271   1.308
16175W        W81435  19.657  31.484  12.226
16176W        W81436  41.533  44.906  13.295
16177W        W81437  39.820  42.903   4.096
16178W        W81438  41.703   9.820  12.639
16179W        W81439  12.596  11.258   0.622
16180W        W81440  14.396  41.356   1.392
16181W        W81441  33.609  11.109   0.372
16182W        W81442  20.515  24.567  14.006
16183W        W81443  24.351  20.023   2.341
16184W        W81444  27.750  19.263   4.564
16185W        W81445  25.104  17.229   5.375
16186W        W81446   7.404   0.962   3.177
16187W        W81447  20.221  12.096  14.064
16188W        W81448  21.685  34.603  12.967
16189W        W81449  40.157  38.502  10.694
16190W        W81450  23.033  33.323   1.746
16191W        W81451  27.659  17.115  11.549
16192W        W81452  40.447  28.425   1.758
16193W        W81453  38.910  14.565   3.330
16194W        W81454   2.287  14.312  12.431
16195W        W81455  33.095  37.936  14.613
16196W        W81456  24.586  20.239  12.408
16197W        W81457  43.664  43.368  12.891
16198W        W81458  39.550  28.832   1.541
16199W        W81459  41.254  31.147   3.748
16200W        W81460  10.222  17.160  14.124
16201W        W81461  43.241  13.214   3.253
16202W        W81462  42.920  42.768  12.479
16203W        W81463  28.572  33.109   2.595
16204W        W81464   4.912  43.894   3.274
16205W        W81465  30.553  14.941  11.209
16206W        W81466  43.771  33.562  14.698
16207W        W81467  35.661  26.760   4.118
16208W        W81468  16.029  21.179   3.046
16209W        W81469   7.577   1.417  14.446
16210W        W81470  19.069  21.959  11.609
16211W        W81471  39.986  16.043  14.746
16212W        W81472  26.080  17.244   3.319
16213W        W81473   8.222   3.873  12.932
16214W        W81474  42.278   9.606  14.540
16215W        W81475  13.274   9.131  12.138
16216W        W81476   9.789  43.365   3.517
16217W        W81477  44.869  19.585   2.750
16218W        W81478  40.561  28.355   0.606
16219W        W81479  41.714  15.452   0.740
16220W        W81480  26.436   7.948   4.295
16221W        W81481  43.768  13.190   4.748
16222W        W81482  29.915   3.127   1.840
16223W        W81483   8.327  10.563   3.371
16224W        W81484  39.739  35.713   0.501
16225W        W81485   9.152  40.194  14.517
16226W        W81486  28.364  19.291   1.653
16227W        W81487  32.633  21.298   0.700
16228W        W81488   1.042  10.710   3.550
16229W        W81489  22.208  18.731  12.782
16230W        W81490   2.759  39.353  12.566
16231W        W81491  36.709  38.598  13.977
16232W        W81492  12.981  36.212   3.638
16233W        W81493  10.560  22.798  12.073
16234W        W81494   1.851  16.196  10.401
16235W        W81495  15.990  44.807   4.314
16236W        W81496   8.098   2.620  12.149
16237W        W81497  39.360  23.535   4.306
16238W        W81498  25.990  44.336  13.337
16239W        W81499  16.123  19.762   0.803
16240W        W81500  21.702  44.109   0.320
16241W        W81501  25.635  17.164   5.049
16242W        W81502  37.593   0.638  12.075
16243W        W81503  36.044  23.123   0.440
16244W        W81504  40.360   7.730  13.799
16245W        W81505  19.100  36.882  10.742
16246W        W81506   3.451  40.516   2.229
16247W        W81507  27.497  38.465  10.629
16248W        W81508  38.071  40.640   2.130
16249W        W81509  20.222  18.197  11.665
16250W        W81510   1.879  26.238  13.564
16251W        W81511   4.743  37.726  10.953
16252W        W81512   8.381  44.876   2.713
16253W        W81513  39.022  19.126   1.272
16254W        W81514  25.258  24.873  11.188
16255W        W81515   3.441   0.852   0.263
16256W        W81516   7.899  44.281   1.651
16257W        W81517  44.464  24.138  11.680
16258W        W81518   5.325  14.167  14.393
16259W        W81519  19.651  21.674   1.375
16260W        W81520   5.740  16.611   0.479
16261W        W81521  38.899  24.155   2.793
16262W        W81522  43.552   9.596   2.828
16263W        W81523  14.153  33.408   0.705
16264W        W81524  36.001  22.536   1.738
16265W        W81525  14.338  29.872   3.454
16266W        W81526  41.595  22.897  13.522
16267W        W81527   2.547   9.682   4.473
16268W        W81528  17.035  24.003   2.319
16269W        W81529  25.171  40.933  14.709
16270W        W81530  14.047  22.554   2.802
16271W        W81531   2.038  29.247   4.214
16272W        W81532  36.647   0.210   4.032
16273W        W81533  20.585  31.257  11.380
16274W        W81534  44.042  42.284   2.192
16275W        W81535  44.283  31.126  11.785
16276W        W81536  26.059  38.099  11.811
16277W        W81537  26.510   7.185   0.845
16278W        W81538  14.227  11.303  13.286
16279W        W81539  41.966   3.851  14.796
16280W        W81540   5.839  17.662  11.552
16281W        W81541   6.407  42.428   4.167
16282W        W81542  27.998  17.298  13.517
16283W        W81543  39.303  24.009   3.071
16284W        W81544   4.745  43.591  11.570
16285W        W81545  32.224   9.451   0.954
16286W        W81546  43.203  36.526   3.658
16287W        W81547  27.048  19.619  10.050
16288W        W81548  11.685  39.463   4.130
16289W        W81549   8.756  35.965   3.167
16290W        W81550  37.752  21.992  12.171
16291W        W81551  20.717  44.830   4.289
16292W        W81552  39.807  39.066  12.432
16293W        W81553  40.891  41.562   3.711
16294W        W81554   2.312  12.757  10.277
16295W        W81555  38.005   0.455   2.784
16296W        W81556  38.357  34.658   3.774
16297W        W81557   7.387  10.397   0.986
16298W        W81558  17.833   5.899  14.882
16299W        W81559  11.293   2.776   0.033
16300W        W81560  12.788  15.153  13.878
16301W        W81561   4.855  42.978   3.222
16302W        W81562  14.668   8.753   2.205
16303W        W81563  41.843   2.947   3.433
16304W        W81564  37.950   1.946  14.894
16305W        W81565  29.735  35.526  13.573
16306W        W81566  14.740   2.809  11.320
16307W        W81567   2.893   3.146  11.070
16308W        W81568  27.638  13.781  14.924
16309W        W81569  12.005  27.016  14.865
16310W        W81570  42.320  17.373   4.596
16311W        W81571  36.527  11.803   3.100
16312W        W81572  13.504   5.749   3.990
16313W        W81573   0.779  28.947  11.213
16314W        W81574  35.068   9.771  14.164
16315W        W81575  23.040   4.887  13.825
16316W        W81576  24.510  19.644  14.828
16317W        W81577  21.658   8.001   1.606
16318W        W81578  16.809  40.987  12.504
16319W        W81579  43.446  38.884  14.940
16320W        W81580  35.325   9.099  14.432
16321W        W81581  16.334  24.062   0.189
16322W        W81582  33.914  39.968  11.589
16323W        W81583  44.330  11.863   3.816
16324W        W81584  36.549   6.777  10.613
16325W        W81585  18.185   6.189  13.766
16326W        W81586  33.346  25.820  11.600
16327W        W81587   3.216   1.759  14.382
16328W        W81588  25.927   4.226   3.040
16329W        W81589  36.602  30.168   4.168
16330W        W81590  12.121  37.564  12.519
16331W        W81591  19.833   1.282   2.331
16332W        W81592  15.219   6.956   3.135
16333W        W81593  26.395   1.439  14.581
16334W        W81594  30.486  35.420   3.174
16335W        W81595  22.769   9.684  14.495
16336W        W81596  44.252  31.599  14.470
16337W        W81597  14.658   4.791   9.902
16338W        W81598  14.051  22.513  13.057
16339W        W81599   2.394  13.310   0.023
16340W        W81600  20.548  39.640   2.617
16341W        W81601   7.482   7.436   0.268
16342W        W81602   1.893  14.592  12.145
16343W        W81603   6.372  17.551  12.922
16344W        W81604  19.102  30.600   2.290
16345W        W81605   2.342  26.508   4.485
16346W        W81606  30.566  36.402  13.408
16347W        W81607  22.462   2.842  12.848
16348W        W81608   9.882  21.139  12.544
16349W        W81609   2.703  18.703  12.535
16350W        W81610  32.934  44.434  12.092
16351W        W81611  41.070  25.025   1.802
16352W        W81612  11.845  10.373   1.227
16353W        W81613   2.955  11.395  12.496
16354W        W81614  11.565  13.577  13.031
16355W        W81615   5.646  41.371   4.523
16356W        W81616   7.635  12.540   4.203
16357W        W81617   1.344  26.024  12.303
16358W        W81618   8.830   3.401  11.732
16359W        W81619  12.594  26.730  13.361
16360W        W81620   1.188  35.103   1.705
16361W        W81621  11.185  35.549  11.653
16362W        W81622  14.254  19.730  11.525
16363W        W81623  18.087  24.708  10.935
16364W        W81624  35.160  35.075  14.453
16365W        W81625  41.930  21.024  13.424
16366W        W81626   6.663  25.257  12.647
16367W        W81627  32.855   3.063  11.502
16368W        W81628   0.927  34.659   0.899
16369W        W81629  39.474   8.175   1.958
16370W        W81630   5.639   7.928   1.805
16371W        W81631  21.781  14.586  11.630
16372W        W81632  16.769   2.114   1.870
16373W        W81633  17.162   6.987  11.604
16374W        W81634  22.782  21.107  12.465
16375W        W81635  31.158  22.520   2.856
16376W        W81636  35.377  29.716  11.606
16377W        W81637   7.586  36.481  14.093
16378W        W81638   3.214  41.833  14.104
16379W        W81639  10.996  17.578  12.923
16380W        W81640  34.524  30.889   0.724
16381W        W81641  42.259  33.989   2.781
16382W        W81642  23.113  15.708   4.341
16383W        W81643  11.945  32.980   2.445
16384W        W81644   8.662  25.189  12.429
16385W        W81645  16.809  15.162  12.630
16386W        W81646  38.174  18.881   3.900
16387W        W81647  35.164   6.127  11.535
16388W        W81648  24.539   5.435  14.358
16389W        W81649  29.670  12.249   2.379
16390W        W81650  28.460   5.208   3.798
16391W        W81651  40.332   6.037   3.804
16392W        W81652  15.835  11.370  12.331
16393W        W81653   7.962  27.743   3.575
16394W        W81654  15.945  34.554   1.253
16395W        W81655   4.056  25.030   1.649
16396W        W81656   1.289   5.274   3.100
16397W        W81657  38.537  30.380   2.118
16398W        W81658  35.119  23.681  13.041
16399W        W81659  31.187  30.226  14.835
16400W        W81660  41.457  33.826   3.216
16401W        W81661  37.619   7.880  14.453
16402W        W81662  42.589  41.497  10.580
16403W        W81663   7.126  12.160   1.464
16404W        W81664  30.908   1.144  13.848
16405W        W81665  40.479   9.709  14.336
16406W        W81666  41.004   7.590   0.823
16407W        W81667   3.912  12.346  11.913
16408W        W81668  26.072  39.423   1.019
16409W        W81669  15.844  21.312   2.549
16410W        W81670  25.982   1.457   3.275
16411W        W81671  33.640   3.602  13.578
16412W        W81672  43.383  25.079  13.394
16413W        W81673   6.076  35.627   5.039
16414W        W81674  16.250  39.567  14.418
16415W        W81675   7.711  35.213  12.776
16416W        W81676  31.792   2.732   3.358
16417W        W81677  27.501  28.971   2.718
16418W        W81678  10.654  41.496   2.207
16419W        W81679  21.062  24.496   0.914
16420W        W81680  30.529  22.084  12.579
16421W        W81681  32.254   8.769   4.806
16422W        W81682  28.394  36.075   4.091
16423W        W81683  38.303   7.261  13.430
16424W        W81684  38.082  20.121   3.200
16425W        W81685  20.720  19.808   5.067
16426W        W81686  28.545  43.984  11.050
16427W        W81687  14.277  30.431   2.325
16428W        W81688  31.547  25.303   0.346
16429W        W81689  41.660   1.557  14.944
16430W        W81690  43.019  18.595  14.260
16431W        W81691  43.462  18.430  12.499
16432W        W81692  44.441   1.653   0.911
16433W        W81693  31.438  38.152  12.231
16434W        W81694  14.374  20.171   1.871
16435W        W81695  29.190  25.225  12.638
16436W        W81696  36.715  32.978   0.912
16437W        W81697  38.449  10.782  11.956
16438W        W81698  22.191  18.057  11.838
16439W        W81699  22.990  32.980  12.696
16440W        W81700  38.778   2.432   0.474
16441W        W81701  36.428  39.036  11.567
16442W        W81702  38.249   0.964  14.391
16443W        W81703  42.941  17.042  12.960
16444W        W81704  24.234   0.705   1.159
16445W        W81705   1.346  18.116  13.415
16446W        W81706  33.978  17.573  12.092
16447W        W81707   5.125  17.443  11.053
16448W        W81708  34.920   0.415  11.582
16449W        W81709  24.557  38.751   2.477
16450W        W81710  15.029  38.977   3.375
16451W        W81711  43.242  40.091  12.314
16452W        W81712  25.698  13.090   3.257
16453W        W81713   1.754   8.433  11.587
16454W        W81714  27.131  13.705  11.141
16455W        W81715  28.953  13.069   1.810
16456W        W81716  22.153  18.632  10.606
16457W        W81717   3.377  43.372   3.690
16458W        W81718  21.112  10.315  14.978
16459W        W81719  40.570  43.489   1.197
16460W        W81720  21.607  21.990   3.238
16461W        W81721   4.204  22.519  12.001
16462W        W81722  16.747  20.523   2.782
16463W        W81723   8.905  28.655  14.845
16464W        W81724  15.296  14.075   0.386
16465W        W81725  33.482  10.069   1.378
16466W        W81726  18.006  10.656  12.008
16467W        W81727  30.467  35.457  14.936
16468W        W81728  24.292  34.124  11.440
16469W        W81729  17.274  18.554   4.150
16470W        W81730   8.831  24.947   4.129
16471W        W81731   0.447  38.950   3.102
16472W        W81732   6.452  11.947   3.439
16473W        W81733  12.844  15.410   4.344
16474W        W81734  36.809  42.643  11.635
16475W        W81735   9.382   3.590   5.019
16476W        W81736  24.243  41.104  14.807
16477W        W81737  12.294  21.160  11.502
16478W        W81738  25.684  28.576   4.053
16479W        W81739  27.261  40.015   0.713
16480W        W81740  14.721  36.329   4.036
16481W        W81741  20.054  16.110   3.311
16482W        W81742  33.209  24.989  13.964
16483W        W81743  40.305  22.934  12.025
16484W        W81744  26.022  26.386   1.479
16485W        W81745  33.154  21.620  10.480
16486W        W81746   2.367  22.893  12.436
16487W        W81747  36.682  38.037   2.805
16488W        W81748  40.200  36.160   4.543
16489W        W81749  37.302  21.761  12.942
16490W        W81750  11.715   6.867  12.572
16491W        W81751   5.685  43.293   2.208
16492W        W81752   0.852  38.434  12.575
16493W        W81753  10.289  21.522  12.610
16494W        W81754  19.881  27.849  13.870
16495W        W81755  25.340   4.957   2.090
16496W        W81756  30.578  24.628  14.981
16497W        W81757  43.462   5.130  11.662
16498W        W81758   0.397  28.848   1.775
16499W        W81759   9.411  24.957   1.271
16500W        W81760  18.602   6.389  15.000
16501W        W81761  15.205  11.229  14.876
16502W        W81762   4.626  30.612  12.853
16503W        W81763  35.441  44.387   1.800
16504W        W81764   9.221  21.299  13.962
16505W        W81765  15.148  26.881  13.963
16506W        W81766  19.113  33.853  12.151
16507W        W81767  24.126  34.059   4.052
16508W        W81768   9.861  31.979  11.630
16509W        W81769  31.036   3.625  12.035
16510W        W81770  35.534  15.059  11.184
16511W        W81771  10.532  34.491  11.098
16512W        W81772  23.146  15.115  11.788
16513W        W81773  25.648  29.044   4.305
16514W        W81774   7.160   8.492   1.670
16515W        W81775  28.343  37.401   1.434
16516W        W81776  43.997  39.010   4.845
16517W        W81777  40.981  32.875  13.549
16518W        W81778   3.151  24.128  13.992
16519W        W81779  30.756   5.099   0.309
16520W        W81780  31.847   3.397  14.862
16521W        W81781  41.991  36.927  14.484
16522W        W81782   0.887  29.430  11.105
16523W        W81783   7.002   2.838  14.288
16524W        W81784  37.608  34.807   0.744
16525W        W81785   8.983  21.040   0.217
16526W        W81786   5.872  29.482   2.201
16527W        W81787  22.662  31.149   0.911
16528W        W81788  24.283  16.418   3.151
16529W        W81789  22.569  33.916   1.285
16530W        W81790  15.252   5.877   4.617
16531W        W81791  22.986  37.892  13.892
16532W        W81792  40.598  16.651   3.767
16533W        W81793   2.787  21.946   3.798
16534W        W81794  12.675  18.321   0.255
16535W        W81795   2.225   6.404   1.116
16536W        W81796  43.347  24.791  11.457
16537W        W81797  40.237  32.359   0.435
16538W        W81798   1.917  25.226   3.650
16539W        W81799  33.606  38.285  13.996
16540W        W81800  32.658   0.723  10.109
16541W        W81801  20.471  44.806   3.814
16542W        W81802   8.785  31.315  13.869
16543W        W81803  25.946  11.638   3.721
16544W        W81804  23.718   5.666  11.974
16545W        W81805   5.263  16.575  11.321
16546W        W81806  28.135  40.314   2.246
16547W        W81807  11.815   2.007   4.248
16548W        W81808  11.953  23.662   0.800
16549W        W81809  40.798   7.195  14.304
16550W        W81810  19.676  22.718   0.364
16551W        W81811  34.994  35.135   2.182
16552W        W81812   6.801   9.145   2.296
16553W        W81813  38.646  40.916  10.754
16554W        W81814  34.305  37.413   1.713
16555W        W81815  36.818  32.623  13.051
16556W        W81816  14.965  32.021   4.496
16557W        W81817  34.919  21.038  11.136
16558W        W81818  44.540  38.137   2.488
16559W        W81819  28.127  30.909   0.493
16560W        W81820  20.325  43.726   0.837
16561W        W81821   8.377  29.902   4.241
16562W        W81822  28.682  37.905   3.967
16563W        W81823   0.876  30.014  14.077
16564W        W81824  27.919  36.863   3.737
16565W        W81825  44.213  10.253   3.764
16566W        W81826  18.635   9.829   4.444
16567W        W81827  32.321  40.055   4.503
16568W        W81828  36.875  27.575  12.395
16569W        W81829   6.399  37.398   1.784
16570W        W81830  27.030   9.815   1.493
16571W        W81831   7.930  31.802  11.718
16572W        W81832  43.590  31.613  12.323
16573W        W81833   4.097  13.470   3.733
16574W        W81834  36.880   1.542  11.416
16575W        W81835   5.081  26.404  12.014
16576W        W81836  15.870  27.467  10.846
16577W        W81837  32.078  23.716  11.200
16578W        W81838  40.491  17.364  12.506
16579W        W81839  15.999  33.859  10.758
16580W        W81840  21.033  27.156   4.717
16581W        W81841  23.078  21.636  13.908
16582W        W81842  35.966  33.365   3.301
16583W        W81843  32.394  34.051  11.107
16584W        W81844  39.309   3.370   3.297
16585W        W81845  10.156  16.426   4.505
16586W        W81846  17.561  20.285   0.070
16587W        W81847   6.835  31.386  12.161
16588W        W81848  34.238  21.214   4.600
16589W        W81849  18.494  37.571  13.026
16590W        W81850   6.256   3.946   4.830
16591W        W81851  25.241  20.103   2.892
16592W        W81852  42.413  24.260   2.861
16593W        W81853  40.787  19.641  14.509
16594W        W81854  13.373   9.498   0.868
16595W        W81855  37.583   6.784  13.380
16596W        W81856   5.357  17.029   9.981
16597W        W81857  25.203  22.070  12.537
16598W        W81858  28.825  25.176  14.429
16599W        W81859  44.688  18.605   4.130
16600W        W81860  32.147   9.957   0.840
16601W        W81861  26.878   8.802   3.857
16602W        W81862  38.791  12.134  13.877
16603W        W81863  36.850  43.909  10.478
16604W        W81864  18.719  31.610  12.387
16605W        W81865   8.000  20.366   0.678
16606W        W81866  30.958   4.370  11.523
16607W        W81867  42.913   1.778   0.868
16608W        W81868  22.430  21.086   3.701
16609W        W81869   0.852   0.994   1.601
16610W        W81870  37.746  39.462  14.637
16611W        W81871   6.710   2.780  12.978
16612W        W81872  13.118  22.526  11.089
16613W        W81873  23.692  33.308  14.599
16614W        W81874   6.772  29.556  13.359
16615W        W81875   7.288  23.083  12.534
16616W        W81876  14.786  41.273   1.766
16617W        W81877   2.889  14.391   3.807
16618W        W81878  16.233   4.775   0.007
16619W        W81879  30.730  24.441   2.359
16620W        W81880  20.124   0.135  10.303
16621W        W81881  22.718  37.999  12.098
16622W        W81882   4.325  33.154   3.622
16623W        W81883  38.918  27.752   0.176
16624W        W81884  31.183  11.767   0.649
16625W        W81885  30.266   2.773   1.935
16626W        W81886  15.496  20.905   2.584
16627W        W81887  23.094  19.700   2.083
16628W        W81888   7.252  33.116   4.586
16629W        W81889   7.818  42.968  11.808
16630W        W81890  26.994  41.075  14.384
16631W        W81891   3.110  23.983  14.891
16632W        W81892  24.809  16.765  11.871
16633W        W81893   1.053  42.265   4.088
16634W        W81894  39.324  23.482  13.940
16635W        W81895  37.199  26.358   0.452
16636W        W81896   4.907  10.932   0.361
16637W        W81897  27.447  16.645  10.401
16638W        W81898  15.656  34.071  10.430
16639W        W81899   6.311   1.940  11.191
16640W        W81900  22.336   3.486   1.362
16641W        W81901  28.538  37.534   0.952
16642W        W81902  36.740  44.899   0.838
16643W        W81903  10.828   2.474   3.614
16644W        W81904   8.730   3.958   4.158
16645W        W81905  30.023  44.818  10.596
16646W        W81906  27.216  38.726  13.951
16647W        W81907  29.666  30.205  14.866
16648W        W81908  25.923   5.726   5.540
16649W        W81909  18.237  20.612   3.026
16650W        W81910  42.023   9.267   4.631
16651W        W81911  44.607  20.832   2.742
16652W        W81912  29.508  26.601  11.583
16653W        W81913  14.146  18.049  12.871
16654W        W81914  15.655  21.168   3.445
16655W        W81915  33.950  10.656   2.392
16656W        W81916  21.029   9.288  11.682
16657W        W81917  12.163   8.431   2.835
16658W        W81918  24.126  34.534  10.646
16659W        W81919   4.732  20.095   1.187
16660W        W81920   2.239  38.883  11.021
16661W        W81921  43.311  35.839  14.348
16662W        W81922   2.275  35.367   1.334
16663W        W81923  28.585  41.736   2.951
16664W        W81924  39.627  29.551  13.626
16665W        W81925  29.357   8.719  12.520
16666W        W81926  20.266  39.837   4.963
16667W        W81927   1.416   2.199   0.826
16668W        W81928  14.410   6.962  10.414
16669W        W81929  23.270  31.173   0.267
16670W        W81930   0.019  37.579  10.672
16671W        W81931  26.169  33.571  13.757
16672W        W81932   5.321  34.124  12.015
16673W        W81933  37.046  40.197  12.984
16674W        W81934  31.912  43.912  12.904
16675W        W81935  42.964  37.281  13.425
16676W        W81936  18.115  41.802  12.281
16677W        W81937   3.043  35.687  10.128
16678W        W81938   0.909  40.068  12.466
16679W        W81939  23.696  43.824   3.268
16680W        W81940  44.160  14.830   5.074
16681W        W81941   9.380   2.744   0.737
16682W        W81942   0.483  41.348  11.802
16683W        W81943  41.795  36.895   0.647
16684W        W81944  15.785  12.828  10.132
16685W        W81945  27.063  27.673   2.743
16686W        W81946  13.751  32.871  11.920
16687W        W81947  39.006  27.752  12.320
16688W        W81948   8.329   8.092   4.647
16689W        W81949  15.811  19.267   3.241
16690W        W81950  26.107  37.959  14.897
16691W        W81951   2.990  31.563   1.839
16692W        W81952  34.193   3.274   0.292
16693W        W81953  38.368  26.513   3.381
16694W        W81954  34.100  13.429  11.467
16695W        W81955   6.533  28.149   0.902
16696W        W81956   0.534  24.970  11.913
16697W        W81957  17.782  14.840  12.848
16698W        W81958  13.052  43.401  14.464
16699W        W81959  15.811  21.022  11.137
16700W        W81960  14.650   2.993   0.745
16701W        W81961   5.099  11.878  13.033
16702W        W81962   8.726  31.170   2.218
16703W        W81963  33.971  12.715  14.823
16704W        W81964  11.190  23.790  10.456
16705W        W81965  33.472   5.724   1.026
16706W        W81966  16.599  35.439   2.886
16707W        W81967  10.856  40.681   0.244
16708W        W81968   5.895  12.169  10.502
16709W        W81969  18.026  27.995  13.537
16710W        W81970   6.682   7.677   3.184
16711W        W81971  40.308  40.777  11.011
16712W        W81972   8.284   2.328  11.362
16713W        W81973   6.011  12.680   4.365
16714W        W81974   5.610  29.612   3.628
16715W        W81975  26.500   1.931  13.826
16716W        W81976  18.591  33.465   0.502
16717W        W81977  35.180  24.181   3.383
16718W        W81978   7.460  11.707  13.877
16719W        W81979  22.467  25.718   2.818
16720W        W81980  24.297  39.480  10.731
16721W        W81981   6.885  11.597  14.832
16722W        W81982  16.227  32.054   1.272
16723W        W81983  10.896  19.386   4.610
16724W        W81984   7.387  44.986   4.198
16725W        W81985  36.107  28.195  11.095
16726W        W81986   6.764  24.735  12.762
16727W        W81987  25.262  39.455   1.715
16728W        W81988  16.156  32.935  14.979
16729W        W81989  17.198  41.249  14.947
16730W        W81990  26.530   0.069  12.524
16731W        W81991   2.620   1.707  12.435
16732W        W81992  36.336  36.912  13.491
16733W        W81993  36.982  15.508  13.065
16734W        W81994  15.352  42.915   3.440
16735W        W81995  17.831  43.968   0.740
16736W        W81996   3.550  22.296   1.233
16737W        W81997  30.777  14.288  13.960
16738W        W81998  44.872  38.867   4.745
16739W        W81999  41.345   5.344   4.140
16740W        W82000   9.848   1.929  12.942
16741W        W82001  42.341  31.407   2.637
16742W        W82002   5.240  28.502  11.628
16743W        W82003  15.597  43.781   3.152
16744W        W82004  35.848  16.177   4.612
16745W        W82005  23.687  31.092   2.527
16746W        W82006  44.447   2.415  11.044
16747W        W82007  18.682  27.667   2.654
16748W        W82008  33.530  29.567  10.822
16749W        W82009  20.566  37.521   0.796
16750W        W82010   6.266  37.392  10.841
16751W        W82011  23.306  24.253   1.169
16752W        W82012  35.242  29.206   4.931
16753W        W82013  21.011  32.113   4.175
16754W        W82014  22.805  29.895   4.151
16755W        W82015  29.437  30.388   4.979
16756W        W82016  36.082  30.631   2.315
16757W        W82017   2.645   0.575   2.844
16758W        W82018   1.017  33.425  13.349
16759W        W82019  11.102  44.206  11.317
16760W        W82020   8.208  44.383  10.912
16761W        W82021  15.251  41.155  12.416
16762W        W82022  42.960  25.681  13.087
16763W        W82023  30.876  19.020   3.672
16764W        W82024   1.306  12.321  11.801
16765W        W82025  44.887  15.348  14.593
16766W        W82026  43.390   9.391  14.783
16767W        W82027  40.231  33.875   0.452
16768W        W82028  24.891   5.407   2.121
16769W        W82029  39.132   8.883   1.264
16770W        W82030   0.008   5.366   3.275
16771W        W82031   3.266  32.866  12.054
16772W        W82032  40.383  19.559  10.399
16773W        W82033  21.045  23.903   4.896
16774W        W82034  19.113  28.109   4.706
16775W        W82035  19.000   7.383   4.584
16776W        W82036  17.478  38.988   4.514
16777W        W82037  40.996  40.221   0.977
16778W        W82038   3.670  30.239  13.127
16779W        W82039  10.369  18.278  13.369
16780W        W82040  40.367  14.894  11.117
16781W        W82041  40.069  30.632   1.595
16782W        W82042  41.446  43.917   2.726
16783W        W82043   8.648   1.888  12.215
16784W        W82044  41.707  12.677  11.686
16785W        W82045   4.276  29.967   1.726
16786W        W82046  39.402   3.457   2.243
16787W        W82047   8.709  27.540  14.706
16788W        W82048   9.317  43.301   2.725
16789W        W82049  37.005  12.379  12.922
16790W        W82050   8.597  26.234   1.744
16791W        W82051  34.589  18.686  10.567
16792W        W82052  41.530  22.646  10.606
16793W        W82053  11.686  37.109   4.421
16794W        W82054  42.537  17.343   1.325
16795W        W82055  42.522   6.276  12.500
16796W        W82056  23.673  35.842   0.456
16797W        W82057  35.480  14.330   3.197
16798W        W82058   9.262  28.786   1.646
16799W        W82059  20.396  10.865   4.026
16800W        W82060  11.880  42.951   3.653
16801W        W82061  21.260  24.683   3.655
16802W        W82062   9.389  34.456  14.778
16803W        W82063  23.031  25.630  11.102
16804W        W82064  22.590  37.461  14.617
16805W        W82065  44.760   4.930  11.304
16806W        W82066   8.510  20.585  14.375
16807W        W82067   5.730  44.315   0.487
16808W        W82068  27.911  42.221  12.432
16809W        W82069  25.781   1.026   5.289
16810W        W82070  20.150  32.011   3.856
16811W        W82071  26.344  16.540  11.088
16812W        W82072   2.392   9.941  11.891
16813W        W82073  28.942   8.707  13.547
16814W        W82074  41.000  26.387   4.606
16815W        W82075  29.940  23.400  13.512
16816W        W82076  32.129  25.441   2.657
16817W        W82077  21.642  33.704   2.326
16818W        W82078  10.658  23.590  14.501
16819W        W82079  24.560  28.121  10.970
16820W        W82080  29.821   6.836  13.553
16821W        W82081   5.177  40.759  14.263
16822W        W82082  11.166  28.907  14.497
16823W        W82083   2.435  33.851   4.699
16824W        W82084   7.188   5.975  14.866
16825W        W82085  41.461  29.211  11.343
16826W        W82086  21.089   0.515  11.922
16827W        W82087  10.285  43.847   0.857
16828W        W82088   1.399  13.774  10.676
16829W        W82089  15.749   1.850   4.769
16830W        W82090  16.238  26.122  14.514
16831W        W82091  14.510  25.157  13.107
16832W        W82092   7.913  20.804  12.888
16833W        W82093  33.564  25.892   0.410
16834W        W82094  42.472  21.461  10.705
16835W        W82095  24.112  28.251  11.223
16836W        W82096  44.048  41.412   3.220
16837W        W82097  38.010  19.636   2.460
16838W        W82098  44.077  11.235  10.763
16839W        W82099  12.325   0.201   4.471
16840W        W82100  23.776   6.802  14.387
16841W        W82101  31.758   4.086   3.157
16842W        W82102  15.744  38.773  11.543
16843W        W82103  15.082  42.401   0.259
16844W        W82104  11.801  31.597   1.816
16845W        W82105  26.104  12.731   0.478
16846W        W82106  17.107  10.841   1.398
16847W        W82107  11.887  31.143  13.154
16848W        W82108  43.341  27.436  14.379
16849W        W82109  27.881   6.905   1.838
16850W        W82110  36.847  21.661   4.546
16851W        W82111  43.803  27.073   9.578
16852W        W82112  12.230  26.788   1.349
16853W        W82113   0.759  34.093   1.777
16854W        W82114  36.445   1.863  12.142
16855W        W82115  20.555  43.722   2.408
16856W        W82116  13.427  13.760  14.945
16857W        W82117  18.600  44.396   0.423
16858W        W82118  34.241   9.090   3.268
16859W        W82119  23.473   7.140  14.729
16860W        W82120  16.605  24.734  11.029
16861W        W82121  36.408  14.818  12.631
16862W        W82122   5.210  10.758   2.843
16863W        W82123  36.683  31.047  10.946
16864W        W82124  20.086  37.745  10.658
16865W        W82125  37.370  14.191   2.785
16866W        W82126  15.215   6.636  11.765
16867W        W82127  15.531  28.905   1.356
16868W        W82128  11.067  13.356  12.923
16869W        W82129  31.046  26.919  12.851
16870W        W82130   1.329  21.626  12.976
16871W        W82131  11.416  38.573  14.075
16872W        W82132   3.320  19.098   0.391
16873W        W82133  36.371  26.633   4.661
16874W        W82134  26.620  12.513   0.351
16875W        W82135  16.957  44.704  12.048
16876W        W82136  21.015  43.580   1.860
16877W        W82137  32.028  34.744  13.914
16878W        W82138  43.814   6.823  12.134
16879W        W82139  11.218  43.522   0.149
16880W        W82140  18.736  23.192  11.896
16881W        W82141  23.307   0.180  14.383
16882W        W82142  41.525  36.115   4.088
16883W        W82143  43.602  16.893  11.089
16884W        W82144   9.187  14.106  10.690
16885W        W82145   3.293  40.091   2.480
16886W        W82146  21.919  17.244   1.323
16887W        W82147  22.083  31.434   1.982
16888W        W82148   8.366   3.939   2.178
16889W        W82149  36.601  19.094  10.531
16890W        W82150  29.486   4.735   1.130
16891W        W82151  34.360  32.221  12.441
16892W        W82152  41.359   1.875   3.578
16893W        W82153  23.113  30.372  11.098
16894W        W82154  33.080  11.261  12.450
16895W        W82155  13.081  35.869  11.156
16896W        W82156   7.220   2.763  10.806
16897W        W82157  21.246  18.866  10.178
16898W        W82158  15.249  17.287  10.549
16899W        W82159   2.529   1.825   2.859
16900W        W82160   5.306  19.559  10.874
16901W        W82161  29.054  34.698   1.154
16902W        W82162   9.558  42.785  13.519
16903W        W82163  43.871  39.225  14.394
16904W        W82164  14.427  25.707  11.048
16905W        W82165  14.720  36.885  10.922
16906W        W82166  34.412  13.573   1.946
16907W        W82167  40.546  30.114  11.250
16908W        W82168  19.554  42.939  13.781
16909W        W82169  37.880  11.960   2.962
16910W        W82170  12.636  21.988   4.448
16911W        W82171  13.151  23.646   0.212
16912W        W82172  26.472  43.341   2.276
16913W        W82173  33.538  24.072   0.409
16914W        W82174  14.130  13.831   4.767
16915W        W82175  17.615  26.303  14.194
16916W        W82176  42.027   8.738   3.724
16917W        W82177   8.155  22.150  11.455
16918W        W82178  27.494  37.457   4.200
16919W        W82179  28.158  27.633  10.592
16920W        W82180   6.404  18.817  14.422
16921W        W82181   3.321  12.888   4.605
16922W        W82182   5.331  29.639  10.892
16923W        W82183  29.652  11.321  14.464
16924W        W82184  22.491   6.693   2.703
16925W        W82185  20.551   6.728  13.868
16926W        W82186  14.283  35.664  12.131
16927W        W82187  25.597   6.597   0.973
16928W        W82188  24.673  42.527   1.834
16929W        W82189  29.226  40.206   4.552
16930W        W82190  23.725  37.500  12.800
16931W        W82191  19.247  20.763  12.197
16932W        W82192  26.038  29.434   4.272
16933W        W82193  31.576   3.065   3.668
16934W        W82194  21.338  12.722  10.369
16935W        W82195   2.711   1.735  14.020
16936W        W82196  15.187  37.481   2.006
16937W        W82197   9.061   9.258   4.242
16938W        W82198   3.696   4.682  13.512
16939W        W82199   5.621  34.161  12.546
16940W        W82200  20.237  40.007  14.364
16941W        W82201   7.617  17.428   3.034
16942W        W82202  35.433  39.429   4.123
16943W        W82203  32.213  17.971   5.096
16944W        W82204   9.303  22.732  14.016
16945W        W82205  32.986  26.877   5.499
16946W        W82206  24.001  28.992  14.939
16947W        W82207  32.930  41.221   0.462
16948W        W82208   2.034   7.304   3.668
16949W        W82209  12.830  37.839  13.082
16950W        W82210  25.420  11.867  11.673
16951W        W82211  14.702  41.890   3.700
16952W        W82212  15.360  27.333  10.228
16953W        W82213  39.259  40.967  12.560
16954W        W82214  17.685  34.096  14.525
16955W        W82215  42.373  25.105  12.568
16956W        W82216   8.116  43.473  14.770
16957W        W82217  37.631  18.283   2.844
16958W        W82218   8.434  19.390   2.617
16959W        W82219   3.978  22.529   3.720
16960W        W82220  34.492  31.060   3.181
16961W        W82221  35.107  42.979   3.170
16962W        W82222  14.509  10.539  13.388
16963W        W82223  32.107  40.271  14.757
16964W        W82224  38.358   7.854   3.419
16965W        W82225  22.476  37.447  13.286
16966W        W82226  31.563  38.446   3.101
16967W        W82227   8.079  40.271   0.885
16968W        W82228  12.597  37.418   1.201
16969W        W82229  22.873  31.637   4.602
16970W        W82230  21.706  39.033  11.905
16971W        W82231  24.193  37.841   3.590
16972W        W82232   5.570  14.208   2.760
16973W        W82233   4.988  20.564   1.208
16974W        W82234  20.587   9.435  11.909
16975W        W82235   3.918  28.507  12.052
16976W        W82236   7.466  16.865   1.893
16977W        W82237  21.106   7.347   3.585
16978W        W82238  36.455  22.324   1.792
16979W        W82239  40.366   0.028  13.493
16980W        W82240   9.790   2.571   3.173
16981W        W82241  31.882  41.734  13.515
16982W        W82242  14.493  21.698  11.165
16983W        W82243  20.226  24.517  12.426
16984W        W82244  17.531   7.291   1.557
16985W        W82245  42.005  15.751   3.210
16986W        W82246  44.998   7.846  10.592
16987W        W82247  10.104  38.507  11.607
16988W        W82248  16.645   0.344   0.731
16989W        W82249  35.879  28.021   0.737
16990W        W82250  38.159   8.349   3.311
16991W        W82251  39.559  12.802   3.164
16992W        W82252  23.707  18.308   0.642
16993W        W82253  12.899  24.987  12.434
16994W        W82254   4.792  20.307  10.740
16995W        W82255  38.923   8.891   1.825
16996W        W82256  10.573   7.343  12.137
16997W        W82257  20.522  15.866  13.306
16998W        W82258  13.250  10.668   3.427
16999W        W82259   2.008  33.053   0.432
17000W        W82260  25.483  12.071  13.211
17001W        W82261  20.691   4.142   0.315
17002W        W82262  24.440  11.566  14.498
17003W        W82263  30.989  42.374  12.131
17004W        W82264  19.339  34.389  11.556
17005W        W82265  21.992  23.462   2.116
17006W        W82266   6.784  29.780   4.805
17007W        W82267   3.367  21.061   4.554
17008W        W82268  44.473   3.684   0.014
17009W        W82269  39.737  21.895  12.988
17010W        W82270   5.440   7.002  14.227
17011W        W82271   5.904  43.143  12.805
17012W        W82272  29.844   9.416   0.445
17013W        W82273  18.898  40.095  14.216
17014W        W82274  12.864  33.621  13.993
17015W        W82275   8.401  31.517  14.968
17016W        W82276  31.065  17.301  10.336
17017W        W82277  42.994   2.933   4.591
17018W        W82278  26.453  13.855   2.379
17019W        W82279  30.520  43.817   1.722
17020W        W82280  36.582  31.818  11.062
17021W        W82281  39.544  17.526   1.910
17022W        W82282   3.273  11.813   4.643
17023W        W82283  29.130  16.721  13.382
17024W        W82284  19.788  18.168  14.846
17025W        W82285  32.950  18.951  11.196
17026W        W82286  34.858  32.954   3.705
17027W        W82287  12.319  18.107  13.325
17028W        W82288  13.090  36.469   1.880
17029W        W82289  17.824   5.421   2.749
17030W        W82290  35.138  38.986   4.141
17031W        W82291  27.292  13.159  12.631
17032W        W82292  10.888   5.904   4.077
17033W        W82293  40.608  44.202  10.158
17034W        W82294  24.749   3.979  13.190
17035W        W82295  29.138  21.056   0.372
17036W        W82296  22.124  33.069  14.338
17037W        W82297  25.471  31.256   3.783
17038W        W82298  42.573  29.959  11.990
17039W        W82299  41.914  20.010  11.995
17040W        W82300  43.982  38.926  14.839
17041W        W82301  44.764  12.227   1.687
17042W        W82302   9.442  15.612  11.154
17043W        W82303  17.720  26.256   0.197
17044W        W82304  25.605  31.892   4.367
17045W        W82305  17.420  36.432  13.288
17046W        W82306  38.366  43.101   0.474
17047W        W82307  30.435  40.486  11.622
17048W        W82308  44.870  37.292  13.878
17049W        W82309   0.180   3.422   2.747
17050W        W82310  26.475  21.213   2.308
17051W        W82311  13.449   3.415   1.474
17052W        W82312  23.991   4.422  14.446
17053W        W82313  15.185  43.328   0.224
17054W        W82314  19.261  35.775  13.480
17055W        W82315  41.404  24.881   3.607
17056W        W82316  44.808  15.231   3.079
17057W        W82317  32.714  18.054   2.050
17058W        W82318   3.460  29.752   5.030
17059W        W82319  26.953  43.868   1.746
17060W        W82320  12.761   0.148   4.203
17061W        W82321  44.085  19.494   3.138
17062W        W82322  16.101  18.224  12.964
17063W        W82323  18.882  31.506  14.962
17064W        W82324  16.335  10.299   0.551
17065W        W82325  22.926  14.512  12.041
17066W        W82326   7.894   1.195   1.933
17067W        W82327   7.700  28.664   1.767
17068W        W82328   2.928   7.823  14.345
17069W        W82329  12.384  19.813  12.395
17070W        W82330  12.542  44.250  12.086
17071W        W82331   4.992   5.877  12.196
17072W        W82332   0.366  26.833  14.975
17073W        W82333  43.411  10.056   0.886
17074W        W82334  26.236  11.349   3.411
17075W        W82335   0.904   7.831   2.241
17076W        W82336  40.713   2.541   0.348
17077W        W82337  12.300  12.192  14.597
17078W        W82338  22.015  15.236  14.399
17079W        W82339  18.159  43.595   1.780
17080W        W82340  28.399  13.463   5.146
17081W        W82341  12.416  18.978  11.122
17082W        W82342  31.962  20.567   3.855
17083W        W82343  29.338  27.120   3.768
17084W        W82344  30.111  14.765   1.759
17085W        W82345   7.694  24.742   2.239
17086W        W82346  24.164  17.187  14.244
17087W        W82347   3.995  42.688   0.223
17088W        W82348  30.602  23.055   4.904
17089W        W82349  24.649   6.180  12.060
17090W        W82350  27.093  25.420   4.548
17091W        W82351   0.449  11.221  14.795
17092W        W82352  37.950  11.206   0.789
17093W        W82353  20.150   0.951  12.012
17094W        W82354  40.482  12.903  13.490
17095W        W82355  40.710  29.139  12.955
17096W        W82356  20.483  44.467  13.843
17097W        W82357   9.175  37.078  14.697
17098W        W82358   3.052   6.317   0.032
17099W        W82359  27.562  44.518  14.133
17100W        W82360  41.299  12.733   4.787
17101W        W82361  38.084  38.099   3.745
17102W        W82362   6.529  43.040   4.865
17103W        W82363  27.025  22.568  12.460
17104W        W82364  23.138  31.025   0.745
17105W        W82365  32.811  42.728  13.393
17106W        W82366   2.455  15.587  13.152
17107W        W82367  31.714  28.350   5.600
17108W        W82368   7.267  29.715   2.250
17109W        W82369  43.841  16.689   3.914
17110W        W82370  30.006   8.102   3.592
17111W        W82371  37.820  39.035  12.095
17112W        W82372   7.050   3.577  10.972
17113W        W82373  16.175  29.048  13.704
17114W        W82374   2.202  10.600  12.993
17115W        W82375   1.515  16.613   0.746
17116W        W82376  15.707  44.153   1.381
17117W        W82377   1.314  28.999   0.254
17118W        W82378  29.964   0.857  11.723
17119W        W82379  25.719  20.799   5.381
17120W        W82380  40.750  24.124   2.147
17121W        W82381  29.601  22.005   3.297
17122W        W82382  15.196  10.153  11.666
17123W        W82383  25.216  13.621   0.014
17124W        W82384   0.013  25.184  11.997
17125W        W82385   8.731   4.343  14.342
17126W        W82386  40.939   7.692  14.409
17127W        W82387  44.363  27.458   1.886
17128W        W82388  10.130  12.336  12.604
17129W        W82389  21.699  13.314  12.664
17130W        W82390  19.956  42.849   9.871
17131W        W82391  43.665  10.233   4.643
17132W        W82392   9.875   6.450   1.764
17133W        W82393   0.374  14.160   4.708
17134W        W82394   9.555  16.581  12.579
17135W        W82395   1.422   9.316   2.690
17136W        W82396  18.743  44.677   1.286
17137W        W82397  30.307   2.715  14.009
17138W        W82398  16.359  13.708   3.572
17139W        W82399  21.306   2.278  14.963
17140W        W82400  42.833  24.661  14.741
17141W        W82401  12.635  44.764  14.843
17142W        W82402   8.032  28.587   0.866
17143W        W82403   2.854  27.235  11.982
17144W        W82404  24.396  43.337   0.916
17145W        W82405  36.444  38.991  12.838
17146W        W82406  23.518  42.858  13.803
17147W        W82407  17.838  36.336  14.058
17148W        W82408  20.590  33.171   3.715
17149W        W82409  43.962  44.211  13.832
17150W        W82410  32.860  18.655   1.292
17151W        W82411  21.685  28.966  11.162
17152W        W82412   1.755  30.184   0.329
17153W        W82413  21.955  42.359   2.288
17154W        W82414  36.016  15.134   0.440
17155W        W82415  38.475  40.027  10.660
17156W        W82416  18.590  43.470  10.765
17157W        W82417  11.687  16.889  11.993
17158W        W82418  34.767  14.041  14.224
17159W        W82419  12.820   8.807   2.381
17160W        W82420  21.506  26.895  12.004
17161W        W82421   4.571  26.622   4.499
17162W        W82422  24.092   2.347   0.789
17163W        W82423  28.585  11.066   2.693
17164W        W82424  34.333  10.765   4.496
17165W        W82425  37.955  17.390   3.138
17166W        W82426  32.405  12.601   3.110
17167W        W82427  44.194  28.461   2.252
17168W        W82428  38.415  17.106   2.429
17169W        W82429  20.400  28.353  12.036
17170W        W82430  25.588  44.174   1.641
17171W        W82431  42.235  20.524  14.423
17172W        W82432  25.154   3.192   4.039
17173W        W82433  10.198   9.232  12.597
17174W        W82434  35.856  31.999  10.709
17175W        W82435   9.581   8.505   4.205
17176W        W82436  30.911   1.831   4.155
17177W        W82437   7.941  33.395   3.660
17178W        W82438  12.406   3.252  13.934
17179W        W82439  34.042  33.166   0.007
17180W        W82440  15.273  42.097  12.260
17181W        W82441  15.404  26.497  11.409
17182W        W82442  32.051  12.112  12.043
17183W        W82443  29.967   0.140  10.986
17184W        W82444  32.255  37.895  13.518
17185W        W82445  25.996  21.913  12.061
17186W        W82446  10.445  36.235  12.623
17187W        W82447  20.297  36.108  12.127
17188W        W82448   0.299  25.737  14.173
17189W        W82449  16.766  25.901  12.977
17190W        W82450  23.388  40.111  12.591
17191W        W82451   1.264  29.490   4.600
17192W        W82452  35.087  40.445   4.360
17193W        W82453  39.446  10.364   1.519
17194W        W82454  32.077  24.127  12.122
17195W        W82455  34.450  41.827   3.650
17196W        W82456   5.443   4.150  11.239
17197W        W82457  33.564  37.327   5.029
17198W        W82458  21.289  44.891  10.206
17199W        W82459   0.835  33.849   3.612
17200W        W82460  27.446  15.606   3.095
17201W        W82461  26.129  41.233  12.558
17202W        W82462  13.119  33.851  12.822
17203W        W82463  12.512   7.938  12.562
17204W        W82464  34.843  44.469  12.436
17205W        W82465  37.295  39.364   1.009
17206W        W82466  25.251  34.883  11.017
17207W        W82467  40.015  29.673   3.131
17208W        W82468  16.125  42.705  11.768
17209W        W82469  30.055  14.095   2.539
17210W        W82470  11.963  33.719  13.118
17211W        W82471   6.926  35.941   4.153
17212W        W82472   5.936  21.285   3.704
17213W        W82473  23.637   1.229   4.968
17214W        W82474  28.134   3.857  13.553
17215W        W82475   3.733   7.709   3.470
17216W        W82476  34.318  32.385   2.307
17217W        W82477  42.322  42.387   2.228
17218W        W82478  42.134  35.648  12.456
17219W        W82479   6.545  34.505  12.486
17220W        W82480   6.387  20.694  11.667
17221W        W82481  27.675  16.571  12.952
17222W        W82482  16.832   0.188   1.881
17223W        W82483   3.822  20.564   2.806
17224W        W82484  37.932  25.161   3.322
17225W        W82485   0.409  39.867  11.579
17226W        W82486  21.648  42.262   4.780
17227W        W82487  35.267  41.510   0.207
17228W        W82488  21.281  30.126   0.758
17229W        W82489  23.702   2.256   2.490
17230W        W82490  19.811  17.284   2.650
17231W        W82491  29.939  10.176   3.392
17232W        W82492  12.629  42.256  10.676
17233W        W82493  14.160  20.969  13.950
17234W        W82494  42.894  35.665  13.559
17235W        W82495  14.657  34.220  11.979
17236W        W82496   3.417  18.810   4.668
17237W        W82497   1.851  24.185   9.519
17238W        W82498  44.477  12.903  11.252
17239W        W82499  40.873  31.915   4.361
17240W        W82500  36.403   1.525  14.033
17241W        W82501  40.520  20.679   0.943
17242W        W82502  33.913  20.556   2.667
17243W        W82503  14.021   8.840  13.242
17244W        W82504  18.426  33.117   0.869
17245W        W82505  14.654   1.324   1.675
17246W        W82506   1.060  36.407   2.352
17247W        W82507   6.489  19.748   4.581
17248W        W82508  25.992  34.808   3.807
17249W        W82509  30.429   2.258   3.125
17250W        W82510   5.388  16.598   0.873
17251W        W82511   0.395  37.756   1.191
17252W        W82512  44.016  29.603   0.290
17253W        W82513  38.901  39.004   1.656
17254W        W82514  13.527  12.810   0.919
17255W        W82515  35.393  38.402  13.824
17256W        W82516  43.862  33.022   0.800
17257W        W82517  33.969  14.548  14.169
17258W        W82518  10.313  33.668   3.253
17259W        W82519  10.541  40.066  13.060
17260W        W82520  40.576  27.548   3.272
17261W        W82521  32.120  39.409   0.388
17262W        W82522  13.714   7.739  13.288
17263W        W82523  43.531  37.654   1.380
17264W        W82524  11.291   1.724   1.688
17265W        W82525  41.253  32.444  12.025
17266W        W82526  13.837  20.262   0.936
17267W        W82527  30.629  15.763   3.253
17268W        W82528   2.212  32.893  14.970
17269W        W82529  32.442  17.152   3.074
17270W        W82530  44.454  22.785  11.664
17271W        W82531  42.497  33.633   2.406
17272W        W82532  21.448  40.565  11.101
17273W        W82533  41.951  26.660  14.231
17274W        W82534  27.035  16.078  14.360
17275W        W82535  36.316  42.698   1.305
17276W        W82536   9.361  33.154   3.614
17277W        W82537   3.822  33.444   4.119
17278W        W82538  11.165  25.148  14.755
17279W        W82539   6.335  16.661   4.602
17280W        W82540  27.011  33.303  13.789
17281W        W82541  32.841  39.458   4.208
17282W        W82542  33.797   7.953  14.954
17283W        W82543  42.948  24.907   2.897
17284W        W82544  36.405   0.737   0.852
17285W        W82545  13.074   2.740  13.395
17286W        W82546  11.543  16.838  11.054
17287W        W82547  31.464  19.230  13.349
17288W        W82548  29.666  34.480   3.286
17289W        W82549  25.155  11.302  12.559
17290W        W82550  16.119  37.962   1.260
17291W        W82551  12.884   2.655   3.063
17292W        W82552   7.235   4.881  12.623
17293W        W82553  20.965  16.275   2.335
17294W        W82554  36.916  35.146  12.590
17295W        W82555   3.117  16.225   3.375
17296W        W82556  22.007  22.933   0.920
17297W        W82557   8.800   7.866   4.745
17298W        W82558  37.188  43.764  13.073
17299W        W82559  43.833  20.472   2.984
17300W        W82560  41.736  36.394   0.774
17301W        W82561  37.051   6.811  11.905
17302W        W82562  34.426   7.453   0.443
17303W        W82563  12.417  30.132   5.067
17304W        W82564  33.924  31.917  13.747
17305W        W82565  19.242  33.477   3.269
17306W        W82566  32.500  30.383   2.318
17307W        W82567  29.555  16.858   0.039
17308W        W82568  33.661  29.211   4.213
17309W        W82569  16.157  19.212  11.601
17310W        W82570  26.481  21.578  12.633
17311W        W82571  36.273  13.618  12.951
17312W        W82572  23.063  16.156   1.677
17313W        W82573  18.788   3.226   2.737
17314W        W82574   4.879  19.099  12.179
17315W        W82575  34.990  35.423  12.145
17316W        W82576  10.439  19.941  12.622
17317W        W82577  16.097  21.955  13.784
17318W        W82578   1.688  41.092  12.935
17319W        W82579  11.842  20.105   1.954
17320W        W82580  19.306   1.400   0.785
17321W        W82581  33.541  36.368  13.277
17322W        W82582  19.319  35.086  12.883
17323W        W82583  39.850  28.007   4.335
17324W        W82584  15.237   4.559   0.453
17325W        W82585  16.688  40.494  14.881
17326W        W82586   2.461   8.403   0.207
17327W        W82587  31.764   8.710  12.018
17328W        W82588   4.504  36.178  14.951
17329W        W82589   3.240  27.010  12.835
17330W        W82590   2.847  29.503   9.979
17331W        W82591  14.121  27.124  14.017
17332W        W82592  29.603   0.966   0.968
17333W        W82593  17.203  34.130  12.466
17334W        W82594  29.701  39.892  12.556
17335W        W82595   6.810   1.841   4.094
17336W        W82596  33.523  10.371   2.390
17337W        W82597  19.733  10.876   2.961
17338W        W82598  21.452  42.337   0.417
17339W        W82599   4.271  39.512  11.720
17340W        W82600  21.229  23.238   4.550
17341W        W82601   3.281   2.934  12.909
17342W        W82602  28.164  42.866  11.940
17343W        W82603  21.952  16.679  14.194
17344W        W82604  26.599  42.499   4.164
17345W        W82605  23.042  24.675  12.489
17346W        W82606  17.466   5.706   4.598
17347W        W82607  15.169   2.925  11.014
17348W        W82608  18.244  10.577   1.750
17349W        W82609   1.131  31.220  12.824
17350W        W82610   6.874  30.724  12.800
17351W        W82611  40.228  15.030   4.533
17352W        W82612  10.008  27.092   2.136
17353W        W82613  10.145  17.330   2.936
17354W        W82614  39.304  31.977  12.002
17355W        W82615  22.843  44.663   2.679
17356W        W82616  33.090  10.757  14.016
17357W        W82617  41.284  29.140  12.899
17358W        W82618  23.332  19.851  11.471
17359W        W82619  23.616  32.658  13.010
17360W        W82620  25.914   4.769   3.647
17361W        W82621  28.416  20.264  14.622
17362W        W82622  12.383  35.361  11.219
17363W        W82623   3.413  39.902   0.038
17364W        W82624  42.471  31.871  12.635
17365W        W82625   7.729  11.386   0.308
17366W        W82626  29.409  41.982   1.500
17367W        W82627  31.381  27.755  11.126
17368W        W82628  33.774  13.205   2.704
17369W        W82629  34.118  19.697  14.060
17370W        W82630   1.952   7.722   0.463
17371W        W82631   8.903  31.585   1.929
17372W        W82632   9.317  15.845  14.249
17373W        W82633   9.892  38.874   2.227
17374W        W82634  39.949  20.043  11.956
17375W        W82635   2.433  38.863   2.763
17376W        W82636  33.718  19.096  12.273
17377W        W82637   2.244  19.546   3.166
17378W        W82638  11.920   5.228  13.245
17379W        W82639  43.338  36.826   1.216
17380W        W82640  30.443  30.020   4.309
17381W        W82641  38.586   7.372  12.085
17382W        W82642  10.887   4.771   9.817
17383W        W82643  23.113  23.985  14.788
17384W        W82644  40.629  21.189  11.786
17385W        W82645  22.520  42.461  10.821
17386W        W82646  31.409  42.721  13.068
17387W        W82647  31.987   1.134   1.917
17388W        W82648  11.072  20.278   5.062
17389W        W82649  23.074  15.555  11.096
17390W        W82650  30.527  25.555  11.518
17391W        W82651  21.582   4.932   3.093
17392W        W82652   6.675  24.527  14.340
17393W        W82653  32.170  11.356  10.201
17394W        W82654  38.582  10.076   0.484
17395W        W82655  43.451  30.167  10.550
17396W        W82656  27.403   9.271  13.954
17397W        W82657  13.711  21.384   9.981
17398W        W82658  20.147   4.672  11.473
17399W        W82659  12.882  19.034   2.772
17400W        W82660  10.505  24.462   1.957
17401W        W82661  38.727  18.387   3.767
17402W        W82662  39.589  11.332   1.908
17403W        W82663  13.654  25.327   2.284
17404W        W82664   2.741   3.999  13.510
17405W        W82665  41.872  29.076  13.947
17406W        W82666   9.391  23.721   1.822
17407W        W82667  20.149   7.411  12.487
17408W        W82668  41.437   1.212  13.454
17409W        W82669   0.776  43.750   3.142
17410W        W82670   2.632  33.258   3.590
17411W        W82671   0.281  17.855   1.601
17412W        W82672   7.223  13.873  11.560
17413W        W82673  23.566   2.130   1.606
17414W        W82674   4.719  37.054   1.482
17415W        W82675  24.248  31.905   2.365
17416W        W82676  30.720  44.464  11.647
17417W        W82677  29.495   1.795   0.004
17418W        W82678   0.013  42.384  12.574
17419W        W82679  42.281  34.085   3.756
17420W        W82680   3.549  20.423  12.905
17421W        W82681  32.998  19.258  12.481
17422W        W82682  10.364  14.176  12.975
17423W        W82683  34.559  44.824   0.360
17424W        W82684   9.928  34.145   2.742
17425W        W82685  36.427  44.806  14.912
17426W        W82686  39.860  38.556   4.733
17427W        W82687  42.498   9.920   1.495
17428W        W82688  37.792   5.689  10.707
17429W        W82689  34.482   8.721  14.189
17430W        W82690  32.526   6.506   2.878
17431W        W82691  16.131  19.569   2.226
17432W        W82692  41.313  42.765  14.327
17433W        W82693   3.401  12.638   1.593
17434W        W82694  35.133  37.567   4.281
17435W        W82695  21.719  35.184   3.257
17436W        W82696  32.024   9.347  12.479
17437W        W82697  30.283  33.788   1.433
17438W        W82698   4.314  14.295   2.007
17439W        W82699   9.697   2.790  14.414
17440W        W82700   6.718  41.114   2.883
17441W        W82701  43.002   6.177  11.176
17442W        W82702   2.971  35.494   4.635
17443W        W82703   3.487  34.837   0.792
17444W        W82704   5.824  37.965  12.639
17445W        W82705   4.103  15.667   4.365
17446W        W82706   5.939  26.642  10.630
17447W        W82707  16.985  32.183   0.251
17448W        W82708   0.653  10.753  11.114
17449W        W82709  17.524  15.107  14.859
17450W        W82710  35.774  39.054  14.860
17451W        W82711  37.913  37.906   0.770
17452W        W82712  24.009  19.735  14.736
17453W        W82713  20.636  11.888  14.288
17454W        W82714  19.517  38.080   0.207
17455W        W82715  15.886  14.514   3.178
17456W        W82716  22.599  16.527   3.550
17457W        W82717  24.598  25.159  11.678
17458W        W82718  11.176  37.881  12.880
17459W        W82719  11.782  15.512   0.748
17460W        W82720  29.025  24.937  11.718
17461W        W82721   3.869  21.022   2.502
17462W        W82722  31.680  17.602   3.705
17463W        W82723  44.512  21.044   4.024
17464W        W82724  32.517  40.356   0.482
17465W        W82725  20.704  18.237   0.843
17466W        W82726  28.958  16.658   2.192
17467W        W82727  34.591  21.563   2.286
17468W        W82728  24.813   6.630   0.800
17469W        W82729  21.672   9.648  12.161
17470W        W82730  38.319  34.129   3.698
17471W        W82731  37.528  18.211   4.322
17472W        W82732   6.735  12.478   2.656
17473W        W82733  28.033  20.147  14.309
17474W        W82734   6.032  17.163  12.810
17475W        W82735   5.980  43.527  11.814
17476W        W82736  44.920  38.341  11.126
17477W        W82737  13.246  25.039   1.080
17478W        W82738  31.336  12.371   4.194
17479W        W82739   5.341  13.624   0.757
17480W        W82740  26.276  29.061  11.049
17481W        W82741  28.497  29.124  13.554
17482W        W82742  20.543  14.564  13.074
17483W        W82743   6.876  38.781  12.953
17484W        W82744  37.251   1.367  11.724
17485W        W82745  13.174  14.988   0.307
17486W        W82746  29.032   6.341   0.390
17487W        W82747  36.816  22.930  14.902
17488W        W82748   5.827  24.199   0.057
17489W        W82749  35.144   7.683   4.845
17490W        W82750  37.074  29.889   2.695
17491W        W82751  40.180   9.127   2.841
17492W        W82752   1.675  36.610  13.012
17493W        W82753  25.896  29.062   2.810
17494W        W82754  11.049  29.009   0.377
17495W        W82755   7.253  32.898   3.159
17496W        W82756  15.377  29.711  11.209
17497W        W82757  32.212  31.876   3.252
17498W        W82758  20.783  23.458  13.949
17499W        W82759  17.817  16.057  13.442
17500W        W82760   0.473  21.937   4.091
17501W        W82761   6.341  33.914   1.756
17502W        W82762  34.507   9.228  13.935
17503W        W82763  24.222  17.123   0.319
17504W        W82764  21.101  39.968   4.852
17505W        W82765  25.728  41.945   1.539
17506W        W82766  12.311  36.427  12.023
17507W        W82767  34.471   3.341  11.139
17508W        W82768   3.461   4.486   5.112
17509W        W82769   9.164  35.960   1.301
17510W        W82770   3.174  34.592  11.704
17511W        W82771  13.357  25.193   3.821
17512W        W82772  29.196  29.452   0.685
17513W        W82773  25.412  32.262  13.036
17514W        W82774   2.426  12.868   5.090
17515W        W82775  20.866   8.950   2.312
17516W        W82776  22.975  11.328  14.846
17517W        W82777  20.307  13.624  13.846
17518W        W82778   0.368   5.936   1.194
17519W        W82779  25.016  40.785  14.185
17520W        W82780   1.292  44.949  13.078
17521W        W82781  16.524  38.476  13.008
17522W        W82782   8.196   9.366  14.496
17523W        W82783  11.948  20.098   2.477
17524W        W82784  35.809  10.930   4.516
17525W        W82785  29.915  17.130   3.763
17526W        W82786  14.228  37.892  14.887
17527W        W82787  13.664  43.935   4.959
17528W        W82788  11.314  18.204   1.584
17529W        W82789   6.331  39.913   1.626
17530W        W82790   6.095  33.111   0.289
17531W        W82791  24.273  31.707   2.862
17532W        W82792  17.786  43.300   3.998
17533W        W82793  14.048  20.194  11.500
17534W        W82794  19.379  20.688   1.898
17535W        W82795  14.728  10.712   0.371
17536W        W82796  20.954  24.425   4.067
17537W        W82797   2.947  42.033   0.257
17538W        W82798  35.265   6.833   0.897
17539W        W82799  32.044  14.098  12.864
17540W        W82800   8.298  28.666  14.044
17541W        W82801  34.639  18.752  14.820
17542W        W82802  21.562   7.818   4.083
17543W        W82803  40.433   7.591  14.278
17544W        W82804  34.872  17.021   2.156
17545W        W82805  39.542  37.450  14.480
17546W        W82806  10.213  16.132  12.699
17547W        W82807  41.991  40.245   3.098
17548W        W82808  23.573  43.372  13.176
17549W        W82809  32.845  36.670  11.628
17550W        W82810  33.401  39.352   4.263
17551W        W82811  23.324  35.057   1.656
17552W        W82812  32.666  37.355  13.483
17553W        W82813  36.061  27.735   2.705
17554W        W82814  24.446  16.214  13.616
17555W        W82815  32.997   0.352  10.217
17556W        W82816  42.001   0.319   1.381
17557W        W82817  27.589  13.694  13.188
17558W        W82818  37.045  25.535   2.529
17559W        W82819  23.429   6.707  12.520
17560W        W82820  33.995  42.481   1.145
17561W        W82821  23.126  10.672  12.899
17562W        W82822  21.433   1.645   1.491
17563W        W82823  35.076   6.967  11.711
17564W        W82824  28.422   3.227  12.578
17565W        W82825  28.991  35.343   0.908
17566W        W82826  35.898  30.666   0.741
17567W        W82827  42.924  40.915  14.963
17568W        W82828  27.732   9.800   0.780
17569W        W82829   4.299  33.013   2.167
17570W        W82830  12.173   4.131   1.866
17571W        W82831  30.721  43.788   0.311
17572W        W82832   2.042   1.098  14.141
17573W        W82833  25.531  39.769  12.068
17574W        W82834  18.452  33.968  14.023
17575W        W82835   8.130  18.694   4.885
17576W        W82836   3.891  28.588   1.456
17577W        W82837   3.184  16.071   0.813
17578W        W82838  28.204  10.208  12.517
17579W        W82839   6.762  39.608   2.920
17580W        W82840  20.236  36.295   4.253
17581W        W82841  41.754  30.944  13.021
17582W        W82842  15.252  35.086  12.905
17583W        W82843   4.994  14.549   2.716
17584W        W82844  29.157   3.632  11.438
17585W        W82845  16.367   9.476   4.719
17586W        W82846   8.316   0.890  13.435
17587W        W82847   3.546  43.939   1.345
17588W        W82848  43.543  20.014  11.563
17589W        W82849   8.604  10.165  12.759
17590W        W82850  15.067  12.214  11.136
17591W        W82851  18.267  42.076   0.731
17592W        W82852  26.625  17.215  10.262
17593W        W82853  19.649  28.580   4.754
17594W        W82854  25.053   9.724  11.879
17595W        W82855  16.722  29.102   4.392
17596W        W82856  44.920  16.320   3.572
17597W        W82857  44.371  41.213   2.743
17598W        W82858  10.705  32.884   2.359
17599W        W82859  30.352   5.677   1.126
17600W        W82860  21.114   0.781   4.108
17601W        W82861  37.802  38.366  11.064
17602W        W82862  21.980  33.669   0.240
17603W        W82863  14.081  35.945  11.723
17604W        W82864  28.986   2.780  11.895
17605W        W82865  25.750  41.032   4.519
17606W        W82866  26.521   2.603  14.951
17607W        W82867  25.889   8.937  12.877
17608W        W82868   7.349  10.344   2.454
17609W        W82869  29.240  37.584  11.294
17610W        W82870  22.203  24.234  14.867
17611W        W82871   2.875  18.332   3.645
17612W        W82872  10.914  32.423  11.015
17613W        W82873   4.822  23.562   1.941
17614W        W82874  28.553  12.038  11.105
17615W        W82875   4.435  37.321   3.393
17616W        W82876  22.915  21.271  10.090
17617W        W82877  10.795   9.899  12.002
17618W        W82878  20.242   3.330  11.681
17619W        W82879   9.215  23.481  10.441
17620W        W82880  29.540  34.414   3.775
17621W        W82881  24.121  29.477   2.226
17622W        W82882  32.424  35.914  12.614
17623W        W82883  40.790  43.965  12.589
17624W        W82884  39.868  12.287  13.621
17625W        W82885   9.195  16.019  14.712
17626W        W82886  36.821  39.318  12.997
17627W        W82887  26.173  12.010   0.057
17628W        W82888  21.788  43.741  11.907
17629W        W82889  16.643  14.706   3.993
17630W        W82890   3.622  20.115  14.423
17631W        W82891  28.274  30.804   3.543
17632W        W82892   2.930  18.647  13.853
17633W        W82893  10.408   5.290   3.576
17634W        W82894  23.863  34.997  10.638
17635W        W82895  20.574  32.826   0.790
17636W        W82896  21.754   9.199  13.832
17637W        W82897  11.325  34.066  12.009
17638W        W82898  16.082   5.746   2.116
17639W        W82899   9.890  29.035  10.736
17640W        W82900  29.872  37.979  11.529
17641W        W82901  21.088  28.691  12.976
17642W        W82902   8.277  14.251   0.398
17643W        W82903  42.126  23.188   2.696
17644W        W82904  39.253  13.769   4.554
17645W        W82905  27.851  21.583   0.293
17646W        W82906  13.310  25.984  10.483
17647W        W82907  28.889  12.123   0.509
17648W        W82908  19.001   5.618   3.704
17649W        W82909  34.815  32.523  11.171
17650W        W82910   0.311  40.080   1.699
17651W        W82911  27.437  34.485  14.889
17652W        W82912  18.192   4.100   1.139
17653W        W82913   4.676  40.304   2.890
17654W        W82914   4.123  43.947   3.729
17655W        W82915  35.251  10.743  14.963
17656W        W82916  36.550  26.708  14.861
17657W        W82917  33.519  21.704  12.475
17658W        W82918  38.121  42.514  11.004
17659W        W82919  26.176   9.991  11.380
17660W        W82920  37.873  44.347   4.097
17661W        W82921  26.376  26.873  14.303
17662W        W82922   7.490  44.760  14.761
17663W        W82923   0.542  18.200  13.900
17664W        W82924  14.014  15.832   0.815
17665W        W82925  29.723  24.017   3.136
17666W        W82926  24.200  29.152  11.748
17667W        W82927  33.181  21.547  11.928
17668W        W82928  38.395  10.226   2.602
17669W        W82929  18.746   5.977  13.196
17670W        W82930  27.716  13.731  12.679
17671W        W82931  24.314  37.742  13.064
17672W        W82932  36.054  37.540   4.843
17673W        W82933  10.665  35.891   0.480
17674W        W82934  19.102  39.862   0.069
17675W        W82935  39.588   3.662   9.893
17676W        W82936  37.968  26.701  14.949
17677W        W82937  34.858  24.200  14.860
17678W        W82938  36.117  19.900   3.730
17679W        W82939  42.333  11.493  12.135
17680W        W82940  22.566  42.844   0.637
17681W        W82941  24.025  33.813   2.191
17682W        W82942  15.737  12.527   2.954
17683W        W82943  27.157   2.300   0.387
17684W        W82944  26.070  22.447   2.435
17685W        W82945  32.199  13.933   9.801
17686W        W82946  33.348  39.877   3.598
17687W        W82947  26.206  43.819  14.435
17688W        W82948  26.278  16.911   1.874
17689W        W82949  29.010  44.460   1.303
17690W        W82950  30.384   3.787   0.056
17691W        W82951  43.864  41.932   4.607
17692W        W82952  44.956   3.497  10.843
17693W        W82953  25.436  35.850  13.988
17694W        W82954  21.233  42.557   4.635
17695W        W82955  25.131  24.052   0.016
17696W        W82956  42.898   5.928  10.742
17697W        W82957  29.390  21.823  14.432
17698W        W82958   4.313  19.693  13.439
17699W        W82959   7.174   7.289  12.284
17700W        W82960  34.065  34.294  10.947
17701W        W82961  19.989  34.273   4.255
17702W        W82962  40.288  37.023   4.164
17703W        W82963   2.413  40.444   0.746
17704W        W82964   6.864  10.996   4.248
17705W        W82965  15.313  28.318   2.795
17706W        W82966  29.730   9.387   2.923
17707W        W82967   5.782  23.746   1.281
17708W        W82968   7.992   4.817   3.889
17709W        W82969  31.735   8.353  12.446
17710W        W82970   1.848   9.272  11.628
17711W        W82971  37.482  23.225  13.092
17712W        W82972   0.978   6.750   0.718
17713W        W82973  43.512  20.111   1.383
17714W        W82974   3.647  30.615  13.885
17715W        W82975  37.120   6.823   0.211
17716W        W82976   5.234  44.072  12.144
17717W        W82977  26.891  44.513  11.161
17718W        W82978  38.650  10.894   0.857
17719W        W82979  43.178  32.518  12.064
17720W        W82980  11.968  43.913   4.506
17721W        W82981  18.212  15.996  11.171
17722W        W82982  32.431  17.323  10.323
17723W        W82983  30.503  44.396   3.112
17724W        W82984  10.669  11.701  14.238
17725W        W82985  40.381  27.709  14.849
17726W        W82986  13.781  11.843   2.470
17727W        W82987  42.770  20.126  11.864
17728W        W82988  15.729  25.446   1.314
17729W        W82989  19.198   2.785  13.494
17730W        W82990  41.391   1.680   1.821
17731W        W82991  31.974   8.183  14.398
17732W        W82992  40.673  33.646  10.181
17733W        W82993  14.377   8.740  12.415
17734W        W82994  44.431   4.575  12.126
17735W        W82995  34.676  26.286  10.891
17736W        W82996  43.873  34.804  12.970
17737W        W82997  27.417  43.535  12.275
17738W        W82998   4.236  42.480  13.794
17739W        W82999   9.335   0.911  12.449
17740W        W83000   3.649  44.823   4.701
17741W        W83001  12.979  29.276   2.400
17742W        W83002  13.144  41.630  11.135
17743W        W83003  35.601  15.341  10.782
17744W        W83004  34.242  41.094   1.385
17745W        W83005  41.796  23.821  13.628
17746W        W83006  26.359  23.352   3.706
17747W        W83007  15.349  44.503  12.344
17748W        W83008  18.143  24.549  11.895
17749W        W83009  25.644  27.677  14.899
17750W        W83010  10.320  40.210  10.485
17751W        W83011  26.255   0.842  11.568
17752W        W83012  43.318  26.892  13.468
17753W        W83013  39.701  37.079   0.434
17754W        W83014  28.997  26.665  13.995
17755W        W83015  29.553  27.311   0.362
17756W        W83016   7.344   8.742  13.014
17757W        W83017  25.572  14.355   2.646
17758W        W83018  43.811   3.177   4.189
17759W        W83019  22.055  25.031   0.554
17760W        W83020   0.667   7.182  14.585
17761W        W83021  17.434  27.672  12.403
17762W        W83022  35.953  30.661  10.756
17763W        W83023  40.128  22.680  13.466
17764W        W83024  35.424  11.162  13.720
17765W        W83025  39.124   0.285   4.079
17766W        W83026  11.894  39.182   0.232
17767W        W83027  41.284  18.273  14.488
17768W        W83028  34.321  12.643   4.169
17769W        W83029  29.161  18.775  13.958
17770W        W83030  16.054  37.088  11.415
17771W        W83031  19.164  37.534   4.933
17772W        W83032  29.982  41.373  12.158
17773W        W83033  28.708  35.608   2.352
17774W        W83034  19.266  12.233  13.003
17775W        W83035  43.726  38.025   3.644
17776W        W83036   9.674  16.816  11.210
17777W        W83037  19.880  18.159  13.905
17778W        W83038  32.293  21.169  14.416
17779W        W83039  14.326  28.848   3.407
17780W        W83040  42.978  22.171  13.547
17781W        W83041  10.860   8.225  13.895
17782W        W83042   3.276   0.557  11.929
17783W        W83043  40.386   5.518   4.082
17784W        W83044   7.940  18.746  14.340
17785W        W83045   1.840  38.042   2.742
17786W        W83046  38.049  34.835   4.163
17787W        W83047   5.137  19.887   0.262
17788W        W83048  27.680  29.504  12.375
17789W        W83049   4.245  17.711   3.839
17790W        W83050  24.654  27.899  12.444
17791W        W83051  12.297  13.315   2.689
17792W        W83052  15.331   3.854  13.033
17793W        W83053  41.331  25.428   2.372
17794W        W83054  16.237  15.147   1.872
17795W        W83055  29.915  41.284  14.238
17796W        W83056  11.445   3.479   4.160
17797W        W83057   5.630  42.513   4.448
17798W        W83058  16.487  42.523  12.270
17799W        W83059  27.502   5.850  14.884
17800W        W83060  36.808  42.138  11.931
17801W        W83061  20.844  23.220  14.581
17802W        W83062  10.607  42.902  12.517
17803W        W83063  40.068  42.975   0.232
17804W        W83064  32.005  32.699  13.464
17805W        W83065  34.858   4.256   1.953
17806W        W83066  41.977  34.957  14.920
17807W        W83067  17.815   0.976   2.739
17808W        W83068  35.830   6.610  12.655
17809W        W83069  24.192  17.240  14.809
17810W        W83070  33.280  25.146  14.905
17811W        W83071   3.990  30.571  14.847
17812W        W83072  39.522  11.090  13.591
17813W        W83073   1.244  42.385   2.640
17814W        W83074  12.906  28.581   4.534
17815W        W83075  19.920  39.396   3.146
17816W        W83076  32.714   9.319  13.939
17817W        W83077  36.835  28.127  13.624
17818W        W83078  39.345  44.879  11.858
17819W        W83079  15.249   6.214  12.446
17820W        W83080  17.592  31.347   0.914
17821W        W83081  10.780  11.261   3.201
17822W        W83082   0.318   4.838  13.211
17823W        W83083  30.410  28.578  12.542
17824W        W83084  39.880   1.200  13.743
17825W        W83085  20.768  41.858   1.459
17826W        W83086  42.836  22.258  14.905
17827W        W83087  42.303  31.177  14.450
17828W        W83088  28.520  34.980  10.799
17829W        W83089  16.800  29.127   3.852
17830W        W83090  10.364  20.620   2.637
17831W        W83091   6.424  10.100   0.696
17832W        W83092  32.713  21.635   2.392
17833W        W83093  20.799  32.964   2.667
17834W        W83094  28.378  17.658  10.668
17835W        W83095  33.872  39.406   3.358
17836W        W83096  18.672   4.628  12.580
17837W        W83097  18.329  20.003  13.854
17838W        W83098  22.466  18.010  14.338
17839W        W83099   8.402  15.713  12.361
17840W        W83100  22.092  18.036   4.170
17841W        W83101  28.882  25.365  13.317
17842W        W83102  37.490  36.637   1.599
17843W        W83103  10.186  36.685  10.597
17844W        W83104  26.522  34.975   3.015
17845W        W83105  13.955   9.682  12.399
17846W        W83106   2.458  42.321  13.510
17847W        W83107  10.508  28.359   2.108
17848W        W83108  39.135  32.625   3.674
17849W        W83109  13.374  19.957  12.138
17850W        W83110  42.861  22.025   1.223
17851W        W83111  16.790  17.604   1.788
17852W        W83112  23.295  43.733  11.017
17853W        W83113  41.804   9.688   3.760
17854W        W83114  17.630  36.369  14.946
17855W        W83115   7.129  36.036   2.241
17856W        W83116   9.915  35.497  14.405
17857W        W83117  33.093  27.061  12.572
17858W        W83118  41.823  31.787   3.620
17859W        W83119  12.815  41.365  14.113
17860W        W83120   6.885  29.247   1.487
17861W        W83121  22.138  41.479  11.483
17862W        W83122  35.336  18.756   2.731
17863W        W83123  44.969  24.521   0.494
17864W        W83124  17.863  29.418  11.983
17865W        W83125  19.300   6.146   2.189
17866W        W83126  11.860   8.352   1.359
17867W        W83127   7.297  36.995   1.470
17868W        W83128  33.066   3.360   1.877
17869W        W83129  24.837   1.220  12.535
17870W        W83130  40.340  41.139   2.750
17871W        W83131  10.622   0.068   1.155
17872W        W83132  24.092   3.382  11.613
17873W        W83133   2.801  38.341  12.541
17874W        W83134  37.578  18.000  13.492
17875W        W83135  23.200  43.702  12.260
17876W        W83136  18.802  38.419   1.198
17877W        W83137  20.739  25.875  14.898
17878W        W83138  18.966   5.179  13.407
17879W        W83139  33.570  29.112   5.041
17880W        W83140  43.029  12.745  13.497
17881W        W83141  39.515  24.164   3.506
17882W        W83142  29.575  14.268  14.612
17883W        W83143  20.225  42.940   0.241
17884W        W83144  44.904  41.756   3.690
17885W        W83145  33.724  19.204   0.910
17886W        W83146  12.018  44.052   2.980
17887W        W83147   8.348  25.569  10.469
17888W        W83148  31.438  41.468  12.033
17889W        W83149  39.962  17.311  12.530
17890W        W83150  27.457  39.631  12.080
17891W        W83151  38.264  21.442  12.065
17892W        W83152  39.581  36.573  10.628
17893W        W83153  41.348  15.210   4.115
17894W        W83154  17.664  42.517   2.878
17895W        W83155  39.464  14.101  14.681
17896W        W83156  17.073   7.715  14.400
17897W        W83157  26.941   6.443   2.712
17898W        W83158  13.019  25.482  12.337
17899W        W83159  29.964   1.537   1.829
17900W        W83160  42.632   7.385  13.974
17901W        W83161  16.094   9.719  11.431
17902W        W83162  29.628  18.501   0.736
17903W        W83163  22.320  31.604   2.891
17904W        W83164  29.685  37.408   3.115
17905W        W83165  13.299  44.091  13.933
17906W        W83166   4.352  32.010  12.825
17907W        W83167  15.768  19.327   1.464
17908W        W83168   8.610  15.227  12.426
17909W        W83169  24.064   8.151  11.417
17910W        W83170  15.075  10.366  11.076
17911W        W83171  23.248  37.181  10.168
17912W        W83172  34.323   6.314  11.960
17913W        W83173  20.529   2.370   1.733
17914W        W83174   1.480  30.980  11.499
17915W        W83175   2.862  17.562  12.376
17916W        W83176  39.993  44.255   1.350
17917W        W83177  36.080  21.698   0.296
17918W        W83178  20.724  36.685   2.906
17919W        W83179  32.136  32.000   0.391
17920W        W83180  10.689  44.728   3.130
17921W        W83181  31.894  12.847   1.340
17922W        W83182   0.975  10.280   0.429
17923W        W83183  14.611  41.057  10.363
17924W        W83184  17.674  31.048   0.233
17925W        W83185  36.488  40.004   0.918
17926W        W83186  44.018  18.364   3.799
17927W        W83187  14.823  26.592  12.540
17928W        W83188  15.842  42.412   2.715
17929W        W83189  38.619  17.210   4.318
17930W        W83190  40.283  27.126   0.462
17931W        W83191   3.819  33.737  11.826
17932W        W83192  12.316  20.334  12.459
17933W        W83193  12.506  11.252   0.082
17934W        W83194  37.408  25.092   2.531
17935W        W83195  31.091   8.364   2.775
17936W        W83196  18.776  32.146   0.521
17937W        W83197  27.712  36.478   4.637
17938W        W83198  27.238  10.277   0.003
17939W        W83199  41.483  37.803   0.975
17940W        W83200   8.208   9.445   5.057
17941W        W83201  10.885  29.964   1.405
17942W        W83202  24.760  42.153  14.101
17943W        W83203  22.310   0.848  10.610
17944W        W83204  20.532  34.448   3.071
17945W        W83205   2.055  30.899   2.294
17946W        W83206  39.222  25.379   4.803
17947W        W83207  13.164  44.480   1.803
17948W        W83208   8.723  43.914   0.239
17949W        W83209  20.485  15.121  14.402
17950W        W83210  31.203   4.059  11.121
17951W        W83211   7.017  33.956   4.060
17952W        W83212  13.845  43.597   3.852
17953W        W83213  23.501  17.494   2.611
17954W        W83214  26.776   2.234  12.010
17955W        W83215   8.697  13.244  12.915
17956W        W83216  11.146  29.512   3.448
17957W        W83217  31.364  23.482   4.615
17958W        W83218  43.911   0.514   1.218
17959W        W83219   5.493  12.577  13.476
17960W        W83220  27.691  17.677   3.920
17961W        W83221  41.787  22.456  13.772
17962W        W83222  40.894  12.276   3.153
17963W        W83223  17.079  10.277   2.565
17964W        W83224   8.975   6.339  12.580
17965W        W83225  30.639  19.568   1.836
17966W        W83226  16.816   4.910  11.876
17967W        W83227  16.181  12.644  11.012
17968W        W83228  39.576   2.620  10.571
17969W        W83229  41.914  30.931   2.731
17970W        W83230  35.419  41.178  11.573
17971W        W83231   0.422  17.516   4.168
17972W        W83232  38.080   5.331   5.020
17973W        W83233   2.261  27.971  12.993
17974W        W83234  17.831  23.310   2.237
17975W        W83235   9.446  25.069  13.591
17976W        W83236  28.594  13.692  12.998
17977W        W83237  35.340  13.309  11.709
17978W        W83238   2.529  21.573  12.423
17979W        W83239  27.111   3.598  11.241
17980W        W83240  12.007  28.020  14.018
17981W        W83241  10.764   9.685   2.267
17982W        W83242  34.076   9.840  13.856
17983W        W83243  16.243  19.840   2.655
17984W        W83244   1.395  38.967   3.772
17985W        W83245  41.018  23.978  11.117
17986W        W83246  26.902  36.419  13.066
17987W        W83247   1.844  30.951  11.068
17988W        W83248   0.692  16.611  10.446
17989W        W83249  21.940   3.010   4.076
17990W        W83250  34.078  20.641   3.575
17991W        W83251  20.176  18.724  12.432
17992W        W83252  18.831  41.000   2.441
17993W        W83253  32.239  16.814  11.525
17994W        W83254  20.692  41.918   2.343
17995W        W83255  38.532  12.159   4.557
17996W        W83256  28.966  33.309  11.567
17997W        W83257  31.531   3.471  10.859
17998W        W83258  32.973  32.998   4.687
17999W        W83259   5.353  36.129  14.158
18000W        W83260  27.627  36.993  13.826
18001W        W83261  42.623   1.905  14.410
18002W        W83262  40.875  16.220  13.297
18003W        W83263  33.670  41.752   2.316
18004W        W83264  33.717  40.008  12.064
18005W        W83265  37.641   5.411  13.434
18006W        W83266  19.796  10.743  12.390
18007W        W83267  40.087   0.780  14.033
18008W        W83268  37.852   2.354  12.427
18009W        W83269   2.021   8.000   4.151
18010W        W83270  19.859   2.535  10.833
18011W        W83271  44.415  20.954  11.319
18012W        W83272   0.690   0.559   2.852
18013W        W83273   2.221  26.641  13.340
18014W        W83274  42.424  31.089  13.558
18015W        W83275  22.645  34.060  12.907
18016W        W83276  10.222  13.388  10.789
18017W        W83277  17.737  21.811  10.313
18018W        W83278  26.281  22.030  11.159
18019W        W83279  28.587  13.173  13.079
18020W        W83280  17.361  24.649   2.179
18021W        W83281  33.063  25.466  13.359
18022W        W83282  38.951   6.126   0.772
18023W        W83283  14.373   7.005  12.298
18024W        W83284   9.065  24.077   3.743
18025W        W83285  43.458  17.999  14.429
18026W        W83286  34.557  19.673   1.735
18027W        W83287  20.670  10.305  13.873
18028W        W83288  29.219  11.395  11.526
18029W        W83289  11.835  40.163  13.442
18030W        W83290  21.571   2.457   1.925
18031W        W83291  19.229  10.253  11.149
18032W        W83292  32.784  15.197   3.966
18033W        W83293  10.788  31.626   4.527
18034W        W83294  37.017  10.648   4.194
18035W        W83295  28.543  27.680  13.645
18036W        W83296   6.460  44.424  13.383
18037W        W83297   3.953  30.470  13.480
18038W        W83298  28.554  34.294   4.601
18039W        W83299   3.672  22.644   1.814
18040W        W83300  27.812  43.824   1.408
18041W        W83301  23.371   1.161  11.557
18042W        W83302   1.942  18.071  11.681
18043W        W83303  43.219   7.298   0.012
18044W        W83304   1.772  16.678   3.089
18045W        W83305   5.708  13.149  13.969
18046W        W83306  26.433  44.565  14.340
18047W        W83307  37.869   5.847  13.599
18048W        W83308  43.446  39.142   3.784
18049W        W83309  29.575  29.898   4.878
18050W        W83310  27.410  15.256   1.674
18051W        W83311   4.870  15.363  12.948
18052W        W83312  36.477  35.516  10.942
18053W        W83313   5.451   0.574  13.932
18054W        W83314  19.824   4.446  11.795
18055W        W83315  24.185  18.041  12.157
18056W        W83316  41.218  23.122  10.836
18057W        W83317  18.277  38.537  14.072
18058W        W83318  42.482   5.859   0.811
18059W        W83319   5.908  32.098   3.765
18060W        W83320   5.416  27.735   2.361
18061W        W83321   1.837  43.473   4.703
18062W        W83322   0.963  30.132   9.965
18063W        W83323  33.828  39.024  11.135
18064W        W83324  43.484   7.172   3.704
18065W        W83325  13.809  31.882   3.686
18066W        W83326  44.192   1.459  14.573
18067W        W83327  43.569  14.660  10.595
18068W        W83328  21.775   3.769   0.046
18069W        W83329  21.000   4.905   2.387
18070W        W83330  29.317  39.964   4.110
18071W        W83331   8.494  18.914  12.036
18072W        W83332   0.299   8.738   3.407
18073W        W83333  17.501  37.910   2.595
18074W        W83334  13.518  14.964   2.080
18075W        W83335  23.936  23.538  12.831
18076W        W83336  34.881  31.037  14.018
18077W        W83337  41.055  42.332  13.337
18078W        W83338  31.424  23.000  10.196
18079W        W83339   7.622  18.364  13.002
18080W        W83340  14.163   3.890  13.904
18081W        W83341   6.930   7.847  13.468
18082W        W83342  29.696  40.951  12.205
18083W        W83343  39.543  38.089   3.485
18084W        W83344  21.050  12.777   3.581
18085W        W83345  14.740  14.989  10.630
18086W        W83346  28.495  38.387  10.567
18087W        W83347  18.291  38.534   2.295
18088W        W83348   5.475  13.167  11.721
18089W        W83349  24.436   1.854  12.072
18090W        W83350  44.270  43.235   4.270
18091W        W83351  19.996   7.928  14.754
18092W        W83352   7.674  18.138   1.353
18093W        W83353   4.834  44.469  13.224
18094W        W83354  13.044  17.081  11.591
18095W        W83355   0.182  44.295   2.042
18096W        W83356  40.501  41.678  11.235
18097W        W83357  28.914  18.792   1.290
18098W        W83358  44.256  33.111  12.369
18099W        W83359  20.490  28.453  10.739
18100W        W83360  18.025  29.848  13.153
18101W        W83361  41.575   0.350   2.171
18102W        W83362   5.740   4.957   2.407
18103W        W83363  20.241  12.706  10.234
18104W        W83364   6.263  44.199  12.902
18105W        W83365  19.723  34.542  11.221
18106W        W83366  20.620   1.329  10.734
18107W        W83367  41.424  17.493  13.960
18108W        W83368  19.482   2.808   3.785
18109W        W83369  30.476  32.128   0.008
18110W        W83370   3.340  41.058  11.909
18111W        W83371  36.349  30.697   1.659
18112W        W83372   2.815  17.806   0.007
18113W        W83373  21.001  39.122  13.895
18114W        W83374   7.944  28.949  11.614
18115W        W83375   8.959  12.125  11.987
18116W        W83376  14.310   0.661   5.346
18117W        W83377   1.363  39.292   4.625
18118W        W83378  23.664   7.291   1.964
18119W        W83379  11.447  24.962  13.373
18120W        W83380  14.618   7.338  14.054
18121W        W83381   1.952   3.663   4.182
18122W        W83382  17.161  39.734   0.279
18123W        W83383   1.900   0.319  11.020
18124W        W83384  33.471  30.473   4.704
18125W        W83385  25.262  31.335  11.566
18126W        W83386  15.368  39.665  12.460
18127W        W83387   4.920  23.011  11.902
18128W        W83388  44.076  16.419  10.320
18129W        W83389   9.849   5.334  12.426
18130W        W83390  38.127  19.242  13.900
18131W        W83391   8.270  24.244  13.669
18132W        W83392  12.515  28.617   1.404
18133W        W83393  14.282  19.568   0.703
18134W        W83394   6.686  14.610  12.692
18135W        W83395  40.894  22.308  10.538
18136W        W83396   5.412   3.404  10.186
18137W        W83397  43.371  44.380  12.018
18138W        W83398  43.814  16.856  11.937
18139W        W83399  36.101  16.232   1.728
18140W        W83400   2.521  35.034   1.030
18141W        W83401  25.482  10.554   1.708
18142W        W83402  37.450   1.428   0.821
18143W        W83403   6.697  32.200  12.468
18144W        W83404  26.202  37.027   4.517
18145W        W83405  31.442  25.513  14.857
18146W        W83406  41.858  30.041   4.660
18147W        W83407  33.367  32.549   1.247
18148W        W83408  26.228   0.134   2.345
18149W        W83409  19.124  41.399   4.630
18150W        W83410   8.301   5.900   4.491
18151W        W83411  38.786  28.514  14.389
18152W        W83412  13.713   6.232   2.335
18153W        W83413  39.861   8.271   4.170
18154W        W83414   2.198  17.712   2.191
18155W        W83415  36.304   4.837  10.288
18156W        W83416  23.710  30.974  13.972
18157W        W83417  17.353  16.803   3.018
18158W        W83418  25.638   8.577  13.692
18159W        W83419  30.898  13.856   1.977
18160W        W83420  31.539  19.311   1.208
18161W        W83421   5.884  33.487  10.466
18162W        W83422   9.776  36.566   0.703
18163W        W83423  21.589  40.854  12.957
18164W        W83424  17.319  36.078   2.117
18165W        W83425  35.373  30.950  13.988
18166W        W83426  26.228   4.588   9.854
18167W        W83427  20.026  18.002  14.407
18168W        W83428  39.156   1.838  11.476
18169W        W83429  37.670  22.202  10.744
18170W        W83430   3.381  16.310   2.261
18171W        W83431  42.283  38.367   3.933
18172W        W83432  37.926   4.892  13.636
18173W        W83433  44.005  29.176   1.877
18174W        W83434  39.372  18.375  11.202
18175W        W83435  27.539  14.995  12.274
18176W        W83436  26.399  17.189   2.881
18177W        W83437  16.106  34.996   1.850
18178W        W83438  18.651  29.866  14.878
18179W        W83439  44.285  25.669  12.958
18180W        W83440  29.104   2.267  11.249
18181W        W83441  43.016  21.556   0.708
18182W        W83442   4.224  32.539  12.904
18183W        W83443  43.328  41.517  12.181
18184W        W83444  39.999   6.163   4.628
18185W        W83445  39.573  37.287   1.725
18186W        W83446  31.104  21.338   3.263
18187W        W83447  16.748   6.312  14.344
18188W        W83448  18.286  33.153   1.367
18189W        W83449   4.755   5.191  13.818
18190W        W83450   1.813  24.043  10.018
18191W        W83451   0.257  14.941  13.063
18192W        W83452  26.498  15.190   3.785
18193W        W83453  28.331   2.359   4.874
18194W        W83454  32.899  38.607  13.497
18195W        W83455  31.976   3.646  10.641
18196W        W83456  24.650  12.127   1.251
18197W        W83457   6.387  33.357  13.242
18198W        W83458  19.238  40.600   1.283
18199W        W83459  13.808   1.852  13.559
18200W        W83460  30.549  19.268  10.796
18201W        W83461  32.986   7.086  12.562
18202W        W83462  14.886  20.287  11.094
18203W        W83463  15.737   0.839  11.692
18204W        W83464   2.978  39.569   0.815
18205W        W83465  44.755  42.010  14.486
18206W        W83466  24.428  11.960  14.821
18207W        W83467   8.673  16.183   4.581
18208W        W83468  24.609   1.911  13.873
18209W        W83469  15.874  25.643  13.878
18210W        W83470  23.235  31.570   4.238
18211W        W83471  41.056   7.173  12.091
18212W        W83472  14.730  28.398  14.498
18213W        W83473  19.808  33.326   3.325
18214W        W83474   5.175   5.528   0.354
18215W        W83475  30.659  38.344   0.401
18216W        W83476  33.646  36.046   2.924
18217W        W83477   5.329  15.333   4.475
18218W        W83478  18.170   9.928   4.253
18219W        W83479  37.413  22.968   4.347
18220W        W83480  25.897  39.422   2.453
18221W        W83481  18.711  17.383  11.009
18222W        W83482   7.130  19.084  14.530
18223W        W83483  21.956  10.753   3.799
18224W        W83484  38.897  30.034   3.615
18225W        W83485  28.216  33.166   2.137
18226W        W83486   6.188  31.919   1.935
18227W        W83487  29.230   2.484   4.527
18228W        W83488   7.974   9.965  11.064
18229W        W83489  40.522  28.160   1.327
18230W        W83490  10.683  38.599  12.439
18231W        W83491   3.020  10.070  10.673
18232W        W83492  30.173  31.647   3.516
18233W        W83493  42.522  36.017  13.560
18234W        W83494  32.516  32.568   1.950
18235W        W83495  24.766  34.305   1.467
18236W        W83496  31.755  11.029   5.055
18237W        W83497   9.679  27.898   0.681
18238W        W83498  19.310  33.683  12.992
18239W        W83499  40.586  12.251   0.635
18240W        W83500  37.055  32.560   1.049
18241W        W83501   3.536  42.888   0.370
18242W        W83502   6.011  13.830  13.441
18243W        W83503  23.222  15.268   0.843
18244W        W83504  19.472   4.202   4.624
18245W        W83505  44.001  17.799   4.634
18246W        W83506  22.544  31.851   4.975
18247W        W83507  34.954  29.391  11.155
18248W        W83508  39.842  20.321  11.538
18249W        W83509  18.773   1.012   4.020
18250W        W83510  12.406   2.557  14.446
18251W        W83511  41.066  27.918  14.208
18252W        W83512   2.843  42.210  11.552
18253W        W83513   0.321   9.403   0.924
18254W        W83514  38.883  17.308   2.483
18255W        W83515  40.133  12.331   0.400
18256W        W83516  33.917  34.950   4.857
18257W        W83517   5.198   7.790  13.805
18258W        W83518  31.691  28.999  14.867
18259W        W83519  30.041  22.323  11.254
18260W        W83520  37.376   6.864   2.358
18261W        W83521  25.903  40.462   1.272
18262W        W83522  23.576  32.400   4.758
18263W        W83523  41.912  36.078   3.461
18264W        W83524  30.470  43.638  14.071
18265W        W83525  31.561  29.685   4.609
18266W        W83526  32.965  37.280   4.834
18267W        W83527  31.680  23.984   3.733
18268W        W83528  27.463   5.301   3.191
18269W        W83529   0.745  36.597   1.775
18270W        W83530  37.151  19.127   3.835
18271W        W83531  16.341  33.301  10.688
18272W        W83532  18.906   7.180   0.422
18273W        W83533  20.617  32.023  11.745
18274W        W83534  30.892  15.312   2.733
18275W        W83535   1.170   8.552   3.315
18276W        W83536  35.834  26.047   1.866
18277W        W83537  40.944  32.824   2.781
18278W        W83538  30.052  31.126   2.794
18279W        W83539  41.357  42.504   2.206
18280W        W83540  19.099  38.317   0.377
18281W        W83541  13.658   6.011  14.345
18282W        W83542  43.880  19.677  14.342
18283W        W83543   0.219  18.468  10.579
18284W        W83544  43.320  15.637  10.652
18285W        W83545  11.181  30.714  12.743
18286W        W83546  36.751   6.931   0.843
18287W        W83547  25.824   7.077   1.291
18288W        W83548  44.812   3.461   4.577
18289W        W83549   1.694  36.931  12.547
18290W        W83550   1.416  33.605   3.877
18291W        W83551  13.735  42.560  12.460
18292W        W83552   2.138  40.410  14.457
18293W        W83553  38.074   8.280  13.884
18294W        W83554  13.555  25.487   4.260
18295W        W83555  15.233  15.070   1.752
18296W        W83556   6.777  11.113   2.326
18297W        W83557  29.203  12.809  12.422
18298W        W83558  25.086  24.226  13.167
18299W        W83559   1.019  27.982  14.514
18300W        W83560   2.968  17.804   0.519
18301W        W83561  28.452  34.017  12.879
18302W        W83562  25.432  11.891   2.393
18303W        W83563  17.273  23.042   4.898
18304W        W83564  37.337   0.935  14.387
18305W        W83565  40.805  23.013   0.027
18306W        W83566  44.359   5.467   3.196
18307W        W83567   5.818  30.918   2.714
18308W        W83568  18.193  20.779   2.542
18309W        W83569   7.685   9.796   3.927
18310W        W83570  27.656   3.355   4.914
18311W        W83571  11.047  17.341   1.893
18312W        W83572   2.431  32.533   4.212
18313W        W83573   5.339  27.547   0.938
18314W        W83574  17.084  29.668  10.565
18315W        W83575  32.385  24.282   0.935
18316W        W83576  42.855  28.975  14.815
18317W        W83577   6.565  24.441   4.272
18318W        W83578  40.898  19.669   0.996
18319W        W83579  14.639  40.244  13.278
18320W        W83580  40.871  26.502   1.525
18321W        W83581  13.358  27.965   0.508
18322W        W83582  28.015  27.031   1.958
18323W        W83583  43.950  31.546   1.219
18324W        W83584  15.282   0.835  11.464
18325W        W83585  24.144  35.422  11.972
18326W        W83586  30.044   6.917  11.713
18327W        W83587   0.855  33.571   1.739
18328W        W83588  39.403  16.174  13.104
18329W        W83589  19.720  10.272  12.174
18330W        W83590  26.693  25.670  13.892
18331W        W83591  11.291  16.043  13.582
18332W        W83592  37.177   0.380   2.311
18333W        W83593  27.444   9.729  12.474
18334W        W83594  27.576  39.197  10.833
18335W        W83595  11.133  13.582  13.377
18336W        W83596  11.102  11.152   2.736
18337W        W83597  44.821  23.585  11.006
18338W        W83598   8.592  29.515  13.448
18339W        W83599   4.158  27.003  13.246
18340W        W83600  42.320  29.886  14.052
18341W        W83601  13.273  23.934  11.132
18342W        W83602  24.457  25.270   4.142
18343W        W83603  20.683   5.792  14.464
18344W        W83604  30.020  35.457   4.918
18345W        W83605  43.486  31.360  14.917
18346W        W83606  44.957  33.578  12.359
18347W        W83607  32.079  16.705   0.601
18348W        W83608   5.668   7.884  12.496
18349W        W83609  15.881  39.888   3.399
18350W        W83610  11.764   2.473   4.469
18351W        W83611  18.762  16.296  12.465
18352W        W83612  41.371   1.318  13.970
18353W        W83613  41.868   5.790  12.914
18354W        W83614  31.673  30.562  14.343
18355W        W83615  34.671  30.585  13.095
18356W        W83616  35.335  29.595  13.777
18357W        W83617  22.759  26.627  11.168
18358W        W83618   5.693  13.805  11.410
18359W        W83619  10.443  40.898  10.663
18360W        W83620   7.338  11.261  14.764
18361W        W83621  32.922  36.573  13.945
18362W        W83622  37.028  20.301   4.631
18363W        W83623  28.200  36.495   2.180
18364W        W83624  23.707  28.578  14.810
18365W        W83625   8.769  40.624  11.901
18366W        W83626   9.303  21.779   0.787
18367W        W83627  30.019   7.407  14.385
18368W        W83628  35.963  41.487  10.690
18369W        W83629   2.403  37.397  11.116
18370W        W83630   1.332  18.650   1.619
18371W        W83631  22.065   2.341   0.759
18372W        W83632  41.309  19.559  10.739
18373W        W83633  27.888   0.239   1.339
18374W        W83634   7.974  20.977  11.510
18375W        W83635  34.590  29.406  13.349
18376W        W83636  41.748  13.675   1.747
18377W        W83637  16.073  41.457  13.041
18378W        W83638  22.547   6.096   4.724
18379W        W83639  29.862  37.062  13.561
18380W        W83640  44.927   8.593   9.566
18381W        W83641  15.164  44.992  14.930
18382W        W83642   7.274  35.745   4.607
18383W        W83643   6.536  40.309   0.689
18384W        W83644  10.080  26.751   0.391
18385W        W83645  16.728  26.606   2.119
18386W        W83646   8.903  31.500  14.868
18387W        W83647  24.511  30.531   0.479
18388W        W83648   6.154  35.579   4.543
18389W        W83649  24.524   8.730   1.249
18390W        W83650  24.266  20.997   3.759
18391W        W83651  27.804  34.057  11.667
18392W        W83652  30.125   7.018  12.204
18393W        W83653  13.231  34.403   4.574
18394W        W83654  35.048   6.741   4.761
18395W        W83655   7.333  11.953  13.449
18396W        W83656  29.844  19.742   4.829
18397W        W83657  41.404   8.701  13.385
18398W        W83658  24.654   2.504   1.336
18399W        W83659  34.320  36.274   4.753
18400W        W83660  20.441  36.552  13.476
18401W        W83661  25.613   0.187   0.760
18402W        W83662  31.112  11.626   1.147
18403W        W83663  22.036  29.844  11.559
18404W        W83664  40.934  11.808   2.837
18405W        W83665  26.244  34.935   0.724
18406W        W83666  14.846  14.819   1.397
18407W        W83667  11.807  12.654   3.601
18408W        W83668  29.920   7.987   3.093
18409W        W83669  44.083  30.075   3.188
18410W        W83670  36.080   3.966  13.230
18411W        W83671  30.468  44.088  14.959
18412W        W83672  39.600  32.690   0.944
18413W        W83673  32.549  21.182  12.475
18414W        W83674  18.738   5.170  14.123
18415W        W83675  42.092  17.687   1.747
18416W        W83676   6.868   3.357   0.463
18417W        W83677   6.816   9.387  12.435
18418W        W83678  29.504  27.740  11.384
18419W        W83679   3.939  16.993  14.712
18420W        W83680  30.884  35.493   4.388
18421W        W83681  41.952  29.308   1.352
18422W        W83682  44.050  27.933   0.292
18423W        W83683  42.489  40.129  13.881
18424W        W83684   5.201  29.983   2.601
18425W        W83685  35.342  43.064  12.113
18426W        W83686  33.696  35.890  13.093
18427W        W83687   1.964  30.864  11.595
18428W        W83688   8.697  20.336  14.800
18429W        W83689  31.093  38.000  11.269
18430W        W83690  18.496  10.241   4.724
18431W        W83691  34.318  18.220  10.699
18432W        W83692  39.045  40.303  14.295
18433W        W83693  39.324  22.305   1.762
18434W        W83694   7.802   1.910  12.467
18435W        W83695   0.596  24.282  13.018
18436W        W83696  41.039  34.464   3.896
18437W        W83697   8.250  10.658   4.727
18438W        W83698  32.935  10.701  14.917
18439W        W83699  28.643  18.193   3.744
18440W        W83700  38.558  24.484  14.421
18441W        W83701  23.663   7.206  10.775
18442W        W83702  12.646  37.555  10.484
18443W        W83703  16.788  41.954   0.434
18444W        W83704  28.964  15.902   4.262
18445W        W83705  37.902  39.963  12.874
18446W        W83706   2.163  31.514   4.743
18447W        W83707  37.870  41.658   0.881
18448W        W83708   3.497  22.601  12.820
18449W        W83709  31.111   3.117   1.840
18450W        W83710  36.016  40.778   3.318
18451W        W83711  36.742  44.055   3.647
18452W        W83712  11.694  41.036   5.036
18453W        W83713   3.020  43.242  12.103
18454W        W83714  28.461  44.554   3.254
18455W        W83715  17.215   4.132  12.467
18456W        W83716   8.766  18.214  14.366
18457W        W83717  31.530  22.768   4.079
18458W        W83718   4.687  27.408   1.735
18459W        W83719   6.181   1.957   3.270
18460W        W83720  12.935  42.459   1.897
18461W        W83721  10.612  10.725   1.479
18462W        W83722  22.929  15.066   4.852
18463W        W83723  37.412  26.223   2.367
18464W        W83724  42.775  11.763  14.762
18465W        W83725  15.825  20.693   3.094
18466W        W83726  44.760  22.388   3.630
18467W        W83727  32.876  13.404   2.518
18468W        W83728  43.560  12.363  13.532
18469W        W83729  22.141  25.182  12.618
18470W        W83730  20.211  39.700  14.808
18471W        W83731  21.771  32.702   2.196
18472W        W83732  23.982  18.230  14.406
18473W        W83733  43.951  15.730   3.967
18474W        W83734   6.332  36.212   0.226
18475W        W83735  11.047  39.822   1.208
18476W        W83736  35.100   6.719   4.250
18477W        W83737  24.742  32.476  12.479
18478W        W83738  30.610   6.763  12.077
18479W        W83739  19.529   6.654  12.545
18480W        W83740  11.120  22.624  12.975
18481W        W83741   6.421   2.149   4.162
18482W        W83742  25.742   6.612  13.936
18483W        W83743  20.169  32.962   3.509
18484W        W83744  36.373   0.747   1.865
18485W        W83745   7.838  27.665  11.181
18486W        W83746  28.026  14.179   4.116
18487W        W83747   3.849  32.811   2.339
18488W        W83748  22.577  41.605  10.745
18489W        W83749   4.251  15.192  12.858
18490W        W83750  11.756  16.033   0.823
18491W        W83751   0.759  43.602  13.990
18492W        W83752  22.592   9.927  12.950
18493W        W83753  24.263   8.128  14.213
18494W        W83754  39.199  16.088   1.982
18495W        W83755  19.785   9.778  13.800
18496W        W83756  29.057   7.181   4.495
18497W        W83757   9.167  18.569  13.803
18498W        W83758  33.623   4.730  12.414
18499W        W83759  16.667  18.221  14.274
18500W        W83760  34.961  19.662  14.852
18501W        W83761  20.223  37.776   4.999
18502W        W83762  43.852  22.044  12.131
18503W        W83763  22.620  15.305  11.599
18504W        W83764  25.540  38.033  13.908
18505W        W83765  37.429  31.100  12.523
18506W        W83766  38.526  31.141  11.678
18507W        W83767  22.177   1.896  12.955
18508W        W83768  35.061  35.490   3.759
18509W        W83769  40.210  36.149  12.226
18510W        W83770  14.666  10.061   3.825
18511W        W83771  21.232  21.912   1.757
18512W        W83772  38.515  23.381   3.868
18513W        W83773  44.531  13.564   2.197
18514W        W83774   2.538  16.716  12.411
18515W        W83775  39.821  23.263  13.073
18516W        W83776  22.653  18.644  10.433
18517W        W83777   9.041  22.828  11.983
18518W        W83778   9.139  28.182  11.182
18519W        W83779   3.353   1.234  14.388
18520W        W83780   9.730  33.208  12.564
18521W        W83781  26.582  32.234   4.071
18522W        W83782  23.934  15.107  11.440
18523W        W83783  12.617  15.987   2.718
18524W        W83784  10.087  16.576   2.706
18525W        W83785  25.895  16.017   9.640
18526W        W83786  27.627  20.033   1.486
18527W        W83787  39.801  16.227   0.531
18528W        W83788  15.131  19.031   4.673
18529W        W83789  27.151   6.253   1.886
18530W        W83790  13.400  34.463  11.603
18531W        W83791  12.339  29.107  10.565
18532W        W83792  22.106  33.931   2.418
18533W        W83793   6.366  29.572   0.393
18534W        W83794  37.831  38.323  10.344
18535W        W83795  38.227  21.510   2.943
18536W        W83796  37.819  36.117   3.651
18537W        W83797   6.463  17.752   0.194
18538W        W83798   3.233   0.851  14.024
18539W        W83799  14.133  36.341  13.525
18540W        W83800  25.182   7.897   1.765
18541W        W83801  13.427   7.558  14.299
18542W        W83802  29.176  28.697   0.246
18543W        W83803  13.535  32.030   2.180
18544W        W83804  39.317   8.772  13.670
18545W        W83805  14.667  44.601  10.106
18546W        W83806  40.843  27.448   3.752
18547W        W83807  25.749   6.642   4.504
18548W        W83808  39.377  12.811   4.509
18549W        W83809  37.370  32.213   1.796
18550W        W83810   7.287  34.346  12.041
18551W        W83811  10.723   3.404   1.291
18552W        W83812  24.044  23.101  12.544
18553W        W83813  28.904  14.443   4.418
18554W        W83814  24.535  37.448  12.532
18555W        W83815  42.967  34.243  11.153
18556W        W83816  18.606  42.043   2.714
18557W        W83817  16.200   7.739   1.269
18558W        W83818  34.780   4.500   2.781
18559W        W83819  40.043  42.345  13.037
18560W        W83820  38.921  31.100   1.324
18561W        W83821   7.159  22.656  12.048
18562W        W83822  34.095  15.127   2.748
18563W        W83823  26.620  37.291   4.253
18564W        W83824  36.643  26.432   1.844
18565W        W83825  23.399  41.533  14.939
18566W        W83826  20.201  22.949  11.456
18567W        W83827   8.839   1.853   3.383
18568W        W83828  15.251  40.615   0.753
18569W        W83829  41.916  24.264   4.957
18570W        W83830   9.865  11.667  11.479
18571W        W83831   4.900  19.727  14.836
18572W        W83832  15.764   8.651  12.908
18573W        W83833   2.287   9.406   4.056
18574W        W83834   4.294  32.868  14.944
18575W        W83835  41.228  29.096   0.346
18576W        W83836  23.300  15.099   3.088
18577W        W83837  31.404  42.246  14.766
18578W        W83838  20.851   1.453   2.455
18579W        W83839  14.849  43.941  12.417
18580W        W83840  42.371   2.429  12.362
18581W        W83841  11.649  28.206   2.309
18582W        W83842  18.640  34.846   2.027
18583W        W83843  21.082  12.767   0.404
18584W        W83844  17.010  41.913  14.005
18585W        W83845  34.781  10.159  10.737
18586W        W83846  31.957   9.158  14.069
18587W        W83847  15.247   4.772  12.905
18588W        W83848  14.209  29.334   0.032
18589W        W83849  10.706  23.247   4.260
18590W        W83850  16.172  39.378  11.194
18591W        W83851  31.415  41.550   0.732
18592W        W83852  30.459  41.265  11.079
18593W        W83853  13.757  42.763  11.985
18594W        W83854  24.439  36.402   0.280
18595W        W83855  31.326  23.543   1.741
18596W        W83856  15.160  12.056   0.340
18597W        W83857  39.415  24.270   2.637
18598W        W83858  24.844  21.736   4.977
18599W        W83859   6.453  41.039   1.337
18600W        W83860  25.575  42.670  13.371
18601W        W83861  19.762  26.495  12.407
18602W        W83862  19.969  30.186  12.953
18603W        W83863  10.517   9.704  13.333
18604W        W83864  33.148  44.322   3.206
18605W        W83865  23.501   9.215   5.117
18606W        W83866  14.778  41.947  11.517
18607W        W83867  37.517  32.964   4.491
18608W        W83868  38.672   7.189   4.995
18609W        W83869  32.891   9.209   1.156
18610W        W83870  11.848   0.055   3.698
18611W        W83871  38.793   1.813  13.590
18612W        W83872   7.136  12.802   1.761
18613W        W83873  38.964  14.185  10.963
18614W        W83874  10.234   6.799   1.321
18615W        W83875   9.304  30.936   0.181
18616W        W83876  35.546  27.741   2.979
18617W        W83877  21.333  19.942  13.440
18618W        W83878   3.459   3.655  14.516
18619W        W83879  38.522  41.708  13.927
18620W        W83880  10.011  11.302  14.742
18621W        W83881  31.501  43.907  10.727
18622W        W83882  36.425  39.428  14.528
18623W        W83883  41.017  16.820   0.433
18624W        W83884  41.537  22.957  14.395
18625W        W83885  42.900  42.239  14.055
18626W        W83886  30.052   2.710   3.696
18627W        W83887   5.935  36.549   1.371
18628W        W83888  40.345   8.401   2.437
18629W        W83889   8.862  40.813  14.144
18630W        W83890   1.426  26.560   0.049
18631W        W83891  27.558  41.467  10.691
18632W        W83892  25.652  12.864  11.761
18633W        W83893  25.510  34.311  12.565
18634W        W83894  26.989  16.601  12.347
18635W        W83895  29.581  29.049   3.756
18636W        W83896  34.015  25.116  12.416
18637W        W83897  31.589  33.700   4.181
18638W        W83898  30.804  20.715   1.413
18639W        W83899  36.574   0.027   1.346
18640W        W83900  19.218  39.945  13.535
18641W        W83901   1.982  14.604   2.657
18642W        W83902  11.291   7.926   2.399
18643W        W83903  29.848  22.935  13.742
18644W        W83904  26.641  40.232  12.082
18645W        W83905  17.183  38.857   5.088
18646W        W83906  19.920  25.637  14.773
18647W        W83907  39.348  16.052   3.425
18648W        W83908  39.106  38.028  14.816
18649W        W83909  13.554  29.809   3.523
18650W        W83910  20.837  35.625   0.919
18651W        W83911   4.057  29.350  14.313
18652W        W83912  30.317  21.216   9.783
18653W        W83913   2.746   4.153  11.109
18654W        W83914  31.679  38.845   1.667
18655W        W83915  10.843  13.599  11.593
18656W        W83916  22.982  32.514  11.821
18657W        W83917   2.373  18.020  11.167
18658W        W83918   6.357  39.360  14.302
18659W        W83919   1.746   7.155   1.356
18660W        W83920   6.002  12.364  12.778
18661W        W83921  12.109   2.936   2.244
18662W        W83922  15.411   6.763   4.872
18663W        W83923  39.055  21.672  13.367
18664W        W83924  43.906  12.154  13.877
18665W        W83925   6.752  44.244  13.789
18666W        W83926  27.941  20.163  11.929
18667W        W83927  41.475   5.171   4.667
18668W        W83928   6.309  38.003  11.943
18669W        W83929  11.838  21.680   4.401
18670W        W83930  35.392  15.384   2.320
18671W        W83931  13.059   9.937   4.059
18672W        W83932  23.152   3.430  11.607
18673W        W83933  15.622   2.957  12.172
18674W        W83934   8.230   0.224   0.841
18675W        W83935  33.000  12.119  12.021
18676W        W83936  29.890   7.240  13.908
18677W        W83937  28.418  20.159  12.135
18678W        W83938  13.686  27.026   5.024
18679W        W83939  33.984  23.673  11.474
18680W        W83940  12.288  13.097  13.674
18681W        W83941  16.243  36.897   1.892
18682W        W83942  42.918  31.983  12.340
18683W        W83943  40.847  34.429  11.129
18684W        W83944   9.293  24.701  12.676
18685W        W83945  19.191  28.479  12.194
18686W        W83946  43.325  12.314  14.029
18687W        W83947  28.088  34.394   4.288
18688W        W83948  16.115  26.618   0.427
18689W        W83949  44.239  13.451  10.909
18690W        W83950   1.158  41.822  10.688
18691W        W83951   5.043   2.081  13.435
18692W        W83952  10.872  24.782  11.444
18693W        W83953  33.013  10.330  10.661
18694W        W83954  17.917  16.771   3.608
18695W        W83955  38.359  40.928  11.684
18696W        W83956  30.797  38.913  13.390
18697W        W83957  34.045   3.029   0.712
18698W        W83958   1.483  30.613  13.517
18699W        W83959  15.908  24.019   0.477
18700W        W83960  40.512  29.192   4.087
18701W        W83961  38.023  20.670   3.188
18702W        W83962  27.051  20.639   2.083
18703W        W83963  30.623  40.760  11.078
18704W        W83964  30.036  10.156   0.029
18705W        W83965  11.217  10.798   1.707
18706W        W83966  40.354  25.684  11.540
18707W        W83967  10.881  15.093  12.831
18708W        W83968  37.128  44.418   3.695
18709W        W83969   8.266   1.983   4.177
18710W        W83970  11.916  15.270   2.890
18711W        W83971  24.483   1.183   2.696
18712W        W83972   0.429  30.027  10.716
18713W        W83973  37.511  36.533   3.671
18714W        W83974  15.861  30.320   5.244
18715W        W83975  32.870  24.569  10.713
18716W        W83976  44.482  12.550  13.484
18717W        W83977  34.591   6.350   1.066
18718W        W83978  33.817  23.727  11.958
18719W        W83979  38.536   0.313   1.504
18720W        W83980  11.431   6.279  13.762
18721W        W83981  31.609  23.952  11.993
18722W        W83982   4.828  28.139   4.838
18723W        W83983   2.461  14.066  11.108
18724W        W83984  27.563   7.651   1.154
18725W        W83985  20.326   8.964  11.015
18726W        W83986  34.132  39.540  11.409
18727W        W83987  14.767  29.607   3.324
18728W        W83988  42.535  11.334  14.969
18729W        W83989   4.068   3.825  12.046
18730W        W83990  12.029  18.537  13.398
18731W        W83991  36.221  29.641   1.753
18732W        W83992  43.335   3.493  14.940
18733W        W83993  41.897  31.809   0.697
18734W        W83994  39.679   1.272   0.150
18735W        W83995  36.576  16.810   3.228
18736W        W83996   4.850  38.056   3.778
18737W        W83997  36.439  33.249  13.140
18738W        W83998   0.722  23.115   1.930
18739W        W83999   9.215  21.890   3.218
18740W        W84000  42.320  27.075  11.672
18741W        W84001  17.303  25.007   0.240
18742W        W84002  44.383  40.835  10.843
18743W        W84003   2.281  29.448   4.641
18744W        W84004  39.560  23.150   2.854
18745W        W84005   2.760   8.305   3.375
18746W        W84006   3.745  27.426   1.671
18747W        W84007   7.713   9.772   4.457
18748W        W84008  17.052   2.931   0.634
18749W        W84009   5.204  33.890  10.720
18750W        W84010   6.641  27.733  13.250
18751W        W84011  24.263   8.941   4.281
18752W        W84012  10.483  37.525   2.917
18753W        W84013  20.518  23.488   2.233
18754W        W84014  15.533  22.496  14.261
18755W        W84015  15.375  27.823  11.526
18756W        W84016  29.611  11.832   1.595
18757W        W84017   9.117  16.519  13.417
18758W        W84018  11.422   6.938  13.426
18759W        W84019   5.988  40.543  10.761
18760W        W84020  26.439  29.071  13.500
18761W        W84021   1.276  33.166   1.959
18762W        W84022  30.425   5.639   0.190
18763W        W84023  30.077   4.733   4.407
18764W        W84024  10.934   7.429   2.639
18765W        W84025  31.969  40.083   2.078
18766W        W84026  21.738  39.435   0.330
18767W        W84027   9.798  16.376  13.559
18768W        W84028  19.700  25.952  11.423
18769W        W84029  10.499  14.694   3.826
18770W        W84030  37.000  20.098  13.448
18771W        W84031  14.940  41.859   4.739
18772W        W84032  13.159  39.183   1.400
18773W        W84033   7.622  37.785   2.714
18774W        W84034  35.964  35.403  14.184
18775W        W84035  38.062  44.865  13.357
18776W        W84036  39.512  13.092   1.814
18777W        W84037  38.719   4.982  14.415
18778W        W84038  26.392  27.588  11.076
18779W        W84039   1.817  22.531  14.158
18780W        W84040   1.253  11.762  13.087
18781W        W84041  33.964   6.839   1.552
18782W        W84042  36.054   0.822  14.020
18783W        W84043  20.705  39.201  12.886
18784W        W84044   3.107   1.046  14.895
18785W        W84045   4.167  42.452   0.702
18786W        W84046  20.925   4.463   4.212
18787W        W84047   3.888   0.233  13.004
18788W        W84048  24.640   1.013   0.462
18789W        W84049  19.155  32.587   4.402
18790W        W84050  37.399   0.856  11.637
18791W        W84051  34.252  28.554  12.320
18792W        W84052  12.813  14.475   0.740
18793W        W84053  39.432  20.025  10.689
18794W        W84054  42.518   4.662   1.347
18795W        W84055   4.317  23.525   2.792
18796W        W84056   8.813  31.870   3.252
18797W        W84057  43.940  14.274   3.605
18798W        W84058  14.731  29.214  13.807
18799W        W84059  33.072   9.397   1.590
18800W        W84060  43.272   0.580   1.901
18801W        W84061  28.527   6.852  14.473
18802W        W84062  31.557   4.291  13.146
18803W        W84063   0.184  40.047  12.010
18804W        W84064  36.109  26.735   2.677
18805W        W84065  42.045  18.808  13.806
18806W        W84066   4.831  28.067  10.009
18807W        W84067  30.126  31.202   3.766
18808W        W84068  31.413  29.131   2.520
18809W        W84069   7.690  22.006   4.241
18810W        W84070   0.908  28.451   2.173
18811W        W84071  12.485  26.126   0.311
18812W        W84072   8.082  17.649  12.452
18813W        W84073   2.179  36.036  12.520
18814W        W84074  42.871  41.745   4.004
18815W        W84075  12.698   5.378   4.405
18816W        W84076  38.735   2.150   1.839
18817W        W84077  30.473  28.304   1.734
18818W        W84078   1.997  31.042   4.591
18819W        W84079  34.561  42.418  11.960
18820W        W84080  10.708  30.391   0.699
18821W        W84081  20.836  18.642   2.230
18822W        W84082  44.305   6.647   0.265
18823W        W84083  32.398  39.795   4.064
18824W        W84084  33.836   3.369  14.687
18825W        W84085  23.269   0.713  14.366
18826W        W84086  18.536   8.914   3.922
18827W        W84087  25.599  40.034   1.316
18828W        W84088   5.814  41.954   2.317
18829W        W84089  38.901   6.017   1.269
18830W        W84090  30.312  17.158   2.827
18831W        W84091  19.996   4.583   2.413
18832W        W84092  11.833   6.145  12.007
18833W        W84093  33.617  13.918   0.420
18834W        W84094  23.202  33.236   2.274
18835W        W84095  40.040  32.756  11.853
18836W        W84096  35.660   9.829  13.435
18837W        W84097  13.928  21.262  14.908
18838W        W84098  19.273  43.488  13.020
18839W        W84099  26.225  14.643  12.562
18840W        W84100   3.022  10.354   4.130
18841W        W84101  43.163   6.539  13.340
18842W        W84102  18.005  34.964  11.225
18843W        W84103   8.224   7.422   0.426
18844W        W84104  27.132  16.756   0.661
18845W        W84105  25.238  26.414  13.362
18846W        W84106  26.501   7.296  12.384
18847W        W84107  21.528  10.221   3.374
18848W        W84108  22.038  21.053  12.022
18849W        W84109  23.716  25.055  13.650
18850W        W84110  16.337   8.271  14.004
18851W        W84111  15.365  10.674   1.501
18852W        W84112   2.767  41.064  14.982
18853W        W84113  22.301  43.556  13.486
18854W        W84114   0.992  35.504  14.872
18855W        W84115   7.602  24.113  11.989
18856W        W84116   6.925   7.378  10.771
18857W        W84117   1.322  27.872  11.881
18858W        W84118  23.960   2.154   0.324
18859W        W84119   2.444  30.086  12.653
18860W        W84120  37.183  19.192   2.761
18861W        W84121  36.813  33.611  11.278
18862W        W84122   2.402  31.080   0.388
18863W        W84123   2.348  33.037   4.080
18864W        W84124  17.178  15.094   4.585
18865W        W84125  18.344  15.091   3.551
18866W        W84126  30.270  42.264   4.092
18867W        W84127   5.770  22.600  11.074
18868W        W84128  43.506  12.667   3.336
18869W        W84129  27.629  29.681   4.060
18870W        W84130   8.411  23.558   0.906
18871W        W84131  20.661  15.654  12.342
18872W        W84132   8.981   5.594  14.334
18873W        W84133  28.617   6.714   0.420
18874W        W84134  20.030  28.592   0.974
18875W        W84135  42.381  17.472  13.546
18876W        W84136  41.767  24.550  14.791
18877W        W84137  16.773   6.384   2.106
18878W        W84138  19.915  29.095   0.776
18879W        W84139   5.616  27.082  10.758
18880W        W84140  16.546  27.887   0.501
18881W        W84141  29.099   8.365   1.424
18882W        W84142  16.182  34.468   1.733
18883W        W84143  19.731  27.944  10.738
18884W        W84144  23.618  27.517  13.489
18885W        W84145  23.227  23.594   4.778
18886W        W84146  28.518  24.514   9.781
18887W        W84147  31.578  26.205  13.678
18888W        W84148   6.209  12.326   1.235
18889W        W84149   9.723   0.935  13.781
18890W        W84150  14.723   9.287   2.141
18891W        W84151  20.085  38.515  11.960
18892W        W84152  10.523  35.927   3.779
18893W        W84153  37.815  21.656   3.842
18894W        W84154  14.855   8.412   0.829
18895W        W84155  41.804  15.248  14.925
18896W        W84156  27.668  27.881   1.716
18897W        W84157  25.738  20.779  13.541
18898W        W84158   5.809   9.424   1.845
18899W        W84159  37.532  16.526   4.176
18900W        W84160  14.557  14.645   2.824
18901W        W84161  16.311  30.418   3.156
18902W        W84162  11.825  34.217  10.137
18903W        W84163  43.794  31.485  13.631
18904W        W84164  30.547  10.806  12.191
18905W        W84165  37.373  26.634  14.161
18906W        W84166  33.374  15.189  10.742
18907W        W84167  27.775  20.526  13.401
18908W        W84168  35.026   9.642   2.170
18909W        W84169  19.330  31.207   0.004
18910W        W84170  30.851   2.752   2.107
18911W        W84171   2.704  43.708   4.136
18912W        W84172  12.130  40.567   2.234
18913W        W84173   0.919  37.334   0.324
18914W        W84174  29.389  21.155   0.815
18915W        W84175  37.566  44.111  12.910
18916W        W84176  18.772   9.659  14.357
18917W        W84177  35.554  21.677   1.733
18918W        W84178  13.756  21.294   0.760
18919W        W84179  36.401  32.833   3.637
18920W        W84180  37.867  42.430  11.482
18921W        W84181  39.130  22.297   4.036
18922W        W84182   5.173   8.062   3.750
18923W        W84183  29.596  24.893  11.138
18924W        W84184  40.866  26.710   0.058
18925W        W84185  25.056  38.500  14.256
18926W        W84186   7.834  39.556  13.199
18927W        W84187  39.780  37.079   4.205
18928W        W84188  44.595  41.577   0.273
18929W        W84189  37.329  14.036   0.047
18930W        W84190  21.257  21.517  14.352
18931W        W84191  26.594   3.770   1.882
18932W        W84192  32.190   4.451  14.411
18933W        W84193  26.292  10.604  14.142
18934W        W84194  17.458  22.660   4.591
18935W        W84195  29.670   5.219   1.231
18936W        W84196   8.662   6.420  14.022
18937W        W84197  35.546  34.228   4.080
18938W        W84198   0.001  43.857   4.109
18939W        W84199  44.756  36.949  14.992
18940W        W84200  43.539  38.052   4.112
18941W        W84201  27.962  24.523   5.040
18942W        W84202   6.822  23.368   1.779
18943W        W84203  39.667   2.769  14.798
18944W        W84204  25.046  27.422   2.327
18945W        W84205  42.236   3.206  12.994
18946W        W84206  33.658  33.128   0.374
18947W        W84207   5.932  37.257  13.485
18948W        W84208  36.450  39.495  12.620
18949W        W84209   1.745  37.295   4.168
18950W        W84210  42.893  42.424   1.014
18951W        W84211   5.259  42.434  14.906
18952W        W84212  27.057  33.002  12.136
18953W        W84213  43.292  26.080   3.281
18954W        W84214  10.333  14.211   2.442
18955W        W84215   0.935  37.120  11.900
18956W        W84216  39.631  28.949  14.379
18957W        W84217  32.079  33.560  12.475
18958W        W84218   8.843   9.886  11.164
18959W        W84219   7.163  43.876  14.977
18960W        W84220  17.126   8.347   4.442
18961W        W84221  25.049  33.468  14.293
18962W        W84222   9.341  30.436  12.823
18963W        W84223  15.063  24.924   2.344
18964W        W84224  24.048  17.662  14.474
18965W        W84225  21.458  43.453   2.831
18966W        W84226  28.690  22.466   1.262
18967W        W84227  15.048  23.752   1.185
18968W        W84228  34.390  39.070  12.687
18969W        W84229  36.503  28.690   1.162
18970W        W84230  14.032  10.235  14.825
18971W        W84231  18.987   0.565  11.101
18972W        W84232  19.793  17.024  12.967
18973W        W84233  37.630  26.655   4.596
18974W        W84234  32.457  39.553   4.563
18975W        W84235  35.126  32.507  13.702
18976W        W84236   7.706  27.234  13.631
18977W        W84237   7.388  20.298  11.618
18978W        W84238  11.185  38.049   4.627
18979W        W84239  20.067  23.222  11.989
18980W        W84240  13.268  38.573   2.354
18981W        W84241  12.596  32.751  11.637
18982W        W84242  21.625  19.350  12.878
18983W        W84243   0.974  33.522  14.661
18984W        W84244  15.107  31.423  14.861
18985W        W84245  43.328   2.331  11.978
18986W        W84246  12.732  36.064   4.573
18987W        W84247   9.124  32.788   3.322
18988W        W84248  18.149  39.557  10.761
18989W        W84249  32.544  30.433  11.893
18990W        W84250  43.548  38.062   3.155
18991W        W84251  16.325  28.027  12.179
18992W        W84252   2.008  30.052   3.745
18993W        W84253  16.715  13.080   0.207
18994W        W84254  20.729  17.070  10.570
18995W        W84255  40.006  15.272  12.086
18996W        W84256  14.241  13.654   3.319
18997W        W84257   7.712  37.230   2.202
18998W        W84258  13.703  44.809   2.271
18999W        W84259  40.693   9.186   2.755
19000W        W84260  39.363  41.067  14.113
19001W        W84261   7.315  41.386   1.488
19002W        W84262  34.575  42.305  14.545
19003W        W84263  34.040  26.496  12.627
19004W        W84264   6.072   8.143   0.258
19005W        W84265  27.109  34.520  10.629
19006W        W84266  10.767  18.639  10.699
19007W        W84267  43.842  13.052   3.186
19008W        W84268  36.357   2.865   3.810
19009W        W84269  41.638  39.845  11.671
19010W        W84270   7.441  25.746  13.618
19011W        W84271  33.963  37.810  10.879
19012W        W84272   9.370  40.683   0.357
19013W        W84273  44.123  44.476   2.872
19014W        W84274  35.176  30.899   0.330
19015W        W84275  40.991  19.563  13.591
19016W        W84276  16.598  25.684  12.507
19017W        W84277   1.189  41.963   2.935
19018W        W84278  41.463  34.469   4.319
19019W        W84279  16.266  10.612   4.179
19020W        W84280  38.354  13.102   2.279
19021W        W84281  24.674  42.955  11.087
19022W        W84282   9.116   7.371   0.816
19023W        W84283  40.433   6.730  10.485
19024W        W84284  20.572   5.229  14.409
19025W        W84285  27.715  14.847   2.430
19026W        W84286  39.940  43.772  14.078
19027W        W84287   6.535   1.673  12.083
19028W        W84288   9.227   0.085   2.377
19029W        W84289   6.269  33.397   4.528
19030W        W84290  12.632   0.692  14.938
19031W        W84291  33.819   6.179  10.108
19032W        W84292   9.289  13.739  11.078
19033W        W84293  17.265   6.212  12.165
19034W        W84294  27.589  21.705  10.669
19035W        W84295  33.044   1.983  11.915
19036W        W84296  21.519  36.765   3.182
19037W        W84297  32.565  24.974  13.243
19038W        W84298  44.214  17.268   4.993
19039W        W84299  22.547  43.555   0.364
19040W        W84300   5.668   3.990   0.445
19041W        W84301  17.796  32.555   3.199
19042W        W84302   0.140  39.368  14.509
19043W        W84303   6.362  15.743  14.711
19044W        W84304  27.056  39.614   0.436
19045W        W84305   0.538  23.588   1.367
19046W        W84306  39.951   4.160  13.406
19047W        W84307   6.657  15.318   2.170
19048W        W84308  11.307  10.362  13.853
19049W        W84309  37.467  37.902   3.293
19050W        W84310  39.582  20.290  11.097
19051W        W84311  36.997  24.728  12.604
19052W        W84312   0.794  41.726   4.639
19053W        W84313   5.455  32.919   0.881
19054W        W84314  28.782   5.874  12.151
19055W        W84315   3.197  14.711   3.351
19056W        W84316  13.564  12.170  10.870
19057W        W84317   0.514  16.067  11.901
19058W        W84318  22.200  18.545   3.112
19059W        W84319  31.428  40.862  14.900
19060W        W84320  18.577  44.489   1.758
19061W        W84321   0.702  18.926  10.992
19062W        W84322  13.272  38.979  11.599
19063W        W84323  43.034  40.365   4.891
19064W        W84324   5.668  24.583  13.326
19065W        W84325  30.126   6.847  13.076
19066W        W84326  35.869  14.689   0.658
19067W        W84327  12.544  38.319  12.058
19068W        W84328  10.861  34.116   1.711
19069W        W84329  43.283   6.244   3.677
19070W        W84330  31.330  41.401  12.573
19071W        W84331  23.022   9.772   3.214
19072W        W84332  28.510   4.860   0.986
19073W        W84333  25.001  27.142  10.717
19074W        W84334   7.696  23.780   3.546
19075W        W84335  17.651  16.955   1.327
19076W        W84336  15.719  44.729  13.826
19077W        W84337  26.773  35.382  11.985
19078W        W84338  41.026  41.666   2.225
19079W        W84339   3.489  10.279  12.908
19080W        W84340  28.638  32.187  12.613
19081W        W84341  28.223   8.996   3.676
19082W        W84342  43.688  24.526   3.223
19083W        W84343  19.290  32.960   4.075
19084W        W84344   7.424  30.232  11.595
19085W        W84345   6.511  44.443   2.918
19086W        W84346   8.480  18.073  14.763
19087W        W84347   1.113  23.758   4.533
19088W        W84348  29.992   3.554  11.292
19089W        W84349  16.971   8.820  10.190
19090W        W84350  21.003  18.828   3.706
19091W        W84351  22.637  32.496  11.400
19092W        W84352  28.203  18.758  10.542
19093W        W84353  25.719  40.599   2.265
19094W        W84354  32.725  39.121  13.789
19095W        W84355   1.713  17.668  12.897
19096W        W84356  19.716  32.740   3.490
19097W        W84357  35.472  25.176  10.721
19098W        W84358  23.397  20.257  10.703
19099W        W84359  21.119  31.872   0.273
19100W        W84360  22.144  32.627  11.522
19101W        W84361  36.938  20.590   1.933
19102W        W84362  34.831  30.534  14.828
19103W        W84363  18.939  40.800  13.646
19104W        W84364  41.019  20.552  14.985
19105W        W84365  40.330   0.957   1.841
19106W        W84366  17.797  15.716   4.541
19107W        W84367  39.787  37.336  14.925
19108W        W84368  40.061   2.855   1.734
19109W        W84369  26.153  41.949  13.697
19110W        W84370  38.459   3.348   0.772
19111W        W84371  22.462  15.148   0.357
19112W        W84372   9.575   6.870   1.811
19113W        W84373  15.605   4.215  14.265
19114W        W84374  20.740   9.305   3.231
19115W        W84375   6.894   2.174   0.743
19116W        W84376  36.092  12.777   2.637
19117W        W84377  11.215   5.205   0.338
19118W        W84378  21.503  39.340   3.418
19119W        W84379   5.860  28.512   0.181
19120W        W84380  23.147  24.015   1.616
19121W        W84381  13.520  35.871  13.956
19122W        W84382  11.731   7.140  14.335
19123W        W84383   8.204   3.262  13.772
19124W        W84384  44.052  40.760   2.632
19125W        W84385  16.413  14.245   1.673
19126W        W84386  41.769  42.811   2.054
19127W        W84387   5.452   5.849  13.332
19128W        W84388  33.905  21.806  13.845
19129W        W84389  26.646  32.665   1.832
19130W        W84390   6.635   1.860   0.397
19131W        W84391  19.668  16.633   1.815
19132W        W84392  27.991  25.736   0.773
19133W        W84393  34.969   8.521  12.544
19134W        W84394  15.401  22.077   1.368
19135W        W84395   6.653   1.039   3.607
19136W        W84396  42.209  15.526   0.750
19137W        W84397  29.622   1.184  13.306
19138W        W84398  24.279  13.217   4.857
19139W        W84399  12.799  11.311   3.413
19140W        W84400   3.510  17.543   2.735
19141W        W84401  18.632  29.989   3.250
19142W        W84402  40.889  43.485   4.283
19143W        W84403  22.310  39.895   4.340
19144W        W84404  40.120  37.935   1.111
19145W        W84405   0.292   2.252  10.668
19146W        W84406  20.618  12.239  13.427
19147W        W84407  26.050   3.516  13.312
19148W        W84408  42.941  11.239  14.478
19149W        W84409  13.360  31.707  14.124
19150W        W84410  42.436  14.582   0.416
19151W        W84411   9.776  19.063   4.368
19152W        W84412  28.971   0.872  14.430
19153W        W84413  15.726  24.598  10.986
19154W        W84414   9.109  42.354   4.977
19155W        W84415   6.279  24.920  12.814
19156W        W84416  35.526   0.529   4.806
19157W        W84417  37.419  16.219   0.494
19158W        W84418  39.294  31.086   1.709
19159W        W84419   6.929   1.144  11.234
19160W        W84420  31.540  41.054  14.380
19161W        W84421  37.426   9.294   1.022
19162W        W84422  27.151  10.127   3.259
19163W        W84423   8.500  33.445   3.300
19164W        W84424  23.586  39.594   1.833
19165W        W84425  25.635   2.495   1.407
19166W        W84426  28.251  28.643   1.252
19167W        W84427   3.130  43.733   3.365
19168W        W84428  25.349  24.755  12.564
19169W        W84429  23.739  24.273  12.067
19170W        W84430   9.665  15.856   3.839
19171W        W84431  28.020   3.468   4.204
19172W        W84432   9.697   9.840  11.361
19173W        W84433   7.813  14.239  10.416
19174W        W84434   4.190   8.871  14.298
19175W        W84435  12.610   3.534   4.470
19176W        W84436  13.405  22.573  13.558
19177W        W84437  32.825  24.279   0.054
19178W        W84438  20.023   4.444  13.225
19179W        W84439  16.849  35.588  13.585
19180W        W84440  17.526   0.453  14.866
19181W        W84441  10.291  15.760   5.175
19182W        W84442   4.935  27.488   1.281
19183W        W84443  34.448  19.788  14.860
19184W        W84444  39.988  11.896  10.673
19185W        W84445   0.058   7.266   3.669
19186W        W84446  16.407  43.671  11.153
19187W        W84447  44.566  25.645  12.515
19188W        W84448  29.312  17.855  11.558
19189W        W84449   3.879  29.459   5.012
19190W        W84450  44.746  42.260   4.620
19191W        W84451  20.600  25.232   4.066
19192W        W84452  39.549  16.152   4.004
19193W        W84453  27.211  40.002  10.464
19194W        W84454  31.297  35.832   5.132
19195W        W84455  37.801  15.101  13.877
19196W        W84456  25.028   2.729   1.055
19197W        W84457  43.958  35.927   1.052
19198W        W84458   2.447  33.944  11.245
19199W        W84459  13.042  14.022   1.273
19200W        W84460  37.629  16.123  14.550
19201W        W84461  44.311  19.812   3.504
19202W        W84462  27.450   2.768   4.056
19203W        W84463  38.392  32.199  11.033
19204W        W84464  38.105  25.659  12.031
19205W        W84465  42.964  34.584  11.534
19206W        W84466  19.948  23.539  14.428
19207W        W84467   1.892  11.770   5.229
19208W        W84468   0.909   3.180  11.749
19209W        W84469  38.607  27.017  14.788
19210W        W84470  28.326   8.824   2.678
19211W        W84471  22.518  27.955   1.900
19212W        W84472  30.354   6.735  13.522
19213W        W84473  14.063  23.626   3.038
19214W        W84474  16.302  25.537   2.370
19215W        W84475  18.089  13.375  12.519
19216W        W84476  15.273  13.031  11.627
19217W        W84477   8.450  36.462   3.440
19218W        W84478  22.263  15.211  12.897
19219W        W84479  17.271  28.690  11.505
19220W        W84480  26.433  37.615   2.155
19221W        W84481  39.901  38.035  10.638
19222W        W84482  22.944  13.096  11.208
19223W        W84483  19.368  19.063   4.976
19224W        W84484  19.207  29.923  12.649
19225W        W84485  16.490  17.294  13.993
19226W        W84486  15.265  28.294  11.349
19227W        W84487  20.093  20.746  12.890
19228W        W84488  30.371  38.877  12.539
19229W        W84489  24.029  38.041  14.025
19230W        W84490  25.243  17.351  12.813
19231W        W84491   0.568  38.582   3.655
19232W        W84492  41.266  17.163   0.137
19233W        W84493  13.279  12.478   2.264
19234W        W84494  22.947  33.617  11.124
19235W        W84495  30.447  30.449   1.297
19236W        W84496  25.553  42.017   3.364
19237W        W84497  11.240  17.561  11.542
19238W        W84498   2.269  30.921   1.828
19239W        W84499  28.922  44.473   2.719
19240W        W84500  14.494  20.162  14.525
19241W        W84501  10.385  35.686  12.866
19242W        W84502   3.857  20.739  10.729
19243W        W84503  34.108  28.848  11.437
19244W        W84504  41.490  27.197   0.505
19245W        W84505   6.416   5.347  12.417
19246W        W84506  34.575   5.936  13.343
19247W        W84507   3.844  36.643  12.964
19248W        W84508  15.672   3.410  11.556
19249W        W84509  27.418  28.363   1.803
19250W        W84510   0.860  17.976  11.186
19251W        W84511  23.438  11.262  13.070
19252W        W84512  42.018  10.126  13.987
19253W        W84513   7.870  42.496   3.094
19254W        W84514   6.225   7.341   4.529
19255W        W84515   6.901  37.909   1.679
19256W        W84516  33.213  41.796  11.414
19257W        W84517  37.060  17.825   0.446
19258W        W84518  18.259   9.284  10.866
19259W        W84519   5.863  19.999  11.467
19260W        W84520  17.626  32.995  11.668
19261W        W84521  33.353  15.748  14.880
19262W        W84522  10.245  16.375  10.563
19263W        W84523  32.864  18.876   4.282
19264W        W84524  42.990   2.165   3.632
19265W        W84525   4.242   8.642  13.828
19266W        W84526  30.035  31.115  13.370
19267W        W84527  11.789   2.217  12.178
19268W        W84528  20.446  43.764   0.167
19269W        W84529  27.501  25.034   3.895
19270W        W84530  28.322  25.078   3.504
19271W        W84531  12.178  29.488  10.947
19272W        W84532   5.332  25.522   9.951
19273W        W84533  42.375  40.516   0.689
19274W        W84534  34.573  41.476  10.718
19275W        W84535   2.642  40.500  14.338
19276W        W84536  25.105  22.646   1.188
19277W        W84537   2.924  15.171   3.466
19278W        W84538  13.065  12.292  11.523
19279W        W84539  36.968  10.183   2.259
19280W        W84540  34.427   2.437  11.038
19281W        W84541  14.481  23.995   0.136
19282W        W84542  41.240  12.816   3.878
19283W        W84543  10.381  14.418  11.553
19284W        W84544  25.798  38.850   4.308
19285W        W84545  16.850  16.010  10.249
19286W        W84546   7.911  12.080  13.414
19287W        W84547  38.705  41.930  13.050
19288W        W84548  15.897  36.523  13.499
19289W        W84549  25.662  21.360   0.303
19290W        W84550  23.508  44.063   1.955
19291W        W84551  37.892  30.525  10.995
19292W        W84552  40.781  42.049  12.058
19293W        W84553  24.061   0.187   4.296
19294W        W84554  25.057   2.705   4.199
19295W        W84555   5.443  26.557   4.192
19296W        W84556  22.117  18.619   1.592
19297W        W84557  12.270   3.706  13.414
19298W        W84558   4.979   9.221   4.628
19299W        W84559  30.584  14.537   1.838
19300W        W84560   8.187  44.511  11.900
19301W        W84561  19.712  28.828  10.675
19302W        W84562  44.004  28.004   2.115
19303W        W84563  17.991   9.128   0.298
19304W        W84564  17.808  36.117   1.921
19305W        W84565  43.215  24.563   0.887
19306W        W84566  26.505  36.395  12.322
19307W        W84567  25.385  18.159  14.935
19308W        W84568  16.848  27.559   0.744
19309W        W84569  42.498   8.837   2.815
19310W        W84570  38.009  26.367  11.420
19311W        W84571  32.620  30.319  11.401
19312W        W84572   9.622  37.024   3.199
19313W        W84573  44.958  39.431   1.758
19314W        W84574  19.589  31.785   2.137
19315W        W84575  24.580   3.321   3.992
19316W        W84576  26.719   6.917  10.555
19317W        W84577  29.611   4.610   2.624
19318W        W84578  42.028   4.903   3.569
19319W        W84579  41.373   2.867  10.820
19320W        W84580  11.307  26.870   0.805
19321W        W84581  11.685  41.254  11.935
19322W        W84582  14.718  21.933  14.723
19323W        W84583   2.387  10.460  14.743
19324W        W84584  15.014  24.224   1.432
19325W        W84585  18.192  14.238   0.446
19326W        W84586  38.083   9.968  14.592
19327W        W84587  35.027   1.010   0.871
19328W        W84588  20.193  11.819   2.302
19329W        W84589  21.365  40.401  12.822
19330W        W84590  43.846  24.073   1.310
19331W        W84591   3.925  35.896   4.619
19332W        W84592   2.908  35.799  11.891
19333W        W84593   1.797  19.094  10.786
19334W        W84594  40.794  21.987   2.162
19335W        W84595  34.137  28.342  11.421
19336W        W84596  17.619  25.439   1.371
19337W        W84597  26.477  23.586   0.995
19338W        W84598  15.765  24.159   2.793
19339W        W84599  18.851  26.628   4.050
19340W        W84600  13.052  27.887   2.381
19341W        W84601  25.988  13.640   2.311
19342W        W84602  24.954  42.945  11.654
19343W        W84603   8.281  21.625   1.868
19344W        W84604   5.512  27.032   0.911
19345W        W84605  38.050  13.784   1.566
19346W        W84606  18.146  18.633  13.828
19347W        W84607  14.170   5.426  13.949
19348W        W84608  41.405  20.591   4.480
19349W        W84609  16.049  13.212  11.986
19350W        W84610  32.152  36.594   4.238
19351W        W84611   0.147  25.666  13.653
19352W        W84612  21.619  13.585   2.290
19353W        W84613  37.176  21.790  13.988
19354W        W84614  23.523  31.882  11.066
19355W        W84615  12.652  34.322   1.492
19356W        W84616  33.287  13.089   0.589
19357W        W84617   9.276   3.691  10.596
19358W        W84618  18.704   2.246  14.731
19359W        W84619  23.744  15.817  13.529
19360W        W84620  15.538  23.239  12.003
19361W        W84621   7.235  25.088  13.849
19362W        W84622  26.906  19.241  12.157
19363W        W84623  41.978  37.283  13.229
19364W        W84624  18.320  20.616   0.005
19365W        W84625  12.655  17.874   2.378
19366W        W84626  15.325  20.839  11.090
19367W        W84627  28.942  27.569  14.307
19368W        W84628   9.211  41.296   2.194
19369W        W84629  36.055  20.413   3.659
19370W        W84630  27.173  26.657  11.727
19371W        W84631   3.489  44.712   0.818
19372W        W84632  24.559  39.426  12.642
19373W        W84633  16.730  42.075  13.032
19374W        W84634  32.399   7.211   4.196
19375W        W84635  23.608  40.167   4.554
19376W        W84636  15.690  36.500  13.967
19377W        W84637  44.247  42.142  12.663
19378W        W84638  35.560  27.035  10.253
19379W        W84639  11.630  20.587  13.067
19380W        W84640  32.231  35.996  13.530
19381W        W84641  18.461  37.973  13.587
19382W        W84642  35.609  10.293   1.269
19383W        W84643  30.119  33.130  11.626
19384W        W84644  20.713   2.845   2.971
19385W        W84645   4.615  28.970   1.622
19386W        W84646   0.094   0.323  12.018
19387W        W84647  29.895   3.374   4.178
19388W        W84648  43.440   2.321   2.325
19389W        W84649  21.594  26.676   5.035
19390W        W84650  35.135  19.481   0.954
19391W        W84651  16.245  39.871   1.060
19392W        W84652  16.108  38.224  14.952
19393W        W84653  37.466  30.555  10.684
19394W        W84654  37.575  11.830   0.469
19395W        W84655  34.868  34.041   0.649
19396W        W84656  32.988  38.623  12.959
19397W        W84657  31.043  37.480   1.817
19398W        W84658  22.479  37.615  10.433
19399W        W84659  19.104   2.923  12.968
19400W        W84660   8.843   8.097  12.042
19401W        W84661  14.586  31.856  11.221
19402W        W84662  20.956   3.770  10.692
19403W        W84663   1.358  11.109  14.696
19404W        W84664  39.948  43.739   2.379
19405W        W84665  36.877  33.899   1.738
19406W        W84666  30.670  39.909   2.188
19407W        W84667  25.955  22.875  14.427
19408W        W84668  37.858  24.764   1.894
19409W        W84669  25.671  38.655   3.510
19410W        W84670  20.027  40.749   4.557
19411W        W84671  12.223   2.285   4.720
19412W        W84672   3.020   4.815  13.845
19413W        W84673   7.226  30.766   1.702
19414W        W84674  12.697  16.999   2.801
19415W        W84675  36.392   4.834   3.590
19416W        W84676  42.495  38.072  11.455
19417W        W84677   3.892   9.922   1.425
19418W        W84678  42.338  13.708   3.551
19419W        W84679  43.965   4.163   3.935
19420W        W84680   9.170  38.965  10.814
19421W        W84681  17.768  39.383   4.697
19422W        W84682   4.716   3.304  10.576
19423W        W84683  35.372   5.685  12.800
19424W        W84684  12.125  41.505  14.828
19425W        W84685  28.902   3.216   4.013
19426W        W84686   6.439  12.163  12.547
19427W        W84687   9.778   0.196   4.166
19428W        W84688  41.405  24.171   0.452
19429W        W84689  38.970  36.960  12.380
19430W        W84690  38.358  15.500   1.338
19431W        W84691  14.125  40.061  12.505
19432W        W84692  26.460  24.523   1.231
19433W        W84693  41.093  24.639   1.434
19434W        W84694   0.931  19.815  13.955
19435W        W84695   7.683  34.917  11.183
19436W        W84696  29.874  41.888  10.842
19437W        W84697  44.985  22.134  11.618
19438W        W84698   0.297  44.788   0.650
19439W        W84699  19.303  19.767   0.036
19440W        W84700   2.352  20.342  14.236
19441W        W84701  41.141  41.462   1.692
19442W        W84702  30.605   7.327  13.522
19443W        W84703  43.049   2.903  12.971
19444W        W84704   2.500   6.466   4.179
19445W        W84705  28.337  20.118   1.862
19446W        W84706  41.787  28.508  14.410
19447W        W84707  15.597  14.224  11.191
19448W        W84708  18.569   1.920  12.815
19449W        W84709  10.192  44.903   3.426
19450W        W84710  35.577  17.324  14.024
19451W        W84711  16.652  18.570  14.679
19452W        W84712  15.601  27.362   0.357
19453W        W84713  22.476   9.375  11.612
19454W        W84714  13.765  32.416   4.198
19455W        W84715  40.746  15.047  14.859
19456W        W84716  38.882  23.355   0.900
19457W        W84717  25.193  31.079   2.159
19458W        W84718  43.427  28.496   0.031
19459W        W84719  43.448  24.956   0.636
19460W        W84720  43.842  16.144   2.607
19461W        W84721  31.667   6.706   2.840
19462W        W84722  20.457  22.649  13.478
19463W        W84723  20.034  41.145  11.222
19464W        W84724   5.843  25.371  13.213
19465W        W84725  19.829  15.717  10.600
19466W        W84726  36.315  21.103   1.351
19467W        W84727  10.818   5.206   2.979
19468W        W84728  36.342  23.593  12.494
19469W        W84729  16.234  24.405   0.590
19470W        W84730  16.003  25.187   3.150
19471W        W84731   0.337   0.968   1.659
19472W        W84732  26.829  37.741  12.101
19473W        W84733   3.786  20.494   0.786
19474W        W84734  43.783  44.907  14.659
19475W        W84735   2.213  14.594  13.455
19476W        W84736   4.077  34.856   1.631
19477W        W84737  37.104  39.700  12.803
19478W        W84738  35.947  37.356  14.020
19479W        W84739  40.757   6.269  14.784
19480W        W84740  29.693   8.748  12.136
19481W        W84741  23.285  42.230  12.657
19482W        W84742  27.251  15.615   1.293
19483W        W84743  42.925  24.161   3.198
19484W        W84744  43.763  10.726   4.974
19485W        W84745  44.366   9.532   4.110
19486W        W84746  36.938  21.112   4.661
19487W        W84747   7.956   3.792  11.143
19488W        W84748  19.558  39.924   4.513
19489W        W84749  39.116  10.771  13.519
19490W        W84750  23.118  44.335   9.947
19491W        W84751  21.293  15.920  11.563
19492W        W84752  23.068   6.430  11.172
19493W        W84753  24.398  34.422   2.477
19494W        W84754  18.990  25.148   0.857
19495W        W84755  16.781  19.591  14.541
19496W        W84756  24.162  27.277  14.902
19497W        W84757  29.723  18.431   3.759
19498W        W84758  19.345  23.807  11.085
19499W        W84759  23.211  19.716  14.393
19500W        W84760  31.624  23.073   1.802
19501W        W84761  36.935  26.672  14.491
19502W        W84762  42.506   8.708  14.106
19503W        W84763  42.486   2.369  11.875
19504W        W84764  11.188  24.567   1.394
19505W        W84765   1.872  34.339  13.993
19506W        W84766   9.601   3.630  14.038
19507W        W84767  31.583  31.997  14.325
19508W        W84768  15.528  16.201   2.773
19509W        W84769  13.661  44.796   2.827
19510W        W84770  35.479  32.214   4.486
19511W        W84771  14.146  42.960  12.626
19512W        W84772  33.166  35.011  13.797
19513W        W84773  37.789  38.931   0.869
19514W        W84774   7.419  32.950  12.437
19515W        W84775  19.195  23.622   2.481
19516W        W84776  44.357  11.693  13.132
19517W        W84777  42.221   1.691   3.306
19518W        W84778   7.808  26.025  12.189
19519W        W84779  17.046  35.410   1.976
19520W        W84780  17.602   7.286  13.604
19521W        W84781   3.681  25.943  14.563
19522W        W84782   6.832  15.197   0.314
19523W        W84783  15.626   9.895  11.549
19524W        W84784  27.087  36.940  11.507
19525W        W84785  13.601  22.891   3.178
19526W        W84786   2.748  15.167   2.521
19527W        W84787   3.889  36.077  13.338
19528W        W84788   3.454  32.463   2.305
19529W        W84789  21.803  17.801  12.101
19530W        W84790  19.112  27.074   2.278
19531W        W84791  19.700  36.426  13.973
19532W        W84792  42.849   6.949   0.193
19533W        W84793  33.546   3.265   4.096
19534W        W84794  16.666  25.691   4.298
19535W        W84795  36.127  22.618  13.830
19536W        W84796  44.471  42.720  13.548
19537W        W84797  18.467  11.022  12.842
19538W        W84798  39.060   6.858  10.542
19539W        W84799   8.413  30.585   0.749
19540W        W84800  44.546  39.889  10.486
19541W        W84801  10.455  21.061  11.689
19542W        W84802   4.868   9.745   4.761
19543W        W84803  15.229   2.727   1.001
19544W        W84804  36.857  41.407   0.224
19545W        W84805   7.393  44.707  10.746
19546W        W84806  11.657  13.181   0.423
19547W        W84807   0.771   3.390   4.907
19548W        W84808  14.289  35.274   3.397
19549W        W84809  44.844  38.390   4.554
19550W        W84810  43.968  16.537  12.879
19551W        W84811   9.355   2.212   0.735
19552W        W84812  39.434  27.454  11.078
19553W        W84813  34.970  34.291   4.034
19554W        W84814  43.583  35.358  12.575
19555W        W84815  36.717  43.980  14.022
19556W        W84816  29.098  10.292   2.944
19557W        W84817  11.132  43.210  14.682
19558W        W84818  37.600  11.200  13.061
19559W        W84819   2.176  21.708  11.569
19560W        W84820  44.873  19.994  12.806
19561W        W84821  18.275  22.467   2.278
19562W        W84822  31.690   4.867   3.687
19563W        W84823  26.191  12.154  14.569
19564W        W84824   2.751   9.861  12.574
19565W        W84825   3.036  30.231   5.388
19566W        W84826   7.679  13.770  10.655
19567W        W84827  34.546   0.726  12.487
19568W        W84828  28.164  29.406   0.669
19569W        W84829  31.454   7.912  12.332
19570W        W84830   8.826  16.588  12.156
19571W        W84831  35.919  28.952   0.353
19572W        W84832  19.196  12.651  13.898
19573W        W84833  18.299  35.328  11.945
19574W        W84834   6.963  24.032   0.539
19575W        W84835  24.189   9.419   4.498
19576W        W84836  28.906  25.193  11.223
19577W        W84837  23.747  26.059  14.811
19578W        W84838  24.076  30.303   3.844
19579W        W84839  15.102  20.742   4.621
19580W        W84840  12.470   3.542   5.428
19581W        W84841  23.130  42.483  13.804
19582W        W84842  10.416   5.963  12.888
19583W        W84843   5.934  19.374  10.354
19584W        W84844  27.683  22.951  12.637
19585W        W84845  15.010  41.965  13.993
19586W        W84846   3.625  27.723   0.786
19587W        W84847  27.008  32.883   4.857
19588W        W84848   8.682  35.870  14.460
19589W        W84849  10.829  32.162   4.561
19590W        W84850  22.029  14.871  11.269
19591W        W84851  36.966   7.191   4.665
19592W        W84852  31.723  43.927   0.274
19593W        W84853  30.920  33.623  12.970
19594W        W84854  44.340  37.864  10.542
19595W        W84855  15.713   7.541   1.845
19596W        W84856  27.689   3.417   0.678
19597W        W84857  26.782  24.369  12.567
19598W        W84858  39.018  33.550   2.487
19599W        W84859  36.603  30.031  10.905
19600W        W84860  42.287  24.210   0.523
19601W        W84861  37.835  33.403   4.508
19602W        W84862  24.731  23.556   4.058
19603W        W84863  15.573  37.478  13.331
19604W        W84864  12.827  41.355  10.751
19605W        W84865  38.282  35.903  14.957
19606W        W84866  25.083   0.318  14.484
19607W        W84867  44.820  36.783  13.812
19608W        W84868   1.731  33.669  12.147
19609W        W84869  23.284  40.457   3.810
19610W        W84870  33.180   2.410   2.131
19611W        W84871  26.148  25.512   4.576
19612W        W84872  16.087   5.044  10.213
19613W        W84873  22.554  26.448   2.140
19614W        W84874  44.948   5.179  10.747
19615W        W84875  35.453  27.270   3.111
19616W        W84876  21.711  19.794   4.156
19617W        W84877  41.405  24.246  13.922
19618W        W84878   2.615   6.643   2.408
19619W        W84879  24.094  44.110  13.254
19620W        W84880  34.938  12.198   2.216
19621W        W84881  29.337   9.163  11.580
19622W        W84882  13.413  19.003   2.104
19623W        W84883   8.464  25.460  13.592
19624W        W84884  27.720  37.048  11.207
19625W        W84885  27.932  24.151   3.603
19626W        W84886   1.725  41.346  12.477
19627W        W84887  25.886  26.679  12.096
19628W        W84888  32.231   2.678   1.857
19629W        W84889  14.304  39.906   3.243
19630W        W84890  11.240   4.857  13.097
19631W        W84891   3.804   8.481  11.792
19632W        W84892  12.143   3.879   4.526
19633W        W84893  13.767  31.899  11.541
19634W        W84894   3.921  31.799   2.251
19635W        W84895  17.680  14.315   1.000
19636W        W84896  29.574  36.851  10.882
19637W        W84897  26.695  27.281   4.168
19638W        W84898  34.805  41.249   0.320
19639W        W84899  17.696  35.662   4.510
19640W        W84900  13.527  38.062  13.817
19641W        W84901  15.181  16.360   2.415
19642W        W84902  32.790  13.673   0.159
19643W        W84903   1.144  15.834  12.682
19644W        W84904  18.645  17.359   4.486
19645W        W84905  17.854  36.681  11.443
19646W        W84906  43.946  16.118   4.581
19647W        W84907  24.696  32.999  11.984
19648W        W84908  11.131   1.836  11.538
19649W        W84909  24.776  44.181  14.932
19650W        W84910  20.676  31.774  11.286
19651W        W84911  33.929  23.598  13.332
19652W        W84912  13.130  10.540   4.295
19653W        W84913  19.023  16.723   3.727
19654W        W84914   9.391  40.878  13.970
19655W        W84915   1.991  26.684   3.552
19656W        W84916  23.480  14.538   4.096
19657W        W84917  15.480  36.101   2.978
19658W        W84918   8.187  27.042  12.778
19659W        W84919  44.448  39.887  13.466
19660W        W84920  35.396  32.583   0.986
19661W        W84921  44.303  25.153   0.350
19662W        W84922  14.190   4.014  11.262
19663W        W84923   7.672  28.167  11.233
19664W        W84924  40.149   3.750  11.580
19665W        W84925  25.019  37.317  14.783
19666W        W84926  39.631  29.112  11.074
19667W        W84927   9.474  35.618   4.689
19668W        W84928  28.470  42.412   1.374
19669W        W84929   4.847  30.868   4.115
19670W        W84930   0.397  10.929  10.698
19671W        W84931  18.111  22.730   0.631
19672W        W84932  13.783  17.179   0.819
19673W        W84933  44.474   8.738  11.528
19674W        W84934  43.549  25.635   4.273
19675W        W84935   1.587  21.624   4.263
19676W        W84936   1.804  19.024  14.983
19677W        W84937  28.964   4.151   3.129
19678W        W84938  23.470  21.989  14.679
19679W        W84939  41.905   0.424   4.944
19680W        W84940  13.652  11.715   3.439
19681W        W84941  22.988   0.165   2.857
19682W        W84942   4.789  25.256  12.991
19683W        W84943  18.067   4.361   3.528
19684W        W84944  35.852   0.813  14.509
19685W        W84945  22.094  11.598  12.975
19686W        W84946  32.948  17.189   3.228
19687W        W84947  40.914  19.916   1.451
19688W        W84948  29.093   5.457  12.040
19689W        W84949  23.716  31.855  12.366
19690W        W84950   6.351   1.260   2.730
19691W        W84951   9.916  32.091  14.387
19692W        W84952   5.288  10.790  10.411
19693W        W84953   5.070   8.199  11.223
19694W        W84954  10.684  41.150   2.610
19695W        W84955   4.684  35.408   2.269
19696W        W84956  10.071  17.262   3.445
19697W        W84957   6.764  13.502   3.882
19698W        W84958  39.870  11.696  14.358
19699W        W84959   3.484  33.525  13.511
19700W        W84960   0.984   6.789  10.820
19701W        W84961  24.819   1.389   1.698
19702W        W84962  27.930  29.948  12.283
19703W        W84963  41.849  28.542   1.905
19704W        W84964  31.313  22.717  11.501
19705W        W84965   4.888  24.102  14.409
19706W        W84966   2.934  29.218   3.298
19707W        W84967  42.866   9.315  13.409
19708W        W84968  24.457  13.277   3.890
19709W        W84969   1.252  40.554  14.793
19710W        W84970  23.250  23.544  11.681
19711W        W84971  11.586  15.165  11.485
19712W        W84972  36.491  19.991  13.362
19713W        W84973  41.300  42.847  12.038
19714W        W84974   2.777  41.352   0.982
19715W        W84975  16.167  37.936   1.806
19716W        W84976  41.013  12.111  14.313
19717W        W84977   4.490  30.709  14.850
19718W        W84978  13.682  19.726  11.345
19719W        W84979   7.073  37.804  10.976
19720W        W84980  42.499  26.653  13.051
19721W        W84981   1.832  35.561   2.930
19722W        W84982   3.554  15.378   0.461
19723W        W84983  16.117  29.719   1.813
19724W        W84984  42.248   3.438   4.598
19725W        W84985  32.547  37.750   3.147
19726W        W84986  32.507  10.191  14.567
19727W        W84987  22.437  40.322   4.087
19728W        W84988   8.587  38.868   4.569
19729W        W84989  25.574   3.002  11.561
19730W        W84990  29.625   5.391   1.848
19731W        W84991  23.483  19.340   4.119
19732W        W84992  35.201  44.391  13.914
19733W        W84993   9.312  13.103   3.800
19734W        W84994   8.177  41.826   1.075
19735W        W84995  40.398  22.655  14.826
19736W        W84996  13.172   2.307  12.519
19737W        W84997  24.196  10.218  10.673
19738W        W84998  35.388  17.762  12.100
19739W        W84999  30.624  38.800   1.352
19740W        W85000  23.775   0.432  14.418
19741W        W85001   2.112  28.735  13.465
19742W        W85002  11.816   3.998  13.401
19743W        W85003  29.516   7.951   4.205
19744W        W85004   0.442  28.606   4.195
19745W        W85005  18.186  38.548  11.579
19746W        W85006  10.473  17.563  13.012
19747W        W85007  33.036  22.466  12.479
19748W        W85008  16.155   2.518   3.762
19749W        W85009  22.719  10.191  13.991
19750W        W85010  12.746   1.434   1.455
19751W        W85011  37.837  39.239  10.613
19752W        W85012  32.679  29.593  12.417
19753W        W85013  43.909   7.383   4.764
19754W        W85014  10.748  19.635   0.557
19755W        W85015  19.309  24.407   4.273
19756W        W85016  34.844  38.403   2.281
19757W        W85017  17.812  15.775  12.123
19758W        W85018   5.657  25.023   2.437
19759W        W85019  36.649  27.827  10.174
19760W        W85020   3.678  18.811   1.609
19761W        W85021  12.281  19.122   1.724
19762W        W85022  35.809  38.568  13.384
19763W        W85023  29.454  29.106   4.250
19764W        W85024  33.306  20.939   4.591
19765W        W85025  30.742  29.005   0.809
19766W        W85026  27.096   1.314  11.880
19767W        W85027  25.043  21.511   2.677
19768W        W85028   3.717  38.403  11.567
19769W        W85029  21.196  34.764   0.098
19770W        W85030  25.959  13.206   3.705
19771W        W85031  30.361  26.652   5.037
19772W        W85032   9.818  37.157   0.327
19773W        W85033   1.908  32.478   1.619
19774W        W85034  31.293  28.103   1.411
19775W        W85035  21.375   7.172  11.267
19776W        W85036  24.042  29.415  10.770
19777W        W85037  10.934  39.913  14.782
19778W        W85038   4.823   8.719   0.248
19779W        W85039  31.300  13.337   0.387
19780W        W85040  17.116  36.492   2.850
19781W        W85041   3.944  12.184   0.484
19782W        W85042  21.054  20.731  13.118
19783W        W85043  29.445  18.173  14.373
19784W        W85044  32.714  20.297   1.316
19785W        W85045  10.462   4.962  12.032
19786W        W85046   0.329   3.410   4.609
19787W        W85047  42.101  38.345  13.363
19788W        W85048  32.384   6.661   3.351
19789W        W85049  29.502  25.212   4.566
19790W        W85050   6.100  34.732   1.470
19791W        W85051  10.061  31.014   1.354
19792W        W85052  30.970   6.193   2.431
19793W        W85053  34.210  35.276   3.690
19794W        W85054  13.448  17.832   3.784
19795W        W85055  33.301   7.461   0.385
19796W        W85056  37.050  41.072   0.790
19797W        W85057  30.423  16.093  14.577
19798W        W85058  40.520   1.799   1.925
19799W        W85059  22.067  27.621   3.812
19800W        W85060  35.831  29.487   1.456
19801W        W85061  24.635   0.575  14.561
19802W        W85062  15.216   1.994  12.252
19803W        W85063  25.595  30.484  10.707
19804W        W85064  35.077   4.843  10.659
19805W        W85065  27.731  36.410  12.621
19806W        W85066  34.256  10.168   4.093
19807W        W85067  11.166  25.477   2.815
19808W        W85068  12.543   7.298  14.170
19809W        W85069  29.690  33.588  10.591
19810W        W85070  12.973  37.466  12.759
19811W        W85071  12.222  12.716   1.324
19812W        W85072  10.615  32.331   1.096
19813W        W85073  29.546  19.619   4.430
19814W        W85074   1.656  35.348  13.323
19815W        W85075  19.586  10.604   2.322
19816W        W85076  28.242  31.493  13.365
19817W        W85077  13.907  24.482  10.749
19818W        W85078  31.988  19.742   1.321
19819W        W85079   4.721   0.067   3.654
19820W        W85080  44.905  28.250  13.372
19821W        W85081  26.903   5.707  11.645
19822W        W85082   8.470  11.819   4.416
19823W        W85083   0.053   9.384  11.880
19824W        W85084  44.873  26.154  11.775
19825W        W85085   8.767  34.015  11.179
19826W        W85086  18.056  27.887   0.416
19827W        W85087  34.050  24.986  14.357
19828W        W85088  36.491  26.020  12.948
19829W        W85089  18.504  16.840   4.461
19830W        W85090  43.469   2.493  11.079
19831W        W85091  44.261  13.023   4.628
19832W        W85092   2.749  34.543  14.834
19833W        W85093  18.295  40.376   1.469
19834W        W85094  26.454  42.447   2.249
19835W        W85095   1.078  36.284   4.518
19836W        W85096  15.141  34.157  13.903
19837W        W85097  10.316  30.173  13.989
19838W        W85098  35.343  25.723   9.819
19839W        W85099  18.140  42.743   2.868
19840W        W85100  20.378  14.316  10.143
19841W        W85101  21.932  34.240   1.502
19842W        W85102  42.127  38.727   0.661
19843W        W85103  12.918  40.432   4.310
19844W        W85104   3.965  27.267   3.508
19845W        W85105  33.411  31.478  14.765
19846W        W85106   3.523  19.652   0.687
19847W        W85107  20.872  20.037   2.667
19848W        W85108  13.138  42.435  11.515
19849W        W85109   3.232  35.970  12.222
19850W        W85110  13.121  30.833   1.353
19851W        W85111  11.593  43.999  11.075
19852W        W85112  14.060  33.901  12.509
19853W        W85113  40.024  40.598  14.032
19854W        W85114  30.116  44.464  11.586
19855W        W85115   4.871   4.304   4.816
19856W        W85116  39.975  20.110   3.599
19857W        W85117  32.164  29.022  13.515
19858W        W85118  16.025   0.350   3.093
19859W        W85119  22.640  44.354   1.803
19860W        W85120   9.431   1.074   3.132
19861W        W85121   9.283  43.334   3.267
19862W        W85122  19.797  23.466   3.686
19863W        W85123  16.560  17.440  11.945
19864W        W85124  15.992  30.439  13.333
19865W        W85125  35.634  17.981   3.307
19866W        W85126  22.136   9.651   4.166
19867W        W85127   3.789  21.050   5.039
19868W        W85128  37.084  43.520  12.619
19869W        W85129  39.453  25.333   4.322
19870W        W85130  41.382  33.100  13.307
19871W        W85131  11.721  36.213  12.362
19872W        W85132  24.593  17.490  13.841
19873W        W85133  10.038   8.388   4.458
19874W        W85134  34.227  17.695  10.795
19875W        W85135  24.413  21.032  11.513
19876W        W85136  36.584  13.176   3.310
19877W        W85137  24.643   6.231   0.535
19878W        W85138  13.641   9.388   1.319
19879W        W85139   7.940  17.741  11.622
19880W        W85140  39.147  43.389   2.759
19881W        W85141  26.210   0.399  11.946
19882W        W85142  22.846  35.293   4.036
19883W        W85143  18.526  39.903  10.698
19884W        W85144   6.861   2.771   2.210
19885W        W85145  35.950   9.355  14.893
19886W        W85146  37.311  15.326  13.867
19887W        W85147   2.960  40.439  13.070
19888W        W85148  27.878  17.490   3.388
19889W        W85149   1.082  12.961  11.221
19890W        W85150  28.627  34.611   2.292
19891W        W85151  22.632   0.086   0.483
19892W        W85152  35.057  44.785   1.756
19893W        W85153  38.475   0.370  12.073
19894W        W85154  16.115  37.973  13.874
19895W        W85155  14.257  33.511  10.732
19896W        W85156  38.724  16.188   1.759
19897W        W85157  26.050   0.463   0.790
19898W        W85158  35.990  42.279  12.099
19899W        W85159  25.676  18.534  13.478
19900W        W85160   0.285  40.779   0.351
19901W        W85161  24.458  25.509  13.510
19902W        W85162  14.618  11.140   1.313
19903W        W85163  38.287   2.211  13.341
19904W        W85164  41.449   3.739  14.767
19905W        W85165  41.115  22.916  12.590
19906W        W85166  25.751  35.445  13.977
19907W        W85167  34.193  42.522   3.175
19908W        W85168  40.761  26.202  11.961
19909W        W85169   7.657  20.107  13.452
19910W        W85170  29.995  14.259   4.497
19911W        W85171  39.573  33.387   0.201
19912W        W85172  23.969  25.269   0.401
19913W        W85173  12.211   7.700  12.170
19914W        W85174  27.085  27.392   3.183
19915W        W85175  41.385  37.643  14.957
19916W        W85176  26.649  13.287   1.485
19917W        W85177  37.712  32.631  12.722
19918W        W85178  34.012  44.456  13.457
19919W        W85179   1.615  19.754   2.466
19920W        W85180  43.056  28.985   4.218
19921W        W85181  36.988  34.308   3.849
19922W        W85182  33.869  17.859  11.107
19923W        W85183  19.735  42.777  12.444
19924W        W85184  16.077  22.281   0.770
19925W        W85185   9.765  15.858  13.515
19926W        W85186  30.827  16.584   4.551
19927W        W85187  34.383  21.066   3.663
19928W        W85188  28.867  21.721  14.411
19929W        W85189  15.048  37.671  11.097
19930W        W85190  25.010   8.891  11.573
19931W        W85191  27.818  26.207  11.462
19932W        W85192  30.440  32.727  12.963
19933W        W85193  27.539  23.129  13.101
19934W        W85194  39.963   1.268  11.602
19935W        W85195  19.871  12.668   1.008
19936W        W85196  25.606   6.393   2.445
19937W        W85197  39.724  38.089   2.893
19938W        W85198  39.574   5.796  11.962
19939W        W85199  23.483  17.370   3.555
19940W        W85200   4.719   7.900  12.555
19941W        W85201  21.695  20.818   9.696
19942W        W85202  16.494  39.152   2.362
19943W        W85203   4.799  20.038  13.450
19944W        W85204  36.627  32.124   3.162
19945W        W85205   5.126   5.492  13.602
19946W        W85206  31.510   7.232   1.634
19947W        W85207  29.115  25.191  14.876
19948W        W85208   9.505  38.302  14.243
19949W        W85209   3.910  23.234  14.183
19950W        W85210  33.368  39.458   1.125
19951W        W85211   7.868  14.173  14.286
19952W        W85212  31.870  20.612  13.057
19953W        W85213  38.639  23.040  14.413
19954W        W85214  17.468  40.922  14.009
19955W        W85215  43.502  40.034   1.205
19956W        W85216  14.478   7.645  14.572
19957W        W85217  11.822  26.769   3.383
19958W        W85218  13.721  20.947   1.706
19959W        W85219  28.950  25.897   1.930
19960W        W85220  29.664  14.769   3.740
19961W        W85221  19.944  42.989  14.742
19962W        W85222  34.311  21.149   2.436
19963W        W85223  20.161   1.249  13.599
19964W        W85224  12.378  34.670  14.630
19965W        W85225  43.436  30.448  13.781
19966W        W85226  36.875  18.805   0.247
19967W        W85227   6.185  31.085   3.601
19968W        W85228   6.997  13.541   0.176
19969W        W85229  11.761   5.972  13.077
19970W        W85230  31.804  35.539  11.162
19971W        W85231  14.154  18.506  10.772
19972W        W85232  41.462  42.947   3.190
19973W        W85233  29.988  29.485   3.188
19974W        W85234  37.625   6.835  12.064
19975W        W85235  41.302  13.106  13.912
19976W        W85236  18.563  22.540  14.752
19977W        W85237  41.361  13.367  13.416
19978W        W85238   6.346  37.988  13.055
19979W        W85239  32.092  25.878  11.876
19980W        W85240  18.621  33.144  12.874
19981W        W85241  42.678  21.501  13.328
19982W        W85242   3.835  39.114   0.162
19983W        W85243  16.276  29.712  10.204
19984W        W85244  37.072  27.038  14.027
19985W        W85245   7.218  20.626   1.769
19986W        W85246  25.754   1.823   5.068
19987W        W85247  19.084  23.002  10.043
19988W        W85248  38.413  22.686  10.440
19989W        W85249  39.141  10.055  12.945
19990W        W85250  16.827   6.405   2.621
19991W        W85251  14.161  23.492   4.069
19992W        W85252  15.552  23.976   3.220
19993W        W85253  32.943   0.255  11.583
19994W        W85254  24.296  19.137   2.381
19995W        W85255  21.630  17.822   4.175
19996W        W85256   0.947  26.944   1.188
19997W        W85257  29.358  24.189  14.748
19998W        W85258   4.417  18.225  11.138
19999W        W85259  28.844   8.826   4.300
20000W        W85260  14.728  30.999   4.951
20001W        W85261  26.491   2.149   3.562
20002W        W85262  14.519  36.040  12.442
20003W        W85263  40.959  20.135   2.873
20004W        W85264  12.751  20.009  11.156
20005W        W85265  15.854   0.726   4.585
20006W        W85266  36.146  20.521   5.028
20007W        W85267  11.358  25.840   0.768
20008W        W85268  24.685  20.715  10.538
20009W        W85269   8.272  32.116   3.317
20010W        W85270  15.879  29.294   1.947
20011W        W85271  15.918  42.382  14.071
20012W        W85272  12.446  32.258  11.629
20013W        W85273  16.579  26.998  11.142
20014W        W85274   9.668   5.681   3.572
20015W        W85275  19.057   5.284   2.132
20016W        W85276  41.562  18.625  12.497
20017W        W85277  26.891  21.521   3.716
20018W        W85278  13.239  32.371  13.566
20019W        W85279   5.178   4.225  12.789
20020W        W85280   9.704  33.355  14.892
20021W        W85281  18.802   6.787   0.949
20022W        W85282  41.016  29.053   2.214
20023W        W85283  43.314  21.358   2.295
20024W        W85284  42.638  20.300   1.296
20025W        W85285  42.035   5.913  10.673
20026W        W85286  44.406  10.077   5.087
20027W        W85287  44.774  16.727   4.385
20028W        W85288  24.392  33.231  11.625
20029W        W85289  16.593  28.186  13.259
20030W        W85290  40.609  40.464  12.176
20031W        W85291  27.149   9.463   1.104
20032W        W85292  24.845  19.815  10.731
20033W        W85293  12.147  22.632  13.934
20034W        W85294  44.283   7.284   3.230
20035W        W85295  22.283  21.086  12.460
20036W        W85296  36.141  44.284  11.148
20037W        W85297  40.281  10.625   0.469
20038W        W85298   0.023  21.033   4.039
20039W        W85299  22.159   8.223   3.842
20040W        W85300  20.506   8.836  13.471
20041W        W85301  21.291  33.713  14.523
20042W        W85302  42.525   7.864  14.273
20043W        W85303  39.270  30.982  13.978
20044W        W85304   5.744  21.276  10.747
20045W        W85305   0.051  21.444   0.940
20046W        W85306   3.723   4.996   2.157
20047W        W85307  20.288  23.827   0.844
20048W        W85308  31.257  37.592  13.493
20049W        W85309  42.015   0.506   1.899
20050W        W85310  41.102  42.393   4.209
20051W        W85311  23.981  38.040   3.162
20052W        W85312  21.576   7.626  14.862
20053W        W85313  16.470  31.073  12.472
20054W        W85314   0.325  18.836   3.660
20055W        W85315  19.234  19.627  14.559
20056W        W85316  40.631  15.820   2.231
20057W        W85317  13.061  44.049   1.521
20058W        W85318  25.217  21.146   1.763
20059W        W85319   5.000  26.254   3.513
20060W        W85320  35.522  14.206  12.842
20061W        W85321  35.992  32.491   2.405
20062W        W85322  35.913   9.670  14.070
20063W        W85323  23.668  28.030  13.541
20064W        W85324  33.001  10.338   3.624
20065W        W85325  38.856  32.676  13.633
20066W        W85326  38.364  15.728   0.412
20067W        W85327  18.964  14.146   4.824
20068W        W85328  17.347  13.798  13.615
20069W        W85329   6.925  42.207  10.708
20070W        W85330  32.430  24.684  12.412
20071W        W85331  15.330  30.063  10.782
20072W        W85332  29.436   5.192  14.242
20073W        W85333  35.903  33.335  14.056
20074W        W85334   5.468  35.368   0.970
20075W        W85335   0.289  41.328  10.767
20076W        W85336  41.864  41.922  14.456
20077W        W85337  21.063  24.898   2.437
20078W        W85338  24.155  14.751  12.440
20079W        W85339  36.473  23.663   2.161
20080W        W85340  14.246  27.250   0.865
20081W        W85341  13.692   4.401  12.403
20082W        W85342  27.315  38.314   0.816
20083W        W85343  43.908  12.829   2.654
20084W        W85344  30.144  26.716  10.258
20085W        W85345  17.107  25.408   4.557
20086W        W85346  44.050  10.294   1.545
20087W        W85347  22.766  14.200   2.164
20088W        W85348  40.352  25.006  12.478
20089W        W85349  11.901  29.340   1.673
20090W        W85350  25.524   8.681   1.315
20091W        W85351  13.323  24.216   5.038
20092W        W85352  25.531   3.923   0.884
20093W        W85353  39.251  16.163   4.989
20094W        W85354  21.855   6.392  11.056
20095W        W85355  28.410  26.943   3.595
20096W        W85356   2.657   8.178   0.645
20097W        W85357  22.665  15.539   4.149
20098W        W85358  25.712  17.455   3.762
20099W        W85359  37.270   9.403   4.549
20100W        W85360  14.740  14.266  11.432
20101W        W85361  15.303  36.351   1.404
20102W        W85362  24.700   5.032  12.721
20103W        W85363  13.089  25.980  14.431
20104W        W85364  32.017   4.412  12.360
20105W        W85365  40.627  31.993   1.682
20106W        W85366  42.817  14.265   0.271
20107W        W85367  33.569   5.528   0.283
20108W        W85368  29.474  15.824  14.087
20109W        W85369  10.511  44.463  13.516
20110W        W85370  18.679  33.635   3.768
20111W        W85371  15.233  11.368   3.753
20112W        W85372  35.569  36.678   2.825
20113W        W85373  18.562  34.536   2.668
20114W        W85374  13.948  43.947  12.460
20115W        W85375  21.820  23.395   1.151
20116W        W85376  33.078  39.362   0.022
20117W        W85377   5.204  44.917   3.679
20118W        W85378  23.841  12.626  11.148
20119W        W85379  18.811   3.533   3.303
20120W        W85380  29.697   6.757   1.167
20121W        W85381  42.259  41.353   2.695
20122W        W85382  30.402  41.894   1.493
20123W        W85383  20.853  24.075   3.163
20124W        W85384  29.751  43.973  13.868
20125W        W85385  18.228  20.237   1.473
20126W        W85386  15.859  16.547  14.503
20127W        W85387  43.238  27.727   4.626
20128W        W85388  44.561  17.565  12.551
20129W        W85389  11.676  19.511   0.147
20130W        W85390  12.148  20.518   4.621
20131W        W85391  29.383  42.243  12.177
20132W        W85392  38.354  35.905   1.829
20133W        W85393  41.789  17.561  14.895
20134W        W85394   0.882  10.604  12.896
20135W        W85395  35.797  38.825  13.849
20136W        W85396  34.830   1.019   2.349
20137W        W85397   4.693  14.619   0.761
20138W        W85398   9.403  41.086  13.482
20139W        W85399  17.912  11.255  14.938
20140W        W85400   0.717  13.066   0.121
20141W        W85401  21.450  30.164   4.607
20142W        W85402  36.477  32.546   2.225
20143W        W85403  30.162  16.126  11.159
20144W        W85404   1.230  10.122  11.197
20145W        W85405  29.506   5.443   4.432
20146W        W85406  27.616  41.966  13.451
20147W        W85407  41.393  20.417   1.796
20148W        W85408  16.099  37.364  13.339
20149W        W85409  42.938  44.436  14.314
20150W        W85410  20.110  29.458  12.576
20151W        W85411  37.383  30.058   0.330
20152W        W85412  10.890   0.006  14.721
20153W        W85413   1.210  33.991   2.643
20154W        W85414  41.066  34.567  12.670
20155W        W85415  29.898  11.855  12.961
20156W        W85416   3.646   6.241  14.241
20157W        W85417  15.515  26.058   0.676
20158W        W85418  26.391  25.379   3.251
20159W        W85419  23.600  24.246   1.619
20160W        W85420   3.313  36.608   2.267
20161W        W85421   4.116   6.876  13.596
20162W        W85422  37.031  35.469   0.749
20163W        W85423   7.898   0.366  11.618
20164W        W85424  37.600  31.113  14.379
20165W        W85425  41.443  22.331  11.576
20166W        W85426   0.762   2.185  10.867
20167W        W85427  29.324  31.794   4.236
20168W        W85428  38.015   3.724   1.361
20169W        W85429  29.353  30.368   1.844
20170W        W85430  32.882   0.092  10.697
20171W        W85431  17.709  31.837   4.340
20172W        W85432  14.531  27.274   1.754
20173W        W85433  19.699  11.590  13.432
20174W        W85434  32.729   8.225  12.581
20175W        W85435  29.934  37.350   3.569
20176W        W85436   7.866  39.550   4.292
20177W        W85437  34.007  22.590   3.703
20178W        W85438  38.371  32.466   1.941
20179W        W85439  25.822  24.598  12.582
20180W        W85440  25.493  37.649  10.621
20181W        W85441  17.698  24.038  14.978
20182W        W85442  23.167  33.320   4.863
20183W        W85443  32.835  41.921   0.728
20184W        W85444   4.021  13.201  11.216
20185W        W85445  19.010  18.516  11.899
20186W        W85446   7.005  44.104  11.971
20187W        W85447   8.830  31.515   3.811
20188W        W85448  27.096  38.813  14.847
20189W        W85449  38.478  40.983   1.392
20190W        W85450  11.318  32.675   1.468
20191W        W85451  41.694  28.647   4.175
20192W        W85452   7.005  38.587  11.239
20193W        W85453   7.948  24.920   4.083
20194W        W85454  28.190  13.364   3.040
20195W        W85455   8.884  18.206  13.516
20196W        W85456  19.707  21.108   3.050
20197W        W85457  18.404  30.228   0.179
20198W        W85458  24.965   5.334   0.783
20199W        W85459  16.061  17.837   0.759
20200W        W85460  17.942  30.567  13.840
20201W        W85461  16.893  41.511  10.482
20202W        W85462   2.951  34.527  12.846
20203W        W85463   0.412   1.061  14.443
20204W        W85464  21.240   6.691   4.466
20205W        W85465  20.086  40.074   1.377
20206W        W85466  33.506  13.905  11.236
20207W        W85467  14.851   1.841   2.343
20208W        W85468  24.387  26.747  13.516
20209W        W85469  21.744   0.643   3.261
20210W        W85470   7.640  40.452  12.560
20211W        W85471  18.565  28.484  11.924
20212W        W85472  43.363   3.586   4.088
20213W        W85473  23.168  44.540  10.421
20214W        W85474  37.967  41.939   2.366
20215W        W85475  19.777   1.535  12.866
20216W        W85476   1.845  20.501   3.200
20217W        W85477  42.965  44.534   3.623
20218W        W85478  37.761  21.924  14.727
20219W        W85479   5.735   7.117  10.691
20220W        W85480  14.133  33.050  10.990
20221W        W85481  44.260   8.770  14.716
20222W        W85482  24.959  20.616   3.145
20223W        W85483  33.856  38.364  12.776
20224W        W85484   5.723  10.373  13.781
20225W        W85485   5.126  18.003   1.692
20226W        W85486  31.611  16.800   0.854
20227W        W85487   6.312  30.002   2.728
20228W        W85488  35.448   1.287   1.138
20229W        W85489  40.857  38.097   1.523
20230W        W85490  16.224  27.552   3.992
20231W        W85491   1.821  11.617  13.436
20232W        W85492  22.757  21.614   1.827
20233W        W85493  37.439  39.101  13.709
20234W        W85494  11.631  19.796   0.659
20235W        W85495  21.221  11.104   3.272
20236W        W85496  17.708  13.099  10.752
20237W        W85497  35.583  25.905  14.394
20238W        W85498  18.202   6.847   1.791
20239W        W85499  40.326  29.675  12.315
20240W        W85500   6.357  42.088  14.253
20241W        W85501  24.974   6.862   1.545
20242W        W85502  27.955  15.319   2.376
20243W        W85503  36.012  29.644  13.373
20244W        W85504  19.093  19.928   1.341
20245W        W85505   0.964  21.663   4.611
20246W        W85506  18.658   0.478  14.986
20247W        W85507  25.962  39.373  14.020
20248W        W85508  34.359  36.644  12.752
20249W        W85509  36.745  28.901   3.728
20250W        W85510  40.264  18.331  14.958
20251W        W85511  27.464  15.017  11.749
20252W        W85512  39.412  32.431   1.942
20253W        W85513  20.079  19.065   9.942
20254W        W85514  39.070  35.250   2.857
20255W        W85515   2.443   5.659   4.571
20256W        W85516   3.499  31.009   1.264
20257W        W85517  23.670  25.110   4.646
20258W        W85518  37.041   4.745   2.227
20259W        W85519   8.695   9.990  14.807
20260W        W85520  32.105  44.433  13.067
20261W        W85521  43.109  41.311  11.434
20262W        W85522  43.261  35.620   3.720
20263W        W85523  22.280  11.394   1.479
20264W        W85524  27.860  35.024   3.777
20265W        W85525  29.426  22.017  10.747
20266W        W85526  17.153  37.024   2.108
20267W        W85527  38.288  16.832  14.142
20268W        W85528  39.630  15.760  11.063
20269W        W85529  39.942   8.400  13.706
20270W        W85530  28.539  40.599  14.303
20271W        W85531   3.233  17.176  14.952
20272W        W85532  12.622   8.524   3.648
20273W        W85533  25.008  40.746  12.572
20274W        W85534  22.614   4.638  13.703
20275W        W85535  34.350   3.776   0.443
20276W        W85536   7.344   2.137  11.089
20277W        W85537  12.167   5.648  13.404
20278W        W85538   4.385  36.638   0.866
20279W        W85539   6.428  41.489  10.742
20280W        W85540  40.254  23.344   5.104
20281W        W85541  34.459  40.996  10.902
20282W        W85542  32.427  37.644  13.932
20283W        W85543   2.202   8.735  13.970
20284W        W85544   3.153  20.564   1.599
20285W        W85545  42.622  11.267  13.926
20286W        W85546   4.340  10.149  14.065
20287W        W85547  26.149  24.175  14.967
20288W        W85548  33.553  34.179   1.429
20289W        W85549   0.635   6.512   0.380
20290W        W85550   5.892  42.500   2.814
20291W        W85551  40.451  42.516   1.970
20292W        W85552  39.622  27.060  10.802
20293W        W85553   5.126   5.415   3.581
20294W        W85554  20.012  35.411  14.528
20295W        W85555   8.407  17.314  12.687
20296W        W85556  25.694  27.154  13.849
20297W        W85557  18.015   9.120  12.621
20298W        W85558  42.516  31.977   1.811
20299W        W85559  10.431  35.559   2.605
20300W        W85560   1.099  31.224  14.071
20301W        W85561   7.151  31.577   2.082
20302W        W85562  39.908   9.669   4.086
20303W        W85563   1.587  19.872  14.742
20304W        W85564  37.067  38.407   2.793
20305W        W85565   3.204   1.355   3.524
20306W        W85566  22.894  22.598  11.705
20307W        W85567  19.526  41.151  11.075
20308W        W85568  33.192  19.589   0.220
20309W        W85569  39.397  21.537   3.864
20310W        W85570  34.711  22.725   1.936
20311W        W85571   0.376  20.814  14.737
20312W        W85572   3.461  43.503  12.023
20313W        W85573  42.847   4.453   2.186
20314W        W85574   5.189   6.922   0.242
20315W        W85575   3.360   8.870  13.462
20316W        W85576  39.805  20.774  14.394
20317W        W85577  34.708   3.533   4.683
20318W        W85578  32.398  13.362   2.753
20319W        W85579  16.553  30.720  11.067
20320W        W85580  44.153  38.469   0.097
20321W        W85581   4.774  23.112  14.243
20322W        W85582  24.506  29.355   4.237
20323W        W85583  26.112  27.574   3.193
20324W        W85584  25.151   4.166  13.920
20325W        W85585   9.842  18.036   2.181
20326W        W85586   8.658  37.527  12.574
20327W        W85587   3.388  18.627   1.225
20328W        W85588  23.268  41.027   4.869
20329W        W85589  33.484  36.898  13.585
20330W        W85590  21.051  41.491   4.517
20331W        W85591  23.962  10.402  10.182
20332W        W85592  11.795  26.261   3.485
20333W        W85593  37.283  29.861  11.603
20334W        W85594  40.725   7.928   4.377
20335W        W85595  38.011   2.002   1.822
20336W        W85596  37.462  26.672   0.792
20337W        W85597  38.989   3.185  12.343
20338W        W85598  18.535  25.796   1.400
20339W        W85599  17.801  33.594   3.727
20340W        W85600  26.910  44.456   0.446
20341W        W85601  38.388  23.487   1.123
20342W        W85602  35.050  31.654   3.134
20343W        W85603  13.296  37.734  12.043
20344W        W85604  16.707  40.510   2.670
20345W        W85605   6.686   3.438  11.596
20346W        W85606  18.970  30.926   1.270
20347W        W85607  38.604  21.458   1.460
20348W        W85608  29.429  13.783  11.552
20349W        W85609  28.407   8.437  12.896
20350W        W85610   6.585  17.864   1.708
20351W        W85611  30.616  32.333  11.712
20352W        W85612  34.415   8.218  14.407
20353W        W85613  27.103  27.984  12.173
20354W        W85614  33.021  21.623  13.870
20355W        W85615   1.143   1.266   1.954
20356W        W85616  26.287  21.103  12.797
20357W        W85617  21.242  17.262   3.659
20358W        W85618  37.395  22.690  12.479
20359W        W85619  20.780   1.057   1.160
20360W        W85620  24.515  28.087  11.992
20361W        W85621  10.955  35.619   3.716
20362W        W85622  39.424  17.271  12.030
20363W        W85623  39.075   8.802   4.695
20364W        W85624  31.853  14.603   2.462
20365W        W85625   9.439   1.131   4.025
20366W        W85626  37.326  16.101  10.854
20367W        W85627   8.751  16.077  12.152
20368W        W85628  20.298  29.051  11.192
20369W        W85629  33.445  11.087  11.585
20370W        W85630  30.440  38.119  12.054
20371W        W85631  22.780  20.137  12.445
20372W        W85632   7.429  32.239  11.189
20373W        W85633  32.067  14.046   0.668
20374W        W85634  44.641  38.397  13.698
20375W        W85635  12.562  38.000  10.771
20376W        W85636  29.577   7.094   3.376
20377W        W85637  16.778   4.338   0.533
20378W        W85638  28.060  16.038   1.601
20379W        W85639  34.385  38.538  10.910
20380W        W85640  26.680  34.039  14.818
20381W        W85641  38.678  37.940   2.297
20382W        W85642  31.994   9.220  14.592
20383W        W85643  34.438  13.829   0.433
20384W        W85644  19.669  15.391   1.218
20385W        W85645   7.163  27.842   1.380
20386W        W85646  38.363  16.108   3.077
20387W        W85647  41.971  31.448   1.035
20388W        W85648  12.282  39.408  14.464
20389W        W85649  33.630  14.409   2.298
20390W        W85650  36.899   9.341   1.802
20391W        W85651   1.455  21.546   4.761
20392W        W85652   9.069  35.751   2.730
20393W        W85653  12.673  38.871   3.160
20394W        W85654  11.130  22.699   0.873
20395W        W85655  40.256  32.094   2.106
20396W        W85656   7.094  43.606   4.808
20397W        W85657  26.669  43.299  11.912
20398W        W85658   2.742  12.815   2.782
20399W        W85659   6.974   5.913   0.734
20400W        W85660   0.205  34.382   2.338
20401W        W85661   9.420  12.955  13.848
20402W        W85662  40.107  42.421  10.824
20403W        W85663  24.498  15.817   0.939
20404W        W85664   9.449   4.287   3.689
20405W        W85665  44.244  30.950   0.749
20406W        W85666  37.604  22.652   3.541
20407W        W85667  12.226  19.973   4.500
20408W        W85668   7.475  18.114   0.889
20409W        W85669   9.205   0.308   1.388
20410W        W85670   2.846  41.541   4.717
20411W        W85671   2.100  10.258  11.079
20412W        W85672  36.008  44.945  14.232
20413W        W85673   3.291  14.504   5.106
20414W        W85674  22.399  35.432  14.400
20415W        W85675  23.567   3.322  10.821
20416W        W85676  19.432  16.649  11.047
20417W        W85677  19.066  30.147  10.582
20418W        W85678  20.206  10.858   3.184
20419W        W85679  17.579  28.469   3.106
20420W        W85680  39.036  10.577  11.139
20421W        W85681  20.537  40.905  11.189
20422W        W85682   8.339  14.877  14.400
20423W        W85683  20.164   8.654   5.331
20424W        W85684  30.453   8.384   3.573
20425W        W85685  25.027  38.983   2.438
20426W        W85686  28.256   3.929   4.272
20427W        W85687  11.182  22.189   1.989
20428W        W85688  12.213  23.688  14.052
20429W        W85689   8.875  21.987  10.775
20430W        W85690  37.521  27.993   4.134
20431W        W85691  33.973  21.141  13.062
20432W        W85692  38.033  11.417  14.362
20433W        W85693  17.226  33.391  11.091
20434W        W85694  24.734  16.344   0.885
20435W        W85695  29.595  32.538   0.374
20436W        W85696  21.477  17.616   1.897
20437W        W85697  10.868  17.816  13.893
20438W        W85698  39.057  36.606  13.910
20439W        W85699  42.760  39.002  13.292
20440W        W85700  17.451  33.034   3.215
20441W        W85701  41.795  35.044  12.965
20442W        W85702  14.355  23.176  14.508
20443W        W85703  39.636  37.380   4.617
20444W        W85704   0.807  30.231  11.601
20445W        W85705  26.995   0.236  14.305
20446W        W85706  13.692  27.104   0.927
20447W        W85707  25.523   7.140   0.315
20448W        W85708  20.667  31.369   3.385
20449W        W85709  43.593  20.460  14.753
20450W        W85710  34.558  30.584   2.474
20451W        W85711  16.202   4.518   4.816
20452W        W85712  44.815  18.648  11.916
20453W        W85713  44.529   4.900   4.214
20454W        W85714  14.135  13.376   0.484
20455W        W85715  39.372  30.610  14.318
20456W        W85716  17.828  21.545  14.359
20457W        W85717  23.005  39.059  11.490
20458W        W85718   6.207   5.876  11.140
20459W        W85719  36.163  39.956   1.325
20460W        W85720  33.971  18.458   2.087
20461W        W85721  13.600   3.378   0.970
20462W        W85722  14.732   6.894   3.698
20463W        W85723  34.487   4.169   3.177
20464W        W85724  30.852   2.770   0.331
20465W        W85725  32.450   8.859   4.225
20466W        W85726  40.468   9.123  13.529
20467W        W85727  18.598  10.749   3.516
20468W        W85728  13.389  37.319   4.612
20469W        W85729  13.928  44.985  13.794
20470W        W85730  39.969   0.293  13.318
20471W        W85731  40.465  19.946  13.051
20472W        W85732   4.076  20.454   4.087
20473W        W85733  23.970  31.193   1.694
20474W        W85734  24.995  41.254  12.506
20475W        W85735  33.230   5.839  13.843
20476W        W85736  41.682  10.913  10.684
20477W        W85737  17.312  40.315   4.276
20478W        W85738   4.678  38.432  14.437
20479W        W85739  32.621  38.425  10.642
20480W        W85740  18.730  25.428   0.478
20481W        W85741   1.827  21.523  10.619
20482W        W85742  20.948  31.987   1.317
20483W        W85743  10.082  12.336   1.772
20484W        W85744  14.483   7.820  12.780
20485W        W85745  38.512  27.427  13.359
20486W        W85746  17.641  33.335  12.062
20487W        W85747  16.722   4.896  14.815
20488W        W85748  20.668  21.804  10.694
20489W        W85749   9.830  44.011  12.373
20490W        W85750   7.684  31.041   1.760
20491W        W85751  24.762  12.610   1.499
20492W        W85752  43.049  40.502  11.090
20493W        W85753   9.394  24.043   1.415
20494W        W85754   1.224  41.830   4.351
20495W        W85755  29.124  30.522   3.161
20496W        W85756  10.753  38.063   4.294
20497W        W85757  13.807  26.166   0.893
20498W        W85758  35.657  40.567   1.087
20499W        W85759  32.166  18.388   1.782
20500W        W85760  28.703  10.161  10.487
20501W        W85761   5.247  37.913  13.792
20502W        W85762  24.294  18.065   1.656
20503W        W85763  26.964  23.474   2.427
20504W        W85764  24.252  38.421  11.515
20505W        W85765   2.892  36.354   4.135
20506W        W85766   8.569  37.385   1.316
20507W        W85767  20.003  37.562   4.574
20508W        W85768  39.828  24.305  10.706
20509W        W85769  21.481  30.053  12.877
20510W        W85770   7.077   1.481  13.053
20511W        W85771  42.526  37.599   2.684
20512W        W85772   6.530  14.155  14.465
20513W        W85773  20.536  19.672   2.897
20514W        W85774  39.236   2.158   0.429
20515W        W85775   1.286  21.187  11.213
20516W        W85776  23.189   9.784   1.700
20517W        W85777  43.845  24.691  11.527
20518W        W85778  40.341  20.020  10.683
20519W        W85779  42.353  16.222   1.480
20520W        W85780  42.242  22.705  13.842
20521W        W85781   2.848  39.069   0.812
20522W        W85782  27.822  21.660  12.848
20523W        W85783   4.282  43.258  14.789
20524W        W85784  43.295  38.521  12.566
20525W        W85785   0.392  34.930  10.785
20526W        W85786  10.116  28.235   2.455
20527W        W85787  42.473  32.354  10.539
20528W        W85788  32.699  18.716   5.291
20529W        W85789   9.867  18.899  10.661
20530W        W85790   2.415  25.959   3.134
20531W        W85791  19.974  33.050  13.812
20532W        W85792  34.539   9.350   2.386
20533W        W85793   1.386  33.344  11.947
20534W        W85794  15.447  30.374  14.216
20535W        W85795  35.377  20.720   2.698
20536W        W85796   8.555  27.552   1.536
20537W        W85797  41.537  33.249  10.513
20538W        W85798  18.761  20.685  10.967
20539W        W85799  20.167  23.757   5.034
20540W        W85800  19.377  40.955   3.725
20541W        W85801  22.923  39.863  13.106
20542W        W85802  17.335   4.329  14.397
20543W        W85803  14.106  24.067  12.058
20544W        W85804  23.076  24.518  14.805
20545W        W85805   8.761   2.268   1.193
20546W        W85806   1.466   5.799   1.892
20547W        W85807  16.300   3.888  14.962
20548W        W85808   4.302  13.238   0.905
20549W        W85809  34.080  19.085   2.789
20550W        W85810  23.009   7.921   3.806
20551W        W85811  34.082  43.645  13.981
20552W        W85812  40.826  31.748   0.185
20553W        W85813  38.823  39.787  11.509
20554W        W85814  17.822   2.568   0.878
20555W        W85815  15.621  17.607   0.607
20556W        W85816  20.384  43.024  13.227
20557W        W85817  44.002  42.274   1.217
20558W        W85818  26.830  31.942   1.421
20559W        W85819   1.048  10.441  14.920
20560W        W85820  36.451  12.368   0.829
20561W        W85821   2.931  17.493   1.900
20562W        W85822  25.308  26.383   2.296
20563W        W85823  28.939  31.786   2.913
20564W        W85824  16.658  40.528   3.206
20565W        W85825  16.226  10.798   2.871
20566W        W85826  11.423  39.863   3.945
20567W        W85827   1.314  21.482  10.411
20568W        W85828   5.908  40.468   4.580
20569W        W85829   9.864  11.748   2.321
20570W        W85830  21.672  25.695   3.654
20571W        W85831  30.921  38.323  12.054
20572W        W85832  24.128   7.650   2.640
20573W        W85833   8.805  22.479  12.756
20574W        W85834  32.084  10.108   1.351
20575W        W85835  36.816  13.669  12.063
20576W        W85836   5.964  38.369  12.970
20577W        W85837  31.350  16.233   4.204
20578W        W85838  34.875  42.230   2.748
20579W        W85839  44.359  19.876  11.471
20580W        W85840  22.325   9.791   4.623
20581W        W85841  23.690  15.145   4.261
20582W        W85842   9.270  11.905   1.680
20583W        W85843  26.664  21.924  11.462
20584W        W85844  38.464  28.513  11.762
20585W        W85845   1.519   6.329   4.036
20586W        W85846  31.153   8.408   1.409
20587W        W85847  38.133  35.755  11.571
20588W        W85848   0.613  36.786   3.794
20589W        W85849  12.407  22.323   1.856
20590W        W85850  23.013  19.678  12.785
20591W        W85851  26.576  40.965  12.444
20592W        W85852  40.562  14.917  11.606
20593W        W85853  23.162  35.759   2.797
20594W        W85854  39.542   1.144   3.122
20595W        W85855   5.140  16.096  11.166
20596W        W85856  23.181  23.734   0.249
20597W        W85857  18.520  39.559  11.518
20598W        W85858  25.083   6.999   2.810
20599W        W85859  41.503  23.412  13.420
20600W        W85860  30.494  28.585  13.436
20601W        W85861  17.973  20.602   2.099
20602W        W85862  29.786  23.533  10.785
20603W        W85863  21.988  24.346   4.899
20604W        W85864   9.399  17.235  12.025
20605W        W85865  32.438  12.125   1.870
20606W        W85866  24.159  20.586  14.103
20607W        W85867  26.438  39.810  13.929
20608W        W85868  42.362   1.702  10.612
20609W        W85869   8.907   4.483  14.956
20610W        W85870   2.828  27.863   2.859
20611W        W85871  16.585  16.942   3.739
20612W        W85872  22.669  12.319   2.448
20613W        W85873  17.251  21.081   2.497
20614W        W85874   8.036   0.836   1.611
20615W        W85875  30.530   9.302  12.151
20616W        W85876   3.699  43.095   2.442
20617W        W85877  41.341  20.949  12.650
20618W        W85878   1.412   0.251  13.558
20619W        W85879  33.069  28.076  14.092
20620W        W85880   4.462  44.852  11.118
20621W        W85881  37.336  23.701   2.109
20622W        W85882   1.915  19.560  14.509
20623W        W85883  30.177  24.087   1.878
20624W        W85884  30.504   9.705  12.516
20625W        W85885  15.223  18.496   3.182
20626W        W85886  11.677  14.687   4.887
20627W        W85887  30.866  37.993  14.822
20628W        W85888  26.684  17.600   2.771
20629W        W85889   4.051  28.521   4.650
20630W        W85890   9.617   6.775  10.998
20631W        W85891  11.663   8.771   0.759
20632W        W85892  17.405  10.194   2.192
20633W        W85893  20.743   3.200   3.577
20634W        W85894  43.540   9.348   2.374
20635W        W85895  42.733  23.147  10.572
20636W        W85896  22.172   5.926   0.795
20637W        W85897  35.905  39.092  11.592
20638W        W85898  11.432   7.238   1.788
20639W        W85899  40.370   2.864   1.169
20640W        W85900  28.406  10.200  10.916
20641W        W85901  40.446   1.969  10.946
20642W        W85902  40.837   4.175   1.277
20643W        W85903  44.712  31.593  10.499
20644W        W85904  24.238  13.731   5.033
20645W        W85905   3.947  17.092  10.690
20646W        W85906  25.203   8.875   2.855
20647W        W85907  30.071  33.409   1.711
20648W        W85908  27.490  17.620  11.686
20649W        W85909  11.755  26.868  12.486
20650W        W85910  43.251  11.314  13.364
20651W        W85911  17.073  30.452   0.835
20652W        W85912   1.697  41.755  11.146
20653W        W85913   8.264  40.430  12.432
20654W        W85914   3.435  10.324  10.599
20655W        W85915  36.380  36.560  12.956
20656W        W85916  39.427  41.737  14.570
20657W        W85917  33.879  43.859   4.109
20658W        W85918  18.145   5.450  13.298
20659W        W85919  42.210  32.947   0.462
20660W        W85920  17.330  21.777   4.130
20661W        W85921  10.900   4.786  14.039
20662W        W85922   4.729  21.730   3.142
20663W        W85923  23.137  28.157  12.120
20664W        W85924   7.843  44.978   2.639
20665W        W85925  43.647  30.487   0.067
20666W        W85926  26.151  22.945   1.918
20667W        W85927  33.088  37.225   3.704
20668W        W85928  12.804  25.434   1.250
20669W        W85929  11.993  21.049   2.281
20670W        W85930  21.491  42.804  10.109
20671W        W85931  33.070  37.666  11.493
20672W        W85932   9.706  10.891   3.759
20673W        W85933  10.640   1.280   2.651
20674W        W85934  29.664   5.910  12.417
20675W        W85935   6.756  38.816   4.893
20676W        W85936  24.727  10.941   4.636
20677W        W85937  43.522   6.852   0.700
20678W        W85938  15.384  24.555   2.667
20679W        W85939  36.570   0.376   0.499
20680W        W85940  26.779  17.223   1.887
20681W        W85941   1.526  16.810  13.436
20682W        W85942  14.517  21.044   1.613
20683W        W85943  15.543  32.935  10.764
20684W        W85944  27.824  23.521  14.117
20685W        W85945  35.934  22.039   1.819
20686W        W85946  19.681  12.220   3.335
20687W        W85947  37.446  42.043  13.732
20688W        W85948  15.663  20.132   5.257
20689W        W85949  20.014   2.165   3.225
20690W        W85950   5.898  23.440   2.840
20691W        W85951  21.944  30.824  12.066
20692W        W85952  44.395  34.507   4.650
20693W        W85953   4.636  30.514  11.433
20694W        W85954  43.993  43.555   1.705
20695W        W85955  12.323  27.145  13.512
20696W        W85956  29.576  26.945  11.971
20697W        W85957   2.759  32.604   1.649
20698W        W85958  30.252  14.948   5.114
20699W        W85959  38.035  15.675  14.939
20700W        W85960  20.565  11.603  11.344
20701W        W85961  35.003  36.320   4.134
20702W        W85962  26.022  31.910  11.061
20703W        W85963  35.943   3.386  13.888
20704W        W85964  44.368  28.289  12.141
20705W        W85965  30.023   0.737   3.645
20706W        W85966  13.282  11.671  12.449
20707W        W85967  42.249  44.012  10.567
20708W        W85968  34.763  31.522   2.711
20709W        W85969  16.187  43.605  13.783
20710W        W85970  20.141   9.175   4.749
20711W        W85971  18.556  11.877  11.602
20712W        W85972  39.304  26.197   4.169
20713W        W85973  40.517  17.573   1.958
20714W        W85974   0.783  26.658  14.417
20715W        W85975  36.678  44.245   2.634
20716W        W85976  27.073  24.354  11.117
20717W        W85977   1.142  34.074   4.119
20718W        W85978  23.682   3.245  12.141
20719W        W85979  17.578  40.873   0.875
20720W        W85980  37.262  27.502   4.559
20721W        W85981  11.365  42.820   3.646
20722W        W85982  27.943  37.248  12.406
20723W        W85983  13.819   4.736   2.135
20724W        W85984  21.546  35.934   3.600
20725W        W85985   7.723  36.783   1.247
20726W        W85986  12.979   2.378   3.736
20727W        W85987  16.162  35.457  14.346
20728W        W85988  35.020  29.109   3.160
20729W        W85989   9.848  43.336  12.170
20730W        W85990  17.318   2.970  11.688
20731W        W85991   0.369  34.940   3.571
20732W        W85992  20.998  36.848   4.730
20733W        W85993  24.899  33.294  11.604
20734W        W85994   4.978  13.124  11.513
20735W        W85995  36.497   5.320  12.014
20736W        W85996  18.414  27.001   2.956
20737W        W85997  17.030  19.291   0.784
20738W        W85998  22.663  16.196  12.123
20739W        W85999  29.489   9.627  14.485
20740W        W86000  24.189  31.253   3.397
20741W        W86001  19.960  37.960  10.208
20742W        W86002  14.789  12.380   1.270
20743W        W86003  28.583  28.959  10.451
20744W        W86004  10.501  11.376  14.901
20745W        W86005  31.245   1.837   2.684
20746W        W86006  17.757  21.393   4.846
20747W        W86007   2.268   1.719   1.312
20748W        W86008  35.097  38.754   3.278
20749W        W86009  34.730  27.527   0.802
20750W        W86010   0.673  38.986   1.309
20751W        W86011  38.852  29.560   4.316
20752W        W86012  13.896   8.201   1.681
20753W        W86013  23.553  37.381  14.426
20754W        W86014  30.141  31.428   0.339
20755W        W86015  31.059  25.192  14.075
20756W        W86016   3.858   1.565  14.946
20757W        W86017  13.163  29.751  11.175
20758W        W86018   6.412  27.274   3.263
20759W        W86019   8.861  10.180  12.056
20760W        W86020   8.929   9.995   9.698
20761W        W86021  30.085  10.204   2.920
20762W        W86022  32.573  27.364   1.626
20763W        W86023  15.074   2.131  11.183
20764W        W86024  44.772  41.395  14.744
20765W        W86025  26.058   4.324  14.459
20766W        W86026  25.278   4.369   0.736
20767W        W86027   3.408  36.050   2.026
20768W        W86028  44.480  28.944  13.616
20769W        W86029  11.182  13.636   4.056
20770W        W86030  38.592  38.102   1.458
20771W        W86031  17.582  34.993  10.356
20772W        W86032  39.762  32.102   3.278
20773W        W86033  21.433  27.443   2.276
20774W        W86034  42.027  17.487   1.266
20775W        W86035   2.407   7.255  12.643
20776W        W86036  33.416   4.252  12.663
20777W        W86037   4.209  18.765  14.331
20778W        W86038  32.234  41.620   3.303
20779W        W86039  34.619   6.207  11.553
20780W        W86040   3.240   7.653  11.570
20781W        W86041  37.826  24.449   4.698
20782W        W86042  42.277  11.890   1.926
20783W        W86043  21.288  13.796  13.900
20784W        W86044  37.002   4.662  10.585
20785W        W86045  27.767  34.552   3.547
20786W        W86046  12.086   9.811   5.131
20787W        W86047  33.292   2.537   1.236
20788W        W86048  23.120  34.367  12.465
20789W        W86049  37.306   1.446  14.389
20790W        W86050  25.745  29.591   3.688
20791W        W86051  18.796  11.718   4.187
20792W        W86052   6.980   6.673  12.278
20793W        W86053  43.500   6.117  11.041
20794W        W86054  44.109  41.866   5.207
20795W        W86055  23.460  29.218  13.349
20796W        W86056  20.647  31.721  14.476
20797W        W86057  37.528  32.893  13.956
20798W        W86058   4.231  32.098   4.115
20799W        W86059  34.005  36.342  14.009
20800W        W86060  36.917  44.543   3.256
20801W        W86061  38.558   7.691  13.357
20802W        W86062  29.495  20.198   3.570
20803W        W86063  34.435   3.205   4.357
20804W        W86064  12.569  33.689   1.432
20805W        W86065   3.482  37.955   2.601
20806W        W86066  13.365  29.111   3.261
20807W        W86067  19.151  11.649   2.673
20808W        W86068  18.569  42.865  14.235
20809W        W86069  27.443  35.261   0.713
20810W        W86070  11.576  19.730  12.960
20811W        W86071  37.902  43.215  12.916
20812W        W86072   0.841  34.871  10.516
20813W        W86073  28.249  12.042   2.647
20814W        W86074  40.715  20.513   0.491
20815W        W86075   6.314   7.942  14.516
20816W        W86076  13.656  21.295  10.984
20817W        W86077  41.403  38.027   1.444
20818W        W86078  26.970  37.174   5.702
20819W        W86079  31.523   9.135   3.707
20820W        W86080  38.854  15.703   1.908
20821W        W86081   7.846  44.935   4.579
20822W        W86082  14.516  25.209  11.094
20823W        W86083  25.098   7.372   1.003
20824W        W86084  39.980   8.401  11.449
20825W        W86085  37.973  15.641  12.717
20826W        W86086   4.857  30.154   4.655
20827W        W86087  32.589   5.492   2.265
20828W        W86088   0.551  13.894  12.037
20829W        W86089  18.614  39.081   0.346
20830W        W86090  41.876  36.174  11.211
20831W        W86091  10.572  10.759  14.475
20832W        W86092  44.555   6.497   1.381
20833W        W86093  14.699  23.147   2.103
20834W        W86094   1.795  15.002  12.605
20835W        W86095  40.067  16.284  13.763
20836W        W86096  15.046  23.708  14.300
20837W        W86097  26.958  24.093   0.347
20838W        W86098  43.798  38.908  13.830
20839W        W86099  21.195  11.389   0.767
20840W        W86100  44.244  34.937   4.951
20841W        W86101  19.302  25.210   0.439
20842W        W86102  11.798   6.853  13.080
20843W        W86103  35.553  31.369   4.131
20844W        W86104  15.334  15.707   2.596
20845W        W86105   2.735  23.723  11.035
20846W        W86106  27.151  13.184   1.371
20847W        W86107  35.843  36.003  12.487
20848W        W86108  41.899   8.322  12.048
20849W        W86109   7.929   9.339   4.611
20850W        W86110  37.038  24.766   3.388
20851W        W86111  30.324   5.496   1.894
20852W        W86112  42.870  29.362  13.330
20853W        W86113  24.101  40.683   4.049
20854W        W86114  15.687  13.376  11.579
20855W        W86115  31.906  35.552  13.486
20856W        W86116   3.100  14.400   1.403
20857W        W86117  36.636  25.129   1.188
20858W        W86118  15.414  21.570   5.523
20859W        W86119  19.779  37.396  11.154
20860W        W86120  25.875   0.932   2.077
20861W        W86121  28.101  21.295   4.102
20862W        W86122  40.093  26.549  14.331
20863W        W86123  22.823  14.343   4.585
20864W        W86124  18.166  19.962  11.099
20865W        W86125   2.722  12.812   3.788
20866W        W86126  16.043   2.199  14.993
20867W        W86127  11.073  10.177   0.710
20868W        W86128  11.751  21.446  14.338
20869W        W86129  33.055   4.839  14.144
20870W        W86130   4.429  29.004  14.423
20871W        W86131  16.559  40.369   3.788
20872W        W86132  26.130  44.429  11.814
20873W        W86133   5.780  20.003   2.895
20874W        W86134   2.760  41.925  14.316
20875W        W86135  13.159  18.761   3.453
20876W        W86136  28.738  14.205   2.386
20877W        W86137  43.807  42.482   4.536
20878W        W86138   6.400   7.234   3.287
20879W        W86139   4.830   1.957  12.975
20880W        W86140  32.942  10.567   4.957
20881W        W86141   2.639  32.441   2.691
20882W        W86142   5.410  10.339  14.687
20883W        W86143   7.384  19.565   1.666
20884W        W86144  39.601   7.189   1.163
20885W        W86145  27.570  32.127   0.256
20886W        W86146  15.736  14.698  14.465
20887W        W86147  16.666  33.863   3.782
20888W        W86148  26.242   4.390   2.115
20889W        W86149  24.548  31.446   2.470
20890W        W86150  18.177  38.868   2.673
20891W        W86151   9.682   1.968  10.637
20892W        W86152  15.891  41.783   4.573
20893W        W86153  42.225  21.599   0.390
20894W        W86154  34.073   5.509   0.420
20895W        W86155   1.261  13.894  11.506
20896W        W86156  27.229  20.639  14.762
20897W        W86157  17.528  23.638  12.878
20898W        W86158  35.514  10.883   4.086
20899W        W86159  35.526  22.280   1.585
20900W        W86160  44.586  21.137  12.551
20901W        W86161   1.961  35.672  11.578
20902W        W86162  11.361  17.318  12.040
20903W        W86163  32.928  10.937   2.460
20904W        W86164  19.240  24.600  13.452
20905W        W86165  15.705   1.447   0.923
20906W        W86166  27.939  27.723  13.073
20907W        W86167  38.925   6.431  14.863
20908W        W86168  44.240  38.774   4.297
20909W        W86169   0.021  24.011   0.510
20910W        W86170  12.945  25.875   0.363
20911W        W86171  18.137  16.187  12.139
20912W        W86172   6.200   6.445   0.187
20913W        W86173  42.830  33.678  13.598
20914W        W86174  22.551  38.549   0.035
20915W        W86175  37.044   4.941  11.793
20916W        W86176  23.726   2.268  10.692
20917W        W86177  42.340  26.153   3.323
20918W        W86178  20.975  28.920  12.527
20919W        W86179  32.636  25.440   3.792
20920W        W86180  19.988  30.706  13.877
20921W        W86181  17.294  42.429  11.982
20922W        W86182   5.261   9.387  13.308
20923W        W86183   2.816   6.927   3.662
20924W        W86184  14.258  39.739   4.127
20925W        W86185   4.153  24.645   1.313
20926W        W86186  24.701   4.234  14.914
20927W        W86187   7.274  41.035   3.664
20928W        W86188  17.694  10.686  10.803
20929W        W86189  16.582  39.478  14.949
20930W        W86190  22.250  35.442  13.029
20931W        W86191  11.224  27.104  10.090
20932W        W86192  14.822   6.839   0.835
20933W        W86193   2.672  41.968  14.823
20934W        W86194   6.976   5.779   1.704
20935W        W86195   9.829  15.810  14.406
20936W        W86196  32.443   4.390   3.630
20937W        W86197  32.964  12.532  11.139
20938W        W86198  35.509  14.307  10.645
20939W        W86199  26.461  32.703   2.310
20940W        W86200  14.909   0.311  10.673
20941W        W86201   1.935  19.063  14.480
20942W        W86202  33.270  32.296   0.360
20943W        W86203   9.871  23.116   2.708
20944W        W86204  29.383  24.001  12.921
20945W        W86205   7.924  20.120   4.110
20946W        W86206  24.438   6.201  13.480
20947W        W86207  25.954  26.553   4.830
20948W        W86208  23.157  13.616  14.296
20949W        W86209  18.366  31.503   3.582
20950W        W86210  17.726  41.928   3.909
20951W        W86211   7.966  25.200  11.868
20952W        W86212  42.587  13.347   3.809
20953W        W86213   7.774  16.823   0.263
20954W        W86214   6.894   1.247   2.490
20955W        W86215  19.896  14.089   1.887
20956W        W86216  23.653  13.284  10.832
20957W        W86217  22.520  21.959  14.148
20958W        W86218  43.923  30.648   0.470
20959W        W86219   6.181  42.768  13.486
20960W        W86220  40.620   3.530  11.571
20961W        W86221   3.177  31.415  13.952
20962W        W86222  22.963  29.155  11.977
20963W        W86223  18.674  21.511  14.886
20964W        W86224  32.081  32.072  14.419
20965W        W86225  34.650  15.902   0.447
20966W        W86226  38.399   7.383   3.664
20967W        W86227  15.247  34.814  10.693
20968W        W86228  23.536  36.060   2.626
20969W        W86229  24.814  27.904   3.241
20970W        W86230   2.873  19.300   1.300
20971W        W86231  29.237  34.871  13.888
20972W        W86232  39.531  39.945  11.494
20973W        W86233  12.964  16.296  10.983
20974W        W86234  22.068  12.964  12.786
20975W        W86235   0.043   8.217  13.820
20976W        W86236   3.637  11.799  14.366
20977W        W86237  17.522  32.875   2.280
20978W        W86238  28.436  15.116  10.681
20979W        W86239  10.882  15.591   2.156
20980W        W86240  25.919  19.725   1.508
20981W        W86241   6.559   9.473   1.413
20982W        W86242  40.268   8.870   3.308
20983W        W86243   7.765  19.952  11.361
20984W        W86244   2.757  23.269  12.460
20985W        W86245   0.280  35.778  14.858
20986W        W86246   5.924   7.917   2.769
20987W        W86247  34.800  36.824  10.775
20988W        W86248   1.458  34.890   4.248
20989W        W86249  27.864  35.942  12.409
20990W        W86250   1.369  32.675  14.944
20991W        W86251  27.459  13.258  11.612
20992W        W86252  38.895   6.683  12.945
20993W        W86253  21.111   2.241  12.840
20994W        W86254  23.277  16.505  14.037
20995W        W86255  20.753  15.588   0.503
20996W        W86256   5.237  24.239   4.091
20997W        W86257  27.858  38.918  14.268
20998W        W86258  16.738  25.737  11.020
20999W        W86259  25.087  26.483  11.593
21000W        W86260  38.792   7.282  14.990
21001W        W86261  44.335  16.933   4.584
21002W        W86262   4.587  43.539  13.051
21003W        W86263   9.734  17.601   1.321
21004W        W86264  20.978   4.879  13.861
21005W        W86265  22.831   5.212   2.739
21006W        W86266  42.946  38.598   1.717
21007W        W86267  25.971  30.946  14.819
21008W        W86268  29.216  29.986  14.957
21009W        W86269   6.416  44.797  12.061
21010W        W86270  17.161  25.845   4.263
21011W        W86271  24.226  42.511   3.132
21012W        W86272  10.817   5.996  11.145
21013W        W86273  31.104  40.872  12.558
21014W        W86274  30.441  16.365  11.629
21015W        W86275  34.961  23.999  13.428
21016W        W86276  11.281  18.069   4.075
21017W        W86277   4.857   1.374  14.371
21018W        W86278  34.412  33.153  14.327
21019W        W86279  34.340  18.474  14.458
21020W        W86280  17.039  38.938  13.589
21021W        W86281   4.613  30.325   1.541
21022W        W86282  40.432  28.084  10.797
21023W        W86283   4.505  36.524  11.134
21024W        W86284  31.130  39.088   0.440
21025W        W86285  36.882  19.219  10.996
21026W        W86286   1.823  30.990   3.664
21027W        W86287  10.386  17.133  11.602
21028W        W86288  14.133  42.502   2.458
21029W        W86289  17.502   1.658   4.326
21030W        W86290   2.955  12.281   2.741
21031W        W86291  29.390  25.622   1.883
21032W        W86292  12.061  16.163   3.622
21033W        W86293  20.392  44.288  11.964
21034W        W86294  25.488   0.626  13.536
21035W        W86295  28.573  16.823  13.524
21036W        W86296   7.965   8.402   2.852
21037W        W86297  36.465  22.830   1.786
21038W        W86298  37.324  41.945  13.238
21039W        W86299  32.060  29.124   3.927
21040W        W86300  24.704  32.676   2.783
21041W        W86301   4.971  37.400  12.931
21042W        W86302  16.604  11.889  10.716
21043W        W86303  37.023  26.271   4.211
21044W        W86304  26.471  15.499  14.428
21045W        W86305  35.012  14.781   4.600
21046W        W86306  17.693  41.546   2.520
21047W        W86307  13.198  40.996  12.599
21048W        W86308   5.890  29.343  13.363
21049W        W86309  43.178  41.103   3.564
21050W        W86310  17.948   4.213  11.446
21051W        W86311  21.430  22.575   4.119
21052W        W86312  25.943   3.212   3.328
21053W        W86313  22.451  10.741  13.273
21054W        W86314  16.925  33.124   0.458
21055W        W86315  41.461  14.278   0.898
21056W        W86316  41.822  44.126   1.914
21057W        W86317  12.316  24.631   4.689
21058W        W86318  19.251  34.756  13.974
21059W        W86319  29.417  41.923  11.245
21060W        W86320  20.097  44.914   1.444
21061W        W86321  24.957   4.671  14.821
21062W        W86322  21.003  30.840  13.462
21063W        W86323  12.130  14.810   0.950
21064W        W86324  12.426  10.224  11.601
21065W        W86325  19.967   9.168   3.752
21066W        W86326  34.516  20.614  12.498
21067W        W86327  42.058  38.087   2.233
21068W        W86328  10.817  40.633   1.102
21069W        W86329  35.635  43.324   2.452
21070W        W86330  34.152  36.586  14.473
21071W        W86331  24.393  14.551   4.269
21072W        W86332  29.032   6.021   0.841
21073W        W86333   8.668  41.869  11.483
21074W        W86334  18.035  21.112   4.043
21075W        W86335  14.420  24.435  10.724
21076W        W86336  42.330  32.436   0.296
21077W        W86337   5.857  33.947   0.395
21078W        W86338  39.571  35.521   3.743
21079W        W86339  24.188  42.434   2.006
21080W        W86340  20.752  42.689  13.025
21081W        W86341   7.504  36.160   4.416
21082W        W86342   5.102   7.392   0.035
21083W        W86343  29.994  27.178   1.181
21084W        W86344  35.297  22.731   2.264
21085W        W86345  36.298  27.028  11.612
21086W        W86346   9.215  11.288   1.437
21087W        W86347  22.166  35.205  11.479
21088W        W86348   6.604   2.363  11.281
21089W        W86349   7.057  28.787   1.198
21090W        W86350  34.990  30.239   5.012
21091W        W86351  22.183  25.590   3.692
21092W        W86352  12.658  22.104   0.417
21093W        W86353   8.784  23.957   4.157
21094W        W86354  31.388  13.880   2.153
21095W        W86355  12.265  31.820  10.821
21096W        W86356  18.697  38.771   0.772
21097W        W86357   7.779   6.140  13.000
21098W        W86358  18.136  34.454  11.972
21099W        W86359  37.347  38.315   4.746
21100W        W86360  17.305  38.047  11.553
21101W        W86361  16.336  38.466  10.890
21102W        W86362  38.767  31.985  12.893
21103W        W86363  23.622  25.186  13.164
21104W        W86364  12.893  35.277   0.750
21105W        W86365  40.291  44.956  10.901
21106W        W86366   4.741  14.099   3.686
21107W        W86367  41.008  33.332   2.818
21108W        W86368  23.292   5.926  14.479
21109W        W86369  32.410  16.763   1.766
21110W        W86370  36.794   1.158  12.597
21111W        W86371  22.659  15.606   3.506
21112W        W86372  31.246  33.369  14.477
21113W        W86373  12.393   8.855  12.161
21114W        W86374  17.777  41.294  11.816
21115W        W86375  23.246   3.240   5.710
21116W        W86376  13.256  21.958  12.362
21117W        W86377  16.557  31.907  11.575
21118W        W86378  39.993  37.959   3.286
21119W        W86379  31.594  41.288   3.385
21120W        W86380  39.997   6.543  13.631
21121W        W86381  14.904   1.445   5.080
21122W        W86382  43.339  16.900  12.645
21123W        W86383  28.898  42.654   1.496
21124W        W86384   2.920  30.192   4.030
21125W        W86385  24.087  32.547   1.711
21126W        W86386  43.226  38.984  11.103
21127W        W86387  15.089   9.277   2.875
21128W        W86388  40.115  36.067  11.091
21129W        W86389  43.228  33.911   0.850
21130W        W86390  27.149  33.817   2.758
21131W        W86391  17.765  16.366  10.478
21132W        W86392  34.299  44.490  10.001
21133W        W86393  14.257   0.744   0.805
21134W        W86394   2.567   9.002   4.225
21135W        W86395  29.480  41.320  11.935
21136W        W86396   1.711  28.220   2.064
21137W        W86397  44.258   4.790  10.562
21138W        W86398  27.947  44.024  12.997
21139W        W86399  31.336  44.876   3.171
21140W        W86400   9.113  11.151  11.765
21141W        W86401  25.457  27.459   4.268
21142W        W86402   6.490  19.066   1.799
21143W        W86403  17.095  29.467  12.995
21144W        W86404   4.397  28.035   0.800
21145W        W86405  36.485  42.726   3.657
21146W        W86406  17.393  37.043  12.543
21147W        W86407  44.449  28.497  13.363
21148W        W86408   1.849  42.014  14.292
21149W        W86409  29.708   2.929   3.994
21150W        W86410  25.770  40.328  14.428
21151W        W86411  38.523  21.278   1.940
21152W        W86412  14.298   4.972  12.856
21153W        W86413  44.007  44.799   1.933
21154W        W86414  41.243  12.981  13.046
21155W        W86415  18.325  38.913   4.146
21156W        W86416  41.025  39.530  12.367
21157W        W86417  15.820  32.132  11.114
21158W        W86418   2.733  32.111   5.081
21159W        W86419  23.635  26.448  13.879
21160W        W86420  17.785  25.193   3.773
21161W        W86421  39.282  13.146  14.559
21162W        W86422  35.571  30.368  11.028
21163W        W86423  36.957  26.470   2.280
21164W        W86424   2.886  42.205  10.656
21165W        W86425   9.300  30.177   4.564
21166W        W86426   3.267  30.217   1.748
21167W        W86427  17.080   1.534  11.086
21168W        W86428  22.044  39.014   4.441
21169W        W86429  36.321  11.532   4.390
21170W        W86430  36.162  26.033   4.099
21171W        W86431  22.543   2.771  11.985
21172W        W86432  17.368  16.617  11.610
21173W        W86433  39.340  20.319  14.433
21174W        W86434  39.291  42.452   1.458
21175W        W86435  40.410  22.303   1.240
21176W        W86436  25.486  37.788   1.287
21177W        W86437  32.440  32.811   3.832
21178W        W86438   1.481  41.403   4.144
21179W        W86439  26.430   9.463  12.177
21180W        W86440  22.247  33.095   0.784
21181W        W86441  22.578  28.073   2.844
21182W        W86442   7.292  26.247   0.241
21183W        W86443   2.808  35.621  10.630
21184W        W86444  24.592  27.079   1.665
21185W        W86445  35.112  19.985   0.884
21186W        W86446  26.930   4.317   4.123
21187W        W86447   3.425  27.229   3.296
21188W        W86448  33.733   7.623  10.501
21189W        W86449   9.542  42.262  13.493
21190W        W86450  42.523  17.358  12.005
21191W        W86451  20.040   5.497  11.180
21192W        W86452  10.019  22.170   0.384
21193W        W86453  14.135  14.164  12.595
21194W        W86454  15.783  22.011  14.750
21195W        W86455  10.598  20.778  12.997
21196W        W86456  22.453   1.750  10.826
21197W        W86457  24.588  35.128   3.578
21198W        W86458  31.607  35.853  14.546
21199W        W86459  40.422  32.123   4.545
21200W        W86460  19.402   5.631  11.963
21201W        W86461  16.483  14.823  10.825
21202W        W86462  23.691   3.757  12.918
21203W        W86463   2.392  16.202  12.455
21204W        W86464  19.278  26.034   1.406
21205W        W86465  36.347   7.337  12.165
21206W        W86466  32.475  14.348   1.760
21207W        W86467  32.333  17.902   1.736
21208W        W86468  16.648  33.434   4.676
21209W        W86469  13.212  24.163  12.540
21210W        W86470   3.965  33.555  10.614
21211W        W86471  32.014  10.142   3.167
21212W        W86472  10.404  40.183  13.549
21213W        W86473  18.307  39.599  13.157
21214W        W86474  26.874  14.440  11.501
21215W        W86475  16.815  15.593   3.610
21216W        W86476  33.187  14.900  11.133
21217W        W86477   2.914  11.579   4.357
21218W        W86478  44.775  37.732  10.243
21219W        W86479  27.119  44.306  14.293
21220W        W86480  41.813  31.858  14.460
21221W        W86481   5.403  33.662  14.469
21222W        W86482  13.067  44.265  11.964
21223W        W86483   4.041  27.188   4.016
21224W        W86484  35.027  40.612  14.061
21225W        W86485  20.457   3.752   0.720
21226W        W86486   5.992  29.020   4.774
21227W        W86487  20.729   1.929  10.741
21228W        W86488  38.928  38.145   4.613
21229W        W86489  44.930  15.828  11.163
21230W        W86490   9.121  15.091   1.831
21231W        W86491  26.710  22.134  12.446
21232W        W86492   4.874  38.456   0.789
21233W        W86493  33.347  10.315  14.013
21234W        W86494  25.088   1.754  14.517
21235W        W86495  29.485  28.112  11.032
21236W        W86496  25.595  32.545  10.645
21237W        W86497  43.409  32.103  11.179
21238W        W86498  32.547   3.866   4.337
21239W        W86499  42.351  26.140  11.620
21240W        W86500   8.674  30.393  13.596
21241W        W86501  10.287  25.233   3.255
21242W        W86502  15.100  15.937  14.998
21243W        W86503  12.103  39.259   4.388
21244W        W86504   8.692   5.585   0.331
21245W        W86505  36.519  13.099   4.987
21246W        W86506   3.705  33.915   0.632
21247W        W86507  30.007  32.538  12.500
21248W        W86508  18.461   0.020  12.419
21249W        W86509  29.689  31.103  11.545
21250W        W86510  28.195  35.572   2.317
21251W        W86511  28.623  13.652   0.283
21252W        W86512  28.572  31.557  12.075
21253W        W86513  35.565   7.649   0.325
21254W        W86514  27.924   0.961   1.209
21255W        W86515   1.435  36.849   0.256
21256W        W86516  41.459  25.204   4.567
21257W        W86517  16.144  21.441  13.785
21258W        W86518   6.179   9.695   0.939
21259W        W86519  36.531  38.529  10.741
21260W        W86520  14.677  10.382   5.012
21261W        W86521  18.203   0.723  13.524
21262W        W86522   0.605  17.390   0.474
21263W        W86523   6.709  16.686  13.153
21264W        W86524  28.738   8.172  14.938
21265W        W86525  28.952  19.816   2.117
21266W        W86526  30.669   6.349   3.385
21267W        W86527   0.744  42.504   2.750
21268W        W86528  26.216  43.017  12.067
21269W        W86529   2.655  35.224  11.081
21270W        W86530  29.528  12.705   4.099
21271W        W86531  24.975  18.706   3.153
21272W        W86532  17.636  32.906  14.971
21273W        W86533  20.901   5.792  11.990
21274W        W86534  25.057   9.549   0.265
21275W        W86535  35.345   2.350   2.984
21276W        W86536   2.198  17.732  10.759
21277W        W86537  39.590   0.181  12.923
21278W        W86538   9.701  34.919  13.766
21279W        W86539  41.592  42.493   4.298
21280W        W86540   8.841  13.134  10.997
21281W        W86541   8.868   1.808  11.734
21282W        W86542  30.579  27.932   3.650
21283W        W86543   8.144  32.973  13.981
21284W        W86544  10.870  32.219   0.648
21285W        W86545  21.278  22.552   0.326
21286W        W86546  34.609  17.272  14.035
21287W        W86547   5.959  11.580   0.884
21288W        W86548  43.289  31.529   3.837
21289W        W86549  34.598  14.510  12.570
21290W        W86550  29.413  16.116   4.305
21291W        W86551  28.420  35.149  14.084
21292W        W86552  28.519  18.652  12.817
21293W        W86553   3.054  40.985  13.515
21294W        W86554  29.403   2.046  11.749
21295W        W86555  22.421  11.705  11.718
21296W        W86556   2.850  15.161  13.977
21297W        W86557  18.294  15.143  12.028
21298W        W86558  44.170   0.483   2.896
21299W        W86559  33.051   2.917   2.184
21300W        W86560  26.000  25.502  14.746
21301W        W86561  30.644  27.902  14.985
21302W        W86562  39.528   4.426  12.629
21303W        W86563  27.570  43.989  11.476
21304W        W86564  11.196  35.308  11.195
21305W        W86565  11.247  22.018  11.080
21306W        W86566  36.899  18.788  11.633
21307W        W86567  34.853  38.730  11.999
21308W        W86568  10.919  24.917   2.230
21309W        W86569  33.537  19.976   0.299
21310W        W86570  30.183  14.213   1.828
21311W        W86571   3.712  32.020  14.647
21312W        W86572  26.377  19.956   4.679
21313W        W86573  39.835  19.030  12.074
21314W        W86574  25.919   4.686   4.557
21315W        W86575  30.494   0.361  11.163
21316W        W86576   1.753  30.113  13.060
21317W        W86577  20.103  21.203  12.659
21318W        W86578   1.250  38.233   0.331
21319W        W86579  17.356  39.834   4.147
21320W        W86580  26.020  10.636   0.396
21321W        W86581  31.066  17.055   4.496
21322W        W86582  33.605  28.185  12.056
21323W        W86583  20.154   7.000   0.811
21324W        W86584  29.545  36.080   1.288
21325W        W86585  43.048  27.506  12.586
21326W        W86586  22.691  11.571  13.672
21327W        W86587  21.082  37.075   0.260
21328W        W86588  13.500   8.017  10.639
21329W        W86589  10.285  11.227   2.175
21330W        W86590  42.412  43.486  14.601
21331W        W86591  26.530   9.942   2.723
21332W        W86592  41.217  41.744   0.204
21333W        W86593  12.098  33.207   3.321
21334W        W86594  30.927   3.837   3.620
21335W        W86595  20.628  26.198   0.788
21336W        W86596  26.974  11.292  12.959
21337W        W86597  11.609  29.373  14.659
21338W        W86598   7.695   2.205  14.881
21339W        W86599  33.632   2.507   5.258
21340W        W86600  28.838  17.210   2.920
21341W        W86601  25.779  10.413  13.885
21342W        W86602  29.630   7.205  12.063
21343W        W86603   5.958  40.950   4.393
21344W        W86604  14.009   5.047   1.740
21345W        W86605  20.633  30.889   2.206
21346W        W86606  30.715   9.681  14.377
21347W        W86607  30.529  15.874  11.499
21348W        W86608   5.675  37.423   1.044
21349W        W86609  11.708  10.663  11.611
21350W        W86610  39.368  44.748   2.646
21351W        W86611  28.447  36.845  14.828
21352W        W86612  17.115   8.938  14.885
21353W        W86613  29.161   1.146   0.733
21354W        W86614  20.522  41.759  13.242
21355W        W86615  12.707  29.559   0.001
21356W        W86616  16.590  10.208   2.360
21357W        W86617  44.833  30.305   3.646
21358W        W86618  41.646  19.842  11.611
21359W        W86619   7.478   5.410  12.333
21360W        W86620  44.214  34.403   0.492
21361W        W86621  43.455   5.770   3.623
21362W        W86622   3.906  13.820   3.277
21363W        W86623  19.645  11.698   1.470
21364W        W86624  28.914  27.981   4.285
21365W        W86625   8.298   8.936   5.183
21366W        W86626  36.067  21.001  11.994
21367W        W86627  11.278  11.830   3.772
21368W        W86628   8.293   4.347   4.032
21369W        W86629  12.274  28.094   4.514
21370W        W86630  37.852  12.314  13.981
21371W        W86631  19.674  33.790  13.355
21372W        W86632  14.695  12.479   4.564
21373W        W86633  20.144  41.761   3.610
21374W        W86634   2.517   1.209  12.453
21375W        W86635   7.753  21.584   1.781
21376W        W86636  12.000   0.723  11.972
21377W        W86637  35.980  40.469  11.761
21378W        W86638  22.031  33.170  10.689
21379W        W86639  42.083  30.793   1.239
21380W        W86640   0.520  36.579   0.767
21381W        W86641  19.462  29.714  13.195
21382W        W86642  11.654  18.321   0.748
21383W        W86643  38.533   5.873   3.427
21384W        W86644  40.194  31.091   0.193
21385W        W86645  24.154  21.130  13.795
21386W        W86646   4.176  31.012  12.240
21387W        W86647  33.379  38.314  12.006
21388W        W86648  26.061  30.744  13.465
21389W        W86649  27.892  30.754  12.008
21390W        W86650  27.699  39.275   4.026
21391W        W86651   1.473  41.617   3.187
21392W        W86652  19.665  44.959   0.193
21393W        W86653  41.060  32.367  13.073
21394W        W86654  25.729   0.357  13.898
21395W        W86655  33.096  41.161   4.662
21396W        W86656  34.029   8.121  10.816
21397W        W86657   3.405  41.867   3.253
21398W        W86658  31.157  22.290   2.388
21399W        W86659  10.629  14.097  10.416
21400W        W86660  38.380   5.035  13.441
21401W        W86661   1.967  23.136   2.320
21402W        W86662  24.083  17.550   0.945
21403W        W86663  28.777  32.232   4.790
21404W        W86664  44.866  28.613   3.081
21405W        W86665  36.512  16.267  11.921
21406W        W86666  28.256   1.427   4.036
21407W        W86667  10.803  27.666   0.059
21408W        W86668   7.854  44.198  12.174
21409W        W86669  26.086  31.123   0.652
21410W        W86670  16.677   9.203   3.692
21411W        W86671  11.542   4.512  12.770
21412W        W86672   0.908   4.003   0.387
21413W        W86673  19.032   8.148   0.565
21414W        W86674  21.018   3.433   0.331
21415W        W86675  41.959  36.265   2.220
21416W        W86676  27.414   9.559   0.266
21417W        W86677  38.409  27.554   0.879
21418W        W86678  30.898   9.257   1.340
21419W        W86679  10.792  25.581  12.988
21420W        W86680   2.896  30.524   2.876
21421W        W86681  19.176  35.879   2.346
21422W        W86682  41.299  43.821   4.215
21423W        W86683  39.831   5.633  13.934
21424W        W86684  29.753  26.469  14.517
21425W        W86685  41.317  38.459  11.068
21426W        W86686  32.821  10.676  11.077
21427W        W86687   3.806  29.217  12.927
21428W        W86688  29.181  29.884   0.973
21429W        W86689  30.074  38.929  10.601
21430W        W86690  22.542  23.725  11.234
21431W        W86691  19.723   3.245   0.879
21432W        W86692  42.075  25.072   2.830
21433W        W86693  39.637  10.963  14.084
21434W        W86694  14.614  30.534  11.653
21435W        W86695  44.883   3.715   2.227
21436W        W86696  11.179   1.843   2.729
21437W        W86697   1.333   6.912  11.672
21438W        W86698  42.514  18.580  12.600
21439W        W86699  22.239   1.976   5.356
21440W        W86700  17.422  17.535   4.231
21441W        W86701  26.616  18.214   0.592
21442W        W86702  20.076  13.372  12.552
21443W        W86703   1.229   5.461   4.069
21444W        W86704   3.321   8.952  11.564
21445W        W86705  20.330  17.136   3.546
21446W        W86706   8.533   2.021   2.689
21447W        W86707  16.671  35.553  13.068
21448W        W86708   9.643  44.714  10.644
21449W        W86709  15.157   3.979  12.544
21450W        W86710  33.429  24.011   2.283
21451W        W86711  19.207  21.402  12.890
21452W        W86712  40.881  39.249  11.003
21453W        W86713  26.070   5.298  10.742
21454W        W86714  36.866  24.237  12.683
21455W        W86715  41.995   2.541  14.069
21456W        W86716   1.588  42.425  14.458
21457W        W86717   4.740   2.285   1.707
21458W        W86718  17.070   3.344   3.102
21459W        W86719  40.782  19.751  10.731
21460W        W86720  41.024  33.999  11.374
21461W        W86721  28.480  16.973  13.999
21462W        W86722  31.590  12.195  13.937
21463W        W86723   8.802  16.763  11.479
21464W        W86724  36.416  18.642   3.441
21465W        W86725  24.992  29.932  14.721
21466W        W86726  19.057   1.456   1.934
21467W        W86727  28.172  43.208   2.679
21468W        W86728  12.142  41.029   3.166
21469W        W86729  31.750  16.326  14.367
21470W        W86730  22.304  37.306   1.179
21471W        W86731  11.775  26.579   2.461
21472W        W86732  42.456  21.776   3.603
21473W        W86733  21.813   8.578  10.331
21474W        W86734  11.274  40.480  11.545
21475W        W86735  24.459   9.314  10.783
21476W        W86736  22.124   3.291  11.759
21477W        W86737   9.273   4.000  13.896
21478W        W86738   1.396   6.732   1.031
21479W        W86739  38.751   9.713  12.994
21480W        W86740  33.680  10.615   0.532
21481W        W86741  36.315  43.813  12.477
21482W        W86742  33.323  33.148   2.872
21483W        W86743  42.419  19.236   0.886
21484W        W86744  28.565   1.221   2.156
21485W        W86745  20.100  23.848   1.821
21486W        W86746   4.241   3.702   4.200
21487W        W86747   6.268  34.099   0.764
21488W        W86748   5.508  18.197  11.459
21489W        W86749  41.536  26.374   4.525
21490W        W86750  43.445  22.581   1.866
21491W        W86751  25.602  11.403   1.330
21492W        W86752  24.580  40.016   1.819
21493W        W86753   2.473  41.542  14.161
21494W        W86754   1.409  40.898   1.216
21495W        W86755  39.763  26.398   2.788
21496W        W86756   5.950  17.244   2.346
21497W        W86757  37.823  32.209  12.125
21498W        W86758  14.781  14.872   2.431
21499W        W86759  42.097  16.439   0.898
21500W        W86760  10.796  36.409  11.852
21501W        W86761  24.230  11.733   2.435
21502W        W86762   9.089  36.504   1.274
21503W        W86763  16.312  35.084   3.165
21504W        W86764  35.918  31.921  11.648
21505W        W86765  39.070  31.075   2.244
21506W        W86766  20.644   2.862  12.833
21507W        W86767  39.525  22.178  10.839
21508W        W86768  29.113  19.171   3.942
21509W        W86769  39.841   9.658  10.758
21510W        W86770  27.224  16.150  11.055
21511W        W86771  21.109  22.176   3.187
21512W        W86772  27.606   6.358  12.501
21513W        W86773   6.012  29.074   2.743
21514W        W86774  37.392  12.180   2.867
21515W        W86775  35.991  44.806  11.964
21516W        W86776  10.183  12.076  11.274
21517W        W86777  42.024  12.942  10.105
21518W        W86778  10.610   4.681  11.601
21519W        W86779  34.323   9.256  12.458
21520W        W86780  40.869   1.185  11.654
21521W        W86781  22.267  13.961  12.821
21522W        W86782  43.902   4.714  12.798
21523W        W86783   2.648  11.075   9.657
21524W        W86784  21.695   1.833   0.594
21525W        W86785   2.682   9.464  11.371
21526W        W86786  43.484   0.197   1.229
21527W        W86787  25.399  42.969  13.774
21528W        W86788  43.281  13.465   4.687
21529W        W86789  12.323  33.375   1.766
21530W        W86790  44.593   6.263   0.464
21531W        W86791  36.897  40.481   3.451
21532W        W86792  41.273  44.486   2.059
21533W        W86793  33.605  32.525  12.589
21534W        W86794   5.655  11.134   0.012
21535W        W86795  38.100  12.396   2.698
21536W        W86796   1.510  34.075  10.651
21537W        W86797  11.099  15.384   4.656
21538W        W86798  16.648  11.714  13.657
21539W        W86799  21.940   0.450  14.434
21540W        W86800  22.030  12.243  14.420
21541W        W86801  31.311   0.289  12.597
21542W        W86802  33.608   0.206   0.780
21543W        W86803  28.190  33.514  10.896
21544W        W86804  32.105  12.155  10.614
21545W        W86805  20.241  29.221   4.903
21546W        W86806  43.432  37.432  12.565
21547W        W86807  25.260  37.581   2.903
21548W        W86808  11.314   2.463  12.211
21549W        W86809   7.256  44.554   4.455
21550W        W86810  44.624  21.454  10.564
21551W        W86811  27.245  24.661   3.662
21552W        W86812  13.370   0.382   2.213
21553W        W86813  12.898  17.938   3.762
21554W        W86814  25.733   8.220  12.461
21555W        W86815  21.644  27.072  11.014
21556W        W86816  16.502  13.771  13.460
21557W        W86817  17.844  42.227  14.469
21558W        W86818   7.631  18.541   0.607
21559W        W86819  27.904  24.835   0.417
21560W        W86820  24.442  20.519   3.252
21561W        W86821   5.490  37.963   4.388
21562W        W86822  44.314  39.418  12.139
21563W        W86823  12.416  29.996  12.527
21564W        W86824   8.986  18.705  14.285
21565W        W86825  11.847  34.054   3.359
21566W        W86826  42.541   8.445   0.389
21567W        W86827   6.439  34.694  14.364
21568W        W86828   2.942   3.011   0.743
21569W        W86829  38.836   4.889  10.651
21570W        W86830  15.135  14.132  14.893
21571W        W86831  25.506  19.421   1.435
21572W        W86832  14.152  31.242  12.486
21573W        W86833  21.901  30.523   4.937
21574W        W86834  31.656  31.275  14.832
21575W        W86835  25.490  41.942   1.989
21576W        W86836  19.445  35.453   5.085
21577W        W86837   9.655   0.972  10.857
21578W        W86838  44.821  19.408   4.231
21579W        W86839   0.350  17.661  12.610
21580W        W86840  15.643  35.420  13.875
21581W        W86841   5.667  23.981   3.649
21582W        W86842   0.329   2.077  14.418
21583W        W86843  39.062  30.975   3.148
21584W        W86844  13.214  21.972  13.979
21585W        W86845  26.131  15.379   1.703
21586W        W86846  18.797  30.937   4.208
21587W        W86847  33.258  36.143   0.951
21588W        W86848  24.260  42.961  14.996
21589W        W86849   8.198  33.470   0.233
21590W        W86850  35.515  24.926  11.180
21591W        W86851  11.092  38.969  13.953
21592W        W86852   8.303  17.157   3.728
21593W        W86853  41.432  40.839  13.573
21594W        W86854  33.118  11.539   3.988
21595W        W86855   6.412  17.162  11.022
21596W        W86856  13.412  14.092  12.052
21597W        W86857   7.925  12.661  14.031
21598W        W86858   6.519  10.923  12.967
21599W        W86859  12.831  21.025   4.126
21600W        W86860  12.923  13.704  14.826
21601W        W86861  29.372  11.278   4.936
21602W        W86862  32.159   0.371  11.187
21603W        W86863   4.924  28.367   2.911
21604W        W86864  17.595  14.213  13.916
21605W        W86865  19.301  40.396  12.932
21606W        W86866  37.781  37.190  13.785
21607W        W86867  20.642   3.779  12.026
21608W        W86868  30.198  29.127  14.914
21609W        W86869  32.131  43.009   4.073
21610W        W86870  24.995  15.265   3.711
21611W        W86871   5.818   1.969   2.853
21612W        W86872  12.198  16.314   0.838
21613W        W86873  35.352  28.983   3.708
21614W        W86874   1.368  23.020   3.740
21615W        W86875  14.638  23.957  10.680
21616W        W86876  21.859  10.077   2.997
21617W        W86877  35.412  40.249  13.871
21618W        W86878   4.525  15.786  12.908
21619W        W86879  35.690  12.798   4.216
21620W        W86880  15.159   8.742  12.099
21621W        W86881  33.778  39.516  11.057
21622W        W86882  11.213  34.521  13.922
21623W        W86883  11.760  15.669  14.720
21624W        W86884  32.261  39.245  14.884
21625W        W86885  10.690   0.148  11.127
21626W        W86886   9.758  16.478  13.041
21627W        W86887  29.455   6.065   0.301
21628W        W86888  40.541  24.609   1.409
21629W        W86889   8.469  16.978  13.058
21630W        W86890  33.460  17.652   0.325
21631W        W86891  41.466  17.377   3.812
21632W        W86892  20.051  42.278   2.754
21633W        W86893  10.621  26.593   0.301
21634W        W86894  16.779  35.659   4.201
21635W        W86895  13.051  38.268  12.927
21636W        W86896  22.884  34.205  10.311
21637W        W86897  27.877   3.802  13.997
21638W        W86898  13.889  27.533   3.580
21639W        W86899  43.281  40.526   1.179
21640W        W86900   3.355  27.142   4.294
21641W        W86901  16.288  22.588   2.222
21642W        W86902   8.688  31.528  12.056
21643W        W86903  35.368   4.336  13.255
21644W        W86904  37.637   9.602   1.849
21645W        W86905  41.299  18.169   1.894
21646W        W86906  12.798  16.342   0.270
21647W        W86907  21.137  29.885   0.313
21648W        W86908  39.982  28.851   2.808
21649W        W86909  17.099  40.567   0.551
21650W        W86910   4.992   4.926  13.011
21651W        W86911  13.370  35.311   2.407
21652W        W86912  28.134  39.024   4.244
21653W        W86913  31.999  34.045   4.073
21654W        W86914  22.992  40.840  14.502
21655W        W86915  35.140  33.808  13.947
21656W        W86916  34.061  41.106   0.862
21657W        W86917  25.763  23.563   4.147
21658W        W86918  41.051  19.618   2.838
21659W        W86919   8.836  44.240  12.955
21660W        W86920  20.553  23.883  13.762
21661W        W86921  38.078  34.525  14.315
21662W        W86922  38.012  43.765   9.852
21663W        W86923  29.715  21.698   2.291
21664W        W86924  31.501  21.989   5.077
21665W        W86925  28.327   7.683   2.402
21666W        W86926  21.377  41.928  12.139
21667W        W86927  44.270  22.604   1.429
21668W        W86928  11.088  42.249  12.320
21669W        W86929   8.339  17.811  12.004
21670W        W86930  16.769  21.408   4.797
21671W        W86931  34.567   2.186   1.690
21672W        W86932  11.712  23.715   1.350
21673W        W86933  31.745  15.392   5.218
21674W        W86934  16.837  26.955  12.053
21675W        W86935   7.879  14.513   5.081
21676W        W86936   9.148  17.053   3.240
21677W        W86937  15.889  22.095  14.246
21678W        W86938  26.619  39.373   0.351
21679W        W86939   2.932  15.828  13.083
21680W        W86940   0.640   4.966  11.472
21681W        W86941  30.557  43.282   1.781
21682W        W86942   5.745  34.844  14.807
21683W        W86943  40.337  20.531  10.645
21684W        W86944  32.034  26.270  12.862
21685W        W86945  19.567   2.001  13.019
21686W        W86946  11.375  24.124  13.910
21687W        W86947  33.996   4.239  10.582
21688W        W86948   4.556  29.466   2.314
21689W        W86949  17.246  37.346   2.950
21690W        W86950   0.840  35.478  12.373
21691W        W86951  20.863  35.172   5.034
21692W        W86952  15.518   4.351   3.090
21693W        W86953  22.472  37.475  12.755
21694W        W86954  18.835  44.932  11.518
21695W        W86955  12.094  21.559  11.819
21696W        W86956   2.231  30.142  14.475
21697W        W86957  10.285  25.943   1.845
21698W        W86958  17.778   3.873  14.358
21699W        W86959  29.228  26.407  14.447
21700W        W86960  18.123   6.760   3.215
21701W        W86961  26.956  26.007  12.030
21702W        W86962  42.845  14.108   2.713
21703W        W86963  34.544   3.822  13.061
21704W        W86964   2.942  24.471   2.175
21705W        W86965  26.657  16.346   0.818
21706W        W86966  29.351  30.524   2.682
21707W        W86967  32.174  41.693   4.613
21708W        W86968   8.758  29.954   3.173
21709W        W86969  19.088  26.022   4.554
21710W        W86970  24.464  12.344   0.193
21711W        W86971  22.606  42.462   0.018
21712W        W86972  33.702  20.291   3.715
21713W        W86973   0.753   4.463  11.608
21714W        W86974  18.753  20.452  14.806
21715W        W86975  18.307  15.364   0.423
21716W        W86976  19.971   7.714   2.431
21717W        W86977  15.320  11.387  13.948
21718W        W86978   5.913   7.219   1.293
21719W        W86979  19.803  34.305  13.075
21720W        W86980  25.071  40.071  12.042
21721W        W86981  20.780  36.687   5.587
21722W        W86982  37.724  23.129  11.594
21723W        W86983  39.901  17.177  13.852
21724W        W86984  28.658  29.874  14.917
21725W        W86985   0.260  11.799   0.485
21726W        W86986  14.076  29.171   3.905
21727W        W86987  21.211  24.429   3.202
21728W        W86988  21.044  22.530  14.502
21729W        W86989  15.833  28.825  11.530
21730W        W86990  39.795  24.211   4.807
21731W        W86991  26.546  18.845  13.054
21732W        W86992  37.017  10.934  11.979
21733W        W86993  20.238  19.847   3.304
21734W        W86994  15.698  19.017  11.734
21735W        W86995  24.742  21.448  12.963
21736W        W86996  32.496  12.820  13.004
21737W        W86997  38.435  13.637  12.643
21738W        W86998  33.979  41.752  10.776
21739W        W86999  27.128  33.899   0.811
21740W        W87000  32.328  21.593   2.723
21741W        W87001  20.782  27.119  14.458
21742W        W87002  11.171   7.711   1.407
21743W        W87003  25.512   4.768   2.562
21744W        W87004   2.684  40.385  12.636
21745W        W87005  18.705   9.427  11.128
21746W        W87006  44.094   5.165   4.138
21747W        W87007  26.629  12.201   4.079
21748W        W87008  10.111  31.070  13.700
21749W        W87009  22.056  35.132   3.708
21750W        W87010  13.559  16.084   0.901
21751W        W87011   9.753  22.776   5.108
21752W        W87012  34.697  10.068   0.425
21753W        W87013  28.593  12.546  11.118
21754W        W87014   0.712  13.161  12.798
21755W        W87015  10.584  41.763   3.791
21756W        W87016  36.025  41.275   4.490
21757W        W87017  33.805  25.454  14.355
21758W        W87018   8.603   3.860  11.684
21759W        W87019  22.963  18.566   1.672
21760W        W87020  42.268  12.118   1.328
21761W        W87021   9.482  34.587   4.255
21762W        W87022  31.983  31.551   0.677
21763W        W87023  15.322  43.118  12.821
21764W        W87024  38.552  19.805  14.822
21765W        W87025  32.333  32.873  11.575
21766W        W87026  17.802  23.517   2.721
21767W        W87027  34.520  43.554  13.325
21768W        W87028  11.737   1.913   1.442
21769W        W87029  34.982  12.150  14.078
21770W        W87030  28.382  22.243   0.832
21771W        W87031  29.646   9.695   0.015
21772W        W87032  27.615   8.692  11.970
21773W        W87033  39.599  35.446  11.473
21774W        W87034  43.981   0.403  11.182
21775W        W87035   2.260  39.794  11.700
21776W        W87036  34.573  35.225  12.370
21777W        W87037   5.932  36.267  13.287
21778W        W87038   0.076  24.742   4.901
21779W        W87039  14.133  43.488   2.108
21780W        W87040   7.553  10.162   1.468
21781W        W87041  26.526  25.724  12.494
21782W        W87042  42.780  21.965   2.625
21783W        W87043  17.959   5.605  10.981
21784W        W87044   2.612  22.745   5.048
21785W        W87045  41.957  38.300  12.297
21786W        W87046  34.479  33.997  14.767
21787W        W87047  24.275  11.651   4.105
21788W        W87048   6.414  38.483  12.071
21789W        W87049  33.151   6.803   2.808
21790W        W87050  38.776  31.059  12.143
21791W        W87051   7.275  34.216  12.991
21792W        W87052  16.644  39.192  12.403
21793W        W87053   2.328  18.541   0.349
21794W        W87054  21.566  19.027   4.737
21795W        W87055   9.848  24.092  11.150
21796W        W87056  18.319  37.206   0.257
21797W        W87057   1.823  39.004  14.947
21798W        W87058   8.889  28.236  10.710
21799W        W87059  13.233   1.506  12.020
21800W        W87060  10.398   5.365   0.916
21801W        W87061  21.645  44.254  12.926
21802W        W87062  14.519  17.130  13.723
21803W        W87063  29.953  33.341   2.647
21804W        W87064  24.567  23.925   4.392
21805W        W87065  20.237  15.675  11.429
21806W        W87066  35.576  23.530  11.835
21807W        W87067   7.759  13.841  13.865
21808W        W87068   0.451  12.460  11.302
21809W        W87069   4.466  39.505   1.001
21810W        W87070  36.061   9.084  13.406
21811W        W87071  40.764  17.796   0.442
21812W        W87072  17.803  24.020   2.753
21813W        W87073   2.013  31.108  14.357
21814W        W87074   5.785   0.886   2.113
21815W        W87075  28.817  11.161  14.851
21816W        W87076   3.423   4.106   1.941
21817W        W87077  38.808  26.978  13.412
21818W        W87078  40.244  13.720  13.725
21819W        W87079  11.472   7.275   3.584
21820W        W87080   5.614  27.562  13.282
21821W        W87081  24.401  37.472   3.305
21822W        W87082  21.484  19.680  14.732
21823W        W87083  10.752  28.931  11.962
21824W        W87084  11.381  29.617  12.334
21825W        W87085   0.729  42.242  11.172
21826W        W87086  14.814   8.237   2.115
21827W        W87087  13.571  35.033   4.168
21828W        W87088  22.608  16.064   2.590
21829W        W87089  15.309  34.822   2.175
21830W        W87090  37.896   7.690  11.396
21831W        W87091  16.230   2.357   0.934
21832W        W87092  42.852   2.877   2.572
21833W        W87093  36.326  42.439   0.461
21834W        W87094  39.848  37.915   4.659
21835W        W87095  27.519  15.705   0.687
21836W        W87096   9.067  12.696  13.316
21837W        W87097  28.530  44.180   2.926
21838W        W87098  36.405  21.119   4.618
21839W        W87099  11.218   6.355   4.499
21840W        W87100  43.307  39.025   0.443
21841W        W87101   3.566  23.163  11.766
21842W        W87102   2.127  24.439   9.900
21843W        W87103  14.779  43.037  11.552
21844W        W87104  13.281  43.561   0.345
21845W        W87105  25.700  35.974   3.750
21846W        W87106  29.011  30.918   2.615
21847W        W87107   7.349   5.666   2.950
21848W        W87108  24.272  21.525  11.573
21849W        W87109   0.963  14.557   1.711
21850W        W87110  35.415  40.797  13.793
21851W        W87111  38.567  16.624  12.378
21852W        W87112  33.494  33.869  13.290
21853W        W87113  24.873  22.284  11.120
21854W        W87114  32.922   2.856   1.095
21855W        W87115   7.853   3.419  10.805
21856W        W87116  16.025  42.329   3.176
21857W        W87117   5.091  22.121  13.848
21858W        W87118  22.663   2.660  10.745
21859W        W87119  12.507  15.941  13.507
21860W        W87120  33.101  39.444   3.780
21861W        W87121  43.933  15.318   5.020
21862W        W87122  32.502  20.026  11.655
21863W        W87123  43.328  33.379   0.414
21864W        W87124  18.739  20.703   0.292
21865W        W87125   0.828   4.208  14.363
21866W        W87126  10.665  29.419   4.228
21867W        W87127  18.375   9.304  14.376
21868W        W87128   1.976  24.045  12.116
21869W        W87129   1.836  29.795  13.526
21870W        W87130  32.829  28.504  12.437
21871W        W87131  22.535  42.659   4.588
21872W        W87132  19.258  31.095   4.006
21873W        W87133  38.831  15.191  10.739
21874W        W87134  16.786  32.643  14.009
21875W        W87135   1.280  12.621   9.822
21876W        W87136   4.707  21.118   2.321
21877W        W87137  22.705   0.258   2.005
21878W        W87138  11.445  24.758  14.957
21879W        W87139  24.478  18.711   3.027
21880W        W87140   7.979  25.296   1.128
21881W        W87141  23.935   2.968   3.375
21882W        W87142  10.085  19.459   3.221
21883W        W87143  13.354  39.854   2.741
21884W        W87144  14.781  26.493  13.044
21885W        W87145   7.928  27.752  12.479
21886W        W87146  44.198  20.785   3.118
21887W        W87147  25.393   7.761  14.041
21888W        W87148  32.869  19.231  13.434
21889W        W87149  31.294  26.917  10.679
21890W        W87150  21.917  39.959  13.950
21891W        W87151  15.968  40.861   4.585
21892W        W87152  39.355  36.917   4.661
21893W        W87153  41.794  19.523   1.276
21894W        W87154   2.393  44.070   2.397
21895W        W87155   9.147   1.369   0.381
21896W        W87156  26.342  42.959   0.880
21897W        W87157  25.954  26.981  11.545
21898W        W87158  20.487   0.803  10.795
21899W        W87159  24.180  16.661  13.598
21900W        W87160  39.392  11.301   2.394
21901W        W87161  19.020   9.408   2.250
21902W        W87162   3.483   6.388   0.336
21903W        W87163  33.000  43.585   4.424
21904W        W87164   9.794  18.246   2.670
21905W        W87165  37.946  27.099   3.106
21906W        W87166  36.793   0.210  12.562
21907W        W87167  39.092   2.030   4.791
21908W        W87168  17.719  42.886  10.630
21909W        W87169  25.119  17.062   3.279
21910W        W87170  32.576  16.525   2.205
21911W        W87171  23.943  33.125   5.123
21912W        W87172  39.403  23.660   2.701
21913W        W87173  28.402   1.386   4.531
21914W        W87174  11.549   8.603  11.976
21915W        W87175  14.955  34.460   1.418
21916W        W87176  36.396  31.400  11.255
21917W        W87177  41.945  28.140   0.931
21918W        W87178   0.178  37.769  13.892
21919W        W87179  28.987  28.422   0.766
21920W        W87180  24.603  12.078  11.896
21921W        W87181  32.106  19.346   0.315
21922W        W87182   7.270  20.999   1.341
21923W        W87183  41.768  11.043   4.054
21924W        W87184  21.082   5.464  14.399
21925W        W87185  39.041  11.215   3.822
21926W        W87186  41.330  10.455  13.884
21927W        W87187  41.730  28.446  13.275
21928W        W87188  13.382  28.326   2.287
21929W        W87189  20.078  12.291  14.652
21930W        W87190   7.634  26.884   2.363
21931W        W87191  19.788  40.594  14.424
21932W        W87192  23.705   7.127   1.345
21933W        W87193  24.719  14.352  10.882
21934W        W87194  28.406   8.411   4.537
21935W        W87195   1.118   1.466  12.601
21936W        W87196  18.785  27.194   0.005
21937W        W87197   1.283  25.821   0.259
21938W        W87198  24.143   3.365  14.253
21939W        W87199   7.361  36.014  10.906
21940W        W87200  14.851  28.516   2.713
21941W        W87201  44.579  39.540   3.720
21942W        W87202   8.335  32.832  12.253
21943W        W87203  44.401  24.139  10.718
21944W        W87204  23.106  34.518   4.590
21945W        W87205   8.911  38.602   0.800
21946W        W87206  14.285  36.539   2.162
21947W        W87207  10.824  14.203  13.241
21948W        W87208  15.572  17.117   2.768
21949W        W87209  38.038  27.888   4.022
21950W        W87210  24.272  43.913  12.645
21951W        W87211   5.965  40.557   3.418
21952W        W87212   7.949  10.856  11.801
21953W        W87213  36.400  37.111  13.961
21954W        W87214  23.719  20.609  11.506
21955W        W87215  11.214   2.842   1.394
21956W        W87216  43.414  17.655  11.587
21957W        W87217  18.119  29.572   1.680
21958W        W87218  31.633  14.093  14.835
21959W        W87219  17.806  10.194  10.689
21960W        W87220  39.354   6.852  11.316
21961W        W87221   5.701  20.119   2.387
21962W        W87222  30.706  23.052  11.954
21963W        W87223  30.324  16.867   2.401
21964W        W87224  19.174   6.130  13.952
21965W        W87225  43.804  32.557  14.211
21966W        W87226  30.977  40.469  12.885
21967W        W87227  21.698  20.621   0.341
21968W        W87228  41.041  18.086  12.899
21969W        W87229  16.243  36.474  14.363
21970W        W87230  40.525  30.125   4.107
21971W        W87231  11.308  24.479  11.191
21972W        W87232  38.741  10.159  11.253
21973W        W87233  39.391  13.838  12.349
21974W        W87234   6.396   2.941  10.631
21975W        W87235  11.653   5.015  12.855
21976W        W87236  13.727  12.645   3.659
21977W        W87237  17.083  20.669   0.263
21978W        W87238  42.967  29.142   1.938
21979W        W87239   6.802   0.539   2.790
21980W        W87240  25.093  29.932  14.195
21981W        W87241   2.493  29.579   1.212
21982W        W87242   0.505  12.543   3.704
21983W        W87243  40.065   9.456  11.977
21984W        W87244  44.589  32.559  12.780
21985W        W87245  20.841  12.828  12.504
21986W        W87246  36.391  33.550  10.998
21987W        W87247  37.724  14.625  10.797
21988W        W87248  30.780   2.802  11.549
21989W        W87249  30.979  33.543  12.474
21990W        W87250  26.635  30.886   1.911
21991W        W87251  16.354   5.182  11.984
21992W        W87252  30.558  13.818  13.674
21993W        W87253  26.709  25.009   1.833
21994W        W87254  17.749  39.071  14.717
21995W        W87255  27.521   7.315   1.907
21996W        W87256  32.884   7.940  12.186
21997W        W87257  16.837  22.690   4.053
21998W        W87258  24.770  33.063  11.093
21999W        W87259  42.512  37.120  11.675
22000W        W87260   8.724  30.939   2.705
22001W        W87261  43.994   5.419   2.503
22002W        W87262   5.448  17.752  13.417
22003W        W87263  23.789  44.507  14.969
22004W        W87264   3.249   5.836  13.037
22005W        W87265  15.955   7.750   5.237
22006W        W87266  29.499  25.146   0.759
22007W        W87267  28.892   5.962   3.270
22008W        W87268  21.478  35.512  14.535
22009W        W87269  10.684  11.325  11.120
22010W        W87270   0.491  35.137  11.280
22011W        W87271  12.706  11.191  10.988
22012W        W87272  13.266  11.673   5.063
22013W        W87273  27.876   3.493  11.598
22014W        W87274  43.810  18.018   2.369
22015W        W87275  13.951   8.376  14.252
22016W        W87276   9.795  20.541   3.155
22017W        W87277  38.846  22.796   3.136
22018W        W87278  23.956   4.777  12.750
22019W        W87279  35.342  10.541  13.063
22020W        W87280   6.913  24.787   4.087
22021W        W87281  21.268  29.963   1.423
22022W        W87282   2.196  41.837   0.794
22023W        W87283   8.038   5.882   2.517
22024W        W87284   4.241  11.807   0.715
22025W        W87285  28.246  34.855  14.953
22026W        W87286   7.919  42.344   0.389
22027W        W87287   6.217  33.883  14.067
22028W        W87288  28.553  36.027  12.351
22029W        W87289  43.233  25.773   4.665
22030W        W87290   9.773  23.513   3.670
22031W        W87291  37.361  18.720   2.125
22032W        W87292  17.484  13.728   2.820
22033W        W87293   5.882  10.839   0.449
22034W        W87294  23.881  13.969   0.082
22035W        W87295  26.181  36.860   0.858
22036W        W87296  38.649  35.839   3.272
22037W        W87297  10.450   4.135  10.109
22038W        W87298  34.126  13.121   1.760
22039W        W87299  19.106  16.511  13.649
22040W        W87300  15.596   1.914   0.527
22041W        W87301  13.580   9.833  12.077
22042W        W87302  21.189   8.797  11.573
22043W        W87303  13.721  15.959  12.144
22044W        W87304  37.130  33.188   4.807
22045W        W87305  18.783  28.491  14.330
22046W        W87306   7.263  17.282  11.622
22047W        W87307  18.295  26.062  12.914
22048W        W87308  14.642  12.780  14.898
22049W        W87309  38.981  40.245   1.150
22050W        W87310   8.807   9.862   0.361
22051W        W87311  12.321  20.757  14.499
22052W        W87312  38.273  34.297   0.242
22053W        W87313  24.720  40.534   3.631
22054W        W87314  30.084  23.002  14.702
22055W        W87315   3.490  14.011   4.973
22056W        W87316  16.234   0.253  12.037
22057W        W87317  34.406  40.795  13.643
22058W        W87318  33.086  17.889  11.368
22059W        W87319  33.825   1.697  10.572
22060W        W87320   1.826  32.642  14.738
22061W        W87321  16.067  37.920  12.473
22062W        W87322  38.048  43.892   2.715
22063W        W87323  11.183   2.033  14.312
22064W        W87324   8.196  14.564   4.579
22065W        W87325  33.489   7.294   4.914
22066W        W87326  30.500  29.148   2.398
22067W        W87327  15.647  42.195  11.138
22068W        W87328  19.271  16.526   3.314
22069W        W87329  33.024   1.318  13.339
22070W        W87330  42.504  32.633  12.252
22071W        W87331   7.695  22.246  14.946
22072W        W87332  43.503  27.661   2.986
22073W        W87333  26.403  24.265  12.033
22074W        W87334   9.781  36.097   3.257
22075W        W87335   1.804  31.451   0.627
22076W        W87336  15.532   8.231  10.587
22077W        W87337   1.407  43.523  12.524
22078W        W87338  26.455  38.974  14.460
22079W        W87339  19.648  38.824  11.952
22080W        W87340   3.828  14.766  12.639
22081W        W87341  20.434   5.478  12.501
22082W        W87342   3.748  30.835  12.040
22083W        W87343   5.389   6.696  10.706
22084W        W87344  14.264  33.645  13.812
22085W        W87345   9.861  17.290   0.452
22086W        W87346   9.883  24.385  11.565
22087W        W87347   6.799   2.369   1.251
22088W        W87348  16.566  26.765   1.648
22089W        W87349  22.054   4.839  12.429
22090W        W87350  42.794   1.939   0.382
22091W        W87351   0.382  15.140  10.222
22092W        W87352  42.016  28.171  13.599
22093W        W87353  37.341  32.071   4.604
22094W        W87354  44.125  22.448  11.880
22095W        W87355  41.114  44.409  11.024
22096W        W87356  34.486  38.902   0.333
22097W        W87357  20.751  44.861   3.375
22098W        W87358   2.260  14.677   3.118
22099W        W87359   2.719  32.434   0.639
22100W        W87360  36.303  41.535  11.130
22101W        W87361  21.580  34.085   1.153
22102W        W87362  38.915  37.101  13.774
22103W        W87363   7.650  22.587   2.202
22104W        W87364  15.579  33.863   4.759
22105W        W87365  39.451  22.285   1.164
22106W        W87366  37.693  16.645  14.804
22107W        W87367   9.270  20.080  14.241
22108W        W87368  10.738  21.931  11.901
22109W        W87369  33.517   9.236   4.674
22110W        W87370   6.838  11.842  12.586
22111W        W87371  26.489  39.978  14.776
22112W        W87372  31.542  12.317   4.678
22113W        W87373  28.433  20.087  10.700
22114W        W87374  36.411  30.968   4.566
22115W        W87375   7.890  42.657  14.519
22116W        W87376  42.679   2.454   1.317
22117W        W87377  24.934  11.991  14.905
22118W        W87378   9.197   8.371  13.419
22119W        W87379   0.781  24.021  13.827
22120W        W87380  28.055  30.276  13.670
22121W        W87381  14.613  17.665   1.739
22122W        W87382  37.807  39.381   1.145
22123W        W87383  20.519  33.550  11.850
22124W        W87384  13.688   6.529  14.325
22125W        W87385  12.254  42.327  14.256
22126W        W87386  35.979  30.641   4.498
22127W        W87387  20.030   5.674   4.281
22128W        W87388  27.012  18.299  11.706
22129W        W87389  35.391  35.396   0.871
22130W        W87390  42.565  36.340  12.182
22131W        W87391  26.094  28.970   4.556
22132W        W87392   5.235   8.136   2.749
22133W        W87393  19.149   7.645   3.204
22134W        W87394  28.512  32.410  14.275
22135W        W87395   7.725  36.420   1.686
22136W        W87396  37.954   7.709   0.013
22137W        W87397  44.773  35.914   2.399
22138W        W87398  25.791   2.896  10.729
22139W        W87399  39.738  41.419  14.269
22140W        W87400  34.921   5.395   2.927
22141W        W87401   9.292   3.395   1.531
22142W        W87402  20.896  10.121   5.052
22143W        W87403  42.546  27.210   3.759
22144W        W87404  32.300  25.098   2.287
22145W        W87405  32.857   1.995  12.632
22146W        W87406   9.061   9.318  11.798
22147W        W87407  25.251  25.140   4.500
22148W        W87408  27.980  41.791   0.274
22149W        W87409   1.218   5.234  13.346
22150W        W87410  21.464  44.509   0.035
22151W        W87411  29.241   9.886  11.918
22152W        W87412   4.477  40.078   3.312
22153W        W87413  36.663   2.105  11.733
22154W        W87414  36.403   7.074   2.308
22155W        W87415  43.413  37.915  11.938
22156W        W87416  30.446  37.749  10.664
22157W        W87417   5.431  41.701  14.426
22158W        W87418  30.110   1.256   0.886
22159W        W87419  11.187  22.992   4.215
22160W        W87420  34.385   1.583   5.507
22161W        W87421  26.882  27.654   1.335
22162W        W87422  17.359  18.368  10.712
22163W        W87423  10.416  42.114  11.155
22164W        W87424  19.933  26.086   0.561
22165W        W87425   9.150  39.110  13.616
22166W        W87426  15.759  10.914   2.428
22167W        W87427  42.254  18.202  11.987
22168W        W87428   3.931  43.365   3.693
22169W        W87429  31.583  21.712   4.106
22170W        W87430  32.453   8.270   1.674
22171W        W87431  44.898  14.829  11.306
22172W        W87432   8.254   9.098   4.188
22173W        W87433  23.005   1.784  12.009
22174W        W87434  19.695  27.601   2.682
22175W        W87435   1.254  23.566  14.861
22176W        W87436  18.811   5.042  12.293
22177W        W87437   3.797  43.322  11.688
22178W        W87438  35.320  31.363  12.127
22179W        W87439   1.532  11.126  10.239
22180W        W87440  11.887  14.599   1.659
22181W        W87441  36.857  33.585  10.764
22182W        W87442  29.999  19.987  10.359
22183W        W87443  23.068  18.096  11.564
22184W        W87444  35.651  16.871  11.183
22185W        W87445  26.634  32.445  13.688
22186W        W87446   3.235  16.000  11.031
22187W        W87447   2.708  39.753   0.322
22188W        W87448   1.200  22.443   1.317
22189W        W87449  31.466  28.920  10.423
22190W        W87450  15.491  28.254  13.834
22191W        W87451  40.065   7.457   1.783
22192W        W87452  40.084  32.696   4.071
22193W        W87453  12.858  21.860   3.085
22194W        W87454   6.724  34.552   3.219
22195W        W87455   0.852  14.687   4.192
22196W        W87456  10.823  27.208   3.193
22197W        W87457  41.017  13.397   4.586
22198W        W87458  14.261  39.454   2.363
22199W        W87459   5.261  13.403  13.972
22200W        W87460  15.601  11.685   1.696
22201W        W87461  26.692  13.845   0.023
22202W        W87462  42.032   1.262   4.347
22203W        W87463   7.796  43.906  11.433
22204W        W87464  29.740   1.514  10.800
22205W        W87465  12.421  24.579   0.782
22206W        W87466  36.350  15.949   2.775
22207W        W87467  10.108  17.649  12.656
22208W        W87468  11.823  33.384  13.979
22209W        W87469  37.001  32.891   4.366
22210W        W87470  21.267  39.688  10.291
22211W        W87471  15.607  12.738   0.722
22212W        W87472   9.291  40.590   1.702
22213W        W87473  42.491  41.960  12.934
22214W        W87474  14.117   8.222   2.821
22215W        W87475  10.725   0.214   2.959
22216W        W87476  11.151  26.226  12.809
22217W        W87477  27.132  38.589   9.934
22218W        W87478  29.103  41.064   4.369
22219W        W87479  39.467  32.041  14.809
22220W        W87480   0.280  10.700   0.514
22221W        W87481  15.299  25.459   2.816
22222W        W87482   1.281  17.204  10.728
22223W        W87483  22.532  31.126   2.943
22224W        W87484  38.036  14.412   3.299
22225W        W87485  42.668  34.956   2.560
22226W        W87486  38.157   0.378  13.286
22227W        W87487  30.519  25.421  12.039
22228W        W87488  17.450  13.117   0.676
22229W        W87489  43.548  44.863  12.082
22230W        W87490   4.617  29.398   3.689
22231W        W87491   8.754   2.805   1.163
22232W        W87492  23.916  20.392  10.803
22233W        W87493  32.429  36.827   3.313
22234W        W87494  30.420   5.461   3.455
22235W        W87495  25.080  23.523  11.930
22236W        W87496  31.801  12.561  10.735
22237W        W87497  25.262  39.895   0.498
22238W        W87498   3.429  38.296  11.161
22239W        W87499  30.497  17.443  13.320
22240W        W87500  29.037  32.525   1.389
22241W        W87501  40.710   0.019  10.618
22242W        W87502  23.696  14.989   3.381
22243W        W87503  33.802   3.628   2.808
22244W        W87504  28.414   7.022  10.898
22245W        W87505   6.678  15.311   4.155
22246W        W87506  40.405   8.244   4.107
22247W        W87507  39.482  44.797   0.463
22248W        W87508  17.163  23.014   4.360
22249W        W87509  39.139  44.496   3.622
22250W        W87510  11.697  39.532  14.307
22251W        W87511  23.738   5.309  12.681
22252W        W87512  36.034  26.645   0.698
22253W        W87513  36.141   4.834  10.786
22254W        W87514  12.098  25.260  12.104
22255W        W87515   2.565  31.981   3.382
22256W        W87516  38.158  37.492  12.567
22257W        W87517  26.374   3.899  12.565
22258W        W87518   2.581  41.488  10.921
22259W        W87519   2.461  20.236  13.400
22260W        W87520   1.288  16.760   2.298
22261W        W87521  24.721   3.520   0.473
22262W        W87522  10.364  17.659  13.980
22263W        W87523  12.843  37.572  11.494
22264W        W87524  31.336  24.534   0.900
22265W        W87525  44.550  22.567  12.261
22266W        W87526  38.779  24.442  12.731
22267W        W87527  23.998  20.492   2.945
22268W        W87528   0.105  16.642  11.150
22269W        W87529  10.794   0.757   1.751
22270W        W87530  19.691  10.094  11.357
22271W        W87531  15.159  16.738  12.583
22272W        W87532   7.175  19.927  13.414
22273W        W87533  17.838  38.519  13.797
22274W        W87534  30.604  24.842   1.244
22275W        W87535  16.717  39.345  14.469
22276W        W87536   2.473   3.494  13.299
22277W        W87537  11.625  13.158   3.608
22278W        W87538   2.848  30.860   4.729
22279W        W87539  42.669  40.915  13.085
22280W        W87540   5.648  34.043  11.594
22281W        W87541  16.802  15.991   1.570
22282W        W87542  32.056  10.670  14.933
22283W        W87543   2.525  18.693  10.744
22284W        W87544  35.333  37.673   2.658
22285W        W87545  39.373  11.229   3.418
22286W        W87546   0.838  10.870  14.724
22287W        W87547  30.945  23.321  14.571
22288W        W87548  13.621  40.977  14.470
22289W        W87549   9.144  12.488  11.519
22290W        W87550  36.153  36.431  14.323
22291W        W87551  15.041  44.275   0.592
22292W        W87552  42.236  15.104  13.301
22293W        W87553  40.910  17.480  13.879
22294W        W87554  43.947   1.292  11.137
22295W        W87555   1.400  19.694   4.496
22296W        W87556  41.843  26.353  14.891
22297W        W87557  32.755  43.714  11.017
22298W        W87558  22.998   1.805   2.850
22299W        W87559  33.937  43.066   3.019
22300W        W87560  43.010  33.621   1.693
22301W        W87561  41.864  42.453   2.503
22302W        W87562  33.812  30.145   3.188
22303W        W87563  30.984   7.644  12.208
22304W        W87564  34.532  43.941  12.967
22305W        W87565  29.058   1.426   2.136
22306W        W87566  28.582  37.044  12.658
22307W        W87567  26.504  15.336   0.902
22308W        W87568   5.977  42.832  14.012
22309W        W87569  11.270  36.305  14.521
22310W        W87570  22.089  25.184  13.485
22311W        W87571  18.288  31.479  10.536
22312W        W87572  15.813  34.589  13.533
22313W        W87573   3.955  28.109   3.135
22314W        W87574  35.617  16.372  11.116
22315W        W87575  41.089   3.342  11.411
22316W        W87576   7.514  29.279  11.648
22317W        W87577   8.961  13.220   1.843
22318W        W87578  10.059  18.085  11.893
22319W        W87579  41.077  15.443   1.265
22320W        W87580  11.777   9.349   2.999
22321W        W87581  34.998  11.216   0.474
22322W        W87582   7.867   8.838   1.275
22323W        W87583   0.937  43.950   4.062
22324W        W87584  18.167  31.229   0.402
22325W        W87585  40.818  23.345   0.422
22326W        W87586  21.074  40.043   3.015
22327W        W87587  39.862   8.444   1.753
22328W        W87588  35.975  16.698  10.739
22329W        W87589  22.579  19.542  13.927
22330W        W87590  10.245  14.924  13.545
22331W        W87591  14.833  25.534  12.332
22332W        W87592  40.773   6.591   0.853
22333W        W87593  21.571  31.582  12.747
22334W        W87594  36.871  18.775  10.207
22335W        W87595  11.506  41.305  12.815
22336W        W87596  44.904  32.098   4.591
22337W        W87597  21.760   7.589   2.598
22338W        W87598  21.058  24.176   3.621
22339W        W87599  15.399  18.838  10.288
22340W        W87600  17.794  26.581  11.390
22341W        W87601  35.336  16.146   4.558
22342W        W87602  39.269  17.878   2.144
22343W        W87603   4.251  43.191   0.312
22344W        W87604  38.869  19.681   2.124
22345W        W87605  13.671  15.822  13.885
22346W        W87606   6.833  36.609  10.478
22347W        W87607   6.291  17.606   2.591
22348W        W87608  22.734   4.346  12.616
22349W        W87609   5.811  25.921   1.334
22350W        W87610   4.759   8.392   3.722
22351W        W87611   0.614  43.518  11.372
22352W        W87612  39.467  19.785   4.521
22353W        W87613  37.467  20.032   3.807
22354W        W87614  30.047  29.014  11.718
22355W        W87615  11.634  27.403  10.632
22356W        W87616  31.053   4.254  14.526
22357W        W87617  39.893  41.289  13.488
22358W        W87618  44.000  11.683   1.556
22359W        W87619  20.526  32.154   3.382
22360W        W87620  15.654   2.902  10.767
22361W        W87621  39.487  22.186  14.136
22362W        W87622  32.924  22.535   0.673
22363W        W87623  25.722  31.032  11.889
22364W        W87624  41.751  24.074  11.946
22365W        W87625   5.372  13.870  12.988
22366W        W87626  31.083  29.372  13.933
22367W        W87627  29.933  18.982  11.973
22368W        W87628  15.036  41.382   5.118
22369W        W87629  39.548   6.910   2.198
22370W        W87630  19.079  27.106  11.410
22371W        W87631  33.020  41.691  14.024
22372W        W87632  29.012  24.616   3.027
22373W        W87633  20.239  31.611  11.048
22374W        W87634  37.825  41.975  12.115
22375W        W87635  22.463  13.807   3.689
22376W        W87636  44.739  26.606   1.840
22377W        W87637  33.982  21.165   0.045
22378W        W87638  26.618  30.390  11.499
22379W        W87639  39.502  24.137   1.779
22380W        W87640  33.133  19.754   3.880
22381W        W87641  41.461  20.237  12.074
22382W        W87642  42.412  15.984   1.966
22383W        W87643  31.873  33.385   2.878
22384W        W87644  20.089   6.103   3.987
22385W        W87645  23.173  44.615  14.424
22386W        W87646  34.140  14.653   3.549
22387W        W87647  26.698  36.198  14.444
22388W        W87648   2.500  22.930   0.371
22389W        W87649  34.616  29.925  12.038
22390W        W87650   9.104   8.754   3.219
22391W        W87651  35.150  20.014  14.013
22392W        W87652  27.654  20.878  11.699
22393W        W87653  33.584  28.680   2.260
22394W        W87654   6.483  31.532   0.884
22395W        W87655  34.905   9.881   2.880
22396W        W87656  32.066  32.438  14.799
22397W        W87657   3.305  28.668   0.691
22398W        W87658  15.576  21.490  12.001
22399W        W87659  17.148   6.048   1.947
22400W        W87660  22.836   8.332  13.534
22401W        W87661  11.371  20.155   3.367
22402W        W87662  12.643  40.616   2.263
22403W        W87663  40.915   1.072  11.132
22404W        W87664  44.738   3.142  12.927
22405W        W87665  17.598  28.464   3.621
22406W        W87666   0.383  19.509  11.546
22407W        W87667  30.540  16.760  14.055
22408W        W87668  13.391  19.651   3.194
22409W        W87669   7.273   2.130   4.625
22410W        W87670  13.802  16.568  14.674
22411W        W87671  13.287  27.055  12.651
22412W        W87672   4.324  14.678  12.501
22413W        W87673  28.142  28.019  11.936
22414W        W87674  32.800  23.235   4.537
22415W        W87675   5.811  35.166   2.652
22416W        W87676  43.017  16.343  10.814
22417W        W87677  15.593  28.452   4.662
22418W        W87678   6.365   5.493   2.879
22419W        W87679  35.787  35.847  14.020
22420W        W87680  14.780   4.484   1.776
22421W        W87681  32.798  39.814   4.874
22422W        W87682  13.489  22.350  13.119
22423W        W87683   6.886   4.009  12.981
22424W        W87684   6.736  36.448  10.954
22425W        W87685  25.555  19.815   4.257
22426W        W87686  27.798  19.765   4.672
22427W        W87687  24.230   7.306   3.691
22428W        W87688  41.364  39.840   3.614
22429W        W87689   5.144  30.636  12.813
22430W        W87690   2.758   9.913   2.422
22431W        W87691  36.375  40.935   4.259
22432W        W87692  37.577  25.042   1.569
22433W        W87693  39.492  43.252   0.280
22434W        W87694  35.476  25.703  10.699
22435W        W87695  19.642  34.972  10.721
22436W        W87696  31.277   8.800  10.714
22437W        W87697   9.888  20.694   4.666
22438W        W87698  13.669   8.251   3.151
22439W        W87699  21.067  12.632   4.509
22440W        W87700  17.017   5.150   3.717
22441W        W87701  39.607  40.381   3.206
22442W        W87702  29.386  15.867  14.615
22443W        W87703  26.389   9.300   1.766
22444W        W87704   9.835  34.471  14.544
22445W        W87705  34.901  18.330  14.967
22446W        W87706  42.411  38.593  12.408
22447W        W87707  11.658  20.635  11.896
22448W        W87708  11.365  34.916   1.875
22449W        W87709   0.277  42.363   1.688
22450W        W87710  15.392   9.094   4.372
22451W        W87711  34.641  37.379  14.498
22452W        W87712  16.084  29.886   2.323
22453W        W87713  21.218  44.068   3.533
22454W        W87714   5.648  23.008   2.639
22455W        W87715  25.203  29.729   3.650
22456W        W87716  34.156  16.579  11.671
22457W        W87717  11.371  18.528   1.143
22458W        W87718  16.225  21.323   4.714
22459W        W87719  12.888  21.607  12.458
22460W        W87720  19.764  25.723  14.303
22461W        W87721  40.925  29.494  11.666
22462W        W87722  40.406  22.192  13.443
22463W        W87723  37.325  33.598   3.144
22464W        W87724  36.896  36.596   3.309
22465W        W87725  32.088  20.527  13.528
22466W        W87726  22.091  23.917  10.613
22467W        W87727  38.960   9.738  13.460
22468W        W87728  25.586  15.950   5.434
22469W        W87729  27.132  40.453  12.037
22470W        W87730  20.347  20.187  12.524
22471W        W87731  14.676   0.250   2.420
22472W        W87732   3.526  29.789  13.347
22473W        W87733  41.211  29.658   0.430
22474W        W87734  34.494  10.256   3.641
22475W        W87735  41.966  33.668   1.143
22476W        W87736  35.617   8.168   4.079
22477W        W87737  43.039  39.367   4.195
22478W        W87738  24.517  22.716   5.498
22479W        W87739  13.594  15.531   0.934
22480W        W87740  15.656  18.759   0.799
22481W        W87741  27.474  31.231   3.087
22482W        W87742  44.547  26.498  11.963
22483W        W87743   2.800   5.927  12.151
22484W        W87744  31.106  10.821  11.478
22485W        W87745  18.284  40.783  12.135
22486W        W87746   0.819  44.250  12.464
22487W        W87747   8.211  30.015  10.668
22488W        W87748  31.238   7.739  13.228
22489W        W87749  20.436  44.789   4.711
22490W        W87750  25.152  37.971   1.918
22491W        W87751  16.759  22.174  12.122
22492W        W87752   1.997  32.109   0.351
22493W        W87753  14.826   9.704  14.495
22494W        W87754  17.323  18.655  10.290
22495W        W87755  13.411   4.762  13.138
22496W        W87756   1.003  31.730  13.994
22497W        W87757  36.168  39.311  11.219
22498W        W87758  30.404  32.142  10.529
22499W        W87759   4.482  35.630   1.845
22500W        W87760  36.272  29.196   4.751
22501W        W87761  17.263  23.203  14.446
22502W        W87762  41.840  15.282   4.223
22503W        W87763  27.167  32.649   1.935
22504W        W87764  13.802  41.135   4.096
22505W        W87765   6.459  41.550   2.774
22506W        W87766  33.891  15.958  11.076
22507W        W87767   4.895  32.055   1.650
22508W        W87768  41.019  41.080  13.811
22509W        W87769  21.727  12.255  12.265
22510W        W87770  28.001  23.952  13.346
22511W        W87771   3.480   5.108  13.797
22512W        W87772  43.177  43.522   2.784
22513W        W87773  14.716   9.872   3.317
22514W        W87774  43.220  22.928   3.733
22515W        W87775  21.242  43.500  14.944
22516W        W87776  41.541  42.968  10.638
22517W        W87777  26.227  28.476  11.471
22518W        W87778  14.216   8.997   0.358
22519W        W87779   9.752  41.282   0.384
22520W        W87780  22.233  22.010  12.520
22521W        W87781  18.602  42.921   0.660
22522W        W87782  30.880  43.254  11.050
22523W        W87783  32.223  37.862  14.427
22524W        W87784  22.603   1.532   3.737
22525W        W87785  43.989  31.130   0.317
22526W        W87786  43.404   2.876   1.298
22527W        W87787  11.351  19.059   1.170
22528W        W87788  15.796  28.228  12.551
22529W        W87789  43.301  43.956   0.741
22530W        W87790  34.317  24.995   1.132
22531W        W87791  33.092  21.062  13.095
22532W        W87792  11.564  11.983  11.426
22533W        W87793  21.287   8.483  10.303
22534W        W87794  40.680  11.136  12.825
22535W        W87795  38.116  39.754  13.752
22536W        W87796  12.349  26.845  11.144
22537W        W87797  35.770  44.891  13.760
22538W        W87798  33.574  35.955  13.595
22539W        W87799  13.119  41.735  11.673
22540W        W87800  33.739   6.736  13.906
22541W        W87801  23.978  15.895  14.970
22542W        W87802  26.632  19.381  13.927
22543W        W87803  35.152   9.782   3.352
22544W        W87804  33.630   6.971   3.672
22545W        W87805  34.289  36.993   2.214
22546W        W87806  28.441   1.543  12.017
22547W        W87807   8.154  44.918   3.240
22548W        W87808   5.426  43.433   3.635
22549W        W87809  21.615  12.815  11.101
22550W        W87810  41.075  38.804  10.762
22551W        W87811   1.774  15.841   2.231
22552W        W87812  31.916  20.101   3.131
22553W        W87813  15.838  32.890  12.967
22554W        W87814   6.363  16.294   2.434
22555W        W87815   8.892  44.909   1.205
22556W        W87816  19.699  40.838   3.346
22557W        W87817  14.157  27.090   4.776
22558W        W87818  32.834  39.036  12.083
22559W        W87819   0.234  16.400   4.905
22560W        W87820  25.968  33.920  10.231
22561W        W87821  22.594  13.845  13.581
22562W        W87822  13.260  41.531  10.221
22563W        W87823  37.032   4.474  11.567
22564W        W87824  17.597  23.121  12.940
22565W        W87825  40.256  38.498  13.183
22566W        W87826  27.814  44.291  12.129
22567W        W87827   9.102   1.444   3.238
22568W        W87828  34.161  11.247   1.775
22569W        W87829  12.691  34.488   0.572
22570W        W87830  35.871  33.906  11.622
22571W        W87831   0.455   2.282   1.435
22572W        W87832  14.831  44.491  14.783
22573W        W87833  19.234  31.926   2.513
22574W        W87834  21.226  31.492  13.119
22575W        W87835  31.969   9.251   0.540
22576W        W87836  28.558  14.606  12.052
22577W        W87837   8.762  42.224  13.122
22578W        W87838   8.646  13.673   1.171
22579W        W87839  23.645  39.890   3.254
22580W        W87840  38.102  31.950  10.688
22581W        W87841  38.490  11.644   4.571
22582W        W87842  22.680  17.287   3.151
22583W        W87843  36.649  37.333  13.462
22584W        W87844  18.154  23.833  14.861
22585W        W87845  31.041  10.584  11.018
22586W        W87846  22.601  18.959  13.065
22587W        W87847  28.742  17.311   4.282
22588W        W87848  28.123   2.837  13.919
22589W        W87849  16.649   9.610  13.507
22590W        W87850   7.644  24.604   2.787
22591W        W87851  20.658  23.699   2.886
22592W        W87852   2.341   5.724  12.089
22593W        W87853  43.186   5.486  14.999
22594W        W87854  22.017   7.730   3.786
22595W        W87855  36.310  23.120  12.076
22596W        W87856  28.343   7.159  14.868
22597W        W87857  36.549  39.496   3.125
22598W        W87858  44.893  44.863  11.864
22599W        W87859   1.794   7.176   4.141
22600W        W87860  18.002   0.873   0.799
22601W        W87861   7.285  26.038  14.290
22602W        W87862  41.001  43.330  14.368
22603W        W87863  20.495  33.453   4.647
22604W        W87864  15.609  18.848   4.564
22605W        W87865  10.791  18.920   3.336
22606W        W87866   6.915  14.199   1.188
22607W        W87867   0.423  41.356  11.279
22608W        W87868  15.849  43.242  11.931
22609W        W87869   8.424  27.117   1.280
22610W        W87870  14.273  13.577  10.963
22611W        W87871  42.807  41.286  13.865
22612W        W87872  11.576  41.118   0.938
22613W        W87873  10.449   4.728   0.515
22614W        W87874   2.020  24.680  14.766
22615W        W87875  43.031  44.314  13.823
22616W        W87876  40.559  28.688   1.325
22617W        W87877  18.516  41.046  10.713
22618W        W87878  21.252  38.494   3.118
22619W        W87879  25.942  43.090  11.642
22620W        W87880  23.525   9.205  10.598
22621W        W87881  25.843  25.449   3.155
22622W        W87882  21.225  42.335  14.221
22623W        W87883   2.915  39.302   0.349
22624W        W87884  16.045   1.284  12.943
22625W        W87885  14.083   1.503   0.239
22626W        W87886  11.735   5.871  14.585
22627W        W87887  32.545  26.105   0.705
22628W        W87888  39.944   4.434  14.287
22629W        W87889   6.847  21.131   4.732
22630W        W87890   6.648  40.890   2.427
22631W        W87891  30.630  31.137   2.913
22632W        W87892   1.752   0.760   2.145
22633W        W87893  14.369   6.402  10.476
22634W        W87894   2.459  17.477   4.465
22635W        W87895   2.300  13.175  12.302
22636W        W87896  34.546  25.401   5.444
22637W        W87897  18.396  44.395  10.256
22638W        W87898  13.303  22.035   2.806
22639W        W87899   1.801   0.649  14.037
22640W        W87900  35.680  24.735   5.037
22641W        W87901  22.628  12.348   1.015
22642W        W87902  31.751   8.654   3.502
22643W        W87903  19.445  11.738   0.926
22644W        W87904  29.835  44.510   0.140
22645W        W87905  38.052  21.137  10.579
22646W        W87906  27.118  23.945  10.823
22647W        W87907  25.037   5.701  13.023
22648W        W87908  12.131  38.314  10.789
22649W        W87909  21.313  27.098   2.664
22650W        W87910  17.729   2.052   0.868
22651W        W87911   2.223  41.321   0.713
22652W        W87912  10.232   2.576   0.450
22653W        W87913  21.107  13.549  10.736
22654W        W87914  15.240  41.499  13.886
22655W        W87915   0.439   2.761  12.478
22656W        W87916   2.928  34.403  13.337
22657W        W87917   5.697  15.093  13.798
22658W        W87918  25.513  14.759  11.207
22659W        W87919  37.988  22.295   3.321
22660W        W87920   4.402  29.366  11.073
22661W        W87921  27.980  32.786  13.102
22662W        W87922  39.260  42.539  11.276
22663W        W87923   0.740  10.592  14.272
22664W        W87924  23.613  25.649  10.736
22665W        W87925  23.116   9.342  13.559
22666W        W87926   3.249  37.499  11.594
22667W        W87927  37.277   5.329   0.814
22668W        W87928  21.000  15.728  13.180
22669W        W87929  28.399   6.645   3.720
22670W        W87930  22.988  43.267  12.635
22671W        W87931  27.517  25.870   4.434
22672W        W87932  18.595   0.988   1.257
22673W        W87933  25.182  26.841  11.136
22674W        W87934   5.776   5.231  10.687
22675W        W87935   8.332  11.179  10.718
22676W        W87936  12.820  31.529  11.320
22677W        W87937  28.732  27.487  12.417
22678W        W87938  25.967  34.114  12.606
22679W        W87939  26.491  20.198  10.693
22680W        W87940  27.899  28.988   4.883
22681W        W87941  17.418  23.568   1.440
22682W        W87942  27.022  39.481   1.391
22683W        W87943  31.110  31.506   1.174
22684W        W87944  31.675   0.791   4.074
22685W        W87945  32.443  37.774   1.723
22686W        W87946  30.965   9.466  13.977
22687W        W87947  39.895  31.947  13.359
22688W        W87948   6.676  23.182  14.928
22689W        W87949  35.498  35.104   4.303
22690W        W87950   7.733  27.263  12.620
22691W        W87951  22.511  24.551  11.100
22692W        W87952  40.384  38.337   1.687
22693W        W87953  39.976  36.097   1.452
22694W        W87954  33.103  20.614   0.399
22695W        W87955  32.850  16.857  14.485
22696W        W87956  27.395  37.577   1.178
22697W        W87957  39.438  17.068  14.583
22698W        W87958  38.561  16.303   2.651
22699W        W87959  29.193  24.145   4.115
22700W        W87960  38.947  28.423   3.126
22701W        W87961  34.984   2.945  13.795
22702W        W87962  32.886  27.302  12.962
22703W        W87963  38.950   8.159  14.708
22704W        W87964  44.171  25.093  14.858
22705W        W87965   4.241   7.531  12.006
22706W        W87966  30.926  32.641   0.467
22707W        W87967  19.883  35.646   5.299
22708W        W87968  35.242  26.623  13.785
22709W        W87969   6.735  42.964  11.212
22710W        W87970  14.612  20.591  14.782
22711W        W87971  41.522  29.174   4.176
22712W        W87972  16.193  13.561  11.612
22713W        W87973  15.480  15.261   0.261
22714W        W87974   8.035  44.743  14.495
22715W        W87975  14.316  25.891  10.585
22716W        W87976   7.812  10.200  13.984
22717W        W87977  13.967  43.912  10.395
22718W        W87978  40.894  38.917   1.939
22719W        W87979  18.096  34.036   0.427
22720W        W87980   7.219  21.995   2.224
22721W        W87981  18.035  38.334   3.399
22722W        W87982   4.402  21.739   0.820
22723W        W87983  35.013  14.106   3.349
22724W        W87984  33.535   8.724  12.480
22725W        W87985   7.487   5.946   2.525
22726W        W87986  37.150  39.073   4.094
22727W        W87987  32.435  29.525  10.720
22728W        W87988  42.073   7.908  10.450
22729W        W87989   5.905  23.194  11.264
22730W        W87990  19.029  19.961  12.982
22731W        W87991  25.983  34.934   1.183
22732W        W87992   5.331   1.406   4.186
22733W        W87993   1.647  35.547  11.977
22734W        W87994   9.856  20.771   2.672
22735W        W87995  33.769  43.303   3.700
22736W        W87996  16.318  15.594   4.802
22737W        W87997  11.226  38.039  11.681
22738W        W87998   4.425  38.184  14.042
22739W        W87999  17.613  30.868   3.292
22740W        W88000  18.662  32.316   2.770
22741W        W88001  22.009  14.783  12.039
22742W        W88002  29.461  44.731  13.477
22743W        W88003  36.411  24.947  10.838
22744W        W88004  34.279   6.562  12.501
22745W        W88005   0.934  16.324  12.686
22746W        W88006  24.942  43.996  10.457
22747W        W88007  17.752  13.832   3.694
22748W        W88008  31.803  44.438   2.872
22749W        W88009   5.900  37.892   1.392
22750W        W88010  39.059  39.567  11.105
22751W        W88011  25.593  36.916  13.766
22752W        W88012  31.113  35.948  11.194
22753W        W88013  16.198  26.977   2.321
22754W        W88014  28.036  18.862   3.801
22755W        W88015  43.324  37.931  11.419
22756W        W88016  44.302   9.661  11.179
22757W        W88017  27.889  32.499   2.841
22758W        W88018  28.373   9.650  11.641
22759W        W88019   9.114  15.632   4.082
22760W        W88020   2.928  33.933   1.896
22761W        W88021  31.580  18.693   3.318
22762W        W88022  24.267   1.074  13.927
22763W        W88023  33.648  35.036  13.293
22764W        W88024   2.910  35.590  12.429
22765W        W88025  31.980   4.933   2.347
22766W        W88026   5.838  10.734   5.018
22767W        W88027  14.734  15.369  12.781
22768W        W88028  12.794  28.739  13.346
22769W        W88029  34.553  10.361   2.764
22770W        W88030  34.080  35.116  12.985
22771W        W88031  39.505  35.036   0.265
22772W        W88032  22.922   5.953   1.251
22773W        W88033  41.096  16.192   0.783
22774W        W88034  36.762   3.970  13.989
22775W        W88035  34.790  38.972   4.610
22776W        W88036  12.228  24.242   2.806
22777W        W88037  10.755  30.421   1.218
22778W        W88038  14.341  23.943   3.856
22779W        W88039   3.903  14.314  13.976
22780W        W88040  35.104  28.180   5.014
22781W        W88041  13.636  25.821   2.098
22782W        W88042  17.273  25.141   3.709
22783W        W88043  11.691  34.431  13.769
22784W        W88044  31.264  11.243  11.738
22785W        W88045   9.483   3.630   3.354
22786W        W88046  33.689  44.637  10.519
22787W        W88047  11.390  15.680  10.667
22788W        W88048   5.684  29.724  13.015
22789W        W88049  19.131  33.445   3.933
22790W        W88050  42.491  19.919  11.361
22791W        W88051  32.040  32.874  12.986
22792W        W88052  12.133  31.162   2.737
22793W        W88053  21.183  26.717   0.294
22794W        W88054   9.890  11.800  14.937
22795W        W88055   8.635  33.361  10.568
22796W        W88056  28.966   3.230   1.863
22797W        W88057  17.405  29.168  10.741
22798W        W88058  36.642  18.264   3.154
22799W        W88059   0.164   1.865   0.440
22800W        W88060  24.897   9.343  12.980
22801W        W88061  22.225  38.113  12.163
22802W        W88062  41.292   3.162  11.968
22803W        W88063  14.877   0.238   0.308
22804W        W88064  18.351  14.689  11.129
22805W        W88065  42.816  28.643  10.989
22806W        W88066  39.525  10.784   4.480
22807W        W88067  10.184   0.677   2.102
22808W        W88068  13.204  30.247  12.886
22809W        W88069  16.617  44.408   1.208
22810W        W88070  16.629   4.218  12.981
22811W        W88071  41.895  18.540   1.301
22812W        W88072   0.302   0.337   4.615
22813W        W88073  30.911  20.656   3.878
22814W        W88074  40.268  33.321   1.252
22815W        W88075   1.825   6.827  13.179
22816W        W88076  14.629  31.818   0.764
22817W        W88077  19.002  24.132   4.560
22818W        W88078  16.108  43.092  13.038
22819W        W88079  35.455  17.264   1.389
22820W        W88080  18.853  30.247   3.650
22821W        W88081   5.811  26.438   2.253
22822W        W88082  12.668  10.700   4.068
22823W        W88083  23.230  11.180   4.409
22824W        W88084  39.864   3.668   1.286
22825W        W88085  25.328  23.950  10.079
22826W        W88086   2.163  23.505  13.423
22827W        W88087  11.722  29.251  13.379
22828W        W88088  11.762  12.044  10.950
22829W        W88089  40.322  17.522   0.420
22830W        W88090   2.349   5.988  12.967
22831W        W88091  19.342  20.131   3.492
22832W        W88092   7.376  26.374   3.683
22833W        W88093  12.391  17.697  14.076
22834W        W88094   3.241   8.597   2.307
22835W        W88095  14.385   2.823  14.090
22836W        W88096   2.447  39.222   1.128
22837W        W88097  33.216  15.832  10.147
22838W        W88098  24.050  22.602   5.160
22839W        W88099  30.799   2.659  10.691
22840W        W88100  44.282  36.816  11.421
22841W        W88101   1.363  42.949   3.681
22842W        W88102  22.974  15.116   0.420
22843W        W88103   3.389  21.308   2.302
22844W        W88104  40.908   0.322   4.633
22845W        W88105  44.456  27.673   0.423
22846W        W88106   1.100  12.934   4.639
22847W        W88107  37.776  29.097   3.669
22848W        W88108  44.194  14.609   1.302
22849W        W88109  39.939  13.383  10.718
22850W        W88110  19.582   3.847   3.714
22851W        W88111  41.551  13.765  10.959
22852W        W88112  35.570  29.099  13.734
22853W        W88113   7.669  37.053   0.001
22854W        W88114  44.922  40.885   0.738
22855W        W88115  14.594  29.147   1.349
22856W        W88116  11.560  44.489  12.013
22857W        W88117  29.124  40.538  11.515
22858W        W88118  42.812  29.206  13.844
22859W        W88119   8.390  17.078  14.221
22860W        W88120   6.449  15.412  10.619
22861W        W88121  34.918  39.525  14.830
22862W        W88122   5.122  16.230   4.618
22863W        W88123  39.225  21.319   4.939
22864W        W88124  28.694  32.127   9.960
22865W        W88125  39.855  23.474  13.939
22866W        W88126   0.912  26.339  13.055
22867W        W88127   2.479  22.789   3.339
22868W        W88128   5.016  39.023  13.507
22869W        W88129  28.288  36.274  10.977
22870W        W88130  34.400  31.141  11.450
22871W        W88131   4.209  21.980  13.826
22872W        W88132  39.804  30.939   0.472
22873W        W88133  13.283  13.415  13.983
22874W        W88134  14.657   2.250   3.371
22875W        W88135   1.351  18.160  10.531
22876W        W88136  12.457   7.479   0.569
22877W        W88137  32.231  35.686   2.780
22878W        W88138  23.450  32.113   4.117
22879W        W88139   9.484   7.972  11.437
22880W        W88140  22.105  34.633   0.371
22881W        W88141  27.365  35.976   4.835
22882W        W88142   0.181  10.801   3.266
22883W        W88143   1.439  28.533   0.052
22884W        W88144   1.005   6.498   4.112
22885W        W88145  38.779  31.144  13.890
22886W        W88146  43.955  32.602   3.842
22887W        W88147  39.097   8.577  13.208
22888W        W88148   2.260   1.970   3.301
22889W        W88149   8.696  16.769   1.192
22890W        W88150  14.781   1.254  12.059
22891W        W88151   9.656  18.175  13.095
22892W        W88152  11.314  21.320   3.659
22893W        W88153  12.552  36.901  12.033
22894W        W88154  38.273  12.364   3.208
22895W        W88155   6.008  41.554   3.664
22896W        W88156  12.163  17.581  11.516
22897W        W88157  21.988  36.795  13.291
22898W        W88158   8.353  38.051   1.372
22899W        W88159  40.310  39.085  12.507
22900W        W88160  34.585  15.787   2.204
22901W        W88161   6.826  44.760   4.694
22902W        W88162  17.826  16.250   3.855
22903W        W88163  22.621  40.584  12.431
22904W        W88164  33.136  40.366  11.991
22905W        W88165  22.592   5.735   2.766
22906W        W88166  41.254   3.287  14.985
22907W        W88167  38.319   7.039  12.397
22908W        W88168  43.332  41.739  13.460
22909W        W88169  42.260   9.289   0.287
22910W        W88170  21.829   6.213  12.139
22911W        W88171   4.840  33.395   5.053
22912W        W88172  39.442  43.888   2.382
22913W        W88173  25.568  31.569   2.206
22914W        W88174   8.938  27.661   0.689
22915W        W88175  44.045   9.994   5.485
22916W        W88176  29.250  20.739   3.168
22917W        W88177  24.249  35.446  12.994
22918W        W88178  29.661  10.630  11.464
22919W        W88179  36.130  14.241  13.922
22920W        W88180  44.281   6.690  14.761
22921W        W88181  22.062  24.720   1.545
22922W        W88182  25.699  30.934   2.842
22923W        W88183  32.793  29.002  14.488
22924W        W88184  17.522  28.428   2.106
22925W        W88185  15.348  20.164   1.829
22926W        W88186   9.922  34.673  11.638
22927W        W88187  13.761  17.162  13.178
22928W        W88188  13.828  23.436   1.280
22929W        W88189  14.748  29.640   1.272
22930W        W88190  21.865  11.297   4.546
22931W        W88191  28.262  21.653   5.059
22932W        W88192   1.949  42.001  11.542
22933W        W88193   1.061  10.971  11.593
22934W        W88194  30.894  28.467   3.165
22935W        W88195  14.297   7.772  10.072
22936W        W88196  19.674   9.599  11.490
22937W        W88197  32.406  20.565  10.374
22938W        W88198   1.925  17.829   4.684
22939W        W88199  27.046  30.089   2.706
22940W        W88200  38.010   3.777   1.915
22941W        W88201  38.430  26.043   3.134
22942W        W88202   5.224  28.397   1.790
22943W        W88203  43.321  38.245   1.008
22944W        W88204   8.541  19.506   0.826
22945W        W88205   1.342  14.857   4.349
22946W        W88206  44.822  36.820   1.470
22947W        W88207   1.415  19.986   0.782
22948W        W88208   7.689  31.595  13.698
22949W        W88209  31.485   8.295   3.747
22950W        W88210  43.723  25.907  12.580
22951W        W88211  34.089   9.432   3.639
22952W        W88212  29.715  39.807   0.926
22953W        W88213  35.417  13.144   2.141
22954W        W88214  10.491  33.447  11.765
22955W        W88215   0.730  34.894   1.386
22956W        W88216  28.389  15.085   0.927
22957W        W88217   7.719  10.699   4.570
22958W        W88218  41.504  14.282   2.715
22959W        W88219   3.451  37.503  12.457
22960W        W88220  18.416   0.491   3.401
22961W        W88221  26.791   3.630  12.395
22962W        W88222  21.064  33.903  12.152
22963W        W88223  19.534  16.220   0.554
22964W        W88224  20.445  41.899   1.892
22965W        W88225  43.491   8.603   1.152
22966W        W88226  32.193   2.071  13.962
22967W        W88227  13.136  34.057  12.329
22968W        W88228  16.818   2.904   3.234
22969W        W88229  32.165  34.906   4.621
22970W        W88230  21.552  24.413  13.308
22971W        W88231   2.952  41.408  14.283
22972W        W88232   3.718  38.098  13.693
22973W        W88233  11.763  27.028   2.221
22974W        W88234   0.590  16.810  11.102
22975W        W88235  20.995  17.683  11.597
22976W        W88236  31.095  17.439   0.334
22977W        W88237   6.269  12.544  11.228
22978W        W88238  30.602  24.660  14.418
22979W        W88239  38.798  18.652  14.947
22980W        W88240   4.595  34.645  14.083
22981W        W88241  20.674  24.173   0.837
22982W        W88242  11.719  20.230   1.479
22983W        W88243   5.390  28.458  14.955
22984W        W88244  32.113  10.558  13.164
22985W        W88245  24.577  19.753  13.353
22986W        W88246  18.249   1.766   0.743
22987W        W88247   7.717  29.669  11.922
22988W        W88248  37.296  34.188  13.448
22989W        W88249  14.993  20.196  13.148
22990W        W88250  21.181  23.429  11.702
22991W        W88251   5.282  24.722   2.193
22992W        W88252  40.259  12.769   4.768
22993W        W88253  26.070  27.986   1.858
22994W        W88254  38.948  23.689   3.872
22995W        W88255   3.514  40.878  12.815
22996W        W88256  11.702  30.256  10.196
22997W        W88257  42.904  19.666  12.120
22998W        W88258   4.826  37.559  11.923
22999W        W88259   8.302   5.893  11.144
23000W        W88260  40.326  37.578  11.961
23001W        W88261   6.906   7.963   4.658
23002W        W88262   8.084  40.301   2.873
23003W        W88263   7.248  19.186   2.223
23004W        W88264  10.724  18.569   0.910
23005W        W88265  18.744  31.628   0.452
23006W        W88266  23.342  37.350   0.331
23007W        W88267  44.897  20.544   0.803
23008W        W88268  41.084  25.951   3.827
23009W        W88269   7.835   9.117   3.192
23010W        W88270  10.237   2.684  14.143
23011W        W88271   5.765   2.438   2.664
23012W        W88272  27.109  29.101   2.378
23013W        W88273  22.007  44.404  14.289
23014W        W88274  40.503  14.130   0.242
23015W        W88275  12.061  30.395  14.840
23016W        W88276  25.240  30.228  12.476
23017W        W88277  16.373  14.904   0.044
23018W        W88278  33.600  17.677   1.766
23019W        W88279  44.517  33.485  12.610
23020W        W88280  10.654  12.838  11.085
23021W        W88281   7.352  41.037  13.448
23022W        W88282  40.739  39.440  14.448
23023W        W88283  15.207   2.894  13.452
23024W        W88284   6.821  10.245   3.665
23025W        W88285  43.583  29.912   0.905
23026W        W88286  35.596  27.447   3.564
23027W        W88287   6.940  33.236  14.998
23028W        W88288  39.538  18.818   4.792
23029W        W88289  22.948  25.222  12.626
23030W        W88290  30.651  33.691  11.516
23031W        W88291  24.008  37.396  11.853
23032W        W88292  31.329  39.326  11.227
23033W        W88293   2.342   1.622  10.647
23034W        W88294  24.631  43.077  13.113
23035W        W88295  28.691   4.229   0.974
23036W        W88296  17.037  12.493   0.915
23037W        W88297  20.789  36.648   1.215
23038W        W88298  43.719   7.773   0.863
23039W        W88299  23.165  39.760   3.305
23040W        W88300  42.558  16.546  13.761
23041W        W88301  13.775  21.705  12.430
23042W        W88302  39.159   2.708  14.596
23043W        W88303  38.401  41.479  11.538
23044W        W88304   2.351  25.689   2.428
23045W        W88305  29.534   9.105  10.581
23046W        W88306   1.363   5.680  11.933
23047W        W88307  19.267  10.129   0.317
23048W        W88308   6.796  30.619  13.877
23049W        W88309  41.416   3.176  13.409
23050W        W88310   5.307  27.633   4.126
23051W        W88311   7.339  32.096   4.675
23052W        W88312  20.648  39.775   3.169
23053W        W88313  22.535   7.645   3.790
23054W        W88314  26.739  19.341  13.032
23055W        W88315  41.372  43.748  14.380
23056W        W88316   6.998  10.244  13.449
23057W        W88317   1.234  23.893  12.445
23058W        W88318  10.019  26.159   1.439
23059W        W88319  40.888   5.772   2.358
23060W        W88320  38.284  28.010  14.069
23061W        W88321  31.968  40.530  12.899
23062W        W88322  44.070  13.565   0.741
23063W        W88323  44.462   2.288  13.010
23064W        W88324   8.345  23.728  13.001
23065W        W88325  16.167  26.315   0.017
23066W        W88326  19.667  26.876  14.942
23067W        W88327  36.413  23.577  13.391
23068W        W88328  22.023  10.395   3.426
23069W        W88329  35.058  43.280  11.065
23070W        W88330  27.575  32.240  14.340
23071W        W88331  39.946   9.338   3.268
23072W        W88332  10.706  31.588  11.939
23073W        W88333   8.399  19.464  14.965
23074W        W88334  40.237  35.541  13.423
23075W        W88335  25.031  36.386  12.908
23076W        W88336  17.590  21.657  12.954
23077W        W88337  16.212  12.066   2.311
23078W        W88338  32.759  30.055  12.169
23079W        W88339   7.068  37.998   2.725
23080W        W88340  17.193  22.779  12.973
23081W        W88341  21.681   5.331  13.461
23082W        W88342  11.393  42.713  14.407
23083W        W88343   2.340   0.318   1.852
23084W        W88344  12.105   8.076   4.819
23085W        W88345  15.117  33.916  11.758
23086W        W88346  38.548  25.926  11.886
23087W        W88347   4.298  33.612   3.356
23088W        W88348  31.166  38.506   4.362
23089W        W88349   5.690   3.340   3.211
23090W        W88350   1.389  14.031   2.216
23091W        W88351  33.890  38.364   2.380
23092W        W88352   0.410  43.922  11.665
23093W        W88353   9.907  34.548  12.504
23094W        W88354   5.033   5.029   4.251
23095W        W88355  21.480  26.371  12.051
23096W        W88356  32.577  28.761  11.174
23097W        W88357  14.510  25.922  12.358
23098W        W88358  35.527  18.148  14.538
23099W        W88359  19.413  42.308   2.387
23100W        W88360  28.617  37.514  10.097
23101W        W88361  38.423   4.643  11.532
23102W        W88362  40.979  10.883  11.678
23103W        W88363  42.979  21.785  11.472
23104W        W88364  27.544  33.351   0.743
23105W        W88365   2.390  16.072  12.977
23106W        W88366  39.043  40.543  11.067
23107W        W88367  23.180  35.904   1.689
23108W        W88368  17.762  34.603  12.796
23109W        W88369  34.972  31.160   0.821
23110W        W88370  20.159  12.267  13.217
23111W        W88371  20.161  36.916   0.252
23112W        W88372  27.821  16.286  11.695
23113W        W88373  21.335   5.196   2.688
23114W        W88374  23.217  32.570  11.386
23115W        W88375  14.385  20.023   2.777
23116W        W88376  36.027  34.259   4.647
23117W        W88377  34.461   5.489   2.686
23118W        W88378  10.928  27.538  10.152
23119W        W88379  20.985  44.117  10.819
23120W        W88380  22.444   2.782   3.506
23121W        W88381  17.703   4.122   3.183
23122W        W88382   8.866  44.975  14.867
23123W        W88383  39.809  34.164  14.126
23124W        W88384  43.025  20.679  11.682
23125W        W88385  33.073  29.167   4.313
23126W        W88386  14.689  14.874   4.320
23127W        W88387  29.440   5.803   3.193
23128W        W88388  44.887  34.137  13.431
23129W        W88389   6.671   4.528   2.842
23130W        W88390   2.915  21.182   0.734
23131W        W88391  38.924  26.014   3.264
23132W        W88392  20.855  16.689   2.839
23133W        W88393  17.917   0.191  14.438
23134W        W88394  16.788  42.964  14.904
23135W        W88395  42.764   4.357   4.246
23136W        W88396  38.786  27.432   2.134
23137W        W88397  28.070  13.172  13.786
23138W        W88398  12.671  22.306   0.892
23139W        W88399  31.972  23.533   2.780
23140W        W88400  41.578  23.516  12.891
23141W        W88401  23.429  32.134   2.675
23142W        W88402  31.367  15.879   2.203
23143W        W88403  18.278  44.037   3.604
23144W        W88404  10.339  16.501  13.026
23145W        W88405   3.019   0.937   2.760
23146W        W88406   7.086  34.498  14.788
23147W        W88407  14.267   4.999  14.861
23148W        W88408  38.819  37.609  10.180
23149W        W88409  13.690  27.963  12.079
23150W        W88410  21.265  38.380  13.123
23151W        W88411  34.477  27.061  11.559
23152W        W88412   6.921  16.822   0.833
23153W        W88413   7.881  33.912   3.692
23154W        W88414  28.675   6.846  12.104
23155W        W88415   8.034   0.896  12.351
23156W        W88416  36.215  15.439   2.901
23157W        W88417  42.435  43.486  10.515
23158W        W88418   0.007  11.772   2.190
23159W        W88419   8.195  44.174   0.954
23160W        W88420  17.742  24.491   0.816
23161W        W88421  18.328  36.961   1.891
23162W        W88422  18.760   0.457  11.538
23163W        W88423  21.270  23.466   0.716
23164W        W88424  30.939   8.159   0.339
23165W        W88425  10.743  10.927   0.808
23166W        W88426   7.816  32.718  12.148
23167W        W88427   1.928  30.943   0.571
23168W        W88428   0.732  17.543   2.911
23169W        W88429  18.914  26.485  12.357
23170W        W88430  16.062  38.019  10.697
23171W        W88431  12.228  26.446   0.691
23172W        W88432  41.518   8.333  11.576
23173W        W88433  17.631   5.210  10.409
23174W        W88434  41.485  41.021   0.908
23175W        W88435  43.598  22.354   0.825
23176W        W88436  33.783  11.399  13.095
23177W        W88437  15.033  31.072   2.367
23178W        W88438  13.724  32.205   3.210
23179W        W88439  34.817  36.105   1.419
23180W        W88440  28.873  31.157  11.955
23181W        W88441  25.181  36.987   1.156
23182W        W88442   5.206  19.078   2.324
23183W        W88443  29.210  43.897   3.386
23184W        W88444  38.481  44.964   2.182
23185W        W88445  25.854  18.488   3.513
23186W        W88446  24.937  34.801  14.791
23187W        W88447  31.925  16.009   0.953
23188W        W88448  43.706  25.430   2.361
23189W        W88449  20.560  40.482   3.765
23190W        W88450  26.513  26.838   3.651
23191W        W88451   2.308   4.168   0.537
23192W        W88452  23.741  22.706  12.003
23193W        W88453  13.855  29.989  12.560
23194W        W88454   4.729  43.999  12.526
23195W        W88455  22.342  11.587   4.102
23196W        W88456  34.062  11.228   3.254
23197W        W88457  10.182  36.940  11.947
23198W        W88458  21.998   7.144   0.018
23199W        W88459  33.156  30.882  14.500
23200W        W88460  44.463  31.924  14.871
23201W        W88461  13.389   7.361   3.028
23202W        W88462  22.901   2.342   2.896
23203W        W88463  30.917  17.061  13.825
23204W        W88464  31.842  29.934  11.675
23205W        W88465  12.727  44.726  13.995
23206W        W88466  40.121  40.595   3.283
23207W        W88467  35.654  21.188   1.948
23208W        W88468  40.322  41.525  13.396
23209W        W88469  13.095  24.914  11.968
23210W        W88470  28.169   0.501   1.709
23211W        W88471  19.599  42.924   2.149
23212W        W88472  37.372   7.280   3.656
23213W        W88473  26.084  22.494  13.737
23214W        W88474  10.948   0.276  13.370
23215W        W88475  34.319  27.763  12.985
23216W        W88476  13.002  34.735  13.894
23217W        W88477  39.376  22.954  13.989
23218W        W88478  43.227  44.835  14.006
23219W        W88479   7.024   1.012  13.888
23220W        W88480  42.440  18.927   1.409
23221W        W88481  34.973  38.025   4.579
23222W        W88482  28.545  38.770   2.987
23223W        W88483  33.774  20.445  10.894
23224W        W88484   2.928  31.087  12.472
23225W        W88485  16.620   1.294  11.095
23226W        W88486  40.456  25.498  14.850
23227W        W88487  31.991  41.257  12.156
23228W        W88488   9.686  34.511  11.062
23229W        W88489   5.498  25.034  11.193
23230W        W88490   3.342  23.205   0.574
23231W        W88491  15.007  40.414   1.294
23232W        W88492  28.114   5.171   3.343
23233W        W88493   4.229  30.880   3.434
23234W        W88494  13.872  37.989   2.221
23235W        W88495  28.018   6.946   0.848
23236W        W88496   1.777  40.487  11.574
23237W        W88497  44.970  33.982  10.717
23238W        W88498  30.247  33.942   4.021
23239W        W88499  27.489  32.931   4.611
23240W        W88500  42.409  16.779  14.688
23241W        W88501   5.651  32.600   2.630
23242W        W88502   8.943  19.223  13.204
23243W        W88503  22.045   0.833   4.521
23244W        W88504  22.256  18.661  10.108
23245W        W88505  25.936  34.084   0.526
23246W        W88506   9.808  34.876  14.880
23247W        W88507  15.328  17.573   2.782
23248W        W88508  14.363  26.565  11.179
23249W        W88509  17.667  39.518   2.546
23250W        W88510  28.920  26.905  10.574
23251W        W88511  31.014  32.285   0.872
23252W        W88512   2.771   4.650   2.214
23253W        W88513  32.354  18.816  12.986
23254W        W88514   4.219  36.982   1.651
23255W        W88515  38.399   3.223  13.292
23256W        W88516  29.503   6.581   0.304
23257W        W88517  23.635  27.694  12.984
23258W        W88518  41.463  32.562   4.395
23259W        W88519  34.662  10.626  12.433
23260W        W88520  24.583  11.448   3.766
23261W        W88521  28.206   3.464  11.173
23262W        W88522  17.002   9.822   0.737
23263W        W88523  11.733  40.054  14.282
23264W        W88524  36.588   4.721  11.716
23265W        W88525  38.086  35.862  12.904
23266W        W88526  12.190   3.259   4.576
23267W        W88527  10.976   0.959   0.842
23268W        W88528  37.093  30.925   4.105
23269W        W88529   8.610  30.544   2.374
23270W        W88530  15.365   8.828  14.289
23271W        W88531  38.728  21.601   2.777
23272W        W88532  13.286  34.979   0.631
23273W        W88533  11.226  39.977  11.581
23274W        W88534  13.360  22.761   2.325
23275W        W88535  15.846   4.931   4.935
23276W        W88536  23.109  34.328   3.345
23277W        W88537  44.915   5.517  12.976
23278W        W88538  32.850  31.094  10.647
23279W        W88539   2.458  16.139  11.566
23280W        W88540  40.815   9.253   2.109
23281W        W88541  35.570  21.484  14.557
23282W        W88542  14.627  20.541   4.602
23283W        W88543  35.320   1.760   2.163
23284W        W88544  39.586  17.583  10.795
23285W        W88545  15.104   2.839   2.277
23286W        W88546  10.729  29.031  14.949
23287W        W88547  44.892  24.197  10.949
23288W        W88548   1.399  26.477  12.058
23289W        W88549   4.290  29.976   3.119
23290W        W88550  34.870  37.234  11.508
23291W        W88551  35.065  14.470   4.187
23292W        W88552  42.727  34.600  12.756
23293W        W88553  14.476  12.649  12.271
23294W        W88554  36.539  20.135   4.904
23295W        W88555  40.427   0.773   0.359
23296W        W88556   3.167  22.582   1.999
23297W        W88557  15.412   1.489   4.937
23298W        W88558   9.882   8.830  12.580
23299W        W88559  29.001  29.485   3.193
23300W        W88560  13.285   6.687  13.953
23301W        W88561  29.024  21.833   1.875
23302W        W88562  41.836  14.976  12.968
23303W        W88563   1.305  24.580  11.068
23304W        W88564  12.585  12.132  11.385
23305W        W88565  25.485  13.271   4.034
23306W        W88566  16.762  26.285   1.725
23307W        W88567  37.597  18.669   4.555
23308W        W88568  21.685  30.221  11.567
23309W        W88569  33.082   2.694  13.780
23310W        W88570   6.780  18.703  12.790
23311W        W88571  12.784  15.100   3.070
23312W        W88572  17.287  35.613   2.419
23313W        W88573  23.321   4.991   4.408
23314W        W88574  24.965  16.285   2.252
23315W        W88575  44.416  22.747  14.464
23316W        W88576  36.122  32.109   4.053
23317W        W88577  35.004  38.472  12.523
23318W        W88578  40.495   5.027  13.493
23319W        W88579   6.934  40.533   4.721
23320W        W88580  42.927  24.120   1.649
23321W        W88581  33.420  14.837  14.909
23322W        W88582  16.659  11.325   2.714
23323W        W88583  40.034  31.629  14.465
23324W        W88584   9.123  33.985   4.638
23325W        W88585  33.028   0.252   2.963
23326W        W88586  14.272   7.158   0.863
23327W        W88587  22.125  20.207  13.059
23328W        W88588  15.214  20.179   4.009
23329W        W88589  30.139  32.407   1.616
23330W        W88590  38.164  44.937  12.808
23331W        W88591  22.665  41.943  14.728
23332W        W88592  31.043  14.056   0.842
23333W        W88593   2.492   2.358   0.236
23334W        W88594  31.836  24.486   1.672
23335W        W88595  21.767   1.710   1.112
23336W        W88596  12.259  36.295  11.149
23337W        W88597  44.817  44.925   4.240
23338W        W88598  35.003  41.805   3.039
23339W        W88599  32.994   3.399  13.002
23340W        W88600  10.727  40.440  11.599
23341W        W88601   2.001  41.362   1.984
23342W        W88602  12.824   4.995   4.100
23343W        W88603  40.452  26.064  12.509
23344W        W88604  39.512  33.615   2.288
23345W        W88605   6.835   9.297  14.279
23346W        W88606  21.657  25.216   0.840
23347W        W88607  15.231  44.324   4.715
23348W        W88608  14.038   2.050   1.296
23349W        W88609  38.210  10.165  11.175
23350W        W88610  43.341  36.098  12.085
23351W        W88611  31.231  29.644   1.864
23352W        W88612  11.496  30.873  14.325
23353W        W88613  16.235   4.370  10.843
23354W        W88614  19.694  24.615  12.457
23355W        W88615  20.807  17.049   0.412
23356W        W88616   4.261  18.690  14.832
23357W        W88617   0.254  13.263   2.660
23358W        W88618   5.191  13.597  13.488
23359W        W88619  36.372  25.826   1.035
23360W        W88620  30.033  16.120   4.641
23361W        W88621  19.358  34.373   2.293
23362W        W88622  22.462  34.061  14.307
23363W        W88623  17.345   3.786  12.069
23364W        W88624  36.879  15.534  11.284
23365W        W88625  38.396   7.574  14.306
23366W        W88626   0.520  16.857   1.904
23367W        W88627   0.059  22.156   2.374
23368W        W88628  31.080  43.244   1.708
23369W        W88629  44.718   9.403  11.030
23370W        W88630  18.607  12.169   0.703
23371W        W88631  10.609   0.379   2.078
23372W        W88632  20.874  43.546   0.360
23373W        W88633  22.958  41.513  11.618
23374W        W88634  43.877  34.691  11.458
23375W        W88635  25.858  39.401  14.925
23376W        W88636   8.274  20.523  13.120
23377W        W88637  33.807  12.574   4.206
23378W        W88638  10.083   6.778  12.875
23379W        W88639  28.590  40.844   1.843
23380W        W88640   8.790   2.717  13.448
23381W        W88641  35.759  14.052   2.852
23382W        W88642  38.390   9.678  14.285
23383W        W88643   1.126  14.334   1.255
23384W        W88644  28.219  40.732  10.746
23385W        W88645  13.913  13.704  14.816
23386W        W88646  40.472  32.475   1.822
23387W        W88647  38.588  15.418   4.877
23388W        W88648  28.615  11.172   3.615
23389W        W88649  38.023  12.088   0.725
23390W        W88650   7.325  18.499   4.297
23391W        W88651  35.446  25.928   3.143
23392W        W88652  26.279  43.840   4.223
23393W        W88653  10.064  20.656   4.195
23394W        W88654  20.618  19.610   0.297
23395W        W88655  42.830  23.701   1.937
23396W        W88656  43.506  11.767   0.173
23397W        W88657  25.384  21.084  12.605
23398W        W88658  26.982   2.517   4.020
23399W        W88659  40.285  28.961  10.702
23400W        W88660   4.237  17.187   1.742
23401W        W88661  32.836   8.904   1.827
23402W        W88662   5.014  24.261  11.118
23403W        W88663  41.332   9.192   2.028
23404W        W88664  38.499  12.151   3.671
23405W        W88665  28.022  20.520  10.615
23406W        W88666  14.063   1.772  12.590
23407W        W88667  14.864  43.484  12.119
23408W        W88668  41.940  44.912  14.780
23409W        W88669  44.554  29.952   3.310
23410W        W88670   5.387  29.532   4.679
23411W        W88671  28.049  15.641   3.418
23412W        W88672  29.797  19.108   2.760
23413W        W88673   7.897  41.985   3.187
23414W        W88674  22.189  23.624  12.346
23415W        W88675  11.407  22.488   0.503
23416W        W88676  10.065   8.353   2.243
23417W        W88677   4.414  44.787   2.304
23418W        W88678  34.127  17.532   1.708
23419W        W88679  37.584  20.544   0.238
23420W        W88680  34.477  17.780  12.135
23421W        W88681  42.345  20.126   0.358
23422W        W88682  23.209   1.300  12.049
23423W        W88683  30.634  20.007   0.970
23424W        W88684  13.812  35.921   3.782
23425W        W88685  21.318   4.407  12.048
23426W        W88686  35.620  12.066   4.938
23427W        W88687   3.947  40.629  12.138
23428W        W88688  32.062  10.923   2.734
23429W        W88689  44.523   0.912  13.951
23430W        W88690   5.737  39.618  13.529
23431W        W88691  25.183  26.594  14.214
23432W        W88692  20.370   1.251   2.368
23433W        W88693   4.302   8.066  14.770
23434W        W88694   4.788  33.029   0.078
23435W        W88695  21.552  39.082   3.854
23436W        W88696   6.240  19.007  13.044
23437W        W88697   4.546  18.221  13.580
23438W        W88698  16.260  36.586  12.869
23439W        W88699  35.922  28.647  14.929
23440W        W88700  32.680   7.524  12.458
23441W        W88701  18.687  34.368   3.251
23442W        W88702  15.980   3.948  11.570
23443W        W88703  27.830   8.772  10.095
23444W        W88704   1.308   3.218   1.943
23445W        W88705   1.177   7.741   0.828
23446W        W88706  14.072  24.023  12.619
23447W        W88707  18.008  34.976  13.899
23448W        W88708  38.559  37.530   1.966
23449W        W88709   5.961  22.617   4.425
23450W        W88710  33.384   4.772   2.270
23451W        W88711  15.878  16.755  11.625
23452W        W88712  13.544  41.301  13.019
23453W        W88713  17.325  34.411  11.567
23454W        W88714  18.716  37.947   3.314
23455W        W88715   9.767  17.583   4.812
23456W        W88716  27.935   3.329  12.461
23457W        W88717  21.688   5.801  11.541
23458W        W88718  40.694   6.483  13.033
23459W        W88719  32.830  36.377  11.209
23460W        W88720  27.464  10.380   4.151
23461W        W88721  13.847  11.746  10.722
23462W        W88722  25.910   5.236   5.386
23463W        W88723  21.935  17.707   2.901
23464W        W88724  17.554   1.757  13.543
23465W        W88725   3.349  19.104   1.889
23466W        W88726   8.412   0.968   3.393
23467W        W88727  30.185   0.531   2.057
23468W        W88728  26.396  26.734   1.240
23469W        W88729  16.564  16.900   2.002
23470W        W88730  15.217  36.670  12.102
23471W        W88731  37.333   3.755   3.558
23472W        W88732  38.989  37.488   5.170
23473W        W88733  10.105  39.756   4.286
23474W        W88734  14.713  42.794  11.996
23475W        W88735  34.069  35.431  14.716
23476W        W88736  21.474  27.451   4.555
23477W        W88737  27.357  14.601  11.457
23478W        W88738  14.765   7.429   2.786
23479W        W88739  20.852  19.029  10.639
23480W        W88740  23.348  14.253   4.509
23481W        W88741   6.678   5.824   4.232
23482W        W88742  27.239  11.231   3.167
23483W        W88743  16.292  22.660   0.442
23484W        W88744  16.220   5.232  11.495
23485W        W88745  29.766  44.715   1.503
23486W        W88746  41.626  14.840  12.522
23487W        W88747  38.250   4.905  10.807
23488W        W88748  34.532   6.245   0.538
23489W        W88749  18.499  31.774  13.663
23490W        W88750  24.054  28.006  12.991
23491W        W88751   5.909  34.669   3.741
23492W        W88752  14.658  16.717  14.988
23493W        W88753  43.874  14.027  14.020
23494W        W88754  37.000  11.620   2.310
23495W        W88755  38.221  43.648  12.920
23496W        W88756   8.007  13.176   3.612
23497W        W88757  18.795  23.056  12.372
23498W        W88758  27.848  44.145  10.734
23499W        W88759  17.704  22.653  13.148
23500W        W88760   2.055   8.247  11.222
23501W        W88761  12.045  19.539   0.503
23502W        W88762   2.234  15.859  10.235
23503W        W88763  41.723   5.280   3.298
23504W        W88764  19.228  20.201  12.529
23505W        W88765   7.434  34.427   0.213
23506W        W88766  27.427  19.619  14.829
23507W        W88767  23.953   6.676  12.529
23508W        W88768  38.819  29.149   3.570
23509W        W88769  36.079  35.137  13.028
23510W        W88770  26.524   2.019   9.839
23511W        W88771  20.135  41.070  12.921
23512W        W88772  12.748  24.805  10.272
23513W        W88773  23.843   9.813   4.378
23514W        W88774  35.639   0.477   2.323
23515W        W88775  37.054  34.266   5.001
23516W        W88776   6.711  21.535   5.056
23517W        W88777   6.262  26.907   5.320
23518W        W88778   4.420  33.605   3.863
23519W        W88779  44.286   2.224   2.920
23520W        W88780   0.360  34.420  12.321
23521W        W88781   6.431  40.134   1.161
23522W        W88782  20.759  34.485  13.365
23523W        W88783  18.695  43.470   1.882
23524W        W88784  10.619  17.643   1.778
23525W        W88785  33.427  25.467  13.988
23526W        W88786  27.894  29.934  12.867
23527W        W88787  28.965  11.847  11.551
23528W        W88788  32.551  31.999  13.257
23529W        W88789  39.322  23.327   3.834
23530W        W88790  34.973  38.974  13.359
23531W        W88791  39.510   6.390  14.315
23532W        W88792  17.670  38.128   4.339
23533W        W88793  22.575  12.868   5.417
23534W        W88794  35.056  22.183  13.039
23535W        W88795  20.102   2.008  12.017
23536W        W88796  33.514  10.238  11.996
23537W        W88797  33.629  34.444  11.205
23538W        W88798  41.362  36.535  11.581
23539W        W88799  34.851  29.959   1.882
23540W        W88800  36.966  41.528  10.772
23541W        W88801  14.647  11.549  11.732
23542W        W88802   3.027   8.352  14.422
23543W        W88803  18.485   3.635   2.885
23544W        W88804  27.908  25.864  12.501
23545W        W88805  14.270  12.326  14.750
23546W        W88806  15.156  17.695   0.861
23547W        W88807   1.238  15.856  11.533
23548W        W88808  19.257  12.707  11.141
23549W        W88809  27.193  39.439   4.131
23550W        W88810  24.070  17.203   1.742
23551W        W88811  23.108  11.215   3.408
23552W        W88812  34.602   1.704   4.101
23553W        W88813   5.523  33.098  11.156
23554W        W88814  26.140   8.365  11.578
23555W        W88815  26.425  15.772   3.091
23556W        W88816  22.038   6.843  13.767
23557W        W88817   3.967   7.906   2.615
23558W        W88818  34.886  27.167   4.262
23559W        W88819  11.806  34.681  11.069
23560W        W88820  23.117   4.726  12.918
23561W        W88821  15.721  18.237  12.392
23562W        W88822   5.077  43.016   1.439
23563W        W88823  22.942  16.231  14.754
23564W        W88824  22.655  37.891   3.325
23565W        W88825  11.905  20.072  10.723
23566W        W88826  21.099  11.719   2.171
23567W        W88827   3.877  17.497   2.368
23568W        W88828  12.656  27.562   4.748
23569W        W88829  27.803  21.318   0.745
23570W        W88830  31.644  10.649   2.613
23571W        W88831  22.403  19.923  10.717
23572W        W88832  30.496  20.243  11.895
23573W        W88833  39.983  43.861  10.884
23574W        W88834  34.376  18.306  14.958
23575W        W88835  34.627  34.706   2.254
23576W        W88836  24.603  21.283   2.884
23577W        W88837  17.573  30.703  12.992
23578W        W88838  34.915  31.488   4.676
23579W        W88839  13.489   3.406   0.212
23580W        W88840   1.218  28.105  13.737
23581W        W88841  13.238  24.192   4.527
23582W        W88842  38.810   3.204   3.248
23583W        W88843  23.320  26.488  13.449
23584W        W88844  24.664  34.611  13.592
23585W        W88845  39.822   6.204   1.003
23586W        W88846  32.759  40.789   3.570
23587W        W88847  43.886  22.594  14.350
23588W        W88848  36.869  18.051  12.932
23589W        W88849   0.549  37.550  14.156
23590W        W88850  15.096  14.844   3.578
23591W        W88851   7.060  14.080   1.714
23592W        W88852  40.149  21.871  11.844
23593W        W88853  38.527   4.299   4.772
23594W        W88854  42.070  16.527   3.644
23595W        W88855   6.792  30.055  12.061
23596W        W88856  18.755   1.975  10.585
23597W        W88857  21.497   9.329   1.686
23598W        W88858  28.076  19.745   2.499
23599W        W88859  42.940   9.021   4.677
23600W        W88860   3.708  26.117  13.050
23601W        W88861  15.380  13.724  13.043
23602W        W88862   4.772   4.572  13.535
23603W        W88863   2.002  10.924  13.351
23604W        W88864  34.016  30.074  13.435
23605W        W88865  40.261  32.551  11.288
23606W        W88866  37.660  39.480  13.960
23607W        W88867  33.968  23.053  10.713
23608W        W88868  14.817   5.474  11.681
23609W        W88869  17.824  17.550   4.619
23610W        W88870  10.855  42.769   2.764
23611W        W88871   2.312  34.875   3.758
23612W        W88872  33.530  15.725   4.976
23613W        W88873   2.371  37.083   3.238
23614W        W88874  41.749  12.131   1.205
23615W        W88875  21.206  29.503  11.916
23616W        W88876   5.284  30.571  13.301
23617W        W88877  19.148   8.778  12.148
23618W        W88878  44.617  10.086   2.398
23619W        W88879  40.586  42.000  14.536
23620W        W88880   8.649  39.016   1.648
23621W        W88881  28.541  11.796   2.243
23622W        W88882  16.609   1.214  12.050
23623W        W88883   5.281  26.721   2.356
23624W        W88884  17.299  31.788  13.828
23625W        W88885  34.625   4.980  13.291
23626W        W88886  17.818  20.728  12.863
23627W        W88887  29.018  15.260  11.976
23628W        W88888  44.727   9.641   3.135
23629W        W88889  44.867   3.375   3.161
23630W        W88890  33.950   1.730  12.849
23631W        W88891  28.393  25.696  12.483
23632W        W88892  12.374  18.498  12.037
23633W        W88893  21.381  26.246   0.305
23634W        W88894  13.345  39.335   2.839
23635W        W88895  12.719  21.976  11.243
23636W        W88896  26.650  12.656   1.697
23637W        W88897  21.549   1.778   5.024
23638W        W88898  33.938  23.209   2.447
23639W        W88899  43.454  16.431   0.929
23640W        W88900   0.517   5.796   0.725
23641W        W88901  39.098   9.354  14.366
23642W        W88902  28.126  38.274   1.299
23643W        W88903   0.376  20.186   4.005
23644W        W88904  41.668  18.197   3.198
23645W        W88905  25.736  11.593  11.405
23646W        W88906   0.361  27.654  12.333
23647W        W88907  39.958   7.328   0.788
23648W        W88908  13.472   3.945   1.505
23649W        W88909  17.627  34.151   4.754
23650W        W88910  22.482   9.212   1.313
23651W        W88911  31.650  17.903   2.822
23652W        W88912  43.995   0.746   1.700
23653W        W88913  12.060  36.110   0.194
23654W        W88914  37.562  43.564   2.851
23655W        W88915  28.145  36.999   2.046
23656W        W88916  15.477  36.863   4.471
23657W        W88917  24.254  27.423   0.845
23658W        W88918   5.703  24.987   1.031
23659W        W88919  18.268  37.520  13.805
23660W        W88920  36.052  44.486   0.056
23661W        W88921  10.301   9.149   2.793
23662W        W88922  34.455  17.018   2.860
23663W        W88923  22.398  39.223  10.903
23664W        W88924  23.973  11.638  10.745
23665W        W88925  20.499  13.671  14.364
23666W        W88926   0.249  18.803  14.433
23667W        W88927   1.720  28.463   4.520
23668W        W88928  17.508  41.609  11.506
23669W        W88929  27.758  18.788  12.109
23670W        W88930  36.295  31.212  13.092
23671W        W88931   1.898  43.761  12.115
23672W        W88932  14.007   1.522  13.954
23673W        W88933  24.157   0.893  10.957
23674W        W88934  12.701  27.914   1.587
23675W        W88935  15.175   7.420   1.408
23676W        W88936  43.335  29.567  13.205
23677W        W88937  11.798  38.331   0.060
23678W        W88938  25.230   0.383   3.567
23679W        W88939  30.455  33.918  11.101
23680W        W88940  31.675   6.895  10.634
23681W        W88941  43.528  20.695  13.836
23682W        W88942   4.259   1.045  13.901
23683W        W88943  28.045  20.716  12.482
23684W        W88944  31.410  32.595   4.210
23685W        W88945   1.671  35.896  12.443
23686W        W88946  23.666  39.821  11.597
23687W        W88947  22.568  19.202  11.407
23688W        W88948  32.510   5.346   3.708
23689W        W88949  35.442  37.857   0.043
23690W        W88950  19.725   6.448   2.900
23691W        W88951  37.331  16.318   2.815
23692W        W88952  28.443   8.291   2.710
23693W        W88953  10.480  32.691  11.788
23694W        W88954   2.535  12.499   4.572
23695W        W88955  24.612  44.359  10.190
23696W        W88956  38.094  18.326  14.339
23697W        W88957  22.544   9.612   3.216
23698W        W88958  22.988   4.766  12.402
23699W        W88959  30.440   8.623   1.335
23700W        W88960  17.509   8.338  13.112
23701W        W88961  22.478  23.628  13.267
23702W        W88962   0.975   1.786   0.836
23703W        W88963  18.337  17.798  11.006
23704W        W88964  29.574  30.522  13.541
23705W        W88965  25.991  28.427  13.963
23706W        W88966  20.043  35.795   4.306
23707W        W88967  26.710   5.688   0.755
23708W        W88968  13.785  40.941   0.868
23709W        W88969  30.095  29.179   2.765
23710W        W88970   7.656  34.942   1.509
23711W        W88971  22.573  19.839  12.035
23712W        W88972  31.899  44.902  12.022
23713W        W88973  25.566  33.271   4.160
23714W        W88974   7.614   2.977  11.141
23715W        W88975  33.450  42.586   1.850
23716W        W88976  20.376  32.373  11.457
23717W        W88977   3.252   8.668   0.275
23718W        W88978  12.286   6.334   2.589
23719W        W88979  40.933  39.941  14.383
23720W        W88980  12.762  19.712  13.756
23721W        W88981  37.078   0.193  11.310
23722W        W88982  35.527  30.980   2.398
23723W        W88983  17.057  44.510  11.190
23724W        W88984  34.008  25.139   9.895
23725W        W88985  43.427  28.448   1.774
23726W        W88986  36.360   6.292   4.165
23727W        W88987  13.333   2.909   2.358
23728W        W88988  30.972  22.338   0.645
23729W        W88989  24.132  11.711   0.239
23730W        W88990  37.087  22.274   1.186
23731W        W88991  33.041   6.493   4.348
23732W        W88992   2.701  11.171   1.198
23733W        W88993  39.812  26.039   4.210
23734W        W88994  36.702  40.128  13.998
23735W        W88995  27.666  44.909   0.307
23736W        W88996  36.075   3.283   2.688
23737W        W88997   0.035   1.416   1.649
23738W        W88998  43.908  15.158   9.915
23739W        W88999   1.550  42.349  14.972
23740W        W89000  15.308  15.796  12.191
23741W        W89001  30.316  20.380   3.675
23742W        W89002  18.864  14.197   1.747
23743W        W89003  40.885   3.201  10.014
23744W        W89004  37.633  37.399   4.230
23745W        W89005   2.321  22.174  14.163
23746W        W89006  20.293   6.281  11.681
23747W        W89007  42.358  31.233   1.283
23748W        W89008  39.301  25.156   1.527
23749W        W89009  11.108  39.928   0.684
23750W        W89010  10.747  29.304   2.430
23751W        W89011  35.649  20.347  11.178
23752W        W89012  35.967  29.108   2.147
23753W        W89013  23.169  44.683   3.075
23754W        W89014   6.952  26.134  11.609
23755W        W89015  27.198  18.675  14.840
23756W        W89016  42.124  41.438   3.563
23757W        W89017  31.221  34.492  12.429
23758W        W89018  28.437  41.277   2.069
23759W        W89019   8.937  35.885   2.234
23760W        W89020  22.525  26.453   1.599
23761W        W89021  36.028  22.015  14.350
23762W        W89022  36.914   4.169  10.666
23763W        W89023  39.024   0.280  12.490
23764W        W89024  21.614  29.636  14.062
23765W        W89025  11.599  19.975  13.885
23766W        W89026  12.101  22.750   1.760
23767W        W89027  42.171   4.336   0.449
23768W        W89028   3.952  19.213  12.627
23769W        W89029  12.947   1.735   2.812
23770W        W89030  11.890  41.289  13.727
23771W        W89031  31.732  18.008   0.397
23772W        W89032  23.991  27.467  10.761
23773W        W89033  19.740  42.775   0.170
23774W        W89034   0.830   4.936   0.755
23775W        W89035  33.090  18.504  12.056
23776W        W89036  23.827  27.555  14.375
23777W        W89037  14.657  36.596  14.767
23778W        W89038  35.665  29.057  14.282
23779W        W89039   8.083  30.079  12.426
23780W        W89040  43.939  26.836  14.011
23781W        W89041   4.338  31.913  11.388
23782W        W89042  12.816  36.576  12.950
23783W        W89043  38.556   6.774  10.661
23784W        W89044  38.438  23.574  14.480
23785W        W89045  35.631  26.523  10.125
23786W        W89046  27.545  12.260  11.960
23787W        W89047   2.219  22.207  11.703
23788W        W89048   3.578   8.877  10.933
23789W        W89049  32.574   5.925  13.038
23790W        W89050  23.733   9.966   0.388
23791W        W89051  22.200  41.095   2.646
23792W        W89052   1.232  19.103  12.502
23793W        W89053  33.999  28.109  13.556
23794W        W89054  19.286  30.498   1.235
23795W        W89055   7.952  41.291   0.249
23796W        W89056  18.221  24.101  13.088
23797W        W89057  36.061  18.521  11.129
23798W        W89058  11.441  44.498  11.058
23799W        W89059  41.319  34.494  14.378
23800W        W89060  30.288  31.704  10.147
23801W        W89061  20.206  43.227   0.959
23802W        W89062  27.186  31.884  14.381
23803W        W89063  37.269   9.616  14.801
23804W        W89064  34.392  13.718   3.382
23805W        W89065  20.513  26.898  13.033
23806W        W89066  10.850  39.514   0.520
23807W        W89067  23.626  12.776  10.708
23808W        W89068  17.057  21.154  10.458
23809W        W89069  34.935  13.600   3.248
23810W        W89070  30.992  13.646  12.996
23811W        W89071  13.502  38.438   2.800
23812W        W89072  17.333  18.959   9.877
23813W        W89073  21.184  42.976  13.072
23814W        W89074  28.183   1.324  12.513
23815W        W89075  34.803   0.567  14.850
23816W        W89076  21.263  22.436  11.658
23817W        W89077  16.147   1.263   0.388
23818W        W89078  19.372  15.099  12.492
23819W        W89079  10.974   4.709   0.388
23820W        W89080   1.058  33.101  12.950
23821W        W89081  37.915  41.501   4.980
23822W        W89082  38.370   1.978   2.188
23823W        W89083   6.151  25.652   2.199
23824W        W89084  30.840   8.802   1.651
23825W        W89085  21.820  24.176   3.938
23826W        W89086   0.864  18.338   3.379
23827W        W89087  23.157  27.095  14.018
23828W        W89088  38.826  40.065  14.854
23829W        W89089  15.084  33.969   4.632
23830W        W89090  31.480   4.370  12.645
23831W        W89091   0.997  28.984   2.170
23832W        W89092  36.860  14.618   0.820
23833W        W89093  17.016  42.377   0.202
23834W        W89094  18.699  38.259   0.713
23835W        W89095  27.680   9.139   4.641
23836W        W89096  22.338  26.772  13.334
23837W        W89097  13.195   2.232   4.621
23838W        W89098   1.748  43.340   1.514
23839W        W89099  40.783   0.781   2.749
23840W        W89100  17.795   2.534   3.973
23841W        W89101  42.139  29.266   2.544
23842W        W89102  23.408  10.676   2.742
23843W        W89103  16.134  24.907   0.534
23844W        W89104  17.098  24.607   3.606
23845W        W89105  22.515  33.666   2.614
23846W        W89106  30.320  41.271   2.220
23847W        W89107  21.189  33.451   1.855
23848W        W89108  38.476  20.691   0.141
23849W        W89109   4.743  42.382  14.850
23850W        W89110  44.380  23.514  14.847
23851W        W89111   9.470  18.749   1.912
23852W        W89112  21.964  15.033   0.341
23853W        W89113  31.963  30.027   1.437
23854W        W89114  33.417  13.911  12.159
23855W        W89115  11.896  23.772  12.923
23856W        W89116  14.703  35.837  12.876
23857W        W89117  42.484  35.675   4.448
23858W        W89118  44.461  36.852  14.463
23859W        W89119  42.833  27.605   0.361
23860W        W89120   0.813  34.798  11.049
23861W        W89121  19.824  34.434  11.721
23862W        W89122  17.651  18.175  14.787
23863W        W89123  40.174   1.518  11.071
23864W        W89124   5.531  10.243   1.252
23865W        W89125  39.299  25.216  10.509
23866W        W89126  35.628   3.039  11.168
23867W        W89127  39.986   4.761   1.279
23868W        W89128  17.494  18.982   3.110
23869W        W89129  13.584   4.767   2.598
23870W        W89130   4.405   2.844  14.440
23871W        W89131   0.529  24.247  11.287
23872W        W89132  35.645  18.709  14.719
23873W        W89133  10.142   9.646   3.497
23874W        W89134  22.488  17.478  10.663
23875W        W89135   1.679  27.459   4.242
23876W        W89136  30.538  11.373  11.194
23877W        W89137   8.341   0.904   2.012
23878W        W89138  32.770  28.635   4.977
23879W        W89139   2.332  14.140   3.191
23880W        W89140   2.262  19.690   1.231
23881W        W89141  19.161  20.740  14.921
23882W        W89142  25.203  42.999  11.181
23883W        W89143  38.978  39.338   0.296
23884W        W89144  34.373  38.990  10.656
23885W        W89145   8.591  35.591  14.013
23886W        W89146  39.050  10.362  14.411
23887W        W89147   5.168  15.188  11.190
23888W        W89148  31.145  11.303   3.064
23889W        W89149   8.265  40.165   2.252
23890W        W89150  25.534   8.715  10.014
23891W        W89151  32.569   0.267  11.906
23892W        W89152   6.329   5.310   0.821
23893W        W89153  44.309  10.480   1.141
23894W        W89154  26.482   9.692  13.865
23895W        W89155  13.713  23.375   0.746
23896W        W89156  12.865   6.422   0.883
23897W        W89157   5.699  25.671  14.209
23898W        W89158  12.209  30.899   0.674
23899W        W89159   9.823  17.774   4.162
23900W        W89160  14.248  37.292  14.410
23901W        W89161  33.028  19.880   1.991
23902W        W89162  29.098   3.279   2.720
23903W        W89163  43.776   9.171   4.345
23904W        W89164  35.896  31.465  11.426
23905W        W89165   3.716   6.273  13.716
23906W        W89166   0.008  14.157   1.794
23907W        W89167  32.642  13.228  14.948
23908W        W89168  13.853  37.483   2.407
23909W        W89169  12.905   1.831   5.086
23910W        W89170  42.886   1.842  10.697
23911W        W89171  27.159   8.121   3.112
23912W        W89172  21.368  40.224   0.786
23913W        W89173  14.192  39.542  10.706
23914W        W89174  12.369  23.937  13.607
23915W        W89175  15.334  29.613   1.225
23916W        W89176  10.624  15.678  13.984
23917W        W89177   0.203  36.583   4.126
23918W        W89178  37.926   4.058   0.855
23919W        W89179   1.265  22.454   2.446
23920W        W89180  33.038  41.303   1.793
23921W        W89181  24.619   9.956   1.979
23922W        W89182  37.050  33.850   4.146
23923W        W89183  26.422  12.094  10.561
23924W        W89184   8.267  33.981   4.317
23925W        W89185   9.401  37.467  12.106
23926W        W89186  11.354  42.797  11.317
23927W        W89187  27.940  33.872   4.259
23928W        W89188  22.438  30.646  12.123
23929W        W89189  38.071  10.103   3.417
23930W        W89190  33.522  19.135   1.836
23931W        W89191   4.952  37.507  12.421
23932W        W89192  39.879  42.821  11.891
23933W        W89193  24.091   9.307  11.142
23934W        W89194  42.959  11.194   2.746
23935W        W89195  13.215  24.103   2.404
23936W        W89196  13.996  12.013  11.135
23937W        W89197   9.551  38.737   1.831
23938W        W89198   7.446   8.785  13.538
23939W        W89199  35.209   0.832  10.999
23940W        W89200  13.320  29.682  13.810
23941W        W89201  31.533  40.485  11.135
23942W        W89202  32.143  25.179   0.942
23943W        W89203  41.673  12.507   5.088
23944W        W89204  19.171  20.671  11.622
23945W        W89205  43.392   9.745   5.512
23946W        W89206  32.123  13.868   4.343
23947W        W89207  12.269  22.073   2.697
23948W        W89208  44.303   4.655  10.068
23949W        W89209  26.165  24.023  10.753
23950W        W89210  15.262   2.530  12.342
23951W        W89211  16.801  41.785   4.775
23952W        W89212  13.375  29.006  14.727
23953W        W89213  30.141  29.590   4.562
23954W        W89214  36.031   6.872   4.318
23955W        W89215  19.724  11.058   1.077
23956W        W89216  32.224  14.180   3.044
23957W        W89217  30.170  30.198  14.809
23958W        W89218   8.060  21.678  11.734
23959W        W89219  30.785  37.138   4.220
23960W        W89220  13.039  30.502  10.668
23961W        W89221   3.874  29.556  14.741
23962W        W89222  31.464  24.199  11.578
23963W        W89223  18.259  16.833  14.542
23964W        W89224   9.870  31.518   1.735
23965W        W89225  11.278  14.223  14.036
23966W        W89226   5.257   6.449   0.715
23967W        W89227  37.416  26.382  12.540
23968W        W89228   1.286  31.852   1.433
23969W        W89229  20.903  36.356  13.342
23970W        W89230   8.967  34.996  12.518
23971W        W89231   2.527  40.997   3.289
23972W        W89232  19.831  18.178   2.809
23973W        W89233  14.095  39.980   3.697
23974W        W89234  38.753  28.857  13.473
23975W        W89235  44.347  38.727  10.239
23976W        W89236  13.742  29.953  13.564
23977W        W89237  27.038  42.504   1.416
23978W        W89238  43.734  18.601  12.881
23979W        W89239   1.438  19.218   3.262
23980W        W89240  25.994  18.995  13.519
23981W        W89241  31.945  36.537  14.763
23982W        W89242  24.023  36.821  12.316
23983W        W89243   5.184  11.312  11.652
23984W        W89244   2.250  24.677   1.503
23985W        W89245  38.224  32.142   4.909
23986W        W89246  42.810  36.967   3.338
23987W        W89247  14.619  17.423  13.325
23988W        W89248  20.228   4.367   2.824
23989W        W89249  10.345  34.866  11.414
23990W        W89250  28.568  24.983   4.602
23991W        W89251  43.921  27.636  12.718
23992W        W89252   3.505  23.076  13.548
23993W        W89253  19.550  17.716   1.508
23994W        W89254  21.014  29.095   2.807
23995W        W89255  12.281  17.543  12.078
23996W        W89256   8.309   6.351   0.245
23997W        W89257  37.047  30.783  13.487
23998W        W89258  23.307  14.241   2.231
23999W        W89259  20.795  25.010   0.246
24000W        W89260  38.452   5.946   2.431
24001W        W89261  31.177   5.944  13.058
24002W        W89262  34.029  34.477  14.318
24003W        W89263   5.004   8.220   0.575
24004W        W89264  42.223  30.519  12.418
24005W        W89265  19.289   1.318   2.364
24006W        W89266  34.861  21.471  13.544
24007W        W89267  30.569  14.010  13.197
24008W        W89268   2.180  27.405   4.131
24009W        W89269   2.890  32.442  12.552
24010W        W89270  38.387  18.509   4.187
24011W        W89271   2.626  27.383   1.692
24012W        W89272  31.596  11.750   0.988
24013W        W89273  41.491  19.921   2.795
24014W        W89274   1.527   6.632   2.507
24015W        W89275  21.040   6.000   1.437
24016W        W89276  29.397  16.368  14.782
24017W        W89277  15.728  12.733   4.510
24018W        W89278   5.626  40.593  12.124
24019W        W89279  32.641  26.697   4.034
24020W        W89280  13.110  20.269  14.430
24021W        W89281  23.609  12.080   4.125
24022W        W89282  25.722   1.222   1.655
24023W        W89283  39.614  21.871   2.419
24024W        W89284  30.015  19.772   0.709
24025W        W89285  27.537  26.389   1.728
24026W        W89286   4.565   8.154  11.367
24027W        W89287  23.555  41.252  13.751
24028W        W89288   8.603   8.294   0.811
24029W        W89289  31.120  27.071  14.491
24030W        W89290   3.953   6.259   3.713
24031W        W89291  44.486  15.645   1.761
24032W        W89292  29.655  17.099   1.214
24033W        W89293   3.641   3.198  14.363
24034W        W89294  19.409  34.927   4.998
24035W        W89295  27.703  36.239   1.617
24036W        W89296  29.975  22.268   1.727
24037W        W89297  42.986  27.865   3.252
24038W        W89298  26.600  30.361   2.788
24039W        W89299  10.413   3.943  14.446
24040W        W89300  23.270  26.687   3.162
24041W        W89301  42.718  26.888  14.783
24042W        W89302   8.365  23.442   2.244
24043W        W89303  12.631  34.087  11.208
24044W        W89304  40.471  15.252   3.552
24045W        W89305  26.632  12.286  14.877
24046W        W89306   2.487  29.706   2.733
24047W        W89307  34.611   3.288  12.493
24048W        W89308  37.541  31.473  12.863
24049W        W89309  36.921   2.730  14.396
24050W        W89310  33.116  33.419  11.463
24051W        W89311  10.176  29.135  11.279
24052W        W89312  35.852  26.870  11.433
24053W        W89313  35.507  40.443   1.574
24054W        W89314  19.152  19.148   0.791
24055W        W89315  19.362  18.642  12.823
24056W        W89316   1.471   4.880  14.764
24057W        W89317  16.794   3.490   4.148
24058W        W89318  44.431  40.434   1.677
24059W        W89319  18.562  38.965  12.604
24060W        W89320  23.512  18.521   2.742
24061W        W89321   8.245  41.983  11.076
24062W        W89322  34.154  34.434   1.352
24063W        W89323   2.845  16.312  10.742
24064W        W89324  43.932  34.331   2.448
24065W        W89325  25.082  39.513   0.216
24066W        W89326  26.895   2.910   0.740
24067W        W89327  35.399   6.801  11.058
24068W        W89328  35.148  30.717  13.460
24069W        W89329  11.902  28.514   4.615
24070W        W89330  37.915  42.151   1.165
24071W        W89331  27.430  11.703   2.426
24072W        W89332  22.139  20.977   4.650
24073W        W89333  18.560   6.659  11.618
24074W        W89334  44.306   4.958   3.241
24075W        W89335  24.186  13.949  13.723
24076W        W89336  36.517  33.052   2.297
24077W        W89337  18.888  31.942  14.617
24078W        W89338  23.857   1.842   4.652
24079W        W89339  26.997  43.351  13.054
24080W        W89340   6.315  36.684  11.152
24081W        W89341  22.214  31.054   0.654
24082W        W89342  30.968   9.597   4.779
24083W        W89343  28.598  38.835   3.872
24084W        W89344  15.596  34.398  13.984
24085W        W89345  43.356  14.253   0.246
24086W        W89346  44.903  39.601  10.734
24087W        W89347   1.725   2.424  12.108
24088W        W89348  36.599  33.514   0.392
24089W        W89349  18.914  28.070  11.987
24090W        W89350  38.263  41.366   3.130
24091W        W89351  31.552  29.919  10.603
24092W        W89352  44.324  36.118  12.968
24093W        W89353  21.651  27.172  14.152
24094W        W89354   0.774  16.193   4.156
24095W        W89355  26.800   2.229  11.480
24096W        W89356  43.231  36.511   2.778
24097W        W89357  37.661   6.203   0.036
24098W        W89358  12.772  28.640   0.384
24099W        W89359  37.382  34.905  12.613
24100W        W89360  25.565   5.289  12.416
24101W        W89361  14.281   5.528   3.664
24102W        W89362  29.048   6.198  11.583
24103W        W89363   1.915   3.669   3.294
24104W        W89364  32.395  14.839   0.583
24105W        W89365  15.841  37.365   0.583
24106W        W89366  30.503  18.563  12.561
24107W        W89367  25.233  43.928  10.899
24108W        W89368  30.678  31.872   3.302
24109W        W89369  33.657  16.806   2.701
24110W        W89370  38.503  15.347   1.807
24111W        W89371  16.519   0.992   2.664
24112W        W89372  20.985  43.374   1.318
24113W        W89373   6.970  43.505   3.659
24114W        W89374   7.312  10.746   3.704
24115W        W89375  33.395  35.003   0.974
24116W        W89376   9.896  34.147  12.207
24117W        W89377  43.911  23.667  14.989
24118W        W89378  38.884  15.070   4.104
24119W        W89379  21.241  19.662  13.000
24120W        W89380  19.537  31.491  11.223
24121W        W89381   3.059  29.860  14.289
24122W        W89382   3.218  19.721  13.400
24123W        W89383  33.571   4.735  11.883
24124W        W89384   8.171  28.224  12.237
24125W        W89385  22.539   2.320   0.508
24126W        W89386  37.134  31.527  13.766
24127W        W89387   1.799   9.114  14.114
24128W        W89388   0.146   0.841   4.356
24129W        W89389   9.678  29.857   1.927
24130W        W89390   8.796  36.559   1.724
24131W        W89391  44.819  19.081   2.913
24132W        W89392  21.779   0.881   0.882
24133W        W89393  17.265   1.253   1.414
24134W        W89394  18.619   7.993   3.141
24135W        W89395  44.296   2.223  13.868
24136W        W89396   2.352  27.890   4.110
24137W        W89397  28.635  36.590   1.237
24138W        W89398  40.330  18.576  14.483
24139W        W89399   1.300  40.228   4.260
24140W        W89400  35.020  33.700   3.342
24141W        W89401  33.236   5.287  14.341
24142W        W89402  18.263  31.502   3.065
24143W        W89403  15.822  44.524  12.549
24144W        W89404  15.486  13.117   1.862
24145W        W89405   2.040  24.247   4.542
24146W        W89406   8.731  35.672   3.744
24147W        W89407  26.318   4.279   5.382
24148W        W89408  36.345   7.165   4.005
24149W        W89409   8.293  29.956   0.287
24150W        W89410  36.402  39.826   2.664
24151W        W89411  16.811   6.584  14.819
24152W        W89412  22.720   9.170   0.383
24153W        W89413  21.390  23.014   3.116
24154W        W89414  34.010  35.917   4.528
24155W        W89415  39.807  23.746   1.913
24156W        W89416   8.620  40.250   3.741
24157W        W89417  11.029  19.527  11.151
24158W        W89418  40.835  16.401   3.294
24159W        W89419  44.229  11.586   2.010
24160W        W89420   8.113  12.142   1.245
24161W        W89421  29.911  44.862   4.149
24162W        W89422  39.485  36.021   1.284
24163W        W89423  23.548  10.546   3.236
24164W        W89424  30.546  35.026  11.012
24165W        W89425  26.121  35.686   5.679
24166W        W89426  40.984  23.125   3.397
24167W        W89427   9.428  22.560  10.452
24168W        W89428  25.922   6.041   1.290
24169W        W89429  11.583  35.150   4.091
24170W        W89430  22.488  25.675   4.663
24171W        W89431  44.528  14.332   2.047
24172W        W89432  44.284  31.053   2.195
24173W        W89433  10.114  31.460  13.342
24174W        W89434  30.638  18.250   2.347
24175W        W89435  31.489  24.262   1.308
24176W        W89436  23.619  44.485  10.660
24177W        W89437  33.405  28.217  10.932
24178W        W89438  25.831  27.654  10.323
24179W        W89439   6.196  22.772  11.285
24180W        W89440  44.513  29.647   0.165
24181W        W89441  34.105   7.477   3.126
24182W        W89442  36.397  42.250   2.629
24183W        W89443  26.131  21.355  10.825
24184W        W89444  29.540  32.610   2.275
24185W        W89445  34.551   9.830   2.201
24186W        W89446  11.840  37.998   3.236
24187W        W89447  21.314  44.490  13.608
24188W        W89448  26.088  21.576  11.279
24189W        W89449  25.017  30.258  10.767
24190W        W89450  10.112  12.261   4.370
24191W        W89451  13.204  40.830  13.573
24192W        W89452  36.046  31.633  10.395
24193W        W89453  11.654  26.435   1.986
24194W        W89454  22.141  33.542   3.725
24195W        W89455   9.028   9.771   4.124
24196W        W89456  20.490   4.273   3.975
24197W        W89457  33.241  29.433  11.786
24198W        W89458  36.836  21.519  12.954
24199W        W89459  36.323  27.150   4.114
24200W        W89460   9.641  28.757   0.491
24201W        W89461  41.363  29.413   3.181
24202W        W89462   1.543  13.620  11.141
24203W        W89463   1.292   2.281   4.226
24204W        W89464  16.516  22.138   3.896
24205W        W89465  14.288  21.720  12.559
24206W        W89466  41.531  27.943   4.442
24207W        W89467  27.966   8.280   0.460
24208W        W89468  14.556   5.100   2.400
24209W        W89469  28.519  40.297   2.729
24210W        W89470  17.235  33.129  10.306
24211W        W89471  37.490  28.250  13.952
24212W        W89472  41.929  38.947   4.643
24213W        W89473  24.496  26.921  12.399
24214W        W89474  33.348  21.147   2.176
24215W        W89475  21.006  41.574   3.157
24216W        W89476  18.637  11.619  14.802
24217W        W89477  13.266  28.111  14.590
24218W        W89478  17.314  22.175  13.930
24219W        W89479  11.712  34.494  11.901
24220W        W89480   4.942  23.753  12.875
24221W        W89481  33.879  22.626  13.455
24222W        W89482  28.967  18.115   3.335
24223W        W89483  38.639  10.601  13.466
24224W        W89484  38.507  36.369   1.184
24225W        W89485  44.290  19.439  14.542
24226W        W89486  21.812  29.154  14.071
24227W        W89487  19.172  21.715  13.331
24228W        W89488  11.691  34.633   4.093
24229W        W89489  30.202  30.428  10.285
24230W        W89490  35.570  42.781  13.071
24231W        W89491  43.510  28.674   3.657
24232W        W89492  14.433  19.713   3.236
24233W        W89493  20.152  16.532   1.967
24234W        W89494  44.204   0.372  13.469
24235W        W89495   9.691  34.478   1.383
24236W        W89496  11.254  26.348   0.821
24237W        W89497  13.433   8.622  12.008
24238W        W89498  14.707  27.987   4.741
24239W        W89499   1.965   2.682   0.434
24240W        W89500  42.564   3.686  12.896
24241W        W89501  40.611  40.889  14.702
24242W        W89502  10.180  31.615   2.161
24243W        W89503  10.760  29.352   9.685
24244W        W89504  42.020   2.023   2.751
24245W        W89505  44.772  33.117  13.268
24246W        W89506  37.530  38.287  14.227
24247W        W89507  44.444  43.539  11.672
24248W        W89508   9.436  33.996   1.583
24249W        W89509   3.246  41.381   3.372
24250W        W89510  23.492  15.578  12.070
24251W        W89511   5.178  44.265  12.623
24252W        W89512   4.245  42.958   4.688
24253W        W89513   0.271  18.287   0.312
24254W        W89514  33.536  27.368  14.484
24255W        W89515  15.312  28.679   3.583
24256W        W89516  19.158  18.661  10.082
24257W        W89517  15.548   4.499  14.705
24258W        W89518   2.644  30.515   0.370
24259W        W89519  11.154  35.817  11.121
24260W        W89520  12.738  35.070   1.963
24261W        W89521   9.492  41.818  14.693
24262W        W89522  37.468  44.040   0.382
24263W        W89523  35.473  41.985   4.827
24264W        W89524  16.241  19.425  13.447
24265W        W89525  13.128  17.231  14.030
24266W        W89526  43.992  12.926   1.661
24267W        W89527  19.017  15.402   2.868
24268W        W89528  28.451  20.073   4.561
24269W        W89529  31.178   8.478   5.052
24270W        W89530  35.459  30.213  11.506
24271W        W89531  25.212   3.838  14.358
24272W        W89532  19.862  41.922   0.365
24273W        W89533  25.120  27.134   4.562
24274W        W89534  33.949  23.655  12.445
24275W        W89535  11.878  29.783   1.392
24276W        W89536  10.307  40.095   4.634
24277W        W89537   9.303  18.848   3.411
24278W        W89538  10.101  34.320  11.304
24279W        W89539  31.738  34.330  10.578
24280W        W89540  22.618  44.131  11.170
24281W        W89541  14.139   5.117  13.513
24282W        W89542  37.382  14.648   0.906
24283W        W89543  24.320   1.485   1.795
24284W        W89544   0.939  37.795   1.218
24285W        W89545  41.202  18.303  10.992
24286W        W89546  39.306   5.931   2.405
24287W        W89547   2.211   5.726  13.921
24288W        W89548   5.722  12.944  11.119
24289W        W89549  27.328  12.847   1.013
24290W        W89550   1.370  17.071  12.142
24291W        W89551   3.944   8.706   0.725
24292W        W89552  26.187   2.315   0.245
24293W        W89553  33.384  30.951   4.029
24294W        W89554  43.973  19.371  10.775
24295W        W89555  26.055  42.734  14.394
24296W        W89556   8.587  35.185  11.224
24297W        W89557  28.365   8.777   4.129
24298W        W89558  21.631  32.986  10.422
24299W        W89559  21.489   3.170  12.352
24300W        W89560  35.984  23.593   0.217
24301W        W89561  16.942  36.054   3.523
24302W        W89562  25.934  10.738   3.988
24303W        W89563  31.884  34.327  11.950
24304W        W89564  21.665  26.707   2.673
24305W        W89565  11.409  23.533  11.477
24306W        W89566  34.052  28.470   4.408
24307W        W89567  23.648   2.261  14.046
24308W        W89568  34.103  13.495  12.859
24309W        W89569  31.016  12.501   2.380
24310W        W89570  15.486  10.113   0.490
24311W        W89571  35.169  18.370  11.194
24312W        W89572  20.790   2.766   1.947
24313W        W89573  38.784  33.778  12.441
24314W        W89574  33.928   7.280  11.586
24315W        W89575  41.445  28.074  10.650
24316W        W89576  21.779  10.608   4.250
24317W        W89577  25.929   6.354  13.126
24318W        W89578   6.659  35.556  14.287
24319W        W89579  27.212   1.410  14.907
24320W        W89580  38.807  38.641   3.885
24321W        W89581  12.866  38.827  14.021
24322W        W89582  29.712  25.543  12.879
24323W        W89583  19.303  11.321   2.290
24324W        W89584  42.820  21.830   1.757
24325W        W89585   6.485  22.649   5.207
24326W        W89586  43.481  10.741  10.300
24327W        W89587  35.475   6.139  13.779
24328W        W89588  22.947   9.158   5.168
24329W        W89589  41.483  30.247  11.587
24330W        W89590  29.730  26.072  12.465
24331W        W89591   6.121  27.151  10.731
24332W        W89592  19.776  22.111   2.201
24333W        W89593  36.129   9.703   2.920
24334W        W89594  38.654  41.986   1.804
24335W        W89595   1.094  23.153  10.736
24336W        W89596  15.176  20.181  12.673
24337W        W89597   0.839  36.990   3.175
24338W        W89598  35.759   4.334  12.354
24339W        W89599  44.349  13.277  12.384
24340W        W89600  23.749  31.979  13.313
24341W        W89601   6.282   4.481  10.909
24342W        W89602  37.379   7.422  14.412
24343W        W89603  36.500  14.317  12.531
24344W        W89604  41.859  15.776  10.727
24345W        W89605  24.868   2.397   0.279
24346W        W89606  15.769  42.753  11.046
24347W        W89607  11.858  19.296  13.353
24348W        W89608  12.069  29.092   2.101
24349W        W89609  41.554  44.521  14.121
24350W        W89610  43.108  28.253   0.384
24351W        W89611   9.918  36.021   2.390
24352W        W89612  12.013  38.395   2.892
24353W        W89613  29.644   7.073   1.559
24354W        W89614   7.421  31.138  11.416
24355W        W89615  13.182  23.712   4.680
24356W        W89616   6.712  13.832  11.557
24357W        W89617  22.699   5.961   1.725
24358W        W89618   4.246   3.307  12.083
24359W        W89619  29.848  41.404   2.062
24360W        W89620  38.011   4.053  13.364
24361W        W89621  43.035  16.839   3.569
24362W        W89622  17.522  14.068  12.528
24363W        W89623  41.487   7.593  14.369
24364W        W89624  17.670   8.318  14.073
24365W        W89625  30.099  35.341   1.140
24366W        W89626  40.792  44.502   4.031
24367W        W89627  35.798  13.564  14.905
24368W        W89628  14.035  13.162  12.996
24369W        W89629   8.755   8.353   4.529
24370W        W89630  36.115  10.620   2.440
24371W        W89631  29.608   6.275   1.432
24372W        W89632  36.917  43.612   1.296
24373W        W89633  11.721   4.242  12.337
24374W        W89634  41.362   0.380  14.063
24375W        W89635   4.027  19.582  14.831
24376W        W89636  33.391  33.850  12.476
24377W        W89637   7.853   7.463   3.726
24378W        W89638  21.475  35.186  12.010
24379W        W89639  32.696  24.428  12.882
24380W        W89640  31.667  27.993  11.506
24381W        W89641  41.894  27.364  12.643
24382W        W89642  37.866  15.916   2.011
24383W        W89643  24.525  40.927  13.591
24384W        W89644  27.593  37.024  14.711
24385W        W89645   0.710   8.794  11.886
24386W        W89646  18.591  29.498   1.892
24387W        W89647  44.982  39.836  14.285
24388W        W89648  42.462   9.542  12.048
24389W        W89649  20.078  42.022  13.212
24390W        W89650  24.120  12.788  13.306
24391W        W89651  31.946  15.109  12.967
24392W        W89652  14.266  12.563   2.330
24393W        W89653  40.981  11.279  13.806
24394W        W89654  22.524  23.491  12.760
24395W        W89655  10.553  25.900  14.051
24396W        W89656  35.978  42.968   3.210
24397W        W89657  24.999  41.855  10.970
24398W        W89658   6.604  33.467  11.990
24399W        W89659  14.867  27.571  12.917
24400W        W89660  21.653   2.490  13.597
24401W        W89661  36.184  40.067  14.044
24402W        W89662  18.653  30.463  10.027
24403W        W89663   8.083  19.568  11.546
24404W        W89664   4.434  20.904  11.748
24405W        W89665  13.929  11.436  11.154
24406W        W89666  12.035  44.360  12.990
24407W        W89667  28.229  40.039  11.093
24408W        W89668  13.721  42.111   3.714
24409W        W89669   9.966   2.944  11.475
24410W        W89670  25.419  14.335  12.391
24411W        W89671   7.419  19.141  14.968
24412W        W89672  13.609   9.045  14.889
24413W        W89673  21.742  14.392   1.416
24414W        W89674  30.075   7.236   2.161
24415W        W89675  17.271   0.441   3.150
24416W        W89676  10.929   4.204   9.854
24417W        W89677  14.116  10.263  12.981
24418W        W89678  33.112  10.682  11.511
24419W        W89679  21.031  34.616   4.221
24420W        W89680   4.464  35.890   3.124
24421W        W89681  42.035  41.053  10.486
24422W        W89682   9.304  37.991  12.097
24423W        W89683  20.745  30.307  14.259
24424W        W89684   8.716  36.337   4.152
24425W        W89685  15.629  30.488  14.821
24426W        W89686  18.597   7.117   1.957
24427W        W89687  25.495  18.070  14.437
24428W        W89688  32.172   1.661   3.705
24429W        W89689  13.782   9.641  11.613
24430W        W89690  10.910  10.623   4.115
24431W        W89691   6.224  23.577  10.789
24432W        W89692  22.409  11.345  13.296
24433W        W89693  37.776  18.517   2.350
24434W        W89694  21.581  34.077  11.012
24435W        W89695   9.753  42.407   4.122
24436W        W89696   9.848  43.834   3.731
24437W        W89697  38.212  11.637   1.917
24438W        W89698  18.129  43.309  13.948
24439W        W89699  27.001   5.869  13.983
24440W        W89700   4.431  40.431  10.585
24441W        W89701  43.998  20.252   1.227
24442W        W89702  43.243  22.655   2.353
24443W        W89703  13.809  23.107   0.305
24444W        W89704  41.809  11.170   1.436
24445W        W89705  11.850  26.293  11.665
24446W        W89706  28.642  28.412  14.116
24447W        W89707  42.975  23.951   3.652
24448W        W89708  11.745  22.229   2.879
24449W        W89709  26.928  26.435  12.959
24450W        W89710   2.026  34.688  14.378
24451W        W89711  16.044  18.135   1.332
24452W        W89712  42.281  29.482   4.262
24453W        W89713   5.393  34.502   4.920
24454W        W89714  24.655  11.814   2.154
24455W        W89715  36.049  41.159   2.966
24456W        W89716  22.695   9.078  12.041
24457W        W89717  16.261  11.055   4.935
24458W        W89718  36.146  24.471   0.823
24459W        W89719   6.782  16.919   4.574
24460W        W89720  14.072   2.261  11.097
24461W        W89721  39.332  43.946   0.862
24462W        W89722  40.380  22.787  13.901
24463W        W89723  11.429  40.061  14.798
24464W        W89724   3.350   2.710  12.394
24465W        W89725  31.172  35.868   4.639
24466W        W89726  27.311  32.897   0.693
24467W        W89727  10.804   7.138  14.890
24468W        W89728  13.646  21.939   4.736
24469W        W89729  22.620  12.064  13.852
24470W        W89730  27.954  32.287   3.881
24471W        W89731   9.645   9.297  13.445
24472W        W89732  16.620  19.261  14.133
24473W        W89733  32.836   3.392   2.890
24474W        W89734  28.051  38.540   4.472
24475W        W89735  38.896  34.471  12.065
24476W        W89736  10.893   5.935   3.223
24477W        W89737  40.016  41.414  12.996
24478W        W89738  33.484  26.329  11.227
24479W        W89739  14.659   5.643  12.886
24480W        W89740  29.983   5.955  13.092
24481W        W89741   6.845  18.236  13.781
24482W        W89742  22.712  40.772  11.526
24483W        W89743  23.004   6.877   3.536
24484W        W89744  14.056  43.517  11.589
24485W        W89745  34.856  23.994  13.936
24486W        W89746  44.410  10.814  11.504
24487W        W89747  17.522  40.108   1.420
24488W        W89748  25.013  40.448   4.716
24489W        W89749  31.353  29.930   4.177
24490W        W89750  17.541  11.027   2.702
24491W        W89751  19.468   6.116  14.983
24492W        W89752  43.341   0.797  13.099
24493W        W89753   2.958   4.455  14.447
24494W        W89754  24.688  18.366   0.376
24495W        W89755   2.475   0.606   0.415
24496W        W89756   7.472  21.830   2.662
24497W        W89757  39.474  30.566  11.869
24498W        W89758  22.064  42.379  11.083
24499W        W89759  18.230  14.845  14.508
24500W        W89760  21.660  37.964   0.362
24501W        W89761  15.993  17.269  13.263
24502W        W89762   9.521  27.496   1.840
24503W        W89763   1.702   2.652   3.403
24504W        W89764   7.315  17.811  13.590
24505W        W89765  41.095  28.441  12.478
24506W        W89766   7.238   8.927   0.804
24507W        W89767  32.529  44.002  12.386
24508W        W89768  38.343  33.488   3.222
24509W        W89769   4.461  34.010  11.156
24510W        W89770   8.682   5.581   1.266
24511W        W89771  33.100  11.899   2.232
24512W        W89772  17.312  40.405   3.252
24513W        W89773  44.553  22.054   2.260
24514W        W89774  11.865  10.669  13.066
24515W        W89775  26.708  28.536  10.429
24516W        W89776  18.833  34.456  10.817
24517W        W89777  28.464  39.630  11.912
24518W        W89778  40.835  23.329   3.863
24519W        W89779  37.080  23.511   2.785
24520W        W89780  15.175  32.370   4.055
24521W        W89781  11.427  28.589   3.696
24522W        W89782   4.007   4.448  11.603
24523W        W89783   4.296   7.130  11.684
24524W        W89784  42.585  33.410   1.923
24525W        W89785  28.679  10.242   0.148
24526W        W89786  41.876  36.917  12.329
24527W        W89787   6.478   5.051   3.393
24528W        W89788  29.465  38.011  13.013
24529W        W89789  19.161   1.994  12.141
24530W        W89790  17.304  15.924  10.990
24531W        W89791  30.354  37.982  12.551
24532W        W89792  42.276  27.668   3.659
24533W        W89793   3.193  38.252  10.708
24534W        W89794  28.443  35.869   3.610
24535W        W89795  30.726  29.665  11.081
24536W        W89796  42.429  41.553   4.521
24537W        W89797  33.477  10.935  12.471
24538W        W89798  21.756   3.422  10.911
24539W        W89799   4.912   9.449   1.872
24540W        W89800  42.446  17.851   1.320
24541W        W89801  38.062   4.000   4.678
24542W        W89802  17.617  43.741   1.950
24543W        W89803  36.905  35.600  11.672
24544W        W89804  11.815  37.458   2.304
24545W        W89805   0.935  12.549  11.503
24546W        W89806  23.690  42.468   4.401
24547W        W89807   1.401  23.247   0.253
24548W        W89808  16.734  17.211   0.524
24549W        W89809  43.525  39.880   2.570
24550W        W89810  24.077  14.892  13.927
24551W        W89811  44.441   5.488   1.449
24552W        W89812  31.771   1.995   3.828
24553W        W89813  36.392   0.065   2.738
24554W        W89814  33.103   8.314   3.588
24555W        W89815  30.582  32.680   1.806
24556W        W89816   4.558  11.840   0.309
24557W        W89817  14.636  42.510  11.501
24558W        W89818   4.229   0.260   2.017
24559W        W89819   3.725  13.646  12.436
24560W        W89820  35.937  30.076  14.399
24561W        W89821   6.039  20.734   4.555
24562W        W89822   6.476  23.719  14.845
24563W        W89823  13.787   4.271   0.713
24564W        W89824  33.290   1.813  11.494
24565W        W89825  30.820   5.127   3.353
24566W        W89826  26.100   7.324   1.691
24567W        W89827  19.020   3.150  14.491
24568W        W89828  24.065  19.731   2.653
24569W        W89829  17.534  26.448   5.050
24570W        W89830  34.353  41.657  13.349
24571W        W89831   4.892   7.849   2.377
24572W        W89832  21.463  33.039   4.038
24573W        W89833  41.066  28.674  11.204
24574W        W89834  18.723  38.370  11.900
24575W        W89835  33.785  38.479  13.268
24576W        W89836   3.278  25.115  13.049
24577W        W89837  26.471  17.575  11.554
24578W        W89838  38.394  16.381   4.760
24579W        W89839   0.653  39.279  14.445
24580W        W89840  35.131   6.757  13.168
24581W        W89841  22.633  11.425  10.721
24582W        W89842  10.237  32.633   2.299
24583W        W89843  40.537  10.729  11.968
24584W        W89844  16.537   3.516  12.434
24585W        W89845  13.531  26.298  14.345
24586W        W89846  22.890   6.435   0.905
24587W        W89847  31.083  10.607   0.933
24588W        W89848   7.260  20.576  14.912
24589W        W89849  16.383  15.652  14.482
24590W        W89850   5.302  26.657  13.897
24591W        W89851   9.014  43.393  12.567
24592W        W89852  36.341  33.715  11.496
24593W        W89853   4.353  23.699   0.877
24594W        W89854   2.416  16.705   3.751
24595W        W89855  23.788   1.625  11.069
24596W        W89856  17.192  19.356   1.722
24597W        W89857   0.554  43.002   4.039
24598W        W89858  29.169  20.992   5.016
24599W        W89859   8.723  18.809  12.529
24600W        W89860  11.918  11.295   2.379
24601W        W89861  31.037  37.477   0.380
24602W        W89862  23.607   9.460  11.045
24603W        W89863  42.996  25.512   2.728
24604W        W89864   0.899  33.581   3.153
24605W        W89865  44.751  21.032   0.915
24606W        W89866  43.859  14.659   5.493
24607W        W89867  22.005  44.200   1.184
24608W        W89868  16.420   9.063   0.344
24609W        W89869  34.538  29.712   3.372
24610W        W89870  25.693  24.988  13.314
24611W        W89871  31.941  36.029  10.830
24612W        W89872  43.797  18.270  12.106
24613W        W89873  34.486  16.763   2.389
24614W        W89874  32.412  28.392   3.641
24615W        W89875  18.541  29.923  11.371
24616W        W89876  22.096  17.202  14.294
24617W        W89877  21.743  35.420  11.656
24618W        W89878  24.509   2.496  12.905
24619W        W89879  39.490  22.425   4.838
24620W        W89880  13.292  16.090   1.361
24621W        W89881  22.246   0.697   0.725
24622W        W89882   0.789   6.258   0.937
24623W        W89883  38.871  32.794  13.114
24624W        W89884  42.882  37.111   1.885
24625W        W89885   8.663  33.898  11.680
24626W        W89886  26.207   3.176  10.653
24627W        W89887  29.084  23.231  12.381
24628W        W89888  23.178  24.016  10.830
24629W        W89889  30.184  25.941   3.642
24630W        W89890  27.452  31.731   2.186
24631W        W89891  39.353  20.261   4.847
24632W        W89892  42.097  12.221  14.370
24633W        W89893  17.864  16.631  11.628
24634W        W89894  12.201  36.978   4.597
24635W        W89895  20.694  19.050   4.577
24636W        W89896  28.031   1.740  11.704
24637W        W89897  22.615  42.302   4.218
24638W        W89898  40.069  21.031  11.237
24639W        W89899  25.007   8.908  13.870
24640W        W89900   3.959  10.931   0.739
24641W        W89901  20.583   8.558  10.774
24642W        W89902  24.512  16.311   9.933
24643W        W89903  13.792  27.450   5.501
24644W        W89904  18.220  40.451   4.339
24645W        W89905  17.241  21.102   0.512
24646W        W89906  13.646  38.243   4.751
24647W        W89907   3.804  15.560  14.673
24648W        W89908  21.439  22.434  12.504
24649W        W89909  35.875   2.188   1.720
24650W        W89910   2.914  28.262   1.862
24651W        W89911  24.103  28.856  14.444
24652W        W89912  21.944  32.362   1.253
24653W        W89913  24.567  29.896  12.927
24654W        W89914  14.181  35.877   4.206
24655W        W89915  20.090   1.969  12.938
24656W        W89916   3.939  40.364  10.750
24657W        W89917  20.856  34.006  11.647
24658W        W89918  22.947   9.351   1.954
24659W        W89919  36.596   8.447  12.944
24660W        W89920  28.114   2.820   1.752
24661W        W89921   9.617   0.068   1.195
24662W        W89922   7.405  13.196  11.492
24663W        W89923  33.992  33.158  13.513
24664W        W89924  20.085  44.036   4.644
24665W        W89925  35.875  39.072  12.086
24666W        W89926   4.892  40.711   2.643
24667W        W89927  25.475  15.040  13.029
24668W        W89928  43.661  24.677   4.118
24669W        W89929  44.590  30.069  12.490
24670W        W89930  22.562  44.300  13.037
24671W        W89931  33.597  25.009  13.114
24672W        W89932  12.855  22.320   2.173
24673W        W89933  31.537  13.696   2.610
24674W        W89934  26.244   2.920   3.672
24675W        W89935  39.733  36.902   0.921
24676W        W89936   6.731  16.007   1.177
24677W        W89937  27.810  42.788   2.272
24678W        W89938  17.546   3.055  10.546
24679W        W89939  19.140  17.256   2.818
24680W        W89940   7.123   2.027   0.281
24681W        W89941  19.545   6.805   4.151
24682W        W89942  12.804  43.998  11.094
24683W        W89943   3.512  10.678  13.300
24684W        W89944   9.271  15.416  10.544
24685W        W89945  23.090  40.302   4.633
24686W        W89946   0.768  12.399  14.031
24687W        W89947  19.154  34.590   1.854
24688W        W89948  13.658  38.407  12.051
24689W        W89949  19.223   7.744   1.746
24690W        W89950  11.649  39.672  11.493
24691W        W89951  17.619  25.427   0.328
24692W        W89952   3.978  40.835  12.611
24693W        W89953  37.872  11.674  13.857
24694W        W89954  41.853  18.138   1.845
24695W        W89955   1.282   8.542   4.834
24696W        W89956   6.940  28.431   2.656
24697W        W89957  19.791  14.901  12.005
24698W        W89958  12.286  17.530  14.972
24699W        W89959  12.420  10.759  10.965
24700W        W89960  27.001   6.748  14.717
24701W        W89961  29.178   7.185  11.614
24702W        W89962   6.712   0.120   0.318
24703W        W89963  34.390   7.136   1.394
24704W        W89964  36.493   6.690   3.237
24705W        W89965  15.230  10.209  13.607
24706W        W89966  13.863  38.432   0.488
24707W        W89967  34.345  44.638  14.056
24708W        W89968   0.390  29.486   3.113
24709W        W89969  22.970   2.366  10.266
24710W        W89970   4.845  39.559   3.637
24711W        W89971  34.523   1.194  10.705
24712W        W89972  39.042  10.285   4.721
24713W        W89973  11.662  21.181   4.487
24714W        W89974  25.949  23.316   0.393
24715W        W89975  22.507  18.347   1.820
24716W        W89976  30.534   7.879   1.067
24717W        W89977  37.600  18.682   3.162
24718W        W89978   8.398   4.381  14.802
24719W        W89979  20.458   9.112   3.607
24720W        W89980  29.084  14.050  14.559
24721W        W89981  39.325   5.132   4.151
24722W        W89982   4.796  18.041   1.307
24723W        W89983   9.493  32.175   0.260
24724W        W89984  38.101  30.645   0.451
24725W        W89985   1.263  34.659  14.840
24726W        W89986  25.052  10.704  14.423
24727W        W89987   7.790  23.017  14.409
24728W        W89988  38.348  44.698  10.711
24729W        W89989  43.063  19.765  14.786
24730W        W89990  13.013  30.863   2.418
24731W        W89991  37.559  41.751   0.408
24732W        W89992  12.276  42.968  14.490
24733W        W89993   4.359   8.983  14.790
24734W        W89994  20.229  26.898   1.886
24735W        W89995  28.695   6.057  10.817
24736W        W89996  18.251  36.939   5.024
24737W        W89997  38.416  36.031   2.801
24738W        W89998  17.566  26.803   1.801
24739W        W89999  23.149  12.190  10.759
24740W        W90000  40.917   9.066   3.202
24741W        W90001  18.603  38.972   5.065
24742W        W90002  18.356  25.714  12.308
24743W        W90003  27.481  17.224   2.714
24744W        W90004  16.293  30.604  12.385
24745W        W90005  42.267   7.805   3.295
24746W        W90006  40.998  21.704  11.884
24747W        W90007  20.200  35.452   3.704
24748W        W90008   7.934  20.299  10.977
24749W        W90009   7.919   1.379   2.406
24750W        W90010  12.867  26.662   3.593
24751W        W90011  12.188  36.473   2.377
24752W        W90012   8.575   5.049   0.492
24753W        W90013   0.368  10.400  13.317
24754W        W90014  16.747   7.087  11.294
24755W        W90015  25.211   1.886   3.134
24756W        W90016  30.934  20.017  13.088
24757W        W90017  26.755  24.890   4.804
24758W        W90018  37.116  19.223  10.534
24759W        W90019  21.688   0.274   4.120
24760W        W90020  29.653  32.000  13.569
24761W        W90021  38.511  44.520  12.457
24762W        W90022  33.593  13.233  14.606
24763W        W90023  17.230  38.794  14.063
24764W        W90024  12.745  16.318  13.767
24765W        W90025  12.402  16.259  14.622
24766W        W90026  26.119  26.230   5.195
24767W        W90027  17.512  44.253  11.276
24768W        W90028  31.491  33.854  11.328
24769W        W90029  28.933  42.740  10.998
24770W        W90030  39.212  20.181   1.883
24771W        W90031  20.681   8.403   4.715
24772W        W90032   4.438  35.847  10.787
24773W        W90033  40.500  22.126   4.110
24774W        W90034  34.331   4.526  11.117
24775W        W90035   4.310  33.153   4.155
24776W        W90036  33.465  33.717   4.436
24777W        W90037  25.022  34.923   2.331
24778W        W90038  31.668   2.354  12.158
24779W        W90039  32.326  14.998   0.025
24780W        W90040  31.020   7.232   4.099
24781W        W90041  24.187   0.349  14.747
24782W        W90042  36.332   3.648  11.069
24783W        W90043  26.076   6.851   0.885
24784W        W90044  14.466  16.119   1.679
24785W        W90045  23.789  33.546  13.600
24786W        W90046  35.053  20.076   3.853
24787W        W90047  18.851  27.559  11.579
24788W        W90048  26.668  12.367   2.209
24789W        W90049   0.622   8.919  11.130
24790W        W90050  13.738   4.364   1.742
24791W        W90051  28.928  18.968  12.887
24792W        W90052  33.202   2.695  11.468
24793W        W90053  35.038   6.268  13.344
24794W        W90054  39.496  13.691   1.517
24795W        W90055  30.554   8.794  12.372
24796W        W90056  39.009  18.956  12.928
24797W        W90057  13.144  23.552   1.770
24798W        W90058  40.086  37.445  14.424
24799W        W90059  36.550  32.392   2.705
24800W        W90060  33.514  39.631   0.111
24801W        W90061  21.601  29.805   1.024
24802W        W90062   5.976  31.146  13.904
24803W        W90063   8.507   6.825   3.681
24804W        W90064   0.566  40.593  12.030
24805W        W90065   9.352  29.874   4.160
24806W        W90066  31.714  21.011   4.851
24807W        W90067  25.577  42.826   3.093
24808W        W90068   8.065  35.313  11.108
24809W        W90069   7.306   6.370   4.201
24810W        W90070  35.624   3.210  12.698
24811W        W90071  24.137  10.616   0.448
24812W        W90072   2.389   9.856   1.229
24813W        W90073  42.438  24.478  11.609
24814W        W90074  44.674  33.085   4.212
24815W        W90075  27.460   4.261   3.944
24816W        W90076  15.630  34.519   4.138
24817W        W90077   3.769  37.494  10.960
24818W        W90078  25.895  22.351   3.854
24819W        W90079   1.421  40.881  13.895
24820W        W90080  24.982  31.442   3.828
24821W        W90081  27.068  43.549   3.852
24822W        W90082  44.040  35.705   0.503
24823W        W90083   8.316   3.837  14.848
24824W        W90084  28.388  11.869   3.146
24825W        W90085  17.329   6.799  14.897
24826W        W90086  19.979   3.851  11.049
24827W        W90087  36.384   1.907   2.206
24828W        W90088  31.489  18.773   1.273
24829W        W90089   4.638  21.255  14.524
24830W        W90090  41.744  29.164   0.467
24831W        W90091  32.001   1.046   5.159
24832W        W90092  39.955   7.768  14.481
24833W        W90093  30.981  26.177  14.537
24834W        W90094  23.088  38.998   4.576
24835W        W90095  36.463  24.250  11.480
24836W        W90096   4.131  15.840   3.381
24837W        W90097   5.222  21.369   0.413
24838W        W90098  22.602  44.317  12.140
24839W        W90099  36.790   3.154   4.095
24840W        W90100   7.104  30.531   4.439
24841W        W90101  28.857  20.948   4.561
24842W        W90102  10.968  41.950  11.683
24843W        W90103  29.191  32.425   0.014
24844W        W90104  10.464  13.835  10.844
24845W        W90105   1.890  35.674   2.436
24846W        W90106  17.175  27.229  12.438
24847W        W90107  10.627  13.314   3.852
24848W        W90108  25.926  40.373   4.862
24849W        W90109  27.093  25.925   0.849
24850W        W90110   4.449  15.841  12.086
24851W        W90111  19.695  21.156   1.209
24852W        W90112  25.937  20.874  10.823
24853W        W90113  20.265  16.797  10.712
24854W        W90114  43.460  36.100  13.931
24855W        W90115   6.786   2.415   2.790
24856W        W90116  16.827  43.437   0.914
24857W        W90117  34.982  40.496   3.868
24858W        W90118  32.244  24.674  12.896
24859W        W90119  34.945   4.729   3.719
24860W        W90120  31.705  34.107   2.663
24861W        W90121  25.987  23.121   2.369
24862W        W90122  36.121  10.206   1.195
24863W        W90123  30.044  15.953   2.819
24864W        W90124  17.074  32.234   1.633
24865W        W90125   6.185  38.536  11.561
24866W        W90126   8.035  15.420  14.770
24867W        W90127  36.091  25.462   2.441
24868W        W90128  38.890  18.661   3.109
24869W        W90129   5.439  22.952  10.213
24870W        W90130  39.966  33.033  10.601
24871W        W90131  42.376  36.351   1.824
24872W        W90132   1.856  38.875   3.340
24873W        W90133  18.788   4.623  11.578
24874W        W90134  32.630  25.738  11.594
24875W        W90135  24.654  17.299   1.289
24876W        W90136  10.454  15.031   2.862
24877W        W90137  19.240  20.852   1.446
24878W        W90138   8.981   3.759   3.328
24879W        W90139  43.028  41.368   4.798
24880W        W90140  15.934   3.033   3.754
24881W        W90141   0.145  15.384   0.918
24882W        W90142  40.373  19.663   0.901
24883W        W90143  34.594  36.568   2.390
24884W        W90144  11.138  43.954   0.443
24885W        W90145  10.483  18.381  14.936
24886W        W90146  23.988  35.833  14.763
24887W        W90147  13.282  36.921  10.480
24888W        W90148  18.042  43.277   3.559
24889W        W90149  43.119  33.524  12.027
24890W        W90150  41.591  11.063   0.541
24891W        W90151  39.279  13.467  13.599
24892W        W90152  44.937  35.097  12.541
24893W        W90153  36.285  16.040  10.648
24894W        W90154  38.849  16.393   2.239
24895W        W90155  25.303  32.908   3.824
24896W        W90156  11.296  39.261   3.209
24897W        W90157  23.990  44.967  11.733
24898W        W90158  29.965  41.423   4.858
24899W        W90159   6.905  31.991   4.942
24900W        W90160  11.615  42.279  12.534
24901W        W90161   8.646  38.961  10.734
24902W        W90162  23.406   8.462   1.348
24903W        W90163   5.649  17.693   1.502
24904W        W90164  15.926  23.952   1.316
24905W        W90165   0.227   1.363  13.449
24906W        W90166  30.398  27.446  14.050
24907W        W90167  18.773  24.140  11.817
24908W        W90168  13.290  40.795   0.872
24909W        W90169  36.741  41.874   3.325
24910W        W90170   4.828  39.790   1.320
24911W        W90171  38.384  30.052   3.719
24912W        W90172  36.576  38.973   2.365
24913W        W90173  26.148   7.290  13.675
24914W        W90174  10.348  29.782   3.915
24915W        W90175   0.440  32.063   3.287
24916W        W90176  17.369  17.200   3.371
24917W        W90177  31.898  30.599  13.002
24918W        W90178  16.559   8.796  11.566
24919W        W90179   0.899   6.431  13.916
24920W        W90180   2.467   6.667  12.061
24921W        W90181   9.900  28.498   5.138
24922W        W90182  20.511  27.410  12.930
24923W        W90183  28.158  40.338  14.690
24924W        W90184  29.586  10.108   1.306
24925W        W90185  29.943  32.098   3.815
24926W        W90186  42.170   1.027   3.673
24927W        W90187  40.221  41.599  14.372
24928W        W90188  19.488  19.118   2.366
24929W        W90189  37.853  30.852   4.818
24930W        W90190  17.818  27.460   0.552
24931W        W90191  27.476  37.453   2.395
24932W        W90192   5.760  23.588  10.960
24933W        W90193  44.062  41.484   0.390
24934W        W90194   9.539   1.369  11.171
24935W        W90195  38.126  14.072   0.233
24936W        W90196  10.108  12.406   3.009
24937W        W90197  42.725  34.012   2.975
24938W        W90198  31.796  14.199   2.123
24939W        W90199  42.398  15.066  14.264
24940W        W90200  11.609   6.796  11.592
24941W        W90201   6.383  28.603  13.574
24942W        W90202  21.730   2.708   1.475
24943W        W90203  16.801   1.786  11.527
24944W        W90204  22.140  30.223   3.690
24945W        W90205  44.943  12.858   1.337
24946W        W90206  12.104  17.273  13.891
24947W        W90207  42.957  10.138  13.997
24948W        W90208   9.318  36.106  10.237
24949W        W90209  27.712  34.822   0.746
24950W        W90210  40.035  34.447   1.277
24951W        W90211  27.547  33.521   3.812
24952W        W90212  14.658  43.983   0.729
24953W        W90213  30.165  28.286   0.942
24954W        W90214  37.601  37.718  13.433
24955W        W90215  32.171  39.659  10.919
24956W        W90216  29.949   8.259  14.023
24957W        W90217  43.519  40.491  14.322
24958W        W90218  34.652  27.508   4.594
24959W        W90219  34.953  33.632  12.003
24960W        W90220  22.121  30.863   2.193
24961W        W90221  35.704  35.995  10.788
24962W        W90222  15.161  24.531  12.668
24963W        W90223  30.108   3.646   2.689
24964W        W90224  43.801  21.295  14.861
24965W        W90225  33.234  41.863   4.146
24966W        W90226   5.717  18.206   0.301
24967W        W90227  38.637  24.617   3.143
24968W        W90228  30.176   5.211   1.112
24969W        W90229  38.968   5.190   4.499
24970W        W90230  16.652  36.000   1.364
24971W        W90231  25.941  18.756  14.375
24972W        W90232  41.675  20.770   0.236
24973W        W90233  10.894   3.513   2.358
24974W        W90234  12.716   4.199   3.203
24975W        W90235  37.116   3.411   5.370
24976W        W90236  27.395  19.607   0.758
24977W        W90237  10.241  27.021  12.415
24978W        W90238   5.662  21.207  14.221
24979W        W90239  16.335  14.576  11.747
24980W        W90240   9.649  19.321  13.791
24981W        W90241  15.890  28.181   1.831
24982W        W90242  35.042  11.204  14.533
24983W        W90243   6.906   9.297  10.717
24984W        W90244  20.266  40.929  11.643
24985W        W90245  16.211  14.621   1.984
24986W        W90246   2.317   9.917  13.280
24987W        W90247  35.757   6.106  11.741
24988W        W90248   0.584  13.785  14.735
24989W        W90249   5.393  21.340   3.729
24990W        W90250  35.412  31.998  11.578
24991W        W90251   8.227  10.694  14.375
24992W        W90252  29.754   8.861   2.941
24993W        W90253  13.090  24.625   0.359
24994W        W90254  21.883  16.081  12.491
24995W        W90255   6.481   2.449   2.374
24996W        W90256  27.522  21.561  11.161
24997W        W90257   7.602  32.026  14.940
24998W        W90258  37.905  17.537  13.067
24999W        W90259   3.584   3.681  12.103
25000W        W90260   0.802  23.324   4.460
25001W        W90261  12.693   5.752   2.307
25002W        W90262   8.833  43.306   3.522
25003W        W90263  24.617  27.579  10.908
25004W        W90264  28.709   3.675   4.187
25005W        W90265  25.012  19.270   1.340
25006W        W90266  26.529  24.795  13.779
25007W        W90267  30.665  24.594   4.071
25008W        W90268   2.297   1.457  12.843
25009W        W90269   2.474   4.014   4.089
25010W        W90270  40.102  34.250  11.557
25011W        W90271   8.666  25.093   1.904
25012W        W90272  29.830  11.488   1.261
25013W        W90273  19.804  25.585  13.468
25014W        W90274  11.843  36.964   1.385
25015W        W90275  27.016  17.995   1.272
25016W        W90276  15.328  18.290   4.084
25017W        W90277  31.772  38.023  10.601
25018W        W90278  39.906  26.163   4.947
25019W        W90279  44.236  21.623   2.267
25020W        W90280  43.810  18.626  14.187
25021W        W90281   0.240   8.811  13.126
25022W        W90282   7.654  21.932  11.531
25023W        W90283  24.011  21.705   0.680
25024W        W90284  19.090  10.597   3.676
25025W        W90285  37.628  42.361  11.042
25026W        W90286  32.042  12.704   0.502
25027W        W90287  36.329  43.926   3.324
25028W        W90288  14.846   5.269   1.509
25029W        W90289   4.378   8.204  13.568
25030W        W90290  14.241   9.115   2.191
25031W        W90291  26.191  13.332  14.296
25032W        W90292  30.868  43.749  10.884
25033W        W90293   9.638  23.633  14.398
25034W        W90294  37.854  22.571   2.912
25035W        W90295  32.546  39.469  10.604
25036W        W90296  19.620  36.498   1.737
25037W        W90297  35.388  16.692  13.412
25038W        W90298  28.757  19.326   2.800
25039W        W90299  31.643  37.438  11.177
25040W        W90300  24.966   8.256   3.640
25041W        W90301  37.338  25.949   1.367
25042W        W90302  16.128  28.446  12.988
25043W        W90303  16.616   4.178  13.774
25044W        W90304  34.155   5.904   2.257
25045W        W90305   6.354  37.478   4.722
25046W        W90306  15.536  20.296   3.296
25047W        W90307  38.528  38.374   1.013
25048W        W90308  38.317   7.645   4.342
25049W        W90309  29.893  26.883  13.785
25050W        W90310  14.824  14.079  14.463
25051W        W90311  36.986  38.458  11.564
25052W        W90312  19.278  11.924  10.741
25053W        W90313  27.417  25.997  11.712
25054W        W90314   3.927   4.497   2.644
25055W        W90315  14.596  16.291   4.107
25056W        W90316  22.437  29.900   2.424
25057W        W90317   9.557  23.972   3.737
25058W        W90318   2.280   1.235  11.219
25059W        W90319  42.743  35.100   2.072
25060W        W90320  33.387  39.834   1.809
25061W        W90321  19.640  23.078   3.991
25062W        W90322  23.667  14.054   3.199
25063W        W90323  37.763  17.517  14.341
25064W        W90324  41.454  10.254   2.652
25065W        W90325  33.489  18.091   3.278
25066W        W90326   9.097  43.300   0.762
25067W        W90327  14.542  34.947   4.606
25068W        W90328  26.305   0.502   0.222
25069W        W90329  35.605  13.387   3.575
25070W        W90330  24.756  19.253  13.889
25071W        W90331  31.155  14.806   4.654
25072W        W90332  41.271  27.700   0.486
25073W        W90333   2.647   7.406  14.522
25074W        W90334  27.016  24.765   2.652
25075W        W90335   6.663  40.381   1.555
25076W        W90336   3.890  40.137  11.220
25077W        W90337  18.671  19.572   1.341
25078W        W90338  11.933  27.158   0.356
25079W        W90339   3.711   2.801  11.115
25080W        W90340   8.470  39.429  12.552
25081W        W90341  29.704  44.431  10.654
25082W        W90342  34.665   1.032   4.921
25083W        W90343  10.617  14.210   1.018
25084W        W90344  18.887   1.399  10.930
25085W        W90345  13.228   3.660   1.894
25086W        W90346  14.220  22.853   0.483
25087W        W90347  26.584  40.102   0.921
25088W        W90348  18.203  17.516  12.260
25089W        W90349  11.576  39.699   3.147
25090W        W90350  22.895   2.769  14.344
25091W        W90351  25.362  29.999   2.898
25092W        W90352  31.035  31.630   0.262
25093W        W90353  23.251  36.868  12.360
25094W        W90354  38.841  24.084  12.374
25095W        W90355  40.057   7.752   0.504
25096W        W90356  36.915   5.867  13.407
25097W        W90357  30.077  37.052   4.858
25098W        W90358  16.273  37.106   2.398
25099W        W90359   2.277  23.996  10.225
25100W        W90360  13.504  14.072  12.885
25101W        W90361   1.003   9.690  11.862
25102W        W90362  36.069  19.519   1.783
25103W        W90363  31.658   0.045  10.710
25104W        W90364  21.194   4.536   9.881
25105W        W90365  19.269  25.488   4.599
25106W        W90366   4.485  22.033  11.167
25107W        W90367  15.452  11.686  14.780
25108W        W90368  18.318  24.137  14.134
25109W        W90369  25.850   8.138  13.355
25110W        W90370  15.368  42.013  14.986
25111W        W90371   3.753  29.270   2.647
25112W        W90372   3.364  42.236   0.899
25113W        W90373  38.662  42.757   3.208
25114W        W90374   4.737  19.747   5.034
25115W        W90375  38.831  43.849   0.686
25116W        W90376   8.599  43.770  13.052
25117W        W90377  28.230  33.009  11.504
25118W        W90378  40.289  33.880  13.881
25119W        W90379  40.271  12.902   3.622
25120W        W90380   4.025   6.932  14.408
25121W        W90381  21.479   5.497  12.588
25122W        W90382  34.441  33.412   4.277
25123W        W90383  30.472  30.699  14.013
25124W        W90384  39.085  30.060   3.118
25125W        W90385  34.339  23.506  11.124
25126W        W90386  11.899  21.791  12.465
25127W        W90387  35.573  25.429   0.320
25128W        W90388  40.634   0.249  11.231
25129W        W90389  14.269  33.039   4.185
25130W        W90390  27.022  14.962   2.702
25131W        W90391  31.713   3.964  10.964
25132W        W90392  19.142   6.828   1.648
25133W        W90393  28.727  35.498   0.471
25134W        W90394   2.451  11.625   0.336
25135W        W90395   4.592  16.589   4.227
25136W        W90396  21.135   0.224   4.181
25137W        W90397  25.114  34.624  14.296
25138W        W90398   5.630  31.881  12.503
25139W        W90399   7.717  26.996   0.500
25140W        W90400  17.224   8.901   3.214
25141W        W90401  28.141  17.027  12.324
25142W        W90402  35.841  39.075   1.657
25143W        W90403  24.128  38.068   4.476
25144W        W90404   1.747  30.621  13.064
25145W        W90405  36.872   2.330  10.879
25146W        W90406  22.662  22.286   4.328
25147W        W90407  39.030  24.589   0.356
25148W        W90408  44.452  10.071  13.368
25149W        W90409  38.089  24.101  12.098
25150W        W90410  28.516  43.888   0.256
25151W        W90411  33.441  39.006  10.778
25152W        W90412  43.520  33.974  13.884
25153W        W90413  10.840  41.745   0.793
25154W        W90414  36.416  44.433  10.289
25155W        W90415  36.037  22.963   4.363
25156W        W90416  26.379  23.962   4.548
25157W        W90417  21.173  34.866   2.624
25158W        W90418   8.133  32.329  10.928
25159W        W90419   5.467  29.975  13.890
25160W        W90420  11.208   0.775  13.521
25161W        W90421  21.899  38.914  13.933
25162W        W90422  12.648  15.330   2.184
25163W        W90423   5.158  25.047   4.726
25164W        W90424   7.212   0.831   2.694
25165W        W90425  21.154  33.060  10.638
25166W        W90426  20.538  39.544  11.589
25167W        W90427  11.269  26.278   3.205
25168W        W90428   5.279  16.800   3.782
25169W        W90429  35.293  33.181   1.696
25170W        W90430   7.633   0.030   0.221
25171W        W90431   5.925  15.574  12.043
25172W        W90432  14.988  37.847  12.275
25173W        W90433  37.324  29.478  13.347
25174W        W90434  20.413   5.818   3.453
25175W        W90435  11.190   3.105  11.323
25176W        W90436   4.284  14.300   4.586
25177W        W90437  23.127  37.623   3.574
25178W        W90438  10.029  24.566  11.077
25179W        W90439  26.724  10.761  10.953
25180W        W90440  26.701   2.634   3.579
25181W        W90441  44.267  14.399  10.467
25182W        W90442  14.750  42.576  13.358
25183W        W90443  34.167  39.731   2.226
25184W        W90444  13.170  34.802   5.023
25185W        W90445  33.597   9.858   2.358
25186W        W90446  35.625   4.742  10.655
25187W        W90447   3.257   1.773  13.759
25188W        W90448  23.469  17.295  12.180
25189W        W90449   8.278   1.797   1.812
25190W        W90450  21.301  11.118  14.809
25191W        W90451  10.220  20.928   9.952
25192W        W90452  16.644   7.932  12.223
25193W        W90453  44.850  16.275  11.420
25194W        W90454  37.600  30.042   2.672
25195W        W90455   4.805   6.883  11.526
25196W        W90456  30.508  27.706  14.508
25197W        W90457  22.654   0.241   4.155
25198W        W90458  28.157  37.108  10.138
25199W        W90459  35.074  34.103  11.106
25200W        W90460   6.968  12.335   1.909
25201W        W90461  23.778  13.236   4.652
25202W        W90462   0.016  31.591   4.689
25203W        W90463  41.077  10.406   2.961
25204W        W90464  44.312  39.041  13.339
25205W        W90465   7.143  36.522   0.391
25206W        W90466  28.793  14.338  13.499
25207W        W90467  25.975  38.583   0.399
25208W        W90468  17.598  12.525  12.465
25209W        W90469  25.135  16.998  11.553
25210W        W90470  20.621  22.586   4.030
25211W        W90471  23.283  14.026   0.774
25212W        W90472   7.767   3.239   3.660
25213W        W90473  14.294   7.066  14.982
25214W        W90474  35.183  39.116   0.012
25215W        W90475  44.545  35.147  11.049
25216W        W90476   5.643  43.536  13.018
25217W        W90477  34.109  41.960  11.229
25218W        W90478  29.216  35.385  13.550
25219W        W90479  14.727   7.833  14.030
25220W        W90480  31.384  20.162   2.800
25221W        W90481  24.992  38.726  13.345
25222W        W90482   6.718   2.221   4.611
25223W        W90483  30.424  20.535  14.824
25224W        W90484  22.740   3.541   4.262
25225W        W90485  30.329  38.549  10.880
25226W        W90486  41.854  26.785  13.744
25227W        W90487   1.115  43.373   3.278
25228W        W90488   8.678  24.632  14.536
25229W        W90489  31.391  36.815  12.539
25230W        W90490  42.319   8.802   0.068
25231W        W90491   6.328   5.372   1.954
25232W        W90492  31.129  27.076   0.391
25233W        W90493   2.240   8.682  14.839
25234W        W90494  13.842   9.024  10.808
25235W        W90495  44.168  38.603  13.586
25236W        W90496   0.420  42.669   3.138
25237W        W90497   6.316  41.074  11.623
25238W        W90498   8.868  22.989   4.410
25239W        W90499  30.628   0.783   1.975
25240W        W90500   7.136  30.476  11.953
25241W        W90501  36.549  21.368   2.747
25242W        W90502  24.495  16.981  13.868
25243W        W90503  27.634  22.062   3.892
25244W        W90504   5.781  13.029   4.042
25245W        W90505  11.766  34.887  12.418
25246W        W90506  44.840  16.795   1.429
25247W        W90507  28.123  22.776   4.051
25248W        W90508   4.913   1.832   1.369
25249W        W90509  17.632  26.070   4.168
25250W        W90510  36.477  22.176  13.462
25251W        W90511  26.319   7.370   4.703
25252W        W90512  25.019   1.427   3.426
25253W        W90513  15.023  25.916   3.602
25254W        W90514  16.349  32.094   2.646
25255W        W90515  23.818  14.207  10.901
25256W        W90516  33.067  22.589   2.448
25257W        W90517  17.743  12.727  12.933
25258W        W90518  44.207   1.708   3.033
25259W        W90519  41.793   7.275  11.657
25260W        W90520   7.678   9.353  14.503
25261W        W90521  27.969  27.119   3.780
25262W        W90522  44.248  28.170   3.066
25263W        W90523  32.707  16.767   1.326
25264W        W90524   6.258  42.098   0.952
25265W        W90525  41.009  39.756  12.845
25266W        W90526  43.299   6.324   2.653
25267W        W90527  21.476  31.585   0.978
25268W        W90528  20.673  18.978  11.906
25269W        W90529  16.754  24.244  13.979
25270W        W90530  17.599  37.375  12.896
25271W        W90531  32.597  17.884   1.258
25272W        W90532   2.227   2.939   2.295
25273W        W90533   3.836   9.297  12.257
25274W        W90534  10.662   1.548  14.524
25275W        W90535   7.710  35.791  14.390
25276W        W90536  28.291   0.331   2.211
25277W        W90537  35.980  33.034   2.329
25278W        W90538  39.387  31.840   3.542
25279W        W90539   9.402  18.691  10.803
25280W        W90540   3.455  32.943   4.097
25281W        W90541  35.512   5.083  13.685
25282W        W90542  39.641  42.289  13.337
25283W        W90543   7.291  14.398  11.873
25284W        W90544  36.297  37.775   1.772
25285W        W90545  30.180  29.692  13.087
25286W        W90546  24.542  39.377   0.487
25287W        W90547  35.799  34.919  13.423
25288W        W90548  17.547  37.473  14.431
25289W        W90549  13.641  39.767   3.587
25290W        W90550  12.830  38.456   0.289
25291W        W90551  28.138   3.734   2.829
25292W        W90552  29.220   6.876  12.059
25293W        W90553  13.212  14.534  12.873
25294W        W90554  38.597   1.105  12.600
25295W        W90555  28.988  38.778  14.871
25296W        W90556   7.158  33.138  12.836
25297W        W90557   1.703  28.703  11.901
25298W        W90558  38.046  29.043   0.972
25299W        W90559   6.643  37.021   2.334
25300W        W90560  34.074   8.451   3.625
25301W        W90561  35.474  30.888  10.702
25302W        W90562  11.123  26.068  14.946
25303W        W90563  16.813  24.520  12.962
25304W        W90564  40.045  40.401  12.165
25305W        W90565  28.969  18.427   2.648
25306W        W90566  38.918   9.525   3.370
25307W        W90567  26.044  34.094   1.052
25308W        W90568  44.640  39.875  11.141
25309W        W90569  14.729  30.968  13.925
25310W        W90570  10.711  19.224  12.886
25311W        W90571  15.839  31.931   0.926
25312W        W90572  20.649  17.507  11.956
25313W        W90573  21.980  34.171   5.468
25314W        W90574   8.481  21.689  13.590
25315W        W90575  38.552  42.460  14.989
25316W        W90576   9.238  31.036  10.635
25317W        W90577  23.247  10.148   0.433
25318W        W90578  17.873   0.933  11.553
25319W        W90579  43.904  18.171  12.622
25320W        W90580  42.912  36.119  14.525
25321W        W90581   1.991   9.673   2.774
25322W        W90582  10.424   8.852  11.420
25323W        W90583  13.837  44.535   4.181
25324W        W90584  21.573   4.301   2.261
25325W        W90585  40.790  31.867   4.858
25326W        W90586  26.870  38.331  13.954
25327W        W90587  30.460  14.599  12.620
25328W        W90588  40.494   1.443   1.150
25329W        W90589  29.966  41.090  11.156
25330W        W90590   7.355  23.560  12.724
25331W        W90591  21.710  23.728   0.751
25332W        W90592  10.375  26.533  12.176
25333W        W90593  26.437  43.531  11.016
25334W        W90594  19.525   0.657  12.042
25335W        W90595  29.674  11.589  12.308
25336W        W90596  13.305  33.796  10.446
25337W        W90597  23.306  13.297   0.489
25338W        W90598  38.833   9.758   3.818
25339W        W90599  14.176  38.479   1.402
25340W        W90600  29.986   1.723  11.197
25341W        W90601  20.611   0.523  13.781
25342W        W90602  25.451   6.406  14.312
25343W        W90603  14.149   2.342   2.166
25344W        W90604  31.119  20.700  10.629
25345W        W90605  12.960  23.188   4.285
25346W        W90606  23.268  25.673  11.954
25347W        W90607  10.090  25.115  12.623
25348W        W90608  13.528  27.142  14.929
25349W        W90609  14.768   9.056  12.302
25350W        W90610  27.534   0.660  10.621
25351W        W90611  39.053  12.553   3.204
25352W        W90612   8.128  38.160  11.593
25353W        W90613   5.386  36.103  14.692
25354W        W90614  28.528  17.468   9.784
25355W        W90615  26.266  37.035  12.027
25356W        W90616  25.331  11.915   4.382
25357W        W90617  31.025  24.563   1.331
25358W        W90618   6.784  14.302  14.019
25359W        W90619  36.826  41.415  14.192
25360W        W90620  22.555  20.917  11.098
25361W        W90621  26.114  30.429  11.367
25362W        W90622  42.687  26.922   1.242
25363W        W90623  33.339   6.934   0.398
25364W        W90624  30.088   9.870   4.253
25365W        W90625  19.004  35.998  11.095
25366W        W90626   4.520  21.505   0.354
25367W        W90627  25.544   9.125  11.774
25368W        W90628  44.462   6.166   2.856
25369W        W90629  33.914  44.198   3.702
25370W        W90630  32.616  41.428   4.451
25371W        W90631  39.303  11.719   3.578
25372W        W90632  29.049  36.511   4.203
25373W        W90633  22.651  33.822  13.837
25374W        W90634  25.714  42.121   2.485
25375W        W90635  40.012  12.078  12.194
25376W        W90636   9.947  20.075   0.445
25377W        W90637  38.424  23.694   3.107
25378W        W90638  27.372  18.543   3.273
25379W        W90639  30.952  15.093   3.736
25380W        W90640  33.605  42.296  12.053
25381W        W90641  33.507  21.206  13.385
25382W        W90642  23.494  12.535  13.891
25383W        W90643  42.204   8.234   0.695
25384W        W90644  20.993   6.314  10.528
25385W        W90645  20.561  33.867   1.290
25386W        W90646  38.080  27.791   2.837
25387W        W90647  34.004  44.440  14.876
25388W        W90648  25.271  11.162  13.491
25389W        W90649  35.062  27.941  11.099
25390W        W90650  26.842  22.030   2.066
25391W        W90651  11.682  43.426   3.765
25392W        W90652  26.556  14.270   1.393
25393W        W90653  38.581  25.871   1.404
25394W        W90654  15.647  18.311  13.716
25395W        W90655  22.668  38.576   0.526
25396W        W90656  12.372   5.670   0.871
25397W        W90657   9.605  43.833  14.833
25398W        W90658  35.049   0.668   4.076
25399W        W90659  31.957   7.727   2.895
25400W        W90660  12.796  23.417  14.887
25401W        W90661   7.671  42.592   4.460
25402W        W90662  20.553   8.741  14.782
25403W        W90663   0.533  35.788   2.870
25404W        W90664  32.490  42.452   4.429
25405W        W90665  26.792   9.431  10.777
25406W        W90666  27.168  22.815  12.896
25407W        W90667  20.436  24.743  13.485
25408W        W90668  42.218  26.119   1.757
25409W        W90669  27.668   1.996  11.450
25410W        W90670   5.735  23.264   1.127
25411W        W90671   0.464   3.520  14.474
25412W        W90672  43.528  28.695  12.126
25413W        W90673  20.162  16.165  13.041
25414W        W90674  18.691   8.446   0.264
25415W        W90675  27.039  21.860   0.762
25416W        W90676  38.844  30.041   4.608
25417W        W90677  18.371  21.790  11.685
25418W        W90678  10.825  27.449   2.214
25419W        W90679   6.590  28.544   1.247
25420W        W90680  40.404   0.848   0.869
25421W        W90681  22.255   3.448   0.814
25422W        W90682  27.088  22.216  11.358
25423W        W90683  35.288   3.239   1.365
25424W        W90684  31.601  13.810  12.889
25425W        W90685  41.529  20.003  12.580
25426W        W90686  18.465  12.291   0.186
25427W        W90687   9.160  28.235  14.328
25428W        W90688  39.420  38.883   1.631
25429W        W90689  31.976  27.601  12.601
25430W        W90690   6.365   9.102   1.758
25431W        W90691   6.704  34.164  10.733
25432W        W90692  19.155  39.478  13.289
25433W        W90693  31.296  21.777  14.939
25434W        W90694  31.614  18.518   0.495
25435W        W90695   8.751  10.956   1.447
25436W        W90696   8.572  40.498   2.824
25437W        W90697  28.554  12.775  14.970
25438W        W90698  10.738  33.123   3.696
25439W        W90699  14.753   9.713  13.569
25440W        W90700  14.531  16.611  13.766
25441W        W90701  29.920  25.477   9.852
25442W        W90702   5.717  11.265   3.229
25443W        W90703  37.778   3.837   0.397
25444W        W90704   0.550  36.565   3.338
25445W        W90705  28.008   7.987   2.740
25446W        W90706  44.518  13.884  11.188
25447W        W90707  40.621  12.828  12.485
25448W        W90708   9.770  22.088   2.059
25449W        W90709  15.384  15.763   3.127
25450W        W90710  34.446  19.581   4.210
25451W        W90711   4.836  36.707  12.100
25452W        W90712   3.726  11.631   4.111
25453W        W90713  18.719  24.189  10.372
25454W        W90714  29.669  33.725  13.373
25455W        W90715  24.637  41.997  11.746
25456W        W90716  15.665   7.984   2.785
25457W        W90717  36.471  23.512  11.316
25458W        W90718   3.928  43.111  13.028
25459W        W90719  18.412  20.999  13.868
25460W        W90720  34.963  33.103   0.500
25461W        W90721  31.832  37.281   3.800
25462W        W90722   2.411   4.469  13.402
25463W        W90723  20.074   4.352   4.279
25464W        W90724  34.026  34.761  11.243
25465W        W90725  23.201   6.690  13.515
25466W        W90726  37.900  24.996   2.339
25467W        W90727  41.843   6.321  13.768
25468W        W90728  11.220  28.082   1.351
25469W        W90729  22.836  37.929  11.159
25470W        W90730  20.883   5.383   0.716
25471W        W90731  16.734  43.209   1.352
25472W        W90732   2.030  29.587   2.953
25473W        W90733  12.711  17.022  13.110
25474W        W90734   0.285  29.534  10.666
25475W        W90735   4.175  39.959  13.782
25476W        W90736  18.273   3.411  14.915
25477W        W90737  33.105  13.238   1.939
25478W        W90738  41.804  11.846   9.744
25479W        W90739  11.796   7.923   3.107
25480W        W90740  10.892   1.465   4.866
25481W        W90741   5.341   4.224  14.224
25482W        W90742   4.353  39.413  10.736
25483W        W90743   2.845  27.606   5.275
25484W        W90744  27.299   4.396   0.771
25485W        W90745  37.062  25.473  13.923
25486W        W90746  13.267  20.129  11.244
25487W        W90747   0.260  23.864  13.820
25488W        W90748  22.962  36.356  12.529
25489W        W90749  29.451  36.186  12.142
25490W        W90750  37.052   3.823  10.318
25491W        W90751   6.733  12.227  14.313
25492W        W90752  15.387  41.647  12.489
25493W        W90753  15.337   4.945   2.287
25494W        W90754  20.276  31.027   0.947
25495W        W90755   0.475  29.628   1.764
25496W        W90756  42.060   1.042   3.134
25497W        W90757   5.765  13.077   3.162
25498W        W90758  28.861   6.243   2.762
25499W        W90759  24.391  35.206  14.423
25500W        W90760   5.882  38.605   1.741
25501W        W90761  32.818  38.956   3.681
25502W        W90762   5.260  37.799   3.930
25503W        W90763  44.260  39.148  11.165
25504W        W90764  19.025  13.612  12.514
25505W        W90765   3.117  11.888  14.212
25506W        W90766   3.592   1.342   5.044
25507W        W90767  13.327   6.146   0.940
25508W        W90768  37.259  19.059  14.357
25509W        W90769  12.756  24.592   4.998
25510W        W90770  36.579  22.685  12.053
25511W        W90771  40.098  35.360  11.653
25512W        W90772  34.395  11.221   1.317
25513W        W90773  27.233  21.010   4.554
25514W        W90774   6.946  13.287   1.648
25515W        W90775   8.409  33.559  11.962
25516W        W90776   4.260  16.816  10.358
25517W        W90777  37.971  19.866   1.843
25518W        W90778  39.294  33.658  14.813
25519W        W90779   0.284   8.076  12.786
25520W        W90780  19.884   9.247  14.935
25521W        W90781  34.353  30.303   3.778
25522W        W90782  29.272  24.660   1.270
25523W        W90783  21.764   1.981  13.623
25524W        W90784  22.689  42.708  12.105
25525W        W90785   6.385   2.761   3.627
25526W        W90786  26.471  33.446  12.334
25527W        W90787   1.246   1.449  13.103
25528W        W90788   9.860  20.976  14.329
25529W        W90789  14.616  39.822   0.947
25530W        W90790  14.146  15.615  13.941
25531W        W90791  32.360  11.771  13.851
25532W        W90792  14.855  12.882  11.993
25533W        W90793   9.594  44.605  14.537
25534W        W90794   9.226   3.173  14.836
25535W        W90795  33.368  15.704   0.793
25536W        W90796  30.002  13.059   2.786
25537W        W90797  25.980  29.898   4.623
25538W        W90798  14.051   4.146  13.061
25539W        W90799  38.229  40.507   2.614
25540W        W90800   4.741  25.520   3.281
25541W        W90801   8.983  22.227   1.787
25542W        W90802  31.743  20.488   4.736
25543W        W90803   6.962   1.367  12.361
25544W        W90804  15.175  18.600   3.691
25545W        W90805  36.600   7.945   2.453
25546W        W90806  43.777  32.928  11.532
25547W        W90807  24.498   0.782   2.348
25548W        W90808  23.688   4.294   0.847
25549W        W90809   4.151  28.922  11.171
25550W        W90810  31.570  41.067   0.683
25551W        W90811  44.828  23.929  11.394
25552W        W90812  11.740   4.867   9.979
25553W        W90813   2.715   7.630   2.535
25554W        W90814  34.449   3.782   3.617
25555W        W90815  38.366  21.509  14.512
25556W        W90816  39.061  16.308   1.377
25557W        W90817  34.340  37.569  13.111
25558W        W90818  36.026  29.525   0.360
25559W        W90819  40.622  33.236   0.835
25560W        W90820  20.829  17.529   3.738
25561W        W90821  32.332  20.048   2.757
25562W        W90822  29.558   1.925   2.765
25563W        W90823  27.237  21.706  12.030
25564W        W90824  21.538  21.241   9.942
25565W        W90825  25.581  29.034  10.843
25566W        W90826  19.845  14.041  11.687
25567W        W90827  11.160  24.915   0.722
25568W        W90828  32.863  36.357  14.840
25569W        W90829   6.754  40.604  13.774
25570W        W90830  33.343  10.024  11.565
25571W        W90831  36.803  16.358   1.410
25572W        W90832   9.283  40.268  11.684
25573W        W90833   1.429  11.590  13.943
25574W        W90834  42.487  29.672  14.507
25575W        W90835  44.003  36.005   3.713
25576W        W90836  10.125  27.496   2.762
25577W        W90837   9.394  27.861   0.028
25578W        W90838   0.376   9.333  10.666
25579W        W90839  29.617  10.758   0.792
25580W        W90840  12.139  22.081   4.608
25581W        W90841  32.538  18.060   2.532
25582W        W90842  38.856   4.641   0.969
25583W        W90843  42.729  34.614  13.282
25584W        W90844  30.210  22.386   2.564
25585W        W90845   7.572  22.700  11.131
25586W        W90846  22.702  17.955  11.893
25587W        W90847  29.990  27.001   4.037
25588W        W90848  28.828  27.274   3.636
25589W        W90849  21.775  39.102   2.641
25590W        W90850   2.819  30.993   1.739
25591W        W90851  37.024  26.569   0.004
25592W        W90852   9.841  15.522  13.093
25593W        W90853  16.987  33.778  14.334
25594W        W90854  17.286  38.492  12.493
25595W        W90855  27.121  11.340  13.890
25596W        W90856  10.152  21.165   4.931
25597W        W90857  38.436  42.730  10.642
25598W        W90858  30.040  27.681  14.802
25599W        W90859   1.689   9.022  12.482
25600W        W90860  25.784  32.691  14.249
25601W        W90861  20.100  24.937  11.317
25602W        W90862  38.575  42.778  14.569
25603W        W90863   8.933  34.922  11.537
25604W        W90864  27.477  14.743   0.642
25605W        W90865  34.526  41.440  13.913
25606W        W90866  22.106  28.044   4.167
25607W        W90867   9.485  33.540   1.338
25608W        W90868   0.478  39.780  12.381
25609W        W90869   9.703  15.136  10.559
25610W        W90870  14.470  12.640  11.726
25611W        W90871   9.888  37.810   1.416
25612W        W90872  10.453  21.752   1.395
25613W        W90873  28.074  24.850  13.371
25614W        W90874   4.377  21.993  12.906
25615W        W90875  43.954  21.641   1.805
25616W        W90876  38.913  30.741   1.856
25617W        W90877  43.244  42.352  12.656
25618W        W90878  14.649   5.946  14.274
25619W        W90879  43.463   0.769   2.881
25620W        W90880   1.973  32.073  14.022
25621W        W90881  40.889   8.350  12.797
25622W        W90882  21.516  19.508  12.402
25623W        W90883  23.372  37.035   0.764
25624W        W90884  36.099  38.139  14.302
25625W        W90885  14.379  14.661   2.176
25626W        W90886  28.979  17.281   3.788
25627W        W90887  32.342  23.281  12.045
25628W        W90888   9.353  35.161  12.867
25629W        W90889   2.187  26.098   1.350
25630W        W90890  39.045  22.036  12.959
25631W        W90891  15.604  24.194  14.038
25632W        W90892  21.519  24.448  14.940
25633W        W90893  17.718  20.981   2.687
25634W        W90894   7.245  25.205   1.762
25635W        W90895  10.494  28.027   5.258
25636W        W90896  34.440  19.123   4.671
25637W        W90897   9.318  41.002  12.168
25638W        W90898  10.765  24.291   0.197
25639W        W90899  42.908  31.381   4.192
25640W        W90900  11.224  42.402   2.763
25641W        W90901  29.935  10.953   1.243
25642W        W90902  12.818  30.874  14.931
25643W        W90903  39.420  34.114   0.738
25644W        W90904  29.223  36.960   1.248
25645W        W90905  12.363  19.024   4.497
25646W        W90906  28.940  31.803  12.836
25647W        W90907  26.416  28.659  13.809
25648W        W90908  27.740   6.193  14.575
25649W        W90909   3.227  24.908  11.915
25650W        W90910  12.046   7.372  13.967
25651W        W90911  12.092  25.608   2.912
25652W        W90912  36.902   1.492  13.936
25653W        W90913  20.311   4.424  11.948
25654W        W90914   2.080  26.480   4.017
25655W        W90915  33.109   3.407   0.915
25656W        W90916  30.569  19.286  14.429
25657W        W90917   0.810  37.113  10.503
25658W        W90918  31.867  44.881  12.935
25659W        W90919   1.876  23.566  10.177
25660W        W90920  10.334  18.759  10.388
25661W        W90921  40.259  37.005  11.052
25662W        W90922   3.126  22.711  11.889
25663W        W90923  20.803  39.360  13.380
25664W        W90924  37.527   7.249   1.791
25665W        W90925   0.224  38.210  11.542
25666W        W90926  17.619  15.287  13.071
25667W        W90927  24.093   1.399  10.696
25668W        W90928  13.591  26.118   5.041
25669W        W90929  35.654  33.267   4.563
25670W        W90930  40.040  10.934   4.648
25671W        W90931  35.841   8.720   0.792
25672W        W90932   1.709  12.846   2.760
25673W        W90933  29.468   8.239  14.248
25674W        W90934  12.876   8.303   1.104
25675W        W90935  15.292   7.234  12.521
25676W        W90936  42.241  20.515  12.701
25677W        W90937  36.437  44.199   1.778
25678W        W90938   5.193  36.782  11.686
25679W        W90939  23.190   6.940  11.158
25680W        W90940  26.000  36.417   5.031
25681W        W90941  23.993  29.402  14.423
25682W        W90942  17.714   9.652  11.912
25683W        W90943  14.583  21.848  10.260
25684W        W90944   9.280  12.192   4.309
25685W        W90945   2.297  31.694   2.700
25686W        W90946   0.041  36.101   2.005
25687W        W90947   3.290  33.845  14.865
25688W        W90948   3.317  42.485   4.577
25689W        W90949  19.578  27.977   2.224
25690W        W90950  39.141  30.146   0.433
25691W        W90951  29.492  34.142  11.211
25692W        W90952  31.569  10.707   0.801
25693W        W90953  29.812  34.885  13.963
25694W        W90954  28.432  42.529   4.458
25695W        W90955  38.833   1.905  11.911
25696W        W90956  21.108  23.392   5.037
25697W        W90957  14.753  15.738  13.138
25698W        W90958  29.629  37.625  10.334
25699W        W90959  11.719  34.906   1.221
25700W        W90960  25.551   0.525   3.177
25701W        W90961  30.965  44.899  14.531
25702W        W90962  31.240   8.373  11.573
25703W        W90963  42.814  12.532   2.266
25704W        W90964  25.558  16.071  12.298
25705W        W90965  31.608   3.252   4.160
25706W        W90966  24.120  43.339   4.187
25707W        W90967  28.498  27.404  14.102
25708W        W90968  25.160   5.466   2.956
25709W        W90969  17.363  24.457   4.059
25710W        W90970   3.433  11.265   2.846
25711W        W90971  15.588  36.269  13.151
25712W        W90972  14.190  15.276   1.719
25713W        W90973  38.327  29.048  12.765
25714W        W90974  16.090  11.764   3.752
25715W        W90975  37.318  27.762   2.379
25716W        W90976  23.527  44.940   0.713
25717W        W90977   4.412  24.203  13.487
25718W        W90978  14.697   4.448   0.904
25719W        W90979  34.517   4.313   0.248
25720W        W90980  14.299  21.466  12.999
25721W        W90981   5.756  31.688  13.021
25722W        W90982  44.510  12.687   2.362
25723W        W90983   3.666  39.382   2.315
25724W        W90984  21.711  40.614  10.620
25725W        W90985  36.364  11.692  13.007
25726W        W90986  17.209  25.269  11.661
25727W        W90987  29.662   2.134  13.433
25728W        W90988  40.289  13.191   1.157
25729W        W90989   2.878  42.310   0.699
25730W        W90990  29.113  37.135   2.189
25731W        W90991  38.624  34.040  11.172
25732W        W90992  16.347  18.059   2.401
25733W        W90993   1.004  11.942  11.620
25734W        W90994  13.139  22.578   0.833
25735W        W90995  30.943  12.775   1.949
25736W        W90996  44.470  35.384   4.230
25737W        W90997  16.436  43.391  13.333
25738W        W90998  18.726  30.559   0.419
25739W        W90999  23.206  27.372  13.151
25740W        W91000  17.361   1.520  11.504
25741W        W91001  44.706  17.050  12.498
25742W        W91002   9.189  27.378  14.944
25743W        W91003  17.338  22.483  12.447
25744W        W91004  35.309  28.417  14.842
25745W        W91005  29.658   4.326  13.318
25746W        W91006   8.697  35.738   1.263
25747W        W91007  11.356  23.177   0.774
25748W        W91008  15.524  43.232  11.069
25749W        W91009  19.248  37.622  13.878
25750W        W91010  39.730  44.270  10.696
25751W        W91011  42.007   7.246  11.176
25752W        W91012  14.342  42.482   2.009
25753W        W91013  41.417  33.322  14.173
25754W        W91014   4.656  20.119   4.628
25755W        W91015  28.203  18.664   2.445
25756W        W91016  21.619  10.353   3.847
25757W        W91017  21.280   6.061   3.768
25758W        W91018  35.124  34.529   2.237
25759W        W91019  11.093  27.089  12.922
25760W        W91020  44.174  15.232   1.781
25761W        W91021  27.653  41.032   0.911
25762W        W91022  44.136  32.627  10.328
25763W        W91023   9.168  36.818   3.332
25764W        W91024  36.638   4.410   2.211
25765W        W91025  36.148  24.550  13.407
25766W        W91026  39.751  18.656   3.844
25767W        W91027  21.197  23.640  12.628
25768W        W91028  21.600  28.980  13.277
25769W        W91029  39.925  35.812  14.836
25770W        W91030  27.184  13.452   2.766
25771W        W91031  22.040  10.811   4.636
25772W        W91032  24.117   6.676  13.032
25773W        W91033  31.442  13.909  11.128
25774W        W91034  11.903  41.397   2.803
25775W        W91035   3.269   5.754  10.754
25776W        W91036  44.783  23.280   1.101
25777W        W91037   6.422   6.258   2.227
25778W        W91038  36.582  40.361   1.306
25779W        W91039   5.832  27.172  11.973
25780W        W91040  38.563  20.017  11.175
25781W        W91041  19.578  37.012   3.396
25782W        W91042   2.924  40.338  11.702
25783W        W91043   1.913   3.874  14.852
25784W        W91044  44.454  40.067  12.913
25785W        W91045  42.868  38.752  13.741
25786W        W91046  33.617  42.249  14.298
25787W        W91047  41.457   8.378  13.826
25788W        W91048  36.617   3.425  14.065
25789W        W91049  36.199  32.004  14.769
25790W        W91050  18.677   9.335   3.168
25791W        W91051  12.804  15.773   0.395
25792W        W91052  13.473  30.670   1.709
25793W        W91053  24.455   9.438   1.938
25794W        W91054  41.863  43.377   1.200
25795W        W91055  25.985  41.034  14.131
25796W        W91056  36.667  14.841  14.296
25797W        W91057  22.579   6.328   1.324
25798W        W91058   0.404   7.428   0.203
25799W        W91059  30.416  23.994   0.593
25800W        W91060  16.096   0.777  12.083
25801W        W91061  19.699  10.582  11.194
25802W        W91062  32.546  23.204   1.658
25803W        W91063   8.223  23.111   3.756
25804W        W91064  22.757  39.483   0.007
25805W        W91065  27.535   7.420   3.366
25806W        W91066  13.547  20.740  13.860
25807W        W91067  35.313  12.245   1.222
25808W        W91068  42.241  43.727  12.396
25809W        W91069  22.505  12.857  11.094
25810W        W91070  36.604   8.388   3.307
25811W        W91071  10.684  32.805  12.590
25812W        W91072  11.863  38.173  12.102
25813W        W91073   0.834  14.911  11.190
25814W        W91074  26.530  30.386   1.850
25815W        W91075  12.274  12.791   2.755
25816W        W91076  31.190   7.380  13.593
25817W        W91077  16.302  44.820   4.729
25818W        W91078   4.443  29.470   1.783
25819W        W91079  43.486  32.335  11.628
25820W        W91080   3.885   9.167   2.755
25821W        W91081  32.964  40.576  11.012
25822W        W91082  37.351  33.686  13.579
25823W        W91083  31.180  11.287  11.256
25824W        W91084  36.633  30.703  14.398
25825W        W91085   7.373   3.499   0.023
25826W        W91086   5.479  42.247   1.433
25827W        W91087  10.754  36.303   0.796
25828W        W91088  23.723  17.228  10.702
25829W        W91089  23.536   2.745  12.080
25830W        W91090   0.517  14.818  14.578
25831W        W91091   9.076  30.395  13.255
25832W        W91092  38.868  28.228  12.440
25833W        W91093   5.928  13.365  11.548
25834W        W91094  36.671  38.782  11.204
25835W        W91095  31.807  31.027  10.622
25836W        W91096  31.354  27.260  14.949
25837W        W91097  43.041  28.759   0.233
25838W        W91098   0.287  39.360   0.015
25839W        W91099  18.595  42.545  11.678
25840W        W91100  22.259  14.563   1.490
25841W        W91101   2.910  31.220  13.516
25842W        W91102   5.160   6.807   3.830
25843W        W91103  40.769   5.672   3.773
25844W        W91104  25.081  23.590   1.330
25845W        W91105  25.835  32.850  13.676
25846W        W91106  29.213   1.224  11.507
25847W        W91107  17.333   8.578  13.579
25848W        W91108  23.863  14.701   1.187
25849W        W91109  26.276  10.831   0.813
25850W        W91110   5.194  35.375  14.044
25851W        W91111  10.411  38.813   2.119
25852W        W91112  12.063  32.986   4.803
25853W        W91113  31.708  15.618   4.745
25854W        W91114  12.812  42.610   3.421
25855W        W91115   5.881  17.208   1.380
25856W        W91116   3.336  34.478  13.631
25857W        W91117  38.934  12.605  12.045
25858W        W91118  23.813  37.617  13.807
25859W        W91119   6.683  17.545  10.475
25860W        W91120  31.293  11.821  13.725
25861W        W91121  30.715  33.941  13.407
25862W        W91122  41.357  34.145   1.903
25863W        W91123  28.603  15.337   0.466
25864W        W91124  33.992  32.897  10.771
25865W        W91125  16.212  10.114  11.726
25866W        W91126   5.619   1.422   4.931
25867W        W91127   9.381  28.965  10.756
25868W        W91128  17.197  28.588  14.339
25869W        W91129  27.588  29.611   2.302
25870W        W91130  20.128   1.989   0.338
25871W        W91131  15.757  38.856  13.487
25872W        W91132  24.134   8.860   3.272
25873W        W91133  13.765  20.592   0.342
25874W        W91134  35.020  37.823  13.908
25875W        W91135  30.263  22.122  12.141
25876W        W91136  16.691  10.529   2.806
25877W        W91137  37.947  18.316   0.226
25878W        W91138  35.387   0.999  11.905
25879W        W91139  41.499  36.136   2.010
25880W        W91140  12.133   2.407   3.203
25881W        W91141   5.284  40.350  12.401
25882W        W91142  29.614  15.654  11.591
25883W        W91143  35.248  17.584   3.332
25884W        W91144  14.040  27.657  13.097
25885W        W91145  31.642  44.285   4.343
25886W        W91146  36.159  28.920  14.079
25887W        W91147  33.360  16.302  12.108
25888W        W91148  42.990   6.079   1.534
25889W        W91149  16.643  29.194  13.002
25890W        W91150  11.373  13.686   0.816
25891W        W91151   6.330  26.861  10.387
25892W        W91152  33.426  12.421   3.235
25893W        W91153  14.481   8.213  12.454
25894W        W91154  15.457   0.779  12.723
25895W        W91155   1.833  22.742  12.129
25896W        W91156  42.879  28.621   1.815
25897W        W91157  40.911  28.217   1.898
25898W        W91158  18.757  29.456   1.225
25899W        W91159   6.922  30.842   2.462
25900W        W91160  33.887   9.575  12.357
25901W        W91161  29.044  43.232  13.893
25902W        W91162  23.128  12.688   3.136
25903W        W91163  35.788  25.560   3.294
25904W        W91164  43.858  41.296   2.741
25905W        W91165   8.432  44.868  13.922
25906W        W91166  14.246  20.308  13.478
25907W        W91167  25.628   0.200   1.714
25908W        W91168  40.366  17.771  11.171
25909W        W91169   0.467   6.333  11.637
25910W        W91170  38.542  16.116  12.310
25911W        W91171   4.291  17.517   0.827
25912W        W91172  39.593   7.132  13.899
25913W        W91173   0.039  40.541  12.103
25914W        W91174  26.188  30.105   0.830
25915W        W91175  40.236  33.912   1.317
25916W        W91176  20.120  13.116   3.344
25917W        W91177  29.055  32.502  12.669
25918W        W91178  19.336  28.361   5.103
25919W        W91179   0.243  15.802  12.480
25920W        W91180  15.363  23.647  11.092
25921W        W91181  15.760  39.464   3.158
25922W        W91182  33.327  40.673   2.297
25923W        W91183  42.443  12.678  12.102
25924W        W91184  13.212  15.465   2.078
25925W        W91185  15.558  33.125   0.857
25926W        W91186   2.461  23.012   2.238
25927W        W91187  19.323   9.446  13.483
25928W        W91188   0.202  24.618  13.023
25929W        W91189  21.461  44.930   1.926
25930W        W91190  10.879  26.315  14.007
25931W        W91191  12.306  33.052   0.326
25932W        W91192  25.694  30.029   1.048
25933W        W91193  38.065  16.780   0.271
25934W        W91194  24.977  25.987   2.380
25935W        W91195  18.046  30.478  11.221
25936W        W91196   8.444   2.764   3.277
25937W        W91197   8.212  19.784  11.991
25938W        W91198  10.067   8.724   3.427
25939W        W91199   5.130  35.209  13.545
25940W        W91200  36.650  41.725   1.358
25941W        W91201  29.710   2.316   4.678
25942W        W91202  31.905   4.870  11.127
25943W        W91203  21.516  28.034  13.401
25944W        W91204  37.711  33.383   0.874
25945W        W91205  44.960  31.179  11.997
25946W        W91206  41.859  34.218   4.077
25947W        W91207  35.834  27.971  13.810
25948W        W91208   3.072  15.081  12.182
25949W        W91209   7.365   3.894  13.179
25950W        W91210   6.460   4.946   1.645
25951W        W91211  41.843  26.909  11.904
25952W        W91212  38.208  20.341   1.871
25953W        W91213  22.692  12.465  10.726
25954W        W91214  30.022  41.941  13.093
25955W        W91215  22.895  24.637   2.731
25956W        W91216  14.497  16.731   3.291
25957W        W91217  38.814  15.534  12.070
25958W        W91218  19.110  14.091  13.945
25959W        W91219  10.369  28.160  12.856
25960W        W91220  18.941   6.133   3.760
25961W        W91221   3.462   0.567   4.273
25962W        W91222  33.011   8.335   0.441
25963W        W91223  31.526  32.881  12.043
25964W        W91224   7.893  31.264   1.341
25965W        W91225   8.904  21.744   3.596
25966W        W91226  29.457  18.070   0.372
25967W        W91227  31.604   1.082  14.803
25968W        W91228  22.132  27.587  13.624
25969W        W91229  39.498  18.328  14.565
25970W        W91230  24.613  19.968  12.868
25971W        W91231  36.148  24.032   0.412
25972W        W91232   2.745  13.347   1.800
25973W        W91233  20.025  26.393   1.909
25974W        W91234  21.449   8.367   1.921
25975W        W91235  29.885  13.366  12.162
25976W        W91236  13.782  23.390   4.899
25977W        W91237  35.894  21.378   1.472
25978W        W91238  43.735  40.391  14.797
25979W        W91239   3.255  25.930  14.871
25980W        W91240  41.849  34.758   4.090
25981W        W91241   6.447   9.585  11.114
25982W        W91242  30.884  21.592  12.477
25983W        W91243  15.690  31.488   4.772
25984W        W91244  28.147  29.181  11.124
25985W        W91245   6.749  23.671   1.341
25986W        W91246  24.057  41.074  14.318
25987W        W91247  38.469  14.066  13.471
25988W        W91248  28.230   4.386  14.291
25989W        W91249  16.339   6.199  14.032
25990W        W91250   5.268  27.708   3.224
25991W        W91251  19.111  26.795   0.051
25992W        W91252  23.518  28.081   0.775
25993W        W91253  26.015  20.380   5.321
25994W        W91254  24.026  34.918  14.609
25995W        W91255  22.512  31.493  14.744
25996W        W91256   4.966  25.773   3.729
25997W        W91257  26.486  29.909   3.684
25998W        W91258  20.284  42.876   4.162
25999W        W91259  42.099  37.451  11.689
26000W        W91260  18.844  23.304  14.369
26001W        W91261   8.445  32.094   0.414
26002W        W91262  21.230  32.934   0.887
26003W        W91263   8.862  15.870   2.374
26004W        W91264  25.935   2.731  14.384
26005W        W91265  25.224   3.264  14.788
26006W        W91266  27.594  33.422   4.333
26007W        W91267  31.113  42.853   4.874
26008W        W91268  43.443  40.890   3.995
26009W        W91269   8.654  19.709   0.355
26010W        W91270   9.521  30.917  12.956
26011W        W91271  32.588  40.808   2.336
26012W        W91272  19.831   8.308   0.897
26013W        W91273  26.105   3.255  12.002
26014W        W91274  13.358  21.689  14.497
26015W        W91275  10.630   0.998   4.733
26016W        W91276  31.094   7.789  12.717
26017W        W91277   8.889   5.819  14.843
26018W        W91278   8.113  37.030  12.961
26019W        W91279  13.334  39.675   1.409
26020W        W91280  40.030  44.682   4.914
26021W        W91281  23.215  25.053  14.902
26022W        W91282  20.149  39.960   2.442
26023W        W91283  44.115  28.075  14.486
26024W        W91284  44.533  18.090   0.668
26025W        W91285  36.489  32.497  13.467
26026W        W91286  24.177  25.842   2.087
26027W        W91287  22.159  17.795  12.662
26028W        W91288   6.909  27.628   3.761
26029W        W91289  32.451  34.956  12.186
26030W        W91290  34.566   9.448  13.418
26031W        W91291  19.253  36.127   1.881
26032W        W91292  33.164   4.878   0.859
26033W        W91293   7.324  38.871   2.705
26034W        W91294  24.376  34.828   0.779
26035W        W91295  12.361  20.650   1.286
26036W        W91296  24.741  40.148  10.509
26037W        W91297  12.264   5.812  14.481
26038W        W91298  33.946  38.183  11.817
26039W        W91299  11.175   8.636   1.627
26040W        W91300  41.546   6.872  13.835
26041W        W91301  44.891  36.392  11.344
26042W        W91302  25.962  21.014  14.390
26043W        W91303  39.527   1.700   1.655
26044W        W91304  24.008  25.517   1.717
26045W        W91305  38.976  30.140  10.634
26046W        W91306  12.405  17.223  14.522
26047W        W91307  35.755  12.189  12.007
26048W        W91308   1.896  27.440   0.182
26049W        W91309  34.003  29.080   3.161
26050W        W91310   7.612  27.660   1.875
26051W        W91311  11.100  32.694  11.391
26052W        W91312  24.941  17.322   3.677
26053W        W91313  11.283   8.233  14.551
26054W        W91314  17.209  40.766  13.561
26055W        W91315  12.456  15.909  13.005
26056W        W91316   3.790  23.656   1.872
26057W        W91317   4.486   4.773  10.240
26058W        W91318  28.907  25.531   4.250
26059W        W91319  30.042  19.362  14.358
26060W        W91320  20.245  30.861   4.974
26061W        W91321  36.536  33.727   1.247
26062W        W91322   6.682  39.390  14.955
26063W        W91323   1.081  23.797   1.383
26064W        W91324  26.934  12.519  13.583
26065W        W91325  33.044  23.760   4.659
26066W        W91326  25.034  13.658   2.312
26067W        W91327  14.264  20.054  10.207
26068W        W91328  17.312   0.881   2.865
26069W        W91329  18.965  22.713  13.387
26070W        W91330  18.321   0.460   0.770
26071W        W91331  19.798  14.574   4.516
26072W        W91332  26.025  16.469   3.499
26073W        W91333  43.799  10.765  14.487
26074W        W91334   9.217  27.057   1.744
26075W        W91335  36.271  26.579   5.165
26076W        W91336   3.732  11.611   4.642
26077W        W91337   1.014  24.169  11.167
26078W        W91338  38.332  42.139   4.625
26079W        W91339  16.181  35.329  10.727
26080W        W91340  29.521   4.974  10.539
26081W        W91341  31.165  24.157   2.090
26082W        W91342   7.288   1.610  11.244
26083W        W91343  11.750  30.971   3.674
26084W        W91344   9.159  37.631   3.697
26085W        W91345   4.171  11.370   4.098
26086W        W91346  13.387   1.369   2.304
26087W        W91347  30.916  21.827  12.009
26088W        W91348  38.040  21.196   1.845
26089W        W91349  26.122  27.921   2.413
26090W        W91350  44.454  13.061   2.016
26091W        W91351  12.265  26.512   4.193
26092W        W91352  38.309  13.680   2.313
26093W        W91353  16.437  18.923   4.566
26094W        W91354  16.347  40.117   3.318
26095W        W91355  10.815   6.829  14.454
26096W        W91356  15.039   4.820  14.594
26097W        W91357   3.772  18.699   2.636
26098W        W91358  23.824  43.488   1.910
26099W        W91359  24.179  12.327  12.506
26100W        W91360  26.544  10.804   1.250
26101W        W91361   5.208  15.049   2.519
26102W        W91362   0.434  43.861   1.691
26103W        W91363   7.643  18.176  11.647
26104W        W91364  22.462  26.024   3.658
26105W        W91365  29.201   2.786   3.870
26106W        W91366   3.531  33.180  14.487
26107W        W91367  10.360  26.994  13.585
26108W        W91368  41.603  19.877  10.410
26109W        W91369  39.784  35.982   3.591
26110W        W91370  15.811   5.298  11.944
26111W        W91371  28.962  38.661  10.447
26112W        W91372  35.709  27.496   0.992
26113W        W91373  27.981  38.977  12.256
26114W        W91374  37.046   9.197  12.659
26115W        W91375  14.858  41.307  10.733
26116W        W91376  33.509  13.908   2.374
26117W        W91377  35.558   6.714  13.908
26118W        W91378  12.265  19.706  13.968
26119W        W91379   4.899   3.861  14.683
26120W        W91380  26.947  16.725  11.849
26121W        W91381  10.733   5.487  10.248
26122W        W91382  17.296  15.573  13.446
26123W        W91383  19.276  12.408   3.586
26124W        W91384  36.361   3.989  11.884
26125W        W91385   5.319  37.317  13.848
26126W        W91386  30.365  39.274   2.819
26127W        W91387  20.935   1.539  11.864
26128W        W91388  43.318   0.713  12.580
26129W        W91389  25.823  30.348  12.548
26130W        W91390  12.264  37.615   2.489
26131W        W91391   6.901  22.211  11.999
26132W        W91392  33.629  34.157   0.829
26133W        W91393  19.946  29.936  11.542
26134W        W91394   4.510  14.363  12.856
26135W        W91395  36.969  17.735   1.945
26136W        W91396  40.106  11.348   1.816
26137W        W91397  25.725   1.413   2.289
26138W        W91398   6.980  10.323  10.748
26139W        W91399  30.094  40.225  12.390
26140W        W91400  31.889  31.489   4.516
26141W        W91401  23.096   6.393   0.418
26142W        W91402   7.886  34.433  11.347
26143W        W91403  42.351  12.803   3.079
26144W        W91404  20.780  22.117  13.604
26145W        W91405  15.619  33.815  11.644
26146W        W91406  15.716  28.494   2.207
26147W        W91407  12.834  21.282   0.987
26148W        W91408  38.970  26.707  10.546
26149W        W91409  24.581  23.453  13.566
26150W        W91410  12.425  40.950   0.953
26151W        W91411   2.844  26.493   1.741
26152W        W91412  18.590   3.962  12.080
26153W        W91413  17.192   6.241   4.211
26154W        W91414  40.268  39.950   3.756
26155W        W91415  38.403   3.593  14.239
26156W        W91416  25.173  16.861   0.068
26157W        W91417   5.333   9.350  14.830
26158W        W91418   3.637   5.613   2.788
26159W        W91419  22.677  10.234   1.344
26160W        W91420  31.524  21.748   0.409
26161W        W91421  40.219  13.702  13.206
26162W        W91422   9.904  24.646   0.936
26163W        W91423  31.415  34.788  14.354
26164W        W91424   5.166  38.339   1.233
26165W        W91425   9.307  21.287   0.956
26166W        W91426  32.924  33.394   3.254
26167W        W91427  32.439  11.829  12.939
26168W        W91428   2.710  27.931   2.360
26169W        W91429  39.358  38.324   2.635
26170W        W91430   0.965  13.094   3.213
26171W        W91431   7.244   9.874  13.830
26172W        W91432  28.599  27.641  10.894
26173W        W91433  27.755  19.730   3.724
26174W        W91434  24.051  32.162   0.892
26175W        W91435  30.839  39.962   5.022
26176W        W91436  37.382  40.314   5.079
26177W        W91437   3.269  31.512   1.375
26178W        W91438   9.628  37.410   2.311
26179W        W91439  24.620  34.282   3.274
26180W        W91440  32.427  18.632  14.166
26181W        W91441  18.246  10.053   1.707
26182W        W91442  24.394  19.508  12.936
26183W        W91443   1.020   5.848   0.668
26184W        W91444   8.943  35.242   2.763
26185W        W91445  39.941  11.359  13.732
26186W        W91446  36.469  25.603   1.514
26187W        W91447  37.432  36.122   2.732
26188W        W91448  17.115  41.358  13.964
26189W        W91449  27.712  38.043  14.947
26190W        W91450  30.572  33.214  12.854
26191W        W91451  27.979  31.995   4.863
26192W        W91452  29.245  35.551   0.485
26193W        W91453  11.907   5.448   0.873
26194W        W91454  42.385  23.351   1.720
26195W        W91455  29.353  15.299   1.839
26196W        W91456   3.032   0.468  12.897
26197W        W91457  28.359   7.445   3.555
26198W        W91458  14.705  40.816   2.010
26199W        W91459  14.641   2.787  11.803
26200W        W91460  28.268  19.269  11.148
26201W        W91461   3.957  15.656  13.731
26202W        W91462  21.432   5.645   1.555
26203W        W91463  25.733  21.166   1.766
26204W        W91464  16.198  36.732  13.898
26205W        W91465   5.000   2.844  13.751
26206W        W91466   9.380  40.802   2.166
26207W        W91467  33.086  31.950   2.428
26208W        W91468  23.657  44.898  10.961
26209W        W91469  12.066  22.112   2.220
26210W        W91470  32.068  18.095   1.340
26211W        W91471  28.874  37.822  14.991
26212W        W91472  12.857  36.754  11.152
26213W        W91473  11.173  13.590  11.084
26214W        W91474  17.676  21.005   0.798
26215W        W91475  24.238  11.742   3.359
26216W        W91476  23.116  14.683  12.486
26217W        W91477  26.547  28.208   4.578
26218W        W91478  43.327  19.697   5.014
26219W        W91479  15.817  31.014   1.856
26220W        W91480   5.406  37.305  12.517
26221W        W91481  33.396   9.480  10.833
26222W        W91482  22.059  19.072  11.440
26223W        W91483  30.026   7.835   1.271
26224W        W91484  44.897  34.641   1.258
26225W        W91485  10.137   1.237   0.597
26226W        W91486  32.962   5.141   2.277
26227W        W91487  16.694  32.016   3.019
26228W        W91488  37.907  28.977  14.977
26229W        W91489  41.255   4.904   2.704
26230W        W91490  17.974  29.626  12.448
26231W        W91491  18.127  14.296   4.868
26232W        W91492  11.176   6.504  13.341
26233W        W91493  29.376  40.820   0.328
26234W        W91494  26.168  37.077   3.108
26235W        W91495  33.469  35.917   5.282
26236W        W91496  22.991   6.705  10.742
26237W        W91497  18.556   7.917   4.222
26238W        W91498  23.661   6.421  12.896
26239W        W91499  17.084  31.381   0.797
26240W        W91500   6.677  42.091  12.468
26241W        W91501  11.699  34.065  12.832
26242W        W91502   6.770  31.323   2.349
26243W        W91503  43.438  27.662   3.518
26244W        W91504  14.713   7.278   5.088
26245W        W91505  27.921  41.716  12.503
26246W        W91506  19.132  44.352  13.319
26247W        W91507  40.581  21.706  12.572
26248W        W91508  39.944  18.285  14.290
26249W        W91509  11.148   7.312   3.118
26250W        W91510  37.557   2.373  13.916
26251W        W91511   0.390  31.953   4.799
26252W        W91512  40.908   6.773  14.601
26253W        W91513   9.244  22.260   4.225
26254W        W91514  43.439  32.129   0.940
26255W        W91515  35.640  10.961   1.770
26256W        W91516  31.215  44.639  10.686
26257W        W91517   1.855   5.978   3.815
26258W        W91518  19.702  25.701  10.922
26259W        W91519  26.633  22.158  10.114
26260W        W91520  17.927  42.774   4.458
26261W        W91521   6.344   8.776  10.425
26262W        W91522   9.920  28.288   4.610
26263W        W91523   0.287  13.566   3.779
26264W        W91524   1.576  41.036   0.733
26265W        W91525   2.119  19.105  12.903
26266W        W91526  28.089  13.654  13.091
26267W        W91527   7.472  43.823   2.265
26268W        W91528  39.164  22.554   0.813
26269W        W91529  34.491  38.534  14.919
26270W        W91530  11.040  39.000   1.812
26271W        W91531  11.061  36.131  14.019
26272W        W91532  42.138  15.801  14.372
26273W        W91533   0.226  36.988   0.915
26274W        W91534  43.340  11.251   2.360
26275W        W91535  36.860  38.315   3.669
26276W        W91536  37.728  42.931   0.116
26277W        W91537  26.263  28.509  12.333
26278W        W91538  14.672  32.842  14.832
26279W        W91539  10.680  17.000   9.923
26280W        W91540   4.943  33.945  14.439
26281W        W91541   1.212  22.773  13.812
26282W        W91542  30.187  42.576   0.759
26283W        W91543   9.149   3.320   2.564
26284W        W91544  37.874  14.604   1.837
26285W        W91545  35.906  10.190  11.643
26286W        W91546  38.371  40.451  11.491
26287W        W91547  34.344  10.359  13.831
26288W        W91548  15.512  28.388   1.398
26289W        W91549  22.977  43.486  14.069
26290W        W91550  32.075  20.294  11.570
26291W        W91551  12.619  29.094   1.246
26292W        W91552  24.034  31.451   2.431
26293W        W91553  13.864   1.454  14.753
26294W        W91554  42.881  24.140  14.843
26295W        W91555  28.803  13.240   4.080
26296W        W91556   7.145  36.854  12.127
26297W        W91557  29.067  15.661  11.624
26298W        W91558   7.452  17.638   1.533
26299W        W91559  43.931  20.293  11.739
26300W        W91560  15.329  39.494  13.895
26301W        W91561  30.151  29.706   3.653
26302W        W91562  26.479  39.620   3.737
26303W        W91563  38.905  31.605   1.231
26304W        W91564  22.959  17.744  10.697
26305W        W91565  37.545  31.898  13.766
26306W        W91566  14.245  11.382   3.706
26307W        W91567  37.757  30.812   1.839
26308W        W91568  42.592  40.450   4.556
26309W        W91569  31.388  44.053   0.741
26310W        W91570  41.402  41.956  10.547
26311W        W91571  10.219  11.873  10.759
26312W        W91572   3.034   4.911   2.782
26313W        W91573   9.342   8.241   2.848
26314W        W91574  21.265   7.831   1.282
26315W        W91575  40.853  21.253  13.533
26316W        W91576  42.997   4.662  13.594
26317W        W91577  18.821  42.501  12.984
26318W        W91578  17.899  32.243  11.594
26319W        W91579  16.549   0.299   3.174
26320W        W91580  43.832   0.826  10.392
26321W        W91581  31.834  38.080  12.607
26322W        W91582  33.650  28.204  11.463
26323W        W91583  42.749  16.089   4.133
26324W        W91584  25.046  35.269  14.998
26325W        W91585   0.506  33.677  14.823
26326W        W91586  26.729  12.190   3.169
26327W        W91587   8.808  11.823  12.823
26328W        W91588   5.270  32.919  13.848
26329W        W91589   0.364  19.680   4.677
26330W        W91590  30.004  24.120   3.786
26331W        W91591   3.421  18.230  14.485
26332W        W91592  40.261  44.731  13.907
26333W        W91593  15.540   9.237   2.553
26334W        W91594  34.920  25.966   1.833
26335W        W91595  12.054   9.805   3.821
26336W        W91596  12.453  43.855  11.438
26337W        W91597  22.250   4.726   2.776
26338W        W91598  37.285  27.462   3.669
26339W        W91599  10.606  41.448  14.953
26340W        W91600  23.006   3.843   0.174
26341W        W91601  29.159  29.535   4.621
26342W        W91602   0.898  10.408   0.935
26343W        W91603  36.953  14.837   1.844
26344W        W91604   4.988  39.869   2.718
26345W        W91605  40.440  25.651  10.664
26346W        W91606  35.109  24.252  11.864
26347W        W91607  33.265   8.651   0.994
26348W        W91608  27.988  14.833   9.924
26349W        W91609  14.500  27.465  10.609
26350W        W91610  44.369   2.671  14.888
26351W        W91611  37.493  37.062   2.417
26352W        W91612  22.294  34.488   0.853
26353W        W91613  43.374  29.041  12.492
26354W        W91614   3.782  41.164  14.033
26355W        W91615  41.022  30.460  10.696
26356W        W91616  22.942   3.303   4.682
26357W        W91617   5.804  41.945   4.584
26358W        W91618   4.878  21.018   3.770
26359W        W91619  38.550  41.319  11.048
26360W        W91620  21.652  31.218   1.297
26361W        W91621   3.703  23.572   0.531
26362W        W91622  43.545  17.526   3.599
26363W        W91623  11.387  11.386   4.010
26364W        W91624   7.128  38.847  12.490
26365W        W91625  22.106  14.637  13.518
26366W        W91626  41.556  15.011  13.847
26367W        W91627   5.526  17.571   4.173
26368W        W91628  39.862   1.915  12.032
26369W        W91629  23.467   7.660   3.698
26370W        W91630  39.503  30.083   0.853
26371W        W91631   9.233  35.217   0.963
26372W        W91632  16.367   4.754  11.667
26373W        W91633  27.277  16.801   2.934
26374W        W91634  21.166  12.044  13.133
26375W        W91635  11.387  33.638  14.480
26376W        W91636   3.765  32.900  14.102
26377W        W91637  15.125  16.440  14.922
26378W        W91638   6.400  31.096  12.034
26379W        W91639  27.245   8.803   1.634
26380W        W91640  14.292   8.240   0.835
26381W        W91641  37.049   0.265   0.583
26382W        W91642   6.646  34.288   4.204
26383W        W91643  40.898  31.173   0.564
26384W        W91644  26.086   7.002  14.638
26385W        W91645  28.891   0.084  12.355
26386W        W91646  14.133   3.643   4.408
26387W        W91647  20.209  21.336   3.754
26388W        W91648   7.509  34.950  13.532
26389W        W91649  11.817  21.367   3.565
26390W        W91650  10.062  16.800  13.337
26391W        W91651  22.118  22.255  13.934
26392W        W91652  29.956  31.882  10.511
26393W        W91653  35.783  39.943  10.520
26394W        W91654  44.271  15.658  14.367
26395W        W91655  32.644  42.022   3.208
26396W        W91656  24.496  33.923   1.248
26397W        W91657  26.139   4.174  12.096
26398W        W91658  28.801  14.662   1.066
26399W        W91659  20.113  10.880  10.370
26400W        W91660   2.393   5.267  11.848
26401W        W91661  14.437  29.684  13.722
26402W        W91662  21.095  43.469  11.465
26403W        W91663   3.869  41.101  11.953
26404W        W91664  28.559  35.075  11.655
26405W        W91665  43.427  25.425   4.981
26406W        W91666   3.897  13.298   3.285
26407W        W91667  19.220   5.778   0.323
26408W        W91668  30.590  36.514   0.462
26409W        W91669  44.455  15.185   0.414
26410W        W91670  19.454   5.327  13.518
26411W        W91671  16.886   3.176  13.125
26412W        W91672  21.191  42.764   4.142
26413W        W91673  19.685  24.721   4.142
26414W        W91674  14.809  18.717  13.902
26415W        W91675   2.113   5.673   4.152
26416W        W91676  19.575   7.685   4.058
26417W        W91677  32.862   6.201  11.939
26418W        W91678  36.237  31.076   2.791
26419W        W91679  27.992  27.034  12.940
26420W        W91680  39.462  28.664  11.980
26421W        W91681  20.775  13.225   1.814
26422W        W91682   0.243  32.878   2.743
26423W        W91683   8.269  44.946  13.419
26424W        W91684  11.938  17.125   1.509
26425W        W91685  44.425  41.271   0.694
26426W        W91686  30.614  15.536   1.919
26427W        W91687  31.329  11.862   4.538
26428W        W91688  40.360  30.573   2.622
26429W        W91689  35.071  20.263   1.446
26430W        W91690  23.506  35.014  13.399
26431W        W91691   2.803  36.038  11.448
26432W        W91692  36.556   9.806  13.553
26433W        W91693  36.417  31.662   3.186
26434W        W91694  28.095  18.161   2.283
26435W        W91695  42.856   9.300   4.223
26436W        W91696   5.221  10.612  11.969
26437W        W91697  42.584  41.880  11.917
26438W        W91698   7.499   2.387   4.129
26439W        W91699  20.321  25.671  13.476
26440W        W91700  26.672  16.190  14.937
26441W        W91701  16.010  35.030   0.451
26442W        W91702   8.718  33.480  11.404
26443W        W91703  35.183   7.078  13.982
26444W        W91704  39.529  13.884   3.095
26445W        W91705  22.924   4.988  13.331
26446W        W91706  32.371  38.738  14.983
26447W        W91707  40.017  21.291   0.500
26448W        W91708   6.926  29.649  12.345
26449W        W91709   8.275  13.322  12.617
26450W        W91710  43.034  27.126   1.636
26451W        W91711  44.273   9.277   1.683
26452W        W91712  15.575  44.388   3.900
26453W        W91713  16.851  41.988  14.877
26454W        W91714   7.731  27.164   2.780
26455W        W91715  44.836  19.279  10.563
26456W        W91716   0.420  21.946  11.883
26457W        W91717   5.162  40.225   4.168
26458W        W91718  19.194  10.273   1.234
26459W        W91719   1.934   8.274   3.722
26460W        W91720  16.532  41.077   0.992
26461W        W91721  31.420  18.622  12.607
26462W        W91722  15.768  36.997  13.778
26463W        W91723  19.622  18.116  13.418
26464W        W91724   3.402  33.122   0.405
26465W        W91725  39.189  22.864   4.902
26466W        W91726  27.905   2.145  10.531
26467W        W91727  11.739  17.276   2.887
26468W        W91728  25.628  24.967   1.853
26469W        W91729  40.973  23.232   2.881
26470W        W91730  19.690  36.112   0.248
26471W        W91731  23.543  41.070   1.488
26472W        W91732  43.353   0.342  10.516
26473W        W91733  13.703  43.497   0.878
26474W        W91734  17.610  21.703   3.684
26475W        W91735   5.053  14.599  10.361
26476W        W91736  41.290   1.568   2.345
26477W        W91737  28.703  18.754  13.747
26478W        W91738   6.682   6.986  12.532
26479W        W91739  18.111  29.075   1.863
26480W        W91740  31.534  44.985   4.582
26481W        W91741  16.277  28.527  13.524
26482W        W91742  29.061  27.765  11.118
26483W        W91743  30.683  38.852   0.343
26484W        W91744   5.619  32.959  13.393
26485W        W91745  40.913   3.529  12.086
26486W        W91746  16.835  12.267  14.560
26487W        W91747  25.623  26.331  14.274
26488W        W91748  22.722  42.899  14.749
26489W        W91749  16.094  44.613  11.231
26490W        W91750  38.282   4.528  13.357
26491W        W91751  25.958  22.522   1.654
26492W        W91752  28.185  39.802   2.226
26493W        W91753  25.818  29.102  11.302
26494W        W91754  13.194  27.299   1.219
26495W        W91755  36.600  41.292   3.638
26496W        W91756  41.475   1.199   2.062
26497W        W91757  44.583  25.652   1.655
26498W        W91758  37.833   4.894  14.603
26499W        W91759  29.229  40.124  12.470
26500W        W91760  41.116  23.762   0.383
26501W        W91761  29.607  24.276  12.530
26502W        W91762   4.669  27.952   1.223
26503W        W91763  19.267  40.786  14.528
26504W        W91764  15.387   0.830   0.318
26505W        W91765  23.495  27.149  14.468
26506W        W91766   9.947  14.981   2.837
26507W        W91767  20.292  39.566  12.891
26508W        W91768   7.917  10.165   4.185
26509W        W91769  33.375  34.903   2.636
26510W        W91770  27.306   5.880  14.402
26511W        W91771  37.406  24.237  14.940
26512W        W91772   8.827  31.290  12.530
26513W        W91773   6.900  39.779   3.971
26514W        W91774  37.590  31.107   5.176
26515W        W91775  41.023   9.885   4.615
26516W        W91776   9.592   3.119  14.020
26517W        W91777  14.676  10.547   3.593
26518W        W91778  40.419  27.373   1.750
26519W        W91779  42.976   2.606   4.989
26520W        W91780   8.697  42.275  11.172
26521W        W91781  26.197  23.134  10.734
26522W        W91782   6.277   9.603   1.830
26523W        W91783  17.716  15.255   0.646
26524W        W91784  10.854  39.007   2.321
26525W        W91785   5.946   6.431  12.480
26526W        W91786  14.826  30.603   3.267
26527W        W91787   0.700  31.972   5.199
26528W        W91788  27.859  21.718   2.484
26529W        W91789   1.283  13.399   0.748
26530W        W91790  11.163  11.936  13.875
26531W        W91791  40.007  10.707   0.007
26532W        W91792  20.961  44.944   1.973
26533W        W91793  24.518  40.294   2.312
26534W        W91794  27.485  41.483  12.699
26535W        W91795  33.015  26.270  12.194
26536W        W91796  14.298  38.691   2.213
26537W        W91797  43.524  20.279  14.179
26538W        W91798  40.928  27.954  10.675
26539W        W91799  24.572   0.403  11.355
26540W        W91800  16.213  21.298   0.489
26541W        W91801  13.918  27.482   5.009
26542W        W91802   0.915  37.797   2.547
26543W        W91803  11.906   7.264  13.380
26544W        W91804  36.619  18.070  13.385
26545W        W91805  27.156  19.758   4.098
26546W        W91806  31.558  43.039   4.717
26547W        W91807  23.899  32.507  14.436
26548W        W91808  44.284   3.839  10.927
26549W        W91809  34.585  35.869   3.224
26550W        W91810  20.206  12.478   3.507
26551W        W91811  44.344  38.026  12.396
26552W        W91812  27.448  10.913   2.472
26553W        W91813  12.681  32.877  14.458
26554W        W91814  29.381  15.623  12.032
26555W        W91815  29.422  37.673  13.441
26556W        W91816  27.003  33.519  12.382
26557W        W91817  21.391  12.190   4.562
26558W        W91818  19.629  12.158  14.339
26559W        W91819  24.413  23.567   2.414
26560W        W91820   6.441   2.273  10.649
26561W        W91821   7.493  23.060  12.079
26562W        W91822   5.937  38.930   9.959
26563W        W91823  23.742  41.419   1.825
26564W        W91824  25.527  22.502   0.880
26565W        W91825  41.486  33.901   2.345
26566W        W91826  36.963  38.218  10.652
26567W        W91827  30.941   9.742  11.569
26568W        W91828  33.906  30.856   1.257
26569W        W91829   3.869   9.236  14.110
26570W        W91830  13.238   1.217   3.267
26571W        W91831  13.573   6.473  12.353
26572W        W91832  41.301  33.341   3.243
26573W        W91833  10.898  28.341  11.068
26574W        W91834  21.006  21.415   3.644
26575W        W91835  23.728   4.968  14.386
26576W        W91836   9.605  42.448   3.111
26577W        W91837  30.540   9.310   3.551
26578W        W91838   7.831  26.134   3.623
26579W        W91839  29.559  24.530   3.131
26580W        W91840  24.667  33.135   2.189
26581W        W91841  22.276  22.502   2.834
26582W        W91842  44.284   1.803  12.896
26583W        W91843  36.112  27.647  14.101
26584W        W91844   3.818  20.541   2.278
26585W        W91845  27.305   7.281   1.417
26586W        W91846  25.018   8.266   0.696
26587W        W91847   3.925  43.015   4.255
26588W        W91848  12.575  13.175   3.627
26589W        W91849  27.809  30.648  13.437
26590W        W91850   2.349  32.088   0.761
26591W        W91851  33.512  16.620  12.488
26592W        W91852  43.301   1.708   1.223
26593W        W91853  41.931   7.887   1.953
26594W        W91854  20.591  35.178   2.376
26595W        W91855  13.084  39.033   4.561
26596W        W91856  16.956  42.393  10.683
26597W        W91857   1.836  36.279   4.069
26598W        W91858  35.335  22.087  11.240
26599W        W91859  22.217  33.632   0.727
26600W        W91860   0.898  39.905   0.263
26601W        W91861  18.727  24.681  13.522
26602W        W91862   1.724   1.483   2.652
26603W        W91863  34.664   3.435  14.403
26604W        W91864  30.380  40.294  14.485
26605W        W91865   5.207  28.945  14.908
26606W        W91866  35.817  17.183   2.669
26607W        W91867  24.087   8.993   4.764
26608W        W91868  23.014  17.778   2.779
26609W        W91869  33.490   5.229   3.382
26610W        W91870   0.279   0.282   4.102
26611W        W91871   6.307  22.620   3.091
26612W        W91872  36.445   5.668   2.181
26613W        W91873   6.507  18.618   0.424
26614W        W91874   1.154  11.460  13.510
26615W        W91875  43.084  33.227   5.088
26616W        W91876  11.253  30.587   1.252
26617W        W91877  15.474   0.296  13.448
26618W        W91878  28.493  37.922  11.492
26619W        W91879  29.305  36.418  11.228
26620W        W91880  28.409  13.673  11.674
26621W        W91881  28.994   2.030  14.838
26622W        W91882   4.681   8.130   0.181
26623W        W91883  10.036  27.432   9.796
26624W        W91884  35.359  30.067  13.543
26625W        W91885  17.246  41.967  10.314
26626W        W91886  38.983  30.053   2.571
26627W        W91887   1.489  32.573  14.063
26628W        W91888  28.345  20.311  12.613
26629W        W91889   7.156  16.784  10.753
26630W        W91890  40.498  25.974  13.990
26631W        W91891  20.065   0.062   0.911
26632W        W91892  14.746  38.909   0.982
26633W        W91893  18.010  26.666   4.939
26634W        W91894  22.918  40.713   0.651
26635W        W91895  27.308  10.866  12.966
26636W        W91896  27.839  28.273   2.063
26637W        W91897  36.287  22.600   2.220
26638W        W91898  30.975   2.309   2.327
26639W        W91899   4.774  17.994  14.009
26640W        W91900  23.203  24.760   0.329
26641W        W91901   9.443  22.616   3.876
26642W        W91902  10.178   2.230   1.461
26643W        W91903  44.976  34.369  12.957
26644W        W91904  40.873  43.824  14.514
26645W        W91905  25.989  17.484  14.894
26646W        W91906   5.335  12.230  11.631
26647W        W91907   2.816  13.108   2.283
26648W        W91908   3.725  30.521   1.370
26649W        W91909  14.340  19.716  14.317
26650W        W91910  16.363  20.779   2.997
26651W        W91911  15.870  28.970   2.345
26652W        W91912   9.159  17.007   1.833
26653W        W91913   7.897  26.888  12.188
26654W        W91914  23.959   9.907  10.329
26655W        W91915   3.972   8.368   2.368
26656W        W91916  39.052  10.162  10.844
26657W        W91917   1.744  15.827  11.470
26658W        W91918  32.359  19.284   3.394
26659W        W91919  39.388  22.910  12.091
26660W        W91920  43.346  44.290   2.283
26661W        W91921   4.289   1.526   2.760
26662W        W91922  14.443   9.531  12.265
26663W        W91923  13.758  30.059   4.641
26664W        W91924   2.872  32.437   3.183
26665W        W91925  29.986  42.591  11.166
26666W        W91926  15.885  14.401  11.566
26667W        W91927  43.833  30.119  12.001
26668W        W91928  44.411   0.006  12.511
26669W        W91929  15.232   2.057   4.046
26670W        W91930  17.502   2.223  12.608
26671W        W91931  21.708   8.375  14.960
26672W        W91932   4.466  22.220   4.184
26673W        W91933  43.516  35.402   1.911
26674W        W91934  21.483  13.328  13.128
26675W        W91935  15.013  16.067   2.822
26676W        W91936  27.902  15.734  12.143
26677W        W91937  43.835  31.915  11.901
26678W        W91938   7.162  37.883  13.968
26679W        W91939   2.309  11.355  13.396
26680W        W91940   8.458   9.818  14.387
26681W        W91941   1.869  31.892   1.647
26682W        W91942  43.322  41.999   3.917
26683W        W91943  42.339  43.963   1.772
26684W        W91944  27.443  12.593  14.373
26685W        W91945  41.265  26.191  14.473
26686W        W91946  41.932   4.680   4.985
26687W        W91947  35.153  42.127  10.715
26688W        W91948  28.550  40.939  12.548
26689W        W91949  37.535  19.526   3.649
26690W        W91950  21.158  17.599  10.273
26691W        W91951  30.974  22.912  10.484
26692W        W91952   6.151   0.554   2.285
26693W        W91953   9.813  20.949  12.063
26694W        W91954  26.960  20.890  13.822
26695W        W91955  35.255  39.622  13.012
26696W        W91956  11.817  18.832   2.295
26697W        W91957   9.841  27.585  11.420
26698W        W91958  32.857  20.840   2.878
26699W        W91959   9.600   6.463  14.973
26700W        W91960   6.831  41.861   1.803
26701W        W91961   6.951  34.592  14.307
26702W        W91962  21.118   7.701   3.203
26703W        W91963   6.655  43.747  13.777
26704W        W91964  22.733  28.419   0.510
26705W        W91965  27.511  13.275   0.235
26706W        W91966  37.601  45.000   1.177
26707W        W91967  11.364  19.815   4.798
26708W        W91968  26.025   9.128  12.033
26709W        W91969  24.434  40.325  11.893
26710W        W91970  36.585   5.231  11.514
26711W        W91971  37.219  38.462  12.018
26712W        W91972  35.398  28.077  11.636
26713W        W91973   4.220  12.708   2.739
26714W        W91974   3.635   3.244   5.034
26715W        W91975  11.939   2.090  11.708
26716W        W91976   8.249  39.555  13.520
26717W        W91977  44.996  28.593  12.523
26718W        W91978  13.336  25.859   1.673
26719W        W91979  23.991   4.790  13.482
26720W        W91980  27.210  19.482   0.280
26721W        W91981  21.517  10.647  14.921
26722W        W91982  33.568  19.663  14.890
26723W        W91983  14.322  31.021  14.758
26724W        W91984   0.887  44.755  12.315
26725W        W91985  17.495   4.679   2.298
26726W        W91986   7.763  44.999   0.750
26727W        W91987  42.507  18.754   0.008
26728W        W91988  28.646  23.999   0.474
26729W        W91989  29.459  37.436  12.579
26730W        W91990  25.045  44.936   3.356
26731W        W91991   3.594  41.522   0.544
26732W        W91992  18.580   6.674  12.132
26733W        W91993  26.996  32.883  11.138
26734W        W91994   6.396  14.602   2.758
26735W        W91995  22.554  15.525   1.265
26736W        W91996  36.966  40.403   3.963
26737W        W91997  11.384   9.229  14.490
26738W        W91998  22.522  44.025   3.738
26739W        W91999  44.331   5.712  11.659
26740W        W92000  43.817  39.797   0.227
26741W        W92001  44.501  39.594   1.928
26742W        W92002  32.278  39.783  12.231
26743W        W92003  16.867  38.444  14.021
26744W        W92004  40.953  33.572  11.631
26745W        W92005  11.103  16.108  10.700
26746W        W92006   8.121  38.947  10.692
26747W        W92007  13.874  11.165   0.099
26748W        W92008   3.800  18.184   2.773
26749W        W92009  42.038   3.911   0.752
26750W        W92010  10.729  21.292  12.449
26751W        W92011  10.137  31.107   2.292
26752W        W92012  40.420  44.507  13.459
26753W        W92013   3.757  23.609  10.948
26754W        W92014  29.248  28.070   3.894
26755W        W92015  25.092   0.927   4.282
26756W        W92016  11.609  36.895   3.133
26757W        W92017  44.793  13.031   2.728
26758W        W92018  40.824  39.880   0.587
26759W        W92019  37.851  14.385  12.348
26760W        W92020  15.938  34.922   4.102
26761W        W92021  35.262  43.177  12.893
26762W        W92022  36.135  15.006  13.586
26763W        W92023  19.921  41.758   4.558
26764W        W92024  40.858   7.094   0.876
26765W        W92025   8.606   6.260  12.222
26766W        W92026   8.872  31.702   0.914
26767W        W92027  34.989  42.454   2.246
26768W        W92028  21.584   6.427   3.509
26769W        W92029  44.827   7.295   4.244
26770W        W92030  41.131  23.317  11.710
26771W        W92031   6.360  39.357   1.624
26772W        W92032  13.613  42.023  12.448
26773W        W92033  43.629   0.383  11.554
26774W        W92034  36.098  21.279   5.020
26775W        W92035  20.994  40.311   4.021
26776W        W92036  36.301  39.235   0.021
26777W        W92037  32.143  30.157  12.058
26778W        W92038  12.118  14.437  13.862
26779W        W92039  32.109  42.473  10.967
26780W        W92040  10.225  23.198  12.899
26781W        W92041  27.586  11.289  13.151
26782W        W92042  20.310   7.250   2.705
26783W        W92043   8.791  41.616  11.931
26784W        W92044   8.586  44.281   0.629
26785W        W92045  26.580   8.886   2.070
26786W        W92046   2.791  21.486  14.775
26787W        W92047   2.370  36.919  10.678
26788W        W92048  44.588   8.529  13.819
26789W        W92049   8.213  31.403  11.868
26790W        W92050  33.659  26.691  13.340
26791W        W92051  14.716  12.000  14.398
26792W        W92052  41.004  35.087   3.271
26793W        W92053  19.568  28.079  14.296
26794W        W92054  23.471   5.069   1.340
26795W        W92055   1.752  15.087  12.086
26796W        W92056  10.633   3.450   3.681
26797W        W92057  44.822  24.088   2.179
26798W        W92058   9.388  16.450  14.925
26799W        W92059   4.187  29.785   4.725
26800W        W92060  26.001  25.437  11.247
26801W        W92061  14.309  41.355   3.863
26802W        W92062  12.819   1.012  14.370
26803W        W92063  12.317  20.292  14.285
26804W        W92064  12.410  13.710   3.694
26805W        W92065   6.357  32.670   3.099
26806W        W92066  11.047   3.338  14.394
26807W        W92067  12.733  34.935  14.311
26808W        W92068  37.413   5.910  13.321
26809W        W92069  13.176  15.297  12.482
26810W        W92070  16.496  18.673   2.810
26811W        W92071  30.870   3.949  12.857
26812W        W92072   4.705   3.529  12.782
26813W        W92073  44.095   0.941   4.576
26814W        W92074   5.900  43.590  14.946
26815W        W92075  16.963  28.679   4.571
26816W        W92076  26.198  31.598  10.708
26817W        W92077   6.862  40.201  12.895
26818W        W92078  27.693  20.409  12.897
26819W        W92079  11.738  10.820  12.593
26820W        W92080   0.942  22.961  12.547
26821W        W92081   9.350   1.907  12.041
26822W        W92082   1.882  22.315  13.510
26823W        W92083  14.886   1.518  14.856
26824W        W92084  23.113  24.696   2.268
26825W        W92085  33.140   9.933  13.735
26826W        W92086  35.136  18.122   3.318
26827W        W92087  25.225   3.452  10.477
26828W        W92088   6.200  38.949   3.417
26829W        W92089  19.441  42.399  10.456
26830W        W92090  17.155  27.165   3.685
26831W        W92091   5.458  13.065   3.587
26832W        W92092  13.838  13.789  14.314
26833W        W92093  36.178  43.755   1.879
26834W        W92094  41.890  21.210   0.416
26835W        W92095  26.575   7.858   2.282
26836W        W92096  28.127  21.975  12.013
26837W        W92097  17.756  23.976   0.971
26838W        W92098  37.762   6.382   1.359
26839W        W92099  31.984  44.881   4.922
26840W        W92100  37.343  43.768  10.621
26841W        W92101  20.185   4.937  13.335
26842W        W92102   0.845  10.133  13.160
26843W        W92103   9.521   9.373  12.049
26844W        W92104  25.033  42.334  13.393
26845W        W92105   4.654  40.464  13.476
26846W        W92106  41.807  19.129   3.289
26847W        W92107  40.311   9.040  12.511
26848W        W92108  15.320   8.519  14.896
26849W        W92109   4.352  20.579  10.821
26850W        W92110  34.955  15.647   9.762
26851W        W92111  34.544  17.829   2.481
26852W        W92112   7.346  16.084   2.711
26853W        W92113   5.977  20.279   3.314
26854W        W92114  42.492  39.666  10.897
26855W        W92115  15.466   3.181   4.376
26856W        W92116  36.836  15.628   3.744
26857W        W92117  22.656   9.686  13.414
26858W        W92118   9.062   8.672   2.716
26859W        W92119  15.651  28.809   5.038
26860W        W92120  27.329   3.004   9.901
26861W        W92121  25.174  12.740   0.426
26862W        W92122  18.840   9.123  14.281
26863W        W92123  31.869  34.976  12.694
26864W        W92124   3.907  11.826  13.906
26865W        W92125  36.291  30.567  12.214
26866W        W92126   2.607  23.579  11.510
26867W        W92127  18.088  15.707   1.361
26868W        W92128  13.620  36.426  14.909
26869W        W92129   4.115  32.904  12.129
26870W        W92130   6.967  24.148   4.134
26871W        W92131  31.521  14.951   3.846
26872W        W92132  32.733  40.886  13.603
26873W        W92133  43.855   0.326   4.009
26874W        W92134  16.497   3.545   0.916
26875W        W92135  11.013  44.448  12.907
26876W        W92136  42.877   4.856  11.233
26877W        W92137  40.396  23.056   0.313
26878W        W92138  18.606   2.343   4.316
26879W        W92139   1.947  34.166   1.213
26880W        W92140  10.860  22.959   2.355
26881W        W92141   9.896  28.106  11.634
26882W        W92142  20.515   7.952   2.281
26883W        W92143  33.395  37.819  13.669
26884W        W92144  14.592  32.855  11.113
26885W        W92145  28.088  25.264   3.069
26886W        W92146   3.208  39.425  14.911
26887W        W92147   0.815  40.086  14.197
26888W        W92148  44.483  14.654   3.650
26889W        W92149  30.716  22.361   2.634
26890W        W92150  19.044  29.654   0.835
26891W        W92151  15.345  30.621   3.251
26892W        W92152   3.461  27.734  12.450
26893W        W92153  14.810  12.103  13.003
26894W        W92154  42.775  17.751  10.678
26895W        W92155  13.246  32.320  12.725
26896W        W92156   8.142  33.093   3.279
26897W        W92157  23.111  36.699   0.464
26898W        W92158   0.877  37.873   0.330
26899W        W92159   6.938  25.936   0.489
26900W        W92160   6.840  28.358  14.852
26901W        W92161  23.232  25.537  14.050
26902W        W92162  18.851  27.986  14.876
26903W        W92163  20.208  36.841  10.625
26904W        W92164  37.502  36.582   2.123
26905W        W92165  10.619  12.155   3.268
26906W        W92166   2.900  13.686  11.452
26907W        W92167  16.292  40.999  13.359
26908W        W92168   2.016   0.291   3.631
26909W        W92169  30.613  21.179  13.090
26910W        W92170  41.632  24.507   3.306
26911W        W92171  23.742  17.278   2.160
26912W        W92172  35.650  26.554   2.446
26913W        W92173  10.293  36.905   0.412
26914W        W92174  32.062  44.195  11.591
26915W        W92175  34.553   4.705   3.204
26916W        W92176   0.520  39.483   0.977
26917W        W92177  30.174  30.244  13.059
26918W        W92178  21.698   1.457   2.849
26919W        W92179  18.332   5.935   0.023
26920W        W92180   4.353  15.356   3.490
26921W        W92181  28.234  33.671   2.197
26922W        W92182  17.793  12.746  13.878
26923W        W92183   7.173  22.193   3.587
26924W        W92184  24.535   8.539   3.226
26925W        W92185  21.214  20.508   5.520
26926W        W92186  40.020  35.567   3.945
26927W        W92187  44.258  24.240   4.630
26928W        W92188  32.445  38.219  14.982
26929W        W92189  43.537  30.407   3.806
26930W        W92190   7.646  24.931  10.953
26931W        W92191   4.985   8.942  13.392
26932W        W92192  34.630   7.749  14.499
26933W        W92193  30.684   4.121  11.169
26934W        W92194  39.096  14.019   4.105
26935W        W92195  29.430  29.473  12.250
26936W        W92196  15.129  44.451   2.394
26937W        W92197   8.347  43.042   3.760
26938W        W92198   3.146  12.511  10.452
26939W        W92199  41.873  20.130   2.464
26940W        W92200  43.411  20.813   3.078
26941W        W92201  29.385  44.299   2.930
26942W        W92202   8.900  33.625  13.568
26943W        W92203   7.926  43.978  13.479
26944W        W92204   9.747  20.192  11.158
26945W        W92205  26.597  31.843  11.147
26946W        W92206  37.874  25.058   4.679
26947W        W92207  32.119  37.310   2.681
26948W        W92208  24.565  23.022  13.946
26949W        W92209  20.860  20.767   4.738
26950W        W92210  21.610  43.235  12.946
26951W        W92211  40.268  43.836   0.755
26952W        W92212  19.007  23.434   4.234
26953W        W92213   1.184  17.680   3.141
26954W        W92214  11.284  26.508  14.742
26955W        W92215  34.543   0.427   1.048
26956W        W92216   8.280  12.600   0.351
26957W        W92217  21.171  27.401   3.418
26958W        W92218  23.599   6.762   2.714
26959W        W92219  41.486  26.714  10.673
26960W        W92220  28.591   8.705   5.302
26961W        W92221   7.152  44.771  14.347
26962W        W92222  29.520  26.508   0.803
26963W        W92223  21.099  38.385   0.729
26964W        W92224   3.861  36.641   4.255
26965W        W92225  30.371  30.820  12.664
26966W        W92226  32.200  15.684  10.293
26967W        W92227  11.323  22.138   2.497
26968W        W92228  30.220   3.355   2.241
26969W        W92229  35.607  41.291  12.960
26970W        W92230  17.447  33.498  11.590
26971W        W92231  16.579   1.640   1.882
26972W        W92232  36.904  22.100   1.656
26973W        W92233  25.521   9.078  13.612
26974W        W92234  43.329  16.498  13.431
26975W        W92235  26.901  10.307   2.798
26976W        W92236  21.375  32.473   1.723
26977W        W92237   3.318  38.946  14.741
26978W        W92238  21.942  21.141  14.436
26979W        W92239  15.133  32.804   0.754
26980W        W92240  31.984   0.813  12.895
26981W        W92241  10.371  25.035  14.523
26982W        W92242  18.998  26.339   0.230
26983W        W92243  15.558  16.777   2.367
26984W        W92244   3.901  35.566  14.314
26985W        W92245  38.401  10.853   1.532
26986W        W92246  37.925  30.355  12.484
26987W        W92247  34.967  20.789   0.590
26988W        W92248  29.626   7.788   4.781
26989W        W92249   5.406  34.087  11.158
26990W        W92250  37.262  28.893   3.647
26991W        W92251  35.896  20.601  12.899
26992W        W92252  23.202  26.631  12.127
26993W        W92253  30.633  39.516  11.743
26994W        W92254  17.328  22.620   1.311
26995W        W92255  22.055  17.499   4.172
26996W        W92256  33.740   3.270   4.566
26997W        W92257   8.929  11.548   2.279
26998W        W92258  20.064  25.160  13.383
26999W        W92259  10.902  33.580  14.293
27000W        W92260   4.512  27.857  13.967
27001W        W92261  39.330   7.533   1.428
27002W        W92262   5.895  30.390  14.892
27003W        W92263  35.141  16.573   3.022
27004W        W92264  33.887  27.875   3.676
27005W        W92265   2.560  42.476  10.984
27006W        W92266  18.401  27.991  11.976
27007W        W92267  38.534  27.175  12.891
27008W        W92268   9.637  13.480   2.171
27009W        W92269  37.986  24.776   5.091
27010W        W92270  21.171  29.464  13.423
27011W        W92271  35.606   6.881  13.044
27012W        W92272  43.354  40.275   1.632
27013W        W92273   5.429  32.114  12.072
27014W        W92274  27.072  11.719   0.461
27015W        W92275  42.896  10.699   5.166
27016W        W92276   3.769  20.513  12.448
27017W        W92277   7.512  36.869   0.478
27018W        W92278  42.365  29.726   1.358
27019W        W92279  35.285   7.972  10.971
27020W        W92280   9.445  18.958  11.997
27021W        W92281   8.366  29.294   3.226
27022W        W92282  39.505  17.055  12.480
27023W        W92283  17.727  28.681  13.993
27024W        W92284  17.922  21.152  11.727
27025W        W92285  35.072  32.668   3.339
27026W        W92286  13.797  11.403   1.484
27027W        W92287  39.485  19.733   1.938
27028W        W92288  41.521  14.280  13.401
27029W        W92289  37.086  33.056   1.259
27030W        W92290  11.392  21.479  11.076
27031W        W92291  42.019  31.362  13.241
27032W        W92292  18.676  24.005  12.814
27033W        W92293   3.755  12.847   2.375
27034W        W92294   3.345  44.704   3.370
27035W        W92295   8.752  20.119   0.734
27036W        W92296   7.155  30.968  13.997
27037W        W92297  15.025  24.592  14.260
27038W        W92298  29.947  30.561   1.398
27039W        W92299   8.360  12.289   2.217
27040W        W92300  41.829  26.094  13.392
27041W        W92301  25.938  38.341   1.786
27042W        W92302   7.201  17.906   2.668
27043W        W92303   1.547  14.742   0.440
27044W        W92304   3.638  14.794   3.060
27045W        W92305  32.106   5.528  11.545
27046W        W92306  20.878   8.240   3.424
27047W        W92307  37.337  42.709   3.388
27048W        W92308  34.591   4.682  10.676
27049W        W92309   4.886  36.067  13.412
27050W        W92310   8.599  14.823   4.371
27051W        W92311  42.419  44.755   1.396
27052W        W92312   9.308   4.905  11.100
27053W        W92313   8.090  21.377   1.439
27054W        W92314  18.087  29.986  11.185
27055W        W92315   2.080  34.392   4.011
27056W        W92316  40.907  21.368  12.239
27057W        W92317   9.796  24.193  10.307
27058W        W92318   6.467  29.938  13.155
27059W        W92319  19.816   9.368  13.453
27060W        W92320   0.328   4.266   2.209
27061W        W92321  21.573  11.669   2.390
27062W        W92322  43.477  17.789   3.164
27063W        W92323  26.504  26.173  12.264
27064W        W92324  36.921  23.414   2.292
27065W        W92325  37.519  37.144   1.458
27066W        W92326   4.015  10.689  13.479
27067W        W92327  21.633  17.529  14.404
27068W        W92328  34.457  12.986  12.017
27069W        W92329  22.100   2.518   0.279
27070W        W92330  22.399   8.132  11.975
27071W        W92331  24.186  20.429  11.642
27072W        W92332  36.406  32.192   4.473
27073W        W92333   0.838   7.712  11.658
27074W        W92334  20.988  34.535  12.380
27075W        W92335  34.153  26.797   4.467
27076W        W92336  25.999  25.945  11.603
27077W        W92337  39.341  26.072   0.510
27078W        W92338   3.824  43.572  14.836
27079W        W92339  22.941  44.969  12.088
27080W        W92340  20.049   2.476   1.891
27081W        W92341  36.339  19.313   2.220
27082W        W92342  12.216  42.773   2.808
27083W        W92343   4.403  25.553  11.947
27084W        W92344  33.570  36.275   0.248
27085W        W92345   5.811  27.445   1.261
27086W        W92346  15.077  39.083   2.473
27087W        W92347  38.397  29.545  12.958
27088W        W92348  43.314  26.927   0.679
27089W        W92349   5.933  11.586  11.076
27090W        W92350  38.427  44.724   2.627
27091W        W92351  39.294  27.563   2.875
27092W        W92352   6.814  22.274  12.509
27093W        W92353   7.864  30.413  11.396
27094W        W92354  14.257  13.716  12.370
27095W        W92355  43.124  28.018  11.409
27096W        W92356  44.831   3.924   1.729
27097W        W92357  32.360   3.810   2.649
27098W        W92358   3.314   9.778  12.987
27099W        W92359  29.705   0.344   2.127
27100W        W92360   5.251  23.015   0.941
27101W        W92361  37.872  24.161   2.726
27102W        W92362  33.904  27.990   0.100
27103W        W92363  43.032   9.866  13.343
27104W        W92364   0.556  44.411  12.978
27105W        W92365   2.892  40.446   4.500
27106W        W92366   1.747  17.976   4.210
27107W        W92367  10.503  44.282   0.584
27108W        W92368  17.506   2.845  11.209
27109W        W92369  17.157  40.613  13.026
27110W        W92370  32.012  35.145  11.484
27111W        W92371  30.967  31.125   2.376
27112W        W92372   7.597   6.381   1.245
27113W        W92373  34.045  18.514   0.331
27114W        W92374  10.869  16.517   0.707
27115W        W92375  43.834  37.489   1.983
27116W        W92376  43.867  35.751   2.412
27117W        W92377  11.764  29.675   0.070
27118W        W92378  29.997   9.621  13.852
27119W        W92379   2.741  35.023  14.557
27120W        W92380   7.599  37.815  12.216
27121W        W92381  44.662  39.471   3.194
27122W        W92382  41.919  40.600  10.216
27123W        W92383  21.322   5.292  13.984
27124W        W92384  37.589  26.728  10.557
27125W        W92385  31.620  34.700   3.286
27126W        W92386  37.524   3.701   1.702
27127W        W92387   3.162  38.540   0.033
27128W        W92388  13.935  14.705  11.650
27129W        W92389  11.913   8.660  12.325
27130W        W92390  29.942  17.611  12.668
27131W        W92391  37.938  18.964  13.509
27132W        W92392   7.894   4.696   1.691
27133W        W92393  35.101  11.564   2.186
27134W        W92394  28.982  37.576   0.426
27135W        W92395  37.386   4.409  13.533
27136W        W92396  41.550  36.002  13.022
27137W        W92397  25.994  40.935  13.600
27138W        W92398  10.690  42.393  12.613
27139W        W92399  42.976  31.357   3.262
27140W        W92400  30.997  41.856   0.821
27141W        W92401  41.209   3.853  10.739
27142W        W92402  19.639  23.715  12.596
27143W        W92403  15.531  42.818  14.156
27144W        W92404  10.771  33.320  14.732
27145W        W92405  39.132  39.054  10.197
27146W        W92406  30.117   1.020   1.901
27147W        W92407  35.106   4.826   1.305
27148W        W92408  24.355  23.141  11.061
27149W        W92409  36.392  36.923   4.266
27150W        W92410  38.956  20.956  13.430
27151W        W92411   3.497  27.890   1.703
27152W        W92412  19.080  25.217   4.119
27153W        W92413  34.108  25.119   3.748
27154W        W92414  14.120  21.750   2.768
27155W        W92415  10.050   4.384  11.561
27156W        W92416  41.097   3.792  11.664
27157W        W92417   6.406  10.756  13.822
27158W        W92418   7.946  44.729  13.975
27159W        W92419  34.139  39.412  12.371
27160W        W92420  19.141   7.929   3.921
27161W        W92421   7.072  35.170   2.393
27162W        W92422  38.748   9.188   1.407
27163W        W92423  20.222  32.456  12.421
27164W        W92424  24.243  13.449  12.067
27165W        W92425  27.982  26.205   3.248
27166W        W92426   7.729  15.281   1.017
27167W        W92427  10.388  35.557  12.030
27168W        W92428  23.031  17.177  12.447
27169W        W92429  35.561  27.038   0.793
27170W        W92430  34.747   0.611  11.124
27171W        W92431  22.305  16.892   1.411
27172W        W92432  11.766   2.479  13.646
27173W        W92433  22.033   3.005  13.542
27174W        W92434  15.876  23.697  11.151
27175W        W92435  23.484  29.647  11.584
27176W        W92436  25.526   9.375  14.045
27177W        W92437  41.711  38.459   1.495
27178W        W92438  15.724  42.942   2.672
27179W        W92439  14.708  18.152   2.895
27180W        W92440  11.492  42.015   3.430
27181W        W92441  35.332  17.154  14.497
27182W        W92442  38.867  16.200  10.480
27183W        W92443  15.601   2.678  11.750
27184W        W92444  33.081  38.795   1.171
27185W        W92445  37.706  42.986   3.594
27186W        W92446  43.848  34.362   0.125
27187W        W92447   7.275  18.966   4.012
27188W        W92448   8.132  22.000   0.067
27189W        W92449   3.404  32.186   3.716
27190W        W92450  39.551  17.810   3.616
27191W        W92451  42.380   1.046   0.932
27192W        W92452  35.935  37.824  12.924
27193W        W92453  34.469  41.255  11.624
27194W        W92454  38.802  40.858   0.384
27195W        W92455   1.421  12.677  12.611
27196W        W92456   4.307  29.651  12.498
27197W        W92457  16.087  13.061  11.496
27198W        W92458  26.616  39.918   0.305
27199W        W92459   3.850  10.976  11.541
27200W        W92460  14.270   4.042  11.773
27201W        W92461   8.840   7.134  11.650
27202W        W92462  29.384  41.906  12.569
27203W        W92463  30.184  20.231   0.893
27204W        W92464  24.555   7.509   1.844
27205W        W92465  40.102  11.613  12.421
27206W        W92466  34.624  30.536   1.078
27207W        W92467  33.868  24.590  13.495
27208W        W92468  42.496  13.037   4.651
27209W        W92469   3.332  41.406   4.726
27210W        W92470  17.753  40.061  14.511
27211W        W92471  31.028  31.581   3.561
27212W        W92472  25.750  19.105  12.927
27213W        W92473  13.451  43.781  14.463
27214W        W92474  42.845  10.464   3.623
27215W        W92475  20.515  10.715  13.505
27216W        W92476  11.689  18.446   3.234
27217W        W92477  36.021  20.766   3.240
27218W        W92478  19.442  23.691   3.390
27219W        W92479  43.097  19.300   4.604
27220W        W92480   3.942  37.951   1.508
27221W        W92481   4.282   1.500  14.684
27222W        W92482  30.986  30.605   3.755
27223W        W92483  27.117  23.949   2.133
27224W        W92484  43.872  41.471   1.853
27225W        W92485   8.470  24.197  11.607
27226W        W92486  30.893   8.740   1.115
27227W        W92487   4.273  16.578   4.633
27228W        W92488  25.217  30.254   1.076
27229W        W92489   6.201  29.284  11.998
27230W        W92490  21.212  35.021   1.627
27231W        W92491  32.436  29.051   0.388
27232W        W92492  29.143  28.557   3.151
27233W        W92493  20.223  19.250  11.928
27234W        W92494  12.261  25.999   4.242
27235W        W92495   2.458  37.875  13.276
27236W        W92496  24.039   5.616  11.583
27237W        W92497  12.133   4.688  11.632
27238W        W92498  44.685  25.526   3.431
27239W        W92499  29.738  31.494  13.566
27240W        W92500  31.738   5.653  12.374
27241W        W92501  26.548  14.388   5.011
27242W        W92502  14.538  11.788  12.669
27243W        W92503  10.388   1.248  13.562
27244W        W92504  16.576  24.047  12.854
27245W        W92505   0.410   2.362  13.753
27246W        W92506  25.025  22.280   4.352
27247W        W92507  12.091  34.438   3.834
27248W        W92508  44.848  16.268   4.599
27249W        W92509  34.539  28.029  13.354
27250W        W92510  22.989  44.099  10.777
27251W        W92511  37.262   1.705   2.704
27252W        W92512  27.232  30.206  11.686
27253W        W92513  33.212  18.860   3.358
27254W        W92514   4.633  23.655  11.625
27255W        W92515   0.710  31.634   2.291
27256W        W92516  32.453   2.195  13.533
27257W        W92517  18.678  12.231   3.316
27258W        W92518   6.130  30.851  14.779
27259W        W92519  24.224   8.036  10.408
27260W        W92520  26.161  30.214  13.565
27261W        W92521  19.261  25.160  13.866
27262W        W92522   2.400  16.031   2.238
27263W        W92523  37.912   9.769   0.891
27264W        W92524  24.668  17.328   3.210
27265W        W92525  32.324  13.847   1.847
27266W        W92526  19.705  26.848   1.268
27267W        W92527  10.026  13.134   2.647
27268W        W92528  34.038  12.164  10.399
27269W        W92529  15.083  12.606  12.380
27270W        W92530   4.593   0.292   2.367
27271W        W92531  20.550  39.572  10.690
27272W        W92532  39.489   0.553  12.574
27273W        W92533   7.002  31.586   0.929
27274W        W92534  15.637   2.819  11.267
27275W        W92535  39.850  22.658  12.068
27276W        W92536  18.505  25.460  14.050
27277W        W92537   6.515  25.481  13.462
27278W        W92538  24.066  31.015  12.571
27279W        W92539  17.279  43.277   3.826
27280W        W92540  21.603  29.482   0.023
27281W        W92541  14.837  37.064  14.909
27282W        W92542  13.635  26.611   1.165
27283W        W92543  23.085   3.363   3.112
27284W        W92544  32.482  10.344   3.327
27285W        W92545  44.928  39.704   2.199
27286W        W92546   0.202  16.797   3.167
27287W        W92547  39.640  44.432   4.488
27288W        W92548  43.807  35.942  12.206
27289W        W92549  14.054  13.107  11.075
27290W        W92550   3.065  26.151   0.294
27291W        W92551  14.836   5.928  12.515
27292W        W92552  38.338   1.352   2.251
27293W        W92553  12.357  27.771  11.854
27294W        W92554  27.994  39.832  11.511
27295W        W92555   7.775  19.656   3.886
27296W        W92556  22.149  31.627  13.429
27297W        W92557   1.660   1.904   4.504
27298W        W92558  11.933   6.272  10.548
27299W        W92559   9.304  33.626  11.881
27300W        W92560  11.671  21.009   3.211
27301W        W92561  11.825  30.677   3.173
27302W        W92562   2.830  17.009   1.716
27303W        W92563   1.166  20.492  13.235
27304W        W92564  14.055  12.088  13.900
27305W        W92565  38.598  26.477   4.932
27306W        W92566  17.045  43.883  13.067
27307W        W92567  26.572  32.477   3.628
27308W        W92568  29.976  13.335   1.873
27309W        W92569  43.654   5.797  13.767
27310W        W92570  42.426  22.203  11.828
27311W        W92571  23.164  11.641   4.768
27312W        W92572  14.585  24.949   2.685
27313W        W92573  44.082  44.553   1.486
27314W        W92574  33.178  43.944  11.200
27315W        W92575   9.441  28.349  11.560
27316W        W92576  39.790  32.882  12.595
27317W        W92577  19.555  18.624   2.782
27318W        W92578  21.970  12.815   3.284
27319W        W92579   5.701  32.501   0.697
27320W        W92580   5.857  27.225  10.289
27321W        W92581  34.459  33.248   1.813
27322W        W92582  17.651  24.466  14.247
27323W        W92583  41.571  25.131  13.728
27324W        W92584   1.558  10.093   3.248
27325W        W92585  26.747  10.821   3.612
27326W        W92586   6.883  38.938   2.322
27327W        W92587  24.713  12.422  14.743
27328W        W92588  30.024  44.968   0.008
27329W        W92589  35.298  23.341  12.218
27330W        W92590  19.719   1.304  11.116
27331W        W92591  11.333  16.092   4.085
27332W        W92592  18.641  16.705  13.776
27333W        W92593   8.966   2.397  10.604
27334W        W92594  39.115  41.129   2.099
27335W        W92595   8.540   3.012   2.843
27336W        W92596  24.251  11.291   2.750
27337W        W92597  41.520  15.840  12.071
27338W        W92598  15.227   1.013  11.931
27339W        W92599  30.832  42.232  14.129
27340W        W92600  29.689  42.412   0.651
27341W        W92601  29.022  26.533   0.340
27342W        W92602   3.306   2.007   1.690
27343W        W92603  43.867  36.416  11.122
27344W        W92604   1.198   2.710  13.002
27345W        W92605   0.705  13.914  11.507
27346W        W92606  19.671  30.133   0.948
27347W        W92607  36.540  40.861   3.311
27348W        W92608  11.257  43.656  14.468
27349W        W92609  14.638   5.628   0.159
27350W        W92610  16.024   5.909   4.168
27351W        W92611  33.599  13.346  14.103
27352W        W92612  40.264  24.591   1.851
27353W        W92613  44.795  43.014  11.000
27354W        W92614  20.799   7.702  10.684
27355W        W92615  20.692  40.984   3.862
27356W        W92616  35.568  29.351   1.908
27357W        W92617  14.537  39.329   0.761
27358W        W92618  42.568  40.541  10.925
27359W        W92619  15.801  18.801  12.527
27360W        W92620  22.082  40.847  13.395
27361W        W92621  36.950  31.640   0.025
27362W        W92622  13.938  23.870   5.179
27363W        W92623  17.537  36.442   3.326
27364W        W92624  32.253  17.590  14.615
27365W        W92625  13.725  40.299  10.512
27366W        W92626  35.746  24.192   5.023
27367W        W92627  14.006  15.850  13.471
27368W        W92628  23.158   0.411   4.168
27369W        W92629  16.291   6.349   0.752
27370W        W92630  15.761  18.603   4.112
27371W        W92631   9.756  43.765   0.776
27372W        W92632  24.468  16.677   0.527
27373W        W92633   6.262  34.415  10.679
27374W        W92634  22.516  20.626  13.744
27375W        W92635  15.037   3.722   4.630
27376W        W92636  29.761  44.488   1.999
27377W        W92637  14.726  18.039  12.412
27378W        W92638  44.330   4.992  13.436
27379W        W92639  44.292   1.381   1.348
27380W        W92640  43.290  44.691   1.194
27381W        W92641  10.651  43.461  10.644
27382W        W92642  17.086  24.307  11.430
27383W        W92643   7.850  31.028   3.218
27384W        W92644  28.021  38.107   3.153
27385W        W92645  40.237   7.231  12.570
27386W        W92646  42.090  34.656   4.966
27387W        W92647   7.972  11.840  13.876
27388W        W92648   8.620  24.874   2.377
27389W        W92649  27.215   9.213   3.769
27390W        W92650  32.008  21.965   4.262
27391W        W92651  14.701  21.320   4.138
27392W        W92652  44.498  32.936   4.912
27393W        W92653   4.435  20.255  12.277
27394W        W92654  17.392   9.787   3.592
27395W        W92655  25.063  41.035  11.548
27396W        W92656  33.087  18.197   4.536
27397W        W92657  34.453   4.101   1.233
27398W        W92658  15.632  10.860  12.409
27399W        W92659  19.594   2.200  11.689
27400W        W92660  17.612  18.805  10.723
27401W        W92661  26.070  44.659   1.399
27402W        W92662  36.565  40.836  14.871
27403W        W92663  10.259   7.725   2.080
27404W        W92664   6.930  15.766   2.317
27405W        W92665  35.572  43.415   4.306
27406W        W92666  13.651   1.301   4.511
27407W        W92667  11.128  43.137   1.823
27408W        W92668  37.831  20.209  10.726
27409W        W92669  15.281  29.259   4.260
27410W        W92670   8.129   9.381   9.697
27411W        W92671  37.892  40.920   2.585
27412W        W92672   5.685  17.067  13.167
27413W        W92673   5.799   4.960  12.023
27414W        W92674  17.536  40.975   4.400
27415W        W92675  29.071  15.483  12.915
27416W        W92676  35.973  25.257   3.662
27417W        W92677  43.520  39.950  10.144
27418W        W92678  12.855  38.000   2.262
27419W        W92679  18.233  38.070   4.771
27420W        W92680  21.688  31.682   2.210
27421W        W92681  20.804  44.808  13.018
27422W        W92682   0.519   0.055  14.648
27423W        W92683  18.569  13.790   1.666
27424W        W92684  14.763  39.893   4.020
27425W        W92685   8.915  38.878   1.226
27426W        W92686  38.021  34.054  14.125
27427W        W92687   6.464  33.398   5.036
27428W        W92688   1.674   6.286  14.449
27429W        W92689  44.505   5.868   1.819
27430W        W92690  36.409  23.344   1.747
27431W        W92691   2.851  37.105  10.597
27432W        W92692  41.923  16.664  14.990
27433W        W92693   5.272  19.756  13.315
27434W        W92694  34.949  29.392   4.536
27435W        W92695  40.093  31.761   3.467
27436W        W92696   7.389   1.757   0.747
27437W        W92697  38.056  11.968  11.943
27438W        W92698  34.563  23.432   5.005
27439W        W92699  32.012  24.359   4.623
27440W        W92700  29.368  36.024   3.634
27441W        W92701  22.168  13.654   0.432
27442W        W92702  21.279   8.673  14.883
27443W        W92703  43.977  20.649   0.891
27444W        W92704  44.215  32.184   3.613
27445W        W92705   8.611   5.909   3.227
27446W        W92706  36.799  28.020  12.659
27447W        W92707  26.778  27.198  11.113
27448W        W92708  33.592  36.541   2.698
27449W        W92709  33.538  44.977   0.326
27450W        W92710   7.773   9.282  12.140
27451W        W92711  20.995  20.549  10.980
27452W        W92712   6.094  38.918   4.326
27453W        W92713   2.960  14.656  14.066
27454W        W92714  40.150  35.094  14.303
27455W        W92715  41.688  37.624   2.227
27456W        W92716  21.115  36.893  14.764
27457W        W92717  36.238  30.899   0.351
27458W        W92718  13.608  13.626   4.225
27459W        W92719  44.284  43.062  10.790
27460W        W92720   4.836  17.631  12.778
27461W        W92721  21.469   0.806   4.508
27462W        W92722   4.796  29.398   0.971
27463W        W92723  14.711  28.282  13.987
27464W        W92724  17.126  29.117   2.629
27465W        W92725  19.268   6.480   2.625
27466W        W92726   9.249  22.318   0.830
27467W        W92727   9.491  18.092   1.332
27468W        W92728  34.759   2.471   3.272
27469W        W92729  20.698  26.358   3.081
27470W        W92730  15.612  25.055   0.471
27471W        W92731  30.414  26.866  14.971
27472W        W92732   5.176   3.509  14.950
27473W        W92733  33.211  34.660  10.996
27474W        W92734  16.927  16.318   9.737
27475W        W92735  39.343   8.634   3.365
27476W        W92736  19.496   7.867   2.647
27477W        W92737  31.721  24.413  13.987
27478W        W92738  22.669  19.106   0.755
27479W        W92739  12.639  23.091   3.877
27480W        W92740  20.260  28.557  14.546
27481W        W92741  34.681  20.186  13.996
27482W        W92742  16.512  37.237  12.069
27483W        W92743  33.548  30.456   1.217
27484W        W92744  38.297  26.645   2.368
27485W        W92745  34.567  40.514  11.786
27486W        W92746   8.385  43.914   3.219
27487W        W92747  33.718   6.705   0.055
27488W        W92748  28.000   8.916   1.097
27489W        W92749  16.513  44.318  13.453
27490W        W92750   3.789  32.316  10.224
27491W        W92751  13.280  14.775  10.595
27492W        W92752  24.456  32.961  10.699
27493W        W92753  39.041  15.895  14.825
27494W        W92754  21.582  42.713  12.860
27495W        W92755  16.644  24.522   1.667
27496W        W92756  10.293  19.955   4.109
27497W        W92757   4.639  22.170  14.081
27498W        W92758   0.924  18.311   1.441
27499W        W92759  30.812   2.012   3.676
27500W        W92760  16.665  26.443   1.243
27501W        W92761  31.587   1.003   4.619
27502W        W92762  38.286   9.893  13.834
27503W        W92763   4.947  37.436   1.769
27504W        W92764  32.895   7.798  12.863
27505W        W92765   0.304  29.185   0.492
27506W        W92766   7.647  32.780  11.688
27507W        W92767  30.891   6.868  12.509
27508W        W92768  21.251  32.968  13.895
27509W        W92769   0.778  40.855   2.299
27510W        W92770   9.750  43.021  13.068
27511W        W92771   2.868  18.194  11.313
27512W        W92772  43.862  14.092   9.799
27513W        W92773  18.658  22.595   5.031
27514W        W92774  19.138  14.782  14.500
27515W        W92775   3.343   8.803  12.525
27516W        W92776  11.538  35.852  11.956
27517W        W92777  10.622  41.932  13.469
27518W        W92778   2.162  19.382   0.729
27519W        W92779   0.492  25.936  13.376
27520W        W92780  14.650  12.082   1.689
27521W        W92781  25.708   3.286  14.946
27522W        W92782  26.783  17.730  10.162
27523W        W92783  20.630  35.886  13.446
27524W        W92784   3.484  22.768   3.121
27525W        W92785   9.978  24.885  11.502
27526W        W92786  26.369  40.823   0.509
27527W        W92787  26.436  27.387   0.232
27528W        W92788  19.106  40.314   4.497
27529W        W92789  25.920   8.147  11.165
27530W        W92790  37.136  24.177   0.419
27531W        W92791  13.909  43.799   2.705
27532W        W92792  15.442  10.696   3.243
27533W        W92793   2.124  29.142  11.229
27534W        W92794   9.457  25.866   1.326
27535W        W92795  31.337  30.720   2.503
27536W        W92796  33.838  31.611   0.055
27537W        W92797  10.576  41.358   1.725
27538W        W92798  17.858  14.943   2.388
27539W        W92799  42.885  13.808   4.595
27540W        W92800  27.051  33.396   0.825
27541W        W92801  16.893  35.387  12.139
27542W        W92802  40.892  10.576  11.283
27543W        W92803  19.579  34.890   0.712
27544W        W92804  23.257  29.185  11.524
27545W        W92805  10.825  42.664   0.420
27546W        W92806  34.078   0.900  11.609
27547W        W92807  17.845  13.596   3.204
27548W        W92808   0.310  17.438  11.743
27549W        W92809  17.555  36.575   1.935
27550W        W92810  15.163   7.592  11.514
27551W        W92811  44.623  42.380  12.931
27552W        W92812  43.515   2.995   4.595
27553W        W92813   2.987  11.226   0.784
27554W        W92814  44.550   9.868   3.784
27555W        W92815  36.962  25.957  13.774
27556W        W92816  31.510  43.360  13.929
27557W        W92817  12.761  19.093  12.394
27558W        W92818   7.468  41.549  11.706
27559W        W92819  20.556  13.918  11.524
27560W        W92820  11.846  27.908   0.027
27561W        W92821   6.268   7.300   0.780
27562W        W92822  26.478  41.689   2.773
27563W        W92823  32.320  12.881   1.669
27564W        W92824   8.238   3.642   4.672
27565W        W92825  43.758  22.699   2.326
27566W        W92826  10.377  40.908  13.146
27567W        W92827   5.797  18.718  10.939
27568W        W92828  35.649  21.114  10.432
27569W        W92829  34.369  18.978  14.405
27570W        W92830  19.786  13.795   4.359
27571W        W92831  26.689  40.809   4.801
27572W        W92832  42.922   9.337  11.980
27573W        W92833  32.183  18.858   2.588
27574W        W92834  27.476  24.271  14.762
27575W        W92835   2.719  29.092   2.846
27576W        W92836  32.524  36.081   2.632
27577W        W92837  34.810  12.208   1.314
27578W        W92838  35.788  42.881   1.408
27579W        W92839  22.816   8.247  11.126
27580W        W92840   8.197  19.203   0.435
27581W        W92841  24.997  25.368  11.931
27582W        W92842   1.765   7.978   2.470
27583W        W92843  26.014  19.735  14.652
27584W        W92844  12.401   2.793   0.777
27585W        W92845  23.727  41.861  14.067
27586W        W92846  31.687  44.416   2.342
27587W        W92847  28.374  39.981  10.200
27588W        W92848  17.196  18.384   1.795
27589W        W92849  40.368  29.655   0.363
27590W        W92850  32.991   5.621  11.521
27591W        W92851  40.940  29.500   1.380
27592W        W92852  15.119   7.380  13.131
27593W        W92853   4.403  43.926   3.288
27594W        W92854  19.827  12.181  10.574
27595W        W92855  21.584  22.808  11.536
27596W        W92856  31.658  30.116   3.223
27597W        W92857  33.539  27.426  13.254
27598W        W92858  16.799   7.976  14.011
27599W        W92859   8.999  43.754  12.235
27600W        W92860  38.627  39.579   1.730
27601W        W92861  22.559  20.275   0.430
27602W        W92862   8.483  15.968  14.564
27603W        W92863  44.280   3.187  14.888
27604W        W92864  21.743  16.539   3.408
27605W        W92865   5.254   6.275  13.809
27606W        W92866  37.590   8.739  13.535
27607W        W92867  11.760  14.389  11.902
27608W        W92868  25.904   8.186   2.752
27609W        W92869   0.346   7.083  12.875
27610W        W92870  25.949  10.552   4.799
27611W        W92871   3.292   7.738  12.856
27612W        W92872  25.246  18.477   2.654
27613W        W92873  37.982  30.653   1.405
27614W        W92874  38.211  37.657   2.892
27615W        W92875  19.315  44.399   1.187
27616W        W92876  19.619  19.822   1.259
27617W        W92877   5.529   2.974  12.484
27618W        W92878  24.713  25.634  10.678
27619W        W92879  44.449  21.153   3.368
27620W        W92880  25.434   6.830  13.559
27621W        W92881  26.908  44.233  12.440
27622W        W92882   0.567  19.634  13.176
27623W        W92883   3.186  14.234  12.337
27624W        W92884  44.042  36.694  12.636
27625W        W92885   7.469  14.858  10.575
27626W        W92886  32.998  29.635   3.266
27627W        W92887  37.840  10.270  13.828
27628W        W92888   2.442  28.937   3.972
27629W        W92889  11.537   1.491   1.157
27630W        W92890   0.713  35.064   1.903
27631W        W92891   5.229  44.313   3.275
27632W        W92892  26.993   3.026   1.791
27633W        W92893  22.191   5.405  13.622
27634W        W92894  43.944  13.245  13.529
27635W        W92895  19.570  18.569  11.976
27636W        W92896  36.645  24.121   1.341
27637W        W92897  14.681  35.280  11.616
27638W        W92898  29.244   0.504   2.745
27639W        W92899  29.979   8.862   1.403
27640W        W92900  15.300  21.514  11.582
27641W        W92901  44.272  14.433  14.799
27642W        W92902   5.323  12.840   4.214
27643W        W92903  30.858  14.344   4.702
27644W        W92904  18.751  37.427   4.084
27645W        W92905  25.673   3.341   4.623
27646W        W92906  14.841  13.813   0.351
27647W        W92907  30.638  21.514  11.097
27648W        W92908  17.806  28.148  13.970
27649W        W92909   7.844   7.203  13.804
27650W        W92910   8.814   6.800  12.453
27651W        W92911  21.690   1.908  12.700
27652W        W92912  15.526   1.757  10.282
27653W        W92913  20.824  32.443  13.225
27654W        W92914  35.501   0.466  14.071
27655W        W92915  34.093   7.621   4.133
27656W        W92916   7.428  43.907  13.310
27657W        W92917   8.671  32.698   2.165
27658W        W92918  37.497   2.945   2.315
27659W        W92919   1.837  28.624   0.376
27660W        W92920  33.963   5.403  12.980
27661W        W92921  28.093  12.541  14.975
27662W        W92922  10.341  17.104   3.874
27663W        W92923   0.813  34.814   4.630
27664W        W92924   6.176  28.747  11.863
27665W        W92925   1.434  19.382  14.799
27666W        W92926  28.896  14.453   0.480
27667W        W92927  32.053  33.165  11.234
27668W        W92928   2.197  32.349  14.926
27669W        W92929  32.095  28.591  11.429
27670W        W92930  10.846   7.956   2.646
27671W        W92931  34.731  39.354  13.618
27672W        W92932   0.196  41.567   2.350
27673W        W92933  22.501  19.308   4.745
27674W        W92934  11.027  38.056  12.428
27675W        W92935   3.852  18.523   4.703
27676W        W92936  38.401  21.188  13.793
27677W        W92937   4.360   0.158  13.551
27678W        W92938   1.315  43.918   2.417
27679W        W92939  23.317  13.057   0.948
27680W        W92940  16.702  29.702  12.389
27681W        W92941  25.716   5.725  13.451
27682W        W92942   4.350   8.912   0.464
27683W        W92943  29.109  32.636   0.492
27684W        W92944  30.996  31.627  11.262
27685W        W92945  14.901  23.520  12.486
27686W        W92946  13.956  14.094  13.882
27687W        W92947  36.359  36.933   0.936
27688W        W92948  41.854   4.305   4.640
27689W        W92949  21.613  40.047   4.938
27690W        W92950  22.794  29.149   1.264
27691W        W92951  30.827  15.314   1.483
27692W        W92952  10.485  43.409  12.578
27693W        W92953   0.203  38.442  10.704
27694W        W92954  17.728  37.808  14.084
27695W        W92955  41.496  16.021  13.780
27696W        W92956  18.810  42.713   4.722
27697W        W92957   4.120  34.036  14.687
27698W        W92958  33.492   7.618  14.120
27699W        W92959   5.380  27.757   0.457
27700W        W92960  39.218  28.581   0.663
27701W        W92961  17.679  12.197   0.211
27702W        W92962  20.229  43.999  13.761
27703W        W92963  13.067  25.412   4.206
27704W        W92964  40.719  41.047   4.680
27705W        W92965  33.932  12.251   3.291
27706W        W92966  20.929  36.461  11.655
27707W        W92967   5.220  31.678  14.270
27708W        W92968  13.546  26.711  14.638
27709W        W92969  41.831  25.988   2.124
27710W        W92970  44.349   3.784   4.115
27711W        W92971  25.652  12.663  10.800
27712W        W92972   4.846   2.859   0.293
27713W        W92973  15.323   5.444   1.397
27714W        W92974  15.208  30.608  13.792
27715W        W92975  23.610   3.964   3.204
27716W        W92976  27.961   6.968   2.765
27717W        W92977  27.071  41.523  14.050
27718W        W92978  43.789  26.872  10.689
27719W        W92979  37.854  40.410   3.378
27720W        W92980  38.419  42.949   5.152
27721W        W92981   7.270  31.028   4.581
27722W        W92982  15.655  42.721   1.303
27723W        W92983  42.782  15.485  14.953
27724W        W92984  21.493  39.300  13.972
27725W        W92985  15.918  14.971  12.482
27726W        W92986  10.791   6.283   5.306
27727W        W92987  30.043  27.790   0.868
27728W        W92988   4.741   8.747   4.566
27729W        W92989  37.935  27.689   1.097
27730W        W92990   4.975   4.542   4.375
27731W        W92991  19.237  31.887   0.497
27732W        W92992  17.721  40.979  13.567
27733W        W92993  44.995   4.996  12.825
27734W        W92994   3.770  35.240   1.411
27735W        W92995  30.529  40.107  12.941
27736W        W92996  34.473  17.792  14.945
27737W        W92997  29.332  31.476   3.119
27738W        W92998  32.885   5.248  12.373
27739W        W92999  30.551  18.153   1.191
27740W        W93000  37.691  10.261   1.183
27741W        W93001  38.921  23.042   3.660
27742W        W93002  29.106  40.967   0.760
27743W        W93003   2.264   3.162   1.732
27744W        W93004  20.878  15.328  10.047
27745W        W93005  16.393  28.850  12.727
27746W        W93006  43.289   4.593   0.866
27747W        W93007   2.258  31.639   0.453
27748W        W93008  26.211  21.040  11.223
27749W        W93009   2.483  12.356   2.589
27750W        W93010   0.346  15.624  13.378
27751W        W93011  18.379  26.745   1.310
27752W        W93012  12.263  42.951  13.961
27753W        W93013  33.323  42.413   3.476
27754W        W93014  44.818  25.596   2.932
27755W        W93015   1.756  22.250  14.962
27756W        W93016   2.824  22.588   0.543
27757W        W93017  21.195  10.355   0.485
27758W        W93018  18.989  26.017  13.406
27759W        W93019  40.465  22.028   3.579
27760W        W93020  15.958  42.888   0.919
27761W        W93021   0.273  28.533  14.007
27762W        W93022  27.430  38.894  12.489
27763W        W93023  11.817  42.779   3.172
27764W        W93024  13.432  16.050   4.390
27765W        W93025  37.240   1.448   4.369
27766W        W93026  12.303  27.662   1.879
27767W        W93027  13.309  13.592  14.474
27768W        W93028  22.723   2.165  10.726
27769W        W93029  15.020  39.509   0.776
27770W        W93030  35.950  42.117  14.913
27771W        W93031  25.002  39.555  12.900
27772W        W93032   0.424  17.776  12.108
27773W        W93033   6.133  18.111   3.351
27774W        W93034  24.464  44.157  10.653
27775W        W93035  18.232  14.602   2.304
27776W        W93036  14.326   6.656   0.866
27777W        W93037  42.384  17.939   4.160
27778W        W93038   9.627   3.468   4.596
27779W        W93039  43.460  16.395  11.078
27780W        W93040  28.024  27.297  12.468
27781W        W93041  28.738  10.182   4.602
27782W        W93042  36.811  34.587   3.089
27783W        W93043  21.526   8.431  10.765
27784W        W93044  18.751  31.943  14.115
27785W        W93045  22.613  23.002  13.927
27786W        W93046  22.754  44.225  11.657
27787W        W93047  18.191  21.428  12.092
27788W        W93048  25.135  28.971  12.638
27789W        W93049   5.662  27.372   4.416
27790W        W93050  36.389  19.335  10.911
27791W        W93051  24.124  19.049   3.241
27792W        W93052   1.040  40.261  11.110
27793W        W93053  22.217  18.607  11.616
27794W        W93054  29.151  36.782  13.095
27795W        W93055  42.398  30.005  12.497
27796W        W93056  40.404   1.895   1.418
27797W        W93057  39.290  26.024  14.988
27798W        W93058  28.785  13.566   1.778
27799W        W93059  31.792   1.568  14.798
27800W        W93060  22.721  40.404  13.813
27801W        W93061  40.333  11.915   5.404
27802W        W93062   9.065  44.629  12.425
27803W        W93063  15.848  44.362   1.838
27804W        W93064  15.698  29.883  12.027
27805W        W93065  23.279  29.526   2.135
27806W        W93066  29.529   0.257  11.228
27807W        W93067  41.288  29.869  14.374
27808W        W93068   6.440  32.022   4.631
27809W        W93069  33.853  16.238   4.308
27810W        W93070  42.356   1.874  11.848
27811W        W93071  31.402  24.967  13.394
27812W        W93072  10.140   8.720  11.841
27813W        W93073  28.394   2.248   2.236
27814W        W93074  36.139   3.954   2.048
27815W        W93075  28.045  15.675   1.968
27816W        W93076  35.163  33.015  13.616
27817W        W93077   3.023  15.245   1.397
27818W        W93078  14.260   0.229   0.843
27819W        W93079  31.599  24.939  14.193
27820W        W93080  40.641   7.215  10.449
27821W        W93081  39.340  42.218  12.356
27822W        W93082  14.197  44.761  13.406
27823W        W93083  20.556  24.288   3.738
27824W        W93084  22.421  25.242   3.971
27825W        W93085  15.171   4.225  12.081
27826W        W93086  43.359  10.749   2.235
27827W        W93087  42.058  10.194  14.828
27828W        W93088  16.751   8.627   4.646
27829W        W93089  42.777  42.248   4.661
27830W        W93090  19.436  23.988  14.515
27831W        W93091  29.092  43.180  10.775
27832W        W93092   0.398   3.987   1.315
27833W        W93093  14.531  30.562   4.106
27834W        W93094  38.186  24.728   3.472
27835W        W93095  10.715  13.573   4.673
27836W        W93096  17.159   0.878   0.500
27837W        W93097  31.664  35.872   4.481
27838W        W93098  10.250   3.044   3.302
27839W        W93099  34.980  19.747   0.433
27840W        W93100   8.359  24.253  10.695
27841W        W93101  30.358  24.868   3.567
27842W        W93102  37.338   6.348   3.753
27843W        W93103  17.983  25.367  14.778
27844W        W93104  22.948  28.547  14.155
27845W        W93105  44.440  35.019   3.880
27846W        W93106   4.816  34.360   3.195
27847W        W93107  35.915   7.792  13.359
27848W        W93108  44.946   7.662  12.576
27849W        W93109  13.029  37.037   0.357
27850W        W93110  39.258  27.423   2.363
27851W        W93111  42.073  35.904   4.166
27852W        W93112   3.822  16.545  13.495
27853W        W93113  18.798  25.660   3.851
27854W        W93114  18.943  36.067  12.342
27855W        W93115   7.417   0.836   1.711
27856W        W93116  14.020   6.172  13.539
27857W        W93117  37.401   4.963   1.432
27858W        W93118  20.043  14.137   2.415
27859W        W93119  25.265  24.230  14.018
27860W        W93120  34.865  25.116   5.126
27861W        W93121  44.956  17.271   3.117
27862W        W93122  30.941  29.992  12.076
27863W        W93123  17.616  16.694  12.077
27864W        W93124  37.565  20.871  11.187
27865W        W93125   9.406  28.119   3.966
27866W        W93126  43.686  17.782  11.166
27867W        W93127  35.340   2.287   0.024
27868W        W93128  31.111  32.104   4.804
27869W        W93129  21.264  23.320  13.833
27870W        W93130  26.706  18.656   1.331
27871W        W93131  33.004  27.642   3.247
27872W        W93132   2.392  35.563  12.394
27873W        W93133  13.361  14.333  13.312
27874W        W93134  43.097  34.177  14.656
27875W        W93135  36.055  34.015  12.480
27876W        W93136  41.406  39.090   4.581
27877W        W93137  32.621  15.779  11.596
27878W        W93138  14.596  34.164   2.550
27879W        W93139  10.157  15.278   1.817
27880W        W93140  37.062   1.228  13.529
27881W        W93141  22.272  43.803   4.173
27882W        W93142  25.606  14.279  11.395
27883W        W93143   5.874  15.113  12.908
27884W        W93144  42.903   8.328  14.053
27885W        W93145  15.214   7.192   0.929
27886W        W93146   1.672  20.142   4.530
27887W        W93147  21.096  27.774   2.485
27888W        W93148   5.683  20.317   3.742
27889W        W93149  32.945  13.590   4.099
27890W        W93150   3.121  35.038   0.455
27891W        W93151  24.272  22.577  13.907
27892W        W93152  13.403  40.969   3.797
27893W        W93153  12.042   2.392  14.079
27894W        W93154  21.007  27.625  11.616
27895W        W93155  23.974   1.198   4.546
27896W        W93156  22.439  42.771   9.990
27897W        W93157  23.998  44.209   0.414
27898W        W93158  14.603  36.559  13.372
27899W        W93159  27.831  38.589  12.554
27900W        W93160  11.514  36.375   3.729
27901W        W93161   2.751  31.593  12.579
27902W        W93162   6.271   2.258   2.807
27903W        W93163   5.672  28.575  10.190
27904W        W93164   9.502  41.088   4.074
27905W        W93165  15.317  34.426   4.616
27906W        W93166  19.684  30.016   3.427
27907W        W93167  34.972   3.230  12.102
27908W        W93168  13.056   3.687   4.687
27909W        W93169   2.198  37.829  12.802
27910W        W93170  22.987  40.869   3.891
27911W        W93171  36.975  30.633   1.221
27912W        W93172  32.155   0.877  13.862
27913W        W93173  37.803  10.373  14.352
27914W        W93174  22.554  26.576   4.695
27915W        W93175   4.806  33.701  14.015
27916W        W93176  16.501  20.774   2.412
27917W        W93177  13.690  17.367   3.871
27918W        W93178  16.837  17.571   1.282
27919W        W93179  22.613  20.462  12.857
27920W        W93180  17.658  24.777   4.966
27921W        W93181  29.353  33.131   4.510
27922W        W93182  41.000  12.995  13.504
27923W        W93183  22.238  23.615  14.895
27924W        W93184  33.471  20.789   3.594
27925W        W93185   0.218  22.937   1.854
27926W        W93186   7.773   4.425  11.599
27927W        W93187  25.715  26.647   2.150
27928W        W93188  31.404  16.186   0.170
27929W        W93189  23.017  39.422   0.958
27930W        W93190  11.958  24.018   3.225
27931W        W93191  25.594  30.390   1.431
27932W        W93192   2.005  26.971   0.374
27933W        W93193  41.110   3.113  10.456
27934W        W93194  42.234  27.462  10.717
27935W        W93195  26.472  17.306  14.985
27936W        W93196  23.403   4.026   4.128
27937W        W93197  24.841   8.044   5.337
27938W        W93198  34.848  43.542  12.907
27939W        W93199  41.317  44.276  12.591
27940W        W93200  42.399  40.880  12.129
27941W        W93201  27.089  24.285   3.345
27942W        W93202  23.797  21.818  12.121
27943W        W93203   5.778  15.777  13.493
27944W        W93204  21.508  17.107  13.332
27945W        W93205  33.149  22.251  11.691
27946W        W93206   4.929  44.528   0.923
27947W        W93207  35.354  23.996   3.827
27948W        W93208  19.676   0.446  11.592
27949W        W93209  14.360  40.866  12.794
27950W        W93210  22.745  16.363  13.471
27951W        W93211  42.030  13.797  12.993
27952W        W93212  20.749   3.845   3.092
27953W        W93213  44.363   1.880   2.543
27954W        W93214  29.024  26.134  12.972
27955W        W93215   8.643  14.286  14.742
27956W        W93216   7.789  30.115   0.181
27957W        W93217  21.207   4.692   0.738
27958W        W93218  33.678  17.483   4.857
27959W        W93219  42.448   4.977  12.615
27960W        W93220  11.058  13.273   0.604
27961W        W93221  14.673  24.693  12.919
27962W        W93222  43.036  19.323   0.722
27963W        W93223   0.417  21.619  14.301
27964W        W93224   0.233  21.523   3.134
27965W        W93225   3.796   1.528   1.228
27966W        W93226  23.004  34.110  11.108
27967W        W93227  15.361  42.504   1.794
27968W        W93228  12.865   7.424   1.348
27969W        W93229   9.777  41.921   1.858
27970W        W93230  18.520  44.977  14.908
27971W        W93231  12.114  39.582   3.206
27972W        W93232  27.464  29.831  11.075
27973W        W93233  20.785  20.069   1.708
27974W        W93234  14.531   4.643   3.360
27975W        W93235  30.017   6.636   4.253
27976W        W93236   2.707  35.089  12.458
27977W        W93237  37.064  11.570  13.374
27978W        W93238  28.517  41.418  12.358
27979W        W93239  33.092  32.346  12.612
27980W        W93240  33.382   3.951   2.729
27981W        W93241   3.725  35.375   3.181
27982W        W93242  19.521   5.740  10.503
27983W        W93243  27.079  21.276   4.128
27984W        W93244  13.956  15.822  12.594
27985W        W93245  23.792   9.756  12.440
27986W        W93246  19.215  15.136   3.287
27987W        W93247  21.163  40.532  13.892
27988W        W93248   3.741  13.049   0.356
27989W        W93249  32.532  34.141   0.358
27990W        W93250  26.221  44.327  13.814
27991W        W93251  25.238  18.242   1.330
27992W        W93252  42.236   2.214   4.161
27993W        W93253  12.208   4.855  10.716
27994W        W93254   7.915  38.823   0.788
27995W        W93255  30.487  11.671  11.634
27996W        W93256  13.885  41.768  14.763
27997W        W93257  11.791  41.208  10.644
27998W        W93258   5.248  27.439   4.760
27999W        W93259  40.823  41.727  11.647
28000W        W93260  39.099  34.715  13.475
28001W        W93261  15.612  13.855   2.760
28002W        W93262  16.158  38.151   3.953
28003W        W93263  28.549  26.439   0.804
28004W        W93264   3.879  44.587  14.872
28005W        W93265  35.530  12.264  12.920
28006W        W93266  23.672  40.341  13.864
28007W        W93267  15.175   8.630  11.575
28008W        W93268  29.480  12.345  13.829
28009W        W93269  30.705  22.090   2.168
28010W        W93270  23.473  41.571   1.384
28011W        W93271  20.215  27.058  10.373
28012W        W93272  25.809  26.038   0.880
28013W        W93273  33.967  33.050   1.896
28014W        W93274   5.486  27.452  14.227
28015W        W93275  23.806   1.835   0.786
28016W        W93276   1.239  14.025  12.799
28017W        W93277  43.741  32.257  13.804
28018W        W93278   6.983  13.919  14.355
28019W        W93279  26.207  22.834  12.043
28020W        W93280  41.219  44.916  10.620
28021W        W93281   1.752  34.694   3.140
28022W        W93282  28.992  15.122   3.373
28023W        W93283   1.955  40.481  13.967
28024W        W93284  37.446  38.985   3.228
28025W        W93285  14.042  14.410   1.838
28026W        W93286   0.467  31.679   3.643
28027W        W93287  27.895  30.696   2.718
28028W        W93288   3.712   8.452  13.461
28029W        W93289   3.243  12.528   1.131
28030W        W93290  24.014  39.350   0.713
28031W        W93291  26.876  22.498  14.060
28032W        W93292   3.245  24.031  11.607
28033W        W93293  21.993  24.539  11.152
28034W        W93294  31.227  10.865   3.380
28035W        W93295  24.954   9.994  13.883
28036W        W93296  16.902  33.309  10.673
28037W        W93297   8.858  43.405   0.315
28038W        W93298  20.664  14.655   4.011
28039W        W93299   7.190  12.944   0.875
28040W        W93300  41.898  12.027   3.023
28041W        W93301  16.486  30.970  11.572
28042W        W93302  18.625  24.554   0.090
28043W        W93303  11.917   9.599  12.092
28044W        W93304  27.474   7.083   3.768
28045W        W93305  26.463  27.500   2.340
28046W        W93306  38.340  23.208   2.478
28047W        W93307   1.929  11.894   2.298
28048W        W93308   7.718  29.602   0.067
28049W        W93309  13.868  18.240   1.850
28050W        W93310  23.646  39.042   3.989
28051W        W93311  25.512  34.037  10.458
28052W        W93312  42.582  29.587  10.692
28053W        W93313  38.777  23.992   2.284
28054W        W93314  24.694  42.494  10.789
28055W        W93315   5.947  32.985   0.786
28056W        W93316   3.678   1.204   3.675
28057W        W93317  26.531  34.856   0.290
28058W        W93318  44.093  10.794  13.112
28059W        W93319  13.592  18.645  13.582
28060W        W93320  37.015  40.299  11.970
28061W        W93321   4.951  15.727   2.221
28062W        W93322  36.647  36.616   1.274
28063W        W93323  23.531   0.390   3.702
28064W        W93324  42.740  19.711   2.135
28065W        W93325  44.883  16.013   0.368
28066W        W93326  43.648  13.142   1.316
28067W        W93327   0.654  16.982  13.315
28068W        W93328  39.730  35.581  13.487
28069W        W93329  35.325  17.084   2.400
28070W        W93330   1.413  22.518  13.381
28071W        W93331  39.494   5.338  13.152
28072W        W93332  35.001  40.123  14.162
28073W        W93333  34.552  29.578   0.960
28074W        W93334  20.625  32.672   3.512
28075W        W93335   5.134  19.265  14.843
28076W        W93336  43.303  25.146  12.162
28077W        W93337   9.108   7.148   1.876
28078W        W93338   5.943  15.370  10.737
28079W        W93339   7.484  19.985   4.576
28080W        W93340  26.394  15.145  12.640
28081W        W93341  42.535  41.341  14.332
28082W        W93342  20.288  41.794  10.700
28083W        W93343  28.584  35.736  11.610
28084W        W93344  38.025  15.289  13.440
28085W        W93345   3.686  15.891  12.483
28086W        W93346  21.747  41.643  12.621
28087W        W93347   1.468  13.661  12.492
28088W        W93348  28.416   7.253   2.718
28089W        W93349  20.170  44.200  12.440
28090W        W93350   2.712  18.336  12.137
28091W        W93351  30.962  27.541  14.711
28092W        W93352  40.008  19.324  12.487
28093W        W93353  39.463  15.732  10.572
28094W        W93354   9.780  27.224  12.280
28095W        W93355  33.977  11.897  13.103
28096W        W93356  35.861   9.686   3.889
28097W        W93357  16.986   1.258   2.768
28098W        W93358  10.233  17.535  11.231
28099W        W93359  28.544   8.647  11.682
28100W        W93360  23.062  24.096   2.719
28101W        W93361  12.281   1.013  10.624
28102W        W93362  18.652  24.127   3.567
28103W        W93363  27.398  35.428  11.554
28104W        W93364  42.741  14.828   4.042
28105W        W93365  16.060  23.710   0.872
28106W        W93366   5.167  19.286   4.796
28107W        W93367   3.107   6.910   4.596
28108W        W93368  15.366  26.895  12.380
28109W        W93369  13.950  39.477  11.590
28110W        W93370  34.950  35.094   3.421
28111W        W93371  34.092   3.422  13.751
28112W        W93372  30.918  13.595  14.465
28113W        W93373   3.869  23.960   4.134
28114W        W93374  31.180  15.648  12.357
28115W        W93375  20.165  27.587  13.278
28116W        W93376  17.080  42.377   1.212
28117W        W93377  28.468  12.941   2.898
28118W        W93378  20.555  26.077  11.646
28119W        W93379  39.017  32.116  11.557
28120W        W93380   1.719   0.689   0.014
28121W        W93381   1.449   2.389  14.788
28122W        W93382  11.881  18.496  14.212
28123W        W93383  17.568  36.935  13.531
28124W        W93384  17.959  40.237  13.384
28125W        W93385  38.005  39.600   4.132
28126W        W93386   9.171  20.241   4.862
28127W        W93387  16.971   5.889  10.516
28128W        W93388   6.935  32.344   2.297
28129W        W93389  36.853  13.214  14.131
28130W        W93390  42.405  21.978  10.661
28131W        W93391  13.000  28.608  14.812
28132W        W93392  26.488  43.805   1.969
28133W        W93393   3.134  42.604  11.355
28134W        W93394   7.760  37.516   1.746
28135W        W93395   3.953  19.489   0.930
28136W        W93396   4.233  37.642  11.163
28137W        W93397  24.954  18.194  11.666
28138W        W93398   5.955  24.929   1.491
28139W        W93399  38.848   0.354  11.585
28140W        W93400  28.789   5.815  14.497
28141W        W93401  29.129  22.298   0.002
28142W        W93402  42.795   2.925   4.120
28143W        W93403  37.399  27.474  13.264
28144W        W93404  26.403  40.074  10.806
28145W        W93405   3.308  36.104   2.523
28146W        W93406  43.076  25.557  10.590
28147W        W93407   4.469  30.136  12.731
28148W        W93408  18.667   0.953   0.207
28149W        W93409  44.976  32.716  11.937
28150W        W93410  16.219  38.622   3.528
28151W        W93411  12.100  44.904   3.277
28152W        W93412  15.825   5.302   1.703
28153W        W93413  44.751  14.229  14.259
28154W        W93414  23.827  32.423   3.893
28155W        W93415  23.407   2.668  14.323
28156W        W93416   4.799  35.016  12.705
28157W        W93417  28.085  11.325  12.936
28158W        W93418  40.025  15.454   3.809
28159W        W93419  14.126  34.516   0.258
28160W        W93420  23.609  31.004   2.026
28161W        W93421  25.446  31.611   0.320
28162W        W93422   7.730   6.413   3.138
28163W        W93423  27.862  15.057  12.859
28164W        W93424  38.821  26.727  11.992
28165W        W93425  19.179   8.195  11.126
28166W        W93426  32.966   0.770   2.008
28167W        W93427  25.571  26.654  14.687
28168W        W93428  22.584  12.417  13.462
28169W        W93429  29.331  17.567  14.034
28170W        W93430  31.319  44.286  11.038
28171W        W93431   7.305  43.436  10.736
28172W        W93432  19.379   5.217   0.966
28173W        W93433  29.561   8.141  10.578
28174W        W93434  31.957   2.456   0.148
28175W        W93435  14.784  33.477   1.795
28176W        W93436  21.103  31.025   3.330
28177W        W93437  13.969  34.984  12.015
28178W        W93438  27.228  29.654   0.016
28179W        W93439   8.881  23.175  12.327
28180W        W93440  31.052  43.194  13.742
28181W        W93441  10.410   1.284  13.033
28182W        W93442   1.000  14.932  12.601
28183W        W93443  19.673  29.718  12.726
28184W        W93444  13.255  30.215   4.367
28185W        W93445  24.218  31.818   0.029
28186W        W93446  32.515   2.027  14.889
28187W        W93447  25.744  42.310  14.329
28188W        W93448  38.715  31.128  10.713
28189W        W93449  29.264  42.813   4.699
28190W        W93450  25.091  22.528   1.694
28191W        W93451  39.311  35.406   0.553
28192W        W93452  11.073  21.068  11.072
28193W        W93453   1.336  11.516   9.897
28194W        W93454  22.236  11.804   0.814
28195W        W93455   6.151   6.899   3.640
28196W        W93456  37.014  44.221  11.294
28197W        W93457   9.933   5.364  13.363
28198W        W93458  10.367   1.356  14.892
28199W        W93459  18.802   0.110  13.386
28200W        W93460  40.895  44.888  12.449
28201W        W93461  32.108  17.124  12.105
28202W        W93462  18.564  24.125  14.813
28203W        W93463  14.384  43.925  12.187
28204W        W93464  44.438   2.164  14.905
28205W        W93465   3.160  40.530  14.330
28206W        W93466  14.754   6.867  14.753
28207W        W93467  12.249  32.321  10.708
28208W        W93468   0.074   8.602  10.091
28209W        W93469   0.737  16.168   0.804
28210W        W93470  36.319  35.495   4.037
28211W        W93471  38.734  20.528   3.712
28212W        W93472  18.866  33.152   0.104
28213W        W93473  42.215  23.110  11.750
28214W        W93474  18.143  13.810   4.072
28215W        W93475  12.203   9.508  14.260
28216W        W93476   4.859  12.285  11.851
28217W        W93477   6.213  41.324   4.124
28218W        W93478  42.577  22.312   1.731
28219W        W93479  37.089  42.999  13.877
28220W        W93480  13.779  29.557   0.250
28221W        W93481  10.412  33.692   0.476
28222W        W93482  21.625  19.959   3.320
28223W        W93483  34.171  26.533   2.273
28224W        W93484  31.125  43.955   1.199
28225W        W93485  26.029   7.963  12.875
28226W        W93486  29.018  43.607  11.046
28227W        W93487  34.858  23.665  14.336
28228W        W93488  23.144   7.592  13.878
28229W        W93489  11.415  27.185   3.503
28230W        W93490   2.993   0.999   1.741
28231W        W93491   0.308   8.080  10.970
28232W        W93492  27.120   0.973  12.873
28233W        W93493  38.833  14.439  14.998
28234W        W93494  27.620  26.793  13.273
28235W        W93495  39.607  16.482   3.586
28236W        W93496  41.531  24.736   1.708
28237W        W93497   2.561  37.720  10.031
28238W        W93498   9.276   5.976  11.105
28239W        W93499  36.944  16.665   2.682
28240W        W93500   8.687  39.857  13.460
28241W        W93501  28.221   3.959  10.580
28242W        W93502  10.152  42.240  10.420
28243W        W93503  31.711  17.653  14.717
28244W        W93504  12.109  28.303   1.140
28245W        W93505  22.042  40.440  10.280
28246W        W93506   6.644   5.872   0.332
28247W        W93507  44.159  18.736   1.212
28248W        W93508  42.101  23.744  11.221
28249W        W93509   1.059   1.530   3.320
28250W        W93510  41.589   6.956  11.249
28251W        W93511  16.785  24.259   2.698
28252W        W93512  20.295  28.669   0.533
28253W        W93513  11.199  30.298  14.716
28254W        W93514   6.355  26.484   2.579
28255W        W93515  38.529  27.993   4.792
28256W        W93516  41.073   5.835  12.054
28257W        W93517  22.095  41.187  11.919
28258W        W93518  24.987   8.668  14.329
28259W        W93519  17.186   8.536   1.753
28260W        W93520  27.704  37.916   0.814
28261W        W93521  23.549  30.010  12.996
28262W        W93522   0.789   3.939  12.017
28263W        W93523   9.384  30.040  14.908
28264W        W93524  25.037  31.082   0.839
28265W        W93525  11.685  23.296  12.861
28266W        W93526  31.109  19.442  11.079
28267W        W93527  25.519  31.344  13.986
28268W        W93528  42.591  20.209  13.571
28269W        W93529  18.428   0.941   3.646
28270W        W93530   5.216  17.722  12.379
28271W        W93531  13.501  25.705  12.341
28272W        W93532  25.942  31.634  13.880
28273W        W93533  35.596  42.198  14.513
28274W        W93534  18.153  11.867   2.564
28275W        W93535  15.738   7.275  12.771
28276W        W93536  27.842  22.223   0.871
28277W        W93537  38.527  34.995  11.494
28278W        W93538  41.253  38.546  14.855
28279W        W93539  43.875  34.544   4.852
28280W        W93540  13.403   3.268   4.001
28281W        W93541  20.030   3.897  13.965
28282W        W93542  17.388   4.938  12.932
28283W        W93543   9.729  20.582   1.233
28284W        W93544   6.193  28.727   3.111
28285W        W93545   3.140  44.720   2.389
28286W        W93546  26.149  26.412  14.434
28287W        W93547  22.180   7.649  13.087
28288W        W93548  40.474  13.329  12.408
28289W        W93549  16.174   1.781  12.787
28290W        W93550  30.516  38.431   0.984
28291W        W93551  18.151  43.209   3.060
28292W        W93552  36.495  23.171   4.494
28293W        W93553  16.160  25.750   3.374
28294W        W93554  29.556  19.787   3.891
28295W        W93555   7.681   0.515   2.697
28296W        W93556  12.860   4.336  14.387
28297W        W93557  12.668   6.045   3.846
28298W        W93558   1.434  25.390   3.633
28299W        W93559   4.829   1.516   0.930
28300W        W93560  40.143   1.443   4.275
28301W        W93561  17.562   6.897  13.038
28302W        W93562   4.818  13.586  12.859
28303W        W93563  24.800   4.907  14.388
28304W        W93564  12.281  30.563   4.508
28305W        W93565  11.154  28.148   3.707
28306W        W93566  17.640  16.648  11.165
28307W        W93567  36.089  43.625   5.072
28308W        W93568  21.243  25.410   2.412
28309W        W93569   7.699   1.172   4.569
28310W        W93570  36.964  15.026  12.185
28311W        W93571  27.664  31.587  13.523
28312W        W93572   3.453  41.351  13.342
28313W        W93573  26.004   2.355   4.870
28314W        W93574  41.964  11.159  11.026
28315W        W93575  32.693  19.112  10.772
28316W        W93576  27.529  20.060   0.964
28317W        W93577  31.545   2.489   0.701
28318W        W93578  22.845  25.204  13.956
28319W        W93579   6.362   8.727  11.183
28320W        W93580   3.295   9.099  13.936
28321W        W93581  28.917  27.037  14.440
28322W        W93582  10.691  30.067  12.138
28323W        W93583  13.801  35.331  11.121
28324W        W93584  10.615  21.225  10.695
28325W        W93585   7.149  25.565   1.416
28326W        W93586  32.492  34.608  12.995
28327W        W93587   4.029  19.656  13.884
28328W        W93588   7.943   9.440  10.178
28329W        W93589  44.793  33.944   0.740
28330W        W93590  16.650  28.583   2.049
28331W        W93591   4.345   7.444   0.596
28332W        W93592  29.444   9.782   0.510
28333W        W93593   8.924  14.562  12.128
28334W        W93594  43.580   0.992   1.904
28335W        W93595  42.567  13.788  14.853
28336W        W93596  27.576  41.093  12.074
28337W        W93597   9.472  18.170   4.013
28338W        W93598  40.297  16.646  11.976
28339W        W93599  41.245  41.215   2.435
28340W        W93600   3.900   0.317   1.619
28341W        W93601  26.780  36.055  11.418
28342W        W93602  12.741   1.830  13.819
28343W        W93603  44.039  40.000  13.756
28344W        W93604  38.460  29.220   0.715
28345W        W93605  44.326  12.216   3.194
28346W        W93606  20.965   1.545   1.271
28347W        W93607  25.211  20.240   3.391
28348W        W93608  17.151  39.922  14.749
28349W        W93609  28.034  38.862  14.769
28350W        W93610   4.145  19.935   4.039
28351W        W93611  38.288  25.224   0.209
28352W        W93612  26.232  32.631   4.183
28353W        W93613   3.370   2.333   1.277
28354W        W93614  31.119   9.079   4.874
28355W        W93615   8.251  42.336   3.393
28356W        W93616   3.810  26.983  12.878
28357W        W93617  18.911  16.638   0.745
28358W        W93618  23.715  37.920   1.807
28359W        W93619  14.243  18.672  10.299
28360W        W93620  25.093  16.194  10.186
28361W        W93621  36.667   4.963  10.818
28362W        W93622  32.570  17.281  11.867
28363W        W93623  37.509  42.295   3.137
28364W        W93624  37.138  14.178   0.837
28365W        W93625   1.184  28.864  14.749
28366W        W93626   0.704   3.083   4.474
28367W        W93627   6.973   3.162  11.934
28368W        W93628   3.850  34.418   3.211
28369W        W93629   0.949  12.177  12.968
28370W        W93630  12.785  26.297   5.481
28371W        W93631  23.935  23.608  12.280
28372W        W93632  21.631  39.580  13.167
28373W        W93633   2.430  14.718   0.821
28374W        W93634  29.344  18.347  10.342
28375W        W93635  24.959  24.328   1.824
28376W        W93636  14.027   0.677  14.367
28377W        W93637  41.337  44.986   1.846
28378W        W93638  15.237  11.561   4.243
28379W        W93639  43.256  26.460   4.035
28380W        W93640  32.075  22.203  11.654
28381W        W93641  42.729  26.715   1.731
28382W        W93642  30.269  37.495   5.031
28383W        W93643  23.965  11.132   1.708
28384W        W93644   8.122  42.547   3.873
28385W        W93645  27.686  22.640   4.586
28386W        W93646  36.858  42.429   1.790
28387W        W93647  22.687  22.072  11.713
28388W        W93648   7.757  40.985   3.263
28389W        W93649  43.755  32.584  10.672
28390W        W93650  10.779   7.786  13.591
28391W        W93651  37.314  19.641   1.796
28392W        W93652  31.297  23.086  12.273
28393W        W93653  27.979  15.765  14.370
28394W        W93654  42.334  15.114   4.197
28395W        W93655  35.936  41.902   4.556
28396W        W93656  32.134  35.850   3.767
28397W        W93657  27.644  34.958  14.738
28398W        W93658  26.182  32.827   3.696
28399W        W93659   8.356  42.670   2.440
28400W        W93660  39.825  23.026   1.442
28401W        W93661  15.272  23.148  10.109
28402W        W93662   1.670  18.723   3.237
28403W        W93663   3.815  15.622  10.308
28404W        W93664   5.449  37.707   4.847
28405W        W93665  13.729  36.402  11.934
28406W        W93666  20.873  13.363  12.539
28407W        W93667  40.312  27.564  12.953
28408W        W93668  25.531   2.185   2.752
28409W        W93669  39.857   8.066  11.914
28410W        W93670  12.924  33.799  14.781
28411W        W93671  35.278  34.626   4.301
28412W        W93672  34.658  30.692   4.092
28413W        W93673   1.006  23.430   2.189
28414W        W93674  22.525  29.203   0.820
28415W        W93675   9.600  32.547   1.129
28416W        W93676  34.384  33.283  13.839
28417W        W93677  43.215  24.306   3.974
28418W        W93678  34.903   5.141   1.879
28419W        W93679  35.602  41.052   0.892
28420W        W93680  15.590  10.157  11.101
28421W        W93681  43.772  18.149  13.147
28422W        W93682  34.564  15.025  12.488
28423W        W93683  39.857  29.587   4.435
28424W        W93684   7.977  25.655  13.565
28425W        W93685  28.586   4.553  12.101
28426W        W93686  40.803  36.093  11.671
28427W        W93687  18.769   4.419  10.705
28428W        W93688  41.904  37.607   1.774
28429W        W93689  35.144   4.983   5.097
28430W        W93690  35.065   8.920  11.189
28431W        W93691   8.718   9.779   0.943
28432W        W93692  20.552  39.443  12.454
28433W        W93693  18.112  44.902  13.972
28434W        W93694  14.607  38.567  11.637
28435W        W93695   3.237  28.221  14.467
28436W        W93696   3.029  25.999  11.742
28437W        W93697  33.858  44.523  13.941
28438W        W93698  40.532  10.400   2.395
28439W        W93699  34.680  17.735   4.817
28440W        W93700   9.677  42.588  14.368
28441W        W93701  41.538  31.979   3.231
28442W        W93702  16.988  30.630  14.463
28443W        W93703  42.969  35.547   4.591
28444W        W93704  38.327  43.897   0.878
28445W        W93705  28.380   2.444  13.065
28446W        W93706   4.130  11.789   4.385
28447W        W93707  24.636  10.832   1.809
28448W        W93708  40.082  24.937   0.086
28449W        W93709  14.119  39.261   1.138
28450W        W93710  36.174  17.169  10.564
28451W        W93711   5.369  40.655   2.358
28452W        W93712   3.007  30.113  13.811
28453W        W93713  40.842   0.031  10.120
28454W        W93714  11.150  31.942  10.994
28455W        W93715  17.970  10.771   2.724
28456W        W93716  29.645   2.831  13.220
28457W        W93717  14.819   7.283   1.783
28458W        W93718  17.873  12.291  11.949
28459W        W93719   9.206  10.779   1.253
28460W        W93720  18.217  25.748   3.647
28461W        W93721   8.835   1.041  12.460
28462W        W93722  22.656  23.645   0.921
28463W        W93723  43.608  25.107   1.109
28464W        W93724  24.515  26.993   0.718
28465W        W93725  15.591   9.815   1.015
28466W        W93726  16.882  32.913   4.061
28467W        W93727  25.663  18.536  11.612
28468W        W93728  29.039  10.853   2.844
28469W        W93729  36.002  20.421   1.104
28470W        W93730   7.594  15.236   2.450
28471W        W93731   9.087  33.153  12.852
28472W        W93732  39.113   8.260   3.076
28473W        W93733   8.633  41.699   3.790
28474W        W93734  15.185   7.940   2.313
28475W        W93735  23.268  11.902  12.058
28476W        W93736  33.576   2.193  14.401
28477W        W93737  13.258   4.762   3.798
28478W        W93738  30.642  30.903   1.469
28479W        W93739  38.499   0.891  12.128
28480W        W93740  35.446   3.414   1.855
28481W        W93741  43.443  17.236  14.435
28482W        W93742  27.717  29.914  13.789
28483W        W93743   3.827  39.932   4.418
28484W        W93744  32.174  22.545   2.846
28485W        W93745  27.003   2.189   3.616
28486W        W93746  42.774  41.391  14.805
28487W        W93747  15.667  22.107  10.780
28488W        W93748   6.762   4.000  11.646
28489W        W93749  32.003  27.119  12.410
28490W        W93750  10.383  27.722   4.843
28491W        W93751  37.486  20.253   4.885
28492W        W93752  20.278  23.286   4.581
28493W        W93753  38.847  22.176  13.434
28494W        W93754  21.053   9.669   2.971
28495W        W93755  25.982   4.183   0.330
28496W        W93756  33.325  30.018   0.917
28497W        W93757   3.046  27.046  13.572
28498W        W93758  40.903   7.859   2.383
28499W        W93759  26.205  11.364   0.865
28500W        W93760  36.799  13.217  11.723
28501W        W93761   3.182  12.194  12.433
28502W        W93762  12.373   4.424   0.116
28503W        W93763   1.055  14.060   1.806
28504W        W93764  27.864  14.712  11.604
28505W        W93765  41.857  37.678   9.888
28506W        W93766   3.266   5.145   0.840
28507W        W93767  37.974  35.959  11.131
28508W        W93768  29.107  28.026  11.575
28509W        W93769   9.418  19.751  10.379
28510W        W93770  29.576  44.013   2.109
28511W        W93771  33.472  42.893   2.777
28512W        W93772  43.861  29.557   1.332
28513W        W93773  41.019   0.346   2.893
28514W        W93774  38.851  44.987   3.717
28515W        W93775  16.856   2.222   0.341
28516W        W93776  22.588  18.284  11.530
28517W        W93777   9.775  31.994   2.852
28518W        W93778  38.043  22.305   4.176
28519W        W93779  23.860  20.367   0.946
28520W        W93780   8.691  22.879  10.948
28521W        W93781  33.937  15.778   4.553
28522W        W93782  24.037   7.516  13.358
28523W        W93783  21.093   6.191   4.613
28524W        W93784  39.770  11.036   2.682
28525W        W93785  19.191  12.536  12.462
28526W        W93786   1.019  16.696  13.910
28527W        W93787  24.829   5.747   0.509
28528W        W93788  12.277   2.021   0.323
28529W        W93789   1.381  30.565   1.894
28530W        W93790  37.118  10.147  12.932
28531W        W93791   6.771  19.038  11.906
28532W        W93792  28.323  44.007  10.594
28533W        W93793  10.681  37.415  14.497
28534W        W93794  39.274  29.153  10.689
28535W        W93795  19.483  23.436  14.645
28536W        W93796   4.439   1.202   0.789
28537W        W93797  26.073  19.191   3.186
28538W        W93798  43.978  18.578   2.575
28539W        W93799  22.478  11.244  11.479
28540W        W93800  20.150   6.154  14.404
28541W        W93801  23.313   1.785  14.466
28542W        W93802  38.365  22.705   2.360
28543W        W93803   7.644  33.714  10.663
28544W        W93804  13.213  18.934  14.253
28545W        W93805  10.745  28.078  13.396
28546W        W93806  26.934  18.257   3.204
28547W        W93807   8.994  18.043  14.807
28548W        W93808  21.530   7.363   3.311
28549W        W93809   7.734  19.318   2.156
28550W        W93810  42.278  32.865  12.649
28551W        W93811  19.345  38.305   2.217
28552W        W93812   1.464  32.897   4.259
28553W        W93813  15.515  43.450   2.688
28554W        W93814  35.545  14.086  14.940
28555W        W93815  28.153  30.621  14.415
28556W        W93816  13.750   5.514   2.842
28557W        W93817  21.381  16.174  12.504
28558W        W93818  34.089  21.562  14.685
28559W        W93819   7.795  17.372   4.091
28560W        W93820  33.830  29.959  10.661
28561W        W93821  25.391  17.059   1.806
28562W        W93822  36.078  40.639  14.955
28563W        W93823  31.417  36.389  11.754
28564W        W93824  25.271  38.045  12.241
28565W        W93825   7.741   2.342   3.103
28566W        W93826  30.451   0.216  12.155
28567W        W93827  37.838   2.562   1.932
28568W        W93828  34.383  38.476   2.066
28569W        W93829   6.090  33.129   2.191
28570W        W93830  43.022  20.649   0.847
28571W        W93831   7.312  11.791   2.660
28572W        W93832  25.792  26.160  11.185
28573W        W93833   9.422  43.670   2.396
28574W        W93834  13.764  11.905   2.974
28575W        W93835  34.381  38.433   3.090
28576W        W93836  14.076  32.930  10.481
28577W        W93837  24.157   6.853   1.260
28578W        W93838   7.332  19.450  13.281
28579W        W93839   5.479  34.584  11.253
28580W        W93840  11.293  27.340   3.019
28581W        W93841  41.656  20.141   4.418
28582W        W93842  22.837  15.393   3.066
28583W        W93843  41.458  41.556  12.476
28584W        W93844   6.253  15.798  11.543
28585W        W93845  24.529  32.360   1.501
28586W        W93846  44.999  30.810   3.773
28587W        W93847  33.566  43.806  11.523
28588W        W93848  26.448   0.200   0.607
28589W        W93849  34.775  14.673   0.915
28590W        W93850  38.097  15.045   1.785
28591W        W93851  33.925  21.654  12.867
28592W        W93852  35.009  20.919  12.440
28593W        W93853  11.173  28.187  11.488
28594W        W93854  10.565  17.261   3.238
28595W        W93855   9.760  29.475  14.318
28596W        W93856   5.234  15.861   2.628
28597W        W93857  26.041  17.134  14.035
28598W        W93858  18.060  31.437  13.513
28599W        W93859   3.857  34.873  13.070
28600W        W93860  17.256  44.741   2.762
28601W        W93861  19.995  30.646  11.986
28602W        W93862  42.503  20.685  13.094
28603W        W93863  17.019  21.002  13.380
28604W        W93864  14.582  35.952   2.449
28605W        W93865  32.602  18.501   0.253
28606W        W93866  21.375   5.021   9.938
28607W        W93867  42.333  19.664  10.647
28608W        W93868  28.577  24.700   3.267
28609W        W93869  31.515  24.453   4.656
28610W        W93870  37.927  36.879   1.675
28611W        W93871  29.153  18.417  11.639
28612W        W93872  21.925  40.930   0.494
28613W        W93873   2.821  10.301   0.070
28614W        W93874  19.612  32.258   3.618
28615W        W93875  17.781  17.361  10.588
28616W        W93876  31.661   4.569   0.940
28617W        W93877  37.456  40.403   0.946
28618W        W93878  10.797  12.400   2.200
28619W        W93879  29.954   2.066   1.838
28620W        W93880  40.504   4.127  11.101
28621W        W93881  26.949  42.807  12.469
28622W        W93882  16.798  10.340  10.594
28623W        W93883   8.369  40.349   3.296
28624W        W93884  28.675  35.926   1.653
28625W        W93885  36.637  39.618  12.082
28626W        W93886   9.589  22.781   1.853
28627W        W93887   6.017   6.374   2.491
28628W        W93888  28.103  28.745  11.374
28629W        W93889  38.773  11.843  12.615
28630W        W93890  15.799   6.440   4.074
28631W        W93891   8.601   6.411   3.373
28632W        W93892  19.028  21.617   0.255
28633W        W93893  44.457  37.287   2.852
28634W        W93894  39.588  16.176   0.065
28635W        W93895  28.621  27.991  11.275
28636W        W93896   8.717  20.032   3.594
28637W        W93897  27.464   1.246   3.060
28638W        W93898   5.633   9.367   0.976
28639W        W93899   3.323  31.179   1.749
28640W        W93900   8.728  28.573  13.011
28641W        W93901  29.518  19.826   2.338
28642W        W93902  18.144  42.308   4.574
28643W        W93903   3.721  32.505   4.592
28644W        W93904  31.706  23.463  10.101
28645W        W93905  13.049  39.332   4.122
28646W        W93906   5.284  35.136   1.409
28647W        W93907   9.661   0.367  12.102
28648W        W93908  39.520  41.592   3.757
28649W        W93909  35.271   3.845  10.948
28650W        W93910  23.922  19.723  12.875
28651W        W93911  27.100  31.117  13.147
28652W        W93912  39.129  38.392   4.201
28653W        W93913  33.448  38.961   5.171
28654W        W93914  11.117  35.442   0.779
28655W        W93915  40.493  35.688  11.481
28656W        W93916  25.146  25.431   2.316
28657W        W93917  10.137  29.456   4.258
28658W        W93918  20.118  29.641   4.117
28659W        W93919  22.230  40.807   0.888
28660W        W93920  34.040  38.375   3.803
28661W        W93921  36.617  20.203   2.095
28662W        W93922  43.830  22.867  11.764
28663W        W93923  31.139   6.754   0.913
28664W        W93924   9.112  17.708  13.569
28665W        W93925  19.659  39.108  10.737
28666W        W93926  19.365  26.766   4.045
28667W        W93927   1.222  36.836  14.716
28668W        W93928   0.251   0.664   2.093
28669W        W93929  43.276  21.984   4.502
28670W        W93930  20.840  25.541   3.191
28671W        W93931  30.610  39.955  14.858
28672W        W93932  36.790  18.299  13.827
28673W        W93933   2.884  22.513  12.972
28674W        W93934  43.958  27.437  12.242
28675W        W93935  10.878  10.158   2.103
28676W        W93936   4.405  31.471  12.029
28677W        W93937  41.319  28.262   0.996
28678W        W93938  31.364  38.821   3.901
28679W        W93939  34.651   7.357   4.832
28680W        W93940  36.464  11.471   2.199
28681W        W93941   1.062  18.970   1.282
28682W        W93942  31.951   6.299   2.190
28683W        W93943   2.845   9.281  13.736
28684W        W93944   9.229  32.698  11.517
28685W        W93945  10.470  29.601  10.038
28686W        W93946  44.044  41.848  13.992
28687W        W93947  42.440  32.135  12.194
28688W        W93948  35.445  14.924   1.548
28689W        W93949  26.673  20.770  11.996
28690W        W93950   3.731  32.035  14.081
28691W        W93951  15.051   3.300   3.584
28692W        W93952  44.099   5.820  12.380
28693W        W93953  14.747   7.709  10.727
28694W        W93954  11.844   5.301   4.677
28695W        W93955   1.425  10.136   2.142
28696W        W93956   7.740  44.698  12.980
28697W        W93957  26.895  34.592  12.479
28698W        W93958  18.311  30.494   1.619
28699W        W93959  14.742  36.551  11.913
28700W        W93960  16.008   3.121   2.615
28701W        W93961  13.524  44.909   3.322
28702W        W93962  36.357  13.176  14.001
28703W        W93963   6.463  34.861  12.110
28704W        W93964  25.997   0.885  13.607
28705W        W93965   0.590  17.229   9.988
28706W        W93966   8.002   7.178  11.531
28707W        W93967  26.655  37.488  14.482
28708W        W93968  43.741  38.236   0.290
28709W        W93969  28.410  16.463   9.576
28710W        W93970   4.344  36.672  14.738
28711W        W93971  23.971  22.025  14.815
28712W        W93972  40.413  38.476  11.214
28713W        W93973  32.955  14.126  12.036
28714W        W93974   4.011  18.790   4.289
28715W        W93975   5.591  36.997   2.374
28716W        W93976   9.423  33.598   3.393
28717W        W93977   7.226  28.495  11.244
28718W        W93978  37.282  41.597  14.979
28719W        W93979   5.137   1.348   4.706
28720W        W93980  27.687  44.470  13.111
28721W        W93981  26.227  13.075   5.012
28722W        W93982  22.222  40.397   3.640
28723W        W93983  31.091  38.837   2.468
28724W        W93984  25.930  14.134   3.657
28725W        W93985  25.010  15.152  10.671
28726W        W93986   1.945  27.613   5.780
28727W        W93987  24.496   9.021   0.418
28728W        W93988  17.254  17.518  13.486
28729W        W93989   9.450  15.218   1.410
28730W        W93990  35.984  19.508   1.219
28731W        W93991  41.253   8.643   3.234
28732W        W93992  43.978   5.747   2.915
28733W        W93993  30.647   6.659   1.180
28734W        W93994  30.039   2.932  14.964
28735W        W93995  25.694  14.422  13.750
28736W        W93996   0.750  29.201  12.419
28737W        W93997  19.074  29.251   1.757
28738W        W93998  18.925   9.228   3.810
28739W        W93999  31.387  37.829  10.884
28740W        W94000   9.666  21.170   4.729
28741W        W94001  30.045  26.037  14.430
28742W        W94002  11.228  22.805   3.203
28743W        W94003  33.596  35.652   4.380
28744W        W94004  31.688  22.026   1.725
28745W        W94005  26.028   0.293  12.417
28746W        W94006  36.123   7.767   2.253
28747W        W94007   3.915  13.244  13.594
28748W        W94008  37.357  18.486  14.382
28749W        W94009  35.324  33.167   2.728
28750W        W94010  36.601  34.545   3.548
28751W        W94011  14.910  10.157   0.428
28752W        W94012   0.250  22.486   3.270
28753W        W94013  41.303  19.473  11.532
28754W        W94014  27.727  19.862  13.998
28755W        W94015   5.959   0.452   1.812
28756W        W94016  13.484  36.807   1.926
28757W        W94017  22.743  27.568  11.000
28758W        W94018  30.722  13.123  14.470
28759W        W94019  19.371   0.355   2.391
28760W        W94020  18.310  28.036  13.986
28761W        W94021  16.382  36.939  12.482
28762W        W94022  20.694  21.294  10.628
28763W        W94023  15.470  35.970  11.666
28764W        W94024  12.051   8.575  11.841
28765W        W94025   1.097  35.547   4.085
28766W        W94026  38.416   4.390  12.824
28767W        W94027  27.600   1.573  14.597
28768W        W94028  35.509  37.316  11.278
28769W        W94029   1.631  27.984  11.158
28770W        W94030  23.605  18.644  14.289
28771W        W94031   1.178   7.147  11.167
28772W        W94032  24.731  14.290  11.393
28773W        W94033  14.709  32.984   1.952
28774W        W94034  20.516   4.604  13.561
28775W        W94035   3.233  39.984   1.006
28776W        W94036  44.917   6.848  13.559
28777W        W94037  41.698  21.013   4.322
28778W        W94038  38.463  23.170  13.539
28779W        W94039  44.766  44.803  10.853
28780W        W94040   3.448  36.544   2.768
28781W        W94041  31.938  20.535  11.118
28782W        W94042  30.398   9.144   1.269
28783W        W94043  37.599   9.805  13.266
28784W        W94044  24.652  23.698  12.137
28785W        W94045  28.055   9.489  12.034
28786W        W94046  36.873  17.218  13.179
28787W        W94047   6.006  41.056  13.898
28788W        W94048  36.099  16.786  11.702
28789W        W94049  16.604  17.635   2.270
28790W        W94050   1.443  37.536   0.950
28791W        W94051  31.656  16.993   3.083
28792W        W94052  44.862  11.256  13.948
28793W        W94053  42.327   1.414   2.378
28794W        W94054  29.538  41.232   9.966
28795W        W94055  35.124  32.098  11.147
28796W        W94056  20.293   4.365  14.050
28797W        W94057  39.454  37.530   0.396
28798W        W94058  21.223  24.658  14.569
28799W        W94059  24.018  41.836   2.741
28800W        W94060   1.892  17.782  14.507
28801W        W94061  26.569  39.083   2.583
28802W        W94062  21.097   4.658  14.793
28803W        W94063  13.120  38.568   5.228
28804W        W94064  12.390  38.202  11.218
28805W        W94065  20.567  15.463   2.636
28806W        W94066  40.582  21.463  14.408
28807W        W94067  11.722  41.970  11.121
28808W        W94068  26.555  17.202  14.106
28809W        W94069  30.573  15.177   0.530
28810W        W94070  34.692  11.346   1.812
28811W        W94071  40.946  29.172  11.267
28812W        W94072  38.475  32.079  11.564
28813W        W94073  29.351  32.562  14.465
28814W        W94074  27.063  40.173  13.305
28815W        W94075  34.471  11.782  13.047
28816W        W94076  27.503   3.757   3.767
28817W        W94077  27.534  38.528  14.920
28818W        W94078   1.425  39.395   1.008
28819W        W94079   0.676  21.337   2.243
28820W        W94080  24.768  44.953  12.002
28821W        W94081  12.123  21.999   0.497
28822W        W94082  23.186   1.456   1.299
28823W        W94083  16.362  25.175   5.077
28824W        W94084  33.964  42.564   0.211
28825W        W94085  21.206  25.152  14.412
28826W        W94086  16.622  43.721   4.208
28827W        W94087   1.706   2.932   2.261
28828W        W94088  39.168  41.598  11.062
28829W        W94089  29.766   6.514   4.777
28830W        W94090  32.904  42.525   3.759
28831W        W94091  23.790  29.160   3.160
28832W        W94092  25.774  41.723  13.431
28833W        W94093  22.667  19.750   2.962
28834W        W94094  11.672   2.249  10.437
28835W        W94095  42.812  25.883   3.873
28836W        W94096  31.912   6.922  13.415
28837W        W94097  42.350  11.836  12.510
28838W        W94098  39.611  26.072   1.484
28839W        W94099  41.088   9.322   1.140
28840W        W94100  32.955   1.165   0.564
28841W        W94101  14.869  17.025   1.887
28842W        W94102  36.391  40.304  13.613
28843W        W94103  10.837  12.024  12.460
28844W        W94104  25.616  14.572   3.751
28845W        W94105  36.244  23.610  10.866
28846W        W94106  30.471  12.185   4.422
28847W        W94107  15.739  14.925   2.377
28848W        W94108  38.954   6.609   0.584
28849W        W94109  11.922  44.335  10.793
28850W        W94110  44.939  19.577   3.724
28851W        W94111  39.816  27.505  14.208
28852W        W94112  28.588  21.582   4.657
28853W        W94113  40.517  42.542   3.003
28854W        W94114  35.154  23.000   4.564
28855W        W94115  14.363  34.104   3.929
28856W        W94116  41.355  44.000   2.221
28857W        W94117   5.530   2.296   0.845
28858W        W94118  21.733  43.123  14.409
28859W        W94119  40.796  18.516  13.818
28860W        W94120  23.295  25.501   3.649
28861W        W94121  30.964  23.771  14.865
28862W        W94122  22.064   0.232   3.716
28863W        W94123  22.776  43.112  13.410
28864W        W94124   8.773  36.062  14.938
28865W        W94125  39.959  11.175  11.683
28866W        W94126  21.976   9.659  13.983
28867W        W94127  11.995  38.543   1.044
28868W        W94128  34.506  34.891  13.149
28869W        W94129   8.909  33.594  12.649
28870W        W94130  19.806  29.987  14.425
28871W        W94131  38.179  41.853  13.005
28872W        W94132  27.259  28.540  12.295
28873W        W94133  38.396  23.950   0.881
28874W        W94134  15.074  22.494   0.753
28875W        W94135  42.373  25.048   3.249
28876W        W94136  42.324  15.216  12.026
28877W        W94137  21.013  18.747   1.722
28878W        W94138  15.610  16.611  14.963
28879W        W94139   6.843  38.138   0.217
28880W        W94140  18.260  22.274   1.442
28881W        W94141  20.436  39.201   0.823
28882W        W94142  10.823  40.824   3.346
28883W        W94143   8.583  12.915  12.503
28884W        W94144   4.297  21.491  12.876
28885W        W94145  35.537   1.475   1.621
28886W        W94146   2.088  15.170   3.302
28887W        W94147   0.476  42.834  11.947
28888W        W94148  28.623   7.493  10.815
28889W        W94149  21.522   4.801   2.308
28890W        W94150  11.250  10.591  11.867
28891W        W94151  32.633   9.797   0.923
28892W        W94152  23.581   8.521   3.289
28893W        W94153  42.267  40.261  14.833
28894W        W94154  19.699   6.342  14.569
28895W        W94155  23.212  27.518   3.686
28896W        W94156  24.187   4.955   0.277
28897W        W94157   9.813  17.651  14.812
28898W        W94158  29.913  23.768  11.226
28899W        W94159  16.278  10.554  11.478
28900W        W94160  26.066  21.196   1.379
28901W        W94161   7.370  40.369  14.414
28902W        W94162  29.195  17.230   3.313
28903W        W94163   4.704  28.440   0.956
28904W        W94164  44.278  28.135   3.607
28905W        W94165  11.708  40.469   2.598
28906W        W94166  42.324  36.394  11.111
28907W        W94167  36.425  27.638   1.370
28908W        W94168  15.476  31.547  12.009
28909W        W94169  39.978  39.049   1.954
28910W        W94170  39.374   6.153  14.762
28911W        W94171  41.822  14.986   4.632
28912W        W94172   3.943   2.468   2.185
28913W        W94173  40.182  42.935  14.722
28914W        W94174   5.822  38.430   0.696
28915W        W94175  29.283  13.596   1.758
28916W        W94176  32.660  42.854  10.805
28917W        W94177  19.535  14.761   3.556
28918W        W94178  16.962  42.814  12.111
28919W        W94179  19.657   9.810  12.829
28920W        W94180  14.041   1.331  12.871
28921W        W94181   8.208  33.582  11.499
28922W        W94182  40.478  30.124  12.537
28923W        W94183  28.738  39.007  11.105
28924W        W94184  28.104   5.061   4.191
28925W        W94185  19.587  34.372   3.218
28926W        W94186  24.884  40.009  14.446
28927W        W94187  23.979  21.829  11.201
28928W        W94188  17.658  12.859  14.390
28929W        W94189  13.622  43.021   4.116
28930W        W94190  26.077   2.533   1.944
28931W        W94191  40.898  24.807   3.768
28932W        W94192   7.496  28.046   1.059
28933W        W94193  40.225  13.838  11.047
28934W        W94194   1.477  36.604   3.213
28935W        W94195  19.243  19.629   2.280
28936W        W94196  26.509   7.053   1.840
28937W        W94197  36.840  28.679  13.297
28938W        W94198   6.355  27.202  12.009
28939W        W94199  29.507  12.245   3.778
28940W        W94200  38.598  38.329   4.246
28941W        W94201  30.911  31.392  14.292
28942W        W94202  39.570  10.991  14.953
28943W        W94203  20.288   5.950  13.522
28944W        W94204   6.273  32.113  11.141
28945W        W94205  34.465   2.460  11.550
28946W        W94206  24.233  33.629   0.887
28947W        W94207  43.808  25.437   1.452
28948W        W94208  21.273  29.536   2.730
28949W        W94209  38.372  24.099   2.831
28950W        W94210  21.181  13.510   4.578
28951W        W94211  20.252  27.968  10.668
28952W        W94212   3.864  30.840   5.341
28953W        W94213  15.490   3.289   3.855
28954W        W94214  34.072  27.269   3.375
28955W        W94215  11.206   5.098  11.036
28956W        W94216  32.971   5.594   0.450
28957W        W94217  13.025  29.348  11.971
28958W        W94218  15.286  37.008   4.928
28959W        W94219  36.531   3.409  12.129
28960W        W94220  33.712   4.014  13.068
28961W        W94221  26.076   8.011   2.232
28962W        W94222  32.481   0.453  13.946
28963W        W94223   9.795  18.120   4.893
28964W        W94224  16.325   7.431  13.775
28965W        W94225   1.285  30.683   2.841
28966W        W94226   5.788   1.441   4.434
28967W        W94227  13.762  10.058   3.658
28968W        W94228   6.654  31.531  14.985
28969W        W94229  36.895  32.478  11.921
28970W        W94230  29.606  32.903  13.592
28971W        W94231  24.910  43.530  13.050
28972W        W94232  10.019  24.327   4.935
28973W        W94233  25.930  26.251   0.403
28974W        W94234  27.016   2.251  10.685
28975W        W94235  12.158  37.931   4.794
28976W        W94236  15.749  18.616  12.058
28977W        W94237  38.458   7.953  12.895
28978W        W94238  36.226  19.873   0.384
28979W        W94239  43.997  23.609  13.613
28980W        W94240   2.162  27.621  14.742
28981W        W94241  44.777  38.855   4.250
28982W        W94242  29.434  41.405  12.439
28983W        W94243  44.570   7.899   1.218
28984W        W94244  32.968   5.324  13.894
28985W        W94245  12.702  22.501   0.045
28986W        W94246  20.618  18.100   0.306
28987W        W94247  12.179   5.609   3.569
28988W        W94248   8.920  17.165   4.403
28989W        W94249  31.148  24.721  11.085
28990W        W94250  20.055  27.429  12.235
28991W        W94251  43.375  24.714  14.757
28992W        W94252  13.363  34.863   3.653
28993W        W94253  19.243   2.034   4.092
28994W        W94254  24.932   4.571  12.566
28995W        W94255  27.143   7.351  13.110
28996W        W94256   5.793  30.841   3.832
28997W        W94257  11.064  17.944  11.204
28998W        W94258   7.439  22.449  13.349
28999W        W94259  40.142  28.892  14.370
29000W        W94260   3.247  42.873  12.559
29001W        W94261   1.761   6.047  11.997
29002W        W94262   5.787  38.735   4.728
29003W        W94263  27.174   3.728   3.347
29004W        W94264  40.788  36.991   0.799
29005W        W94265  40.829  31.920  12.874
29006W        W94266  31.168  23.750  13.090
29007W        W94267  25.614  17.121  14.983
29008W        W94268  15.912  37.930  11.541
29009W        W94269  34.543  44.730   1.699
29010W        W94270  24.766  16.611   4.927
29011W        W94271  37.977  41.376  12.894
29012W        W94272  43.295  36.392   0.911
29013W        W94273  34.381  34.223   3.651
29014W        W94274  12.699  40.898  12.752
29015W        W94275   0.726   3.525   2.021
29016W        W94276  15.278  34.515   2.814
29017W        W94277   1.389   5.287  13.914
29018W        W94278  31.043   0.261   1.735
29019W        W94279  30.724  14.686  10.700
29020W        W94280  29.092  23.755  12.511
29021W        W94281  16.683  42.106  11.097
29022W        W94282  15.534   8.666   1.712
29023W        W94283  36.373  27.714   2.251
29024W        W94284   4.236  37.797  12.937
29025W        W94285   7.493  31.705   4.987
29026W        W94286  13.399  11.735   1.473
29027W        W94287  19.191   4.792  12.541
29028W        W94288   4.364  10.034  10.734
29029W        W94289  37.618  10.685  14.744
29030W        W94290  24.192   2.275   2.325
29031W        W94291  39.763  42.402  11.203
29032W        W94292  44.904  18.034  10.550
29033W        W94293  28.076  41.920   3.666
29034W        W94294  11.317  33.363  10.747
29035W        W94295   4.192  32.166  14.236
29036W        W94296  12.868   0.727   0.832
29037W        W94297   3.035  40.079   4.890
29038W        W94298   9.228  22.219  14.914
29039W        W94299   2.966  10.365  11.174
29040W        W94300  23.662  37.651  12.167
29041W        W94301  20.451  38.200  11.006
29042W        W94302  25.160  38.965   1.059
29043W        W94303  27.579  30.211   3.248
29044W        W94304  37.401  29.422  10.772
29045W        W94305  40.913  35.339  14.608
29046W        W94306  21.957   2.790   3.618
29047W        W94307  28.789  30.627  13.585
29048W        W94308  33.042  15.797   4.744
29049W        W94309   4.891  13.050  10.673
29050W        W94310   3.238  16.970  12.000
29051W        W94311  20.087  19.061   1.303
29052W        W94312  40.785  10.129  13.140
29053W        W94313  20.999  22.964  14.168
29054W        W94314  29.149   2.282   4.057
29055W        W94315  18.717   9.363   4.663
29056W        W94316  29.739   2.406   2.777
29057W        W94317  31.435   5.860   5.039
29058W        W94318  26.012  42.356  14.850
29059W        W94319  38.327  15.869  11.886
29060W        W94320   4.743  17.416   4.617
29061W        W94321  44.183  21.633  12.153
29062W        W94322   3.927  30.230   2.357
29063W        W94323  39.929  25.212   2.271
29064W        W94324   4.700   9.063   3.196
29065W        W94325  13.690   4.251   2.282
29066W        W94326  15.091   2.260   2.599
29067W        W94327  13.826  19.151   3.327
29068W        W94328  20.116  23.121  10.492
29069W        W94329  17.012  24.100  13.559
29070W        W94330  44.800   2.329  14.058
29071W        W94331   5.601  44.803  12.039
29072W        W94332  38.862   6.994  11.588
29073W        W94333  39.425   4.882   3.278
29074W        W94334  34.758  21.044   4.710
29075W        W94335   5.831  43.288  13.827
29076W        W94336  12.745  43.355   1.843
29077W        W94337   6.759  19.805   5.024
29078W        W94338  38.976  25.195   1.049
29079W        W94339  22.085  17.184   4.582
29080W        W94340  16.548   7.754   1.879
29081W        W94341  27.439   4.171   3.426
29082W        W94342  31.525  16.297  13.033
29083W        W94343   9.885  38.460  10.525
29084W        W94344  20.255   1.105   4.041
29085W        W94345  31.421   1.849  10.382
29086W        W94346  19.249   6.594   1.165
29087W        W94347  11.543   0.848   2.180
29088W        W94348   3.945  41.880   3.268
29089W        W94349  14.207  16.106   4.406
29090W        W94350  24.029   1.428   1.059
29091W        W94351   9.340  36.181   3.585
29092W        W94352   8.939  39.835   3.727
29093W        W94353  16.351  17.353   1.897
29094W        W94354  13.863  29.751   0.723
29095W        W94355  23.129  42.898   3.817
29096W        W94356  19.426  19.321  12.311
29097W        W94357  39.551   1.392  13.033
29098W        W94358  22.116  18.033   5.022
29099W        W94359  30.330   3.403  10.966
29100W        W94360  12.099  38.917   4.758
29101W        W94361   1.051   7.256   4.554
29102W        W94362  17.085   8.386  12.835
29103W        W94363  36.568  30.418   3.705
29104W        W94364  14.876  16.711  14.532
29105W        W94365  44.976   0.827  11.788
29106W        W94366  38.888   3.707   3.316
29107W        W94367  38.803   3.884  13.020
29108W        W94368  11.337  42.256  13.883
29109W        W94369  32.343  25.921  10.811
29110W        W94370   3.300   3.222  12.126
29111W        W94371  22.666  35.111  12.617
29112W        W94372  42.301  30.880   4.566
29113W        W94373  37.377  18.097   1.454
29114W        W94374  27.719   7.957  13.602
29115W        W94375  11.682  40.554  14.742
29116W        W94376  19.737   4.458  10.513
29117W        W94377  19.164  30.603   1.731
29118W        W94378  16.821  33.959  12.159
29119W        W94379  35.889  33.209   0.863
29120W        W94380  18.069  11.323  12.659
29121W        W94381   4.411   8.865  13.386
29122W        W94382  20.894  21.824   2.849
29123W        W94383   4.241  36.520   1.890
29124W        W94384   7.752  11.568  13.458
29125W        W94385  31.406  20.071   1.773
29126W        W94386  24.231  42.898   2.333
29127W        W94387  21.637   7.618  12.018
29128W        W94388  31.552  28.001   0.485
29129W        W94389  22.624  10.688   1.604
29130W        W94390  41.057  37.430  14.265
29131W        W94391  28.514  23.957   4.700
29132W        W94392  33.391  34.045   1.919
29133W        W94393   3.708   9.911   2.324
29134W        W94394   6.065  23.283  13.550
29135W        W94395  10.724  13.164  10.692
29136W        W94396   1.963  23.447  10.695
29137W        W94397  40.412   9.650   2.798
29138W        W94398  30.006   6.194  10.562
29139W        W94399   4.445   1.410  11.540
29140W        W94400  23.647   0.612   3.252
29141W        W94401  38.664  26.291   1.709
29142W        W94402   9.725  34.155  13.228
29143W        W94403  31.403  11.453  12.167
29144W        W94404  35.422  42.803   1.771
29145W        W94405  29.197  28.343   2.155
29146W        W94406   3.791  40.139  12.055
29147W        W94407  14.239   5.277   4.122
29148W        W94408  31.915  24.477  11.574
29149W        W94409   3.904   9.378   1.346
29150W        W94410  11.314   5.839  12.826
29151W        W94411  14.124  19.568   2.068
29152W        W94412  33.307  41.564   0.337
29153W        W94413   4.252  10.911  10.988
29154W        W94414  31.618   0.996  11.638
29155W        W94415   2.282  15.977   3.101
29156W        W94416  44.734   5.799   3.138
29157W        W94417  31.081  32.652   3.559
29158W        W94418   1.382   9.995   4.069
29159W        W94419  29.418  34.211   4.249
29160W        W94420   5.685   7.626  14.992
29161W        W94421   4.631  32.549   0.853
29162W        W94422  15.004  36.355  12.475
29163W        W94423  22.243  12.700  10.660
29164W        W94424  44.910  13.689  13.901
29165W        W94425   3.955   7.426  14.302
29166W        W94426   5.307  27.975  10.707
29167W        W94427  14.071  17.324  13.539
29168W        W94428  31.492  35.105   4.071
29169W        W94429  20.635  33.562  12.353
29170W        W94430  24.030   0.139  10.240
29171W        W94431  17.590  43.362  12.450
29172W        W94432  32.004  19.725  10.715
29173W        W94433   9.759  12.232  12.959
29174W        W94434  31.541  31.456   0.347
29175W        W94435  19.153  41.387   2.562
29176W        W94436  18.005  29.148   1.342
29177W        W94437   8.281  21.715   4.506
29178W        W94438   5.355  33.661   0.311
29179W        W94439  43.540  44.396  10.312
29180W        W94440  10.831  39.316  13.056
29181W        W94441  11.822  36.632  11.162
29182W        W94442  24.258  25.177  14.992
29183W        W94443  28.083  19.320   3.569
29184W        W94444  43.076  13.233  13.664
29185W        W94445  37.898   9.996  11.559
29186W        W94446   9.422  14.738  11.270
29187W        W94447  31.833  28.692  12.798
29188W        W94448  38.220  23.921   1.877
29189W        W94449  39.546  38.842  11.132
29190W        W94450  15.098  22.445  11.969
29191W        W94451  31.908  11.719   3.708
29192W        W94452  19.601  44.457   0.344
29193W        W94453   1.202   1.429  11.120
29194W        W94454  23.898  21.114  11.513
29195W        W94455  17.544  43.956  10.466
29196W        W94456  28.395  11.545   2.690
29197W        W94457  35.235  19.681   4.566
29198W        W94458  28.525  25.698   5.782
29199W        W94459  27.015  38.872   1.216
29200W        W94460  37.296  25.251   4.637
29201W        W94461  17.299   5.213   4.156
29202W        W94462  22.576  41.858  11.619
29203W        W94463  15.271  28.600  10.375
29204W        W94464  39.967  27.958  10.607
29205W        W94465  17.005   2.760  11.311
29206W        W94466  16.251   9.456  14.945
29207W        W94467  12.205   5.682  11.516
29208W        W94468  12.856  13.381  14.289
29209W        W94469  43.917  16.829   4.920
29210W        W94470  20.106  30.262   3.243
29211W        W94471  18.007  15.664   0.756
29212W        W94472  12.202  36.630  13.454
29213W        W94473  35.444  43.525   1.452
29214W        W94474  30.401  34.678   1.475
29215W        W94475  35.694  30.922   0.319
29216W        W94476  38.110  18.575   4.620
29217W        W94477   8.343  12.590   2.704
29218W        W94478  39.051   1.985  12.374
29219W        W94479  15.842   3.394  10.703
29220W        W94480  14.029  27.156   1.736
29221W        W94481  38.540  28.419  10.756
29222W        W94482  44.489  15.145  14.326
29223W        W94483   5.800  19.218  10.822
29224W        W94484  27.356  41.699  11.100
29225W        W94485  28.016  14.848  12.090
29226W        W94486   2.967   2.538   0.486
29227W        W94487  23.639  33.047  13.831
29228W        W94488  11.620   8.925  10.691
29229W        W94489   0.672   3.803   4.571
29230W        W94490  17.666  20.580  13.833
29231W        W94491   6.788  42.492  12.064
29232W        W94492  34.396  12.195  11.734
29233W        W94493  21.111  13.293  11.195
29234W        W94494  28.361  11.382   4.007
29235W        W94495  13.880  10.739  14.778
29236W        W94496  44.524  30.444  11.124
29237W        W94497  20.028  14.535  13.110
29238W        W94498  24.851  23.273   9.638
29239W        W94499  43.107  10.665   3.217
29240W        W94500  18.204   9.850   3.675
29241W        W94501   0.857  19.304   0.937
29242W        W94502  16.186  38.028  14.406
29243W        W94503  43.088  18.551  11.077
29244W        W94504  32.238  34.411  10.301
29245W        W94505  41.854  29.653  13.883
29246W        W94506   6.004   0.854   4.289
29247W        W94507  12.743  21.455  11.326
29248W        W94508   2.242  10.991   1.638
29249W        W94509  13.527  34.972   2.789
29250W        W94510  42.421  10.566   4.638
29251W        W94511  19.549  22.123  11.515
29252W        W94512  32.636  25.057   0.967
29253W        W94513  31.749   8.732   4.920
29254W        W94514   3.683   7.631  14.722
29255W        W94515  10.372  12.755   0.013
29256W        W94516  18.965   3.408  12.861
29257W        W94517   6.782  24.996  14.118
29258W        W94518  33.461  28.722  13.971
29259W        W94519  23.318  13.696   2.667
29260W        W94520  14.626  25.628  14.300
29261W        W94521  42.009  29.648  12.558
29262W        W94522   0.645  39.689  11.130
29263W        W94523  20.337  24.124   4.192
29264W        W94524   1.220   2.705   2.167
29265W        W94525  39.974   0.506   0.444
29266W        W94526  35.508   3.341  13.644
29267W        W94527   9.716  14.314  10.826
29268W        W94528  11.663  25.565  12.102
29269W        W94529   0.936  29.389  11.969
29270W        W94530   6.437  12.589   0.296
29271W        W94531   3.888  28.742   0.426
29272W        W94532  40.575  13.956   4.969
29273W        W94533  24.616  41.578   0.947
29274W        W94534  10.682  27.688  14.564
29275W        W94535   1.033  34.103  14.016
29276W        W94536   3.703   0.023   1.161
29277W        W94537  22.613   3.303   2.944
29278W        W94538  11.661  28.627   4.166
29279W        W94539   0.905  21.197  13.478
29280W        W94540  23.433  31.395  11.180
29281W        W94541  24.628  21.339   3.743
29282W        W94542   5.717  32.095   2.813
29283W        W94543   1.356   9.990   1.647
29284W        W94544  32.225  14.588  13.920
29285W        W94545  28.456  28.422   0.838
29286W        W94546  12.647   5.758  13.239
29287W        W94547  28.696  39.594  12.391
29288W        W94548  44.411  16.175  12.312
29289W        W94549   6.287  26.415   1.666
29290W        W94550   5.355  33.990  12.977
29291W        W94551  17.595  17.937   5.388
29292W        W94552  43.067  15.290   3.742
29293W        W94553   1.035   2.354   0.165
29294W        W94554  43.560  10.131   1.655
29295W        W94555   1.302  25.168   0.348
29296W        W94556  21.859   1.178  13.230
29297W        W94557  22.073  10.718  11.536
29298W        W94558  29.556  28.436  10.336
29299W        W94559  38.524  28.045   2.685
29300W        W94560  40.107  42.444   3.379
29301W        W94561   5.843  22.769   1.288
29302W        W94562  42.282   3.794   2.578
29303W        W94563   6.903  33.160  12.392
29304W        W94564   3.863  32.900   0.456
29305W        W94565  17.784  32.507   3.724
29306W        W94566  18.155   0.538   2.643
29307W        W94567  10.165   7.696   0.335
29308W        W94568  31.046   2.191   1.825
29309W        W94569  20.177  11.574   1.841
29310W        W94570   0.784  35.121  13.948
29311W        W94571  43.173  19.757   2.411
29312W        W94572  19.263  27.180   0.332
29313W        W94573   0.422  27.992  11.468
29314W        W94574  29.700  28.653   0.209
29315W        W94575  22.999  36.343   1.870
29316W        W94576  11.361  43.865  13.503
29317W        W94577   2.271  10.725   3.107
29318W        W94578  25.993  15.053  12.352
29319W        W94579  33.645  40.885   3.643
29320W        W94580   9.689  17.019  12.380
29321W        W94581  26.742  30.121   4.106
29322W        W94582  31.430  17.679   0.685
29323W        W94583  16.365   3.281   4.904
29324W        W94584  29.872  44.303  12.016
29325W        W94585  29.172  16.454   2.888
29326W        W94586  20.052  21.573   0.446
29327W        W94587  22.307   1.529   0.305
29328W        W94588   2.562  38.860  11.425
29329W        W94589  19.151  18.636   0.746
29330W        W94590  22.019  27.709   3.309
29331W        W94591  18.559  24.499  12.202
29332W        W94592   9.379  33.003   1.576
29333W        W94593   6.323  19.794   3.714
29334W        W94594  16.359   0.874  12.870
29335W        W94595  27.065  35.629   4.594
29336W        W94596  36.403  28.246   4.616
29337W        W94597  39.344  33.609  10.506
29338W        W94598  36.113  30.196   3.639
29339W        W94599  33.924  38.319  10.915
29340W        W94600  25.240  44.333   2.709
29341W        W94601  44.023  38.111  13.422
29342W        W94602  32.169  24.460   9.895
29343W        W94603  32.841   9.169   2.365
29344W        W94604  27.604  23.477   3.283
29345W        W94605  26.742  41.820   1.327
29346W        W94606  10.175  41.095   0.635
29347W        W94607  16.442   2.915   3.607
29348W        W94608  25.167   0.339   1.491
29349W        W94609  10.837  30.501   2.100
29350W        W94610   0.542  41.492   1.431
29351W        W94611  44.266   3.474   4.579
29352W        W94612  24.130  13.584   4.536
29353W        W94613  10.933  28.099  14.785
29354W        W94614  44.882  17.925   0.310
29355W        W94615  44.875  20.055   3.978
29356W        W94616  21.228  34.239  14.939
29357W        W94617  29.894   8.227   4.630
29358W        W94618   2.260  14.230   0.746
29359W        W94619  30.416  15.569   2.821
29360W        W94620  18.129  37.048   4.528
29361W        W94621  32.923  24.529  12.439
29362W        W94622  35.239   6.297   5.006
29363W        W94623  34.828  20.828  11.595
29364W        W94624   4.707   3.267  14.996
29365W        W94625  22.120  10.054   0.798
29366W        W94626   0.259  25.605  13.067
29367W        W94627  21.099  31.368   1.678
29368W        W94628   5.545  21.564   2.459
29369W        W94629  32.024   9.572   1.428
29370W        W94630  19.342  39.958  12.003
29371W        W94631  25.094  17.680  13.775
29372W        W94632   3.462  26.478   1.193
29373W        W94633  11.391  17.123  12.529
29374W        W94634  36.822  34.326  14.196
29375W        W94635  15.284   6.968  14.862
29376W        W94636  38.909  36.247  10.925
29377W        W94637  30.091  42.982   3.330
29378W        W94638  41.268  29.575   2.284
29379W        W94639  20.336   5.258  12.960
29380W        W94640  11.896  11.551  11.131
29381W        W94641  35.280  13.640  14.891
29382W        W94642  34.550  14.064  12.333
29383W        W94643  44.514  27.120  13.021
29384W        W94644  38.650   8.595  13.469
29385W        W94645  23.235  39.383   4.880
29386W        W94646  16.037  37.571  11.193
29387W        W94647   7.334  35.298  13.169
29388W        W94648   5.515  24.912  11.971
29389W        W94649  26.310  17.377  10.692
29390W        W94650   6.389  43.101  14.148
29391W        W94651   3.926  16.553  10.661
29392W        W94652  22.567   3.650  10.574
29393W        W94653   7.343   0.501   2.286
29394W        W94654   6.440  16.641   3.645
29395W        W94655  19.196  17.140  12.487
29396W        W94656   3.770  16.299  12.843
29397W        W94657  19.152  34.986  12.396
29398W        W94658  16.868  39.486  11.478
29399W        W94659  25.139  20.651   2.163
29400W        W94660  22.543   2.952   1.373
29401W        W94661  15.745   2.010  12.558
29402W        W94662  20.761  15.001   4.380
29403W        W94663  34.375  25.489   0.965
29404W        W94664  13.317   0.228  14.577
29405W        W94665  12.661   1.873  14.358
29406W        W94666   3.911   7.807  10.471
29407W        W94667  26.064  28.049   4.430
29408W        W94668  27.634  31.382   0.498
29409W        W94669  22.812  32.435   3.985
29410W        W94670  20.126  36.824  12.683
29411W        W94671  33.095  11.153   2.023
29412W        W94672  39.723  11.439  12.711
29413W        W94673  24.536  13.040   1.285
29414W        W94674  39.524  14.870  10.800
29415W        W94675  14.417  40.823   0.043
29416W        W94676  25.715  43.578  11.561
29417W        W94677  19.583  16.378  12.251
29418W        W94678  29.081   6.914   3.197
29419W        W94679  40.259  17.376   1.539
29420W        W94680   7.241  39.890  13.096
29421W        W94681  32.635  16.882  12.913
29422W        W94682  18.045  10.720   2.222
29423W        W94683  31.484   5.102  14.192
29424W        W94684  32.477  11.672   2.633
29425W        W94685  25.612  12.487  12.201
29426W        W94686  18.334  11.477   5.132
29427W        W94687  26.539  33.026  14.300
29428W        W94688  18.622   3.929  10.671
29429W        W94689  19.640  17.099   2.174
29430W        W94690  15.739  35.846  14.700
29431W        W94691   1.149  23.946   2.789
29432W        W94692  44.027  29.479   2.736
29433W        W94693  18.281  32.543   1.893
29434W        W94694  17.722   8.372   3.781
29435W        W94695  13.322  30.540  12.335
29436W        W94696   3.886   4.764   4.892
29437W        W94697   2.450  34.911  12.015
29438W        W94698  18.820  31.200   3.741
29439W        W94699   6.701  26.885   2.255
29440W        W94700  23.802  42.833  12.795
29441W        W94701  17.164   6.894   0.881
29442W        W94702   9.104  16.381  10.668
29443W        W94703   7.933  17.294  10.052
29444W        W94704  19.646  31.711   5.024
29445W        W94705  37.547  15.525   3.988
29446W        W94706  43.333   8.028  13.928
29447W        W94707  18.212   8.327  11.021
29448W        W94708  33.731  21.661  14.323
29449W        W94709   5.286   2.589   0.377
29450W        W94710  36.542  31.173   3.236
29451W        W94711  18.405  11.666   0.703
29452W        W94712   7.063  31.138  13.108
29453W        W94713  30.882  34.437  13.373
29454W        W94714  44.027  36.517  11.743
29455W        W94715  38.975  43.107  12.948
29456W        W94716  11.621  40.532  11.934
29457W        W94717  40.797  19.513  13.098
29458W        W94718   9.262  12.157   4.846
29459W        W94719  24.453  21.706   0.317
29460W        W94720  44.856  14.740   3.254
29461W        W94721  29.196  20.643   3.692
29462W        W94722  24.243  17.016  10.055
29463W        W94723  29.643  25.172  13.743
29464W        W94724   4.682  29.839   2.672
29465W        W94725  40.252   6.557   2.840
29466W        W94726  33.166   8.301  11.163
29467W        W94727  20.978  37.385  10.692
29468W        W94728  13.249  22.172   1.825
29469W        W94729  32.155  13.657  13.909
29470W        W94730   4.286  36.491  13.392
29471W        W94731  25.949   6.287  10.400
29472W        W94732   6.282   5.320  11.416
29473W        W94733  15.102  17.751  12.199
29474W        W94734  31.498  25.979   0.851
29475W        W94735  33.829   2.414  14.837
29476W        W94736   9.740  22.280  13.412
29477W        W94737  36.034  30.187  11.997
29478W        W94738   6.065  16.053  11.939
29479W        W94739  13.133  28.077   1.891
29480W        W94740  10.578   3.844   0.419
29481W        W94741  21.512  20.180  10.431
29482W        W94742  16.355  35.707  14.788
29483W        W94743  41.400  29.928   3.331
29484W        W94744  41.927  43.105   3.340
29485W        W94745   5.749   9.179  13.170
29486W        W94746  13.994   9.141  11.635
29487W        W94747  44.825  26.450  13.283
29488W        W94748  14.737  30.665   2.294
29489W        W94749  44.522  17.761   4.140
29490W        W94750  19.131  11.669  14.999
29491W        W94751  25.948   5.221  14.104
29492W        W94752   7.819  24.633   3.272
29493W        W94753  36.962  42.876   2.558
29494W        W94754  31.682  28.728  11.114
29495W        W94755   0.522   7.864  10.553
29496W        W94756  32.588  44.335   0.290
29497W        W94757  39.844  20.680   1.265
29498W        W94758  17.198  33.777  12.896
29499W        W94759  38.341  26.492   2.856
29500W        W94760  13.637  37.586   4.231
29501W        W94761  23.161  22.114   0.964
29502W        W94762  40.965  41.754  12.459
29503W        W94763   4.803  20.640  11.145
29504W        W94764  27.064  30.880  14.454
29505W        W94765   9.535  14.610  12.164
29506W        W94766  31.188  44.353  14.049
29507W        W94767  17.610  27.523   3.423
29508W        W94768  40.235  19.719  13.995
29509W        W94769  36.727   6.180  14.310
29510W        W94770  21.266  28.718   2.429
29511W        W94771  42.076  13.711  12.465
29512W        W94772  33.690  41.030  12.363
29513W        W94773  25.193  32.022  14.439
29514W        W94774  28.432   1.266   1.244
29515W        W94775  41.067  26.718  12.390
29516W        W94776  21.994  20.769   2.854
29517W        W94777  44.308   0.530  10.816
29518W        W94778  10.802  23.298  13.085
29519W        W94779  20.760   4.882   4.576
29520W        W94780  17.331  34.008   2.207
29521W        W94781   6.068   4.269  11.647
29522W        W94782  10.098  38.404   2.302
29523W        W94783  26.851   8.763   0.283
29524W        W94784  14.802  29.035   4.381
29525W        W94785  13.727  15.398   1.890
29526W        W94786  10.404   9.663  12.447
29527W        W94787  44.807  20.170  11.560
29528W        W94788   9.620  29.440   4.240
29529W        W94789   8.296  32.920   0.997
29530W        W94790  36.608  14.712   2.235
29531W        W94791  33.956  42.018   1.961
29532W        W94792  26.120  25.611   0.813
29533W        W94793  39.896   8.295  12.673
29534W        W94794  36.062   1.702   1.799
29535W        W94795  33.540  20.764   0.726
29536W        W94796  40.936  18.013   3.716
29537W        W94797  38.285   6.436   3.370
29538W        W94798   5.873  37.548   3.221
29539W        W94799  11.866  12.321  12.022
29540W        W94800  21.629  14.093   2.461
29541W        W94801  23.639  38.345   0.493
29542W        W94802  39.346  36.086  11.413
29543W        W94803  19.517  20.492  14.485
29544W        W94804  32.544   9.353  14.717
29545W        W94805   4.765  35.816   4.533
29546W        W94806  40.425  44.241  12.089
29547W        W94807  39.590  39.201  13.881
29548W        W94808  16.001  16.081  10.991
29549W        W94809   3.282  44.193   3.598
29550W        W94810   9.485  22.287   0.367
29551W        W94811  11.000  15.769   0.391
29552W        W94812  25.156  22.050   1.935
29553W        W94813   2.330  41.455   3.109
29554W        W94814   8.222  33.441   0.754
29555W        W94815  10.286   2.341   9.874
29556W        W94816  16.696   7.260   1.713
29557W        W94817  37.369  33.391  14.023
29558W        W94818  38.564  21.541   0.558
29559W        W94819  17.350  16.697  14.355
29560W        W94820  19.049  38.086  11.017
29561W        W94821   8.435  33.118   2.837
29562W        W94822   0.879  12.433  13.510
29563W        W94823  34.883  18.097  11.520
29564W        W94824  31.992  14.687  10.724
29565W        W94825   7.019   4.942  13.936
29566W        W94826  32.531   0.680   2.293
29567W        W94827  24.716  34.859  11.199
29568W        W94828   4.470  24.962   4.087
29569W        W94829  24.019  11.179  14.795
29570W        W94830  36.960  43.771   4.930
29571W        W94831   1.330  18.319   0.815
29572W        W94832   3.353  35.637   0.405
29573W        W94833  21.484  10.048   4.866
29574W        W94834   1.739  23.531  14.154
29575W        W94835  24.521   5.647  11.224
29576W        W94836  42.440   5.831  14.312
29577W        W94837  41.477  43.387   3.465
29578W        W94838  28.193  22.010  14.760
29579W        W94839  30.127  33.802   0.495
29580W        W94840   4.048  13.727  14.330
29581W        W94841  27.932   1.042   2.570
29582W        W94842   8.030  44.486   5.030
29583W        W94843   7.303  10.262  14.157
29584W        W94844  14.589  19.677  11.092
29585W        W94845  13.224   8.499  12.460
29586W        W94846   9.503   3.380  13.591
29587W        W94847  13.263  36.384  11.698
29588W        W94848   8.452   2.801   2.374
29589W        W94849  21.557  39.554   2.417
29590W        W94850  16.240  16.343   1.358
29591W        W94851  28.597  27.239   3.183
29592W        W94852  18.138  22.950  11.121
29593W        W94853   9.179  37.250   1.972
29594W        W94854   7.116  12.183  11.504
29595W        W94855  35.557  23.535   1.158
29596W        W94856   8.471  21.482   2.335
29597W        W94857  22.597  14.849  13.612
29598W        W94858   0.909  41.400   0.469
29599W        W94859   0.770  20.205   4.363
29600W        W94860  29.051  27.568   4.602
29601W        W94861  11.119  12.360   4.629
29602W        W94862   0.563   7.253   3.576
29603W        W94863  24.951  24.905   3.574
29604W        W94864  13.620  37.244  13.572
29605W        W94865   9.228   7.727   9.798
29606W        W94866  25.730  33.192  14.377
29607W        W94867  40.281  16.682   2.297
29608W        W94868  26.988   6.914   1.215
29609W        W94869  10.531  25.628  13.450
29610W        W94870  20.738  31.978   0.811
29611W        W94871  19.593  35.188   4.600
29612W        W94872  26.999  30.982   4.821
29613W        W94873   2.533  12.738   3.298
29614W        W94874  25.796   9.911   4.204
29615W        W94875  41.829  22.974  13.981
29616W        W94876   6.571   7.913   1.030
29617W        W94877  24.644  23.183   0.607
29618W        W94878  37.839  20.356   3.587
29619W        W94879  32.271   8.787  12.070
29620W        W94880   0.889  19.771   4.652
29621W        W94881  10.781  16.508  10.603
29622W        W94882  20.192   1.552  11.145
29623W        W94883  12.373  28.220  12.108
29624W        W94884  22.171   4.132  12.135
29625W        W94885  25.108  43.698   1.276
29626W        W94886  32.814  13.198   0.437
29627W        W94887  18.868  18.081   0.321
29628W        W94888   2.844  20.974   4.596
29629W        W94889  32.818  37.941  10.560
29630W        W94890  19.734  29.399   5.095
29631W        W94891  15.324  43.058  11.491
29632W        W94892  15.759  10.333  12.425
29633W        W94893   2.867  33.037   1.358
29634W        W94894  43.758  42.291  11.452
29635W        W94895  18.076   6.796  11.488
29636W        W94896  37.242  32.065   0.948
29637W        W94897  35.128  39.278  13.979
29638W        W94898   3.213  31.468  11.113
29639W        W94899  20.147   4.717   1.473
29640W        W94900  27.173  16.171  13.262
29641W        W94901  25.874  40.889   2.665
29642W        W94902  26.657   7.556   3.965
29643W        W94903   8.315   9.175   5.644
29644W        W94904  33.146  41.522   0.829
29645W        W94905  26.501  31.884   1.821
29646W        W94906   4.325  19.973   2.834
29647W        W94907  28.316  26.708   1.201
29648W        W94908  40.029  17.720   1.877
29649W        W94909   6.832   6.477  14.564
29650W        W94910   1.672  21.209  12.144
29651W        W94911  14.260  14.552   3.555
29652W        W94912   5.735  11.672   3.826
29653W        W94913  38.167  44.510   2.221
29654W        W94914  14.579  36.042  11.926
29655W        W94915  28.548  24.523  12.395
29656W        W94916  15.317   2.705   2.735
29657W        W94917  39.308  20.111   1.231
29658W        W94918   2.758  44.431   1.426
29659W        W94919  31.354   9.365  11.559
29660W        W94920  44.019  12.676  14.383
29661W        W94921  34.415  13.093   3.206
29662W        W94922   3.789  15.406  12.674
29663W        W94923  41.014   5.413   4.795
29664W        W94924  16.662  41.505   0.717
29665W        W94925  17.510  31.375   3.187
29666W        W94926  39.606  36.058  13.281
29667W        W94927   9.603  42.928   3.308
29668W        W94928  20.460  33.998   4.828
29669W        W94929  37.115  27.488  14.276
29670W        W94930  24.122  44.891  11.233
29671W        W94931   5.882  10.171  14.795
29672W        W94932  26.853  17.001   1.373
29673W        W94933  10.898  13.675  10.658
29674W        W94934  30.002  23.633   4.336
29675W        W94935  37.073  27.181  12.034
29676W        W94936  10.681   0.891  12.853
29677W        W94937  34.151  26.374   1.391
29678W        W94938  39.554   1.929  12.478
29679W        W94939  22.309   8.870   2.582
29680W        W94940  31.923  20.062  12.009
29681W        W94941   1.555  35.943   0.267
29682W        W94942  40.154  28.318  12.542
29683W        W94943  25.990   2.722   3.228
29684W        W94944  25.076  40.359   0.716
29685W        W94945   3.946   6.563   4.149
29686W        W94946  39.406  22.925  13.004
29687W        W94947  35.534  43.401   0.953
29688W        W94948  18.694  10.672  13.806
29689W        W94949  29.825  39.066   1.726
29690W        W94950  15.795  16.558  10.839
29691W        W94951   0.901   5.188   3.472
29692W        W94952   5.772  44.316  12.805
29693W        W94953  40.882  14.517  12.932
29694W        W94954   3.443   3.676   9.979
29695W        W94955  27.492  31.990   5.027
29696W        W94956   7.372  36.077   3.922
29697W        W94957  44.420  28.885   1.765
29698W        W94958  41.005  12.059   2.173
29699W        W94959  23.515  23.805  13.373
29700W        W94960  32.618  12.221  13.922
29701W        W94961   2.214  20.709  13.417
29702W        W94962  17.620  23.235   0.229
29703W        W94963   6.897  24.930  14.607
29704W        W94964  21.165   1.383  13.782
29705W        W94965  10.241  13.719   4.809
29706W        W94966  26.397   3.429   3.360
29707W        W94967  32.011  38.902   4.153
29708W        W94968  16.319  26.593   0.897
29709W        W94969  28.960  33.980  12.983
29710W        W94970  24.654  12.715   0.521
29711W        W94971  24.471   5.340  11.653
29712W        W94972  15.668  40.366  13.886
29713W        W94973  30.968  23.491  12.129
29714W        W94974  25.670  24.125   2.437
29715W        W94975  16.693  30.323  12.779
29716W        W94976  17.364  21.706   3.231
29717W        W94977  36.622   9.048  11.383
29718W        W94978  33.382  23.798   0.846
29719W        W94979  24.173  32.679  11.585
29720W        W94980   9.752  19.172   2.374
29721W        W94981   0.750  40.660  14.922
29722W        W94982  25.185  38.084   3.261
29723W        W94983  32.968  18.812   2.922
29724W        W94984   2.866  43.447   1.085
29725W        W94985  33.484  35.734   3.883
29726W        W94986  28.019  44.280   3.103
29727W        W94987  17.195  21.623  10.622
29728W        W94988   3.976  30.804   0.339
29729W        W94989   5.372  16.398   2.622
29730W        W94990  10.717   9.710  14.716
29731W        W94991  11.208  18.346   4.494
29732W        W94992  23.220   8.431  12.374
29733W        W94993  35.980  38.611  12.513
29734W        W94994  25.484  22.766  14.879
29735W        W94995  20.501  26.161  13.472
29736W        W94996  34.372  29.183   1.825
29737W        W94997  27.985  37.856  11.683
29738W        W94998  37.355   3.335   3.226
29739W        W94999  35.599  40.970   1.819
29740W        W95000  10.610  15.576   4.560
29741W        W95001  37.917   1.513  11.138
29742W        W95002  27.418  36.530  13.958
29743W        W95003  10.427  14.206  12.024
29744W        W95004  33.820  33.538   4.978
29745W        W95005  25.989  23.766   3.718
29746W        W95006   4.346   3.346  14.606
29747W        W95007  42.508  22.745   4.128
29748W        W95008  29.520  12.321   1.192
29749W        W95009  42.418  33.476  13.279
29750W        W95010   1.107   5.344   4.889
29751W        W95011  43.326  32.845  10.528
29752W        W95012  39.142  12.179  11.119
29753W        W95013   3.482  26.248  11.755
29754W        W95014   1.846  27.734   2.643
29755W        W95015  43.752  40.177   3.620
29756W        W95016  12.435  40.535   4.422
29757W        W95017  12.518   7.175   1.044
29758W        W95018   0.830  10.133  14.531
29759W        W95019  37.921  43.368   0.327
29760W        W95020  18.385  42.458   3.561
29761W        W95021  32.085  31.034   1.044
29762W        W95022  27.103  35.775   2.597
29763W        W95023   4.446  41.623   4.159
29764W        W95024   6.621  43.989  12.478
29765W        W95025   4.325  40.859  13.293
29766W        W95026  21.412  28.588   2.922
29767W        W95027  14.057  40.100   1.037
29768W        W95028  11.345  37.648  10.800
29769W        W95029   4.837   6.917   2.484
29770W        W95030  24.267  42.055   2.334
29771W        W95031   5.597  16.713   2.264
29772W        W95032  18.603   8.866   1.635
29773W        W95033   1.277   2.846   0.323
29774W        W95034   8.786  20.504  13.052
29775W        W95035   1.526  43.934   0.328
29776W        W95036  18.490   7.442   0.571
29777W        W95037   0.948   2.192   2.245
29778W        W95038  12.889   8.212   0.459
29779W        W95039  32.637  26.520  11.940
29780W        W95040  10.593  30.536  12.294
29781W        W95041  36.459  26.244  11.174
29782W        W95042   1.912  36.483  11.197
29783W        W95043  12.975   0.503  12.933
29784W        W95044  39.895  19.795  10.501
29785W        W95045  34.327  31.832  14.070
29786W        W95046  43.527  23.335   3.595
29787W        W95047   7.222   0.681  11.581
29788W        W95048  43.866   1.906   3.741
29789W        W95049   1.033  36.996   1.624
29790W        W95050  20.552  37.491  13.516
29791W        W95051  43.422  43.129  10.433
29792W        W95052  25.149  34.082   3.866
29793W        W95053   0.039  14.813  13.547
29794W        W95054  39.980  25.163  11.179
29795W        W95055   5.210  41.433  14.923
29796W        W95056   2.760   4.712   4.629
29797W        W95057   6.325   9.899  12.813
29798W        W95058   4.917  34.021   0.329
29799W        W95059  25.564  40.835  12.953
29800W        W95060   3.732  12.579   2.817
29801W        W95061  26.301   6.445  13.499
29802W        W95062  30.051  34.259   1.449
29803W        W95063   7.426  28.309   3.321
29804W        W95064  41.954  11.353  14.617
29805W        W95065   0.386  37.700   3.547
29806W        W95066  26.587  44.916   4.588
29807W        W95067  17.758  25.136  13.090
29808W        W95068   0.942  21.513   0.462
29809W        W95069  42.462  38.009  14.993
29810W        W95070  19.853  33.009  11.583
29811W        W95071  24.475  28.636   2.599
29812W        W95072  22.039  32.867  12.912
29813W        W95073  31.066  20.242  12.656
29814W        W95074  15.146  12.723  14.425
29815W        W95075   5.954   8.318   2.393
29816W        W95076  30.919   6.719   4.164
29817W        W95077  10.423  15.120   0.381
29818W        W95078  22.980  14.130   2.628
29819W        W95079  19.132   2.213  14.411
29820W        W95080  42.350  20.285   2.576
29821W        W95081  17.691   2.275  11.935
29822W        W95082  13.558  40.010  14.402
29823W        W95083  11.450  16.588   0.321
29824W        W95084  41.831   6.976   1.734
29825W        W95085   0.949  31.340  13.587
29826W        W95086  29.499  22.540   3.290
29827W        W95087  33.646  42.715   3.232
29828W        W95088  13.828  31.152   3.724
29829W        W95089  40.136  21.027  11.968
29830W        W95090  41.836  33.051  11.698
29831W        W95091  30.265  27.891   4.086
29832W        W95092  38.652   9.116  14.232
29833W        W95093  25.112  16.929  13.105
29834W        W95094   1.494  41.539  12.007
29835W        W95095  22.346   8.247  13.667
29836W        W95096  41.358  25.753   1.967
29837W        W95097  25.586  25.708  11.365
29838W        W95098  36.232  10.441   0.704
29839W        W95099  21.670  35.385   4.600
29840W        W95100  18.025   3.947  11.882
29841W        W95101  12.074  18.006   0.835
29842W        W95102  37.355  13.525  14.880
29843W        W95103  38.780  36.767   0.278
29844W        W95104  23.947  28.515  12.963
29845W        W95105  18.392  27.516  14.338
29846W        W95106  36.303   6.310  11.955
29847W        W95107  17.614  34.100   2.673
29848W        W95108  15.791   1.784   4.273
29849W        W95109   8.222   8.758  11.506
29850W        W95110  41.604  35.963   2.467
29851W        W95111   9.188  40.304   3.689
29852W        W95112  26.522   3.559  10.593
29853W        W95113  26.918  38.875   3.509
29854W        W95114   9.456  41.517  14.296
29855W        W95115  28.313  23.687  14.216
29856W        W95116  23.933  10.169   3.188
29857W        W95117  27.204  35.341  14.514
29858W        W95118  37.072  31.011  14.434
29859W        W95119  20.024  40.438  10.613
29860W        W95120  18.544  29.496  11.643
29861W        W95121   7.010  34.499  11.585
29862W        W95122  32.405  11.340  13.065
29863W        W95123  19.814  35.382  12.505
29864W        W95124  18.382  17.086  13.017
29865W        W95125  10.058   4.847  13.434
29866W        W95126  10.250  16.817  14.984
29867W        W95127  39.899  22.971  14.037
29868W        W95128  39.514   0.043   1.369
29869W        W95129  33.849  23.156  13.638
29870W        W95130  22.790  11.115   2.322
29871W        W95131  22.240  15.171   4.163
29872W        W95132  31.610  17.695   1.619
29873W        W95133  37.524  38.965   1.332
29874W        W95134  20.681  17.355   1.359
29875W        W95135   5.762  19.208   3.277
29876W        W95136  10.155  22.109  11.106
29877W        W95137  31.901  21.735   3.380
29878W        W95138  34.347  22.691   3.046
29879W        W95139  37.803  20.781  12.596
29880W        W95140  11.026   1.244   1.719
29881W        W95141  20.240  16.612   1.044
29882W        W95142  29.793  33.468  14.362
29883W        W95143   6.651  31.542   1.875
29884W        W95144  28.162  15.046   0.456
29885W        W95145   8.868  38.427   4.428
29886W        W95146  36.003  14.092   3.323
29887W        W95147  43.747  23.019  13.084
29888W        W95148   2.022  34.084   0.356
29889W        W95149   6.468  27.383  13.807
29890W        W95150  23.286  43.765   1.420
29891W        W95151  35.895   8.464  10.523
29892W        W95152   0.130  37.956   0.799
29893W        W95153  27.689  11.280   2.222
29894W        W95154   5.337  25.163   0.385
29895W        W95155   1.324  36.328   0.524
29896W        W95156   8.329  15.528  14.338
29897W        W95157  15.796   1.000  10.768
29898W        W95158  12.208  20.843  12.450
29899W        W95159  24.684   5.230   1.671
29900W        W95160  18.665  30.538   3.244
29901W        W95161   2.897  36.320  11.977
29902W        W95162  15.017   7.895  11.909
29903W        W95163   5.245   9.209  11.381
29904W        W95164  23.528   4.112   2.260
29905W        W95165  39.775  43.943  12.129
29906W        W95166  10.863   0.992  13.919
29907W        W95167  20.966  41.437   4.018
29908W        W95168  29.447  36.413   3.225
29909W        W95169  41.515  28.055  14.500
29910W        W95170  39.781   7.412  10.807
29911W        W95171  32.622  11.330   0.286
29912W        W95172  34.496  23.692  11.575
29913W        W95173  12.591  13.733   1.401
29914W        W95174   3.805  16.153  13.828
29915W        W95175  17.347  30.207  14.350
29916W        W95176  30.207  39.454   3.278
29917W        W95177   6.150  31.389  14.861
29918W        W95178   0.359  25.254  13.902
29919W        W95179  37.081  32.945  11.990
29920W        W95180  20.095   3.391   4.658
29921W        W95181  33.460  42.888   2.270
29922W        W95182  17.701   6.464  12.159
29923W        W95183  36.345   8.196   1.266
29924W        W95184  11.755  10.073   1.739
29925W        W95185   4.434  30.351   0.817
29926W        W95186  22.544  15.717  11.280
29927W        W95187  28.177   5.721  13.893
29928W        W95188  16.173  38.378   9.869
29929W        W95189   1.535   0.428  13.090
29930W        W95190  25.131  15.695   0.571
29931W        W95191  19.514  22.641  14.576
29932W        W95192   4.278  38.740  12.937
29933W        W95193  35.659  31.906   4.123
29934W        W95194   0.336  37.394  11.031
29935W        W95195  26.646   8.836   4.542
29936W        W95196   9.922  28.821  13.263
29937W        W95197  24.193  14.562  10.749
29938W        W95198  20.121  23.217   4.073
29939W        W95199  16.115  31.087   0.388
29940W        W95200  18.300  44.052   2.674
29941W        W95201  18.424  43.422  11.255
29942W        W95202  15.725  30.497  13.786
29943W        W95203  41.906  31.908   2.384
29944W        W95204  12.909  40.141   3.330
29945W        W95205   5.773   0.410   4.132
29946W        W95206   6.810  16.188   4.052
29947W        W95207  22.726  10.636   2.106
29948W        W95208  17.315   4.135   4.013
29949W        W95209  35.051  14.877  11.189
29950W        W95210  21.784   4.189   3.545
29951W        W95211  36.240  28.789   2.863
29952W        W95212  31.001  36.449   2.656
29953W        W95213  32.493  14.397   3.902
29954W        W95214   6.719   1.854  12.551
29955W        W95215  27.652  37.865   4.462
29956W        W95216  28.304  30.216  12.567
29957W        W95217  32.496   2.898   2.390
29958W        W95218  30.159  38.110   0.304
29959W        W95219  11.705  13.375  14.932
29960W        W95220  14.749  17.269   3.225
29961W        W95221  28.019  35.071   0.430
29962W        W95222  44.378  32.953  14.240
29963W        W95223  32.947  17.544   0.419
29964W        W95224  21.596   0.701   2.337
29965W        W95225   0.713   9.967   3.185
29966W        W95226  35.333   1.071   0.389
29967W        W95227  23.103  17.253   2.828
29968W        W95228  39.958  27.654  11.950
29969W        W95229  25.658   7.215   1.897
29970W        W95230  19.533  11.928   2.911
29971W        W95231  18.622  38.356  11.395
29972W        W95232   5.360  43.500  13.926
29973W        W95233   8.729  20.536   2.375
29974W        W95234  19.002  16.058  13.906
29975W        W95235  14.989  16.091   1.636
29976W        W95236  20.289  12.302   1.695
29977W        W95237  22.153  19.644   1.642
29978W        W95238  17.051  15.773   4.117
29979W        W95239  16.333  15.230  13.581
29980W        W95240  24.261  26.752  10.400
29981W        W95241  10.849   3.768  12.457
29982W        W95242  29.846  27.494   2.313
29983W        W95243  41.140  35.596   3.284
29984W        W95244   1.678   2.440  10.723
29985W        W95245  33.084  14.564   1.236
29986W        W95246   4.786  38.900   4.538
29987W        W95247  40.471  28.388  12.096
29988W        W95248   6.982  15.593  11.144
29989W        W95249  34.806  20.752   1.342
29990W        W95250  42.452  18.896   2.836
29991W        W95251   5.339   5.303   1.741
29992W        W95252  17.214  30.224   4.521
29993W        W95253  42.533   9.340   4.637
29994W        W95254  29.656  14.385   2.723
29995W        W95255   4.474  33.492  10.557
29996W        W95256  36.737   4.314  12.001
29997W        W95257  40.748   0.348  12.015
29998W        W95258  17.115  25.968   1.903
29999W        W95259  27.670  39.761  14.390
30000W        W95260  22.115  14.555   0.977
30001W        W95261  28.601   0.824   0.036
30002W        W95262  11.387  35.558  12.988
30003W        W95263  10.736   0.758   4.259
30004W        W95264  17.779  17.448   1.184
30005W        W95265  40.130   5.754   2.665
30006W        W95266  30.247  17.712   4.229
30007W        W95267  40.192  38.303   2.938
30008W        W95268  41.533  22.111   0.006
30009W        W95269  28.941  39.504  11.165
30010W        W95270  11.355  29.806  14.763
30011W        W95271  34.100  42.312  12.162
30012W        W95272   5.363  23.031   1.442
30013W        W95273  12.401   9.268   1.826
30014W        W95274  12.065  44.428  12.184
30015W        W95275  28.543   0.457  11.314
30016W        W95276  11.412   8.177   1.597
30017W        W95277  28.854  37.566   1.432
30018W        W95278  11.629   3.204  11.044
30019W        W95279  36.554  34.665  11.540
30020W        W95280  10.772  29.897  11.158
30021W        W95281  10.558   3.620  10.032
30022W        W95282  43.227  28.604  10.676
30023W        W95283  24.127  18.067   2.155
30024W        W95284  39.306   8.682   2.844
30025W        W95285  42.248   1.681   1.933
30026W        W95286  32.062  27.191   5.259
30027W        W95287  15.511  19.111   5.040
30028W        W95288  40.404  30.128  13.962
30029W        W95289   0.567  19.141  13.035
30030W        W95290  18.530  11.813  14.315
30031W        W95291  40.782  19.000   3.437
30032W        W95292  35.443  37.913   2.197
30033W        W95293  15.256  33.324   1.668
30034W        W95294  19.082  21.072   0.421
30035W        W95295  42.292  29.390  13.908
30036W        W95296   2.297  10.976  14.846
30037W        W95297   4.964   7.964  14.256
30038W        W95298  42.386   0.675   1.299
30039W        W95299  40.485  14.654   2.763
30040W        W95300  35.472   2.209   4.925
30041W        W95301  44.807   4.849   3.320
30042W        W95302  27.044  36.847   1.142
30043W        W95303  27.901  43.998  10.245
30044W        W95304  14.280  40.388  14.754
30045W        W95305   0.893  24.678  12.872
30046W        W95306   4.585  32.775  13.161
30047W        W95307  18.133  15.716  13.078
30048W        W95308   9.223  41.387   3.298
30049W        W95309  14.266  16.626   3.756
30050W        W95310  33.399  11.170   3.622
30051W        W95311   6.284  32.116  13.586
30052W        W95312  34.993  25.530  10.753
30053W        W95313  27.583  20.615   4.569
30054W        W95314  21.613  31.520  13.469
30055W        W95315  35.413  36.074  13.587
30056W        W95316  26.689  30.653   9.943
30057W        W95317  44.557  14.596  12.641
30058W        W95318  33.638   2.187   2.210
30059W        W95319  34.898  44.301   1.753
30060W        W95320  38.322  19.472   3.369
30061W        W95321  10.108  38.551  13.334
30062W        W95322  29.141  25.642  14.633
30063W        W95323  12.265  41.725   1.452
30064W        W95324   8.790  11.176  12.154
30065W        W95325  32.464   3.990  14.106
30066W        W95326  33.083   2.291  10.618
30067W        W95327  11.738  40.614   1.069
30068W        W95328  19.009   5.377   0.066
30069W        W95329  11.881  42.953   0.800
30070W        W95330  10.663  17.199   4.271
30071W        W95331  41.338  15.218   4.626
30072W        W95332  32.911  29.092   1.706
30073W        W95333   5.448  38.391  12.942
30074W        W95334  27.321  43.123   3.801
30075W        W95335  36.025  16.277  12.542
30076W        W95336   0.130  33.325   4.167
30077W        W95337  28.489  10.859   4.081
30078W        W95338  13.268  25.377   1.464
30079W        W95339  22.771  23.794   4.981
30080W        W95340  20.203  13.262  14.176
30081W        W95341  32.959  13.688   1.708
30082W        W95342   9.094   5.774   1.879
30083W        W95343  37.689  23.999  14.580
30084W        W95344  42.744  35.527   2.895
30085W        W95345   5.863  21.651   4.955
30086W        W95346  30.946  40.414   0.800
30087W        W95347  24.494  21.891  11.240
30088W        W95348  37.404  43.541   1.462
30089W        W95349  26.181  28.241  14.435
30090W        W95350  42.130   3.997   3.445
30091W        W95351  16.830  30.032  13.193
30092W        W95352   9.796  43.562  13.105
30093W        W95353  41.415  22.609  11.129
30094W        W95354  38.849  16.179   3.256
30095W        W95355  37.383  19.810   4.641
30096W        W95356  23.439  23.483  12.974
30097W        W95357  39.010  35.323  10.610
30098W        W95358  29.132  38.075   0.363
30099W        W95359  34.355  38.448   2.573
30100W        W95360  25.821  25.670   1.254
30101W        W95361  32.033  40.939  14.237
30102W        W95362  26.201   5.771  10.912
30103W        W95363  21.861  37.399  12.308
30104W        W95364  27.657   7.833   4.022
30105W        W95365  26.906  32.201   1.902
30106W        W95366  22.803  34.772  13.869
30107W        W95367  26.804   3.942  13.512
30108W        W95368  22.487  39.938  13.847
30109W        W95369  36.674   0.542   1.494
30110W        W95370  28.375  12.693   3.793
30111W        W95371  15.283  25.648  11.099
30112W        W95372  11.076  33.996   0.325
30113W        W95373  12.636  26.588  10.334
30114W        W95374   0.658  18.257   4.851
30115W        W95375  14.571  25.662   1.295
30116W        W95376  27.326  19.539   2.607
30117W        W95377  10.251  35.929   3.347
30118W        W95378  37.604  21.002   0.977
30119W        W95379   9.374  17.218   2.250
30120W        W95380  33.149  35.307   1.357
30121W        W95381   0.212  14.058  14.479
30122W        W95382  19.563  37.013  11.435
30123W        W95383   7.832  29.957   1.111
30124W        W95384   9.332  12.922   1.333
30125W        W95385  34.399  33.922  12.150
30126W        W95386  33.463  33.138   1.903
30127W        W95387  20.933  33.494   1.373
30128W        W95388  40.479  16.667  12.866
30129W        W95389   7.856  23.214   2.868
30130W        W95390  18.295  27.590  12.658
30131W        W95391  24.078  35.856  12.262
30132W        W95392  31.112  27.753   3.616
30133W        W95393  34.514  43.581   2.391
30134W        W95394  34.138  21.572   3.709
30135W        W95395   2.775  31.353   1.356
30136W        W95396  41.041  40.519   3.118
30137W        W95397  39.806  34.180   2.804
30138W        W95398  30.239  11.755   3.243
30139W        W95399   4.764  37.090  11.662
30140W        W95400  20.197  43.382  14.945
30141W        W95401  32.949  21.536   4.055
30142W        W95402  25.682  35.424   0.369
30143W        W95403  16.552  32.178  14.008
30144W        W95404  42.909  24.051  12.577
30145W        W95405  12.821  15.706   1.315
30146W        W95406  41.499  42.402  11.558
30147W        W95407  16.083  27.690   3.030
30148W        W95408  24.551  22.432   4.526
30149W        W95409  36.359  12.812   3.687
30150W        W95410  33.762  44.307  11.684
30151W        W95411  23.487   2.784  12.931
30152W        W95412  10.937  30.265  12.583
30153W        W95413   5.189  44.798  11.645
30154W        W95414  30.507  30.576  10.681
30155W        W95415  29.922  10.369  11.075
30156W        W95416   4.696  28.951  11.116
30157W        W95417  34.822  42.544   3.290
30158W        W95418  24.221  23.993  12.073
30159W        W95419  17.574  28.229  12.926
30160W        W95420   6.950  32.623  14.976
30161W        W95421  40.717  36.259   4.561
30162W        W95422  25.082  23.248   4.661
30163W        W95423  12.975  38.670   0.746
30164W        W95424  20.168  36.080  10.041
30165W        W95425   9.661  43.316   2.043
30166W        W95426   8.460  38.593   3.661
30167W        W95427  18.301  10.157  10.879
30168W        W95428   6.097  25.932  10.600
30169W        W95429   4.871   0.040  14.453
30170W        W95430  33.187  29.325   5.325
30171W        W95431  19.620  34.543   4.611
30172W        W95432   9.565  33.581  14.440
30173W        W95433  22.715  12.434   2.970
30174W        W95434  44.931   8.197  11.365
30175W        W95435  44.952  30.126  14.021
30176W        W95436   8.605  23.121  13.955
30177W        W95437   6.760  28.737   1.683
30178W        W95438  19.393  41.523  10.725
30179W        W95439  16.563  30.511   0.970
30180W        W95440   8.910  38.971   2.511
30181W        W95441  35.981   9.729   2.432
30182W        W95442  10.650  20.924   2.131
30183W        W95443   6.730  38.815   1.294
30184W        W95444  10.916   3.224  13.902
30185W        W95445  12.405  41.835  14.541
30186W        W95446   8.414  23.490  12.057
30187W        W95447   0.991  13.068  11.857
30188W        W95448  15.673  30.866   3.632
30189W        W95449  35.943  18.146   2.394
30190W        W95450  15.788  22.178  11.998
30191W        W95451  15.932  10.830   3.311
30192W        W95452  43.856  17.197  12.883
30193W        W95453  14.362  23.706  11.233
30194W        W95454   4.431  31.084  14.020
30195W        W95455  25.598  34.964  12.152
30196W        W95456  41.930  24.859   2.370
30197W        W95457  16.631  30.445   4.082
30198W        W95458   4.847  24.964   0.417
30199W        W95459  38.405  23.783  12.437
30200W        W95460  29.614  33.382   4.086
30201W        W95461  19.251  30.202   4.188
30202W        W95462  14.293   4.229  13.533
30203W        W95463  27.752  36.696  14.326
30204W        W95464  36.012  28.546   1.380
30205W        W95465   2.812  19.628  14.342
30206W        W95466  16.126  12.182  10.685
30207W        W95467  33.511  30.041   3.594
30208W        W95468  44.244  27.820  10.533
30209W        W95469  19.791   1.221   0.620
30210W        W95470  11.616   4.259   1.262
30211W        W95471  20.224  28.025  12.876
30212W        W95472   8.703  12.557   3.245
30213W        W95473  21.015  26.141   1.164
30214W        W95474  38.607  35.534  14.798
30215W        W95475  26.065  13.695   1.125
30216W        W95476   8.399  33.427  13.244
30217W        W95477  27.695  33.738   4.740
30218W        W95478  19.686  23.462  11.144
30219W        W95479   8.242  11.391  13.943
30220W        W95480   8.308   9.060  10.074
30221W        W95481  27.992  33.706   3.602
30222W        W95482  22.801  32.112  13.376
30223W        W95483  15.871  35.380   3.326
30224W        W95484   1.303  37.862  12.845
30225W        W95485  30.527  43.992   4.027
30226W        W95486  21.041  38.889  13.427
30227W        W95487   2.493  32.948   2.623
30228W        W95488   5.035  31.213   0.232
30229W        W95489  10.247   7.458  14.415
30230W        W95490  32.018  31.543   1.194
30231W        W95491  43.229  36.618  12.908
30232W        W95492  12.701  36.019  12.875
30233W        W95493  42.603  16.503  11.086
30234W        W95494  24.176  17.769  14.993
30235W        W95495  20.613  19.506  10.698
30236W        W95496   8.716  31.215  10.646
30237W        W95497  18.728  26.641   2.724
30238W        W95498  19.129  12.765  12.918
30239W        W95499  19.288  30.198  11.078
30240W        W95500  30.559  30.169   2.010
30241W        W95501  25.403  25.093  14.120
30242W        W95502   8.017  13.795   0.354
30243W        W95503  29.100  27.506   0.741
30244W        W95504  34.982  18.759   1.361
30245W        W95505  30.082   8.625   0.886
30246W        W95506   0.016  33.247  11.973
30247W        W95507   6.895  24.930  11.196
30248W        W95508  26.064  23.194  14.890
30249W        W95509  35.454  16.676  10.726
30250W        W95510  15.638  24.567  13.681
30251W        W95511  32.422  15.520  11.160
30252W        W95512  43.302  19.753  11.158
30253W        W95513  19.410  17.337   0.776
30254W        W95514  28.634  27.836  11.743
30255W        W95515  31.931  25.697   3.490
30256W        W95516  42.367   4.374   0.938
30257W        W95517  40.426   4.214   1.838
30258W        W95518  14.754  21.463  14.474
30259W        W95519  32.638  34.422   2.342
30260W        W95520   2.942  29.361  14.395
30261W        W95521  41.473  20.864   0.696
30262W        W95522  28.879  16.241   1.469
30263W        W95523  34.414  37.030   1.211
30264W        W95524  34.649  40.744   4.447
30265W        W95525   2.065   9.951   3.234
30266W        W95526  35.416   2.507   1.784
30267W        W95527  27.955  34.439  14.953
30268W        W95528  37.223  42.714   5.099
30269W        W95529  39.557  37.982  14.471
30270W        W95530  28.956  41.609  12.532
30271W        W95531   3.276  41.861   1.819
30272W        W95532  37.365  16.572   2.346
30273W        W95533   1.555  42.230   4.249
30274W        W95534  13.521  44.923   1.714
30275W        W95535  41.564   5.751   3.866
30276W        W95536  10.838  31.586   2.793
30277W        W95537  19.458  19.718  13.262
30278W        W95538  43.404   5.382   0.481
30279W        W95539  23.462  14.867  11.258
30280W        W95540  24.115  30.308   4.356
30281W        W95541   9.563  44.476  12.381
30282W        W95542  22.288  25.471  13.040
30283W        W95543  14.739   1.285   2.203
30284W        W95544   7.793  41.557  10.621
30285W        W95545  16.776   3.379   2.222
30286W        W95546  30.986   5.769   4.161
30287W        W95547  31.417  33.122  13.853
30288W        W95548  29.990  43.774   2.723
30289W        W95549   6.750  17.096  12.343
30290W        W95550  28.054  34.172  12.111
30291W        W95551  11.078  10.063  14.820
30292W        W95552   8.597  33.656  13.973
30293W        W95553  23.714  17.190  13.095
30294W        W95554   4.942   8.633  12.150
30295W        W95555  34.614  16.767  12.574
30296W        W95556   2.351  35.609   0.373
30297W        W95557   0.857  17.652  12.591
30298W        W95558   6.820  33.973  12.877
30299W        W95559  38.420  43.289  13.800
30300W        W95560  43.539  16.114  11.522
30301W        W95561  34.707  27.799   3.025
30302W        W95562  40.662  28.995  11.659
30303W        W95563  40.897   0.886  12.592
30304W        W95564   9.116  20.349   3.771
30305W        W95565  44.891  10.350  12.037
30306W        W95566  13.059  12.810  11.505
30307W        W95567  29.722  36.972   2.822
30308W        W95568  28.092  34.111  14.083
30309W        W95569   1.768  15.328   2.197
30310W        W95570   1.965  25.377  13.273
30311W        W95571  13.667  15.352  13.538
30312W        W95572   5.600  28.287   3.610
30313W        W95573  27.603  13.336  13.974
30314W        W95574  35.545  27.030  13.888
30315W        W95575  15.039  22.639  11.125
30316W        W95576   7.343  36.162   2.701
30317W        W95577  43.475  39.911  14.843
30318W        W95578  42.511  19.288  14.048
30319W        W95579  35.444   1.948  13.997
30320W        W95580  39.825  35.928  11.476
30321W        W95581  27.550  30.628  11.617
30322W        W95582  40.201   3.118   2.933
30323W        W95583   5.230  41.280   4.819
30324W        W95584  28.884  14.661  13.951
30325W        W95585  29.559  37.576  12.105
30326W        W95586  18.680   9.936  12.542
30327W        W95587  32.541  18.548  12.585
30328W        W95588  29.714  29.513   0.551
30329W        W95589  32.108  30.858   3.650
30330W        W95590  26.214  27.093   3.308
30331W        W95591  19.692  15.864   3.624
30332W        W95592  39.792  28.548   4.176
30333W        W95593  37.463  35.377   2.907
30334W        W95594  18.043  28.392  11.951
30335W        W95595  30.481  17.856  11.606
30336W        W95596   4.848   3.389  14.496
30337W        W95597  38.354  12.576   1.880
30338W        W95598  36.845  29.532  14.234
30339W        W95599  13.034   2.249  13.943
30340W        W95600  17.035  40.925   2.753
30341W        W95601   4.437  36.342  12.075
30342W        W95602  21.009  23.477  11.228
30343W        W95603  23.764   0.849   0.992
30344W        W95604  32.846  27.253  13.974
30345W        W95605  22.658  20.645   2.446
30346W        W95606  26.162  11.369   2.892
30347W        W95607  27.129  44.765  13.513
30348W        W95608  41.755  18.337  12.143
30349W        W95609   9.208  42.095   2.567
30350W        W95610  25.107  39.271   3.779
30351W        W95611  42.324  30.032  10.623
30352W        W95612   4.939  19.526   2.281
30353W        W95613  28.107  14.346  12.032
30354W        W95614  12.735  14.070   2.823
30355W        W95615  11.582  11.694  14.099
30356W        W95616  42.939  12.677  14.965
30357W        W95617  11.314  38.027   4.109
30358W        W95618  13.376  41.318   0.903
30359W        W95619  22.171   2.827   1.732
30360W        W95620   4.865   9.492  12.517
30361W        W95621  23.269   4.352   1.165
30362W        W95622  32.790   7.757  14.822
30363W        W95623  10.266  28.636   4.480
30364W        W95624  14.114  30.348  10.839
30365W        W95625  25.107   9.546   2.182
30366W        W95626  33.044  14.793   3.370
30367W        W95627   1.996   6.410   2.683
30368W        W95628  10.158  43.541   2.150
30369W        W95629  27.193  27.412   1.719
30370W        W95630  39.972  42.359   0.496
30371W        W95631  20.098  24.059   3.710
30372W        W95632  10.623  41.370   0.490
30373W        W95633  10.228   3.913   2.274
30374W        W95634   0.006  14.863  12.621
30375W        W95635  23.200  27.725  11.379
30376W        W95636   2.968  21.260  11.075
30377W        W95637  41.911   9.302  13.623
30378W        W95638  23.038  12.323  13.875
30379W        W95639  29.934  43.632  11.166
30380W        W95640  34.560  43.765   3.389
30381W        W95641  26.911  31.134  14.894
30382W        W95642  43.279   9.474   5.081
30383W        W95643  10.848  25.052  14.338
30384W        W95644  14.927  43.874  10.609
30385W        W95645  33.070  12.693  12.558
30386W        W95646   1.392  21.665  11.416
30387W        W95647  44.858  41.347  12.470
30388W        W95648  25.222  15.112  12.040
30389W        W95649   4.568  35.622  11.251
30390W        W95650  16.662  41.356   2.323
30391W        W95651  24.695  13.922  12.352
30392W        W95652  38.377  18.559  12.577
30393W        W95653  32.351  29.587   3.991
30394W        W95654  24.023  11.610   1.542
30395W        W95655   5.535  31.002   4.286
30396W        W95656   9.792  13.188  10.578
30397W        W95657  14.460  25.700   4.771
30398W        W95658  29.970  18.105  14.249
30399W        W95659  33.438   2.420  11.090
30400W        W95660  25.231  17.129  10.679
30401W        W95661  44.056  25.809  14.314
30402W        W95662   0.365  40.440  10.748
30403W        W95663  29.629  17.577  13.114
30404W        W95664   8.571   5.118   1.526
30405W        W95665   6.786  37.630   0.214
30406W        W95666  41.116  29.288  14.457
30407W        W95667  43.188  31.826   1.287
30408W        W95668  27.469  28.989  12.853
30409W        W95669  27.909  23.550  10.491
30410W        W95670  27.157   5.355   1.493
30411W        W95671  41.280   8.743   4.149
30412W        W95672  26.656   6.425   3.181
30413W        W95673  40.858  24.451  14.043
30414W        W95674  36.020  16.611   3.884
30415W        W95675   0.421  40.875  14.095
30416W        W95676  37.945  17.088   2.699
30417W        W95677  34.006   1.597   5.148
30418W        W95678   4.943  36.384   0.264
30419W        W95679  33.516  42.477   4.487
30420W        W95680  11.073  21.851  10.627
30421W        W95681  43.395   1.281   3.813
30422W        W95682  18.301  40.934  14.381
30423W        W95683  13.658  44.998  10.463
30424W        W95684   4.796  30.403  12.396
30425W        W95685   3.213  27.427   0.796
30426W        W95686   6.620  29.072  13.509
30427W        W95687   4.806  31.729   2.039
30428W        W95688   9.819  12.110  10.549
30429W        W95689  23.470  34.291  11.143
30430W        W95690  10.539  30.987  13.334
30431W        W95691  13.556  39.398  13.815
30432W        W95692  21.548  39.090   2.159
30433W        W95693  15.625   0.309  14.880
30434W        W95694   0.092  40.396   3.309
30435W        W95695  42.367  24.186  12.412
30436W        W95696  30.840  33.226  11.474
30437W        W95697  36.354  10.689  12.997
30438W        W95698  30.761   0.499   4.930
30439W        W95699  34.418  41.127   4.122
30440W        W95700  42.952  14.769   0.367
30441W        W95701  36.389  19.488  13.269
30442W        W95702   3.947  17.333   3.299
30443W        W95703  44.860   2.889   1.897
30444W        W95704   3.654   0.313   0.725
30445W        W95705  30.724  11.574   3.261
30446W        W95706   0.618  40.644  10.234
30447W        W95707  29.478  14.280  14.107
30448W        W95708  24.003  44.487  14.018
30449W        W95709  34.178  37.858   0.870
30450W        W95710  14.167   1.268   4.397
30451W        W95711  33.841  36.707  12.553
30452W        W95712  43.097  30.549  10.576
30453W        W95713  26.974  33.668   1.872
30454W        W95714  14.937  28.973  13.366
30455W        W95715  34.402   7.988   0.414
30456W        W95716   5.969  24.097   0.527
30457W        W95717  42.474  28.214   1.181
30458W        W95718  41.546   4.145  13.519
30459W        W95719   2.644  28.733  13.523
30460W        W95720  25.016  38.476   1.826
30461W        W95721  44.878   3.141   3.625
30462W        W95722  18.522   8.501   3.124
30463W        W95723  40.892  28.584   0.933
30464W        W95724  26.678  39.003   2.081
30465W        W95725  37.303  16.795   0.715
30466W        W95726  36.871  28.649   3.298
30467W        W95727   4.888   8.960   2.126
30468W        W95728  44.793   6.293   0.949
30469W        W95729  32.172  27.022   3.787
30470W        W95730   1.299  22.225  10.642
30471W        W95731  32.621  38.869   1.954
30472W        W95732  27.930  31.996  10.530
30473W        W95733  24.646  14.215  11.899
30474W        W95734  18.289   7.999  12.074
30475W        W95735  39.019  39.303  11.993
30476W        W95736  16.262   7.930   3.247
30477W        W95737  36.929  43.810   4.077
30478W        W95738  26.871  17.751   0.849
30479W        W95739   4.131  18.989   0.819
30480W        W95740  44.909  20.339   3.564
30481W        W95741  41.805  20.605   2.653
30482W        W95742  21.611  12.203   4.007
30483W        W95743  35.092  17.081  14.056
30484W        W95744  15.812  12.077  12.930
30485W        W95745   5.229  26.251  11.028
30486W        W95746   5.465   6.751  13.779
30487W        W95747  18.895  27.592   4.192
30488W        W95748   6.220   4.896  10.631
30489W        W95749  41.770  13.984  12.125
30490W        W95750   7.286  11.174   4.623
30491W        W95751  20.474  35.435  14.206
30492W        W95752  33.171  16.727   3.150
30493W        W95753  28.797   4.646  12.831
30494W        W95754  17.715  25.444  14.029
30495W        W95755   2.100   0.649  10.694
30496W        W95756  22.522  31.897  12.966
30497W        W95757  37.796  31.544  11.484
30498W        W95758  23.840   6.321   2.803
30499W        W95759  39.489   0.426  13.794
30500W        W95760  14.016  20.163  14.293
30501W        W95761  25.642   1.359  12.896
30502W        W95762  20.198  33.157  14.829
30503W        W95763   0.323  20.183   1.322
30504W        W95764  35.328   0.301  10.316
30505W        W95765   5.172   9.764  14.193
30506W        W95766   7.430  23.064   2.232
30507W        W95767  28.328  30.074  14.538
30508W        W95768  11.669  20.239   2.882
30509W        W95769   4.442   1.960   4.736
30510W        W95770   6.778  27.467   2.286
30511W        W95771  14.859   5.740   1.274
30512W        W95772  23.670  22.140  11.712
30513W        W95773  22.506   1.801   4.957
30514W        W95774  37.622  22.580   4.058
30515W        W95775  43.228  37.145  12.937
30516W        W95776   5.938  38.853   3.838
30517W        W95777  44.902   7.761  11.095
30518W        W95778  42.213   5.977   3.277
30519W        W95779  34.472   0.534   4.772
30520W        W95780  30.463  10.446   4.466
30521W        W95781   0.019  37.654   0.383
30522W        W95782   8.141   8.865   1.730
30523W        W95783   6.262   0.360   1.025
30524W        W95784  18.000  36.503   0.839
30525W        W95785   3.409   0.138  12.823
30526W        W95786   3.520  17.322   4.139
30527W        W95787   1.566   0.961   4.026
30528W        W95788  32.488  33.327   3.671
30529W        W95789  20.692   0.022   2.890
30530W        W95790  27.744  26.154  10.865
30531W        W95791  40.274  33.441  10.460
30532W        W95792   4.688  36.556  11.634
30533W        W95793   2.514  39.853   2.810
30534W        W95794  31.867  36.934   3.385
30535W        W95795   5.994  28.717   5.504
30536W        W95796  19.657   0.937  11.457
30537W        W95797  20.657  21.205   1.630
30538W        W95798  14.140  21.986  12.111
30539W        W95799  42.247  38.879  13.334
30540W        W95800  36.093  10.275  11.153
30541W        W95801  10.165   3.890  13.463
30542W        W95802  14.998  20.789   1.773
30543W        W95803  30.390   0.947  13.914
30544W        W95804  10.776  43.418  11.681
30545W        W95805  29.019  38.633   0.972
30546W        W95806  42.851  30.850   4.222
30547W        W95807   8.504  21.678  11.501
30548W        W95808  34.923  20.121  13.518
30549W        W95809  31.373  41.042  13.542
30550W        W95810  21.583  38.460   0.529
30551W        W95811  43.164  22.416  12.221
30552W        W95812  43.291  29.562   3.200
30553W        W95813  23.100  34.343   9.863
30554W        W95814   9.149  10.672  14.334
30555W        W95815  14.788  17.623   0.009
30556W        W95816  26.675  19.278   9.900
30557W        W95817  25.253  22.678   4.107
30558W        W95818  28.294  24.565  10.938
30559W        W95819   7.253  27.818  14.405
30560W        W95820  19.152  44.863   0.987
30561W        W95821  25.564   1.654  10.064
30562W        W95822  36.774   9.893  11.282
30563W        W95823  19.808  33.315  12.558
30564W        W95824  32.120   9.570  12.932
30565W        W95825  10.755  30.992  10.571
30566W        W95826   8.205   4.407  12.001
30567W        W95827  30.803  17.126   2.629
30568W        W95828  35.926  27.149   4.449
30569W        W95829  16.722  10.685   1.707
30570W        W95830  22.139  19.200  13.031
30571W        W95831  15.899  29.409  12.025
30572W        W95832  24.099  10.828  11.955
30573W        W95833  11.753   5.193   2.339
30574W        W95834   9.886   8.896   1.936
30575W        W95835  15.116  19.184   2.266
30576W        W95836   2.060  44.538  12.988
30577W        W95837  25.443  34.812   3.126
30578W        W95838   4.441  41.562  12.697
30579W        W95839  36.011   4.900   1.251
30580W        W95840  42.062  44.449   2.708
30581W        W95841  15.283  32.465   4.539
30582W        W95842  19.626  41.359   3.339
30583W        W95843   2.477  21.778   4.204
30584W        W95844  14.858  20.540  12.356
30585W        W95845  21.686   5.961  12.594
30586W        W95846  16.034   2.970  11.632
30587W        W95847  11.396  14.786   1.691
30588W        W95848  40.458  29.717   1.278
30589W        W95849  43.945  32.146  10.407
30590W        W95850  30.636  35.093   1.779
30591W        W95851  27.288   0.959  11.571
30592W        W95852  26.198  10.239   5.116
30593W        W95853   3.188  31.890  14.723
30594W        W95854  37.284   3.042   5.057
30595W        W95855  35.112  21.465   0.463
30596W        W95856   0.010  30.164   3.172
30597W        W95857  23.601  20.325  12.807
30598W        W95858  19.207  36.822  14.991
30599W        W95859  39.074  28.134  10.669
30600W        W95860  26.138  12.718   3.642
30601W        W95861  18.625  19.671  12.781
30602W        W95862  38.830   2.465   4.599
30603W        W95863  38.275  15.065  11.474
30604W        W95864  39.856  23.135  14.921
30605W        W95865  39.846  15.280  13.633
30606W        W95866  16.705  41.925  11.592
30607W        W95867   7.449  11.495   1.224
30608W        W95868  29.277  33.896  14.863
30609W        W95869  24.241   7.100  12.437
30610W        W95870  44.501  14.527   2.612
30611W        W95871   6.525  36.057  12.573
30612W        W95872  23.504  14.189   2.715
30613W        W95873  23.166  34.306   5.089
30614W        W95874   7.639   5.909  12.547
30615W        W95875  16.744  30.624  14.921
30616W        W95876   2.958  43.342  14.581
30617W        W95877   8.506  17.195   4.714
30618W        W95878  41.552  18.689   3.190
30619W        W95879  24.451  42.336  12.081
30620W        W95880   4.478  40.885  14.861
30621W        W95881  34.732  25.098  13.703
30622W        W95882   8.110   7.732   3.360
30623W        W95883  28.414   4.164   3.190
30624W        W95884   5.394  16.081   4.197
30625W        W95885  22.367   9.731   3.699
30626W        W95886  44.783  39.243  11.977
30627W        W95887  31.157  34.086   3.366
30628W        W95888  12.227   4.054  13.048
30629W        W95889   6.654  15.362   2.690
30630W        W95890  23.590  11.954  11.685
30631W        W95891  31.566  13.211   0.819
30632W        W95892  42.377   4.946   4.988
30633W        W95893  12.549   3.901  10.732
30634W        W95894  10.254  11.692  13.547
30635W        W95895  33.935   8.717   4.076
30636W        W95896  28.120   1.964   2.634
30637W        W95897  25.758   0.242   3.616
30638W        W95898  27.965  20.486   0.347
30639W        W95899  38.847  35.437   2.345
30640W        W95900  34.538  33.519  10.909
30641W        W95901  44.878  29.069  11.224
30642W        W95902   7.159  31.538  12.748
30643W        W95903  14.219  16.240  14.867
30644W        W95904   6.328  38.844   2.137
30645W        W95905  20.266  38.476   2.801
30646W        W95906  34.913  23.117  10.747
30647W        W95907  19.839   0.871   1.695
30648W        W95908  20.557  27.183  13.452
30649W        W95909  19.308  36.302  14.969
30650W        W95910   1.902  26.001  12.640
30651W        W95911  22.202  24.111  12.014
30652W        W95912  38.510  34.572   2.602
30653W        W95913  44.304   1.724   1.772
30654W        W95914  14.862  35.085   5.012
30655W        W95915  22.597  44.573   0.423
30656W        W95916  26.347  36.945  12.529
30657W        W95917  27.014  10.600  13.415
30658W        W95918  13.673  40.436   0.913
30659W        W95919  36.547  36.507  11.153
30660W        W95920  24.910  17.923  11.214
30661W        W95921  42.015   0.209   0.866
30662W        W95922  43.861   7.132   1.240
30663W        W95923  11.637  40.988  14.477
30664W        W95924   2.453  22.977  10.084
30665W        W95925  19.588   0.429   2.849
30666W        W95926  30.489  22.683  14.055
30667W        W95927   0.260  33.146  12.494
30668W        W95928  26.136  38.438   3.440
30669W        W95929   8.746  16.072  10.923
30670W        W95930  33.565  22.080   0.243
30671W        W95931  19.523  31.053  10.448
30672W        W95932  16.726  27.886  12.839
30673W        W95933   6.198  23.344   3.406
30674W        W95934  23.745  42.555  10.716
30675W        W95935  44.360   1.354  11.909
30676W        W95936  41.309  39.051  13.377
30677W        W95937  30.435  31.007   4.180
30678W        W95938  17.562  23.621   0.649
30679W        W95939  40.933   1.857   1.583
30680W        W95940   4.920  20.867  11.603
30681W        W95941   4.381  30.537  11.986
30682W        W95942  30.087   3.863   4.219
30683W        W95943  42.236  14.091  11.686
30684W        W95944  38.815  12.233  14.763
30685W        W95945  14.149   9.354   1.276
30686W        W95946  41.271   0.730  13.334
30687W        W95947  16.621  35.122   1.777
30688W        W95948  14.983   8.154  12.697
30689W        W95949  19.047  11.645  12.847
30690W        W95950   5.990  21.422  13.598
30691W        W95951  21.207  44.452   0.688
30692W        W95952  15.819  15.612  11.134
30693W        W95953  36.624  44.701  10.692
30694W        W95954   7.077  41.773   4.660
30695W        W95955  33.093  35.640  11.044
30696W        W95956  10.587  33.466  13.419
30697W        W95957  29.417  29.596  11.534
30698W        W95958  43.987  17.656  11.563
30699W        W95959  31.612  41.932   0.176
30700W        W95960  34.535  30.542  14.069
30701W        W95961  20.743  27.892   3.108
30702W        W95962  18.759  16.966   1.343
30703W        W95963  34.353  34.756   4.560
30704W        W95964  34.318  44.851   2.153
30705W        W95965  40.440  15.806  14.823
30706W        W95966  29.384  21.036  14.919
30707W        W95967  27.123  23.292   3.156
30708W        W95968   3.310   8.583  13.952
30709W        W95969  33.918  34.012   4.385
30710W        W95970  13.332  18.316   3.687
30711W        W95971  25.466   0.888  12.742
30712W        W95972  16.856   7.628  14.881
30713W        W95973  44.510  23.631  10.605
30714W        W95974  11.612  33.529   5.157
30715W        W95975  26.110  39.898  10.423
30716W        W95976  12.835  24.093   4.848
30717W        W95977  38.802  44.254  11.538
30718W        W95978   9.764  36.046   1.895
30719W        W95979  23.744   5.799  13.437
30720W        W95980  29.022  44.359  14.211
30721W        W95981  31.417  17.130   4.083
30722W        W95982  38.792  37.071  14.794
30723W        W95983  20.784   1.261  12.982
30724W        W95984  44.340  44.725   4.108
30725W        W95985  16.638  10.156   3.845
30726W        W95986  22.500  27.668   3.175
30727W        W95987  41.240  19.990  13.908
30728W        W95988  38.519  35.817   1.351
30729W        W95989  33.916  36.995   4.157
30730W        W95990   2.514  29.432   4.187
30731W        W95991  14.876  24.890   3.960
30732W        W95992  29.589  11.485  11.177
30733W        W95993  24.657  38.640   9.911
30734W        W95994   8.187  34.953   2.386
30735W        W95995  28.705   2.770   1.171
30736W        W95996  23.763  24.035  11.608
30737W        W95997  33.876  31.850   2.856
30738W        W95998  15.163  15.368  10.566
30739W        W95999   8.988  18.812   1.750
30740W        W96000   9.297   4.194  14.819
30741W        W96001   7.862  30.018   3.439
30742W        W96002  13.535  34.094   4.196
30743W        W96003   6.388  40.052   2.847
30744W        W96004  13.765  16.228  14.263
30745W        W96005  22.334  12.394   3.328
30746W        W96006   7.469  41.545  13.592
30747W        W96007  43.878  36.854   0.446
30748W        W96008   2.290  30.114   0.387
30749W        W96009   2.732  37.552   4.690
30750W        W96010  40.339  19.685   4.590
30751W        W96011  39.092  38.926   3.550
30752W        W96012  18.000  22.264   3.631
30753W        W96013  24.639  33.946  11.068
30754W        W96014  22.190   5.438  11.929
30755W        W96015  20.369  20.956   1.990
30756W        W96016   4.169  11.352   3.222
30757W        W96017  37.378  18.715   1.609
30758W        W96018  21.109  33.144  14.407
30759W        W96019  25.141  32.836  11.641
30760W        W96020   3.189  23.160  12.153
30761W        W96021  31.681   6.720   2.330
30762W        W96022   3.696  38.875  12.410
30763W        W96023   5.494   9.890  13.819
30764W        W96024  16.248  29.417  13.332
30765W        W96025  29.942   6.698  12.576
30766W        W96026  40.873   3.696   0.503
30767W        W96027  26.863   2.497   2.723
30768W        W96028  23.784  43.291  13.652
30769W        W96029  20.802   7.167   2.661
30770W        W96030  32.094  18.332   0.192
30771W        W96031  15.735  36.868   0.786
30772W        W96032  32.120  33.472   3.323
30773W        W96033  26.427  35.614  11.207
30774W        W96034  35.369   8.612   4.055
30775W        W96035  24.209   3.716  11.213
30776W        W96036  42.504   8.257   4.499
30777W        W96037   4.252   0.173  14.300
30778W        W96038  23.232   5.903   3.976
30779W        W96039  37.565  30.650  12.726
30780W        W96040   3.920  28.034  12.274
30781W        W96041  17.543   3.757  12.607
30782W        W96042  36.485  36.857  12.005
30783W        W96043  18.632   7.170  11.567
30784W        W96044   9.199  29.024   0.410
30785W        W96045  33.053   3.027  11.974
30786W        W96046  36.145  22.210   0.345
30787W        W96047   0.495  12.830   0.727
30788W        W96048  19.584  38.014  11.457
30789W        W96049  39.092  34.937   3.353
30790W        W96050  32.739  17.732  14.562
30791W        W96051  24.685   1.823   3.120
30792W        W96052  19.919  38.083   4.723
30793W        W96053  38.427   3.887   3.153
30794W        W96054  44.462  38.352  13.229
30795W        W96055  28.261  28.575   3.133
30796W        W96056  34.066  44.438   3.280
30797W        W96057  21.201  37.889   3.275
30798W        W96058  41.247  24.988  12.809
30799W        W96059   4.436   3.763  12.392
30800W        W96060  41.571  37.545   3.505
30801W        W96061   9.798  44.270   1.661
30802W        W96062  38.591   5.266   1.145
30803W        W96063  25.097  21.131   3.050
30804W        W96064  11.246  10.875   9.722
30805W        W96065  13.567  32.509   4.680
30806W        W96066  40.936  14.599   1.646
30807W        W96067   7.752  11.878   4.998
30808W        W96068  38.366  14.216  14.804
30809W        W96069  43.352  31.736  10.375
30810W        W96070  12.839  18.143  13.335
30811W        W96071  40.972  32.838   4.426
30812W        W96072  24.785  24.550  14.418
30813W        W96073  24.702  26.474  10.365
30814W        W96074   1.031  15.339  11.584
30815W        W96075  44.873  24.444  11.532
30816W        W96076  33.351  38.772  13.305
30817W        W96077  12.344  38.329   0.421
30818W        W96078  11.717  42.828   0.278
30819W        W96079  13.750   2.988   2.706
30820W        W96080   0.949  19.210  14.690
30821W        W96081  41.504  27.044   4.478
30822W        W96082  40.019  19.341   4.362
30823W        W96083  21.155   0.780   1.946
30824W        W96084  16.972   0.863   2.415
30825W        W96085  44.499  12.196  13.120
30826W        W96086  20.020   5.819  13.992
30827W        W96087   9.763   2.099   4.850
30828W        W96088  25.446  35.159  13.628
30829W        W96089  16.350  41.332  11.874
30830W        W96090  10.251   2.234   2.333
30831W        W96091  44.546  38.170  14.892
30832W        W96092  19.974  35.899  12.520
30833W        W96093   4.181  44.521  12.435
30834W        W96094  17.095  36.029   4.019
30835W        W96095  35.109   0.762  13.083
30836W        W96096  21.350  44.980  14.332
30837W        W96097  24.425   1.854   4.142
30838W        W96098   3.992  18.708  12.015
30839W        W96099  29.132  21.261   3.219
30840W        W96100   8.320  36.262   1.773
30841W        W96101   0.214  40.887  10.473
30842W        W96102  33.189  42.754  12.963
30843W        W96103  20.588  30.382   2.286
30844W        W96104  12.321  15.408  12.964
30845W        W96105  33.915  16.746  10.703
30846W        W96106  24.433  15.239  11.510
30847W        W96107  16.747   6.577   0.777
30848W        W96108   4.392  27.504   3.789
30849W        W96109  28.697   9.194   2.588
30850W        W96110  11.879  35.454  14.437
30851W        W96111  23.196   1.984  12.517
30852W        W96112  38.088   7.356  13.919
30853W        W96113  25.997  18.164  11.954
30854W        W96114  30.334  24.551  13.865
30855W        W96115  44.227  43.017  11.695
30856W        W96116   7.644  30.601  12.153
30857W        W96117  16.325   0.255  14.445
30858W        W96118  15.049  11.344   0.950
30859W        W96119  34.876  21.032   3.803
30860W        W96120  10.718  29.587  12.008
30861W        W96121   4.971  36.472  14.233
30862W        W96122   8.665  19.567   3.315
30863W        W96123  27.682   6.722  12.884
30864W        W96124  43.496  30.937  13.541
30865W        W96125  18.349   4.955  13.346
30866W        W96126  42.512  18.282  10.724
30867W        W96127   5.960  29.631   0.763
30868W        W96128  41.781   3.989   1.701
30869W        W96129  14.022  14.739  12.612
30870W        W96130   4.402  38.998  12.501
30871W        W96131  18.186  33.081   1.873
30872W        W96132  32.723  10.581  10.232
30873W        W96133  39.053  23.951  13.928
30874W        W96134   7.455  15.740   2.338
30875W        W96135  21.364  13.247   0.337
30876W        W96136  38.084  38.133  13.018
30877W        W96137  39.104  22.553   4.520
30878W        W96138  32.603  13.348   1.947
30879W        W96139   8.747  21.065  11.040
30880W        W96140  20.198  43.699   2.795
30881W        W96141  11.405  15.716  12.191
30882W        W96142  36.580  36.969   3.758
30883W        W96143  35.522  38.101  13.144
30884W        W96144   9.689   8.322   3.710
30885W        W96145   0.468   6.298  14.911
30886W        W96146  27.140  16.692  13.221
30887W        W96147  30.221  44.945   1.426
30888W        W96148  18.725  35.016  14.001
30889W        W96149  43.247  26.449  10.071
30890W        W96150  11.662  37.498   1.427
30891W        W96151  11.891  23.831  11.183
30892W        W96152   0.433  37.521  14.669
30893W        W96153  18.398   4.803  10.763
30894W        W96154  12.741  42.493   2.425
30895W        W96155  31.032  25.943  12.996
30896W        W96156  21.161  21.738   0.740
30897W        W96157   0.023  26.203   3.937
30898W        W96158  25.468  36.461   0.295
30899W        W96159  15.835  37.041   1.614
30900W        W96160  31.174  17.520   3.773
30901W        W96161   8.251  41.652   2.333
30902W        W96162  13.065  34.535  14.362
30903W        W96163   0.718  19.236  11.854
30904W        W96164  25.631  42.372   4.882
30905W        W96165  21.595  42.448   4.285
30906W        W96166  37.470  41.268  12.683
30907W        W96167  20.535   4.601   1.800
30908W        W96168  35.948  26.248   2.761
30909W        W96169  30.417   8.122   1.515
30910W        W96170  13.816  18.672   2.213
30911W        W96171  27.837  37.299   1.132
30912W        W96172  41.389  18.601   4.714
30913W        W96173  36.769  25.764  11.170
30914W        W96174  43.324  37.626  13.124
30915W        W96175  33.291  31.696  12.800
30916W        W96176  33.081   7.035   2.337
30917W        W96177  22.075  32.064   2.874
30918W        W96178  37.060  42.866  12.889
30919W        W96179   6.390  36.967  14.107
30920W        W96180  10.905  16.818   2.817
30921W        W96181  12.471   6.363  14.975
30922W        W96182   2.758  27.114   2.118
30923W        W96183   3.647   4.710   3.872
30924W        W96184  14.234  20.703   0.133
30925W        W96185  32.384  35.035  12.691
30926W        W96186  24.479  26.124   2.414
30927W        W96187  43.246  10.163  14.419
30928W        W96188  41.801   8.768   1.841
30929W        W96189  20.798  21.218   4.499
30930W        W96190  13.717  33.389  14.816
30931W        W96191  36.278  35.160   4.666
30932W        W96192   9.740  27.950   1.711
30933W        W96193  19.137  33.446   4.934
30934W        W96194  42.792  22.645   1.367
30935W        W96195  23.426  44.028  10.507
30936W        W96196   0.346   5.451  14.262
30937W        W96197  33.321  41.967   2.678
30938W        W96198  44.823   4.803   0.507
30939W        W96199  34.135  11.861  14.430
30940W        W96200  16.235  41.061   2.207
30941W        W96201  20.471  12.773   3.162
30942W        W96202  15.855  39.060   4.699
30943W        W96203  27.886  32.404   3.382
30944W        W96204  11.133   8.395   2.555
30945W        W96205  21.186  42.982  11.620
30946W        W96206  38.072  41.776   0.359
30947W        W96207  12.648   6.132  13.596
30948W        W96208  35.201  44.451   1.319
30949W        W96209  34.999  43.353  12.433
30950W        W96210   0.310  30.280   2.318
30951W        W96211   0.108   8.131   5.722
30952W        W96212  44.822  15.753  12.796
30953W        W96213  26.536  15.450  13.622
30954W        W96214  41.119  16.199  11.060
30955W        W96215   5.934   0.930   1.634
30956W        W96216  19.819   1.770  14.380
30957W        W96217  18.924  11.081   3.722
30958W        W96218   6.690  24.919   0.943
30959W        W96219  33.137  24.678   2.226
30960W        W96220  14.717  12.282   2.160
30961W        W96221  26.959  18.553   1.773
30962W        W96222  34.865  23.499   3.209
30963W        W96223  22.133  43.741   1.337
30964W        W96224   0.540  14.431  11.865
30965W        W96225  20.171  38.509   9.748
30966W        W96226  34.329  18.027   1.048
30967W        W96227   9.705   0.416   2.178
30968W        W96228  27.125  39.855   2.643
30969W        W96229  37.092  43.305   4.062
30970W        W96230  14.784  20.137  10.215
30971W        W96231  22.781  28.703   4.161
30972W        W96232  34.001  27.615  13.383
30973W        W96233   6.727  11.413   0.320
30974W        W96234  19.216  23.905   4.150
30975W        W96235  12.391  24.709   1.662
30976W        W96236  38.903  25.356   0.496
30977W        W96237  36.242  20.854  10.723
30978W        W96238  24.261  42.264   0.469
30979W        W96239   5.801  31.762   4.163
30980W        W96240  20.990  34.458   1.372
30981W        W96241  16.999  42.410  12.422
30982W        W96242  17.621  27.940   3.755
30983W        W96243  13.925  23.531  11.576
30984W        W96244   8.961  13.612  10.695
30985W        W96245  31.213  37.981   1.211
30986W        W96246  35.328   8.891  14.923
30987W        W96247   7.398  38.918  11.204
30988W        W96248  10.170  35.846  12.432
30989W        W96249  28.451  12.782  11.552
30990W        W96250  19.087   3.691   3.738
30991W        W96251  44.587  44.946  13.371
30992W        W96252  42.273  20.979  11.137
30993W        W96253  29.586  34.404   1.906
30994W        W96254   5.376  33.878   0.768
30995W        W96255   0.973  14.867  14.091
30996W        W96256  23.690  25.565   2.137
30997W        W96257  22.340  36.487   1.272
30998W        W96258   1.574  15.885   2.722
30999W        W96259  25.900  14.833   3.336
31000W        W96260  11.713  18.952   3.316
31001W        W96261   0.653   4.081   0.831
31002W        W96262  42.888   2.822   2.048
31003W        W96263  20.974  44.101   1.843
31004W        W96264  26.096   3.315  14.599
31005W        W96265   2.970  22.645  14.560
31006W        W96266   6.386   0.321   1.525
31007W        W96267  33.291  23.772   3.266
31008W        W96268  24.388   5.283   2.153
31009W        W96269  19.880  13.779  11.237
31010W        W96270  34.324  42.255   2.747
31011W        W96271  41.821   3.698  13.496
31012W        W96272  38.959   0.597  12.070
31013W        W96273  16.905   3.846   0.810
31014W        W96274  41.127  20.538  14.445
31015W        W96275   8.149   8.873   2.856
31016W        W96276  44.757  17.698  10.928
31017W        W96277  13.086   5.601  12.637
31018W        W96278  19.266   4.262   2.003
31019W        W96279  37.371  29.145   2.645
31020W        W96280  32.672  15.580  12.635
31021W        W96281   1.747  37.385  12.198
31022W        W96282   5.718   2.439  14.532
31023W        W96283   0.424  25.953  12.376
31024W        W96284  15.330  19.853   4.397
31025W        W96285   3.548  40.888  12.323
31026W        W96286  42.951  39.551  14.952
31027W        W96287  25.076  24.569  14.867
31028W        W96288  11.121  34.931  12.146
31029W        W96289  28.213  26.603  14.416
31030W        W96290  32.452  36.503  11.940
31031W        W96291  37.342  33.053  11.431
31032W        W96292  34.954  17.656  14.740
31033W        W96293  42.493  44.767  11.034
31034W        W96294  22.723  15.593   0.467
31035W        W96295  32.599  14.785  14.277
31036W        W96296  26.841  24.023   1.696
31037W        W96297  30.630   4.363  12.044
31038W        W96298  29.220   0.200  13.497
31039W        W96299   8.356  13.172  14.469
31040W        W96300  14.624  27.014  13.955
31041W        W96301  37.394  23.564  14.538
31042W        W96302  11.888  11.768   2.925
31043W        W96303  27.500  20.975   2.383
31044W        W96304  27.478  16.291   2.766
31045W        W96305  14.878  28.041   4.244
31046W        W96306  17.269   7.613  13.914
31047W        W96307  41.437  44.436  10.626
31048W        W96308  22.764  14.394   9.843
31049W        W96309   3.050   2.239   3.183
31050W        W96310  17.326  23.454   4.125
31051W        W96311  19.714  43.777  11.234
31052W        W96312  25.865  43.923  13.057
31053W        W96313  35.853  36.928  13.376
31054W        W96314  34.855  14.105  12.821
31055W        W96315  30.172   0.467  14.834
31056W        W96316  21.447  29.880   5.050
31057W        W96317  32.459  20.524   3.720
31058W        W96318  30.237   8.992   2.772
31059W        W96319  13.746  20.780  11.001
31060W        W96320  38.260  36.845  11.002
31061W        W96321  35.653  26.517   1.932
31062W        W96322  16.798  11.518   3.187
31063W        W96323  27.967   9.167  13.924
31064W        W96324  44.993  11.963   1.297
31065W        W96325   4.712  40.202  13.038
31066W        W96326  14.194   5.998  12.187
31067W        W96327  28.829  21.615  12.706
31068W        W96328   8.968  35.532  11.218
31069W        W96329  23.250   6.182  14.929
31070W        W96330  16.041  44.969   2.007
31071W        W96331   3.556  21.506   3.376
31072W        W96332  30.913  10.220   3.349
31073W        W96333  43.381  13.912  14.295
31074W        W96334  13.844   5.324  14.818
31075W        W96335   0.559  15.579   2.556
31076W        W96336  28.395  28.013   4.174
31077W        W96337   5.352  32.120   1.444
31078W        W96338  40.681   5.858   1.312
31079W        W96339  25.338  40.954   2.353
31080W        W96340  10.113  26.266   3.139
31081W        W96341  35.962  20.758   2.023
31082W        W96342  20.463  40.487   1.410
31083W        W96343  13.415  10.929   9.816
31084W        W96344  37.975  17.354   0.758
31085W        W96345  34.883   1.315   5.300
31086W        W96346  17.556  13.158  14.819
31087W        W96347   3.248  37.760  12.867
31088W        W96348  12.762  38.184   0.752
31089W        W96349   4.683  38.665  10.627
31090W        W96350  28.349  38.988  14.334
31091W        W96351  17.492  30.041   0.230
31092W        W96352  17.342  44.914  12.867
31093W        W96353  14.160  18.484  12.087
31094W        W96354   3.977   4.767   1.743
31095W        W96355   9.199  43.847   4.244
31096W        W96356   8.892  38.233  11.893
31097W        W96357   1.361  42.915   0.260
31098W        W96358   9.259  25.199   0.823
31099W        W96359  19.807  32.719   4.855
31100W        W96360  23.239  29.040   4.512
31101W        W96361   3.371  28.926  12.973
31102W        W96362  35.548  27.974  13.397
31103W        W96363  32.838  30.847   0.349
31104W        W96364  12.768  14.848  10.785
31105W        W96365  14.292  34.376  14.292
31106W        W96366   4.183  17.212  12.909
31107W        W96367  18.781   7.980  11.957
31108W        W96368  16.505  42.057  13.905
31109W        W96369  37.005  40.133  14.416
31110W        W96370   3.254   9.464  11.485
31111W        W96371  30.456  43.591   2.838
31112W        W96372  10.084  42.800   4.998
31113W        W96373  29.561   9.111   1.254
31114W        W96374   3.348  36.475   1.737
31115W        W96375  43.279  14.245   1.982
31116W        W96376  44.832  39.240  13.953
31117W        W96377  42.300  31.438  11.533
31118W        W96378  35.058  33.069   1.040
31119W        W96379  32.636  13.734  10.304
31120W        W96380  20.865  43.256   3.265
31121W        W96381  41.987  22.692  14.398
31122W        W96382   3.379  40.280   4.527
31123W        W96383   7.214  36.862  11.609
31124W        W96384  40.326  22.127  11.395
31125W        W96385  43.483  36.334   3.232
31126W        W96386  14.392  40.908   3.609
31127W        W96387  36.662  40.637  12.166
31128W        W96388  16.505  35.151   1.020
31129W        W96389   0.097   3.150   1.427
31130W        W96390  17.066  11.151  10.882
31131W        W96391  21.213  37.259  11.143
31132W        W96392  28.824   0.457   2.365
31133W        W96393  23.626  36.797  10.276
31134W        W96394  20.674  35.453   4.633
31135W        W96395  37.761  21.489  11.980
31136W        W96396   5.181   4.836   2.340
31137W        W96397  42.919   3.340   2.815
31138W        W96398   4.886  18.032  10.234
31139W        W96399  40.714  30.815  12.592
31140W        W96400  40.484  12.258  12.934
31141W        W96401  39.542   0.506   2.301
31142W        W96402  30.435  32.064   2.908
31143W        W96403  44.778  38.898  13.522
31144W        W96404  11.814  37.811   4.148
31145W        W96405  23.754  13.735   1.363
31146W        W96406  23.289  40.496  10.672
31147W        W96407   5.988  23.404  11.732
31148W        W96408  43.890  27.405   4.175
31149W        W96409   2.390  23.942  13.555
31150W        W96410  28.217   2.175   0.786
31151W        W96411   8.006  37.387  14.760
31152W        W96412  23.304   5.961  10.267
31153W        W96413  39.498  21.595   4.444
31154W        W96414  15.219  25.970   1.890
31155W        W96415  26.040  20.912   2.195
31156W        W96416   8.360  31.033   1.422
31157W        W96417  18.187  18.681  10.901
31158W        W96418  13.260  23.251   0.530
31159W        W96419  17.192  33.180   0.021
31160W        W96420  40.340  18.252   4.517
31161W        W96421  42.748  10.845  14.731
31162W        W96422   7.754   3.243  14.781
31163W        W96423  32.960  32.108   3.730
31164W        W96424  12.720   7.018  12.509
31165W        W96425   5.228  12.608   3.735
31166W        W96426   6.838  40.546   3.314
31167W        W96427  36.970  12.804   3.122
31168W        W96428  14.772  26.044  10.802
31169W        W96429   4.876  27.528   2.543
31170W        W96430  31.285  30.705   5.102
31171W        W96431  34.996  36.180  12.919
31172W        W96432  42.483  27.086  14.358
31173W        W96433  14.701   5.151  10.735
31174W        W96434  20.195  25.276  11.694
31175W        W96435  33.175   1.016  13.740
31176W        W96436  38.606  32.021  10.605
31177W        W96437   4.148  40.995  14.413
31178W        W96438  41.969   2.600  14.574
31179W        W96439  12.838  24.832  13.422
31180W        W96440  41.396  12.257  11.059
31181W        W96441  43.187   0.918   4.113
31182W        W96442  29.130  44.171   2.346
31183W        W96443  25.957   0.819  11.120
31184W        W96444  39.005  23.508   4.693
31185W        W96445  31.600   7.814  10.739
31186W        W96446  22.736  17.126  11.466
31187W        W96447   1.718  13.050   1.414
31188W        W96448  22.499   7.319  14.857
31189W        W96449  25.583  17.751  12.862
31190W        W96450  44.066  33.297  11.893
31191W        W96451  29.014  12.596  12.865
31192W        W96452  26.623  35.972  13.113
31193W        W96453  42.071  34.921  11.356
31194W        W96454   1.728   1.936   1.272
31195W        W96455  23.578  39.373   3.240
31196W        W96456  29.604  18.196   3.306
31197W        W96457   9.129  36.278   2.624
31198W        W96458  40.953   0.501   9.903
31199W        W96459   8.264   3.959   2.691
31200W        W96460  39.070  11.325  14.423
31201W        W96461  32.656  37.474   3.885
31202W        W96462  29.475  39.532  12.901
31203W        W96463  22.115  34.048   1.054
31204W        W96464  41.271  19.131  13.512
31205W        W96465  44.698  25.577   1.141
31206W        W96466  43.465  35.896   1.707
31207W        W96467   2.915   2.167   4.919
31208W        W96468  30.124  38.943  11.115
31209W        W96469   0.391   4.240  10.544
31210W        W96470   5.356  32.910   4.603
31211W        W96471   9.133  13.535  12.972
31212W        W96472  16.983   5.952   4.575
31213W        W96473  24.114  39.757  13.362
31214W        W96474   0.700  36.462  13.955
31215W        W96475  36.917  24.659   0.509
31216W        W96476  43.999  20.064   4.064
31217W        W96477  17.838   6.380  12.997
31218W        W96478   2.512  10.345  14.200
31219W        W96479  13.243  37.688  11.139
31220W        W96480  11.742  14.362  11.155
31221W        W96481   1.290  29.935   0.305
31222W        W96482  19.511  39.264   3.779
31223W        W96483   6.485  16.768  14.082
31224W        W96484  29.903  33.297  11.166
31225W        W96485  17.927   2.407  12.379
31226W        W96486  29.145   2.943   1.462
31227W        W96487  30.172  42.752  12.068
31228W        W96488  36.085   3.134  12.890
31229W        W96489   6.696  25.106  13.123
31230W        W96490  16.709  11.215  14.527
31231W        W96491  22.468  23.409   0.346
31232W        W96492  23.813  32.841   4.716
31233W        W96493  41.310  34.023  14.863
31234W        W96494  38.488  33.080  13.341
31235W        W96495   3.499  16.806  10.780
31236W        W96496   5.045  44.304   2.788
31237W        W96497  41.105   3.373  10.904
31238W        W96498  18.153  42.841   2.263
31239W        W96499  31.197  40.264   5.203
31240W        W96500   6.119   3.067   1.438
31241W        W96501  44.400  11.395  14.108
31242W        W96502   5.811  32.590   3.678
31243W        W96503  17.560  44.687   1.842
31244W        W96504  12.763  10.964  13.474
31245W        W96505  26.012  44.885  11.178
31246W        W96506  34.786  26.552   5.010
31247W        W96507  37.651  32.671  11.242
31248W        W96508  17.676  15.226   4.710
31249W        W96509  12.632  14.598  13.827
31250W        W96510  37.406  30.099  14.393
31251W        W96511   5.706  41.586  12.083
31252W        W96512  25.727  40.614   0.523
31253W        W96513  26.161  31.254  11.649
31254W        W96514  15.367  16.639  14.490
31255W        W96515  11.064  10.897   0.352
31256W        W96516  38.864  22.100   2.702
31257W        W96517  32.743  34.385   0.843
31258W        W96518   7.784  18.084   0.461
31259W        W96519  39.702  28.594  12.458
31260W        W96520   8.451   1.468   4.177
31261W        W96521  39.508  36.326  14.035
31262W        W96522   5.905  41.557  10.699
31263W        W96523  34.342  26.004   2.202
31264W        W96524  24.024  25.714  11.128
31265W        W96525  41.555  30.524   0.678
31266W        W96526   8.229  13.253   4.080
31267W        W96527  41.297   6.722   0.883
31268W        W96528  17.290   2.450   0.789
31269W        W96529  33.177  41.416  13.595
31270W        W96530   4.298  32.141   0.784
31271W        W96531  30.468  43.549  14.936
31272W        W96532  13.041   1.250  11.615
31273W        W96533  43.887  34.504  13.403
31274W        W96534  12.264  43.772   2.631
31275W        W96535  26.026   0.541  10.654
31276W        W96536   8.495  18.986   1.807
31277W        W96537  17.108  37.316   4.571
31278W        W96538  35.285   6.750  12.655
31279W        W96539  11.979  36.932   2.250
31280W        W96540   7.691  19.816   2.882
31281W        W96541  13.892   9.690  14.411
31282W        W96542   4.577  43.832   1.563
31283W        W96543   8.301  44.424   3.417
31284W        W96544  41.322  13.760  11.799
31285W        W96545  42.559  37.299   3.668
31286W        W96546  30.226  11.124  12.587
31287W        W96547   5.819   0.443   0.735
31288W        W96548  27.118  30.134   0.225
31289W        W96549  39.761   3.293   0.021
31290W        W96550  36.804  21.262   1.359
31291W        W96551  17.726  13.298   3.634
31292W        W96552  38.380   6.306   0.048
31293W        W96553  17.856  31.060   1.866
31294W        W96554  36.096  30.105  14.920
31295W        W96555  10.093  16.588   2.181
31296W        W96556   6.687   2.369   3.760
31297W        W96557  39.557  25.427   3.419
31298W        W96558  40.750  32.102   2.276
31299W        W96559  26.568  35.385   5.156
31300W        W96560  34.644  21.266   4.250
31301W        W96561  44.923  26.005   3.437
31302W        W96562  35.076  19.303  11.598
31303W        W96563  38.042  40.489  11.080
31304W        W96564  19.539   9.289  12.980
31305W        W96565  18.077  31.905  10.865
31306W        W96566  19.998  21.007  10.592
31307W        W96567  43.909  11.112   4.631
31308W        W96568  25.751   6.022   3.703
31309W        W96569  12.590   9.703   3.960
31310W        W96570   2.425  39.124   0.280
31311W        W96571  22.620  20.712   3.431
31312W        W96572  18.102  31.972  12.636
31313W        W96573  39.982  16.273   3.263
31314W        W96574  13.720   9.835   2.277
31315W        W96575  23.633  23.303   0.945
31316W        W96576  32.502   2.160  14.392
31317W        W96577   7.887  35.417  13.426
31318W        W96578  17.075  36.316   1.244
31319W        W96579   5.369  21.025   1.777
31320W        W96580  41.260  28.338   4.206
31321W        W96581   8.156   8.666  14.075
31322W        W96582   5.113  16.559   4.213
31323W        W96583  15.709   0.281  12.006
31324W        W96584  22.234  22.524   1.831
31325W        W96585   8.981  17.345  12.334
31326W        W96586  26.211  19.067  13.997
31327W        W96587   8.822   2.931  11.541
31328W        W96588  37.046  13.819  14.443
31329W        W96589  42.976  20.440  10.683
31330W        W96590  34.149  30.146  11.983
31331W        W96591  34.645  18.347   2.481
31332W        W96592  17.691  33.043   3.693
31333W        W96593  43.702  23.580   3.042
31334W        W96594  27.749  12.180   3.169
31335W        W96595  22.882  16.889   4.210
31336W        W96596   2.033  35.288   0.879
31337W        W96597   4.729   2.712  14.813
31338W        W96598  44.010  19.088   0.616
31339W        W96599   8.961  12.773   0.005
31340W        W96600   9.860  21.938  14.474
31341W        W96601  11.974  27.897   2.566
31342W        W96602  10.287  36.035   0.164
31343W        W96603  25.103  28.934   1.414
31344W        W96604  43.566  33.003  12.049
31345W        W96605  41.533  27.797   0.921
31346W        W96606  13.111  11.578   4.174
31347W        W96607  30.526  19.286   3.286
31348W        W96608  29.006  31.951  10.353
31349W        W96609  44.522  15.550   2.784
31350W        W96610  29.707  39.601   3.424
31351W        W96611  18.792  15.682  10.650
31352W        W96612   3.700  18.670  14.400
31353W        W96613   7.764   1.408   1.460
31354W        W96614   8.897  15.800  12.552
31355W        W96615  23.457   1.720   4.982
31356W        W96616   4.613  12.274   1.111
31357W        W96617  12.651  12.675   3.137
31358W        W96618  44.751   3.004  11.616
31359W        W96619  29.354  18.159   1.857
31360W        W96620   5.862   4.384   3.846
31361W        W96621   3.028  43.903   1.339
31362W        W96622  33.122  26.628  11.814
31363W        W96623  17.265   6.270  13.641
31364W        W96624   6.362  19.751  14.378
31365W        W96625   2.614  42.859   4.727
31366W        W96626  18.747  41.814  11.067
31367W        W96627  38.036  26.559   4.223
31368W        W96628  43.698  15.596  11.505
31369W        W96629  21.023   5.913   0.819
31370W        W96630  25.461  15.379  11.555
31371W        W96631  31.213   9.254  13.576
31372W        W96632  12.259  44.867  11.407
31373W        W96633  41.531  39.751   2.303
31374W        W96634  35.147  26.441  10.314
31375W        W96635  39.596  15.225   2.901
31376W        W96636  26.918  22.806   1.292
31377W        W96637  29.689  12.436   3.319
31378W        W96638  43.890   7.190   4.245
31379W        W96639   7.301   2.150  13.956
31380W        W96640  24.957  13.248   3.970
31381W        W96641   2.900   9.710   1.359
31382W        W96642  21.205   1.087   2.353
31383W        W96643   9.761  43.268  13.519
31384W        W96644  38.370   9.017  13.380
31385W        W96645  17.236   6.521   4.668
31386W        W96646   9.641  32.203   3.313
31387W        W96647  15.720  38.361  13.302
31388W        W96648  10.729  22.720   4.165
31389W        W96649  25.239  34.381   1.224
31390W        W96650  39.885  10.975  12.852
31391W        W96651  17.438  11.829  11.473
31392W        W96652   7.888  31.861   3.610
31393W        W96653  12.762  15.483   2.685
31394W        W96654  18.295  16.602   4.900
31395W        W96655  43.839  40.855  13.108
31396W        W96656   5.973  41.264  14.400
31397W        W96657  37.667  29.938  14.869
31398W        W96658   4.510  34.926  13.566
31399W        W96659  22.598   5.723  13.007
31400W        W96660  36.532  21.162   3.697
31401W        W96661   6.192   1.533  12.941
31402W        W96662  10.773   2.515  14.355
31403W        W96663  32.041  11.407   2.571
31404W        W96664  41.026  21.805   2.585
31405W        W96665  32.484  33.009   1.354
31406W        W96666  12.712   0.799  10.887
31407W        W96667  10.010  12.803   5.105
31408W        W96668   1.896  34.900   1.790
31409W        W96669  42.311  39.562  12.613
31410W        W96670  32.851  23.332  12.000
31411W        W96671   9.388  35.460  12.060
31412W        W96672  13.213   4.708   4.313
31413W        W96673  29.481  44.931  13.937
31414W        W96674  28.735  42.002  12.063
31415W        W96675  33.868  40.423  12.920
31416W        W96676  42.854   3.191  14.066
31417W        W96677  41.349  27.260   1.846
31418W        W96678  16.782  14.704   4.499
31419W        W96679  38.101   1.709  10.639
31420W        W96680  37.536  27.390   1.373
31421W        W96681  33.892  43.304   4.232
31422W        W96682  14.483  44.490  12.973
31423W        W96683  17.655   4.311   0.973
31424W        W96684  16.195   7.398   1.683
31425W        W96685  34.031  17.247  10.589
31426W        W96686  43.865  39.413   3.951
31427W        W96687  20.919  13.213  12.052
31428W        W96688  33.669   7.183   3.161
31429W        W96689  26.168   7.693  11.871
31430W        W96690  16.229   9.964  14.696
31431W        W96691   8.676  41.215  13.885
31432W        W96692  12.115  17.674  14.515
31433W        W96693  26.176  32.370  14.397
31434W        W96694   1.745  44.900  13.875
31435W        W96695  21.481  19.257  13.770
31436W        W96696  34.045   1.929   2.903
31437W        W96697  39.412  37.411  13.101
31438W        W96698  39.053  29.724   0.114
31439W        W96699  21.936  44.641  14.831
31440W        W96700  11.640  28.098   0.956
31441W        W96701   1.802  33.355  12.538
31442W        W96702  12.051   3.994  10.604
31443W        W96703  31.024   8.744   3.134
31444W        W96704  15.357  23.252  14.408
31445W        W96705  38.512  41.939  12.551
31446W        W96706  42.377   6.321  13.869
31447W        W96707  39.184  32.916   4.092
31448W        W96708   1.163  37.928  12.369
31449W        W96709  16.848  37.036   3.413
31450W        W96710  43.399  38.481   4.951
31451W        W96711  14.549   0.127  14.453
31452W        W96712   8.525  12.608  10.871
31453W        W96713   6.783  20.639   2.330
31454W        W96714   8.856  23.379   4.776
31455W        W96715  41.775   7.380   4.866
31456W        W96716  22.449   0.491   4.573
31457W        W96717   0.326  16.659  14.518
31458W        W96718  20.065   8.189  13.909
31459W        W96719  43.966  36.212   0.388
31460W        W96720  29.581  28.205   3.485
31461W        W96721  26.597  23.464   4.579
31462W        W96722  37.976  30.991  11.189
31463W        W96723  19.854  32.448  11.576
31464W        W96724  22.631  30.463  12.606
31465W        W96725  28.434  23.927   3.554
31466W        W96726  41.372  26.936  13.593
31467W        W96727  27.669  29.960   0.944
31468W        W96728  17.929  16.682   4.552
31469W        W96729  29.050  31.800   4.668
31470W        W96730  22.131  44.885  11.583
31471W        W96731   3.519  11.175   0.854
31472W        W96732  20.770   2.456  13.627
31473W        W96733  37.537   9.935  14.512
31474W        W96734  36.758  10.635   2.433
31475W        W96735  23.723  33.955  12.807
31476W        W96736  24.523  22.153  12.088
31477W        W96737   1.738  21.982   4.840
31478W        W96738  10.011  28.664   2.737
31479W        W96739   8.368  37.334   0.772
31480W        W96740  14.968   1.326  12.531
31481W        W96741  12.245   1.248  13.319
31482W        W96742   2.486  34.053   4.134
31483W        W96743  40.366  11.404   0.973
31484W        W96744  19.629  38.852  13.375
31485W        W96745  43.473  22.013  13.576
31486W        W96746  33.435   4.920  10.945
31487W        W96747  15.223   9.272   0.504
31488W        W96748  17.811  23.162  14.324
31489W        W96749  20.805  14.136   1.702
31490W        W96750  14.076   7.084   2.206
31491W        W96751  30.827  15.621  11.959
31492W        W96752  12.994  31.885  12.687
31493W        W96753  14.597  15.238  11.524
31494W        W96754   9.798   9.620   2.473
31495W        W96755  28.085  42.365   2.434
31496W        W96756  18.720  11.840   0.314
31497W        W96757  38.328   1.708   2.624
31498W        W96758  40.029  12.611  14.349
31499W        W96759  39.147  42.325  13.449
31500W        W96760  33.416   7.290  10.773
31501W        W96761   1.933  20.329  11.113
31502W        W96762  20.259   4.738   0.961
31503W        W96763  25.597  32.893  11.849
31504W        W96764  41.940  16.107  14.028
31505W        W96765  36.099   5.637  12.007
31506W        W96766  38.752  25.914  14.352
31507W        W96767  17.807  17.532  12.595
31508W        W96768  20.089  37.525  12.011
31509W        W96769  34.967  41.937   0.009
31510W        W96770  37.416  28.413   1.328
31511W        W96771  20.869   3.278   2.654
31512W        W96772   2.473  33.604   1.939
31513W        W96773  12.807   8.985  11.287
31514W        W96774  17.766   3.361   3.642
31515W        W96775   9.855   6.634   9.922
31516W        W96776   3.981  21.972   1.117
31517W        W96777  35.627  43.428   0.434
31518W        W96778   2.458   6.636   0.690
31519W        W96779  39.622  32.597   4.749
31520W        W96780  42.300  41.527   5.040
31521W        W96781  17.611  40.589  13.262
31522W        W96782  18.961  38.827   3.024
31523W        W96783  14.070   5.185   2.247
31524W        W96784  13.398  12.590  14.314
31525W        W96785  40.911  29.156   3.144
31526W        W96786  10.933   4.447  14.754
31527W        W96787  10.792   5.491  12.551
31528W        W96788  21.591  42.493   2.791
31529W        W96789  19.568  35.179  14.331
31530W        W96790  11.794  32.609   1.694
31531W        W96791  22.951  30.115   0.009
31532W        W96792  28.480  31.337  14.686
31533W        W96793  14.754  37.390  14.342
31534W        W96794  42.475  17.723  13.108
31535W        W96795  11.223  12.768  10.757
31536W        W96796  13.831   0.767  11.572
31537W        W96797   4.834  12.225  14.721
31538W        W96798  11.112  35.491  14.800
31539W        W96799  34.896  18.216   4.614
31540W        W96800  12.276  22.860  12.750
31541W        W96801  27.827  22.106   0.358
31542W        W96802  38.332  25.542  10.520
31543W        W96803   0.442  29.446   0.914
31544W        W96804  13.916  38.860  14.749
31545W        W96805  29.559   8.625  10.748
31546W        W96806  40.893   1.968  12.849
31547W        W96807  15.308  28.663   0.951
31548W        W96808  24.692  15.515   4.190
31549W        W96809  32.613  32.527  10.988
31550W        W96810   4.655  44.670   2.787
31551W        W96811  14.578  28.100   3.835
31552W        W96812  36.462  20.073   3.375
31553W        W96813  38.467  11.172  12.850
31554W        W96814  24.266  40.231  10.645
31555W        W96815  28.552  34.325  11.970
31556W        W96816  36.662  25.113   3.280
31557W        W96817   3.379  32.433  13.892
31558W        W96818  19.735  12.616  13.160
31559W        W96819   0.324  37.032   3.253
31560W        W96820  22.167   1.346   4.553
31561W        W96821   1.244  17.044  14.320
31562W        W96822  30.576  13.570   2.908
31563W        W96823  28.266  16.818   2.591
31564W        W96824  10.829  21.563   2.706
31565W        W96825  36.408  29.045   2.429
31566W        W96826  32.538  44.522  14.778
31567W        W96827  32.792  19.751  12.904
31568W        W96828  41.779  16.053   1.376
31569W        W96829  20.330  41.475   0.959
31570W        W96830  17.022  17.962  12.601
31571W        W96831  43.767  26.444  10.973
31572W        W96832  12.328  27.481  12.269
31573W        W96833  27.228  32.347  11.104
31574W        W96834  21.070  28.971  13.402
31575W        W96835  30.247   3.175   3.621
31576W        W96836  20.087  39.798  13.326
31577W        W96837   1.353  31.124  11.013
31578W        W96838  38.547  14.323   0.404
31579W        W96839   1.657  35.034  12.589
31580W        W96840   8.212  39.576   1.367
31581W        W96841  16.519  23.967   4.573
31582W        W96842  32.885  29.172  11.530
31583W        W96843   6.748   4.896   0.865
31584W        W96844  42.408  14.120   3.919
31585W        W96845  25.688  42.315  12.956
31586W        W96846   8.827   4.191   2.399
31587W        W96847  16.108  12.177   4.122
31588W        W96848  20.190   9.940  12.911
31589W        W96849  15.768  27.081  10.476
31590W        W96850   2.138  13.852   4.266
31591W        W96851  14.562  30.056  11.943
31592W        W96852  21.779  36.404   1.018
31593W        W96853  44.906  35.135  10.679
31594W        W96854  22.554  22.102   1.704
31595W        W96855  14.085  40.919   3.207
31596W        W96856   4.870  32.846   1.506
31597W        W96857  30.426  13.027  14.072
31598W        W96858   7.326  42.629  14.300
31599W        W96859  13.226  16.591   0.449
31600W        W96860  20.728  41.852   3.769
31601W        W96861  35.055  11.874   2.619
31602W        W96862  44.854   6.670   2.255
31603W        W96863   0.468  36.021  13.316
31604W        W96864   9.901  27.052  14.439
31605W        W96865  21.758  20.675   1.268
31606W        W96866  30.639  29.507   3.666
31607W        W96867  43.589  30.954  14.404
31608W        W96868   7.917  25.079   3.012
31609W        W96869   2.498  10.257   3.201
31610W        W96870  25.487   5.985  14.620
31611W        W96871  39.486   7.520  12.114
31612W        W96872  17.264  24.020   4.877
31613W        W96873  38.086  44.193  11.227
31614W        W96874  16.716  40.003   1.763
31615W        W96875  37.335   0.176   9.859
31616W        W96876   2.537   1.906   0.903
31617W        W96877  10.182  36.870   1.876
31618W        W96878  11.224   2.370   3.239
31619W        W96879  27.969   5.942   1.999
31620W        W96880   2.966  40.059  14.383
31621W        W96881  19.128  34.608   0.736
31622W        W96882   7.625  43.779  14.755
31623W        W96883  23.984  39.897   3.684
31624W        W96884  40.820  10.589   0.032
31625W        W96885  18.685  27.526  10.432
31626W        W96886  24.095  44.874   4.904
31627W        W96887  35.630  37.351  13.591
31628W        W96888   0.783  13.152   1.871
31629W        W96889   5.718  34.383   4.129
31630W        W96890  14.780  23.076   3.599
31631W        W96891   2.883   0.320   0.234
31632W        W96892  35.875  41.142  11.885
31633W        W96893  20.610  29.941  14.642
31634W        W96894   4.109  32.462   1.808
31635W        W96895  26.197  29.190   0.574
31636W        W96896  41.106  20.899   3.596
31637W        W96897  22.760  39.875   0.839
31638W        W96898   8.360   4.112  12.484
31639W        W96899  31.238  28.733   2.848
31640W        W96900  10.041  11.030   3.417
31641W        W96901  15.740  27.476  13.127
31642W        W96902  15.147  25.505  14.832
31643W        W96903  10.406  11.857   0.108
31644W        W96904  28.729  20.177   9.587
31645W        W96905  29.550  35.629   4.549
31646W        W96906  26.959  23.128  11.347
31647W        W96907  21.226  43.538  10.586
31648W        W96908   7.236  27.787   4.984
31649W        W96909  32.635  38.774   0.886
31650W        W96910  17.943  17.848  10.683
31651W        W96911  28.863  32.009  11.928
31652W        W96912  12.806  38.855  12.532
31653W        W96913  44.904  32.986   0.523
31654W        W96914   3.272  21.135  12.979
31655W        W96915   9.771  13.274   0.093
31656W        W96916  11.623  24.035   3.616
31657W        W96917  39.645  42.785   4.630
31658W        W96918  37.677   6.864   0.297
31659W        W96919  38.380  17.677   4.390
31660W        W96920  39.361  11.244  12.372
31661W        W96921  27.180   7.223   4.517
31662W        W96922  42.835   6.134  14.076
31663W        W96923  20.964  28.539  10.554
31664W        W96924  36.893  38.113   4.592
31665W        W96925  17.651  14.981   4.276
31666W        W96926  41.984   2.460  11.553
31667W        W96927  28.576  38.031  12.873
31668W        W96928  44.850  33.226   2.781
31669W        W96929  14.097  24.538  14.217
31670W        W96930  11.621  37.073  14.329
31671W        W96931  19.048   1.739   3.718
31672W        W96932  28.519  38.086   0.285
31673W        W96933  32.761  14.639  12.605
31674W        W96934  11.289   1.759  13.871
31675W        W96935  21.847  38.989  11.408
31676W        W96936  25.079  11.334   0.687
31677W        W96937  21.612  42.821  13.365
31678W        W96938   7.292  27.813   3.194
31679W        W96939  17.170  43.218  10.756
31680W        W96940  33.824   2.907  12.536
31681W        W96941  24.982  16.904   1.460
31682W        W96942  36.056  38.708   0.763
31683W        W96943  37.337  43.983  11.618
31684W        W96944   9.586  27.394   4.459
31685W        W96945  14.523  44.904   1.762
31686W        W96946  26.445  23.585  10.808
31687W        W96947  22.588   0.348   0.944
31688W        W96948  38.782  10.062  13.868
31689W        W96949  37.399  25.614  14.305
31690W        W96950   4.931  33.418  14.438
31691W        W96951   7.324  26.775  13.814
31692W        W96952  19.174   5.544  11.494
31693W        W96953   2.769   1.481   2.525
31694W        W96954   3.266  22.222  14.586
31695W        W96955  28.734  34.843   0.786
31696W        W96956  20.003  13.281   4.204
31697W        W96957  23.307  29.083  12.878
31698W        W96958  33.220  30.266  12.253
31699W        W96959  39.335  35.421   1.483
31700W        W96960   7.665  30.558   1.910
31701W        W96961   5.241  18.852  13.102
31702W        W96962   6.321  23.707   2.740
31703W        W96963  44.764  36.477  14.245
31704W        W96964  12.758  24.909   3.756
31705W        W96965  19.538  20.083  12.913
31706W        W96966  37.625  20.073  14.314
31707W        W96967  16.281  26.102   4.826
31708W        W96968   9.394   0.913  14.289
31709W        W96969  40.305   5.007   2.173
31710W        W96970  13.296  13.789  11.645
31711W        W96971  32.129   0.744   2.867
31712W        W96972  42.300  14.701  12.064
31713W        W96973   4.599  14.192   1.056
31714W        W96974  29.504  18.782  11.623
31715W        W96975  24.333  39.130  10.267
31716W        W96976  31.377   8.462  14.463
31717W        W96977  23.059   6.730  11.599
31718W        W96978  42.858  27.731   0.859
31719W        W96979  22.490   7.451  11.477
31720W        W96980  38.879  19.254  12.523
31721W        W96981  18.277   1.732   3.144
31722W        W96982   1.926   8.593  12.298
31723W        W96983  29.542  12.245   4.821
31724W        W96984   9.435   3.037   4.927
31725W        W96985  20.594  33.111  14.450
31726W        W96986   9.917  22.541   4.680
31727W        W96987  35.899  21.341  10.831
31728W        W96988   3.890  23.620  14.532
31729W        W96989   2.854   3.657  11.019
31730W        W96990  17.303  41.959   0.449
31731W        W96991  21.148  23.917  10.308
31732W        W96992   5.170  32.462   4.806
31733W        W96993  11.965   2.778   4.094
31734W        W96994  11.674  15.022   0.863
31735W        W96995  12.311  12.619  13.417
31736W        W96996   3.919  38.980  13.263
31737W        W96997   3.582  12.554   0.344
31738W        W96998  32.640  14.345   4.402
31739W        W96999  44.964  43.231   4.662
31740W        W97000  31.705  40.601   0.839
31741W        W97001  37.011  15.656   4.582
31742W        W97002  34.206  24.008   2.927
31743W        W97003  26.185  29.381  10.661
31744W        W97004  21.469  21.019  11.681
31745W        W97005   7.219  30.254   1.671
31746W        W97006  38.994   0.725   0.333
31747W        W97007  32.359  34.468  12.068
31748W        W97008  22.235  22.711  12.978
31749W        W97009  43.700  22.268   4.396
31750W        W97010  11.303  43.615   1.794
31751W        W97011  37.540  41.535  11.587
31752W        W97012  39.064  32.038   4.342
31753W        W97013  12.719   5.203  14.028
31754W        W97014  27.579   5.708   4.047
31755W        W97015  19.099  13.828  10.764
31756W        W97016  30.144  11.393  13.044
31757W        W97017  36.613  23.471  12.912
31758W        W97018   0.891   7.634  14.471
31759W        W97019  42.090  18.512  11.001
31760W        W97020  42.999  39.445  10.668
31761W        W97021  16.286  16.059   4.094
31762W        W97022  20.681  15.272   3.297
31763W        W97023  23.568   9.823   4.960
31764W        W97024  33.016  30.833   1.767
31765W        W97025   7.990  11.660   4.567
31766W        W97026  33.173  33.096  13.163
31767W        W97027  23.074  11.265  13.937
31768W        W97028  20.933  38.610  13.917
31769W        W97029  23.624  33.844  11.938
31770W        W97030  11.107  42.732  12.471
31771W        W97031   4.153  21.175  10.047
31772W        W97032   8.199  24.698  13.051
31773W        W97033  41.798  30.557   4.565
31774W        W97034  29.439  38.834   0.747
31775W        W97035  42.260  21.373   3.317
31776W        W97036   5.343   4.352  14.738
31777W        W97037  22.636  19.442  10.846
31778W        W97038  31.510  19.546  12.382
31779W        W97039  28.123  19.814   4.257
31780W        W97040  21.767  33.074  13.951
31781W        W97041  18.451   0.534   1.441
31782W        W97042  32.441   9.423  12.153
31783W        W97043  20.164  11.381  13.393
31784W        W97044  34.828  18.699   1.869
31785W        W97045  32.470   8.309  13.019
31786W        W97046  43.263  21.486   4.657
31787W        W97047   2.590   9.237  10.914
31788W        W97048  36.882  41.065   2.135
31789W        W97049   3.033   9.215  14.766
31790W        W97050  44.331  10.802  10.998
31791W        W97051   1.466  38.846   4.293
31792W        W97052   4.176  42.815  14.549
31793W        W97053  32.234  17.021  12.620
31794W        W97054  10.102  25.607   0.338
31795W        W97055  18.325  30.790   0.194
31796W        W97056  42.867  36.854   1.429
31797W        W97057   8.016  16.116   0.717
31798W        W97058  17.362  12.087   3.868
31799W        W97059  26.676   6.010   0.287
31800W        W97060  20.017  16.677  13.361
31801W        W97061  13.372  10.359  14.032
31802W        W97062  39.435  27.579  12.588
31803W        W97063  28.202  34.840   0.892
31804W        W97064  29.695  41.788  12.167
31805W        W97065  17.139  32.182  12.273
31806W        W97066  31.539  24.503   2.837
31807W        W97067  21.120  19.814   4.717
31808W        W97068  25.057  29.219  12.016
31809W        W97069  19.180  16.376   4.086
31810W        W97070  21.398  35.095   4.955
31811W        W97071  34.375   1.291   0.857
31812W        W97072   4.038  12.562  12.425
31813W        W97073  15.952  23.552   3.216
31814W        W97074  35.494  36.991  13.028
31815W        W97075  17.527  25.505  11.298
31816W        W97076   3.185  18.665  14.291
31817W        W97077  26.534  35.163  10.571
31818W        W97078  15.363  42.788  13.657
31819W        W97079  16.333   4.731  12.697
31820W        W97080  38.973   0.343   0.745
31821W        W97081  10.311   0.356   0.795
31822W        W97082  11.669  27.423  14.979
31823W        W97083  37.022   3.556   1.825
31824W        W97084  37.878  31.522  10.462
31825W        W97085  44.488   1.012  14.486
31826W        W97086  11.929  23.045  13.318
31827W        W97087  40.877  15.068  12.258
31828W        W97088   0.188  40.993   1.738
31829W        W97089  18.222  17.305   0.222
31830W        W97090   9.864  39.653  12.861
31831W        W97091  33.505  18.126  13.125
31832W        W97092   1.875  42.265   3.813
31833W        W97093   6.482  25.194  11.404
31834W        W97094   9.763  11.218   3.061
31835W        W97095  11.137   1.459  14.273
31836W        W97096  22.060   1.200  14.919
31837W        W97097   1.412  39.208   0.174
31838W        W97098  41.363  17.674   4.209
31839W        W97099  13.178  23.181   3.277
31840W        W97100   8.744   0.253  14.065
31841W        W97101  18.698  26.544  10.867
31842W        W97102  33.990  37.597  13.507
31843W        W97103  19.267  15.671   0.519
31844W        W97104  38.524  24.590  10.677
31845W        W97105   9.777   3.745  10.769
31846W        W97106  43.974  18.065   0.452
31847W        W97107  18.776  18.435   4.030
31848W        W97108  19.620  29.949   2.460
31849W        W97109  24.192  40.657   5.009
31850W        W97110   9.802  35.821  13.921
31851W        W97111  20.588  11.519   1.544
31852W        W97112  10.260   4.098  11.105
31853W        W97113   8.373  16.045  12.766
31854W        W97114   2.736  21.035  13.010
31855W        W97115  18.065  39.314   3.340
31856W        W97116  21.663  30.712   1.356
31857W        W97117  26.037  23.512   4.599
31858W        W97118  36.942   5.288   2.706
31859W        W97119  29.413  31.949   2.753
31860W        W97120   2.139  20.815  14.351
31861W        W97121  19.755  16.126   1.908
31862W        W97122  37.217  24.568  12.069
31863W        W97123  12.235  42.496   3.820
31864W        W97124  35.445  36.161   2.819
31865W        W97125   9.312  37.604  10.820
31866W        W97126  40.444  38.876   1.281
31867W        W97127  35.399   3.502   2.901
31868W        W97128  25.028  23.795  13.831
31869W        W97129  18.409  44.380  13.911
31870W        W97130  40.936  40.752   0.059
31871W        W97131  27.552   7.238   2.912
31872W        W97132  27.541  43.368  14.798
31873W        W97133  26.946  32.443   2.383
31874W        W97134  23.877  28.932   1.921
31875W        W97135  28.597  36.602  10.754
31876W        W97136  14.496  35.333   0.741
31877W        W97137  41.269   4.295   1.012
31878W        W97138   9.414   6.272  13.554
31879W        W97139   1.936  35.061   2.810
31880W        W97140  44.420  43.347   5.272
31881W        W97141  11.699  30.459   2.691
31882W        W97142   8.104   3.155   4.585
31883W        W97143  11.740  13.264  10.218
31884W        W97144  30.650  25.713  12.469
31885W        W97145  32.225   4.870   3.704
31886W        W97146   9.716  13.211   4.117
31887W        W97147  22.615  21.672  10.216
31888W        W97148  21.065  18.255   1.870
31889W        W97149  16.261  30.890  13.976
31890W        W97150  17.307  34.634  12.564
31891W        W97151  40.083  21.020  12.990
31892W        W97152  30.956  15.083  14.663
31893W        W97153  41.266  20.165  11.545
31894W        W97154  14.738  18.390   3.356
31895W        W97155  30.149   4.940  13.929
31896W        W97156   3.790   5.365   3.230
31897W        W97157  28.848  18.023  11.599
31898W        W97158  16.667  36.563   0.491
31899W        W97159  37.838   3.319   2.161
31900W        W97160  17.185   7.174  13.282
31901W        W97161   4.498  12.183  10.649
31902W        W97162  36.268   7.281   1.426
31903W        W97163  40.691   1.092   3.579
31904W        W97164   8.231   9.316  11.454
31905W        W97165  20.920  14.790   0.859
31906W        W97166  19.962  23.724   4.086
31907W        W97167  37.031  24.029   2.748
31908W        W97168   9.221  31.394   1.161
31909W        W97169   4.641  10.637  12.160
31910W        W97170  38.951  12.314  13.408
31911W        W97171  29.623  40.934   4.220
31912W        W97172  17.541  27.934  10.742
31913W        W97173  12.013  27.077   1.765
31914W        W97174  18.000  12.142   2.119
31915W        W97175  43.043  28.580   4.557
31916W        W97176   6.243  32.094   0.426
31917W        W97177   9.818  38.636  12.033
31918W        W97178  21.268  32.373   2.227
31919W        W97179  20.581  26.938   1.340
31920W        W97180   4.920  32.878  14.540
31921W        W97181  13.608  19.578   2.736
31922W        W97182  25.047  11.682   2.716
31923W        W97183  36.561  43.977  11.212
31924W        W97184  41.027  27.984   2.344
31925W        W97185  31.553  21.515   0.874
31926W        W97186   2.831   0.212  11.970
31927W        W97187  40.568  16.416  13.844
31928W        W97188   1.347  34.584   3.825
31929W        W97189  30.131  32.589  11.608
31930W        W97190   6.787  20.708  13.575
31931W        W97191  35.976  34.094  11.165
31932W        W97192   3.926  40.166  14.202
31933W        W97193   9.565  11.082   2.624
31934W        W97194  13.539  36.885  12.523
31935W        W97195  28.188  27.213   0.464
31936W        W97196   8.909  29.153   3.816
31937W        W97197  27.141  44.949   1.152
31938W        W97198  30.063  36.656  11.634
31939W        W97199  28.390  31.368   2.308
31940W        W97200  25.054  28.726  12.147
31941W        W97201  33.547   1.868  11.956
31942W        W97202  10.017  29.160   0.545
31943W        W97203  44.052   9.935   0.377
31944W        W97204   1.786  34.832   3.668
31945W        W97205  21.699  40.911   2.505
31946W        W97206   9.315   8.391  11.997
31947W        W97207  15.311  40.539   3.330
31948W        W97208  19.496   0.050  11.003
31949W        W97209  23.980  26.959  10.789
31950W        W97210  27.638  24.701  12.137
31951W        W97211  25.006   2.521  11.101
31952W        W97212  15.244  43.702  11.179
31953W        W97213  22.797  21.778  12.116
31954W        W97214  44.861  40.612  10.720
31955W        W97215  19.252  15.695   2.255
31956W        W97216  11.568  27.410   1.882
31957W        W97217   0.065   6.157   2.263
31958W        W97218   9.672  25.802  10.669
31959W        W97219   1.412  43.093  10.460
31960W        W97220  14.023  42.021   1.811
31961W        W97221  16.983  13.427  14.116
31962W        W97222  21.984  14.736  14.425
31963W        W97223  33.833  42.989  14.868
31964W        W97224   4.833   1.386   3.352
31965W        W97225  39.765  35.266   1.759
31966W        W97226  40.983   2.437   3.266
31967W        W97227  19.798   8.257   3.740
31968W        W97228  23.802  27.884   0.385
31969W        W97229   7.888  17.333  12.815
31970W        W97230   9.924  14.805   0.844
31971W        W97231  39.783  40.905  14.408
31972W        W97232  23.408  34.993   0.282
31973W        W97233  22.145  12.294  14.936
31974W        W97234  16.622  20.317  14.064
31975W        W97235  35.297  43.681  12.719
31976W        W97236  38.014  20.065  11.231
31977W        W97237  43.422   6.614   4.656
31978W        W97238  38.464   2.160  11.476
31979W        W97239  16.124  24.205  14.186
31980W        W97240  18.365  24.521   3.408
31981W        W97241  18.228  25.409  11.861
31982W        W97242  18.671  11.286   0.930
31983W        W97243  33.971  19.049   0.298
31984W        W97244  16.979  28.383  14.770
31985W        W97245  20.708  18.403   1.369
31986W        W97246  42.508  15.827   4.536
31987W        W97247  43.570  10.475   3.063
31988W        W97248  15.580  29.112  12.436
31989W        W97249   3.382   1.826   1.197
31990W        W97250  31.323  12.711  11.620
31991W        W97251  34.966   6.596  11.295
31992W        W97252  24.153  42.104  11.575
31993W        W97253   2.594   7.639  12.356
31994W        W97254  44.234  35.814  13.476
31995W        W97255   8.739  38.743   0.321
31996W        W97256  31.401   0.502   3.434
31997W        W97257  27.685  10.812  11.947
31998W        W97258  44.730  28.408   1.330
31999W        W97259  40.928  25.708  13.881
32000W        W97260  17.161  31.750  12.561
32001W        W97261  31.323  25.483   0.813
32002W        W97262   7.229  36.866  13.979
32003W        W97263  42.958  12.824   0.984
32004W        W97264  40.718  25.786  12.888
32005W        W97265  40.951  39.216  10.484
32006W        W97266   0.701   1.164  12.615
32007W        W97267  26.084  24.043   3.295
32008W        W97268   0.952  39.938   4.599
32009W        W97269   4.999   2.736   4.337
32010W        W97270  20.820  23.705  14.848
32011W        W97271  40.323  26.129  13.013
32012W        W97272  17.988  16.368   0.248
32013W        W97273  29.528   0.915   0.439
32014W        W97274   2.893  12.813   1.439
32015W        W97275  34.679   5.558   4.074
32016W        W97276  24.568  39.955  13.561
32017W        W97277  43.008   0.455   3.888
32018W        W97278  12.671  29.750  11.046
32019W        W97279  36.371  18.276   3.785
32020W        W97280  10.224  21.258  14.578
32021W        W97281  43.345  15.908   2.556
32022W        W97282  42.859  36.078  11.883
32023W        W97283  21.003  26.201  12.266
32024W        W97284   1.446  33.017  10.435
32025W        W97285  15.565   9.180   3.060
32026W        W97286   9.761   0.924   3.509
32027W        W97287  31.466  24.709  12.421
32028W        W97288  12.954  27.084   0.379
32029W        W97289  40.287  29.706  11.072
32030W        W97290  39.206   0.298   5.021
32031W        W97291  34.692  32.419   4.907
32032W        W97292  36.985  23.606  11.189
32033W        W97293  44.969  22.937   0.752
32034W        W97294  14.020  10.375  13.466
32035W        W97295  36.853  42.141  13.040
32036W        W97296  43.498   9.954   4.216
32037W        W97297  16.118  33.440  14.802
32038W        W97298  32.473  39.567   1.215
32039W        W97299   9.272   1.808  13.411
32040W        W97300  36.040  34.530  12.537
32041W        W97301  42.800   0.924  13.078
32042W        W97302  27.942   2.470   3.922
32043W        W97303  23.812   1.400  12.582
32044W        W97304   1.747  12.062  11.980
32045W        W97305  26.822   5.102  10.172
32046W        W97306   0.153  24.782  13.932
32047W        W97307  12.252   9.697  12.888
32048W        W97308   1.511  24.742   2.599
32049W        W97309   6.215  19.780  13.473
32050W        W97310  10.021  10.581  10.771
32051W        W97311  27.438  33.542  14.881
32052W        W97312  21.766  15.649  10.964
32053W        W97313  33.963  43.485  14.881
32054W        W97314  43.779  13.386   1.778
32055W        W97315  26.445  28.583  10.991
32056W        W97316  10.607  42.356   4.566
32057W        W97317  25.591  13.891  12.025
32058W        W97318   5.444  10.827   3.316
32059W        W97319  40.366   8.261  12.959
32060W        W97320  10.357  39.361   2.835
32061W        W97321   3.161  17.482  13.765
32062W        W97322  28.053   1.531  12.968
32063W        W97323  21.053  28.219   4.792
32064W        W97324  13.821   7.246   3.391
32065W        W97325  31.425   0.297   2.430
32066W        W97326   9.697  43.726   4.212
32067W        W97327  33.463  32.084  11.424
32068W        W97328  25.061  38.074  12.719
32069W        W97329  42.095  35.120  13.951
32070W        W97330   2.412   6.195  12.386
32071W        W97331  11.401  23.918  13.406
32072W        W97332   7.145   3.719   1.283
32073W        W97333  43.399  37.357   2.425
32074W        W97334  39.017  14.961  14.423
32075W        W97335  23.572  42.789  14.311
32076W        W97336   6.002  40.330   0.869
32077W        W97337  16.905  14.082   1.560
32078W        W97338  37.338   7.830   3.214
32079W        W97339  18.816  22.029  14.981
32080W        W97340  20.727  19.476  12.036
32081W        W97341  10.045  30.083  11.339
32082W        W97342  36.294  39.951  10.562
32083W        W97343  43.479   6.767   1.213
32084W        W97344  37.726  36.730  12.993
32085W        W97345   5.865  27.971   2.213
32086W        W97346   4.711  35.956  12.553
32087W        W97347  31.683   9.231   0.035
32088W        W97348  25.877   5.965  12.427
32089W        W97349  11.742  25.198   3.571
32090W        W97350  25.047  13.217  14.771
32091W        W97351  10.484  22.201  10.196
32092W        W97352  15.016  34.926   2.603
32093W        W97353  15.656  19.739  12.330
32094W        W97354  32.489   5.976  12.204
32095W        W97355  18.188   9.308   1.224
32096W        W97356  25.472  29.188  14.269
32097W        W97357  40.119  26.480  13.363
32098W        W97358  15.161   0.231   0.777
32099W        W97359  36.611  29.603   0.240
32100W        W97360  29.043  27.426  10.702
32101W        W97361   6.692  37.755  13.810
32102W        W97362  12.293  21.124   3.644
32103W        W97363  38.096   8.598  13.482
32104W        W97364  39.958  44.723  13.454
32105W        W97365  28.463  15.143  12.131
32106W        W97366  10.489  20.866   0.832
32107W        W97367  42.815  25.904  12.518
32108W        W97368  37.286   4.623   0.409
32109W        W97369  12.122  24.089  10.746
32110W        W97370  31.935  30.108  14.413
32111W        W97371  29.026  12.896   0.112
32112W        W97372   2.638  30.400  11.478
32113W        W97373  13.186  12.167   0.848
32114W        W97374  38.119   9.558   0.017
32115W        W97375  26.568  28.161  14.766
32116W        W97376  27.503   4.674  13.472
32117W        W97377  13.843   1.155  14.341
32118W        W97378  40.452   6.174  14.355
32119W        W97379  41.324   5.155  13.294
32120W        W97380   6.086  38.408   2.339
32121W        W97381  35.623  40.999   2.703
32122W        W97382  25.163   5.483   1.636
32123W        W97383  14.339   1.881  14.118
32124W        W97384  23.050  41.770   1.203
32125W        W97385  13.322  36.831   3.845
32126W        W97386   4.372  41.801   2.349
32127W        W97387  38.967  21.268  11.492
32128W        W97388  14.663  16.837  12.480
32129W        W97389   2.856   4.089   4.740
32130W        W97390   4.319  34.629   0.217
32131W        W97391  10.818   9.618   4.101
32132W        W97392   8.215   0.949   4.216
32133W        W97393  35.583   5.673   4.110
32134W        W97394  38.532  21.506  12.485
32135W        W97395   4.521  43.738  13.546
32136W        W97396   6.792  30.048  13.542
32137W        W97397  27.948  35.047  13.886
32138W        W97398  33.824  13.606  12.033
32139W        W97399   2.232  36.359   2.833
32140W        W97400  12.137  13.409   0.276
32141W        W97401   8.109  33.339   2.454
32142W        W97402  16.060  12.278  13.426
32143W        W97403  29.393  14.773  14.003
32144W        W97404  14.240  17.714  14.293
32145W        W97405  27.464  32.612   3.153
32146W        W97406  22.204  43.861  13.870
32147W        W97407   1.463  44.720  14.531
32148W        W97408  36.790  22.308  11.752
32149W        W97409  13.109  20.943  14.064
32150W        W97410   5.751  34.147  14.028
32151W        W97411  16.755  21.176   0.354
32152W        W97412  20.731  42.753   1.897
32153W        W97413   6.068  20.852   0.384
32154W        W97414  28.404   0.760  13.299
32155W        W97415  43.896  37.459  10.780
32156W        W97416  32.166  20.150   3.571
32157W        W97417  19.057  32.997  13.409
32158W        W97418  34.722  37.076   3.705
32159W        W97419  19.493  19.781   2.717
32160W        W97420   4.213  43.983  12.623
32161W        W97421  14.581  12.694   0.882
32162W        W97422   5.670  14.676   4.745
32163W        W97423  23.716  16.916   4.475
32164W        W97424  44.307  30.610   4.582
32165W        W97425   8.402  39.397  10.704
32166W        W97426  27.099  17.526  14.079
32167W        W97427   3.933   0.923  10.791
32168W        W97428  17.599  26.219  13.325
32169W        W97429  25.740  23.152  13.134
32170W        W97430  22.536  41.073  12.579
32171W        W97431   6.282   5.872  10.252
32172W        W97432  26.740  38.425   1.379
32173W        W97433  37.480  35.305   1.523
32174W        W97434  43.385  36.356   1.930
32175W        W97435  34.250  43.230  11.448
32176W        W97436  16.334  44.877   0.548
32177W        W97437  29.204  19.725  13.571
32178W        W97438  14.676  22.480  13.850
32179W        W97439  21.716  40.043   1.750
32180W        W97440  25.112  12.351   3.254
32181W        W97441  36.296   4.002   4.193
32182W        W97442  10.676  43.313   3.957
32183W        W97443  25.295  13.151  14.277
32184W        W97444  37.355  28.879  12.483
32185W        W97445   7.312  35.164  14.423
32186W        W97446  25.725   1.252  14.916
32187W        W97447  27.556  42.469   2.629
32188W        W97448   9.664  11.941   3.288
32189W        W97449  35.995  28.588   4.712
32190W        W97450  17.274  29.901  14.758
32191W        W97451  29.865  20.902   1.459
32192W        W97452  35.039  40.592  11.960
32193W        W97453  29.831  27.035   4.512
32194W        W97454   6.408  17.135   3.808
32195W        W97455   3.905  35.521   3.685
32196W        W97456  32.809  14.487   0.425
32197W        W97457  12.547  26.979  14.866
32198W        W97458  19.528  21.256  11.389
32199W        W97459   7.487  34.624  11.583
32200W        W97460   2.726   6.324  11.787
32201W        W97461  37.032  31.472   2.876
32202W        W97462  29.999  41.259  11.649
32203W        W97463  16.264  21.146   2.144
32204W        W97464  21.076   3.958  14.015
32205W        W97465  34.145  33.764  11.103
32206W        W97466  27.746  23.525   0.463
32207W        W97467  23.336  22.540   0.728
32208W        W97468  42.239  19.535  11.139
32209W        W97469  41.232  11.331  10.308
32210W        W97470  35.959  43.238   0.086
32211W        W97471  25.943  16.522   1.286
32212W        W97472  41.572   0.439   0.668
32213W        W97473  44.324   0.985  10.565
32214W        W97474  10.501  41.528  12.503
32215W        W97475   8.533   3.317   0.863
32216W        W97476  39.984   7.323   4.067
32217W        W97477  20.275  33.504  14.421
32218W        W97478   0.008  37.111   4.917
32219W        W97479   8.679  22.339   2.293
32220W        W97480  31.240  41.305  13.981
32221W        W97481   0.547  17.432   1.450
32222W        W97482  33.510   3.770   4.196
32223W        W97483  15.999  16.046   0.947
32224W        W97484  12.817  19.217   4.225
32225W        W97485  24.616  21.027   4.178
32226W        W97486  23.166  25.464  13.109
32227W        W97487  19.293  13.587  13.852
32228W        W97488  32.028   8.325   3.775
32229W        W97489  16.658  17.253   2.882
32230W        W97490  28.605  26.987   5.017
32231W        W97491  36.845  20.111  10.533
32232W        W97492  32.871  42.244   2.729
32233W        W97493  24.177  15.817  14.450
32234W        W97494   3.520  12.285  14.568
32235W        W97495  41.715  38.723  10.144
32236W        W97496   6.777  11.297   4.758
32237W        W97497  39.757  34.005   4.633
32238W        W97498  30.961  32.929   2.668
32239W        W97499  33.137  24.740   3.671
32240W        W97500  31.156   4.391   0.853
32241W        W97501  32.944  10.607   0.779
32242W        W97502  19.180   2.478  14.853
32243W        W97503  36.917  38.435  14.812
32244W        W97504  15.576  24.684   0.837
32245W        W97505  15.288  36.615   0.318
32246W        W97506  36.039  20.599   2.731
32247W        W97507  17.309  20.848  12.936
32248W        W97508   5.189  43.496   2.182
32249W        W97509  19.622  36.165  13.468
32250W        W97510  24.538  19.794  11.159
32251W        W97511  11.646  21.532   3.101
32252W        W97512  33.632  15.269   4.080
32253W        W97513   4.427  21.138   1.844
32254W        W97514  17.197  16.747   2.522
32255W        W97515  41.070   2.847   9.673
32256W        W97516  11.389  15.699  11.659
32257W        W97517  33.861   3.137  13.357
32258W        W97518  20.672  18.456   3.225
32259W        W97519  15.263  24.818  11.652
32260W        W97520  14.402  21.221   5.049
32261W        W97521  21.469  20.738  13.446
32262W        W97522  22.229  22.396  10.801
32263W        W97523  15.384   4.728  10.717
32264W        W97524   8.283  29.786   1.269
32265W        W97525   3.258  44.758   1.368
32266W        W97526  15.624  39.038  12.945
32267W        W97527   2.753  27.059  13.003
32268W        W97528  30.417  26.942  12.144
32269W        W97529   9.219  23.272  12.967
32270W        W97530  27.466  17.289  12.897
32271W        W97531  37.723  37.990   2.642
32272W        W97532  38.330   2.450   1.810
32273W        W97533  31.422  15.198   4.865
32274W        W97534  28.452   7.874   4.576
32275W        W97535  23.604  32.618   4.289
32276W        W97536  12.288   2.762   4.496
32277W        W97537  31.320  24.485   1.735
32278W        W97538  43.560  42.981   4.274
32279W        W97539  19.131  44.583  10.834
32280W        W97540  42.757  19.335  13.603
32281W        W97541  22.775  29.957   2.871
32282W        W97542  14.546  24.664  14.438
32283W        W97543  19.621  37.963  13.697
32284W        W97544  36.747  20.636   0.747
32285W        W97545  26.048  13.516  14.784
32286W        W97546   3.343  24.256  14.456
32287W        W97547   0.917  14.768  13.598
32288W        W97548  39.431  30.041  13.544
32289W        W97549  43.394  21.269  10.951
32290W        W97550  43.423  23.772   1.157
32291W        W97551  18.873  21.288  14.460
32292W        W97552  11.313  17.309   3.690
32293W        W97553  31.081  40.758   2.403
32294W        W97554  21.493  30.068  10.736
32295W        W97555  44.260  36.763   0.824
32296W        W97556  23.254  18.524   0.948
32297W        W97557   2.415  16.711  10.699
32298W        W97558  31.837  13.284  12.688
32299W        W97559   0.593  38.924   0.241
32300W        W97560  25.355   0.587   1.945
32301W        W97561  35.412  21.026   0.392
32302W        W97562  19.276  32.040  13.964
32303W        W97563  34.652   5.461  14.488
32304W        W97564  11.567  40.420  12.836
32305W        W97565  32.232  33.166  13.390
32306W        W97566   8.685  13.633   1.689
32307W        W97567   5.454  35.513  12.214
32308W        W97568  19.079   9.185   4.301
32309W        W97569   9.900  18.145  13.544
32310W        W97570   0.980  35.137  12.033
32311W        W97571   6.987  40.519  11.051
32312W        W97572  28.325  44.304  11.970
32313W        W97573  24.573   9.183   3.335
32314W        W97574  29.484  40.625   1.828
32315W        W97575  14.043  34.880   1.939
32316W        W97576  36.841  11.453  13.869
32317W        W97577  14.103  26.539   1.362
32318W        W97578  37.916  13.355   2.424
32319W        W97579  10.130  37.350   2.217
32320W        W97580  12.233  10.419  14.080
32321W        W97581   3.511   9.087   0.417
32322W        W97582  21.061  28.230   3.805
32323W        W97583  42.545  13.189   1.960
32324W        W97584  37.390  21.202  12.647
32325W        W97585  18.594   7.300   2.439
32326W        W97586   5.817   9.140  14.541
32327W        W97587  40.852   4.201   2.726
32328W        W97588  22.161   9.782   1.773
32329W        W97589  25.588   5.711  12.091
32330W        W97590  25.442  29.013  13.607
32331W        W97591   4.411  43.246  10.870
32332W        W97592  12.131   4.362  12.666
32333W        W97593  13.814  23.821  13.827
32334W        W97594  19.726  15.889   2.751
32335W        W97595  13.954  32.336  14.881
32336W        W97596   9.818   2.489   0.786
32337W        W97597   2.292  11.810   0.899
32338W        W97598  42.295  25.936   0.811
32339W        W97599  40.428  11.907   0.982
32340W        W97600  29.445  15.258   3.676
32341W        W97601   4.935  41.224   2.836
32342W        W97602  24.271  22.720  12.003
32343W        W97603  24.496  34.691  14.491
32344W        W97604   7.365  36.316   0.836
32345W        W97605  13.281   6.047   5.086
32346W        W97606  24.112  38.404   4.923
32347W        W97607   2.349  16.869   1.668
32348W        W97608  18.681   2.253   4.818
32349W        W97609  30.015   9.704  11.468
32350W        W97610   4.448  17.645  13.123
32351W        W97611  12.734  31.703  12.139
32352W        W97612  10.017  12.071   1.069
32353W        W97613  22.828  15.807  12.472
32354W        W97614  19.203  33.900  11.645
32355W        W97615  20.497  23.667   0.322
32356W        W97616   3.395  33.839  12.102
32357W        W97617  14.176   9.913   3.930
32358W        W97618  24.610  33.519  12.008
32359W        W97619  14.720  33.684   2.647
32360W        W97620  13.306  41.116   0.427
32361W        W97621  30.582   4.304  13.125
32362W        W97622  31.799  12.349  13.480
32363W        W97623  17.669   8.538   1.399
32364W        W97624  39.080  21.130   3.727
32365W        W97625  25.774   4.262  10.742
32366W        W97626  14.115  35.273  12.416
32367W        W97627  44.219  34.734   2.312
32368W        W97628  34.245   5.226   4.060
32369W        W97629  36.060  21.765  12.503
32370W        W97630  18.039  20.458  12.151
32371W        W97631  10.674  37.547  13.983
32372W        W97632  23.158  41.023  10.661
32373W        W97633  30.976  16.173  13.111
32374W        W97634  27.705  33.622   0.347
32375W        W97635  42.859   4.844  10.703
32376W        W97636  27.202  42.056   1.194
32377W        W97637  28.177  12.362  11.762
32378W        W97638  18.572  28.130   4.636
32379W        W97639  36.901  44.755   5.691
32380W        W97640   7.710  18.585   1.106
32381W        W97641  42.029  39.729   1.660
32382W        W97642  31.239  44.409  14.561
32383W        W97643  26.364   5.885   2.901
32384W        W97644  13.675   0.829  13.978
32385W        W97645  35.802   0.941   1.302
32386W        W97646  17.639  24.271  10.320
32387W        W97647  27.791  18.920   3.337
32388W        W97648  27.133  25.176  13.653
32389W        W97649  10.430  29.520  12.553
32390W        W97650  17.986  24.535  11.411
32391W        W97651  35.961  21.134   0.997
32392W        W97652  31.803   6.378   0.392
32393W        W97653  25.476  36.090  12.972
32394W        W97654  44.894  18.156  11.589
32395W        W97655  10.424  22.264   3.694
32396W        W97656  30.630  37.633   3.278
32397W        W97657  38.382  34.465  12.949
32398W        W97658  19.388  37.149   2.925
32399W        W97659  25.342  22.033  10.995
32400W        W97660  14.163   0.799  13.466
32401W        W97661   3.920  22.194   1.599
32402W        W97662  18.802   6.676   0.437
32403W        W97663   1.435   5.237  12.160
32404W        W97664  20.992  19.727  11.169
32405W        W97665  44.384  24.008   4.177
32406W        W97666  39.054  35.796   0.362
32407W        W97667   3.919  37.415   3.232
32408W        W97668  33.138  14.648  13.014
32409W        W97669  37.308  34.494  11.126
32410W        W97670  24.430  21.836   3.690
32411W        W97671  14.533  34.190   0.228
32412W        W97672  22.535  33.008  12.929
32413W        W97673  34.625  40.093   3.146
32414W        W97674   6.510  29.090  11.642
32415W        W97675  35.619  20.540  14.512
32416W        W97676  30.847  15.813  11.042
32417W        W97677   5.443  19.598   2.249
32418W        W97678  16.064  17.504   4.284
32419W        W97679  17.019  32.495  13.345
32420W        W97680  31.360  29.651   2.391
32421W        W97681  38.245  41.265  12.049
32422W        W97682  33.161   0.235   4.214
32423W        W97683  27.133  42.370   2.929
32424W        W97684   9.785  26.364  12.647
32425W        W97685  43.330  23.774   3.963
32426W        W97686  15.174  23.312   0.481
32427W        W97687  12.863   0.640   4.411
32428W        W97688  21.453  35.010  13.216
32429W        W97689   0.722  36.769  12.908
32430W        W97690  34.895  44.840   4.342
32431W        W97691  32.474  28.077  14.456
32432W        W97692  30.177  42.762  13.464
32433W        W97693  38.842  27.480   1.172
32434W        W97694   9.853  29.828   2.806
32435W        W97695  33.674  33.750   1.143
32436W        W97696  42.419  21.677   0.900
32437W        W97697   5.070  35.859  12.935
32438W        W97698  27.761  28.192  12.927
32439W        W97699  10.443  20.024   0.290
32440W        W97700  21.199   5.652  11.606
32441W        W97701   2.342  11.722  10.162
32442W        W97702  32.521  14.630  10.730
32443W        W97703   2.011   6.689   0.445
32444W        W97704  34.995  12.372  11.109
32445W        W97705  19.651  39.332  11.185
32446W        W97706  38.835   1.864   5.695
32447W        W97707   4.057  42.991  13.962
32448W        W97708   5.486   7.673   2.705
32449W        W97709  27.419   5.466  14.072
32450W        W97710  39.356  27.526  13.974
32451W        W97711  25.122  32.202   2.383
32452W        W97712  19.198  11.030  11.727
32453W        W97713  25.160  27.209  12.917
32454W        W97714  44.629  18.774   2.389
32455W        W97715  19.339  14.153  11.666
32456W        W97716  38.936  16.533   3.638
32457W        W97717  36.959  38.850  13.138
32458W        W97718   8.383  31.649   3.086
32459W        W97719  37.862  27.950  13.761
32460W        W97720  21.536   0.842  12.995
32461W        W97721  15.786  40.288   2.164
32462W        W97722  19.967  24.192   2.210
32463W        W97723  14.581  10.175  12.829
32464W        W97724  39.060   7.625   3.662
32465W        W97725   0.728  32.511   1.316
32466W        W97726  25.965  30.430   1.789
32467W        W97727  19.205  14.429  14.913
32468W        W97728  42.046  42.377  14.593
32469W        W97729   1.201  38.405  12.172
32470W        W97730  22.879  28.091  13.004
32471W        W97731  27.694  40.836   4.503
32472W        W97732   0.685  42.071  14.932
32473W        W97733  40.493  42.234   0.041
32474W        W97734   4.008  33.602   0.931
32475W        W97735  20.762  17.624  13.851
32476W        W97736  27.927   4.808   4.595
32477W        W97737  12.767   1.283  12.040
32478W        W97738   9.666  26.163   0.958
32479W        W97739   9.990  42.917  11.612
32480W        W97740  18.588   3.312   2.250
32481W        W97741  16.825   6.767   1.748
32482W        W97742  42.948  23.533  12.713
32483W        W97743   2.803  29.982   1.082
32484W        W97744   2.027  18.632  10.839
32485W        W97745   1.710  10.021   4.463
32486W        W97746  17.278   0.259   2.662
32487W        W97747  31.944   4.164  11.899
32488W        W97748  32.132  18.248  12.453
32489W        W97749  18.881  22.289   0.445
32490W        W97750  37.935  22.964   2.220
32491W        W97751  29.127  16.189   3.863
32492W        W97752  23.630   0.749  13.437
32493W        W97753   7.747  44.064   4.168
32494W        W97754   9.653  14.149  14.968
32495W        W97755  40.997  22.047   3.353
32496W        W97756  16.899  17.713   4.167
32497W        W97757  19.568  27.447  14.017
32498W        W97758  19.377  14.165   1.790
32499W        W97759  15.193   6.677   3.567
32500W        W97760  21.053  38.393   3.581
32501W        W97761  39.774  30.426  10.948
32502W        W97762   2.198  44.753  11.556
32503W        W97763  11.305  32.582  12.884
32504W        W97764  20.744  20.728  14.557
32505W        W97765  16.308  24.195  12.450
32506W        W97766  34.091   4.361   4.522
32507W        W97767  19.624   3.706  11.963
32508W        W97768  31.457   4.972  11.979
32509W        W97769  20.188   8.987   1.118
32510W        W97770  38.056   1.705  14.415
32511W        W97771   5.144  20.626   4.423
32512W        W97772  32.100  41.404   1.481
32513W        W97773  44.649   5.299  11.667
32514W        W97774  42.946  26.617   4.838
32515W        W97775  29.659  41.418   3.338
32516W        W97776  44.125  23.114   2.297
32517W        W97777   2.796  34.203   4.523
32518W        W97778  24.523   2.212  14.952
32519W        W97779  33.184  27.853   1.105
32520W        W97780  11.462  16.776  10.166
32521W        W97781  36.320  17.169  12.390
32522W        W97782  32.566  38.817   4.126
32523W        W97783  20.677  15.098  11.029
32524W        W97784  23.906  35.935  13.735
32525W        W97785   0.483  43.368   4.856
32526W        W97786  24.162  16.705   0.958
32527W        W97787   5.401  36.135  13.331
32528W        W97788  32.060  41.542  13.068
32529W        W97789  24.896  32.200  12.925
32530W        W97790  13.254  21.348   3.569
32531W        W97791   3.288  16.344  14.399
32532W        W97792  19.727  41.949   5.020
32533W        W97793   9.955  25.125   5.285
32534W        W97794  26.664  23.978  10.554
32535W        W97795   2.447  22.629   4.240
32536W        W97796  26.553  35.770  14.720
32537W        W97797  18.322  42.812  12.501
32538W        W97798  31.781  33.223   4.104
32539W        W97799   8.165  22.757   2.754
32540W        W97800  35.158  27.962   1.661
32541W        W97801   5.345  26.805  11.113
32542W        W97802  44.701   7.476  14.833
32543W        W97803  38.386  39.042   3.128
32544W        W97804  40.867   2.205   3.703
32545W        W97805  11.338   9.737   0.840
32546W        W97806  37.633  42.738   1.875
32547W        W97807  40.720  40.615   0.759
32548W        W97808  15.058   4.889  11.088
32549W        W97809   5.174   8.572  13.063
32550W        W97810  39.472  28.204  12.193
32551W        W97811  42.421   4.021  11.256
32552W        W97812   8.446  23.999   0.018
32553W        W97813  43.787  22.573  12.808
32554W        W97814  42.872   4.741   0.101
32555W        W97815  23.795  24.238   2.121
32556W        W97816  15.165  11.603   3.302
32557W        W97817  14.386  11.044   9.745
32558W        W97818  34.745  16.276   2.105
32559W        W97819  17.292   8.947  11.633
32560W        W97820  36.301  28.077  12.788
32561W        W97821  16.097  41.097  10.574
32562W        W97822   3.974   1.423   0.751
32563W        W97823   1.075  15.178  13.299
32564W        W97824  22.660  26.659   5.197
32565W        W97825  21.964  24.378  11.634
32566W        W97826  10.384  28.599  12.406
32567W        W97827  32.251  16.286  14.568
32568W        W97828  41.442  26.632   3.692
32569W        W97829  12.272  15.543  14.801
32570W        W97830  15.632  17.770  14.912
32571W        W97831  31.140  35.010   4.461
32572W        W97832  32.627  26.919   3.567
32573W        W97833   9.366  28.319  14.812
32574W        W97834  16.307  11.246  13.364
32575W        W97835  41.519  13.824   0.026
32576W        W97836  32.957  18.660  10.772
32577W        W97837  27.662  41.486   1.169
32578W        W97838   0.279  11.826  13.606
32579W        W97839  30.607   9.106   4.031
32580W        W97840  42.600  36.524   4.791
32581W        W97841  35.894   5.710   2.301
32582W        W97842  20.548  19.032   3.216
32583W        W97843  17.514   1.821  13.019
32584W        W97844  22.266   2.684  12.407
32585W        W97845  38.037  18.399   3.182
32586W        W97846  25.424  10.139   2.595
32587W        W97847  23.018  19.566  11.179
32588W        W97848  19.745  17.902   3.307
32589W        W97849  12.352  30.214   4.114
32590W        W97850  35.104  14.689  14.514
32591W        W97851  31.552  39.802   2.142
32592W        W97852  25.676   8.087   1.862
32593W        W97853  26.601  26.009   4.369
32594W        W97854  23.014  36.843   1.735
32595W        W97855  36.008   8.340  11.411
32596W        W97856  26.458  11.830   2.213
32597W        W97857  42.976  34.452   4.433
32598W        W97858  29.027  38.451  13.856
32599W        W97859  35.550   4.171  14.234
32600W        W97860  35.045  11.807  12.292
32601W        W97861  28.576  29.565   1.348
32602W        W97862  43.327  38.507   2.963
32603W        W97863  23.006   6.429   3.190
32604W        W97864   7.422  17.632   3.784
32605W        W97865  10.824  34.919  11.226
32606W        W97866   4.567  10.114   4.941
32607W        W97867  38.953  17.772   3.151
32608W        W97868  12.798  36.809  14.859
32609W        W97869  16.319  34.378  12.623
32610W        W97870  12.386  38.722  11.074
32611W        W97871  11.725  24.298   4.863
32612W        W97872  22.807  32.161   4.682
32613W        W97873  14.620  42.703   0.365
32614W        W97874  37.671  28.088  14.833
32615W        W97875  42.494  43.832   4.094
32616W        W97876  17.324  13.827   1.319
32617W        W97877   3.132   3.895  11.366
32618W        W97878  41.398   7.730  13.508
32619W        W97879  12.131  32.138   0.689
32620W        W97880  31.456  24.716  11.567
32621W        W97881  26.996  39.883  11.376
32622W        W97882  34.629  29.325   2.405
32623W        W97883  28.618   8.057  10.853
32624W        W97884   6.110  42.534   0.678
32625W        W97885  36.401  23.553   4.136
32626W        W97886  40.458  33.517  14.272
32627W        W97887  22.818  43.444  14.917
32628W        W97888  14.221  22.538  10.707
32629W        W97889  32.535  32.856  13.113
32630W        W97890   5.205  41.409  12.091
32631W        W97891  39.337  35.127  14.779
32632W        W97892   5.862  11.193  14.495
32633W        W97893  16.560  14.684   2.660
32634W        W97894   0.415  34.619   0.982
32635W        W97895  23.269  30.929  12.040
32636W        W97896   0.829  27.332  13.209
32637W        W97897  41.045  33.349  12.107
32638W        W97898  12.022  44.795  12.758
32639W        W97899  40.614  40.235   1.811
32640W        W97900  21.718  40.490   3.696
32641W        W97901   8.689  27.868   1.950
32642W        W97902   9.603   2.701   4.023
32643W        W97903   2.210  21.081   0.403
32644W        W97904   3.623  28.250   2.733
32645W        W97905   3.921  26.990  11.102
32646W        W97906  21.902  31.513   4.263
32647W        W97907  34.933  36.390  11.054
32648W        W97908  10.256  15.687   3.646
32649W        W97909  33.630   6.295   3.104
32650W        W97910  24.595  34.415   0.529
32651W        W97911  44.156  13.244   3.548
32652W        W97912  14.782  20.085  14.099
32653W        W97913  16.502  35.301  12.630
32654W        W97914  18.398   0.483  12.690
32655W        W97915  13.044  30.369  11.916
32656W        W97916  38.024   6.721   3.704
32657W        W97917  27.695  11.776  11.156
32658W        W97918  25.505  36.461  14.517
32659W        W97919  35.381  14.813   2.827
32660W        W97920   1.205   5.744   2.885
32661W        W97921   3.282  13.775  12.095
32662W        W97922  31.666  22.023   0.903
32663W        W97923  14.408  30.544  12.155
32664W        W97924  30.822  28.636  11.615
32665W        W97925  32.290  43.871  11.228
32666W        W97926  15.647  37.354  14.208
32667W        W97927   4.403  26.922   1.195
32668W        W97928   5.612  12.050  13.007
32669W        W97929  41.064  42.804  10.770
32670W        W97930  22.055  12.398   3.770
32671W        W97931   8.707  21.509  10.687
32672W        W97932  10.938  16.049   2.359
32673W        W97933  25.271  16.130   3.724
32674W        W97934  20.609  30.786  11.167
32675W        W97935  28.333  17.438   1.341
32676W        W97936   5.435  31.492  10.561
32677W        W97937  12.304   8.906   1.370
32678W        W97938  44.646   5.611  10.695
32679W        W97939  26.675  22.588  12.061
32680W        W97940  26.577  31.612   2.267
32681W        W97941  34.512   1.922  13.043
32682W        W97942  10.801   2.513  10.589
32683W        W97943  41.724  37.156  11.050
32684W        W97944   2.871  17.132   3.369
32685W        W97945  25.545  14.112   5.210
32686W        W97946  13.359  16.353  15.000
32687W        W97947  18.015  15.306  10.706
32688W        W97948  20.896  42.023  11.964
32689W        W97949  42.911  13.713  14.431
32690W        W97950   0.389  35.445  13.991
32691W        W97951  35.914  12.584   3.792
32692W        W97952  19.024  23.195   0.857
32693W        W97953   6.424  30.804  12.473
32694W        W97954  41.008   4.700  10.544
32695W        W97955  17.004  39.171   2.288
32696W        W97956  42.709  10.200   4.405
32697W        W97957  14.526  32.941  14.295
32698W        W97958  17.862  40.903  12.411
32699W        W97959  41.576   4.752  12.071
32700W        W97960   2.950  33.518  13.383
32701W        W97961  20.027   4.394   3.312
32702W        W97962  13.621  40.047  12.591
32703W        W97963  39.306   2.001   3.080
32704W        W97964   5.446  36.395  10.787
32705W        W97965   3.897   0.893   1.721
32706W        W97966  17.029  32.229  13.831
32707W        W97967  37.531  32.424   1.268
32708W        W97968  40.925  39.123   4.408
32709W        W97969   1.378  28.626   2.034
32710W        W97970  14.790  17.332   2.317
32711W        W97971  35.115  39.335   0.903
32712W        W97972  44.261  27.220  14.018
32713W        W97973  17.015  40.998   4.518
32714W        W97974   9.413  37.580  14.915
32715W        W97975  18.388  16.376  14.897
32716W        W97976  25.677  18.751   2.648
32717W        W97977  39.340  22.797   3.871
32718W        W97978  24.124  40.623   3.153
32719W        W97979  36.293  24.989   4.900
32720W        W97980  35.234  17.992   0.218
32721W        W97981  21.539  20.580  10.123
32722W        W97982  13.728  39.759  10.566
32723W        W97983  13.225  13.248   2.833
32724W        W97984  40.330  32.528  14.081
32725W        W97985  31.055  33.082  12.872
32726W        W97986  38.766  31.571   4.438
32727W        W97987   6.616  11.223  12.399
32728W        W97988  38.602   5.135  11.579
32729W        W97989  22.584   7.677   2.878
32730W        W97990  28.900  37.981   2.737
32731W        W97991  17.539  11.327  13.974
32732W        W97992   6.382  28.199  11.540
32733W        W97993   6.783  21.088  11.258
32734W        W97994  11.330  32.370   1.897
32735W        W97995  33.524   1.749   5.117
32736W        W97996  43.531  10.217   5.363
32737W        W97997  23.073  35.225   2.728
32738W        W97998  25.554  15.640  14.492
32739W        W97999   1.900  27.750   3.874
32740W        W98000  23.765   6.005   4.095
32741W        W98001  33.293   4.268   3.170
32742W        W98002  34.426  25.570  14.961
32743W        W98003  20.835  11.761  12.790
32744W        W98004   6.195  11.474  12.177
32745W        W98005   0.709  10.717   0.206
32746W        W98006  29.047  39.440  14.189
32747W        W98007  13.033  33.496   2.895
32748W        W98008  40.451  14.596   4.678
32749W        W98009  16.219  25.041   3.617
32750W        W98010   6.295   1.747   2.822
32751W        W98011  37.787  22.039   1.744
32752W        W98012   7.668  24.000  14.382
32753W        W98013  14.791  42.762   1.286
32754W        W98014  43.760  32.221   2.366
32755W        W98015  40.813  39.366   0.411
32756W        W98016  17.025  37.521  14.415
32757W        W98017  30.492  21.960   3.557
32758W        W98018   1.265  25.594  12.612
32759W        W98019  13.330   5.342  14.804
32760W        W98020  23.452  22.045   1.491
32761W        W98021  27.673  38.442  14.099
32762W        W98022  24.333  35.085   3.089
32763W        W98023   6.498  11.727   4.663
32764W        W98024  24.016  31.535  13.198
32765W        W98025  35.601  27.601  14.233
32766W        W98026   5.543  26.950   5.531
32767W        W98027  13.326  35.848  13.484
32768W        W98028  34.506  34.484  14.537
32769W        W98029   5.784  10.984   1.976
32770W        W98030  17.568  26.363   1.209
32771W        W98031  41.707  21.049   2.930
32772W        W98032  40.798  11.270  13.304
32773W        W98033  37.604  42.805  12.928
32774W        W98034  35.376  16.216  14.275
32775W        W98035  14.744   7.158   3.257
32776W        W98036  32.636  18.275  12.179
32777W        W98037  25.197  31.104  12.069
32778W        W98038  38.564  18.961   2.595
32779W        W98039  20.110  36.913  13.198
32780W        W98040  44.932  35.982  10.634
32781W        W98041  29.087  14.261   0.932
32782W        W98042   0.413  41.614  14.765
32783W        W98043  40.156  26.336  10.228
32784W        W98044   7.680  18.433  12.116
32785W        W98045   8.154  28.479  11.205
32786W        W98046  44.654  44.834  10.348
32787W        W98047  34.971  35.374   2.631
32788W        W98048  11.742   7.277   2.250
32789W        W98049  11.907  26.086   5.348
32790W        W98050  31.485  24.532   0.002
32791W        W98051  29.362  25.816  11.579
32792W        W98052  14.551   4.838  11.126
32793W        W98053  12.821  32.394  14.380
32794W        W98054  27.355   1.995  14.784
32795W        W98055   1.137  43.355  11.539
32796W        W98056   8.185   1.932  13.822
32797W        W98057  16.787   3.605  12.897
32798W        W98058   9.955  42.845   0.726
32799W        W98059   1.150  18.751   4.109
32800W        W98060  11.150  32.308   4.955
32801W        W98061  33.614  35.351  11.629
32802W        W98062  25.571  10.162  13.464
32803W        W98063  28.428  39.893   3.067
32804W        W98064  31.879  40.077  10.799
32805W        W98065   8.704  19.815   2.669
32806W        W98066  31.992  30.389  14.888
32807W        W98067  41.078  21.305   2.710
32808W        W98068  12.738  25.849  11.690
32809W        W98069  43.997   4.629   0.165
32810W        W98070   5.721  37.507  11.606
32811W        W98071  26.760   5.760  14.414
32812W        W98072  10.239  35.934  14.162
32813W        W98073   1.784  34.495  13.496
32814W        W98074   5.681  12.129  13.908
32815W        W98075  28.035  29.956   3.165
32816W        W98076  42.375   3.805   1.675
32817W        W98077  43.800  33.996  12.026
32818W        W98078   0.488  31.928  14.036
32819W        W98079  12.306  40.261   3.662
32820W        W98080  44.816  21.515  14.724
32821W        W98081  18.209  37.637   2.002
32822W        W98082   1.889  36.274   3.282
32823W        W98083  32.430   2.867  12.128
32824W        W98084   5.295  41.344  12.607
32825W        W98085  42.388  18.753  13.054
32826W        W98086  29.264  33.053   3.695
32827W        W98087  19.160  41.745  14.917
32828W        W98088  18.589  17.969   4.099
32829W        W98089  37.010  31.599  12.016
32830W        W98090  15.029  13.167   2.536
32831W        W98091   7.675  34.775   2.364
32832W        W98092  15.579   8.418   3.051
32833W        W98093  12.724  43.691  14.122
32834W        W98094  25.060  34.049   4.404
32835W        W98095  34.511  16.135   1.212
32836W        W98096  37.080  12.778   4.147
32837W        W98097  15.238  13.934   1.387
32838W        W98098  19.753  17.233  14.793
32839W        W98099  12.134  37.383   4.208
32840W        W98100  33.869  14.420   3.943
32841W        W98101   8.120  43.399   4.744
32842W        W98102  36.472  34.354  12.322
32843W        W98103  32.558  35.485  12.886
32844W        W98104  18.288  42.467  12.127
32845W        W98105   6.416  29.734   3.223
32846W        W98106  26.663  12.711  14.018
32847W        W98107  18.606  30.100  14.165
32848W        W98108  12.022  36.818  10.729
32849W        W98109  40.336  15.775   3.246
32850W        W98110  11.265  24.466  11.688
32851W        W98111  27.229  22.114  12.338
32852W        W98112  21.096  28.814  10.103
32853W        W98113   3.570  11.238   1.960
32854W        W98114  35.795  35.405  13.679
32855W        W98115   8.680  37.446  11.349
32856W        W98116  36.283  28.702  11.090
32857W        W98117   7.709   7.956  12.492
32858W        W98118   7.900   6.860  12.497
32859W        W98119  13.186  26.961   0.843
32860W        W98120  22.115  29.516   0.745
32861W        W98121  42.776  22.730   3.307
32862W        W98122  41.095  27.166   4.131
32863W        W98123   9.295  27.585  11.246
32864W        W98124  26.462  26.024   3.842
32865W        W98125  12.401  22.038  14.513
32866W        W98126  20.279  25.290   0.699
32867W        W98127   4.589  15.694   4.236
32868W        W98128  25.598  41.775  12.072
32869W        W98129  17.020  41.952   0.910
32870W        W98130  24.568  38.490   1.006
32871W        W98131   0.216  16.300  13.962
32872W        W98132   1.105  38.278   1.296
32873W        W98133  35.314  14.619  12.066
32874W        W98134  23.017  31.423  12.970
32875W        W98135   8.839  16.026  13.015
32876W        W98136  30.386  24.693   2.674
32877W        W98137  25.514  13.147   1.915
32878W        W98138  23.140  17.445  10.330
32879W        W98139  12.085  43.837  14.570
32880W        W98140   8.742  42.317  11.704
32881W        W98141  17.115  31.603  14.711
32882W        W98142  11.379  31.058   0.993
32883W        W98143  38.053  38.936   3.523
32884W        W98144  44.702  32.387  14.749
32885W        W98145  17.564  28.705  13.093
32886W        W98146  39.386   9.079   5.058
32887W        W98147  42.548  31.927  10.829
32888W        W98148   9.434   3.402   4.133
32889W        W98149  36.964  44.205   1.857
32890W        W98150  43.460  40.743  13.458
32891W        W98151  24.704  20.260  13.406
32892W        W98152  33.836  39.277  10.598
32893W        W98153  15.136  11.557   0.258
32894W        W98154  29.870  43.920  10.739
32895W        W98155  27.463  37.094   3.809
32896W        W98156   3.516  25.641   2.891
32897W        W98157   5.015  17.645  11.870
32898W        W98158  34.883   3.880   0.413
32899W        W98159  22.210  15.655  11.681
32900W        W98160  23.253  44.362  13.547
32901W        W98161  39.247   7.062   4.022
32902W        W98162  19.830  10.782  12.907
32903W        W98163  22.468  22.518  12.565
32904W        W98164  11.120  40.579   4.317
32905W        W98165   8.090  18.106   2.678
32906W        W98166  29.073  41.865   2.913
32907W        W98167  43.263  26.428   0.876
32908W        W98168   5.850   3.133   5.095
32909W        W98169   2.705  16.649   2.719
32910W        W98170  37.375  17.221  13.065
32911W        W98171  11.569  19.259   2.445
32912W        W98172   8.310   5.205  13.221
32913W        W98173   8.014  25.541   0.317
32914W        W98174  32.972   2.420  12.890
32915W        W98175   7.745  33.460   1.476
32916W        W98176  38.754  22.021  14.517
32917W        W98177  20.883  29.155  11.563
32918W        W98178  31.956   1.369  10.873
32919W        W98179  28.905  42.120  12.529
32920W        W98180  32.498  36.332   2.187
32921W        W98181   1.741  33.922   2.706
32922W        W98182  36.652  11.332  11.999
32923W        W98183  39.233  29.449  11.125
32924W        W98184  18.182  26.105  14.974
32925W        W98185  43.992  39.969  12.699
32926W        W98186  42.409  24.192  10.569
32927W        W98187  32.615  44.233   2.129
32928W        W98188  34.346  38.419  12.884
32929W        W98189  23.155  38.376   1.201
32930W        W98190  27.123   3.401   1.384
32931W        W98191   8.474  39.970   2.695
32932W        W98192   1.616  11.904  14.313
32933W        W98193  30.340  16.222   3.250
32934W        W98194   3.456   7.186  11.600
32935W        W98195   8.784  43.929   1.243
32936W        W98196  24.650  16.354   3.675
32937W        W98197   7.298  26.481   0.881
32938W        W98198  32.148   9.271   1.848
32939W        W98199  21.170  35.874  12.081
32940W        W98200  26.923  29.648   0.581
32941W        W98201  33.105  21.980  12.663
32942W        W98202  28.019  20.819   1.431
32943W        W98203  41.921  24.353   3.688
32944W        W98204  26.437  41.391   2.342
32945W        W98205  29.549   8.349   5.099
32946W        W98206   9.188   0.411  14.978
32947W        W98207  30.964  29.115  14.429
32948W        W98208  34.104  36.580   1.300
32949W        W98209   8.233  29.513   3.712
32950W        W98210  37.395   6.578   4.257
32951W        W98211  37.815  36.497   4.113
32952W        W98212   8.896   5.352  13.392
32953W        W98213  17.809  36.891  12.113
32954W        W98214  41.998  10.187   2.634
32955W        W98215  10.587   5.445   4.937
32956W        W98216  33.550  36.915  13.071
32957W        W98217   8.240  33.007  10.712
32958W        W98218  21.250   1.528   2.117
32959W        W98219  37.300  11.282   0.457
32960W        W98220   6.160  30.926   3.089
32961W        W98221  16.377  32.396  11.556
32962W        W98222  32.829  18.522  13.024
32963W        W98223  32.034  26.660   4.580
32964W        W98224  44.982  21.797   2.750
32965W        W98225  11.364  16.321   1.834
32966W        W98226  20.781  15.717   3.023
32967W        W98227   5.666   6.132  11.546
32968W        W98228  34.041  19.893   4.098
32969W        W98229   3.858  23.461   4.273
32970W        W98230  25.548   2.806   5.132
32971W        W98231  16.062  27.061  13.128
32972W        W98232  12.157  14.740   0.396
32973W        W98233  12.218  29.449  13.317
32974W        W98234  41.869  19.610   2.621
32975W        W98235   2.472  21.514   0.638
32976W        W98236   5.452  32.636   1.332
32977W        W98237   9.462   1.656   4.051
32978W        W98238  13.065  19.535   1.851
32979W        W98239  21.280  35.334   0.847
32980W        W98240  22.781  43.592   3.664
32981W        W98241  44.294  40.430   2.203
32982W        W98242  20.232  41.295   2.687
32983W        W98243   0.314  27.529  13.330
32984W        W98244  37.923  16.763   3.124
32985W        W98245   7.890   4.442   4.609
32986W        W98246   5.902  10.117  12.971
32987W        W98247   4.620  36.127   4.119
32988W        W98248   6.729  30.410  12.413
32989W        W98249  39.679  29.215  11.837
32990W        W98250  28.741  40.468   3.837
32991W        W98251   1.395   9.980  13.125
32992W        W98252  30.428  44.761  14.359
32993W        W98253  23.909  40.463   1.366
32994W        W98254  24.331  40.344   0.437
32995W        W98255  17.023   5.174   0.292
32996W        W98256  16.628  40.648  12.853
32997W        W98257   7.604  28.175   1.847
32998W        W98258  33.049  20.169   4.164
32999W        W98259  30.104  44.109   0.360
33000W        W98260  26.114  37.364   3.545
33001W        W98261  18.280  30.857  12.153
33002W        W98262  25.578  16.740  11.558
33003W        W98263  39.079  17.665  14.759
33004W        W98264   1.124  41.715   2.306
33005W        W98265  35.303   2.795   4.684
33006W        W98266   9.706  40.442   1.444
33007W        W98267  26.716   2.388   4.469
33008W        W98268  21.990  10.767  10.971
33009W        W98269  22.469  14.640  12.255
33010W        W98270  34.554  17.672   1.989
33011W        W98271  31.874  32.200  13.483
33012W        W98272  34.915   2.975   3.180
33013W        W98273  40.243  25.481   1.727
33014W        W98274  33.516  18.972  14.145
33015W        W98275  30.545  33.476  13.296
33016W        W98276  17.801  11.678   2.227
33017W        W98277   0.424  20.185  13.963
33018W        W98278  15.125  33.572  11.177
33019W        W98279  16.016  12.730  12.608
33020W        W98280  21.076  20.963   1.821
33021W        W98281  20.607  39.855  13.448
33022W        W98282  29.315   6.401  13.599
33023W        W98283  39.787  20.836  11.616
33024W        W98284  35.397  18.258  12.119
33025W        W98285  38.437  25.626  14.063
33026W        W98286   9.216   5.404  13.908
33027W        W98287   9.301   2.075   5.059
33028W        W98288  36.531  19.688  14.985
33029W        W98289  43.555  13.595   0.753
33030W        W98290   2.692  19.978  11.413
33031W        W98291  25.657  32.851  14.764
33032W        W98292  44.734  14.513   0.072
33033W        W98293  22.636  20.293   4.160
33034W        W98294   5.849  12.370  14.436
33035W        W98295  35.614  23.497  13.054
33036W        W98296  43.909  25.146  13.438
33037W        W98297   5.580  14.315  11.593
33038W        W98298   5.217   0.290  12.610
33039W        W98299  20.517  11.135  10.631
33040W        W98300  34.012  31.447  11.372
33041W        W98301   2.075  27.133  14.467
33042W        W98302   4.650  18.281   0.475
33043W        W98303  31.400   1.928  11.564
33044W        W98304  44.273  29.364   2.286
33045W        W98305  44.225  24.315  12.969
33046W        W98306  30.085  11.654  11.985
33047W        W98307  11.921  17.447   0.360
33048W        W98308  12.415  25.073   1.316
33049W        W98309  39.656  23.553   3.164
33050W        W98310  20.661  24.545   3.122
33051W        W98311  38.416  17.064   3.815
33052W        W98312  17.829   3.088  14.824
33053W        W98313  20.422  18.242  13.149
33054W        W98314  42.896  31.927  14.377
33055W        W98315  12.068  36.884   4.105
33056W        W98316  11.825  30.822   4.545
33057W        W98317  40.305  20.967  14.405
33058W        W98318   2.758  11.590  10.483
33059W        W98319  26.044  31.634  12.879
33060W        W98320  34.432  41.438   4.545
33061W        W98321  21.953  22.451  12.601
33062W        W98322  39.927  43.778  12.574
33063W        W98323  33.903  16.580  13.865
33064W        W98324  28.136   8.238  13.843
33065W        W98325  38.950  31.230  14.733
33066W        W98326  10.692  44.782  10.760
33067W        W98327   3.148  43.797   4.897
33068W        W98328  16.642  36.348   3.798
33069W        W98329   3.706  12.082   4.417
33070W        W98330   1.295   6.584  10.433
33071W        W98331  42.299  15.274  14.809
33072W        W98332  15.225   5.164   3.843
33073W        W98333  10.107   5.221   1.367
33074W        W98334  34.298  12.590   3.283
33075W        W98335  17.083  35.855  12.200
33076W        W98336  11.302   3.520   2.011
33077W        W98337  26.118  37.398  11.099
33078W        W98338  24.891  21.110   2.160
33079W        W98339   1.526  37.561  14.082
33080W        W98340  10.021  29.258  13.884
33081W        W98341   5.495  17.299  11.601
33082W        W98342  12.856  14.930  14.863
33083W        W98343  18.134  44.651  10.640
33084W        W98344  12.317  35.170  14.513
33085W        W98345  24.083  12.490  10.196
33086W        W98346  31.113   7.215   0.654
33087W        W98347  21.197   9.010   0.743
33088W        W98348   2.630  38.411   2.467
33089W        W98349  14.660  30.480   5.143
33090W        W98350  10.946  40.916  10.726
33091W        W98351  33.099  38.817  12.477
33092W        W98352  20.134  20.476  11.353
33093W        W98353   4.703  39.701  10.457
33094W        W98354  39.057  11.657   3.145
33095W        W98355  19.521  36.133  11.162
33096W        W98356  22.713  10.337  11.971
33097W        W98357   3.767  26.186  12.190
33098W        W98358  23.610   6.490   0.414
33099W        W98359  29.174   9.447  14.840
33100W        W98360  44.831  23.168   2.782
33101W        W98361   6.021  37.904   2.325
33102W        W98362   7.980  12.058  14.385
33103W        W98363  22.451  19.828   3.443
33104W        W98364   9.676  26.010  13.868
33105W        W98365  38.104  18.732  11.629
33106W        W98366  14.654  37.587   1.879
33107W        W98367   3.016   2.565   2.283
33108W        W98368  36.893   9.776  12.571
33109W        W98369  15.090  28.198   3.732
33110W        W98370  38.270  31.591  11.642
33111W        W98371  26.119   6.354  12.646
33112W        W98372  33.188  11.511   0.840
33113W        W98373   3.183  22.299  12.548
33114W        W98374  44.296  32.035  11.651
33115W        W98375  40.580  19.218   1.021
33116W        W98376  34.122  34.413  12.566
33117W        W98377   0.009  18.117   1.937
33118W        W98378   5.814  43.038   4.473
33119W        W98379  37.462  39.790  13.611
33120W        W98380  42.520  43.458   1.037
33121W        W98381  24.750  10.908  12.608
33122W        W98382  20.712   2.371   2.720
33123W        W98383  20.543  19.332   9.875
33124W        W98384  31.877  37.076   4.270
33125W        W98385  21.568  10.855  10.651
33126W        W98386   7.425   2.178   3.474
33127W        W98387   5.461  41.314   2.794
33128W        W98388  17.766   0.248   3.916
33129W        W98389   0.620  27.059   0.631
33130W        W98390   4.109  25.103  14.971
33131W        W98391   8.132  30.707  12.351
33132W        W98392  28.195  31.156  11.185
33133W        W98393  43.553  24.583  13.429
33134W        W98394  13.213  44.574  14.043
33135W        W98395   3.218  35.469   3.206
33136W        W98396  20.777  29.978   0.693
33137W        W98397  27.997   7.321   2.157
33138W        W98398  39.578  43.988  12.882
33139W        W98399   8.736   6.906   4.156
33140W        W98400  16.809  30.669  12.385
33141W        W98401  26.952  29.907  14.247
33142W        W98402   1.354  18.659  13.405
33143W        W98403  20.691  38.426   9.786
33144W        W98404  26.028  39.343   3.807
33145W        W98405   9.618   5.480   4.462
33146W        W98406  14.525  30.584  14.931
33147W        W98407  14.732  31.909  10.363
33148W        W98408  40.554  26.607   3.443
33149W        W98409   8.973  22.523   4.571
33150W        W98410   6.870   8.175  13.863
33151W        W98411   8.973   9.794  14.362
33152W        W98412  43.476  14.861   2.870
33153W        W98413  10.175  42.511  10.861
33154W        W98414  18.086   0.254   3.080
33155W        W98415  14.584  27.434   4.718
33156W        W98416  33.541  18.970   4.619
33157W        W98417  15.854  41.929   0.240
33158W        W98418  30.373  24.055   2.360
33159W        W98419  11.686  24.960  12.040
33160W        W98420  38.727   9.240   4.549
33161W        W98421  11.651   4.232   3.835
33162W        W98422   2.885  15.304  13.175
33163W        W98423   7.960  35.608  14.863
33164W        W98424  11.686  31.602  12.965
33165W        W98425  36.801  24.127   4.744
33166W        W98426   3.952  10.419  13.060
33167W        W98427   8.457  31.952  13.124
33168W        W98428  35.088   8.733   2.392
33169W        W98429  38.055  24.341  10.763
33170W        W98430  35.976   9.737   1.913
33171W        W98431  10.889  16.221  11.152
33172W        W98432  24.378   3.947   0.414
33173W        W98433  18.048   5.788   0.436
33174W        W98434  26.932   4.795   4.287
33175W        W98435  23.549  32.148   5.345
33176W        W98436  20.714  44.512   2.813
33177W        W98437  35.924  13.251   4.335
33178W        W98438   6.357  16.276  14.970
33179W        W98439   4.777   1.109   5.034
33180W        W98440   2.739  16.929   0.324
33181W        W98441  32.269  22.112  11.188
33182W        W98442   5.150   4.778   4.831
33183W        W98443  44.225  33.529  13.595
33184W        W98444  40.565  24.272  12.928
33185W        W98445  40.293  23.425  10.996
33186W        W98446  16.280  22.041  11.055
33187W        W98447  26.668  21.279  14.896
33188W        W98448  40.808  16.705  14.503
33189W        W98449  24.522  24.507  11.469
33190W        W98450  35.182   8.638   3.330
33191W        W98451   2.367  23.417   0.339
33192W        W98452  43.022  17.768   3.414
33193W        W98453   1.985  31.395   1.837
33194W        W98454  27.296  37.401  13.957
33195W        W98455  10.148  42.285  14.961
33196W        W98456  14.689   6.156  12.093
33197W        W98457   8.676  26.991  14.492
33198W        W98458  20.391  28.695   4.155
33199W        W98459  24.042  35.021   3.539
33200W        W98460   7.955  40.744   2.055
33201W        W98461  31.570  41.764  13.062
33202W        W98462   9.051  34.938  13.216
33203W        W98463  42.775  33.139  13.440
33204W        W98464   0.391  30.091   4.336
33205W        W98465   8.189   5.883   1.487
33206W        W98466  14.724  17.282   4.746
33207W        W98467   1.253   2.337  11.972
33208W        W98468  10.092  10.616   0.443
33209W        W98469  14.330   7.375   3.682
33210W        W98470   0.290  37.162  10.573
33211W        W98471   9.624  14.402   3.669
33212W        W98472   7.966   9.857   9.841
33213W        W98473   9.316  18.490  11.758
33214W        W98474  26.532  44.956  11.125
33215W        W98475  28.987   6.052  14.947
33216W        W98476  28.480  33.493  14.925
33217W        W98477  44.921  42.937  13.340
33218W        W98478  42.727  25.775  13.911
33219W        W98479   9.965  42.075   0.410
33220W        W98480  37.179   4.226   3.688
33221W        W98481  43.746  43.536  11.101
33222W        W98482  37.962  21.653   2.073
33223W        W98483  32.897  34.546  14.400
33224W        W98484  31.860  21.191   2.082
33225W        W98485   6.376  24.033   1.447
33226W        W98486  39.267  12.629   1.869
33227W        W98487  31.504  22.263   1.322
33228W        W98488   6.731  39.545  10.944
33229W        W98489  16.100  10.131  14.175
33230W        W98490  30.070  28.419   2.090
33231W        W98491  39.997  24.197   3.315
33232W        W98492  44.582  44.347  14.482
33233W        W98493   4.648  22.677  11.120
33234W        W98494  28.178  25.502  12.917
33235W        W98495  40.176  32.096  10.582
33236W        W98496  28.929  40.564  12.505
33237W        W98497  20.454  12.742  10.706
33238W        W98498  43.729  32.124   3.803
33239W        W98499   4.740  13.288   2.279
33240W        W98500  32.169   7.921   2.458
33241W        W98501  31.339   6.295  11.264
33242W        W98502  34.703  24.514  11.120
33243W        W98503  13.882  10.719   0.982
33244W        W98504  32.520  41.870  12.985
33245W        W98505  27.032  13.780  12.006
33246W        W98506   4.948  30.185  12.965
33247W        W98507  26.627  10.286  10.710
33248W        W98508  15.933  24.679   3.878
33249W        W98509   6.902   0.387  10.723
33250W        W98510  23.045   5.245  11.461
33251W        W98511  40.320   7.737   1.433
33252W        W98512  22.248  31.595  11.631
33253W        W98513  15.196   9.401  11.099
33254W        W98514  17.971  33.566  12.433
33255W        W98515   1.466   8.744  10.615
33256W        W98516  10.399  32.445  10.989
33257W        W98517   0.523   7.763   3.401
33258W        W98518  21.763  10.050  11.803
33259W        W98519  10.065   5.333   2.281
33260W        W98520  29.595  19.303  13.032
33261W        W98521   5.917  36.894   4.718
33262W        W98522  30.740  18.727   1.780
33263W        W98523  10.791  11.079  14.064
33264W        W98524  28.184  12.860  11.101
33265W        W98525  39.362  37.955  12.359
33266W        W98526   4.648   7.153  12.056
33267W        W98527  35.151  10.850   1.891
33268W        W98528  20.265   5.246  14.879
33269W        W98529   8.467  10.251   9.675
33270W        W98530  14.836  37.932  14.690
33271W        W98531  10.197   2.689   4.585
33272W        W98532  40.849  16.781  12.511
33273W        W98533  16.722   3.177   4.546
33274W        W98534  22.951  43.183  12.133
33275W        W98535  43.261  28.448  11.176
33276W        W98536  25.456   5.406  12.922
33277W        W98537  40.827  38.612   4.158
33278W        W98538  29.109  41.874   3.832
33279W        W98539  12.838  26.752   4.106
33280W        W98540  26.242  21.220   5.021
33281W        W98541   8.064  39.832  14.060
33282W        W98542   3.096  38.108   3.561
33283W        W98543  22.113  19.166   2.414
33284W        W98544   5.918  32.422  14.342
33285W        W98545  32.013   8.927   3.864
33286W        W98546  30.925  23.601  13.524
33287W        W98547  27.618   1.936   4.736
33288W        W98548  33.722   4.354  14.785
33289W        W98549  13.715  13.936  13.354
33290W        W98550  23.909  38.216  11.166
33291W        W98551  36.131  27.510   4.777
33292W        W98552   6.573   9.086  12.791
33293W        W98553  31.044   0.417  14.589
33294W        W98554  23.113   0.920   2.196
33295W        W98555  31.745  31.936  10.687
33296W        W98556   1.794  33.719  14.402
33297W        W98557   4.013   1.714  11.174
33298W        W98558  17.281  42.112  13.216
33299W        W98559  31.731  41.965   4.798
33300W        W98560  37.319   9.163   2.046
33301W        W98561   0.341  22.484   1.657
33302W        W98562  20.228  20.297  13.961
33303W        W98563  14.073  43.449  12.478
33304W        W98564  12.120  12.229   2.707
33305W        W98565  19.731  29.073   3.105
33306W        W98566  34.058   1.953  14.452
33307W        W98567  41.443   7.552  12.041
33308W        W98568  18.002  20.326  13.528
33309W        W98569   1.489  29.193   4.165
33310W        W98570  10.739   2.893   1.199
33311W        W98571  39.266  19.474  12.780
33312W        W98572  34.811  15.214  12.900
33313W        W98573  13.518   8.839   0.732
33314W        W98574  24.548  44.184  12.292
33315W        W98575  33.678   9.753   3.280
33316W        W98576  35.583  27.881   2.479
33317W        W98577  32.107  33.696   2.529
33318W        W98578   4.113  27.056  10.638
33319W        W98579  24.163  11.893  12.077
33320W        W98580  25.126  41.928  11.928
33321W        W98581  11.293  22.569  11.607
33322W        W98582  35.064  44.940  13.577
33323W        W98583  19.298   8.393   3.742
33324W        W98584   6.222   8.359   2.847
33325W        W98585  23.170  12.105   0.117
33326W        W98586  39.947   5.715   3.150
33327W        W98587   0.173  20.179   3.141
33328W        W98588  44.319  22.620  10.642
33329W        W98589  22.721  15.156  13.166
33330W        W98590  27.225  24.274   2.861
33331W        W98591   4.684  11.350   3.224
33332W        W98592  23.967   9.922  13.962
33333W        W98593  20.501   0.739  12.932
33334W        W98594  25.454  14.035   3.494
33335W        W98595  11.655  18.109  12.883
33336W        W98596  12.543  42.926   5.052
33337W        W98597  36.567  12.173   4.882
33338W        W98598   2.035   2.933   0.882
33339W        W98599   0.950  16.715   2.882
33340W        W98600   6.542  14.143  11.183
33341W        W98601  42.676   7.565   2.455
33342W        W98602   4.883  12.944  12.294
33343W        W98603  43.700  32.051   4.664
33344W        W98604  16.164   5.001   0.453
33345W        W98605  31.476  27.939  14.065
33346W        W98606   6.940  34.043  13.382
33347W        W98607  22.075  13.694  13.563
33348W        W98608  12.751  23.510  12.026
33349W        W98609  34.453   4.655  12.924
33350W        W98610  31.967  11.123   2.153
33351W        W98611  18.304   6.241  11.461
33352W        W98612  17.701  31.192  12.941
33353W        W98613  27.033  25.929   4.645
33354W        W98614   2.864  17.700  13.353
33355W        W98615  19.648  10.156  14.547
33356W        W98616  15.898   9.530   2.903
33357W        W98617  31.063  19.948  11.143
33358W        W98618   6.256  26.580  12.943
33359W        W98619  25.522  40.235  11.192
33360W        W98620  11.418  23.821   4.611
33361W        W98621  42.752  39.663   0.886
33362W        W98622  31.467  25.266  13.796
33363W        W98623  39.267  29.949   4.909
33364W        W98624  40.541  23.366  11.870
33365W        W98625  32.960  11.587   1.743
33366W        W98626  22.335  30.539  10.816
33367W        W98627  19.727   8.724  12.976
33368W        W98628  40.557  30.762   0.367
33369W        W98629   5.563  34.595   1.273
33370W        W98630  11.367  36.771  13.543
33371W        W98631  17.070  16.315  14.571
33372W        W98632   6.167  12.434  14.870
33373W        W98633   6.410  14.399   3.232
33374W        W98634   9.745   3.665   3.790
33375W        W98635  32.454  35.404   1.816
33376W        W98636  37.499  12.050   0.024
33377W        W98637  29.488   9.644  11.489
33378W        W98638  18.342   4.522   2.553
33379W        W98639  19.185  15.595   4.574
33380W        W98640  23.614  33.481  14.102
33381W        W98641   4.641  17.592  10.921
33382W        W98642   9.794  16.168  12.403
33383W        W98643  43.130  20.238   0.546
33384W        W98644  17.899  24.315   3.663
33385W        W98645  42.511   4.303  14.466
33386W        W98646  18.197  44.464  11.923
33387W        W98647  37.297  41.969  10.756
33388W        W98648  21.061  43.760  13.961
33389W        W98649  38.511  29.662   4.696
33390W        W98650  33.442   1.344  12.042
33391W        W98651  12.417  36.856   3.749
33392W        W98652  21.547   5.253   3.515
33393W        W98653  32.006   5.515  13.585
33394W        W98654  25.611  35.924  12.459
33395W        W98655  26.672   1.363  12.155
33396W        W98656  28.970  44.785  13.280
33397W        W98657  22.752  23.393  11.539
33398W        W98658   4.272  22.927   1.285
33399W        W98659  29.754  23.157  13.089
33400W        W98660  32.508  15.689  14.517
33401W        W98661  27.114  15.903   2.355
33402W        W98662  43.960  32.539   3.330
33403W        W98663  20.150  10.491   0.256
33404W        W98664  39.475  22.525  11.764
33405W        W98665  25.112  25.979   0.090
33406W        W98666  43.376  33.512   3.666
33407W        W98667  21.746  20.162  14.089
33408W        W98668  22.188   7.316  14.020
33409W        W98669  28.695  12.056  13.365
33410W        W98670  11.182  27.670  10.598
33411W        W98671  28.952  28.352  14.940
33412W        W98672  14.318  12.249  12.871
33413W        W98673  36.147  37.393  13.550
33414W        W98674  26.244  25.056  14.723
33415W        W98675   6.499  35.184   4.572
33416W        W98676  24.671  27.954   2.265
33417W        W98677   0.580  43.392   2.284
33418W        W98678  16.070  33.986  12.873
33419W        W98679   8.865  27.738  13.828
33420W        W98680  21.728   8.426   3.605
33421W        W98681  19.652  17.713  14.627
33422W        W98682  19.052  43.819   2.179
33423W        W98683   2.228  24.554   3.254
33424W        W98684  30.419  29.127   4.519
33425W        W98685  38.972  32.386  12.289
33426W        W98686  13.199   8.524   4.359
33427W        W98687  39.461  41.953   1.315
33428W        W98688  26.112  17.745  12.890
33429W        W98689  29.741   2.527  14.778
33430W        W98690   4.416  43.901   2.362
33431W        W98691   9.519  25.104  11.481
33432W        W98692  10.762  41.265  14.416
33433W        W98693  30.962   6.115   0.315
33434W        W98694  36.419  35.979  13.463
33435W        W98695  41.481  16.343   2.891
33436W        W98696   3.510  26.724  14.309
33437W        W98697  39.423  18.178   2.565
33438W        W98698  10.155  21.718   2.209
33439W        W98699  10.823   3.962  11.944
33440W        W98700  20.747  38.204  12.998
33441W        W98701   6.630  36.971   0.856
33442W        W98702  25.683  38.805   0.045
33443W        W98703  14.564   3.785  13.357
33444W        W98704  39.942  20.828   4.011
33445W        W98705  25.804  29.891  13.347
33446W        W98706  31.887  40.328   4.409
33447W        W98707  23.290   1.466  12.600
33448W        W98708  29.731   3.283  10.933
33449W        W98709  33.917  44.467   1.855
33450W        W98710  18.982   6.783  11.361
33451W        W98711  32.831  32.913   4.175
33452W        W98712  42.498  32.355  11.440
33453W        W98713  44.522   9.881   1.015
33454W        W98714   4.854   4.186  13.199
33455W        W98715   8.274  42.054   0.625
33456W        W98716  13.319  41.931   3.313
33457W        W98717   5.376   1.353   0.892
33458W        W98718  27.663  20.536  11.136
33459W        W98719  23.237  10.347  11.977
33460W        W98720  26.157  43.074  12.928
33461W        W98721  31.360  19.103   4.562
33462W        W98722  10.069   0.312   1.233
33463W        W98723  24.581  29.461  12.117
33464W        W98724  17.074  24.105  11.912
33465W        W98725  25.276  39.475  10.610
33466W        W98726   5.324  33.315  11.621
33467W        W98727  26.514  18.984  11.625
33468W        W98728  19.871  13.119   5.053
33469W        W98729  17.078  33.074   4.811
33470W        W98730  44.977  30.912   2.416
33471W        W98731   8.986   2.483  12.944
33472W        W98732  17.244  10.825  11.606
33473W        W98733  20.079   1.198  11.529
33474W        W98734  21.183  28.438   0.531
33475W        W98735  20.727  19.179   0.030
33476W        W98736   0.418   7.853  11.400
33477W        W98737  33.609  18.272  12.126
33478W        W98738  15.689  14.744  11.156
33479W        W98739  31.991  33.682  11.339
33480W        W98740   5.966  42.992  10.352
33481W        W98741   6.232  20.314   2.873
33482W        W98742  23.095   0.125  13.881
33483W        W98743  26.970  41.825  12.111
33484W        W98744  24.840  15.381  10.236
33485W        W98745  33.919   2.485  10.960
33486W        W98746  40.100  16.527   3.736
33487W        W98747   9.818  25.540  14.893
33488W        W98748  20.014  20.762  13.790
33489W        W98749   7.001  13.116  12.871
33490W        W98750  41.096  36.665  14.905
33491W        W98751  30.683  35.590  14.463
33492W        W98752  21.824   8.099  11.105
33493W        W98753  19.786  16.609  10.667
33494W        W98754  22.502  39.822  12.805
33495W        W98755  22.632  10.893  14.818
33496W        W98756   4.480  35.092   1.908
33497W        W98757   5.609  24.463   2.878
33498W        W98758  20.221  18.708  11.895
33499W        W98759  30.657  22.622  12.608
33500W        W98760  31.033  35.567  13.434
33501W        W98761  43.824  35.837   0.038
33502W        W98762  29.128  18.296   0.690
33503W        W98763  14.716  21.947  12.897
33504W        W98764  13.197  21.461  14.053
33505W        W98765   5.411  23.503   2.674
33506W        W98766  39.887   3.749  12.578
33507W        W98767  17.998  30.348  12.132
33508W        W98768  32.355  25.547  14.498
33509W        W98769  14.177   2.331  14.287
33510W        W98770  41.586   6.647  14.310
33511W        W98771  14.245  28.956  10.263
33512W        W98772  29.574   4.087  12.877
33513W        W98773  21.230  19.692   3.508
33514W        W98774   0.054  29.889  12.125
33515W        W98775   4.121   8.447   4.726
33516W        W98776  18.360   5.317  14.494
33517W        W98777  41.067  29.288   2.674
33518W        W98778  39.870  24.389  13.870
33519W        W98779   3.707  32.575  10.818
33520W        W98780  15.817  24.125   1.850
33521W        W98781  33.931  17.589  11.543
33522W        W98782  36.069  18.024  11.039
33523W        W98783  24.007  21.645   1.276
33524W        W98784  21.607   9.407   2.319
33525W        W98785  32.283  32.395   4.185
33526W        W98786   1.501  27.915  12.867
33527W        W98787  30.412  20.991   2.091
33528W        W98788  41.044  35.125  13.802
33529W        W98789   6.456  18.366  12.508
33530W        W98790  42.317  25.237  10.998
33531W        W98791   6.769  31.251   1.442
33532W        W98792  42.258  19.001  14.422
33533W        W98793  24.780  33.612   0.304
33534W        W98794  13.796  19.321  12.996
33535W        W98795  19.259  13.299   0.649
33536W        W98796  41.927  23.496  10.363
33537W        W98797   9.789  13.347   3.061
33538W        W98798  28.094  32.843  12.602
33539W        W98799  11.653  44.160   3.541
33540W        W98800   5.449  14.751   3.780
33541W        W98801  28.124  23.429   1.769
33542W        W98802   8.759  31.185   1.167
33543W        W98803  43.151  30.492   4.977
33544W        W98804  36.101   2.359  12.463
33545W        W98805  41.980   6.287  10.286
33546W        W98806   6.785   5.655  14.755
33547W        W98807   2.318  14.197   0.222
33548W        W98808   8.760  21.320   4.967
33549W        W98809  16.575  23.571   1.801
33550W        W98810   2.298  16.672  14.391
33551W        W98811   0.502   3.881  12.896
33552W        W98812  12.187  25.679   0.381
33553W        W98813   7.669  14.090   0.611
33554W        W98814  12.616   7.898   1.371
33555W        W98815  16.375  16.874  11.547
33556W        W98816   6.076   5.983   0.036
33557W        W98817  24.544  36.391  12.651
33558W        W98818  10.658  25.148  14.927
33559W        W98819  12.283  26.484   9.988
33560W        W98820  13.128   1.534  12.916
33561W        W98821  44.864   0.398   1.147
33562W        W98822  34.784  20.474   4.246
33563W        W98823   2.756  40.284   2.519
33564W        W98824   9.946  25.435   9.682
33565W        W98825   6.870   7.272   2.934
33566W        W98826   7.102  19.548  12.026
33567W        W98827   2.458  39.861   4.474
33568W        W98828   7.193  32.535  11.617
33569W        W98829  43.853  41.320   0.856
33570W        W98830  13.838   0.243  14.569
33571W        W98831  12.753   2.180   4.184
33572W        W98832  10.158  28.688   0.421
33573W        W98833  29.108  41.699   1.174
33574W        W98834  24.949   7.836  13.735
33575W        W98835  15.557   4.460   1.289
33576W        W98836   3.459   1.939  12.034
33577W        W98837  26.442  26.628  13.871
33578W        W98838   5.666  34.648   2.599
33579W        W98839  41.981  26.883  12.441
33580W        W98840  17.420   7.730   5.018
33581W        W98841  38.996  27.612  10.728
33582W        W98842   0.988  40.395   3.444
33583W        W98843  13.722  36.834   0.754
33584W        W98844  38.101   0.036   1.405
33585W        W98845  40.365  26.027  14.954
33586W        W98846  31.798  29.449   2.623
33587W        W98847  31.514   6.275   2.570
33588W        W98848  17.882  16.639  12.537
33589W        W98849  16.400  39.421  13.093
33590W        W98850  42.031  39.226   2.912
33591W        W98851  19.320  20.936   9.886
33592W        W98852   3.345  43.232  13.621
33593W        W98853  31.868   1.901   3.313
33594W        W98854  14.355  12.179  11.911
33595W        W98855  20.142  28.692   3.200
33596W        W98856  31.460  12.278  11.032
33597W        W98857  19.627  26.950   2.339
33598W        W98858  29.147  26.968   2.417
33599W        W98859  44.517  31.649  13.999
33600W        W98860   8.510  30.865  13.841
33601W        W98861   7.907  42.909   1.045
33602W        W98862  35.936  36.275   4.955
33603W        W98863  13.901  40.765   3.677
33604W        W98864  23.464  29.375   2.793
33605W        W98865  26.894   8.061   4.525
33606W        W98866  14.428  44.196   4.121
33607W        W98867  19.322  13.342   3.679
33608W        W98868   3.194  20.858  14.368
33609W        W98869  29.076   0.419   1.905
33610W        W98870  28.966  25.767  10.333
33611W        W98871  13.153  17.615  14.381
33612W        W98872  14.605  22.745  14.302
33613W        W98873  31.612  28.807  12.068
33614W        W98874  29.003  37.206  10.602
33615W        W98875  41.532  40.465  12.320
33616W        W98876  38.039  14.772  13.542
33617W        W98877   5.373   3.753  11.647
33618W        W98878  35.203  17.133  10.527
33619W        W98879  32.422  32.932  12.543
33620W        W98880  19.739  29.307  13.035
33621W        W98881   2.852   5.974   3.273
33622W        W98882  39.615  32.988   3.278
33623W        W98883  41.646  23.682   0.358
33624W        W98884  19.144  11.826   1.327
33625W        W98885  15.578   8.612   4.938
33626W        W98886  32.169   1.715  12.822
33627W        W98887  15.458  14.733  11.622
33628W        W98888   8.986   1.939  11.257
33629W        W98889  10.329  43.463   1.221
33630W        W98890   1.914  25.957  10.339
33631W        W98891  27.728  43.718  12.656
33632W        W98892  34.622  35.044   1.844
33633W        W98893  41.770  21.962  14.007
33634W        W98894  28.575  10.684   4.567
33635W        W98895  18.095  44.246   0.368
33636W        W98896  17.316   3.802  13.439
33637W        W98897   8.791   3.987   2.892
33638W        W98898  17.682  43.524   0.971
33639W        W98899   2.376  43.254  13.779
33640W        W98900  11.015   1.558   1.282
33641W        W98901  29.672  35.693  12.154
33642W        W98902  11.558  23.175  12.361
33643W        W98903  36.550  31.978  13.481
33644W        W98904  15.697   7.254  14.788
33645W        W98905  27.341  40.314   3.287
33646W        W98906   0.905   3.210  12.246
33647W        W98907  25.569  26.749   3.194
33648W        W98908  13.718  26.149  14.844
33649W        W98909  12.372  21.987  10.578
33650W        W98910  16.305   9.926  13.252
33651W        W98911  30.269   7.153  14.832
33652W        W98912  27.604  43.509   4.093
33653W        W98913  30.634  21.524   4.114
33654W        W98914   8.819  14.593   5.255
33655W        W98915  16.585  12.198  13.456
33656W        W98916  34.911  13.659   1.702
33657W        W98917   0.027  27.105   2.439
33658W        W98918   2.799   7.860  14.850
33659W        W98919  16.272  29.043   4.131
33660W        W98920  16.269   3.198   2.173
33661W        W98921  38.362  27.659   1.920
33662W        W98922  23.779   3.604   1.311
33663W        W98923   8.149  27.759   1.819
33664W        W98924  15.766   5.780  13.314
33665W        W98925  10.191  31.589   0.250
33666W        W98926   8.367  25.134   4.309
33667W        W98927  20.628   5.709   1.637
33668W        W98928  35.101  13.728   3.694
33669W        W98929  11.426  19.651  11.953
33670W        W98930  30.183  34.436   3.192
33671W        W98931  11.283  23.305   4.619
33672W        W98932  23.059   2.054   3.308
33673W        W98933   2.738  12.326   3.588
33674W        W98934  44.968  17.679  11.399
33675W        W98935  27.653  27.679  13.499
33676W        W98936  11.375  42.574  10.858
33677W        W98937  44.190   8.654  11.101
33678W        W98938   1.384  38.886  14.259
33679W        W98939   4.100  12.212  10.980
33680W        W98940   5.999  33.920  13.592
33681W        W98941  39.521  44.888  12.475
33682W        W98942   4.388  39.575   3.315
33683W        W98943  16.400   6.814   2.022
33684W        W98944  36.448  10.944   2.706
33685W        W98945  18.194   0.543   4.576
33686W        W98946  31.697  28.818   4.101
33687W        W98947   1.414  42.324   1.739
33688W        W98948   3.722  18.181   1.230
33689W        W98949  42.348   5.470  11.131
33690W        W98950   0.234  24.525  14.458
33691W        W98951  23.783  10.713  13.630
33692W        W98952  32.369  34.788  14.515
33693W        W98953  40.828  38.303  10.974
33694W        W98954   7.228  12.246   2.383
33695W        W98955  32.287   7.825  14.664
33696W        W98956  24.587  16.912   4.549
33697W        W98957  40.806  26.914   3.791
33698W        W98958  13.642  17.211  13.961
33699W        W98959  38.854  25.225   2.819
33700W        W98960   1.817  21.303   3.200
33701W        W98961  21.692  13.725   2.847
33702W        W98962  10.297  16.166  11.179
33703W        W98963  44.775   1.687  11.149
33704W        W98964   2.229  35.135   0.204
33705W        W98965  19.722  32.916  14.692
33706W        W98966  10.651  24.614   2.854
33707W        W98967  32.041   2.408  11.483
33708W        W98968   2.541  29.626  13.415
33709W        W98969   0.332  13.582  13.623
33710W        W98970  40.352  31.600  12.591
33711W        W98971   4.948   4.734   1.871
33712W        W98972  24.886  17.419   0.796
33713W        W98973  44.945  23.529  13.540
33714W        W98974  24.486   7.722  14.492
33715W        W98975  19.399  11.649  12.454
33716W        W98976  28.543  22.137  14.359
33717W        W98977   1.954  15.632   0.790
33718W        W98978  19.654  27.659   1.712
33719W        W98979  36.098  37.111   3.601
33720W        W98980  28.470  36.939   1.634
33721W        W98981  26.653  20.739  14.944
33722W        W98982  29.430  23.783   0.765
33723W        W98983  19.299  38.931   4.565
33724W        W98984  13.210  36.624   2.374
33725W        W98985  22.403   3.363   4.610
33726W        W98986  44.791  22.179   0.399
33727W        W98987  35.435  29.123   2.828
33728W        W98988   6.233  10.268  13.791
33729W        W98989  29.046  39.190   4.151
33730W        W98990  40.598   2.969  13.905
33731W        W98991  37.476  23.487   4.712
33732W        W98992  27.995  36.597   4.211
33733W        W98993  38.791   5.027   5.185
33734W        W98994  10.631  30.708  14.386
33735W        W98995  43.243   1.450  13.777
33736W        W98996  42.012  24.663   1.484
33737W        W98997  12.421  18.050  12.365
33738W        W98998  24.971  33.912   3.145
33739W        W98999  42.320   2.817  10.672
33740W        W99000  26.565  21.513   3.141
33741W        W99001  10.097   4.255   2.651
33742W        W99002   2.432   3.565  10.148
33743W        W99003   7.305  17.192  14.408
33744W        W99004  12.133  12.321  10.567
33745W        W99005  21.307   9.704  10.895
33746W        W99006  16.218   1.852   2.625
33747W        W99007  31.041  41.385   1.711
33748W        W99008  43.889  14.609  13.970
33749W        W99009  32.037  25.942   2.808
33750W        W99010  13.627   4.998  14.485
33751W        W99011  38.104  10.289   4.799
33752W        W99012  11.240  13.318  12.441
33753W        W99013  29.847  37.044   4.380
33754W        W99014  37.648   7.112  14.068
33755W        W99015  26.104  42.440   2.671
33756W        W99016  38.489  20.385  12.213
33757W        W99017  40.214  30.004   3.700
33758W        W99018  17.147  37.452   2.455
33759W        W99019  11.380   9.302   4.888
33760W        W99020  17.266  41.728  13.602
33761W        W99021   5.397  10.133  12.854
33762W        W99022  40.880  42.025  12.912
33763W        W99023  25.779  10.772   0.847
33764W        W99024  10.645  23.188  11.617
33765W        W99025  39.888  10.429   4.655
33766W        W99026  26.768   3.857   5.045
33767W        W99027  26.621   1.974   0.277
33768W        W99028  34.403  34.192   0.490
33769W        W99029   2.819  28.122   4.164
33770W        W99030  29.887  40.374  14.339
33771W        W99031  26.568  15.614  13.117
33772W        W99032  31.531  39.974  10.417
33773W        W99033  39.787  17.415   1.287
33774W        W99034  42.873   2.174  14.047
33775W        W99035  26.140  17.549  13.728
33776W        W99036   6.790  12.726  13.141
33777W        W99037  40.383   8.991  10.734
33778W        W99038  15.288  16.616   3.762
33779W        W99039  18.360  39.853   3.655
33780W        W99040  37.730   1.240  11.545
33781W        W99041  22.335  38.971  14.809
33782W        W99042  19.588  21.254  10.233
33783W        W99043  22.274  39.997   3.271
33784W        W99044  34.918  24.738   3.972
33785W        W99045  41.928  15.529  12.063
33786W        W99046  26.015  20.574  14.005
33787W        W99047  19.686  40.729  12.989
33788W        W99048  38.671   0.403   1.994
33789W        W99049  41.221  34.175  13.922
33790W        W99050  22.551  22.057   1.177
33791W        W99051  40.525  10.896   3.290
33792W        W99052  14.068  19.591  10.074
33793W        W99053   1.458  24.276   4.946
33794W        W99054  41.267  30.001   1.470
33795W        W99055  34.863   8.977   1.572
33796W        W99056  30.595  27.179   3.198
33797W        W99057   0.012  13.304   3.122
33798W        W99058   9.742   6.294   2.244
33799W        W99059  43.481  23.552   0.267
33800W        W99060  18.614  18.665   3.597
33801W        W99061  30.160  40.909   0.811
33802W        W99062  43.954   9.431   1.290
33803W        W99063  36.395  41.828  11.620
33804W        W99064  15.736  43.472  10.676
33805W        W99065   9.389  10.153   4.172
33806W        W99066  28.801  13.129  11.713
33807W        W99067  12.415   9.757   5.513
33808W        W99068  12.411  44.088   0.406
33809W        W99069   3.467  25.125   0.789
33810W        W99070  26.456   4.235   1.672
33811W        W99071  41.443  37.169   2.853
33812W        W99072  30.208  30.098  10.686
33813W        W99073  12.594  10.676  11.760
33814W        W99074   0.940  36.151   0.877
33815W        W99075  44.320  20.769  11.831
33816W        W99076   8.726  42.338   2.624
33817W        W99077  26.884  24.688   4.059
33818W        W99078  34.450  44.694  14.860
33819W        W99079  18.541  17.608   3.636
33820W        W99080  18.200  40.586   1.967
33821W        W99081  11.707  38.119  14.331
33822W        W99082  11.406  37.566   4.349
33823W        W99083  31.653  34.663   2.424
33824W        W99084  15.158  39.627   4.237
33825W        W99085  23.109  29.884  14.583
33826W        W99086  27.114  31.385  14.489
33827W        W99087  23.584  38.867   2.353
33828W        W99088  32.884  17.703   4.549
33829W        W99089  17.080   7.934  10.609
33830W        W99090  28.170  26.979   0.009
33831W        W99091   7.867  19.684   4.388
33832W        W99092  23.720  28.289   4.088
33833W        W99093   1.976  21.806   0.874
33834W        W99094   3.858  24.992   3.080
33835W        W99095  27.504  16.181  14.020
33836W        W99096  10.600  44.549   1.035
33837W        W99097  13.284  39.508   0.231
33838W        W99098  30.988  29.942   4.564
33839W        W99099  28.162  18.710   2.993
33840W        W99100  26.138  41.387  14.493
33841W        W99101   6.750  24.123   4.624
33842W        W99102  18.625   4.820   4.674
33843W        W99103  11.338  29.537   4.525
33844W        W99104  22.056  40.368   1.097
33845W        W99105  19.390  29.932  13.657
33846W        W99106  31.413  32.549   0.570
33847W        W99107  18.064  11.298  11.524
33848W        W99108  41.989   6.250  12.107
33849W        W99109  14.655  20.485  10.626
33850W        W99110  12.486  39.326   2.935
33851W        W99111   9.629  19.684  11.750
33852W        W99112  43.639  33.694   1.293
33853W        W99113  17.075   0.318  13.018
33854W        W99114  27.313  17.874  10.089
33855W        W99115  39.115  38.813  11.531
33856W        W99116  22.717  22.752   2.859
33857W        W99117  15.773   4.673   0.274
33858W        W99118   4.239  44.772   1.802
33859W        W99119  17.262  10.407  13.045
33860W        W99120   5.464  43.838   1.184
33861W        W99121   0.871  19.554   3.641
33862W        W99122  28.689  44.386  10.761
33863W        W99123  25.159  20.975   2.576
33864W        W99124   1.267  15.801  13.512
33865W        W99125  14.317  27.707  12.231
33866W        W99126  20.306   2.816  11.605
33867W        W99127  41.338  18.041  11.396
33868W        W99128  17.046  23.715  14.226
33869W        W99129  33.302  36.547  12.483
33870W        W99130  17.605  42.834  12.090
33871W        W99131  24.198  31.577  10.668
33872W        W99132  10.539  43.358   2.443
33873W        W99133  34.492  16.670   4.410
33874W        W99134  34.564  24.226   0.304
33875W        W99135  40.077   7.420  11.232
33876W        W99136  15.200  42.709  11.135
33877W        W99137   1.220  31.133   0.869
33878W        W99138  16.483   9.215  12.741
33879W        W99139  21.044  23.707  13.108
33880W        W99140  26.297  17.219  12.391
33881W        W99141   4.848   1.016  12.161
33882W        W99142  24.483  14.466   1.385
33883W        W99143  42.255   1.859  12.358
33884W        W99144   0.318  10.770  14.014
33885W        W99145  16.350   8.303   1.937
33886W        W99146  25.052  26.262  13.813
33887W        W99147  38.333  40.870  14.485
33888W        W99148   5.693  18.456   1.846
33889W        W99149  24.499  40.976  13.075
33890W        W99150  42.785  36.899   4.301
33891W        W99151  10.369  29.232  12.124
33892W        W99152  27.774  35.523  11.946
33893W        W99153  28.496  33.792   3.694
33894W        W99154  16.999  17.628  13.015
33895W        W99155   1.901   3.845  10.758
33896W        W99156  18.143   9.261   3.233
33897W        W99157   9.534  13.769   3.286
33898W        W99158  24.093   1.179  12.991
33899W        W99159  18.242   7.865  11.298
33900W        W99160  37.594  35.010   1.921
33901W        W99161  26.357   7.883   3.593
33902W        W99162  37.498  25.439   4.195
33903W        W99163   5.901  12.916  13.527
33904W        W99164  29.752  13.122   3.864
33905W        W99165  41.030  10.733   1.997
33906W        W99166  28.119  21.932  13.324
33907W        W99167  24.650  33.903   0.739
33908W        W99168   8.725  19.060   2.262
33909W        W99169  33.507   6.429   0.454
33910W        W99170  41.587  28.282  12.415
33911W        W99171  30.069  25.462  13.653
33912W        W99172  10.673   5.246   1.334
33913W        W99173  41.018  27.345  12.378
33914W        W99174  28.963  23.111   0.372
33915W        W99175  35.303  26.407  13.040
33916W        W99176  42.523  26.093   2.209
33917W        W99177   3.788  30.913   1.721
33918W        W99178   8.408  20.109  13.930
33919W        W99179   0.909  44.059   2.713
33920W        W99180  41.328  30.587   4.066
33921W        W99181  24.777  23.761  12.800
33922W        W99182  27.173  25.221  11.574
33923W        W99183  21.671  21.952   0.939
33924W        W99184  35.349  39.954   1.733
33925W        W99185  37.049  16.958   2.185
33926W        W99186   5.789  17.298  14.344
33927W        W99187  15.700   5.939  12.271
33928W        W99188  33.747  33.203   1.408
33929W        W99189  44.018  39.478  12.597
33930W        W99190  20.647  29.558   4.911
33931W        W99191  35.021   0.314  10.774
33932W        W99192  16.861  15.607   0.302
33933W        W99193  22.598  30.063  13.899
33934W        W99194   3.679  15.756   1.732
33935W        W99195  39.477   7.308   2.836
33936W        W99196  29.913  33.785  14.758
33937W        W99197   6.491  16.217  14.470
33938W        W99198  41.993  17.630   0.397
33939W        W99199   0.003  12.203  12.496
33940W        W99200   5.259   9.763  11.624
33941W        W99201  35.620  37.230   4.923
33942W        W99202  34.072  20.452  10.471
33943W        W99203  29.266   2.499  13.504
33944W        W99204   4.453  16.188   2.091
33945W        W99205  27.886  20.899  12.945
33946W        W99206  27.943  44.337   4.554
33947W        W99207  24.590  18.688   1.105
33948W        W99208  32.986   6.171  14.601
33949W        W99209  10.377  15.459  11.976
33950W        W99210   9.410  22.115   2.804
33951W        W99211  21.534  11.283  12.475
33952W        W99212  23.027  13.283   1.309
33953W        W99213   7.345  12.558  14.856
33954W        W99214  33.588   1.014  12.464
33955W        W99215  40.816  27.086   3.318
33956W        W99216  43.740  21.571   4.416
33957W        W99217  15.796  10.619  12.860
33958W        W99218  15.233  17.030   4.123
33959W        W99219   4.019   1.492  12.481
33960W        W99220  35.319   2.461  11.715
33961W        W99221  35.152   7.749  14.493
33962W        W99222  29.704  20.107  12.527
33963W        W99223  42.250  32.932   3.001
33964W        W99224  39.987   8.243   3.659
33965W        W99225  16.161  12.157  11.188
33966W        W99226  20.548   8.243  11.657
33967W        W99227  44.794   2.109   3.522
33968W        W99228  38.776  21.056  11.029
33969W        W99229   7.793   1.017   3.532
33970W        W99230   8.613  31.098  14.719
33971W        W99231  30.189  28.651   4.536
33972W        W99232  25.835  33.658   2.647
33973W        W99233  34.661  21.118   1.882
33974W        W99234  18.441   4.212  11.632
33975W        W99235   4.706  33.407   1.042
33976W        W99236   4.633   1.234  14.952
33977W        W99237  22.694   0.220   3.285
33978W        W99238   1.700  31.313   2.288
33979W        W99239  42.418  23.950   2.373
33980W        W99240  12.617  12.551   0.398
33981W        W99241  31.614  17.114  14.858
33982W        W99242  23.777  44.997  14.742
33983W        W99243  19.634  13.120  11.863
33984W        W99244   2.984  34.534   0.287
33985W        W99245  44.386  43.999  12.650
33986W        W99246  27.431  11.361  10.958
33987W        W99247   1.476  21.530   1.889
33988W        W99248  39.330  28.520   5.031
33989W        W99249  44.590  29.157  11.636
33990W        W99250  10.633  39.830   4.302
33991W        W99251  12.628   5.856  14.898
33992W        W99252  44.072  29.676   1.855
33993W        W99253  29.432  26.728   5.248
33994W        W99254  34.260   0.911   4.486
33995W        W99255   1.799  41.225   3.755
33996W        W99256  35.144  29.137  14.440
33997W        W99257   2.924  17.033  14.541
33998W        W99258   7.217   8.367  11.519
33999W        W99259  29.394  10.752   2.120
34000W        W99260  36.072   6.643   3.858
34001W        W99261  36.151  14.583   0.225
34002W        W99262  28.427  16.203  14.508
34003W        W99263  16.567  25.441   0.472
34004W        W99264   1.869   7.438   2.401
34005W        W99265  25.491   2.412  13.838
34006W        W99266  32.316  27.385  14.012
34007W        W99267   9.672   8.071  12.263
34008W        W99268  16.568  22.039   2.898
34009W        W99269  28.008  15.812  11.648
34010W        W99270  25.428  15.431  10.646
34011W        W99271  33.025  14.018  11.066
34012W        W99272   7.920  38.415   1.986
34013W        W99273  32.608  28.529  10.679
34014W        W99274   6.027  35.434  11.521
34015W        W99275  18.349  40.875   2.588
34016W        W99276   6.691  24.311   2.010
34017W        W99277   9.390  21.591   4.499
34018W        W99278   6.603  14.807  12.196
34019W        W99279  26.262  29.953   1.927
34020W        W99280   9.131  31.516  10.759
34021W        W99281   3.549   7.476  11.197
34022W        W99282   4.780  43.573   0.729
34023W        W99283  42.350   0.568  12.105
34024W        W99284  33.052   4.468  14.527
34025W        W99285  39.090   1.666   0.462
34026W        W99286  41.999  14.162   0.694
34027W        W99287   3.005   0.529   3.606
34028W        W99288  11.161  20.120   3.843
34029W        W99289   9.624  31.682  13.452
34030W        W99290  17.798  34.506  13.800
34031W        W99291  10.954  37.000   1.425
34032W        W99292  38.976  44.733   4.126
34033W        W99293  40.331  42.006  13.546
34034W        W99294  19.206  33.611   4.451
34035W        W99295   1.421  19.640  13.800
34036W        W99296  31.494   0.903   3.103
34037W        W99297   9.610  17.719  13.340
34038W        W99298  13.032  12.652   0.723
34039W        W99299   3.989   4.754  11.166
34040W        W99300  19.496  17.091   1.655
34041W        W99301  34.568   0.399  11.980
34042W        W99302  37.815  11.302   1.266
34043W        W99303   6.240  29.716  12.306
34044W        W99304   9.683  29.101  12.504
34045W        W99305  11.207  24.090   2.180
34046W        W99306  17.239   8.123   9.801
34047W        W99307  37.381   4.929  12.988
34048W        W99308  10.761  20.548   0.547
34049W        W99309  23.127  16.262   2.657
34050W        W99310  16.381  35.309   4.182
34051W        W99311  21.725  30.090  13.758
34052W        W99312  41.298   5.752  12.495
34053W        W99313  36.053  39.164  12.547
34054W        W99314  40.932  32.694   0.921
34055W        W99315  35.075  14.371  12.448
34056W        W99316   3.633  24.615   1.421
34057W        W99317  21.463  14.813   1.586
34058W        W99318  14.745  22.622  12.417
34059W        W99319   4.860  28.968   4.477
34060W        W99320  33.413   1.987  12.755
34061W        W99321  20.595  21.198  14.423
34062W        W99322   5.905  26.757  11.129
34063W        W99323  21.624   2.345   0.414
34064W        W99324  38.641  42.362  13.367
34065W        W99325  28.590  15.712   2.637
34066W        W99326  19.084   7.346  14.370
34067W        W99327  14.621  44.934  14.931
34068W        W99328   8.476  19.313  13.485
34069W        W99329  21.256  27.197   1.739
34070W        W99330  12.064  43.831   0.077
34071W        W99331  12.663  14.135  11.532
34072W        W99332  23.036   3.112   5.161
34073W        W99333   6.696  32.633  11.592
34074W        W99334  27.204  16.983   1.749
34075W        W99335  32.454   3.359  11.386
34076W        W99336  15.597  12.256   4.294
34077W        W99337  27.510  42.415  12.131
34078W        W99338  16.474  44.016  13.866
34079W        W99339  41.723   3.806  14.341
34080W        W99340  28.819   6.874   2.365
34081W        W99341  23.439  25.540  14.890
34082W        W99342  17.195  11.732  12.246
34083W        W99343  17.348  30.905   0.731
34084W        W99344  38.282  25.204  13.800
34085W        W99345  38.452  16.553   3.889
34086W        W99346   3.385  36.292  14.900
34087W        W99347  31.696  28.714  13.761
34088W        W99348  42.534  14.175   0.747
34089W        W99349  13.076  32.439  11.838
34090W        W99350  39.483  35.803  11.838
34091W        W99351  40.858  14.062  12.066
34092W        W99352   0.864  39.968  10.727
34093W        W99353  44.544  11.989  14.618
34094W        W99354  30.203   5.427   4.353
34095W        W99355  34.653  30.059  12.995
34096W        W99356  32.098  34.923   0.657
34097W        W99357  27.914   2.967   0.560
34098W        W99358  13.098  24.197   0.828
34099W        W99359  20.471  37.802  14.723
34100W        W99360   9.182   6.497  11.084
34101W        W99361   9.061  13.705   0.312
34102W        W99362  42.813  14.138  11.621
34103W        W99363  21.523  38.116   3.605
34104W        W99364  29.990  21.986  11.633
34105W        W99365  22.949  20.506   3.796
34106W        W99366  32.647  28.345   1.352
34107W        W99367  31.038  24.485   4.867
34108W        W99368   3.452  35.288   4.805
34109W        W99369  32.804  14.700   2.336
34110W        W99370  40.961  33.121  13.996
34111W        W99371  37.492  34.207   0.772
34112W        W99372  32.189  23.442  12.614
34113W        W99373  27.113   3.232   0.383
34114W        W99374   4.064  31.413   4.661
34115W        W99375  30.142  11.714   1.658
34116W        W99376   6.437  15.668  12.018
34117W        W99377  12.569  43.490  14.610
34118W        W99378   2.066  18.305  13.909
34119W        W99379  38.594  36.382  13.830
34120W        W99380  17.522  41.331  14.320
34121W        W99381   3.110  19.383   2.276
34122W        W99382  27.514  41.502  14.689
34123W        W99383   9.739  35.560  11.632
34124W        W99384  36.510  40.859   1.205
34125W        W99385  12.271  11.335   3.717
34126W        W99386  38.451  37.287   0.996
34127W        W99387  16.221  33.997   4.019
34128W        W99388  21.651  38.422  14.023
34129W        W99389  11.255  14.569  14.403
34130W        W99390  23.238  30.532   0.847
34131W        W99391  17.110   3.245  11.226
34132W        W99392  22.193  34.618   1.776
34133W        W99393  42.421  19.742  13.421
34134W        W99394  44.891   9.389  13.638
34135W        W99395  43.463  40.732   4.498
34136W        W99396  29.628   4.886   3.094
34137W        W99397  28.606  21.489  14.788
34138W        W99398   3.317  24.519   4.607
34139W        W99399  16.396  38.928   4.630
34140W        W99400  37.835  42.132   0.644
34141W        W99401  25.670  15.290   3.126
34142W        W99402   2.804   9.484   0.660
34143W        W99403  22.991  20.293   1.259
34144W        W99404  38.645  23.987  14.253
34145W        W99405  24.739   7.254   3.104
34146W        W99406  11.731  29.519   0.578
34147W        W99407  14.755   8.406   2.593
34148W        W99408   3.587  35.705  13.019
34149W        W99409   3.070  20.628  12.931
34150W        W99410  11.746  12.573   2.670
34151W        W99411  23.439  44.602   4.113
34152W        W99412  15.247  42.461   3.671
34153W        W99413  40.813   4.201   0.728
34154W        W99414  14.172  33.622  14.720
34155W        W99415   4.692  16.309  12.053
34156W        W99416  18.804   2.477  12.897
34157W        W99417   3.514   6.110  14.861
34158W        W99418  15.727  31.450  11.505
34159W        W99419  37.880  37.675  12.986
34160W        W99420  26.655   0.694   1.943
34161W        W99421   9.254   0.112   0.799
34162W        W99422  24.633  40.795   4.068
34163W        W99423  36.923  37.043   4.183
34164W        W99424  16.332  22.628  12.529
34165W        W99425  10.884  23.008   2.874
34166W        W99426   0.963   8.795  10.761
34167W        W99427  29.596   9.901   3.088
34168W        W99428  22.967   9.766  13.819
34169W        W99429  23.599  28.395  11.155
34170W        W99430  31.047  28.193  14.824
34171W        W99431  35.585  22.768   2.682
34172W        W99432  22.447  26.743   1.171
34173W        W99433  40.476  43.903   3.133
34174W        W99434  13.910   3.035  13.860
34175W        W99435  24.131  20.170  12.927
34176W        W99436  32.472  22.670   1.716
34177W        W99437  41.894  12.536   2.288
34178W        W99438  22.974  33.838   0.212
34179W        W99439   0.449  39.256  12.370
34180W        W99440  41.560  15.223   1.167
34181W        W99441  30.090   6.355  14.274
34182W        W99442  18.232  34.374   4.583
34183W        W99443  41.519   9.088  12.167
34184W        W99444   8.082  14.711  13.947
34185W        W99445   8.308  42.161   2.365
34186W        W99446  27.283   7.204  14.643
34187W        W99447   6.960  22.778  13.398
34188W        W99448  13.659  32.639   0.458
34189W        W99449  33.840   5.948  11.907
34190W        W99450  30.835  33.369   2.891
34191W        W99451  20.636  33.908   2.800
34192W        W99452  36.141  23.505  13.878
34193W        W99453  14.830  17.143   0.225
34194W        W99454  15.634   3.415  12.926
34195W        W99455  33.925  36.997   3.220
34196W        W99456  35.793   3.251   3.126
34197W        W99457   9.039  36.210  11.469
34198W        W99458   6.330  41.284   2.295
34199W        W99459  21.699   9.947  11.202
34200W        W99460  37.629  16.128   2.438
34201W        W99461  35.803   5.389   1.797
34202W        W99462  16.879  42.421  13.858
34203W        W99463  12.913  11.752   2.762
34204W        W99464  11.883  26.550   5.060
34205W        W99465  41.044  32.735  11.638
34206W        W99466  32.368  11.724   4.623
34207W        W99467  12.832  26.507   5.014
34208W        W99468   6.018  19.386   3.697
34209W        W99469  13.099   0.456  11.173
34210W        W99470  24.055  36.558   3.198
34211W        W99471  23.158   3.719  12.950
34212W        W99472  41.881  37.816  14.544
34213W        W99473  30.188   9.075   4.774
34214W        W99474  24.598  41.835   4.165
34215W        W99475  38.907   2.244  14.548
34216W        W99476  31.956  35.057   0.192
34217W        W99477  27.272  42.844  14.381
34218W        W99478   9.244  27.132   3.503
34219W        W99479  25.323  29.720  11.199
34220W        W99480  43.807  37.061   2.283
34221W        W99481  17.518  41.866   0.916
34222W        W99482  26.154  24.472  14.495
34223W        W99483  14.846  27.871  11.534
34224W        W99484  25.130  31.195   1.347
34225W        W99485  22.732  29.051  14.086
34226W        W99486   3.383  40.374  10.618
34227W        W99487   2.379   3.273   0.185
34228W        W99488   4.201   5.238  11.186
34229W        W99489  30.242  23.647  11.637
34230W        W99490  32.723  38.344   4.300
34231W        W99491  14.262  14.609  13.061
34232W        W99492  35.697  34.375   0.787
34233W        W99493   8.919  17.180  10.918
34234W        W99494  36.248  14.330   0.705
34235W        W99495   8.605  21.497   1.409
34236W        W99496  13.794  39.559  11.107
34237W        W99497   0.886   8.095   1.796
34238W        W99498   5.657  41.415   1.166
34239W        W99499  27.509   6.072   3.683
34240W        W99500  32.446   4.324  11.202
34241W        W99501  27.666   2.968  12.787
34242W        W99502  30.675  33.343   4.961
34243W        W99503   7.091   2.000  12.937
34244W        W99504  42.361  39.978   0.799
34245W        W99505   7.323   1.181  11.565
34246W        W99506  28.134  20.585   2.814
34247W        W99507   2.661  17.307   2.328
34248W        W99508   1.446  19.537  12.361
34249W        W99509  16.936  11.915  11.555
34250W        W99510  40.361  35.928   1.844
34251W        W99511   6.598  10.862   0.877
34252W        W99512   8.910  25.067  14.388
34253W        W99513  42.763  27.524   4.583
34254W        W99514  32.972  20.258  11.491
34255W        W99515  14.252  18.527  13.018
34256W        W99516  16.245   9.027   1.968
34257W        W99517  29.969  36.045   4.220
34258W        W99518  35.219  21.104  10.720
34259W        W99519  18.163  12.415   0.866
34260W        W99520   8.819  35.048   0.670
34261W        W99521  32.618  29.274  11.119
34262W        W99522  23.379  23.103   4.889
34263W        W99523  14.148  16.296   2.884
34264W        W99524   6.890  24.473  11.505
34265W        W99525  41.162  37.668   2.297
34266W        W99526  23.094  41.471  11.088
34267W        W99527   2.222  14.825  14.884
34268W        W99528  33.680   4.862   0.833
34269W        W99529   4.690  35.940   0.422
34270W        W99530   3.335  25.277  14.517
34271W        W99531  20.117  11.839  11.238
34272W        W99532  12.523  25.938   1.251
34273W        W99533  17.875  22.030  14.581
34274W        W99534  16.823  39.473   1.754
34275W        W99535   2.254  24.576   0.985
34276W        W99536  11.441  15.238  13.940
34277W        W99537  33.982  36.623   0.343
34278W        W99538  22.688  29.599  12.142
34279W        W99539  27.514  16.217  14.536
34280W        W99540  19.268  10.179  13.063
34281W        W99541  34.093  12.646  12.577
34282W        W99542  10.357  18.791  13.300
34283W        W99543  35.463  23.750  10.477
34284W        W99544  19.698   5.004   3.633
34285W        W99545  35.066  31.815   0.342
34286W        W99546  18.198  38.602  12.490
34287W        W99547  29.589  12.063  13.373
34288W        W99548   8.640  43.468  14.831
34289W        W99549   1.065  22.996   4.163
34290W        W99550  43.152   5.187  13.383
34291W        W99551  29.118  19.025  14.823
34292W        W99552   3.762   3.374  13.883
34293W        W99553  33.906   3.040  14.269
34294W        W99554  17.280  30.465   5.030
34295W        W99555  34.102   9.993  11.120
34296W        W99556  29.562  25.410   2.825
34297W        W99557   7.327  21.679  12.937
34298W        W99558   4.573  13.997   1.553
34299W        W99559  25.448  29.555   2.637
34300W        W99560  25.759  36.923  10.228
34301W        W99561   5.511  39.094  13.551
34302W        W99562  20.455  34.926  13.403
34303W        W99563  39.903  25.426  13.530
34304W        W99564   4.307  27.035   3.165
34305W        W99565  14.602   0.201   4.249
34306W        W99566  42.951  19.797  13.515
34307W        W99567  29.580  27.546   0.971
34308W        W99568   7.960  30.471   1.039
34309W        W99569  30.497  28.100   2.217
34310W        W99570  20.421  19.767   3.944
34311W        W99571   1.869   9.937   2.349
34312W        W99572  33.635  41.018   4.515
34313W        W99573  21.424  42.321   2.294
34314W        W99574  37.868  42.746   2.581
34315W        W99575  22.611  32.687   0.725
34316W        W99576  24.148   7.448   4.265
34317W        W99577  19.488  20.061   2.207
34318W        W99578   1.313  28.527  12.432
34319W        W99579  21.484  22.086  10.480
34320W        W99580  44.776   8.758  13.361
34321W        W99581  42.795   7.209   2.023
34322W        W99582  11.396  23.000  13.246
34323W        W99583  39.524  11.381   3.889
34324W        W99584  40.488   5.351  11.681
34325W        W99585   8.763   6.914  12.953
34326W        W99586  36.778  44.730   2.793
34327W        W99587  17.706  19.149   3.808
34328W        W99588   4.449  44.745   0.891
34329W        W99589   9.888  31.856  13.029
34330W        W99590  41.841  12.740   4.663
34331W        W99591  40.263  30.528  11.113
34332W        W99592  41.747  35.967   4.562
34333W        W99593  13.368  26.675   3.715
34334W        W99594   7.695   1.883   1.161
34335W        W99595  17.768  13.551  13.442
34336W        W99596  12.041  36.849   0.653
34337W        W99597   2.363  13.675   3.447
34338W        W99598  25.810  29.457  12.340
34339W        W99599  25.582  17.866   3.229
34340W        W99600  20.268  19.434   5.089
34341W        W99601  16.314  44.964   2.861
34342W        W99602   7.569   1.308  13.086
34343W        W99603   8.961  34.530   4.261
34344W        W99604   4.182  41.838  13.531
34345W        W99605  36.046   6.317  14.978
34346W        W99606  17.041  11.258   0.444
34347W        W99607  11.289  10.393   2.339
34348W        W99608  17.626  44.696  11.070
34349W        W99609  23.540  20.246   4.345
34350W        W99610  27.161   2.992  12.909
34351W        W99611   3.191  13.780   4.601
34352W        W99612   2.148  14.125  13.260
34353W        W99613   2.809  16.333  13.133
34354W        W99614   2.497  42.041   1.363
34355W        W99615  15.932   5.772  14.721
34356W        W99616  44.472  26.169   1.649
34357W        W99617  14.640  44.239   0.255
34358W        W99618  23.118  16.473  12.064
34359W        W99619  12.156  25.705  10.505
34360W        W99620  32.373   8.167  10.840
34361W        W99621  29.718  10.401   3.801
34362W        W99622  43.439   1.094   3.291
34363W        W99623  39.812  43.939   1.919
34364W        W99624  30.682  27.406  12.149
34365W        W99625  37.039   4.219  12.420
34366W        W99626  20.568  11.206   3.058
34367W        W99627  21.362   8.796  11.098
34368W        W99628  29.871  12.177   0.794
34369W        W99629  32.582   6.311  11.523
34370W        W99630  14.255  17.206  13.032
34371W        W99631   5.284  44.303  11.700
34372W        W99632  12.580  22.715   1.503
34373W        W99633  22.728   0.794  13.619
34374W        W99634   8.907  18.074   2.133
34375W        W99635  12.725   5.888   4.355
34376W        W99636  36.506  24.885   0.727
34377W        W99637  36.422  41.247  10.736
34378W        W99638  11.657   8.181   2.687
34379W        W99639  22.374  40.304  12.935
34380W        W99640   6.284  15.187  12.074
34381W        W99641  42.440  20.835  14.820
34382W        W99642  38.040  29.418  14.061
34383W        W99643  14.009  26.118  14.418
34384W        W99644   0.079  39.517   3.510
34385W        W99645  19.617  12.749   0.144
34386W        W99646   5.312  31.548  12.774
34387W        W99647  20.981   6.385   1.816
34388W        W99648  42.225  34.571   1.346
34389W        W99649  30.897   7.328   5.068
34390W        W99650  20.163  42.755   1.185
34391W        W99651   9.359  34.470   0.289
34392W        W99652   2.424  31.672  10.545
34393W        W99653   2.415   3.951  14.241
34394W        W99654  10.038   1.211  11.150
34395W        W99655  14.569  40.014  12.283
34396W        W99656  35.888   5.268  13.354
34397W        W99657   3.558  26.807  14.840
34398W        W99658  19.196   1.552  13.042
34399W        W99659  37.994  19.379   2.018
34400W        W99660  26.073  32.000   0.656
34401W        W99661  32.192  37.978   4.945
34402W        W99662  35.544  21.104  12.057
34403W        W99663   6.416  39.393   0.721
34404W        W99664  15.591   2.465  14.807
34405W        W99665  29.117   2.034  12.359
34406W        W99666  21.994  35.912   2.990
34407W        W99667  18.609  22.424   0.894
34408W        W99668  10.726  18.078   3.173
34409W        W99669  28.020  37.966   0.387
34410W        W99670  43.947   7.861  14.527
34411W        W99671  21.142  16.208  13.005
34412W        W99672  32.493  30.139  10.946
34413W        W99673  43.579  19.313  11.112
34414W        W99674  11.028  44.407   0.697
34415W        W99675  27.678  27.268   1.504
34416W        W99676   9.651  21.603   2.197
34417W        W99677   4.361   3.736   2.288
34418W        W99678  14.866   7.185  10.631
34419W        W99679  12.175  16.726  14.487
34420W        W99680  34.058  19.192   4.310
34421W        W99681  22.806  20.163  11.532
34422W        W99682  36.833  10.181  14.290
34423W        W99683  10.351   6.283  10.124
34424W        W99684  12.282  33.040   4.308
34425W        W99685   2.771   5.786  13.932
34426W        W99686  18.663  32.204   3.708
34427W        W99687  24.559  20.173   3.609
34428W        W99688  34.528  43.127  12.408
34429W        W99689  14.204   0.985  13.970
34430W        W99690  12.585  25.666  12.145
34431W        W99691  15.296   5.008   4.324
34432W        W99692   8.892   3.870  14.247
34433W        W99693  36.305  15.176   1.056
34434W        W99694  12.670  24.135  11.761
34435W        W99695  29.186  35.167  14.822
34436W        W99696  17.131  41.260  13.439
34437W        W99697   9.521  17.600   2.712
34438W        W99698  30.127  14.282  13.048
34439W        W99699   8.336  23.975   2.310
34440W        W99700   1.793   8.208   1.719
34441W        W99701  40.858  40.753   3.510
34442W        W99702  35.973  27.361   1.402
34443W        W99703  33.424  11.772   1.834
34444W        W99704  11.284  11.186  10.568
34445W        W99705   3.418   5.915   4.362
34446W        W99706  35.132   0.645   2.711
34447W        W99707  29.372  28.201   4.403
34448W        W99708  13.915  23.217  14.796
34449W        W99709  22.739  33.537   5.075
34450W        W99710   9.232  44.972  12.795
34451W        W99711   3.597   9.245   0.901
34452W        W99712   4.843  43.994  13.029
34453W        W99713  35.090  25.171  11.522
34454W        W99714  24.802   5.513   1.260
34455W        W99715  43.712  26.550   3.823
34456W        W99716  29.495  19.249   3.167
34457W        W99717  27.417  26.672   2.684
34458W        W99718   8.964  44.011   4.673
34459W        W99719  16.043   5.995   2.791
34460W        W99720  26.048   3.492   2.908
34461W        W99721  43.383  17.322  13.054
34462W        W99722  28.793  20.098  14.303
34463W        W99723  17.703  22.313  12.076
34464W        W99724  42.541   5.936   2.890
34465W        W99725  18.210  28.930   4.824
34466W        W99726   6.657   8.619  13.972
34467W        W99727   9.869  23.134  14.287
34468W        W99728   9.775  18.622   4.103
34469W        W99729  10.324  32.644  12.927
34470W        W99730  22.681  14.012  14.068
34471W        W99731   2.667  25.649   1.994
34472W        W99732  20.995   9.695   1.228
34473W        W99733  10.125  32.161   4.102
34474W        W99734  43.097  34.308  12.541
34475W        W99735  32.218  14.867   4.097
34476W        W99736   9.749  34.685   3.770
34477W        W99737  28.838   8.650   2.772
34478W        W99738  27.611  22.073  12.002
34479W        W99739  24.574  42.076   0.848
34480W        W99740  14.395  11.217  12.052
34481W        W99741   5.936   7.283   0.371
34482W        W99742  14.125  35.523   4.607
34483W        W99743   5.931   5.831  14.228
34484W        W99744  13.050  37.007  14.458
34485W        W99745  22.961  43.785  12.729
34486W        W99746  24.991  29.010   2.326
34487W        W99747  39.403  22.254  11.338
34488W        W99748   7.513  24.262  14.963
34489W        W99749   4.483  32.365  11.224
34490W        W99750  42.859  24.645   4.779
34491W        W99751   7.323  22.753  14.444
34492W        W99752  28.603  43.479   0.562
34493W        W99753  18.249  24.153   4.917
34494W        W99754  15.799  16.576   3.815
34495W        W99755  44.387   4.164   1.796
34496W        W99756  21.031  34.496   3.242
34497W        W99757  27.106  25.227   2.854
34498W        W99758  14.332   3.552  11.460
34499W        W99759  39.157   7.429  12.578
34500W        W99760   7.313   2.959   0.006
34501W        W99761  21.509  30.191   2.324
34502W        W99762   4.920  44.490   3.659
34503W        W99763  20.552  43.379  11.508
34504W        W99764   1.208  10.598  13.895
34505W        W99765  43.685  44.538  11.653
34506W        W99766  11.093  31.018   0.510
34507W        W99767  21.815  39.743  10.325
34508W        W99768  39.593   2.985   3.062
34509W        W99769  35.945  32.007   1.617
34510W        W99770   2.509   4.457   1.816
34511W        W99771   7.224  27.183   2.201
34512W        W99772  44.829  42.448   2.674
34513W        W99773   2.666  36.402   3.683
34514W        W99774   5.796  40.371   2.205
34515W        W99775  25.244   4.890   0.200
34516W        W99776  44.294   4.153   2.871
34517W        W99777  19.464   4.275  12.566
34518W        W99778  16.785  24.523  10.585
34519W        W99779  37.494  16.168  11.833
34520W        W99780  20.038  44.962  12.943
34521W        W99781   6.776  20.491  10.979
34522W        W99782   2.913  19.116  14.317
34523W        W99783  22.743  38.403  12.442
34524W        W99784  22.077   0.784   3.643
34525W        W99785  28.916  35.898  11.981
34526W        W99786   6.017   2.131   0.933
34527W        W99787  40.007  11.485   5.522
34528W        W99788  12.750  22.669   0.518
34529W        W99789  17.662   0.739   4.014
34530W        W99790  43.835  25.210   1.888
34531W        W99791  28.119  24.574  10.109
34532W        W99792  22.530  36.446  14.495
34533W        W99793  13.693  32.422   1.288
34534W        W99794  13.815  41.412   0.661
34535W        W99795  10.191  27.853   1.468
34536W        W99796  38.286  41.733  10.884
34537W        W99797  15.449  27.554   1.176
34538W        W99798  21.963  20.912  11.537
34539W        W99799  34.904  22.763  14.354
34540W        W99800  29.463   1.633  13.545
34541W        W99801  23.103   2.837  10.544
34542W        W99802  23.184  42.922   3.296
34543W        W99803  22.735  16.269   3.062
34544W        W99804  32.607  16.554  11.127
34545W        W99805  12.121   9.180  13.880
34546W        W99806  35.399  21.344  13.163
34547W        W99807  31.574  22.010   4.552
34548W        W99808  19.683   1.151  11.948
34549W        W99809  35.814   3.170  12.002
34550W        W99810  19.703  43.370   1.805
34551W        W99811  21.179  17.000   5.085
34552W        W99812  12.378  35.449  10.712
34553W        W99813  39.938  32.212   4.264
34554W        W99814  38.597  38.968   1.238
34555W        W99815  12.612  27.986   3.654
34556W        W99816  39.624  40.355  14.317
34557W        W99817  41.528   3.395  10.614
34558W        W99818  12.646   9.753  11.875
34559W        W99819  18.195  44.561   3.598
34560W        W99820  29.953  31.378  10.399
34561W        W99821   9.220   9.777  11.528
34562W        W99822  43.501  19.774  14.017
34563W        W99823   6.779   2.928  11.508
34564W        W99824  29.778  25.605  11.390
34565W        W99825  26.741  19.556  12.545
34566W        W99826  25.543  28.969  10.340
34567W        W99827   8.299  32.099  10.489
34568W        W99828   4.872  16.494   2.836
34569W        W99829  34.423  39.494   0.531
34570W        W99830  37.932   1.888  12.655
34571W        W99831   9.103  44.199   0.766
34572W        W99832  31.785  22.146  12.098
34573W        W99833  16.975  21.819   4.554
34574W        W99834  29.201  21.004  13.975
34575W        W99835  14.343  44.248  13.389
34576W        W99836  44.397  41.390   1.728
34577W        W99837   4.846  21.053   5.077
34578W        W99838  31.855  12.348  14.367
34579W        W99839  12.707  12.434  14.388
34580W        W99840  12.808   4.402  13.434
34581W        W99841  39.506  12.617  10.425
34582W        W99842   9.201   0.490  14.028
34583W        W99843  27.640  34.102  11.183
34584W        W99844  43.445  44.340  11.232
34585W        W99845  27.240  33.418   2.309
34586W        W99846  11.630   2.057   9.884
34587W        W99847  16.428   6.862   4.698
34588W        W99848  15.922   8.971  14.209
34589W        W99849  39.599  30.346   0.306
34590W        W99850  20.351  18.712  12.943
34591W        W99851   8.380  38.313   2.726
34592W        W99852   6.891   2.212   2.142
34593W        W99853  25.401  25.459   4.111
34594W        W99854  42.133  33.440  11.961
34595W        W99855   9.979   3.527   3.313
34596W        W99856  14.371  34.471   0.724
34597W        W99857  20.869  40.598   1.726
34598W        W99858  44.834  18.932  10.992
34599W        W99859  43.441   0.175   3.698
34600W        W99860   8.749  13.535  13.359
34601W        W99861   8.257  44.904  12.427
34602W        W99862   2.832  36.980  14.741
34603W        W99863  23.634  29.192   2.325
34604W        W99864  36.080  43.830  12.926
34605W        W99865  19.608  43.791  11.726
34606W        W99866  13.303  20.244  10.743
34607W        W99867  44.784  43.599  13.916
34608W        W99868  29.347  27.422   2.269
34609W        W99869  10.205  35.339  12.489
34610W        W99870   4.584  33.094  12.021
34611W        W99871  24.137  13.127   4.293
34612W        W99872  14.451   8.305   4.486
34613W        W99873  15.790  32.677   0.978
34614W        W99874  23.017  39.272  12.524
34615W        W99875  11.369   3.696   2.502
34616W        W99876  24.752  27.524   1.911
34617W        W99877  31.579  18.263   1.396
34618W        W99878  38.352  21.341   4.523
34619W        W99879  19.099  37.606   4.403
34620W        W99880  22.635  35.610  14.857
34621W        W99881  43.688  10.197   3.803
34622W        W99882  41.674  28.957  11.951
34623W        W99883   6.317  43.955   1.671
34624W        W99884  26.903  27.977  11.701
34625W        W99885  11.506  28.948  12.993
34626W        W99886  14.252   7.434   1.302
34627W        W99887   7.774   6.126   3.973
34628W        W99888  29.438  24.521  12.970
34629W        W99889   9.791  27.147   4.013
34630W        W99890  20.704   0.266   3.895
34631W        W99891   2.993  13.869   1.329
34632W        W99892  44.594  11.241  14.566
34633W        W99893  37.907   1.337   2.597
34634W        W99894  30.657  32.111   2.416
34635W        W99895   6.144   1.514   4.873
34636W        W99896  23.417  14.475  13.244
34637W        W99897  10.077  28.425  12.005
34638W        W99898   6.517   6.817  10.791
34639W        W99899   7.005  30.008  10.625
34640W        W99900   9.644  30.205  13.197
34641W        W99901  39.032   6.029  11.612
34642W        W99902  18.015  10.947  11.130
34643W        W99903  27.012   0.242  13.372
34644W        W99904  39.746  32.839   2.226
34645W        W99905  31.763  35.542   0.013
34646W        W99906  24.716  24.025  10.822
34647W        W99907  37.556  13.220  13.070
34648W        W99908   8.958   2.820   2.594
34649W        W99909  14.364  43.724  14.785
34650W        W99910  24.586   0.251   0.072
34651W        W99911  43.516   0.732   0.406
34652W        W99912   5.983  27.448  12.395
34653W        W99913  42.986  16.206   3.695
34654W        W99914  26.238   1.690   2.356
34655W        W99915   9.814   9.782   0.518
34656W        W99916  29.494   3.450  13.826
34657W        W99917  13.668  14.263  11.646
34658W        W99918  34.107   7.675  13.362
34659W        W99919  14.244   5.182  12.027
34660W        W99920  40.069  41.101   3.216
34661W        W99921  22.466  12.877   3.135
34662W        W99922   7.154   0.716  12.468
34663W        W99923  41.844  32.313   3.709
34664W        W99924   9.834  40.631   3.965
34665W        W99925  10.669  33.944   2.402
34666W        W99926   4.918  31.453  10.628
34667W        W99927  19.110  22.982   3.178
34668W        W99928  30.078  38.724  14.955
34669W        W99929  39.324  20.844  12.443
34670W        W99930  32.183   1.434   1.518
34671W        W99931  37.326  19.561   3.146
34672W        W99932  36.523  39.721  13.104
34673W        W99933  32.515   6.162   4.111
34674W        W99934  34.117   4.812  12.571
34675W        W99935   5.380  44.218  14.466
34676W        W99936   8.217  31.535  12.899
34677W        W99937  37.767  18.324  11.659
34678W        W99938  19.966   7.799   4.382
34679W        W99939  10.504  30.474   3.462
34680W        W99940   8.595  44.528  12.603
34681W        W99941  34.478   3.672   2.970
34682W        W99942  32.134  31.710   2.224
34683W        W99943   9.662  40.659  11.957
34684W        W99944   7.123  31.607   2.616
34685W        W99945  43.921   8.894  14.349
34686W        W99946  34.489   2.792  14.936
34687W        W99947  34.992   7.900  11.385
34688W        W99948   1.390  41.001  11.143
34689W        W99949  10.073   8.455  10.903
34690W        W99950  16.582  15.703   4.342
34691W        W99951  13.804  31.367   2.251
34692W        W99952  13.868  22.477   3.290
34693W        W99953  16.129  17.957  14.918
34694W        W99954  44.820  30.545   4.655
34695W        W99955  44.282  30.910  10.987
34696W        W99956  17.749  42.794   1.740
34697W        W99957  14.658  17.230   1.440
34698W        W99958  36.474  43.542  12.042
34699W        W99959  22.106   5.953  11.793
34700W        W99960   7.156  42.794   3.771
34701W        W99961  28.676  27.365  11.917
34702W        W99962   1.643  30.608   1.083
34703W        W99963  31.209   1.335  11.583
34704W        W99964  31.666   5.792  12.863
34705W        W99965   8.965  17.023   4.956
34706W        W99966  17.304  28.549  12.422
34707W        W99967   9.838  21.352   0.235
34708W        W99968  24.652  41.310   4.110
34709W        W99969  44.811  35.091  14.407
34710W        W99970  18.220  10.232  10.375
34711W        W99971  36.611  37.126   1.353
34712W        W99972   7.678  40.094  11.681
34713W        W99973  41.463  11.138  14.672
34714W        W99974  28.024  26.048  13.940
34715W        W99975   4.214  38.396  11.631
34716W        W99976  13.664  29.451   4.122
34717W        W99977  44.390  12.744   2.861
34718W        W99978  28.518  32.102   0.812
34719W        W99979  14.158  43.094  13.935
34720W        W99980  15.613  11.795   0.256
34721W        W99981  19.260  14.860   0.882
34722W        W99982  13.774  35.868   4.776
34723W        W99983  39.180  23.709   0.007
34724W        W99984  36.374   1.536  12.534
34725W        W99985  41.088  37.844  11.664
34726W        W99986  32.161  28.650  10.915
34727W        W99987  18.716  24.812   2.436
34728W        W99988   6.735  26.495  12.700
34729W        W99989   2.874  12.799   4.820
34730W        W99990  33.259  14.386  10.339
34731W        W99991  30.582  38.968  10.675
34732W        W99992  31.659  11.348  14.501
34733W        W99993   3.840  29.041   4.676
34734W        W99994  36.895  44.748  14.702
34735W        W99995  12.642  37.443   0.282
34736W        W99996  35.444   9.400  14.007
34737W        W99997  20.652  21.631  13.767
34738W        W99998  19.169  34.509  12.542
34739W        W99999  26.693  28.723   1.498
34740W        W    0  34.996   8.830   1.085
34741W        W    1  28.517   1.156  14.377
34742W        W    2   3.903  30.982   4.421
34743W        W    3  43.605   9.667   3.347
34744W        W    4  37.439   4.934  13.486
34745W        W    5   7.393  37.920   3.141
34746W        W    6  13.552   6.763   2.764
34747W        W    7  28.549  38.081  13.386
34748W        W    8  10.709  33.412   2.357
34749W        W    9   6.097  10.889  10.062
34750W        W   10  15.131  28.122  12.654
34751W        W   11  37.847  36.423   0.811
34752W        W   12   7.101  44.269   1.017
34753W        W   13  21.199  15.762   1.788
34754W        W   14  29.240   2.328   2.669
34755W        W   15   2.193   2.183   2.028
34756W        W   16  18.093   2.928   3.801
34757W        W   17  38.462  32.010  13.800
34758W        W   18  21.434  37.575  10.379
34759W        W   19  36.820   7.265  11.939
34760W        W   20  31.920  23.153  14.384
34761W        W   21   8.955  42.219   1.218
34762W        W   22  13.732   8.330   1.171
34763W        W   23   5.865  32.905   1.787
34764W        W   24  25.065   7.388  12.139
34765W        W   25   5.788  18.261   2.322
34766W        W   26  37.086  15.844  11.666
34767W        W   27  39.816   6.516   1.986
34768W        W   28  18.149  15.188   4.872
34769W        W   29  12.853  42.972   4.636
34770W        W   30  31.813  13.293   0.302
34771W        W   31  14.389   8.021   3.233
34772W        W   32  37.551  35.781   1.405
34773W        W   33  17.090  44.523   3.239
34774W        W   34  33.396  42.025  13.865
34775W        W   35   7.651  29.466   3.844
34776W        W   36  20.954   0.059   4.676
34777W        W   37  32.023   0.993   0.555
34778W        W   38  14.789   8.921   0.846
34779W        W   39  19.211  22.590   0.150
34780W        W   40  13.126  19.691   4.964
34781W        W   41  27.943   6.164   4.556
34782W        W   42  18.514  23.091   5.020
34783W        W   43  25.150  42.593   4.176
34784W        W   44  12.478  24.274   1.892
34785W        W   45  36.004  20.568  14.179
34786W        W   46  24.906  11.667   1.310
34787W        W   47  42.524  13.919   3.119
34788W        W   48   8.675  27.085   1.735
34789W        W   49  15.700  34.630   3.626
34790W        W   50  35.829  10.754  13.039
34791W        W   51  30.577  15.841  13.296
34792W        W   52   5.818  13.578  12.986
34793W        W   53  28.879  26.921   1.987
34794W        W   54  26.012   2.329   2.907
34795W        W   55   4.922  11.524   4.499
34796W        W   56  32.724   8.259   4.095
34797W        W   57   5.189  23.175  12.369
34798W        W   58  27.758  32.483   4.779
34799W        W   59   1.418  15.692   1.448
34800W        W   60   7.414   8.001  13.606
34801W        W   61   3.740  24.137  11.669
34802W        W   62   0.659  11.888  12.502
34803W        W   63  23.779  40.301  12.878
34804W        W   64   5.463  32.814  12.477
34805W        W   65   7.956  29.058   3.852
34806W        W   66  34.183  24.551  11.108
34807W        W   67   6.648   2.873   1.349
34808W        W   68  35.841  33.505  14.580
34809W        W   69  25.058   0.753  11.853
34810W        W   70  34.529  18.883  11.818
34811W        W   71   1.021   4.953  13.744
34812W        W   72  17.030   0.204   1.288
34813W        W   73  28.967  44.165   0.436
34814W        W   74   2.734  43.882  13.382
34815W        W   75   0.488   8.486   0.180
34816W        W   76  22.226  10.725   1.948
34817W        W   77  25.987  14.528  14.741
34818W        W   78  20.869  43.630  14.422
34819W        W   79   4.335  18.491  10.682
34820W        W   80  33.753  18.675   1.674
34821W        W   81  35.874  17.049   1.153
34822W        W   82  25.390  43.706  13.070
34823W        W   83  41.859  30.467  11.285
34824W        W   84  29.339  24.684  13.991
34825W        W   85  20.088  22.049   3.188
34826W        W   86  29.650  42.699  12.174
34827W        W   87   1.045   2.008   3.096
34828W        W   88  38.809  16.040   4.722
34829W        W   89  18.357  13.630  14.939
34830W        W   90   1.957  10.438   2.412
34831W        W   91  34.897  43.619  11.415
34832W        W   92  14.415  28.241  11.557
34833W        W   93   9.720  18.317   1.734
34834W        W   94  39.508  12.700   2.316
34835W        W   95  43.831  19.129   4.147
34836W        W   96  38.153  23.655  11.836
34837W        W   97  19.112  34.480  14.386
34838W        W   98  37.726   5.800  14.104
34839W        W   99  12.342  40.038  14.937
34840W        W  100  39.313  18.748   2.174
34841W        W  101  43.806   4.758  10.250
34842W        W  102  43.560  30.527   4.668
34843W        W  103  31.310   9.760   2.841
34844W        W  104  37.805  13.296   1.498
34845W        W  105   3.793  26.902   3.085
34846W        W  106   4.210  41.077   1.329
34847W        W  107  42.402  30.193  13.173
34848W        W  108   0.062  24.657  12.015
34849W        W  109  31.833  40.756   4.705
34850W        W  110  21.103   5.853   5.045
34851W        W  111  34.385  26.478   0.906
34852W        W  112  34.752   8.877   4.835
34853W        W  113  15.556  23.736  14.326
34854W        W  114  15.340  15.208  13.912
34855W        W  115   1.312  24.374  14.350
34856W        W  116  36.430  28.214   0.380
34857W        W  117  18.570  31.067  14.786
34858W        W  118  44.235  30.645  10.532
34859W        W  119   7.184  37.538   4.349
34860W        W  120  18.960  11.221   1.369
34861W        W  121  30.792  18.744  11.554
34862W        W  122  24.788  10.713  14.891
34863W        W  123  20.750  21.704  12.005
34864W        W  124  26.586  33.213   4.129
34865W        W  125  20.620  14.147  14.808
34866W        W  126  33.411  23.050  11.235
34867W        W  127  13.302   2.175  14.785
34868W        W  128  43.961   6.406   4.928
34869W        W  129  32.111  31.958   4.427
34870W        W  130  16.576  12.285   0.819
34871W        W  131   4.443  10.297   0.467
34872W        W  132  14.265  22.653   1.302
34873W        W  133   5.726   1.221  14.914
34874W        W  134  16.200  38.050   2.388
34875W        W  135   3.496   7.891   4.274
34876W        W  136  18.126  26.158  12.042
34877W        W  137  30.464  15.829   2.368
34878W        W  138   6.958  33.597   0.978
34879W        W  139  18.182   0.196  13.077
34880W        W  140  41.992   8.271  12.550
34881W        W  141  16.914   6.729  10.687
34882W        W  142  41.800   4.326  11.868
34883W        W  143  24.287   5.772  14.764
34884W        W  144  17.139   0.393  14.059
34885W        W  145   9.245  17.718  12.041
34886W        W  146   9.773   4.729  11.273
34887W        W  147  13.636  25.997  13.580
34888W        W  148  27.689  20.570  14.495
34889W        W  149  38.107  32.931   1.850
34890W        W  150   7.632   2.404  12.140
34891W        W  151  21.815  23.025   2.341
34892W        W  152  21.604  13.856   3.362
34893W        W  153  20.151  31.876   0.339
34894W        W  154   4.742  40.973   1.333
34895W        W  155  33.238  39.852  12.127
34896W        W  156  31.491  17.821   4.681
34897W        W  157  39.741   4.100  11.627
34898W        W  158  19.579  35.688   4.572
34899W        W  159  32.886  35.435   3.111
34900W        W  160   4.546  29.517   0.304
34901W        W  161  20.636   2.295   4.593
34902W        W  162  13.224   0.215   4.460
34903W        W  163  26.104  39.901   0.131
34904W        W  164  40.736  30.982  13.068
34905W        W  165  18.958  20.076   2.224
34906W        W  166  27.613   7.314   4.222
34907W        W  167  38.600  43.306  11.953
34908W        W  168   2.748  31.454   0.483
34909W        W  169  39.481  13.140  10.434
34910W        W  170  39.027  27.108   3.767
34911W        W  171  11.338  36.811  11.234
34912W        W  172  14.692  35.125  14.771
34913W        W  173  37.529  23.531  10.472
34914W        W  174  21.818  40.844   1.261
34915W        W  175  15.218  31.640   3.179
34916W        W  176   1.839  32.044  14.524
34917W        W  177  43.398  11.626  12.047
34918W        W  178  36.717   8.439  13.463
34919W        W  179   3.816  24.643  11.610
34920W        W  180   3.364  44.314   4.647
34921W        W  181  15.977   1.277  11.536
34922W        W  182   8.110  44.467  11.399
34923W        W  183   4.682   3.819   4.906
34924W        W  184  38.504  32.824   2.276
34925W        W  185  43.361  23.783  12.907
34926W        W  186  27.722  13.987  12.052
34927W        W  187  16.073  34.964   2.704
34928W        W  188  16.589  39.864  13.268
34929W        W  189   6.637   8.710  14.900
34930W        W  190  27.243   2.642   3.574
34931W        W  191  13.774  12.065   1.653
34932W        W  192  30.669   8.851  13.802
34933W        W  193  27.008  16.496   3.225
34934W        W  194  19.515   4.301  11.161
34935W        W  195  35.299  27.394  12.933
34936W        W  196  28.614  23.205   1.766
34937W        W  197   0.052  12.273   0.325
34938W        W  198   9.427  34.076   2.633
34939W        W  199   3.789   1.992  10.763
34940W        W  200  15.099  26.144  11.187
34941W        W  201  21.492  17.644  11.708
34942W        W  202  20.799   2.461   1.292
34943W        W  203  31.188  13.638  12.094
34944W        W  204  19.139  24.459  11.621
34945W        W  205   4.829  30.731   0.937
34946W        W  206  40.145  43.835  13.032
34947W        W  207   6.337  15.866  12.822
34948W        W  208   1.355  22.142  12.820
34949W        W  209  17.404   4.308  13.331
34950W        W  210  25.324  16.569  11.130
34951W        W  211  43.806   9.928   1.244
34952W        W  212   6.887  43.793   2.337
34953W        W  213  27.139  40.342  11.139
34954W        W  214  24.104  40.101   3.214
34955W        W  215  20.210  33.891  10.991
34956W        W  216  17.176  32.019   3.587
34957W        W  217  15.121  33.941   2.290
34958W        W  218  23.584  44.406  11.167
34959W        W  219  43.091  24.814   3.978
34960W        W  220  36.348  43.403  12.974
34961W        W  221  23.469  33.558   0.005
34962W        W  222  25.115  22.459  12.858
34963W        W  223  35.578  25.218   1.663
34964W        W  224  30.066  27.204   2.682
34965W        W  225   3.720   3.773  13.556
34966W        W  226  30.174  41.086  13.797
34967W        W  227  40.523   2.704   2.825
34968W        W  228   5.778  18.862  10.434
34969W        W  229  19.853  10.243  13.570
34970W        W  230  11.182  37.359  14.343
34971W        W  231   7.198   7.624   3.146
34972W        W  232  34.359   9.391  14.953
34973W        W  233  40.402  42.821  12.021
34974W        W  234  17.792  31.713   2.897
34975W        W  235  13.717  43.441  12.853
34976W        W  236  13.476  31.520   3.864
34977W        W  237  33.494  27.921  13.400
34978W        W  238   1.274  20.922   1.263
34979W        W  239  21.616  34.848   3.760
34980W        W  240   8.147   6.450  13.965
34981W        W  241   4.789  40.956  13.476
34982W        W  242  37.082  41.048  14.904
34983W        W  243  19.544   7.064   5.049
34984W        W  244   7.102  34.471   4.054
34985W        W  245  38.775  21.799  10.569
34986W        W  246  23.792  11.048   2.688
34987W        W  247  11.286  42.815  13.811
34988W        W  248  36.541  11.836  12.089
34989W        W  249  34.709  18.552  11.427
34990W        W  250  42.154  12.554   5.373
34991W        W  251   7.415  37.490   3.884
34992W        W  252   2.019  11.369   4.294
34993W        W  253  20.104  39.636   0.747
34994W        W  254  25.103  35.295   1.262
34995W        W  255  43.341  33.519  12.935
34996W        W  256  34.415   2.309  13.410
34997W        W  257  12.259  42.312   4.318
34998W        W  258  19.807  26.119  10.596
34999W        W  259  24.748  43.930  11.030
35000W        W  260  44.754  42.968  10.503
35001W        W  261  10.342   8.372  14.727
35002W        W  262  43.974  19.286  12.398
35003W        W  263  15.874   4.335   2.691
35004W        W  264   2.911  34.450   1.720
35005W        W  265  24.484  36.507   1.944
35006W        W  266  38.184  10.443   1.303
35007W        W  267  36.179  20.690   0.711
35008W        W  268   1.470  17.000   3.811
35009W        W  269  36.199  25.589  12.029
35010W        W  270  16.793  25.186  13.814
35011W        W  271  14.713  36.826   2.249
35012W        W  272  34.816  17.149  14.493
35013W        W  273  36.370   2.849   2.809
35014W        W  274  28.212   9.975  12.013
35015W        W  275  13.428   5.712   3.186
35016W        W  276  40.542  34.470   2.614
35017W        W  277  11.113  21.530   3.169
35018W        W  278  16.354  16.059   1.806
35019W        W  279  23.009  14.009  11.918
35020W        W  280  44.353   0.292   0.972
35021W        W  281  15.658  23.234   3.591
35022W        W  282  44.308  36.038   9.702
35023W        W  283  37.546  28.937   1.083
35024W        W  284   5.302   3.582   1.385
35025W        W  285  30.693  24.041  14.346
35026W        W  286   0.814  42.728   4.841
35027W        W  287  42.318  31.432  12.413
35028W        W  288  18.895  28.655   2.227
35029W        W  289   2.893   4.781   1.150
35030W        W  290  41.486  22.282  13.386
35031W        W  291  35.958   8.710  12.916
35032W        W  292  15.281   0.298  14.493
35033W        W  293  42.827   8.612   5.003
35034W        W  294  14.995  27.514   1.431
35035W        W  295  31.544  23.110  13.781
35036W        W  296  31.864   0.717  12.007
35037W        W  297   7.616  24.287   3.616
35038W        W  298  20.040  25.548  13.911
35039W        W  299  29.955   6.926   5.069
35040W        W  300  25.909  15.522   2.249
35041W        W  301  16.837  22.448  11.664
35042W        W  302   7.941  22.171   0.927
35043W        W  303  22.505  21.093   1.663
35044W        W  304  22.684  11.669  14.174
35045W        W  305  14.782  14.414   3.615
35046W        W  306   9.928   1.424   4.176
35047W        W  307  24.612  36.903   0.284
35048W        W  308  10.042  19.622  14.433
35049W        W  309  14.336  37.577  12.791
35050W        W  310   4.090   8.730   1.908
35051W        W  311  19.777  18.100  11.884
35052W        W  312  31.664  12.746   2.729
35053W        W  313  13.827  32.196   1.771
35054W        W  314  24.227  33.504   1.376
35055W        W  315   0.540  21.098   3.167
35056W        W  316   8.309   7.647   2.875
35057W        W  317  30.494  31.193  10.400
35058W        W  318  26.547  19.616  12.069
35059W        W  319  19.017  24.723  11.172
35060W        W  320  33.200   0.497  12.955
35061W        W  321  12.285  31.061   3.687
35062W        W  322  39.863  17.257   0.337
35063W        W  323   5.682   6.871  12.545
35064W        W  324  28.092  43.301  11.665
35065W        W  325  32.692  28.009  10.741
35066W        W  326  35.444   8.567  12.887
35067W        W  327   7.369  17.057  11.170
35068W        W  328  36.094   2.978   4.581
35069W        W  329  40.436  44.008  13.414
35070W        W  330   0.986  21.744   3.234
35071W        W  331  33.485  32.420  14.790
35072W        W  332  36.946   0.556   3.126
35073W        W  333  31.966  17.077   4.401
35074W        W  334   2.424  33.992  10.749
35075W        W  335  30.951  17.984  12.036
35076W        W  336  34.782   6.877   1.126
35077W        W  337  40.991  22.529  11.448
35078W        W  338  41.229  30.718  13.815
35079W        W  339  30.359  17.158  11.986
35080W        W  340  19.706   0.402   0.991
35081W        W  341  43.604  34.852  11.035
35082W        W  342  38.435  20.643   2.832
35083W        W  343   8.226  34.207  12.581
35084W        W  344  40.308  34.058   2.840
35085W        W  345  34.794  11.021   0.001
35086W        W  346   6.797  37.882  14.732
35087W        W  347  21.256   9.717   4.528
35088W        W  348  21.535  23.263   1.934
35089W        W  349  14.226  44.377   5.024
35090W        W  350  23.011  11.348   0.716
35091W        W  351   6.369  43.846   0.680
35092W        W  352  16.311  20.642   5.354
35093W        W  353  18.297   2.224  11.103
35094W        W  354   4.527  42.331  14.390
35095W        W  355  15.187  24.525  12.139
35096W        W  356  34.361   8.462   1.791
35097W        W  357  33.427  38.374   2.127
35098W        W  358  36.595  28.517   4.078
35099W        W  359  27.182  14.236   3.162
35100W        W  360  26.660  42.964   1.469
35101W        W  361  16.525  39.831   3.725
35102W        W  362  40.672  14.316  10.220
35103W        W  363  17.611  41.458  10.992
35104W        W  364  14.227  10.547  11.252
35105W        W  365  11.790  14.526   0.702
35106W        W  366   2.459   4.479  14.299
35107W        W  367   9.675  29.439   3.725
35108W        W  368   1.437  31.070  12.422
35109W        W  369  37.942  17.779  12.604
35110W        W  370  43.835  14.419   5.041
35111W        W  371   2.385  16.358  13.425
35112W        W  372  13.856   0.830   4.472
35113W        W  373  13.603  36.267  13.402
35114W        W  374   2.208  28.443   2.224
35115W        W  375  32.414  24.542   2.645
35116W        W  376  29.570  28.709   3.377
35117W        W  377  10.418  14.921  12.692
35118W        W  378  10.111  15.805  13.942
35119W        W  379  29.014  42.745  10.488
35120W        W  380  26.121  37.750   3.999
35121W        W  381   6.152  20.236  13.237
35122W        W  382   2.945  29.156   4.155
35123W        W  383   5.154   9.436   0.788
35124W        W  384   2.876  19.662   2.669
35125W        W  385  20.563   3.482   4.455
35126W        W  386  18.628   6.391  13.572
35127W        W  387   2.631  38.966  12.881
35128W        W  388   4.863  26.613  12.553
35129W        W  389  39.626   6.846  13.451
35130W        W  390   4.873  11.020   4.591
35131W        W  391  15.186  13.509  11.466
35132W        W  392  20.471  40.470   2.418
35133W        W  393  41.732  33.981   2.806
35134W        W  394  44.994  34.004   0.260
35135W        W  395  38.066   3.846  14.535
35136W        W  396   1.070  41.274   3.239
35137W        W  397  31.476  31.691   4.782
35138W        W  398  26.778  14.086  13.013
35139W        W  399  23.163  25.017   0.794
35140W        W  400  17.308  12.460  14.474
35141W        W  401  38.184  28.141  14.830
35142W        W  402  37.204  38.016  14.642
35143W        W  403  44.472  17.026  12.017
35144W        W  404  10.841  32.138  10.595
35145W        W  405  20.499   2.739   3.933
35146W        W  406  13.201  27.487  13.420
35147W        W  407   0.252  34.411  13.808
35148W        W  408  40.537  25.041   1.758
35149W        W  409   0.962  31.910  10.955
35150W        W  410  44.317   2.871   2.165
35151W        W  411  34.854  34.638  11.892
35152W        W  412  29.431  20.407   5.152
35153W        W  413  26.586  29.000   3.825
35154W        W  414  29.789  19.413   0.392
35155W        W  415  28.644   0.962  11.425
35156W        W  416   0.990  26.190  14.470
35157W        W  417  30.673  24.523  11.204
35158W        W  418  17.685   7.824   4.564
35159W        W  419   5.646   1.896   4.160
35160W        W  420  39.219  23.710  10.195
35161W        W  421  32.197  15.307   0.424
35162W        W  422  23.588  31.979  14.358
35163W        W  423   4.367  17.265   3.582
35164W        W  424  22.644   9.163  13.433
35165W        W  425  12.395  15.653  10.645
35166W        W  426  44.441  15.189   3.828
35167W        W  427  28.634  40.583  14.865
35168W        W  428   0.470  40.517   4.146
35169W        W  429  19.496   0.758   1.309
35170W        W  430  36.284  44.317   4.973
35171W        W  431  17.209  38.982  12.744
35172W        W  432  18.544  26.127   4.217
35173W        W  433   5.859   1.736  10.950
35174W        W  434   6.755   0.568   1.256
35175W        W  435  41.299   4.444   1.994
35176W        W  436   7.236   7.291   1.290
35177W        W  437  11.637  34.637   2.608
35178W        W  438   1.210  35.093  14.561
35179W        W  439  21.278  12.566  14.882
35180W        W  440   5.323  16.788  12.852
35181W        W  441  16.424  33.612  14.400
35182W        W  442  31.654   8.161  14.811
35183W        W  443  32.729  31.793  10.719
35184W        W  444  41.290  15.613  11.665
35185W        W  445  29.193  18.779   0.862
35186W        W  446  32.938  40.541   3.131
35187W        W  447  13.988  26.898  14.861
35188W        W  448  37.848  24.054  12.554
35189W        W  449  23.959  41.621   3.652
35190W        W  450   7.462  13.065  12.651
35191W        W  451  34.887   5.560   0.888
35192W        W  452  10.265   2.345  14.536
35193W        W  453  11.420   6.318   0.836
35194W        W  454   6.793  26.978   0.440
35195W        W  455  14.692  34.858   0.858
35196W        W  456  24.740  33.479  12.607
35197W        W  457  37.171  19.620  12.200
35198W        W  458  16.609   0.953   3.621
35199W        W  459  27.707  21.528   1.234
35200W        W  460  16.367  44.955  13.139
35201W        W  461  41.322  13.764   0.955
35202W        W  462  12.412  43.849   0.882
35203W        W  463  43.982  14.780   3.711
35204W        W  464  17.015  41.353  14.483
35205W        W  465  12.335   1.770   0.770
35206W        W  466   3.303  15.866   1.337
35207W        W  467  15.333  23.762   0.277
35208W        W  468   1.107   9.176  11.105
35209W        W  469  16.601  15.328  10.803
35210W        W  470  40.607  40.632   2.640
35211W        W  471   2.590  18.233   9.956
35212W        W  472   3.246  14.703   2.207
35213W        W  473  29.260  23.052   1.272
35214W        W  474  43.259  10.257  10.250
35215W        W  475  31.395   4.281  10.688
35216W        W  476  10.861  32.477   1.523
35217W        W  477   5.796  19.640  13.122
35218W        W  478  23.958   4.699   0.664
35219W        W  479  34.202   0.735  12.897
35220W        W  480  44.856  13.667   1.814
35221W        W  481  35.378  33.147   2.205
35222W        W  482  12.335  38.095   3.380
35223W        W  483  22.491  15.225   2.226
35224W        W  484  16.533   3.424  13.460
35225W        W  485  18.685   8.410   4.651
35226W        W  486  40.796  16.318   0.379
35227W        W  487   5.352  44.477  13.071
35228W        W  488  25.193  31.863   1.969
35229W        W  489   3.862  21.529   3.796
35230W        W  490  44.735  16.813   2.319
35231W        W  491  30.293  40.653  14.105
35232W        W  492  11.870  12.878   0.793
35233W        W  493  14.821  42.048  13.291
35234W        W  494   2.982  33.428   2.017
35235W        W  495  44.045  36.417  10.645
35236W        W  496  44.808  19.029  13.762
35237W        W  497  34.389  29.631   1.466
35238W        W  498   7.761  28.984   2.161
35239W        W  499  22.284  39.809  11.964
35240W        W  500  13.316   6.856  13.454
35241W        W  501   2.890  21.163   3.227
35242W        W  502  10.837  44.301   2.832
35243W        W  503  12.626  43.846  12.389
35244W        W  504  30.410  42.056  11.516
35245W        W  505  39.761  30.699   2.742
35246W        W  506  37.170  25.133  10.298
35247W        W  507  38.593  40.313  12.021
35248W        W  508   4.993  28.929  12.452
35249W        W  509   7.939  36.594  12.058
35250W        W  510  28.270  25.564  13.876
35251W        W  511  12.699  25.473   4.571
35252W        W  512   0.694  17.584  10.363
35253W        W  513  37.961   9.495  11.707
35254W        W  514  15.586  16.615  10.367
35255W        W  515  16.090  33.539  13.162
35256W        W  516   7.100   1.336  14.287
35257W        W  517  22.515  17.248  13.306
35258W        W  518  17.776  12.271   4.775
35259W        W  519  19.827   3.911  13.400
35260W        W  520   7.731   7.910   0.071
35261W        W  521  44.103   8.466   1.289
35262W        W  522  38.059  32.510   2.830
35263W        W  523  33.485   6.848   1.770
35264W        W  524  14.748  19.525   3.612
35265W        W  525  12.413  42.977   3.685
35266W        W  526  36.629  39.544   0.393
35267W        W  527  36.777  28.335  14.980
35268W        W  528  25.161   9.137   4.679
35269W        W  529  37.509  40.850   1.263
35270W        W  530  29.926   9.399  14.539
35271W        W  531   8.141  15.079   4.554
35272W        W  532   3.842   9.085  12.740
35273W        W  533   6.435  31.927   3.685
35274W        W  534   9.234  41.970  13.157
35275W        W  535   0.484  29.099   2.230
35276W        W  536  42.494  27.198   1.676
35277W        W  537  12.936   5.166   3.629
35278W        W  538  18.267  17.210   1.230
35279W        W  539  37.299  43.827   0.985
35280W        W  540   4.495   7.949   0.666
35281W        W  541  20.206  10.153   2.800
35282W        W  542  33.738  15.979  10.229
35283W        W  543  34.368  10.844  12.025
35284W        W  544  26.965  21.307  12.155
35285W        W  545   0.256  19.690  14.110
35286W        W  546  10.329  33.119  13.888
35287W        W  547  29.697  43.506  12.910
35288W        W  548  13.148  18.466   4.441
35289W        W  549  43.074   4.297   1.729
35290W        W  550  16.156   5.998  12.547
35291W        W  551  40.327  31.678  13.485
35292W        W  552  29.166   5.903  10.691
35293W        W  553  29.029   6.916  14.459
35294W        W  554  37.461  39.940  13.121
35295W        W  555  10.418   6.730   2.264
35296W        W  556  24.680  30.956  12.049
35297W        W  557  43.728  26.235   1.821
35298W        W  558  36.607   1.473  13.491
35299W        W  559   9.936   8.849  13.438
35300W        W  560  38.408  11.179   2.112
35301W        W  561  15.320  27.014  14.975
35302W        W  562  13.862  42.723   1.303
35303W        W  563  15.360   6.710  12.517
35304W        W  564   8.285  28.041   4.912
35305W        W  565   8.924   0.508   4.659
35306W        W  566  38.443  21.862  14.131
35307W        W  567  32.535   8.765  12.517
35308W        W  568  18.756  31.910   1.852
35309W        W  569  10.750  22.362  13.252
35310W        W  570  11.275  38.508   1.771
35311W        W  571  15.047  36.194   2.632
35312W        W  572  40.916   3.305  13.467
35313W        W  573  19.746  39.778   2.193
35314W        W  574  26.577   3.318   4.434
35315W        W  575   3.473  24.614  14.016
35316W        W  576   2.557  23.645   3.478
35317W        W  577  16.350  17.715   1.180
35318W        W  578  36.849  23.712  12.451
35319W        W  579   2.232  19.042  11.145
35320W        W  580  22.735   6.813   2.244
35321W        W  581  39.550  12.194   1.923
35322W        W  582  12.268  43.535  10.509
35323W        W  583  10.813  17.205   3.687
35324W        W  584  38.467  36.734   4.797
35325W        W  585  17.282  36.009  12.969
35326W        W  586  39.771  17.542   4.523
35327W        W  587  19.537  15.626   1.793
35328W        W  588   5.212  23.685  13.504
35329W        W  589  18.412  32.136  11.789
35330W        W  590  33.512   2.828  11.867
35331W        W  591  38.299   6.347   3.973
35332W        W  592   2.477   4.253  12.466
35333W        W  593   9.655   3.338  14.501
35334W        W  594  22.091  12.381   1.866
35335W        W  595  21.799   9.748   4.597
35336W        W  596  44.102  32.996   2.184
35337W        W  597  28.597  20.752  11.656
35338W        W  598  39.960  30.729  14.847
35339W        W  599  31.923  17.770   3.293
35340W        W  600  32.867   2.802  10.639
35341W        W  601  10.111  22.621   2.711
35342W        W  602  34.954  11.834  12.799
35343W        W  603  13.766  12.379  14.965
35344W        W  604  32.539  15.766   4.603
35345W        W  605  15.720  12.300   2.446
35346W        W  606  23.455  22.717  10.320
35347W        W  607  42.592   8.303  11.485
35348W        W  608  16.218   9.729  10.936
35349W        W  609   4.009  12.079  14.619
35350W        W  610   0.784  28.606   4.903
35351W        W  611  12.174  26.438  13.300
35352W        W  612  17.195  11.271  14.373
35353W        W  613   5.753  24.915  12.926
35354W        W  614  24.905  12.574   4.503
35355W        W  615  41.332   3.838  12.581
35356W        W  616  11.830  25.762   4.436
35357W        W  617  43.274  42.532   2.820
35358W        W  618   3.701  17.660  11.000
35359W        W  619  14.101  23.734  13.399
35360W        W  620   5.939  43.419   3.673
35361W        W  621  15.698  35.106  13.459
35362W        W  622  41.001   9.194  11.239
35363W        W  623  18.489  40.963  13.889
35364W        W  624   8.205   3.189  14.289
35365W        W  625  35.824  36.507  11.540
35366W        W  626   0.743  37.083   0.769
35367W        W  627  20.057  19.808  12.309
35368W        W  628  25.066  12.721   0.925
35369W        W  629  17.513  32.348   2.353
35370W        W  630  28.803   5.940   4.219
35371W        W  631  26.348   0.440  14.668
35372W        W  632  33.879   4.466  13.396
35373W        W  633  29.435  19.688   1.339
35374W        W  634  10.060  13.639  13.831
35375W        W  635  32.648  22.552   1.125
35376W        W  636  12.802  28.518   9.952
35377W        W  637  21.647  43.288   3.747
35378W        W  638  42.605   6.857   3.008
35379W        W  639   9.302  28.598  13.904
35380W        W  640  30.884   6.703  14.291
35381W        W  641   5.383  30.491  14.847
35382W        W  642  40.034  34.921  13.489
35383W        W  643  23.588   5.521   4.079
35384W        W  644  11.475  14.679   2.715
35385W        W  645   7.008  30.597   0.745
35386W        W  646  33.844   4.226  12.391
35387W        W  647   7.628  20.973   4.066
35388W        W  648  28.885  19.997  10.109
35389W        W  649  37.519  41.252   3.754
35390W        W  650   3.558   4.495   3.378
35391W        W  651  22.098  34.446  14.075
35392W        W  652  43.552  23.340  14.792
35393W        W  653  13.029   7.696  14.898
35394W        W  654  43.820  13.092   0.801
35395W        W  655  30.584  37.280   4.681
35396W        W  656   5.639   5.993  12.477
35397W        W  657  13.178  39.738  14.727
35398W        W  658   3.968  36.314   0.700
35399W        W  659  25.674  43.738  14.387
35400W        W  660  33.820  39.742   4.176
35401W        W  661   2.968  18.071  14.227
35402W        W  662  24.469   4.758  14.874
35403W        W  663   0.781  27.919   4.042
35404W        W  664  23.445   6.842  10.444
35405W        W  665  38.568   5.394  14.129
35406W        W  666  23.712  12.588   3.255
35407W        W  667  33.873  10.955  12.838
35408W        W  668  27.490  22.723   1.767
35409W        W  669   2.494  10.392   4.068
35410W        W  670   2.415  18.158   3.406
35411W        W  671  27.235   2.885   2.704
35412W        W  672   8.702   0.379   1.357
35413W        W  673   8.285  13.847   0.817
35414W        W  674  15.582  15.712   0.882
35415W        W  675   6.896  43.696   4.188
35416W        W  676   1.921  26.744   5.390
35417W        W  677  43.580  17.249   4.122
35418W        W  678  19.312  10.609   4.177
35419W        W  679  19.205   9.636   3.671
35420W        W  680  28.658  29.639  14.424
35421W        W  681  32.365  13.116   3.216
35422W        W  682  20.200  10.201  14.818
35423W        W  683  26.604   0.577   3.221
35424W        W  684   5.221   8.260   1.855
35425W        W  685   8.473  39.635   3.648
35426W        W  686  37.221   5.808   2.912
35427W        W  687  13.351  14.671  14.933
35428W        W  688  37.109  44.425  11.753
35429W        W  689   5.141  24.946   1.748
35430W        W  690  34.289  20.143   1.815
35431W        W  691   9.288  33.224  11.519
35432W        W  692  39.669  20.590  14.840
35433W        W  693  22.518   4.865   1.388
35434W        W  694  31.485  30.750  12.197
35435W        W  695   3.896  15.193  10.591
35436W        W  696  38.253  18.558  13.444
35437W        W  697  28.090  27.142   3.241
35438W        W  698   9.801   1.857  14.557
35439W        W  699  20.885  35.177   0.213
35440W        W  700  22.997  15.085  11.310
35441W        W  701  39.361  26.689   9.806
35442W        W  702  31.934  29.009   3.418
35443W        W  703  22.674   8.845   2.925
35444W        W  704   7.462  10.638  13.820
35445W        W  705  16.648   4.788   0.314
35446W        W  706  21.497  18.236  12.187
35447W        W  707  42.322  42.016  14.852
35448W        W  708  11.634   8.394   4.584
35449W        W  709  40.971  43.767   1.944
35450W        W  710  26.558  30.125   4.592
35451W        W  711   3.811  34.097   1.895
35452W        W  712   5.861  39.586  11.085
35453W        W  713   3.905  36.683   1.074
35454W        W  714   0.657  25.689  13.803
35455W        W  715  31.403  17.361  11.649
35456W        W  716   9.721   7.623   1.388
35457W        W  717  26.625  25.556  11.131
35458W        W  718  15.718   4.326   1.781
35459W        W  719  37.345  12.622   0.732
35460W        W  720  20.345  11.067   1.754
35461W        W  721  18.753  22.086   2.236
35462W        W  722  25.252  42.950  10.674
35463W        W  723  43.235  14.260  11.918
35464W        W  724  17.142  27.675   4.599
35465W        W  725  23.585  34.126   3.282
35466W        W  726  22.926   8.177   2.133
35467W        W  727  39.445  42.716  13.589
35468W        W  728  21.251  39.763  14.956
35469W        W  729   3.276  43.382  10.656
35470W        W  730  39.255  30.790   2.682
35471W        W  731  25.304   7.215   2.341
35472W        W  732   5.253  37.981   2.905
35473W        W  733   3.757  27.752   2.695
35474W        W  734   5.176  41.896  13.313
35475W        W  735  23.108  12.732  10.868
35476W        W  736   8.757  34.958  14.169
35477W        W  737  16.302  27.564  14.949
35478W        W  738  22.522  21.541   1.377
35479W        W  739  33.160   5.408  11.031
35480W        W  740  29.440  26.233   4.109
35481W        W  741   6.522  34.073  13.686
35482W        W  742  41.770  16.787  10.830
35483W        W  743  38.396  28.980  12.283
35484W        W  744   7.813  32.926  14.902
35485W        W  745  19.255  15.764  12.028
35486W        W  746   4.145   7.665   2.172
35487W        W  747   6.942  12.210  13.010
35488W        W  748   9.718  31.601  14.348
35489W        W  749  35.077  42.784   3.671
35490W        W  750  19.147  12.805   0.312
35491W        W  751  31.757   1.430  10.375
35492W        W  752  15.492  31.911  11.460
35493W        W  753  26.182  44.492   3.591
35494W        W  754  37.376  26.874  12.380
35495W        W  755  20.709  35.154  13.830
35496W        W  756  36.365  38.070   0.444
35497W        W  757  19.222  28.940  11.920
35498W        W  758  25.684  35.047   1.708
35499W        W  759   1.748  20.901  13.307
35500W        W  760  44.822  30.354   0.194
35501W        W  761  10.759  12.671   2.632
35502W        W  762   3.019   1.054  11.772
35503W        W  763   3.661  41.645  13.912
35504W        W  764  33.058  25.980   0.494
35505W        W  765  44.058  25.133  11.678
35506W        W  766  29.235  20.238  12.792
35507W        W  767   5.230  22.476   0.234
35508W        W  768  30.855   8.257   3.235
35509W        W  769  36.305  20.348   0.203
35510W        W  770  18.160  37.910   0.771
35511W        W  771  15.005  17.108  13.904
35512W        W  772  37.964  12.434   1.558
35513W        W  773  19.659   9.169   3.346
35514W        W  774  43.247  29.160   0.510
35515W        W  775  11.835  24.086  14.224
35516W        W  776   0.336  15.282  14.352
35517W        W  777  37.930  34.253   2.438
35518W        W  778   7.635   7.247  11.893
35519W        W  779  15.798  10.038   2.796
35520W        W  780  28.028  43.734   0.437
35521W        W  781   6.778  27.972  12.161
35522W        W  782  38.319  29.371   1.424
35523W        W  783  34.767  15.584  11.594
35524W        W  784   4.643  24.236  14.854
35525W        W  785  39.259  24.710  14.910
35526W        W  786  10.020  33.422   5.058
35527W        W  787  21.330  30.393   0.269
35528W        W  788  41.289  23.117  13.021
35529W        W  789   9.438  42.809   1.946
35530W        W  790   6.772  44.161   3.281
35531W        W  791  11.295  14.862  12.596
35532W        W  792   9.342  15.774   2.206
35533W        W  793   3.395   7.823   0.631
35534W        W  794   0.238  10.739  11.950
35535W        W  795  36.006  44.041  10.705
35536W        W  796  27.849  42.743   5.097
35537W        W  797   9.193  40.297   1.297
35538W        W  798  19.357  42.993   4.338
35539W        W  799  32.158   3.922   2.190
35540W        W  800  27.764  41.486   2.800
35541W        W  801  38.589  39.616  10.938
35542W        W  802  14.422  21.077  14.793
35543W        W  803  26.252  29.419   3.754
35544W        W  804   4.808  23.039   1.274
35545W        W  805  37.882  15.662  14.390
35546W        W  806   9.494  10.672  10.755
35547W        W  807   4.718  35.187  13.941
35548W        W  808  22.650  18.110  14.818
35549W        W  809   4.385  32.045   2.118
35550W        W  810   0.737  18.485  11.284
35551W        W  811  44.308  14.267   9.979
35552W        W  812  29.923   3.541  10.146
35553W        W  813  33.884  17.200   3.556
35554W        W  814   4.432  30.800   4.721
35555W        W  815   8.735  13.191   1.387
35556W        W  816  19.252  21.765  12.507
35557W        W  817   7.209  23.223  10.697
35558W        W  818  44.826   7.403  13.020
35559W        W  819  37.928   7.238  12.075
35560W        W  820  10.271  37.444   0.300
35561W        W  821  17.035  14.331  11.553
35562W        W  822   3.479   5.408  12.840
35563W        W  823  12.334  21.773   3.115
35564W        W  824  35.365  21.270   2.569
35565W        W  825  31.132  16.121   3.755
35566W        W  826  33.305  42.827   0.555
35567W        W  827  13.230  11.454   2.255
35568W        W  828  28.693  30.382  13.001
35569W        W  829  13.746  33.163   0.500
35570W        W  830  35.503  28.417   3.897
35571W        W  831  25.004  42.665   1.417
35572W        W  832  42.906  43.528   3.611
35573W        W  833   4.479  29.929   4.322
35574W        W  834   0.290   8.232   3.352
35575W        W  835  18.705   2.779  13.311
35576W        W  836  25.558  25.714   1.732
35577W        W  837   6.210  31.923   2.694
35578W        W  838  11.556  43.890   3.970
35579W        W  839  38.716  28.706  12.643
35580W        W  840  16.828   7.430   3.771
35581W        W  841   6.972  21.972   2.668
35582W        W  842  22.673   6.871  11.236
35583W        W  843  37.642  39.446   0.640
35584W        W  844  44.649  37.918   2.019
35585W        W  845  19.687  30.173  12.502
35586W        W  846   5.653  36.367   0.965
35587W        W  847   1.713  19.049  13.240
35588W        W  848  17.988  29.388  12.907
35589W        W  849  40.988  43.445   0.459
35590W        W  850  13.637  37.211  10.733
35591W        W  851  44.283  21.040   4.518
35592W        W  852  19.173  40.471   3.647
35593W        W  853  38.135   7.646   2.217
35594W        W  854  16.919  39.524   4.131
35595W        W  855  29.974   1.726   3.878
35596W        W  856  11.353  27.926  11.048
35597W        W  857  16.589  36.134   4.249
35598W        W  858  15.785  31.944  13.017
35599W        W  859  31.375  33.422  13.123
35600W        W  860  22.333  22.541  14.862
35601W        W  861  29.979  29.195  10.809
35602W        W  862  18.056  15.314   1.719
35603W        W  863  30.646  21.953  13.387
35604W        W  864  32.051   9.294   2.813
35605W        W  865  16.332   0.885  11.636
35606W        W  866  33.888  11.140   2.213
35607W        W  867  18.768  21.325   3.345
35608W        W  868   1.511  20.685  11.043
35609W        W  869  30.615  31.948  11.388
35610W        W  870   7.963  31.549   0.889
35611W        W  871  27.017  11.220   0.325
35612W        W  872   0.762  17.527   3.765
35613W        W  873  14.098  17.524   2.338
35614W        W  874  25.533  12.208   0.948
35615W        W  875  20.736   9.545   0.018
35616W        W  876  35.965  28.432   0.427
35617W        W  877  20.249  10.526   4.388
35618W        W  878  42.031   7.261  13.111
35619W        W  879  26.437  35.854  12.667
35620W        W  880  30.991  33.952   1.717
35621W        W  881  36.666   4.944   3.997
35622W        W  882  24.844  13.262   2.667
35623W        W  883  30.242  33.479  14.080
35624W        W  884  10.579  36.030  12.147
35625W        W  885  31.536   3.240   2.624
35626W        W  886  16.625   2.279   4.596
35627W        W  887  22.032  33.376  14.750
35628W        W  888  14.134  37.627  13.998
35629W        W  889  21.669  41.617  10.713
35630W        W  890  43.773  17.672   2.752
35631W        W  891  24.484  36.473   2.911
35632W        W  892  11.761  38.579   4.582
35633W        W  893  39.414  23.438  12.150
35634W        W  894  16.595   4.581   2.460
35635W        W  895  15.203  31.355   3.752
35636W        W  896  21.603  32.966   2.608
35637W        W  897  16.660  41.368   4.359
35638W        W  898  30.075  32.895   1.799
35639W        W  899  34.434  43.661  11.656
35640W        W  900  30.436  34.952  14.841
35641W        W  901  17.005  44.770  14.726
35642W        W  902  14.674  23.105   0.485
35643W        W  903  18.130  25.731   3.146
35644W        W  904   0.028  31.463  12.449
35645W        W  905  43.566  33.360  12.511
35646W        W  906  36.718   0.233   4.958
35647W        W  907  37.880   9.117   1.819
35648W        W  908  16.505   9.449  11.266
35649W        W  909  11.962  13.834  14.989
35650W        W  910  21.499  42.761  14.898
35651W        W  911  23.463  18.909  13.828
35652W        W  912  44.776  22.526   2.144
35653W        W  913  21.769   4.707   0.519
35654W        W  914  32.132  38.443   0.359
35655W        W  915   2.930  22.002  12.032
35656W        W  916  40.293  21.068   2.332
35657W        W  917  29.385  23.955  11.265
35658W        W  918  21.512  29.061   2.733
35659W        W  919  19.015  20.976  14.016
35660W        W  920  28.594  39.508  12.885
35661W        W  921  41.468  18.142   1.405
35662W        W  922  15.173  34.374   1.885
35663W        W  923  33.474  42.965  12.538
35664W        W  924   7.895  25.746   0.787
35665W        W  925  39.934  17.359   2.267
35666W        W  926  38.451   1.980   9.883
35667W        W  927  44.858   6.762  11.417
35668W        W  928   1.800  14.412   3.621
35669W        W  929  27.291   8.125   4.230
35670W        W  930  14.848  39.832  14.080
35671W        W  931  14.822  38.961   2.905
35672W        W  932   6.735  44.244   0.653
35673W        W  933  37.361  40.407   4.567
35674W        W  934  19.644  29.969   4.821
35675W        W  935  26.977  20.140  13.553
35676W        W  936  36.867  13.724  13.964
35677W        W  937  27.354  39.818   3.104
35678W        W  938  20.761  18.167  14.009
35679W        W  939  42.147  10.761  10.309
35680W        W  940  14.180  19.317  13.358
35681W        W  941  27.631  36.891   4.996
35682W        W  942   1.530  26.277   2.279
35683W        W  943  38.570  18.544  14.249
35684W        W  944   0.196   8.722  11.996
35685W        W  945   4.350  31.332  14.464
35686W        W  946  14.854  13.730   3.595
35687W        W  947  15.811  14.417   3.732
35688W        W  948  10.253  16.572   4.000
35689W        W  949   6.171  25.196   2.939
35690W        W  950  37.673  31.566   4.331
35691W        W  951   5.261  19.776   4.997
35692W        W  952  38.004  14.676  11.672
35693W        W  953  38.808  18.992  14.519
35694W        W  954  13.086  12.627  12.772
35695W        W  955  44.857  29.552   4.406
35696W        W  956  11.017   1.028  12.052
35697W        W  957  19.991  35.376  14.029
35698W        W  958  14.094  22.292  11.687
35699W        W  959  10.931   3.801   3.340
35700W        W  960  32.953   2.236   1.687
35701W        W  961  12.172  36.122   3.319
35702W        W  962  42.023  31.592  12.801
35703W        W  963  22.792  38.923  11.940
35704W        W  964  11.573  17.034   3.352
35705W        W  965   8.368   3.179   0.352
35706W        W  966  13.781  42.737  10.958
35707W        W  967  32.215  29.165   0.875
35708W        W  968  31.619  25.059   0.918
35709W        W  969   7.688  11.695  10.739
35710W        W  970   8.395  38.085  11.170
35711W        W  971  24.125  16.082  12.848
35712W        W  972  17.282   1.324   0.066
35713W        W  973  43.015  20.189   4.034
35714W        W  974  10.987  44.340  10.805
35715W        W  975   0.804   6.356   3.249
35716W        W  976  35.483  43.491  13.804
35717W        W  977  31.016  37.465  10.012
35718W        W  978  18.772  41.274  13.517
35719W        W  979  29.011   1.128  13.975
35720W        W  980   9.693  23.696  12.106
35721W        W  981  31.171  24.547  11.998
35722W        W  982  31.978   7.398  10.744
35723W        W  983  39.036  20.320   3.300
35724W        W  984  41.798   5.197   1.231
35725W        W  985  26.494   2.449  12.964
35726W        W  986  22.756  26.121   4.598
35727W        W  987   0.960   3.717  14.433
35728W        W  988  42.989  18.375   0.787
35729W        W  989  44.027  31.119  10.562
35730W        W  990  22.944  23.140  11.920
35731W        W  991  30.767  26.146   1.129
35732W        W  992  36.180  22.613   3.738
35733W        W  993  27.568   0.457   3.329
35734W        W  994  28.301  30.013  11.405
35735W        W  995  32.385  33.056   0.377
35736W        W  996  31.266  16.582  10.639
35737W        W  997  12.082   7.885   1.436
35738W        W  998  31.485   8.137   1.723
35739W        W  999  17.562  40.864  12.001
35740W        W 1000  10.378  17.808  14.986
35741W        W 1001  24.677   3.946  14.472
35742W        W 1002  42.719  35.882  14.050
35743W        W 1003  39.535   7.919   2.408
35744W        W 1004  29.996   8.347   1.304
35745W        W 1005  17.987  35.852  14.833
35746W        W 1006   7.946  32.227  12.018
35747W        W 1007  26.268  28.990  11.544
35748W        W 1008   9.225  11.571   0.697
35749W        W 1009   7.931  21.528   2.271
35750W        W 1010   6.102  39.494  11.534
35751W        W 1011  40.513   3.462  13.757
35752W        W 1012  30.505  24.068  11.443
35753W        W 1013  25.687   8.556  10.524
35754W        W 1014  21.886   2.938  11.441
35755W        W 1015   2.504  41.906  12.374
35756W        W 1016  31.085   3.264   0.848
35757W        W 1017  39.369  33.470   3.199
35758W        W 1018  30.557  11.862  11.112
35759W        W 1019  42.551  27.492  12.037
35760W        W 1020   7.465   9.919  11.152
35761W        W 1021  38.966  25.461  13.344
35762W        W 1022  41.793  44.416   4.046
35763W        W 1023  20.376   8.348   3.233
35764W        W 1024  35.733  39.537  13.305
35765W        W 1025  34.641  24.615  13.949
35766W        W 1026  18.438  32.970   0.360
35767W        W 1027  38.462  12.601   2.378
35768W        W 1028  25.402   2.871  11.087
35769W        W 1029  32.080   6.507  10.773
35770W        W 1030  21.674  14.048  14.850
35771W        W 1031  16.798  30.185  14.618
35772W        W 1032  11.124  36.064  11.616
35773W        W 1033  39.846  25.627  11.418
35774W        W 1034  26.194  41.309   0.936
35775W        W 1035  29.590  22.959   4.264
35776W        W 1036  21.497   9.499   4.980
35777W        W 1037  20.741  42.153  14.255
35778W        W 1038  32.979  38.512   1.892
35779W        W 1039  25.990  26.892   1.544
35780W        W 1040  44.949  13.068   0.862
35781W        W 1041  11.249  36.485   0.023
35782W        W 1042  42.391  44.231   1.331
35783W        W 1043  11.269   3.792  12.134
35784W        W 1044  12.265   3.715  11.563
35785W        W 1045  26.278  10.673  10.711
35786W        W 1046   9.348   3.197   0.987
35787W        W 1047   2.020  27.132  12.097
35788W        W 1048  40.603  39.921   3.317
35789W        W 1049   2.017  25.972   4.196
35790W        W 1050  22.707   6.084   0.579
35791W        W 1051  44.342  10.547   0.228
35792W        W 1052   7.013  28.977   3.755
35793W        W 1053  43.922   1.870   0.874
35794W        W 1054  37.817  20.415   1.274
35795W        W 1055  23.393  36.332  14.516
35796W        W 1056  26.012  22.813   3.677
35797W        W 1057  35.608  30.941  13.531
35798W        W 1058   8.601  14.793  13.804
35799W        W 1059  44.771  14.299   3.005
35800W        W 1060  10.379  12.295   1.351
35801W        W 1061   9.674  20.655   2.186
35802W        W 1062  31.652  24.367   9.837
35803W        W 1063  40.113  12.948  12.500
35804W        W 1064  16.375   0.467   2.687
35805W        W 1065  29.664  33.113   2.254
35806W        W 1066  23.517   7.938  13.121
35807W        W 1067  18.696  32.812  14.354
35808W        W 1068   4.789   0.014  12.400
35809W        W 1069  24.175  29.995  14.461
35810W        W 1070  37.776  26.657   3.647
35811W        W 1071  36.438  11.374  11.516
35812W        W 1072  15.680  20.633  11.971
35813W        W 1073  20.166  31.491   1.207
35814W        W 1074  31.539  39.263   1.385
35815W        W 1075  20.073  30.217  10.669
35816W        W 1076  31.900  43.477   3.953
35817W        W 1077  38.956  19.739  13.119
35818W        W 1078   6.604  16.699   4.131
35819W        W 1079  28.864  17.820  14.009
35820W        W 1080  37.603  38.621  13.829
35821W        W 1081  14.741   5.819   0.703
35822W        W 1082  42.813   8.966  10.139
35823W        W 1083  10.265  30.581   1.100
35824W        W 1084  17.273  21.302   0.992
35825W        W 1085   3.986   7.119  11.152
35826W        W 1086  16.104  26.543  12.900
35827W        W 1087  27.092   9.639   3.468
35828W        W 1088   5.823  40.986  13.394
35829W        W 1089  13.582   5.244   2.081
35830W        W 1090  33.622   8.900   2.282
35831W        W 1091  17.529  19.095   0.775
35832W        W 1092  14.549   4.232  13.101
35833W        W 1093  14.463  15.694  12.479
35834W        W 1094  40.888   6.035  12.887
35835W        W 1095   9.714  37.669   0.384
35836W        W 1096  18.162  16.882   2.020
35837W        W 1097  13.371   9.661  14.531
35838W        W 1098  20.576  35.585   0.326
35839W        W 1099   0.668  32.828  11.182
35840W        W 1100   5.210  31.164  14.315
35841W        W 1101  22.779   3.086   9.808
35842W        W 1102  37.041  43.149   4.835
35843W        W 1103   4.710  19.065   2.196
35844W        W 1104  18.478   1.034  13.826
35845W        W 1105  22.710   9.390   0.869
35846W        W 1106   3.416  35.779   4.596
35847W        W 1107  34.527   1.928  14.903
35848W        W 1108  28.614  31.667   0.474
35849W        W 1109  12.286  22.464   0.382
35850W        W 1110  11.877  27.422   4.574
35851W        W 1111  22.589  33.082   0.384
35852W        W 1112  15.336   4.774  11.503
35853W        W 1113  44.272  12.074   1.733
35854W        W 1114   5.723  17.124  13.884
35855W        W 1115  32.071  19.424   4.151
35856W        W 1116  22.540  40.819   4.221
35857W        W 1117   8.498  17.283  12.179
35858W        W 1118  14.315   2.481  12.063
35859W        W 1119  36.290  30.105   2.329
35860W        W 1120  13.801  28.756  14.496
35861W        W 1121  18.315  22.596   3.349
35862W        W 1122  38.558  32.434   1.441
35863W        W 1123  23.009  34.621  11.144
35864W        W 1124  11.130   3.251  12.716
35865W        W 1125   8.256   7.301   1.786
35866W        W 1126  27.581  44.942  13.320
35867W        W 1127  37.396  22.282  13.961
35868W        W 1128   3.133  32.021   3.319
35869W        W 1129  26.132  33.843  10.723
35870W        W 1130   9.714  10.684   0.943
35871W        W 1131  21.197  33.453   2.374
35872W        W 1132  17.259   3.169   2.351
35873W        W 1133  24.686  18.206  12.126
35874W        W 1134  29.206   3.338  11.002
35875W        W 1135  21.093  39.565  11.950
35876W        W 1136  12.705  12.887   1.061
35877W        W 1137  31.852  41.769   2.936
35878W        W 1138  31.077  12.177   1.760
35879W        W 1139  37.060  19.700  11.290
35880W        W 1140  24.630  17.256   4.130
35881W        W 1141  19.517  42.368  10.959
35882W        W 1142  29.406  29.581   1.542
35883W        W 1143  44.909  22.164  12.198
35884W        W 1144  24.145  12.590   4.264
35885W        W 1145   4.948  31.689   4.469
35886W        W 1146  23.126  10.689  13.921
35887W        W 1147  28.605   3.968   2.758
35888W        W 1148  18.676   6.739  12.627
35889W        W 1149  37.777   3.745  14.126
35890W        W 1150  11.151  34.012   4.542
35891W        W 1151  15.831  24.437  13.228
35892W        W 1152  14.554  23.630   1.974
35893W        W 1153  10.795   4.715  10.728
35894W        W 1154  19.520  22.440  11.121
35895W        W 1155  15.381  37.972  13.278
35896W        W 1156   4.145   9.668  14.030
35897W        W 1157  24.941   6.797   3.365
35898W        W 1158  40.465   9.489  11.600
35899W        W 1159  14.179  32.625   1.205
35900W        W 1160  27.534  40.489   4.851
35901W        W 1161   1.915  19.670  14.011
35902W        W 1162  28.185  28.591   0.417
35903W        W 1163  40.212   3.153  14.784
35904W        W 1164  26.956   4.406  10.243
35905W        W 1165  41.841  20.234   1.956
35906W        W 1166  35.436  31.068  13.073
35907W        W 1167  43.398  17.679   1.798
35908W        W 1168   5.848  20.948  13.814
35909W        W 1169  18.272  20.766  10.804
35910W        W 1170  24.593  17.699  12.093
35911W        W 1171  19.330   1.351   0.270
35912W        W 1172  35.300   1.449  11.630
35913W        W 1173  39.717   0.735  11.557
35914W        W 1174  17.923  13.348   0.734
35915W        W 1175  29.642  43.890   1.185
35916W        W 1176   9.211  10.521   4.564
35917W        W 1177  23.579  28.391   2.691
35918W        W 1178  26.054  29.012  12.328
35919W        W 1179  25.161  16.955   4.936
35920W        W 1180  27.989   9.143   4.161
35921W        W 1181  33.027  10.157  12.772
35922W        W 1182  21.065  35.598  10.410
35923W        W 1183  38.014  36.604  10.594
35924W        W 1184   9.165  37.527  14.437
35925W        W 1185  32.167  30.576   0.429
35926W        W 1186  14.710   0.992   3.796
35927W        W 1187  41.204   7.887  13.968
35928W        W 1188  34.652  37.507   1.245
35929W        W 1189  21.017  19.685  14.963
35930W        W 1190  35.114  21.931   1.754
35931W        W 1191  21.807  40.321  14.308
35932W        W 1192  44.983  40.899  13.773
35933W        W 1193   6.326  27.211   1.232
35934W        W 1194  30.416  19.107   1.917
35935W        W 1195  27.069  41.851   0.220
35936W        W 1196   9.548  18.727  14.311
35937W        W 1197  17.378  23.884   4.409
35938W        W 1198  42.269  34.355  10.647
35939W        W 1199  12.795  41.100   2.404
35940W        W 1200  25.749   0.999   3.268
35941W        W 1201  22.674  37.724   3.819
35942W        W 1202  44.379  35.115  14.907
35943W        W 1203  14.211  14.714   4.046
35944W        W 1204  43.616  12.384   3.784
35945W        W 1205  10.273  16.747   3.511
35946W        W 1206  29.697  29.076   0.846
35947W        W 1207  38.859  13.973  14.765
35948W        W 1208  43.765  34.423  13.895
35949W        W 1209  33.017  30.423   2.164
35950W        W 1210  32.124   8.233   2.892
35951W        W 1211   5.842  33.462  13.409
35952W        W 1212   7.732  18.970   0.349
35953W        W 1213  20.165   9.092   2.720
35954W        W 1214  18.504  39.927  13.900
35955W        W 1215  35.032  29.649   0.749
35956W        W 1216  41.585  24.689   1.192
35957W        W 1217  42.286  34.875   0.358
35958W        W 1218   1.038   5.972   2.202
35959W        W 1219  16.241  29.793  11.791
35960W        W 1220  19.281   4.918   0.349
35961W        W 1221  14.145  25.913  13.564
35962W        W 1222  41.306  44.135   1.179
35963W        W 1223  16.582   4.932  10.342
35964W        W 1224   7.807   7.151  12.899
35965W        W 1225   4.924  24.185  13.520
35966W        W 1226   1.595  19.310  12.823
35967W        W 1227  14.682  34.297  10.155
35968W        W 1228  21.185  18.097  11.799
35969W        W 1229  17.407  14.293  10.278
35970W        W 1230  37.304   5.568   4.079
35971W        W 1231  28.490  15.766  11.430
35972W        W 1232  37.991  27.319   2.628
35973W        W 1233  16.892  35.826  14.803
35974W        W 1234  34.657  17.773  13.424
35975W        W 1235  16.114   2.918   4.220
35976W        W 1236  38.045  38.444  12.404
35977W        W 1237  42.393  18.341  13.837
35978W        W 1238  11.723   9.759   0.026
35979W        W 1239   6.944  23.332  13.454
35980W        W 1240  33.110  40.707   0.565
35981W        W 1241   2.912  11.090   1.678
35982W        W 1242  42.649  22.189  11.365
35983W        W 1243  44.939  41.444   5.035
35984W        W 1244  32.793   9.630  13.464
35985W        W 1245  17.904  40.475  11.895
35986W        W 1246   3.342  13.188   2.849
35987W        W 1247  34.849  21.136   2.428
35988W        W 1248  16.155  18.701   0.989
35989W        W 1249  36.386  16.323   3.682
35990W        W 1250  14.685  32.915   2.461
35991W        W 1251  41.842  43.559   0.185
35992W        W 1252  36.284  34.862   2.202
35993W        W 1253  23.723  23.474   4.686
35994W        W 1254   0.814  39.891   3.103
35995W        W 1255  30.526  39.646  12.220
35996W        W 1256  24.298  28.676  13.690
35997W        W 1257  29.750  14.938  10.826
35998W        W 1258  35.147  12.720   2.309
35999W        W 1259   1.546  19.552  10.838
36000W        W 1260  14.388  27.218   4.272
36001W        W 1261   0.027  34.531  11.520
36002W        W 1262  42.588   5.256   1.816
36003W        W 1263  36.480  13.255  10.414
36004W        W 1264   8.967  41.388   2.826
36005W        W 1265  34.283  41.469  11.131
36006W        W 1266  11.705  19.696   2.818
36007W        W 1267   2.819  37.847   3.182
36008W        W 1268  16.622  19.769   1.351
36009W        W 1269  32.495  43.667  13.340
36010W        W 1270  27.495  38.661  11.096
36011W        W 1271  22.052  23.055   4.675
36012W        W 1272  38.312  36.369  14.733
36013W        W 1273  35.908  39.366  14.465
36014W        W 1274  19.566  11.613  14.309
36015W        W 1275  42.244  20.302   1.646
36016W        W 1276   1.662   9.151  11.149
36017W        W 1277  20.162  40.776  12.495
36018W        W 1278  29.714  17.952  12.348
36019W        W 1279  24.409   6.362   1.002
36020W        W 1280  36.415   3.239   0.070
36021W        W 1281   3.428  22.782  11.486
36022W        W 1282  24.620  43.406   4.990
36023W        W 1283  39.353  29.563  12.030
36024W        W 1284  38.920   8.184   2.234
36025W        W 1285   4.504  37.164  13.900
36026W        W 1286  16.381   7.326   4.971
36027W        W 1287   5.741  17.680  12.518
36028W        W 1288   7.387   3.824   1.746
36029W        W 1289   5.784  16.967   0.889
36030W        W 1290  18.127  22.024  13.755
36031W        W 1291   6.374  14.481   2.270
36032W        W 1292  22.470  26.265   3.115
36033W        W 1293  34.403  40.214   1.653
36034W        W 1294  42.387  21.576   2.428
36035W        W 1295  36.624  27.371   0.877
36036W        W 1296   7.118   8.650   3.123
36037W        W 1297  30.092  26.570   1.861
36038W        W 1298  37.137  38.128  13.280
36039W        W 1299  28.912  11.078  11.249
36040W        W 1300  10.719  12.798  11.993
36041W        W 1301  34.128  34.758  10.755
36042W        W 1302  10.307  16.106  14.454
36043W        W 1303  17.523  39.967   4.620
36044W        W 1304   4.316  31.436   3.271
36045W        W 1305  44.715  27.152   2.846
36046W        W 1306  23.015  43.971   1.805
36047W        W 1307  36.151  23.192  14.382
36048W        W 1308  16.395  37.559  13.713
36049W        W 1309  43.530   8.804   3.432
36050W        W 1310  33.653  23.642  12.865
36051W        W 1311  37.315  36.891   0.099
36052W        W 1312  23.203  44.071  11.828
36053W        W 1313  37.322   9.049   2.802
36054W        W 1314  44.721  17.746   2.379
36055W        W 1315  21.251  30.437   1.186
36056W        W 1316  31.976  15.046   0.829
36057W        W 1317   9.954   9.962  14.008
36058W        W 1318  20.290  28.905  14.947
36059W        W 1319  20.541  41.352   2.260
36060W        W 1320   1.921   3.222   1.306
36061W        W 1321  44.008  33.897   0.381
36062W        W 1322  10.121  21.158  10.982
36063W        W 1323  25.794  27.519  13.478
36064W        W 1324  34.462  39.401   0.043
36065W        W 1325   4.027  26.540  13.004
36066W        W 1326   3.373  29.637   0.896
36067W        W 1327  34.280   0.598  14.731
36068W        W 1328  34.997   8.885  10.246
36069W        W 1329  19.010  15.825   0.932
36070W        W 1330  13.244   7.766  13.851
36071W        W 1331  39.035  20.357  13.976
36072W        W 1332  29.021  11.399   1.013
36073W        W 1333  20.005   2.866   3.713
36074W        W 1334  26.887  26.505  12.112
36075W        W 1335  17.828  23.587   4.266
36076W        W 1336  23.228   2.502   2.509
36077W        W 1337  14.788  13.023  12.527
36078W        W 1338  41.911  28.877   2.821
36079W        W 1339  25.567  40.828   4.071
36080W        W 1340  29.787   0.160  13.563
36081W        W 1341  17.143  34.248  14.501
36082W        W 1342  13.267  16.051   2.178
36083W        W 1343  26.254   3.977   4.978
36084W        W 1344  28.560  24.736   1.908
36085W        W 1345  22.794  17.219  13.761
36086W        W 1346  15.980  11.101  13.995
36087W        W 1347  11.302  39.302   2.194
36088W        W 1348   8.903  12.840  11.883
36089W        W 1349   3.593  14.589  14.443
36090W        W 1350  21.720  21.278   4.628
36091W        W 1351   1.528   3.296  13.527
36092W        W 1352  40.613  22.183  10.961
36093W        W 1353  37.875  22.548   1.884
36094W        W 1354  41.424   9.795  13.096
36095W        W 1355  22.626   1.560   4.506
36096W        W 1356  36.363  22.896   2.736
36097W        W 1357  35.196  18.302   1.883
36098W        W 1358  21.196  17.004   4.112
36099W        W 1359   6.709  30.589   1.700
36100W        W 1360  36.493  43.539   2.255
36101W        W 1361   6.064  21.589   2.620
36102W        W 1362  42.977  22.936  14.154
36103W        W 1363  42.928   9.799   1.185
36104W        W 1364   8.380  16.787  12.013
36105W        W 1365  18.204   0.268   5.017
36106W        W 1366   2.912  42.465   2.712
36107W        W 1367  27.151  34.556  10.072
36108W        W 1368  43.011  35.399   3.329
36109W        W 1369  26.097  26.651   2.474
36110W        W 1370  38.317  12.868   2.805
36111W        W 1371   5.629   7.405   1.703
36112W        W 1372  41.506  28.394  11.046
36113W        W 1373  27.885  18.407   3.388
36114W        W 1374  11.851   4.020  11.482
36115W        W 1375  39.223  25.633   0.815
36116W        W 1376  12.790   1.193  10.567
36117W        W 1377  37.040  16.331  12.555
36118W        W 1378  17.295  21.032  12.377
36119W        W 1379  36.657  16.087  14.184
36120W        W 1380   5.402  32.044   4.557
36121W        W 1381  12.707  38.051  11.663
36122W        W 1382  33.837  35.045  14.346
36123W        W 1383  18.685   0.575  13.697
36124W        W 1384  10.287  22.627  11.633
36125W        W 1385  13.410  13.156   3.326
36126W        W 1386  42.440   0.308  10.988
36127W        W 1387  12.805  21.747   4.854
36128W        W 1388   8.814  18.660   4.201
36129W        W 1389   4.305  25.251   3.109
36130W        W 1390   1.768  44.918  11.320
36131W        W 1391  18.260  38.598   4.894
36132W        W 1392  28.602   9.127   1.085
36133W        W 1393  39.738  29.079  12.755
36134W        W 1394  43.809  24.840   2.774
36135W        W 1395  21.640  36.477   3.594
36136W        W 1396  43.879  22.485  10.393
36137W        W 1397   1.019  34.986   2.847
36138W        W 1398  38.859  15.116   3.080
36139W        W 1399   0.811   6.731  11.590
36140W        W 1400  38.984  12.597   2.332
36141W        W 1401   7.450  37.322  11.696
36142W        W 1402   1.345  15.239  12.375
36143W        W 1403  40.891  37.659  12.572
36144W        W 1404  42.360  44.755   2.395
36145W        W 1405  21.722  37.436  14.698
36146W        W 1406   9.512   3.976  12.098
36147W        W 1407  39.357  24.613   0.741
36148W        W 1408  20.708  34.869   2.832
36149W        W 1409  36.786  23.953  13.548
36150W        W 1410  44.421  17.476   3.178
36151W        W 1411   6.398  29.423   4.685
36152W        W 1412  21.578  42.397   1.424
36153W        W 1413  33.377  21.268  14.354
36154W        W 1414  27.348  18.178   2.887
36155W        W 1415   1.959  42.078  12.923
36156W        W 1416  33.466  22.996   2.182
36157W        W 1417  35.644   0.375   1.381
36158W        W 1418  39.311  32.901   0.245
36159W        W 1419  29.019  39.761  13.312
36160W        W 1420  19.751  30.048   2.933
36161W        W 1421   3.977  40.710   0.940
36162W        W 1422   8.661   1.224  10.942
36163W        W 1423  22.029   3.670  14.023
36164W        W 1424  40.761  13.827  10.364
36165W        W 1425  26.882   3.332   3.175
36166W        W 1426  41.264  29.250   1.775
36167W        W 1427  30.466   0.375   3.459
36168W        W 1428  28.198   3.355   0.781
36169W        W 1429   1.895  35.444  12.411
36170W        W 1430  31.645  15.219   0.421
36171W        W 1431   7.429  16.305  10.693
36172W        W 1432  36.891   6.362   1.655
36173W        W 1433  11.796   2.907   1.773
36174W        W 1434  32.894   8.860   0.311
36175W        W 1435  41.064  31.441  12.796
36176W        W 1436  44.474   0.968  11.582
36177W        W 1437  12.491  32.995  13.568
36178W        W 1438  37.461   3.229   4.632
36179W        W 1439  35.716  18.147   1.250
36180W        W 1440  42.284  27.163  14.837
36181W        W 1441  16.405   4.710  12.187
36182W        W 1442  36.550  44.429  13.465
36183W        W 1443  18.324   5.487   2.608
36184W        W 1444   7.683   1.049   2.735
36185W        W 1445  40.588  27.685   2.307
36186W        W 1446  39.019  19.544  14.892
36187W        W 1447  29.569   4.726   4.542
36188W        W 1448  27.607  16.586   3.919
36189W        W 1449   7.649   5.107  10.810
36190W        W 1450   3.366  39.416   3.202
36191W        W 1451  31.944  31.149  12.111
36192W        W 1452  10.263  10.623  11.339
36193W        W 1453  11.927  38.958  11.081
36194W        W 1454  21.926  39.480   3.693
36195W        W 1455  10.953  21.595   4.362
36196W        W 1456  33.139  24.694  12.915
36197W        W 1457  25.658  36.818   0.856
36198W        W 1458  36.782  24.490   3.775
36199W        W 1459  13.707   7.162   0.490
36200W        W 1460  35.438  40.601   0.623
36201W        W 1461   4.162  33.347  14.778
36202W        W 1462   6.738  28.330  11.186
36203W        W 1463  41.472  25.410  14.961
36204W        W 1464  43.274  22.998  13.365
36205W        W 1465  21.562   4.676   0.025
36206W        W 1466  19.410  43.448  13.538
36207W        W 1467  12.611  17.360  11.662
36208W        W 1468  36.813  41.928   3.826
36209W        W 1469  41.358  28.772   1.926
36210W        W 1470  18.848  32.953  12.452
36211W        W 1471   4.773  36.346   3.230
36212W        W 1472  41.012   3.984   1.782
36213W        W 1473  41.368   3.303   9.739
36214W        W 1474  35.893  38.185   0.733
36215W        W 1475  32.082   6.200  14.235
36216W        W 1476   9.536   4.808   3.750
36217W        W 1477  17.364  30.530   1.262
36218W        W 1478  24.067   2.815   2.911
36219W        W 1479  36.966  33.991   0.715
36220W        W 1480   9.022  20.534  14.378
36221W        W 1481  37.667  11.216  14.027
36222W        W 1482  30.615  20.363  12.890
36223W        W 1483  43.029  26.248   0.393
36224W        W 1484  37.723  28.659  13.454
36225W        W 1485  24.664  31.906   0.759
36226W        W 1486  38.378  35.321   1.119
36227W        W 1487  22.786  39.805  11.824
36228W        W 1488  24.445  41.549  12.996
36229W        W 1489  24.401  15.584  11.071
36230W        W 1490  24.047  36.726  11.265
36231W        W 1491  18.708  26.582  10.355
36232W        W 1492  28.433  37.661  13.669
36233W        W 1493   2.665  11.852   2.826
36234W        W 1494  12.570  39.128   4.544
36235W        W 1495   4.349  17.625   4.328
36236W        W 1496  21.999  39.882  12.936
36237W        W 1497  24.935  40.329   1.246
36238W        W 1498  28.624  10.683  11.052
36239W        W 1499  11.931   2.717  12.336
36240W        W 1500  25.591  29.045   3.787
36241W        W 1501  32.791   1.670  11.556
36242W        W 1502  35.084   9.186   0.261
36243W        W 1503  39.241  39.025   2.094
36244W        W 1504  19.418  38.560   3.116
36245W        W 1505  25.625  27.749   1.233
36246W        W 1506  29.919  31.523  10.903
36247W        W 1507  30.066  10.615  13.512
36248W        W 1508   0.948  19.025  11.424
36249W        W 1509   3.959  42.432   2.802
36250W        W 1510  23.742  12.698   2.189
36251W        W 1511  22.777  38.074   1.705
36252W        W 1512  13.122  25.108  11.463
36253W        W 1513  19.124  43.344  10.694
36254W        W 1514  27.102  44.546   2.767
36255W        W 1515  18.080  21.811   0.602
36256W        W 1516  27.250  38.997   4.399
36257W        W 1517  10.903  41.518  13.572
36258W        W 1518  23.494  19.071  12.555
36259W        W 1519  42.549  29.065  12.964
36260W        W 1520  29.831  11.325  13.672
36261W        W 1521   2.216  36.017  10.907
36262W        W 1522  18.236  32.458  13.562
36263W        W 1523  38.488  23.834  11.229
36264W        W 1524  41.175  42.426   3.670
36265W        W 1525   1.547  18.374  13.834
36266W        W 1526  44.834   9.190   1.703
36267W        W 1527  25.635  44.601  11.894
36268W        W 1528  19.939  36.451  11.108
36269W        W 1529  34.048  18.376  13.348
36270W        W 1530  44.993  26.356  12.795
36271W        W 1531   3.203  35.131  12.539
36272W        W 1532  35.326  38.903  13.706
36273W        W 1533  37.106  22.178   2.350
36274W        W 1534  30.136  33.890  10.533
36275W        W 1535  25.416  39.150  10.025
36276W        W 1536  37.969  33.123  13.452
36277W        W 1537  13.255  31.813  13.603
36278W        W 1538  40.969  44.893  11.078
36279W        W 1539   0.479  44.542  14.789
36280W        W 1540  36.943  22.106   3.787
36281W        W 1541  30.856   7.779  13.570
36282W        W 1542  30.340  14.628  13.969
36283W        W 1543  43.370   7.342   1.912
36284W        W 1544  15.561  11.158  11.064
36285W        W 1545  18.183   4.930   3.348
36286W        W 1546   4.203  19.329   5.044
36287W        W 1547  35.937  34.889   1.231
36288W        W 1548  44.977  23.144  10.684
36289W        W 1549  41.401  37.937   4.300
36290W        W 1550  30.069  29.215   3.646
36291W        W 1551   5.163  35.682   0.429
36292W        W 1552  22.507  27.985  11.247
36293W        W 1553  32.006   3.637   2.992
36294W        W 1554  14.307  17.719  10.767
36295W        W 1555  43.147  21.742  13.274
36296W        W 1556  39.944  19.159  13.831
36297W        W 1557  11.189  11.522  14.854
36298W        W 1558  38.314   7.949   1.558
36299W        W 1559  11.720   7.786   2.162
36300W        W 1560  30.589  16.736   4.112
36301W        W 1561  11.682  43.508  11.305
36302W        W 1562  17.524  40.421  12.279
36303W        W 1563   8.207   9.393   2.839
36304W        W 1564  42.547  26.612   5.148
36305W        W 1565  40.421  36.034  10.683
36306W        W 1566  10.150   2.525   1.923
36307W        W 1567   5.552   1.708   1.859
36308W        W 1568  20.692   3.272  11.919
36309W        W 1569   0.006  25.851  12.697
36310W        W 1570  20.885  12.188   4.682
36311W        W 1571  40.480  31.930   9.954
36312W        W 1572  19.473  43.322  11.071
36313W        W 1573   9.610  16.120   1.230
36314W        W 1574  13.818  38.623  12.549
36315W        W 1575  23.960   7.693  10.730
36316W        W 1576  14.222   0.508   2.351
36317W        W 1577   9.416  19.840  12.524
36318W        W 1578  27.573  12.272  14.817
36319W        W 1579  25.394  36.943   2.703
36320W        W 1580  17.172  41.455   0.874
36321W        W 1581  22.441   7.961  11.495
36322W        W 1582  18.584  36.708   3.374
36323W        W 1583  38.906   8.155   0.243
36324W        W 1584   1.471   4.295  12.390
36325W        W 1585  29.873  17.818   2.311
36326W        W 1586  41.122   6.786  11.316
36327W        W 1587  42.410  21.012  14.330
36328W        W 1588  28.774  28.046  12.965
36329W        W 1589  10.771   8.915   1.764
36330W        W 1590  37.122  28.066   0.866
36331W        W 1591   9.953  15.179   1.321
36332W        W 1592  21.992  36.514   3.093
36333W        W 1593  22.771  44.610  11.286
36334W        W 1594  19.655  35.665  12.103
36335W        W 1595  33.671   3.187   0.318
36336W        W 1596   0.447  21.422   1.662
36337W        W 1597   3.042  19.987  14.919
36338W        W 1598  18.542  27.613   1.669
36339W        W 1599  16.066   1.674   3.613
36340W        W 1600  38.749  15.283  11.227
36341W        W 1601  25.759  33.080  11.403
36342W        W 1602  33.437  35.077   5.008
36343W        W 1603  19.210  29.428  12.644
36344W        W 1604   9.114   1.308  14.505
36345W        W 1605   8.137  25.692   1.409
36346W        W 1606  43.027  26.459  13.498
36347W        W 1607  32.524  44.263  14.318
36348W        W 1608  18.785   6.247   2.254
36349W        W 1609  10.734  14.173   1.537
36350W        W 1610   9.253  43.768   0.995
36351W        W 1611  14.800   5.850   3.670
36352W        W 1612  43.322  39.309   3.244
36353W        W 1613  29.009  25.258   4.683
36354W        W 1614  29.606  34.993   0.354
36355W        W 1615   6.955  13.382  11.615
36356W        W 1616  36.759  12.210  11.063
36357W        W 1617  37.560  22.978   4.859
36358W        W 1618  39.082  16.346   2.751
36359W        W 1619  20.506  40.654   2.906
36360W        W 1620   7.744  28.613   3.584
36361W        W 1621  43.418  14.481   0.737
36362W        W 1622  11.741  22.790  12.878
36363W        W 1623  22.181  18.776   3.575
36364W        W 1624  44.310  30.112   0.317
36365W        W 1625   8.956  31.237   0.702
36366W        W 1626  41.753  44.035  10.688
36367W        W 1627  38.930  38.520  13.597
36368W        W 1628   1.362  32.376   0.387
36369W        W 1629  16.387  30.646   0.322
36370W        W 1630   0.316  30.570   3.273
36371W        W 1631   8.203  36.362   4.299
36372W        W 1632   7.228   3.977  14.877
36373W        W 1633  36.499   4.489  10.629
36374W        W 1634   9.370   9.714  14.720
36375W        W 1635  29.489  41.042   2.696
36376W        W 1636  17.557  20.569  12.006
36377W        W 1637   3.230  35.336  10.755
36378W        W 1638  23.763   6.140  14.993
36379W        W 1639  20.668   9.205   2.735
36380W        W 1640  32.937  38.155   1.526
36381W        W 1641  22.682  22.117  14.629
36382W        W 1642  36.424  28.950   3.319
36383W        W 1643   3.725  33.942  11.372
36384W        W 1644  24.792  22.553  13.820
36385W        W 1645  36.878   4.727  12.262
36386W        W 1646  19.744  11.593   2.424
36387W        W 1647  42.113   9.202   2.686
36388W        W 1648  33.947  42.514  11.713
36389W        W 1649  25.865  40.398  11.565
36390W        W 1650  34.920  11.714  14.837
36391W        W 1651  10.822  42.941  14.998
36392W        W 1652  24.507  17.172  12.111
36393W        W 1653  29.325  11.813   1.156
36394W        W 1654  24.599  10.437   4.721
36395W        W 1655  24.295  38.921   0.855
36396W        W 1656  35.139  28.286   0.343
36397W        W 1657  22.972  23.157   3.423
36398W        W 1658  27.496   3.503  14.817
36399W        W 1659  27.786  22.571   1.348
36400W        W 1660  13.010  27.651  10.501
36401W        W 1661  36.533  13.549   4.187
36402W        W 1662  14.269  41.881   1.383
36403W        W 1663  24.484   4.393  13.340
36404W        W 1664  22.382  37.312   0.528
36405W        W 1665  28.613  24.684  11.903
36406W        W 1666  22.222  34.836   5.000
36407W        W 1667  23.900  15.566   1.932
36408W        W 1668  30.358  12.677  13.703
36409W        W 1669  12.744  11.187   3.923
36410W        W 1670   7.437  35.350  11.060
36411W        W 1671  28.630   3.280   0.396
36412W        W 1672  16.358  17.813  14.408
36413W        W 1673  23.216  26.930   4.443
36414W        W 1674   6.874   5.782   3.752
36415W        W 1675  17.778  44.243  12.217
36416W        W 1676  37.050   2.775  11.080
36417W        W 1677   2.495  33.087  11.240
36418W        W 1678   8.858  21.542   0.962
36419W        W 1679  10.613  16.264  11.573
36420W        W 1680  24.916   6.399  13.424
36421W        W 1681  23.627  11.082  11.532
36422W        W 1682  15.660  25.473   4.541
36423W        W 1683   4.676  43.103   3.758
36424W        W 1684  26.707  44.107   4.296
36425W        W 1685  32.942  33.347  10.640
36426W        W 1686  24.415  41.999  14.453
36427W        W 1687  44.329  24.760   2.720
36428W        W 1688  21.009   9.535  12.934
36429W        W 1689  28.374  43.365  13.394
36430W        W 1690  18.242  21.857  14.243
36431W        W 1691  20.044  29.648   2.345
36432W        W 1692  39.745  22.616   1.771
36433W        W 1693   0.444  36.959   4.363
36434W        W 1694   9.225  31.197   3.693
36435W        W 1695   6.315  23.975  13.050
36436W        W 1696   7.039  17.560  12.066
36437W        W 1697  18.769   9.327   1.796
36438W        W 1698   5.177  22.057   0.890
36439W        W 1699  37.804  37.219  11.750
36440W        W 1700   4.522  31.202   1.156
36441W        W 1701  39.576  27.883   0.987
36442W        W 1702  36.705  43.752   1.792
36443W        W 1703  28.084   8.768  13.140
36444W        W 1704  25.560   4.061  13.037
36445W        W 1705  42.279   2.490   2.311
36446W        W 1706  29.608  16.257  14.329
36447W        W 1707  44.692  38.431  14.443
36448W        W 1708  27.988  28.551   1.673
36449W        W 1709  13.117   9.415   4.101
36450W        W 1710  28.378  38.574  11.039
36451W        W 1711  30.052  15.916  10.703
36452W        W 1712  38.971   8.893  10.636
36453W        W 1713  25.105  43.650   2.216
36454W        W 1714  18.123   6.523  11.070
36455W        W 1715  38.624   9.884   1.821
36456W        W 1716  14.653  20.047   1.385
36457W        W 1717  14.045  37.990   4.499
36458W        W 1718  20.765  16.043  12.010
36459W        W 1719  20.243  37.279   3.744
36460W        W 1720  38.567  25.647   3.898
36461W        W 1721  23.128  14.985  13.456
36462W        W 1722  17.598  18.511   9.841
36463W        W 1723  31.889  42.105  10.697
36464W        W 1724  33.787  16.646  14.785
36465W        W 1725   0.413  28.009   2.214
36466W        W 1726  31.525  21.104  13.576
36467W        W 1727  29.692  29.958   0.808
36468W        W 1728  21.117  19.333   3.829
36469W        W 1729  25.964  24.093  12.696
36470W        W 1730  31.199   0.889   4.272
36471W        W 1731  30.560  42.919   0.864
36472W        W 1732   5.057  16.467  14.677
36473W        W 1733   0.056  37.503  14.306
36474W        W 1734   9.918  38.234   1.690
36475W        W 1735  38.807  31.440  12.506
36476W        W 1736  11.280  17.560   2.328
36477W        W 1737   4.518  25.750   1.963
36478W        W 1738  21.159   1.381  14.385
36479W        W 1739  27.998  32.288   0.007
36480W        W 1740   1.927  27.462   2.229
36481W        W 1741  40.980  14.244  12.520
36482W        W 1742  37.367  21.328  11.069
36483W        W 1743   9.422  17.260   4.983
36484W        W 1744  43.749   1.168  14.539
36485W        W 1745  27.969  27.318   2.390
36486W        W 1746  33.546   7.221  13.188
36487W        W 1747  12.410  35.349   1.683
36488W        W 1748  20.723   5.209   5.432
36489W        W 1749  17.352  11.120   1.762
36490W        W 1750  22.132  18.681   2.617
36491W        W 1751  20.605  43.487  13.997
36492W        W 1752   9.772   5.492  14.756
36493W        W 1753  23.836  13.114   5.134
36494W        W 1754   9.885  43.615  14.434
36495W        W 1755   8.374  38.463  13.266
36496W        W 1756  12.779  17.377   2.250
36497W        W 1757  37.889   3.192  13.131
36498W        W 1758  30.959  27.426   0.752
36499W        W 1759  11.630  31.926   2.247
36500W        W 1760  31.824   7.150   2.633
36501W        W 1761  38.003   5.933   0.774
36502W        W 1762  43.741   9.139  13.484
36503W        W 1763  39.558  32.388   2.765
36504W        W 1764  22.736  29.588  14.818
36505W        W 1765  36.327   7.658   3.335
36506W        W 1766   3.430  16.623   3.535
36507W        W 1767   5.949   6.141  13.329
36508W        W 1768  26.021  14.141   1.428
36509W        W 1769  15.702  13.730   0.315
36510W        W 1770  25.227  24.111   0.988
36511W        W 1771  33.139   9.195  11.183
36512W        W 1772  44.769  31.529   0.726
36513W        W 1773  32.237  22.476  10.627
36514W        W 1774  22.460  40.647   5.093
36515W        W 1775   1.461  30.093   1.722
36516W        W 1776  26.716  27.150   1.124
36517W        W 1777  10.421   6.303  13.621
36518W        W 1778  26.115   1.156  12.932
36519W        W 1779  39.240  27.913  13.626
36520W        W 1780  23.525  34.688   5.473
36521W        W 1781  42.279  30.955  13.069
36522W        W 1782  15.215  30.272  11.224
36523W        W 1783  25.061  24.439  11.449
36524W        W 1784  19.232  43.502   4.416
36525W        W 1785  12.136   2.717  11.661
36526W        W 1786  15.114  31.531  12.971
36527W        W 1787  18.773  26.310   2.302
36528W        W 1788   0.228   3.009  12.911
36529W        W 1789  23.406   7.347  10.302
36530W        W 1790   9.179   3.281  10.269
36531W        W 1791   2.183  14.999  10.925
36532W        W 1792  13.017  44.934   1.530
36533W        W 1793  23.057  37.103   3.590
36534W        W 1794  22.363  10.090   3.176
36535W        W 1795  10.612  20.248  10.671
36536W        W 1796  30.166  11.137   3.804
36537W        W 1797   1.099  43.446   2.268
36538W        W 1798  43.453   1.436   1.661
36539W        W 1799  38.582   3.980   0.220
36540W        W 1800  43.421  14.399  13.298
36541W        W 1801  29.979  32.584   3.552
36542W        W 1802   7.454  35.506  14.788
36543W        W 1803  42.499  28.161   1.695
36544W        W 1804  14.263  36.597   4.727
36545W        W 1805  41.875  27.130  10.893
36546W        W 1806  35.127  42.089  11.615
36547W        W 1807  14.668   0.451  14.871
36548W        W 1808  16.807  34.531  12.593
36549W        W 1809   3.630  44.914  13.974
36550W        W 1810  19.514  30.363  13.449
36551W        W 1811  23.170   4.345   3.781
36552W        W 1812  26.992  17.203   0.051
36553W        W 1813  32.437  16.710   4.564
36554W        W 1814   4.238  10.771  14.755
36555W        W 1815   5.431  29.517   0.801
36556W        W 1816  14.861   1.252  14.396
36557W        W 1817  38.046  21.344  11.570
36558W        W 1818  20.026  24.594  12.929
36559W        W 1819  26.152  25.035  11.566
36560W        W 1820  41.869  39.555  12.980
36561W        W 1821  35.120  22.682  12.973
36562W        W 1822   1.474  33.053  13.280
36563W        W 1823   2.270   9.576   0.798
36564W        W 1824   9.666  36.066   4.319
36565W        W 1825  36.401   8.790   4.102
36566W        W 1826  34.974  14.376   2.306
36567W        W 1827   0.745  43.968  11.159
36568W        W 1828   0.336  20.314   2.401
36569W        W 1829  23.917  30.367   3.341
36570W        W 1830  27.953  35.898  11.051
36571W        W 1831  23.653  15.869  14.566
36572W        W 1832  15.766  33.586   2.891
36573W        W 1833  15.858  18.201   2.292
36574W        W 1834  25.672  43.467  14.824
36575W        W 1835  36.957  13.206  10.757
36576W        W 1836  30.870   2.421   3.354
36577W        W 1837   7.783   1.288  10.700
36578W        W 1838  14.178  24.038  14.142
36579W        W 1839  12.177  30.121   1.664
36580W        W 1840  25.664  39.835  10.692
36581W        W 1841  31.743  35.886   2.774
36582W        W 1842   6.436  25.543   2.672
36583W        W 1843  20.214  13.823  14.809
36584W        W 1844  24.367  24.646   3.115
36585W        W 1845  37.501  28.989  10.489
36586W        W 1846  33.631  26.055   2.753
36587W        W 1847   2.345  34.513   0.969
36588W        W 1848   6.723   8.240   3.667
36589W        W 1849  12.428  40.944   4.756
36590W        W 1850  32.187  33.529   0.460
36591W        W 1851   8.512  16.065   3.733
36592W        W 1852  17.610  14.768   1.958
36593W        W 1853  21.047  16.990  11.075
36594W        W 1854  22.985  23.750  13.456
36595W        W 1855  18.714  24.032   0.824
36596W        W 1856  27.183  38.596   0.320
36597W        W 1857   9.986  27.989   5.012
36598W        W 1858  35.866  37.034   4.087
36599W        W 1859  17.296  18.220   0.201
36600W        W 1860  20.579  16.904  11.726
36601W        W 1861  41.301  43.838   0.752
36602W        W 1862  39.598  34.593   3.699
36603W        W 1863   7.472  30.791   4.158
36604W        W 1864  23.952   8.558   2.309
36605W        W 1865  30.130  17.242  14.446
36606W        W 1866   1.258   7.910   2.612
36607W        W 1867  21.591  26.950   3.125
36608W        W 1868  37.308  30.511  11.608
36609W        W 1869  22.546   9.133  10.756
36610W        W 1870   8.936  22.658  11.453
36611W        W 1871   1.657  32.213  14.970
36612W        W 1872  27.981  17.787  14.090
36613W        W 1873  19.214  21.637   3.363
36614W        W 1874  42.759  36.151   0.362
36615W        W 1875  22.104   2.377   4.513
36616W        W 1876  37.529  30.631   3.248
36617W        W 1877  40.938  23.684  12.025
36618W        W 1878  20.973   7.110  14.757
36619W        W 1879   9.507   9.628   4.287
36620W        W 1880  24.235  15.809  11.508
36621W        W 1881  30.983  25.890   0.740
36622W        W 1882  36.906  25.982   4.693
36623W        W 1883  35.752   3.287   4.282
36624W        W 1884   0.772  40.439   0.992
36625W        W 1885   0.858  40.036  13.702
36626W        W 1886   8.245  21.860   1.394
36627W        W 1887  35.890   0.904  12.113
36628W        W 1888   1.526  11.282  11.454
36629W        W 1889  17.343  10.555   1.794
36630W        W 1890  24.091  32.478  11.126
36631W        W 1891  17.768  13.801   0.960
36632W        W 1892  38.291   7.347  14.779
36633W        W 1893  27.522  20.088  13.580
36634W        W 1894  11.223  33.145  11.627
36635W        W 1895  12.781  43.449   4.451
36636W        W 1896   3.032  28.926   4.614
36637W        W 1897  18.173  17.426  11.764
36638W        W 1898  29.270  41.196  13.014
36639W        W 1899  12.125   0.380  11.443
36640W        W 1900  37.618  12.831   0.169
36641W        W 1901  17.114  28.414  10.265
36642W        W 1902  24.514  33.173  14.281
36643W        W 1903  10.361  29.559   1.215
36644W        W 1904   7.809  39.267  12.040
36645W        W 1905  24.366   7.335  14.820
36646W        W 1906   8.235   9.960  13.059
36647W        W 1907  28.097   8.512  11.926
36648W        W 1908   3.000  20.273   3.312
36649W        W 1909  31.817  30.655  11.209
36650W        W 1910  23.138  20.603  14.497
36651W        W 1911  38.035  17.526  14.783
36652W        W 1912  13.206  24.502  10.269
36653W        W 1913   9.693  28.970  14.195
36654W        W 1914  19.157  26.950  10.421
36655W        W 1915  44.447  16.694  14.523
36656W        W 1916  17.305   6.445  12.632
36657W        W 1917  40.491  44.459   2.062
36658W        W 1918  43.376  33.858  12.397
36659W        W 1919  26.577  11.192   2.231
36660W        W 1920  40.614  42.068   1.796
36661W        W 1921  43.287  21.044  11.401
36662W        W 1922  40.859  30.620   3.821
36663W        W 1923  38.256  10.537  14.578
36664W        W 1924  42.337  38.852  11.095
36665W        W 1925  16.791  28.691  12.410
36666W        W 1926  36.422  33.567   4.979
36667W        W 1927  14.136  38.731  14.224
36668W        W 1928  27.857  15.645   3.969
36669W        W 1929  12.582   9.935  14.923
36670W        W 1930   6.180  40.772  12.486
36671W        W 1931  23.991  34.530   1.003
36672W        W 1932  41.980  11.785  13.244
36673W        W 1933  21.072   2.002   2.223
36674W        W 1934  43.073  24.106  12.069
36675W        W 1935  23.536   1.322   0.896
36676W        W 1936   8.382   2.481   3.717
36677W        W 1937   7.441  30.681  14.397
36678W        W 1938  44.496  10.365  13.792
36679W        W 1939  10.222   9.023   3.818
36680W        W 1940  38.120   1.583  10.125
36681W        W 1941   4.194  15.417  14.311
36682W        W 1942  24.084   0.385  12.581
36683W        W 1943   2.648  16.341   4.081
36684W        W 1944   8.570  38.505   1.269
36685W        W 1945  35.322   4.596  12.820
36686W        W 1946  32.115  22.999   1.901
36687W        W 1947  24.263   3.789   2.664
36688W        W 1948  25.730  20.857   1.229
36689W        W 1949   8.076  43.754  13.032
36690W        W 1950  18.700  20.688  12.974
36691W        W 1951  20.258  29.222  13.002
36692W        W 1952  39.112   1.299  12.745
36693W        W 1953   0.345   6.230   1.825
36694W        W 1954  44.721  18.236  12.824
36695W        W 1955  16.548   2.351   2.388
36696W        W 1956  15.595  31.020  11.161
36697W        W 1957   8.274  40.464  11.913
36698W        W 1958  16.084   5.320  14.918
36699W        W 1959  26.769  35.989   1.793
36700W        W 1960  22.625  14.735   0.872
36701W        W 1961   7.877  31.941  14.524
36702W        W 1962  30.467  19.654   2.848
36703W        W 1963  41.041   6.798   0.432
36704W        W 1964  27.105  44.023  11.193
36705W        W 1965  15.872   8.803   3.250
36706W        W 1966  27.613  41.477  11.602
36707W        W 1967  22.142   4.507  14.441
36708W        W 1968  25.577  17.059  10.297
36709W        W 1969  31.571  38.502  12.736
36710W        W 1970   7.333  42.526  13.791
36711W        W 1971   9.316  37.150   3.838
36712W        W 1972  11.656  36.542  11.975
36713W        W 1973   9.695  41.280  12.790
36714W        W 1974  18.740  34.038  13.594
36715W        W 1975  34.626  21.761  12.236
36716W        W 1976   1.024   4.368  11.179
36717W        W 1977  15.374   4.477  12.486
36718W        W 1978  36.137   2.777   1.421
36719W        W 1979  11.588  10.254  13.260
36720W        W 1980  11.852   1.717  12.073
36721W        W 1981  33.919  14.842   0.936
36722W        W 1982  18.018  43.868   2.259
36723W        W 1983  37.689  17.486  13.530
36724W        W 1984   1.477  34.814   2.656
36725W        W 1985  27.647   2.514  11.526
36726W        W 1986  11.187  13.914  12.993
36727W        W 1987  28.858  15.282   2.433
36728W        W 1988  25.042  32.015  14.937
36729W        W 1989   6.428   7.883   2.755
36730W        W 1990   1.499  44.821   1.074
36731W        W 1991  44.295   7.193  10.439
36732W        W 1992  26.880   7.186  14.979
36733W        W 1993   6.472   3.714  14.308
36734W        W 1994   6.930  15.887   3.632
36735W        W 1995  12.196  10.236   2.630
36736W        W 1996   3.485  40.412   3.242
36737W        W 1997   2.196  16.344  13.984
36738W        W 1998  26.900  37.887   1.245
36739W        W 1999  34.604   8.521  10.353
36740W        W 2000   2.927  26.053   3.132
36741W        W 2001   3.893  11.785   1.447
36742W        W 2002  40.478  14.155  12.412
36743W        W 2003  42.227  29.597  11.220
36744W        W 2004  28.662  17.737   0.479
36745W        W 2005  15.347  38.100  14.641
36746W        W 2006   2.416  23.931   4.822
36747W        W 2007  28.838   2.392   4.841
36748W        W 2008  16.042  16.143   3.646
36749W        W 2009  38.372  11.347   3.187
36750W        W 2010  43.683  19.576   3.456
36751W        W 2011  28.016  33.214  11.930
36752W        W 2012  36.212  27.668   0.876
36753W        W 2013  37.366   5.434   1.735
36754W        W 2014   1.927  30.325  13.508
36755W        W 2015  23.263   0.996  10.452
36756W        W 2016  19.590  33.428   4.174
36757W        W 2017  22.682  34.344   5.412
36758W        W 2018  31.434  30.066  14.416
36759W        W 2019  43.524  27.261   0.290
36760W        W 2020  44.153  10.437   9.905
36761W        W 2021  28.618   6.787   2.866
36762W        W 2022  29.205  44.339  12.798
36763W        W 2023  27.675  43.899   2.297
36764W        W 2024  20.940  42.366  11.018
36765W        W 2025  39.065  23.330  11.523
36766W        W 2026   9.829  22.801  12.562
36767W        W 2027  26.245  38.148  12.922
36768W        W 2028  31.722  26.630   0.108
36769W        W 2029   8.913  37.308  12.170
36770W        W 2030   1.933  15.367   3.756
36771W        W 2031  25.590  16.301   3.243
36772W        W 2032  18.313   4.969  12.402
36773W        W 2033  26.842  13.111   4.098
36774W        W 2034  40.078  21.784  13.388
36775W        W 2035  36.461  10.402   2.098
36776W        W 2036  10.567  34.164   0.350
36777W        W 2037  13.312  29.456  11.558
36778W        W 2038   4.518  29.776   1.261
36779W        W 2039  24.722  22.321  14.345
36780W        W 2040   0.436  21.284   0.326
36781W        W 2041  11.122  43.813  13.986
36782W        W 2042  21.252  18.023  13.897
36783W        W 2043  28.781  19.564  12.446
36784W        W 2044  14.008  32.102   2.362
36785W        W 2045  21.471  43.276   1.139
36786W        W 2046  25.994   4.061   1.163
36787W        W 2047   0.766  17.377  12.037
36788W        W 2048  34.553   9.028   0.358
36789W        W 2049  23.235  12.847   2.183
36790W        W 2050  28.665  29.362   4.689
36791W        W 2051  32.427  29.102   3.139
36792W        W 2052   8.710   4.677  12.002
36793W        W 2053  38.588  23.493  11.611
36794W        W 2054  44.947   4.969   0.970
36795W        W 2055  31.271  28.546  10.725
36796W        W 2056  21.456  44.987   0.266
36797W        W 2057  39.664  21.671   4.954
36798W        W 2058  11.362   9.721   4.540
36799W        W 2059  15.082   6.438  10.308
36800W        W 2060  24.030   7.862  14.703
36801W        W 2061  13.824  37.081   2.727
36802W        W 2062  38.287  41.975   0.847
36803W        W 2063  28.000  37.367   2.382
36804W        W 2064  18.050  18.212  11.116
36805W        W 2065   9.910  38.534   0.558
36806W        W 2066  44.769  27.145  14.002
36807W        W 2067   6.983   8.116   3.189
36808W        W 2068   0.856   8.840   2.296
36809W        W 2069   7.154  30.975   1.219
36810W        W 2070  27.040  37.823   2.610
36811W        W 2071  14.378   7.142  14.471
36812W        W 2072  31.637  19.564   4.594
36813W        W 2073  21.971  29.452  11.204
36814W        W 2074  13.192  41.422   2.470
36815W        W 2075   4.566   5.934   4.911
36816W        W 2076   2.995   1.733  13.289
36817W        W 2077  40.426  28.937   4.553
36818W        W 2078  16.117  30.940  14.486
36819W        W 2079   9.146  13.716  11.578
36820W        W 2080  14.311  19.102  14.015
36821W        W 2081  32.172   6.793   2.429
36822W        W 2082  12.389  24.647   3.094
36823W        W 2083   3.149  30.203  13.273
36824W        W 2084  16.376   1.316  14.527
36825W        W 2085  36.625  13.824  11.605
36826W        W 2086   8.640  22.474   1.431
36827W        W 2087  44.736   9.435   0.146
36828W        W 2088  23.923  43.700  12.972
36829W        W 2089   7.579  31.457   2.381
36830W        W 2090   1.286   1.274   2.863
36831W        W 2091   5.495  37.043  14.268
36832W        W 2092  29.482  42.516  10.508
36833W        W 2093  39.204  33.404   4.245
36834W        W 2094  37.278   0.910   2.313
36835W        W 2095  21.116  39.350   2.259
36836W        W 2096  28.127  16.235  10.093
36837W        W 2097  33.172  39.222  10.373
36838W        W 2098  16.212  40.071  14.491
36839W        W 2099  25.137  43.219  14.891
36840W        W 2100   6.441   5.592   3.526
36841W        W 2101   5.725  29.542  12.368
36842W        W 2102   2.987  30.883   1.264
36843W        W 2103   2.518  33.010   0.516
36844W        W 2104   3.328  20.537   3.007
36845W        W 2105  41.366  43.734   0.267
36846W        W 2106  10.038  36.836   4.993
36847W        W 2107   8.495  34.237   2.844
36848W        W 2108   8.911  17.030  11.919
36849W        W 2109  10.894  21.539  11.003
36850W        W 2110  21.169  12.610   2.567
36851W        W 2111   0.905  34.351   3.639
36852W        W 2112  12.258  10.203   2.113
36853W        W 2113  24.124  32.998   0.338
36854W        W 2114  33.293  29.782  10.399
36855W        W 2115  20.257  22.256   4.647
36856W        W 2116   7.166  27.158   9.798
36857W        W 2117   5.874   5.232   4.155
36858W        W 2118  31.309  17.022  13.017
36859W        W 2119  17.327   6.713   2.697
36860W        W 2120  22.828  28.047   3.319
36861W        W 2121  33.032  43.521  13.057
36862W        W 2122  16.120   4.345  11.866
36863W        W 2123  29.226  38.967   1.297
36864W        W 2124   7.784   4.150  13.003
36865W        W 2125  14.530  26.012   3.705
36866W        W 2126  43.965  10.110  14.901
36867W        W 2127  43.018   4.773   3.068
36868W        W 2128  34.905  13.862   0.651
36869W        W 2129   2.470   1.609   4.187
36870W        W 2130  43.025  39.924  13.234
36871W        W 2131   8.137   1.843   2.337
36872W        W 2132  30.424  17.149   0.814
36873W        W 2133   1.197  31.526  10.687
36874W        W 2134   3.477  15.646   0.904
36875W        W 2135  17.999   1.407   1.897
36876W        W 2136   4.342   1.744  12.996
36877W        W 2137  20.059  16.189  10.563
36878W        W 2138   8.255  25.551  11.632
36879W        W 2139  11.333  16.086   3.193
36880W        W 2140  24.022  28.472   2.353
36881W        W 2141  13.125  27.653   4.614
36882W        W 2142  30.347  37.708  11.720
36883W        W 2143   9.407  19.043  12.990
36884W        W 2144  11.161  38.792  12.076
36885W        W 2145  24.684   8.256   9.735
36886W        W 2146   8.737  19.343  10.757
36887W        W 2147  22.638  24.776   4.031
36888W        W 2148  35.396  22.497   3.099
36889W        W 2149  12.421  10.360  10.625
36890W        W 2150  18.495  36.062  11.189
36891W        W 2151   0.303  17.276  10.417
36892W        W 2152  33.953  18.908   1.271
36893W        W 2153  18.283  23.521   2.414
36894W        W 2154  11.107   3.458  10.336
36895W        W 2155  25.668  41.988   0.029
36896W        W 2156   1.806  39.309  12.699
36897W        W 2157  10.654  29.036   4.591
36898W        W 2158  44.404  40.563   5.132
36899W        W 2159  15.573  24.146  11.197
36900W        W 2160   2.335  40.448  12.241
36901W        W 2161  11.135   4.311   1.444
36902W        W 2162   7.793  44.410  10.631
36903W        W 2163  10.797  29.622   3.785
36904W        W 2164   9.497  35.175   9.954
36905W        W 2165  28.624  13.380  12.590
36906W        W 2166  25.569  22.496  14.462
36907W        W 2167  42.779  18.865   0.742
36908W        W 2168  31.329   3.400  14.867
36909W        W 2169  13.705  14.514   0.894
36910W        W 2170  30.636   2.861   3.761
36911W        W 2171  41.488  15.376   0.300
36912W        W 2172  36.513  10.604   4.094
36913W        W 2173  30.216  39.886   0.868
36914W        W 2174  22.107  16.969   4.118
36915W        W 2175   2.105  29.175  12.200
36916W        W 2176  36.610  41.560   4.124
36917W        W 2177  28.610  18.025  14.812
36918W        W 2178  31.908   0.259   2.246
36919W        W 2179   5.503  31.797   3.755
36920W        W 2180   4.682  23.595  12.457
36921W        W 2181  21.755  41.219  13.573
36922W        W 2182  35.057  31.327   2.290
36923W        W 2183  31.661  29.421  12.441
36924W        W 2184  38.944  12.855  11.085
36925W        W 2185  33.413  22.961   1.253
36926W        W 2186   6.018  30.443   0.696
36927W        W 2187  42.415  26.920  12.136
36928W        W 2188  40.789  41.657  14.917
36929W        W 2189  31.106   4.880  11.491
36930W        W 2190  33.104  41.455  14.480
36931W        W 2191  26.448  23.088  14.489
36932W        W 2192  39.812  13.788   4.392
36933W        W 2193  12.710  42.474  12.548
36934W        W 2194  20.133  30.913   4.088
36935W        W 2195  17.240   1.637   4.997
36936W        W 2196  19.716  21.995  12.532
36937W        W 2197   7.400  20.781   3.600
36938W        W 2198  11.855  36.797  13.915
36939W        W 2199  26.049  42.907   2.912
36940W        W 2200   2.017   5.339   4.640
36941W        W 2201  27.374  22.867  11.472
36942W        W 2202  36.267  33.858   0.139
36943W        W 2203  21.708  12.822   1.226
36944W        W 2204  23.535  30.565  13.275
36945W        W 2205  15.876   3.419   4.155
36946W        W 2206   4.215  23.279   2.329
36947W        W 2207  32.810  24.491  13.370
36948W        W 2208  14.778  32.407   3.711
36949W        W 2209  31.171  30.035  11.181
36950W        W 2210  33.409   1.442   0.249
36951W        W 2211  31.645  36.192  14.136
36952W        W 2212  33.994  26.212   1.871
36953W        W 2213  15.604  15.225  11.420
36954W        W 2214  41.857   0.465  12.972
36955W        W 2215  22.164  26.121   2.077
36956W        W 2216  22.178   6.653  12.848
36957W        W 2217  20.750   3.339  10.918
36958W        W 2218  38.809  30.943   3.615
36959W        W 2219  22.206  27.917   2.361
36960W        W 2220  43.833  23.043   2.730
36961W        W 2221  17.502   3.350   2.774
36962W        W 2222  35.362  32.166  12.445
36963W        W 2223   4.941  41.431   0.420
36964W        W 2224   0.175  39.972  12.776
36965W        W 2225  17.038  40.292   1.510
36966W        W 2226   9.639  37.846   4.631
36967W        W 2227  44.149  13.209   1.213
36968W        W 2228   9.346   3.675  14.832
36969W        W 2229  31.426  37.336  10.717
36970W        W 2230  35.838   6.369  12.179
36971W        W 2231  30.539  44.510  13.785
36972W        W 2232   9.653  15.114   1.880
36973W        W 2233  37.695   1.886  14.078
36974W        W 2234  26.352  22.173  12.887
36975W        W 2235  34.479  31.349  13.321
36976W        W 2236  33.412  41.012  10.376
36977W        W 2237  21.218  38.299  14.260
36978W        W 2238  21.678  35.962  12.357
36979W        W 2239  20.363  24.153   0.420
36980W        W 2240   4.349  41.072   4.177
36981W        W 2241  23.669  11.113  12.076
36982W        W 2242  25.945   5.227   4.543
36983W        W 2243  32.999  39.873  14.484
36984W        W 2244  26.175   6.874  10.981
36985W        W 2245  18.210  40.437   3.391
36986W        W 2246  29.015  32.689  13.177
36987W        W 2247   2.706  15.566   0.257
36988W        W 2248   2.007   6.285   4.238
36989W        W 2249   8.466  17.037   4.191
36990W        W 2250  14.465  32.114  13.664
36991W        W 2251  20.242  11.399  12.021
36992W        W 2252  32.991   9.116  14.853
36993W        W 2253  14.725   5.515  13.843
36994W        W 2254  43.886  17.867   3.748
36995W        W 2255  31.643  22.458   4.822
36996W        W 2256  22.147   1.308   3.624
36997W        W 2257  11.127  21.504  13.252
36998W        W 2258  35.572  27.592   4.091
36999W        W 2259  33.637  21.135   3.134
37000W        W 2260  28.972  30.790   0.876
37001W        W 2261   1.870  44.280   3.749
37002W        W 2262  25.735  16.245   2.631
37003W        W 2263   1.102  26.306   0.389
37004W        W 2264  22.681  13.451  14.442
37005W        W 2265  27.294  17.194  12.387
37006W        W 2266  14.202   0.527   1.273
37007W        W 2267   7.515  16.199  13.600
37008W        W 2268  32.205  24.140   3.348
37009W        W 2269  22.658   5.454   3.202
37010W        W 2270   1.953   4.448   0.740
37011W        W 2271  13.221  39.563  13.450
37012W        W 2272   8.156   5.880  12.489
37013W        W 2273  26.664  16.233   3.800
37014W        W 2274  40.466  40.832  13.926
37015W        W 2275  21.504  20.554   0.832
37016W        W 2276  41.497  41.470  12.968
37017W        W 2277  30.816   1.164   1.688
37018W        W 2278  19.085  42.280   4.801
37019W        W 2279  30.943  39.753  12.541
37020W        W 2280  41.377  16.061   3.887
37021W        W 2281  31.308  36.608  13.834
37022W        W 2282  36.492   3.001   0.515
37023W        W 2283  41.979  42.913   5.002
37024W        W 2284  37.963  21.708  14.267
37025W        W 2285  16.308  41.302  10.992
37026W        W 2286   6.095  19.394   4.600
37027W        W 2287   6.197  38.322   1.415
37028W        W 2288  36.469  43.010   2.219
37029W        W 2289  12.831  18.091   2.828
37030W        W 2290  36.752  10.381   0.751
37031W        W 2291  27.216  39.380   2.814
37032W        W 2292  25.959  31.404  11.151
37033W        W 2293  23.911  39.970  12.471
37034W        W 2294  18.013  44.968   4.606
37035W        W 2295  41.351   8.903   4.981
37036W        W 2296  40.394  35.182  11.209
37037W        W 2297  38.411   1.941  12.860
37038W        W 2298  15.008   4.980   2.706
37039W        W 2299  41.248  24.775  13.964
37040W        W 2300  17.848  39.107   4.133
37041W        W 2301  31.336  32.995  11.538
37042W        W 2302  25.861   9.473   0.825
37043W        W 2303  13.737  16.484   3.639
37044W        W 2304   2.306  41.294   3.673
37045W        W 2305  34.923  36.879   4.146
37046W        W 2306  24.531  11.696   1.664
37047W        W 2307  10.319   9.791   0.691
37048W        W 2308  19.288  44.862   4.186
37049W        W 2309  12.857  42.841   0.156
37050W        W 2310   1.974  24.984   3.208
37051W        W 2311  39.222  30.275   2.145
37052W        W 2312   8.224  26.522   0.152
37053W        W 2313  16.138  13.173   2.332
37054W        W 2314  30.393   9.881  14.035
37055W        W 2315  28.201   8.953  10.562
37056W        W 2316  13.515  23.858  11.574
37057W        W 2317  18.708  29.073  14.444
37058W        W 2318   4.944  34.369  12.514
37059W        W 2319  44.992   9.726  12.310
37060W        W 2320  17.789  20.000   0.484
37061W        W 2321   6.450  19.185   0.861
37062W        W 2322  26.002   9.696  12.369
37063W        W 2323  40.887  23.530   4.378
37064W        W 2324  33.562  32.835  13.434
37065W        W 2325  20.468  43.858  14.649
37066W        W 2326  43.800  12.123   1.410
37067W        W 2327  41.525  42.953  11.571
37068W        W 2328  26.593  31.110   4.359
37069W        W 2329  14.125  44.493   2.191
37070W        W 2330  24.884  33.960  14.130
37071W        W 2331   6.704  41.968   0.721
37072W        W 2332   6.937  43.791  10.691
37073W        W 2333  26.247  28.261  13.507
37074W        W 2334  18.192  19.388  12.841
37075W        W 2335  26.564  34.462  14.513
37076W        W 2336  26.591  30.845  10.980
37077W        W 2337  36.380  39.470   2.299
37078W        W 2338  18.279  20.624   4.042
37079W        W 2339   8.705  39.808   4.189
37080W        W 2340  19.231  10.770  11.023
37081W        W 2341  22.932  31.987   4.221
37082W        W 2342  15.089  30.653  14.472
37083W        W 2343  35.491   4.974   1.882
37084W        W 2344  26.985  42.263  13.514
37085W        W 2345  29.038  43.198  14.764
37086W        W 2346  15.974   9.617   1.725
37087W        W 2347  37.478  20.371  11.078
37088W        W 2348   7.751  20.750  14.824
37089W        W 2349  29.030  25.693  11.225
37090W        W 2350  38.810  25.196   3.730
37091W        W 2351  32.344  42.816  11.239
37092W        W 2352  38.186  20.603  10.617
37093W        W 2353   0.361  18.275   3.623
37094W        W 2354   1.369   7.456   2.839
37095W        W 2355  29.421  21.908  12.444
37096W        W 2356  33.402   6.732   3.257
37097W        W 2357  43.842  18.773   1.770
37098W        W 2358  44.503  11.226   0.495
37099W        W 2359  11.381   0.306  13.664
37100W        W 2360  44.088  42.027   2.659
37101W        W 2361  42.662  11.824   3.248
37102W        W 2362  44.416  34.908   0.394
37103W        W 2363   2.517  34.416   1.418
37104W        W 2364  12.903  29.381  12.765
37105W        W 2365  26.096  11.602   1.328
37106W        W 2366  12.609  33.971  12.835
37107W        W 2367  31.156  32.662  13.795
37108W        W 2368  26.667   2.906  11.271
37109W        W 2369  16.975  10.910   2.575
37110W        W 2370  36.497  35.880  11.928
37111W        W 2371  27.214  33.851   4.548
37112W        W 2372  39.817   7.720   2.796
37113W        W 2373  31.200  13.435   1.215
37114W        W 2374  31.083  28.651  11.189
37115W        W 2375  30.303  26.484   3.679
37116W        W 2376  28.534  19.033   3.186
37117W        W 2377  29.888  41.036   0.348
37118W        W 2378  30.609  44.711   4.636
37119W        W 2379  42.815  35.985  10.885
37120W        W 2380  16.675  19.805  14.071
37121W        W 2381  27.411  13.626  14.410
37122W        W 2382  14.195   6.441   1.650
37123W        W 2383  20.200   2.574   2.736
37124W        W 2384  41.926  20.002  12.913
37125W        W 2385  19.212   8.560   0.314
37126W        W 2386   9.902  13.708  14.858
37127W        W 2387  37.363  12.006   4.217
37128W        W 2388  28.592  31.078  13.373
37129W        W 2389  16.036  23.037  12.482
37130W        W 2390  36.735  19.014  14.373
37131W        W 2391  43.561  21.092  12.460
37132W        W 2392  18.782   4.716  13.191
37133W        W 2393   8.208  19.684   2.227
37134W        W 2394  12.668  27.179  12.050
37135W        W 2395  42.707  28.755   0.993
37136W        W 2396  16.809  33.558   2.694
37137W        W 2397   2.814  33.704   4.352
37138W        W 2398  41.518  25.300   1.793
37139W        W 2399  42.533  38.525  14.309
37140W        W 2400   8.102  10.851  11.038
37141W        W 2401   8.348   6.545  11.346
37142W        W 2402  12.197  42.274   2.727
37143W        W 2403  22.034  20.560   0.790
37144W        W 2404  23.090  42.231  13.368
37145W        W 2405  31.205  44.304  13.088
37146W        W 2406  10.807  15.904  14.431
37147W        W 2407  21.277  39.785   3.425
37148W        W 2408   6.608  42.477   0.789
37149W        W 2409  33.939  26.743   3.449
37150W        W 2410  12.586  24.913  12.853
37151W        W 2411   7.858  34.910   2.800
37152W        W 2412  37.627  20.403   3.032
37153W        W 2413  13.872  11.123  12.964
37154W        W 2414  19.718  18.176   0.356
37155W        W 2415  34.370   5.740  10.609
37156W        W 2416  10.633  40.408  13.958
37157W        W 2417  18.998  11.497  11.602
37158W        W 2418   7.244  30.649   4.963
37159W        W 2419  39.451  20.060  13.934
37160W        W 2420  36.977   2.060  12.159
37161W        W 2421  41.943   5.001  13.812
37162W        W 2422  14.598  11.481  13.569
37163W        W 2423   5.426  26.947  10.261
37164W        W 2424  11.780   3.861   2.800
37165W        W 2425  19.565   4.810  13.895
37166W        W 2426   9.120   9.686   3.269
37167W        W 2427  43.740  38.867  11.982
37168W        W 2428  22.606  32.943  13.468
37169W        W 2429  25.918  16.629   4.131
37170W        W 2430   8.134  35.674   3.737
37171W        W 2431  20.063  29.704   3.171
37172W        W 2432  16.872  31.003   2.719
37173W        W 2433  20.139  33.022  12.864
37174W        W 2434  29.912  41.338   2.577
37175W        W 2435  24.701   0.853  14.135
37176W        W 2436  44.134  22.045   2.586
37177W        W 2437  27.725   4.690   4.139
37178W        W 2438  40.004  18.773  11.633
37179W        W 2439  31.100  32.886  10.687
37180W        W 2440  38.012   5.935  12.194
37181W        W 2441  11.546  39.217  13.894
37182W        W 2442  19.560  26.664   1.854
37183W        W 2443  22.076   7.655  11.256
37184W        W 2444   5.243  42.267   4.699
37185W        W 2445   9.879  27.083   2.638
37186W        W 2446  34.571  22.504  14.058
37187W        W 2447  32.420  29.933   1.173
37188W        W 2448  37.183   3.449  12.126
37189W        W 2449  39.437  26.310  12.105
37190W        W 2450  26.419  25.580   4.140
37191W        W 2451  19.958  44.451  13.722
37192W        W 2452  29.126  31.534   1.775
37193W        W 2453  27.009  28.204  13.464
37194W        W 2454  44.493   0.049   2.270
37195W        W 2455  20.775  17.283   4.216
37196W        W 2456  35.024  31.824  14.441
37197W        W 2457   8.365   1.995   0.924
37198W        W 2458  12.777   6.490  12.594
37199W        W 2459  25.963  34.967  13.395
37200W        W 2460  28.069  12.852   3.242
37201W        W 2461  41.744  33.494  10.917
37202W        W 2462  32.863   0.808  13.369
37203W        W 2463  35.968  19.538  12.948
37204W        W 2464  18.060  30.132   1.885
37205W        W 2465  13.214  35.662  14.332
37206W        W 2466  26.149  33.661   0.757
37207W        W 2467   2.740  19.270  12.054
37208W        W 2468  20.712   0.181  12.081
37209W        W 2469  30.665  36.907  13.326
37210W        W 2470  33.586   3.916   0.039
37211W        W 2471  14.240  19.042  12.911
37212W        W 2472  41.891  35.558  13.744
37213W        W 2473  30.868  14.874  12.397
37214W        W 2474  38.596  10.121   1.360
37215W        W 2475  10.698  14.815  13.765
37216W        W 2476  20.130   7.897   3.373
37217W        W 2477  13.313  15.577   1.374
37218W        W 2478  44.915  27.216  11.636
37219W        W 2479   5.264  34.660   0.491
37220W        W 2480  32.793  30.593  10.984
37221W        W 2481  41.377  18.795  14.969
37222W        W 2482  27.318  15.179   2.292
37223W        W 2483  38.421   1.752  14.794
37224W        W 2484   3.710  23.702  12.467
37225W        W 2485   2.354  20.407   3.066
37226W        W 2486  26.938  35.304   0.809
37227W        W 2487  11.098   4.781   4.621
37228W        W 2488  28.096   5.906   3.616
37229W        W 2489   0.877  41.498  11.524
37230W        W 2490  29.568  25.090   1.287
37231W        W 2491   2.105  36.734   2.450
37232W        W 2492  21.606   5.293   2.263
37233W        W 2493   2.802   4.860   1.687
37234W        W 2494   4.366  35.930  13.532
37235W        W 2495  16.779  15.789  14.788
37236W        W 2496  25.915  37.003  12.791
37237W        W 2497  42.458   0.235   2.636
37238W        W 2498  38.186  28.508  12.677
37239W        W 2499   9.404  41.573   1.730
37240W        W 2500  15.189  13.686  14.544
37241W        W 2501  28.773  19.210  11.170
37242W        W 2502  25.714  44.151   0.761
37243W        W 2503  44.841  17.239  11.166
37244W        W 2504   6.400  10.001  11.921
37245W        W 2505  37.487  34.464   4.784
37246W        W 2506   7.162  42.436   1.626
37247W        W 2507  27.094  36.376   3.903
37248W        W 2508  12.079  30.439  13.915
37249W        W 2509  39.320   4.263   4.500
37250W        W 2510   9.621  40.053   2.265
37251W        W 2511  25.467  12.933  13.333
37252W        W 2512  21.152  40.765  14.955
37253W        W 2513  30.275  33.307   0.438
37254W        W 2514  44.456  34.654   1.855
37255W        W 2515  25.763  35.597   9.831
37256W        W 2516  30.414   9.121  13.136
37257W        W 2517  31.040  22.118  12.582
37258W        W 2518   1.336  12.283   0.938
37259W        W 2519  11.378   0.018  14.587
37260W        W 2520  32.724  13.688  13.820
37261W        W 2521  19.655   7.171  14.960
37262W        W 2522   4.055  22.762  11.567
37263W        W 2523  41.391  19.562  13.266
37264W        W 2524  18.757   7.819   4.719
37265W        W 2525  38.288  22.180   4.616
37266W        W 2526   5.779  11.098  11.049
37267W        W 2527  31.094  26.507  13.747
37268W        W 2528   7.303  25.524   0.540
37269W        W 2529  43.348   1.710  12.921
37270W        W 2530   6.765  17.367  13.449
37271W        W 2531  11.736  42.254  10.677
37272W        W 2532  40.238  29.656   4.089
37273W        W 2533   0.903  15.370   2.146
37274W        W 2534  25.139  36.395   2.605
37275W        W 2535  11.273  44.452   1.717
37276W        W 2536  43.770   0.325   3.170
37277W        W 2537  30.691  19.723   0.320
37278W        W 2538  17.344  12.632   3.164
37279W        W 2539   0.284  41.773  11.010
37280W        W 2540   2.902  37.045   1.137
37281W        W 2541   1.276  42.870   4.627
37282W        W 2542   5.392   8.118   1.383
37283W        W 2543   5.234  35.525   4.699
37284W        W 2544  14.113  11.018  12.501
37285W        W 2545  32.997  27.953  11.170
37286W        W 2546   0.970  11.477   3.058
37287W        W 2547  30.904  19.956   2.669
37288W        W 2548   8.342   8.236   3.621
37289W        W 2549   6.885  33.715   3.635
37290W        W 2550   1.784  16.159   3.124
37291W        W 2551   6.171   5.392   4.930
37292W        W 2552   6.554  14.752  14.142
37293W        W 2553  14.366  26.475   3.606
37294W        W 2554   7.421   5.781  13.001
37295W        W 2555  14.733  40.887  11.585
37296W        W 2556  13.274  40.839   4.292
37297W        W 2557  20.719  10.826  13.982
37298W        W 2558  29.735  44.288  14.679
37299W        W 2559  31.564   8.885  11.548
37300W        W 2560   3.326  36.940  12.281
37301W        W 2561   2.730  44.245  14.504
37302W        W 2562   6.461  19.420  10.366
37303W        W 2563  17.700   6.171   3.314
37304W        W 2564  26.709  44.349  13.975
37305W        W 2565  25.919  40.760  12.506
37306W        W 2566  35.573  30.162   0.052
37307W        W 2567   6.366  39.005  13.009
37308W        W 2568  21.136  12.530  12.891
37309W        W 2569  16.784  13.094  12.684
37310W        W 2570  42.709  33.312  11.143
37311W        W 2571   1.309  32.443  12.120
37312W        W 2572  24.456  44.324   3.101
37313W        W 2573  10.172  28.757  14.058
37314W        W 2574  39.235  22.490  13.751
37315W        W 2575   0.853   8.905   4.085
37316W        W 2576  42.999   8.888  12.297
37317W        W 2577  21.748  13.979   0.475
37318W        W 2578  29.705  19.215   1.417
37319W        W 2579  35.437  21.763   2.775
37320W        W 2580  22.558  28.960   3.772
37321W        W 2581  33.942  24.791   0.652
37322W        W 2582  33.104  38.257   3.881
37323W        W 2583  27.394   7.699  12.810
37324W        W 2584  37.593  27.116  14.033
37325W        W 2585   4.000  42.848  11.564
37326W        W 2586  24.848  36.037  13.611
37327W        W 2587  42.315  29.701   3.292
37328W        W 2588  10.870  20.711   4.369
37329W        W 2589  41.969  15.769   2.288
37330W        W 2590  30.463  12.734  12.728
37331W        W 2591  29.095  12.267   2.797
37332W        W 2592   6.577  42.515  12.749
37333W        W 2593  14.621  23.845   1.517
37334W        W 2594  17.785  25.254   1.915
37335W        W 2595  25.201  12.096   1.369
37336W        W 2596  43.278  37.818   1.836
37337W        W 2597   4.836  13.206   0.807
37338W        W 2598  33.467  13.178   4.837
37339W        W 2599  36.433  18.983  11.759
37340W        W 2600  35.501  13.280   4.066
37341W        W 2601   2.329  44.890  14.907
37342W        W 2602   8.922   9.078  14.167
37343W        W 2603  24.421   1.353  13.423
37344W        W 2604  12.242  21.628  11.300
37345W        W 2605  34.894  20.060  14.512
37346W        W 2606  22.080  26.586   4.888
37347W        W 2607  40.560  25.051   0.802
37348W        W 2608  42.538  12.513   2.694
37349W        W 2609  43.661  27.223  14.778
37350W        W 2610  34.816   2.995   4.611
37351W        W 2611   0.345  21.247  12.840
37352W        W 2612  26.395  14.329   3.698
37353W        W 2613  26.045  20.798   0.768
37354W        W 2614  37.394  18.168   2.373
37355W        W 2615  30.490  16.336  12.437
37356W        W 2616  26.593   8.953   2.579
37357W        W 2617  10.243  36.363   3.071
37358W        W 2618  16.786  26.110  11.676
37359W        W 2619  21.035  34.018   3.087
37360W        W 2620  24.326  36.473   1.457
37361W        W 2621  20.415   9.714  14.600
37362W        W 2622  43.338  41.246   0.739
37363W        W 2623  15.220  10.211   0.949
37364W        W 2624  12.523  28.108   5.003
37365W        W 2625  31.398  15.767   0.766
37366W        W 2626  37.653  40.703  10.822
37367W        W 2627  43.332  28.787   1.401
37368W        W 2628  30.906  33.116  13.812
37369W        W 2629  39.648  22.793  12.540
37370W        W 2630  44.531   2.131   1.987
37371W        W 2631  19.482  22.474  12.035
37372W        W 2632  25.283   8.693   0.521
37373W        W 2633   9.346  31.607   1.641
37374W        W 2634  42.748  26.198   1.740
37375W        W 2635  21.759  37.544   2.477
37376W        W 2636  30.106  16.607  13.815
37377W        W 2637  12.768  40.932  13.843
37378W        W 2638  39.543  16.200  13.600
37379W        W 2639  23.192  33.494  12.638
37380W        W 2640  37.871  28.104   1.376
37381W        W 2641   1.111  12.746  14.928
37382W        W 2642  31.835   0.823  11.074
37383W        W 2643  35.639  16.847   0.515
37384W        W 2644   4.339  33.045   4.664
37385W        W 2645  30.379  41.810   3.198
37386W        W 2646  25.252  42.340   3.707
37387W        W 2647  41.921  41.341   0.217
37388W        W 2648  42.432  14.406  14.914
37389W        W 2649   2.854  35.592   0.255
37390W        W 2650  43.947   7.350  12.133
37391W        W 2651   2.205  28.384  13.829
37392W        W 2652  25.997  33.099   1.444
37393W        W 2653  39.038  32.312   2.808
37394W        W 2654   5.729  29.476  10.607
37395W        W 2655   4.168   4.734   2.230
37396W        W 2656  12.396  17.638   3.565
37397W        W 2657  34.987   8.188   2.394
37398W        W 2658  30.988  11.932  10.554
37399W        W 2659  17.251   8.798   4.646
37400W        W 2660  21.212  19.197   2.408
37401W        W 2661  18.642  13.229   4.197
37402W        W 2662  25.122  39.907   1.500
37403W        W 2663  34.376   5.150   1.842
37404W        W 2664  42.498   6.261   2.095
37405W        W 2665  15.653   0.471   3.787
37406W        W 2666  35.681   0.058   3.188
37407W        W 2667  32.393  41.356   0.462
37408W        W 2668  11.881   0.238   4.744
37409W        W 2669  14.368  26.083  14.048
37410W        W 2670  30.715  18.810   2.302
37411W        W 2671  10.386  21.741   3.656
37412W        W 2672  25.966  23.499  11.243
37413W        W 2673  40.469  10.830  11.134
37414W        W 2674   4.329  18.552   2.312
37415W        W 2675  37.076  31.082   3.208
37416W        W 2676   4.270  25.599  14.956
37417W        W 2677  20.262  36.850   1.363
37418W        W 2678  28.835   2.326  10.807
37419W        W 2679   2.524  19.573   3.596
37420W        W 2680  35.952  25.031  10.622
37421W        W 2681  21.549   2.128   4.598
37422W        W 2682  29.621  12.800  14.351
37423W        W 2683  36.680  17.032  14.920
37424W        W 2684  42.219  32.310  11.005
37425W        W 2685  23.754   1.338   0.076
37426W        W 2686  17.350  35.467  10.892
37427W        W 2687  15.361   8.234   4.663
37428W        W 2688  20.495  16.294   1.400
37429W        W 2689  12.181  12.787  10.808
37430W        W 2690   5.961  10.340  10.638
37431W        W 2691  39.997  25.554  11.901
37432W        W 2692  13.623  27.167  11.799
37433W        W 2693  11.260  19.680   2.577
37434W        W 2694  19.998  40.840  10.249
37435W        W 2695  35.886   6.960   1.293
37436W        W 2696  26.454  31.387   2.731
37437W        W 2697  17.365   4.757   0.855
37438W        W 2698  28.904  12.057  12.902
37439W        W 2699  13.510  16.130  10.843
37440W        W 2700  31.139   4.264  13.492
37441W        W 2701  10.740   1.971  10.633
37442W        W 2702  42.007  23.694  14.966
37443W        W 2703  34.467  38.563  14.009
37444W        W 2704   5.111   2.682   1.273
37445W        W 2705  33.833  42.444   3.653
37446W        W 2706  11.183   5.238   1.267
37447W        W 2707  22.531  44.962   3.733
37448W        W 2708  20.597  20.149   3.592
37449W        W 2709  24.590   2.757  11.324
37450W        W 2710  29.654  20.397   3.118
37451W        W 2711  31.407  33.964  14.113
37452W        W 2712  18.770  30.956  11.344
37453W        W 2713  18.776  13.196  14.900
37454W        W 2714  43.482  23.896   1.648
37455W        W 2715   6.799  13.792   0.857
37456W        W 2716  34.902  26.085  13.032
37457W        W 2717   2.994  34.129   4.052
37458W        W 2718   2.734  31.279  11.283
37459W        W 2719  33.358  35.793  14.511
37460W        W 2720   3.682  44.094  14.886
37461W        W 2721   0.886  22.545  10.691
37462W        W 2722  17.801  10.316  12.925
37463W        W 2723   8.411  31.750   3.635
37464W        W 2724  31.587  11.196   2.730
37465W        W 2725  35.438  18.757  12.124
37466W        W 2726  15.732  34.117   3.819
37467W        W 2727  25.592  24.668   0.292
37468W        W 2728  41.505   6.843   3.202
37469W        W 2729  32.281  14.196  10.869
37470W        W 2730  21.451  15.653  14.918
37471W        W 2731  27.692   1.202  14.952
37472W        W 2732  11.236  27.473  12.069
37473W        W 2733  26.952  12.780  11.999
37474W        W 2734  44.000   8.791   3.637
37475W        W 2735  16.469   5.730   2.841
37476W        W 2736   1.173  41.129  10.698
37477W        W 2737   7.687  20.077  14.485
37478W        W 2738  38.287  33.635   4.644
37479W        W 2739   3.731  27.216   0.745
37480W        W 2740   1.144  36.832   2.692
37481W        W 2741  14.036   1.925   1.806
37482W        W 2742   0.389   2.492  12.023
37483W        W 2743  41.815  16.513   4.614
37484W        W 2744  38.051  19.282  10.634
37485W        W 2745  42.990  23.505   2.394
37486W        W 2746  40.520   6.477   3.980
37487W        W 2747  26.491  16.231  11.483
37488W        W 2748  34.682  44.817  10.772
37489W        W 2749   2.282  34.567   2.906
37490W        W 2750  35.921  19.071   0.946
37491W        W 2751   2.296  27.527   3.202
37492W        W 2752  25.886   4.260   1.719
37493W        W 2753  12.129  26.296   1.203
37494W        W 2754  10.796   7.348   0.902
37495W        W 2755  44.390  35.158   2.006
37496W        W 2756  27.423  36.617  11.231
37497W        W 2757  12.538  26.952  10.677
37498W        W 2758  39.265  26.378   0.967
37499W        W 2759  18.029  24.498  13.894
37500W        W 2760  31.955   2.190  13.448
37501W        W 2761  19.226  19.121  12.770
37502W        W 2762   5.343  37.452   2.500
37503W        W 2763  43.166   7.954   3.731
37504W        W 2764  44.468  43.283  14.257
37505W        W 2765  32.138   2.359   4.551
37506W        W 2766  17.627  31.865  11.826
37507W        W 2767  21.039  18.696  14.764
37508W        W 2768  34.461  12.861   3.682
37509W        W 2769   5.767  19.615  11.114
37510W        W 2770  20.965  33.163   4.179
37511W        W 2771   9.855  30.287  13.749
37512W        W 2772  30.381  40.957   3.277
37513W        W 2773  10.954  27.200  10.541
37514W        W 2774  34.909  44.271   3.602
37515W        W 2775  21.892  22.390  11.623
37516W        W 2776  38.031  44.473  12.608
37517W        W 2777  42.544  25.513  10.607
37518W        W 2778  20.657  33.115  12.676
37519W        W 2779  35.666   3.688  11.859
37520W        W 2780  24.179  28.819   1.518
37521W        W 2781  33.465  22.071  10.343
37522W        W 2782  38.467   4.925   2.317
37523W        W 2783  18.657  16.104  14.539
37524W        W 2784  24.430  29.695   1.405
37525W        W 2785  12.862  19.798  12.065
37526W        W 2786  18.543   9.835  11.662
37527W        W 2787  22.888  17.438   2.416
37528W        W 2788  39.043  12.313  14.286
37529W        W 2789   9.872  28.567  12.478
37530W        W 2790  17.660  18.980  12.065
37531W        W 2791  41.586  23.412  14.908
37532W        W 2792   9.986  17.257   5.205
37533W        W 2793  24.109  17.585   2.341
37534W        W 2794  16.190   9.642  12.830
37535W        W 2795  30.569   3.776   2.899
37536W        W 2796  22.051  38.279  12.809
37537W        W 2797  35.476  24.497  11.462
37538W        W 2798   0.392  40.038  13.309
37539W        W 2799  20.012  11.219  12.464
37540W        W 2800   1.908  34.687  11.608
37541W        W 2801   8.886  14.768  14.712
37542W        W 2802  37.944   2.122  11.570
37543W        W 2803   9.488  28.294   4.893
37544W        W 2804  33.475   6.749   0.876
37545W        W 2805  10.811  32.670  13.096
37546W        W 2806  42.469  36.124   2.279
37547W        W 2807  37.071  35.966   2.044
37548W        W 2808  21.332  41.892   0.623
37549W        W 2809  41.348  41.273  12.060
37550W        W 2810  41.056  39.487  14.041
37551W        W 2811   2.411  27.636   5.552
37552W        W 2812  29.605  35.007  13.508
37553W        W 2813  10.306  44.394   0.099
37554W        W 2814   7.569  40.547  13.475
37555W        W 2815  35.397  40.001   2.603
37556W        W 2816  36.500  19.174   0.980
37557W        W 2817  30.036  25.233  10.306
37558W        W 2818  36.602   6.932  13.161
37559W        W 2819  27.204  24.982   4.334
37560W        W 2820  30.458   3.415   4.874
37561W        W 2821  15.828  27.233  14.873
37562W        W 2822  41.354   6.207   3.050
37563W        W 2823  11.796  22.644  11.616
37564W        W 2824   5.023  29.562   0.022
37565W        W 2825   6.257  43.092  11.615
37566W        W 2826  15.098  18.281  10.726
37567W        W 2827  22.304  32.347   3.231
37568W        W 2828  13.053   1.445   0.330
37569W        W 2829  31.592   2.487  11.157
37570W        W 2830  24.765  13.914  10.579
37571W        W 2831   5.776   9.401  11.555
37572W        W 2832   8.089  32.044   1.798
37573W        W 2833  34.494  42.625   0.357
37574W        W 2834  20.807  19.805  11.644
37575W        W 2835  39.043   3.879   3.786
37576W        W 2836  12.517  33.944  13.356
37577W        W 2837  15.515  21.535   1.549
37578W        W 2838  11.620  41.456  14.704
37579W        W 2839   8.251  11.189   4.649
37580W        W 2840  41.493   8.852   2.797
37581W        W 2841   8.610  42.987  12.044
37582W        W 2842  19.337   4.800  10.390
37583W        W 2843  11.690  33.214   3.928
37584W        W 2844  15.175  15.255   1.270
37585W        W 2845  27.739  12.842   2.282
37586W        W 2846   7.101  26.425   4.994
37587W        W 2847  35.974   9.610   0.381
37588W        W 2848   0.694  41.395   2.382
37589W        W 2849  26.569   7.208  10.962
37590W        W 2850  17.048  11.278   4.292
37591W        W 2851   5.180  36.724   4.015
37592W        W 2852  44.413  37.480   4.316
37593W        W 2853  38.551   0.466   0.419
37594W        W 2854   8.172  13.634   1.958
37595W        W 2855  17.365  18.335  14.327
37596W        W 2856  33.853   9.236   4.037
37597W        W 2857  14.395   3.420   0.513
37598W        W 2858  17.523  24.660  12.973
37599W        W 2859  20.916  39.274  10.153
37600W        W 2860  25.976  27.582  13.954
37601W        W 2861  15.050  35.055  12.052
37602W        W 2862  29.452  39.540  11.146
37603W        W 2863  44.378  30.430   3.442
37604W        W 2864  21.071  17.307  13.523
37605W        W 2865   0.829   1.053   9.964
37606W        W 2866   1.487  10.467   4.241
37607W        W 2867  33.844   9.169  10.773
37608W        W 2868   8.844  18.736   3.668
37609W        W 2869   0.512   5.661  13.335
37610W        W 2870   1.558  12.566  10.244
37611W        W 2871  44.812   9.304   3.896
37612W        W 2872  16.139  23.415   3.713
37613W        W 2873  42.801  44.258   4.573
37614W        W 2874  14.575  39.972  14.521
37615W        W 2875   6.247  28.722   2.336
37616W        W 2876   6.005  29.016  10.664
37617W        W 2877  27.538  10.857   1.961
37618W        W 2878  26.550  44.723   2.625
37619W        W 2879  13.142   2.904   1.496
37620W        W 2880  34.055   3.847   1.907
37621W        W 2881  21.123  19.106   0.850
37622W        W 2882   5.838   1.990  14.254
37623W        W 2883  41.523  18.995  13.962
37624W        W 2884  11.739  37.972  10.803
37625W        W 2885  30.572  17.032  14.693
37626W        W 2886   2.366   2.281   1.229
37627W        W 2887  23.025  20.689   0.890
37628W        W 2888  44.268  18.872  11.551
37629W        W 2889  17.644   1.733   0.458
37630W        W 2890   5.939   4.441  12.109
37631W        W 2891   9.111  18.073  13.996
37632W        W 2892  27.175  32.362   1.472
37633W        W 2893  16.438  43.305   1.780
37634W        W 2894  34.130   3.521   0.879
37635W        W 2895  43.991  42.090   3.157
37636W        W 2896  19.980   6.848   2.691
37637W        W 2897  42.575   4.725  12.180
37638W        W 2898  18.298  14.312  14.523
37639W        W 2899  15.842  38.985   3.789
37640W        W 2900  26.874  12.568  11.151
37641W        W 2901   9.463  28.192  10.310
37642W        W 2902   5.050  19.766   1.814
37643W        W 2903  44.938  25.283  12.546
37644W        W 2904  11.043  27.653   1.083
37645W        W 2905  23.963  22.587  12.471
37646W        W 2906  26.487   2.081   2.670
37647W        W 2907  11.599  28.242   3.368
37648W        W 2908  12.765  30.988   0.969
37649W        W 2909  44.529  16.274  10.550
37650W        W 2910  35.058  21.531   0.959
37651W        W 2911   6.291  18.162  14.404
37652W        W 2912  27.242  12.154   3.169
37653W        W 2913  33.459  30.512   3.314
37654W        W 2914  43.440  14.764   0.210
37655W        W 2915  40.040   7.083   2.122
37656W        W 2916  37.644  27.621  12.796
37657W        W 2917  26.475   4.567  10.317
37658W        W 2918   5.751  41.420  13.108
37659W        W 2919  32.398  21.714   3.220
37660W        W 2920  29.680  22.448  11.609
37661W        W 2921   9.821   1.963   0.048
37662W        W 2922  25.421   5.495  10.311
37663W        W 2923  24.774  25.987  14.696
37664W        W 2924  22.054  17.787  14.545
37665W        W 2925   8.235  23.548   4.970
37666W        W 2926  14.189  32.537  10.799
37667W        W 2927  23.303  13.178   4.461
37668W        W 2928   1.880  26.988   4.035
37669W        W 2929  34.416  10.280  12.722
37670W        W 2930  25.290  43.283   1.903
37671W        W 2931  20.712   4.981  14.985
37672W        W 2932   7.987   7.873   1.468
37673W        W 2933  12.032  26.728   4.595
37674W        W 2934  42.226  38.295   0.924
37675W        W 2935  14.612  33.845  12.616
37676W        W 2936   3.874  32.086  12.560
37677W        W 2937  17.210  35.451   0.052
37678W        W 2938   5.430  19.471   0.195
37679W        W 2939  41.039  36.928   0.360
37680W        W 2940  43.848  33.069  14.371
37681W        W 2941  20.229   6.549  11.237
37682W        W 2942  28.147  29.433   0.156
37683W        W 2943  11.786  43.833  10.620
37684W        W 2944   4.803  23.911   4.068
37685W        W 2945  14.791   7.903   0.814
37686W        W 2946   2.334   5.816   3.688
37687W        W 2947  10.571   8.794   3.161
37688W        W 2948  16.732   3.978  12.544
37689W        W 2949  43.005  28.115   1.810
37690W        W 2950  25.868  28.072   9.940
37691W        W 2951  39.112  33.015   3.314
37692W        W 2952   4.953  43.081   4.218
37693W        W 2953   3.407  25.483   1.216
37694W        W 2954   9.505  25.585   3.714
37695W        W 2955  12.650  42.678  14.303
37696W        W 2956  34.376   9.297   4.072
37697W        W 2957  28.183   8.916   0.545
37698W        W 2958  40.777  29.508   2.285
37699W        W 2959  21.649   0.953   2.844
37700W        W 2960  36.308  35.472   0.115
37701W        W 2961  11.442  28.857   0.908
37702W        W 2962  36.423  33.319  13.969
37703W        W 2963   7.354  43.141  11.694
37704W        W 2964   7.205  41.347   4.384
37705W        W 2965  30.877   7.096   4.582
37706W        W 2966  30.087  16.812   4.116
37707W        W 2967  14.628  22.261  11.995
37708W        W 2968  10.389  37.702  14.822
37709W        W 2969  44.128  28.890   4.092
37710W        W 2970  34.079  40.243   3.155
37711W        W 2971  28.066  40.721   0.940
37712W        W 2972  42.738  25.718  11.626
37713W        W 2973  37.357  15.716  14.341
37714W        W 2974  33.324  38.940   4.603
37715W        W 2975  27.088  23.848  11.872
37716W        W 2976  30.198   6.486  12.015
37717W        W 2977  12.182  28.044  11.442
37718W        W 2978  16.607   9.307   0.769
37719W        W 2979  14.562  14.756  13.871
37720W        W 2980  10.501   7.138   2.639
37721W        W 2981  33.353  16.139   0.491
37722W        W 2982  34.939  37.320   3.285
37723W        W 2983   6.652  25.933   9.768
37724W        W 2984  44.395  35.952   0.224
37725W        W 2985   9.751   5.994   2.675
37726W        W 2986  30.674  42.816   4.618
37727W        W 2987  26.705  11.120  14.908
37728W        W 2988   9.372   7.980   1.516
37729W        W 2989  36.549   2.816   4.821
37730W        W 2990  25.453  42.953   3.592
37731W        W 2991  44.044  20.270  13.480
37732W        W 2992  40.720   5.298   2.252
37733W        W 2993  44.337  30.805   3.110
37734W        W 2994  37.976  16.169   0.990
37735W        W 2995  14.376  44.064  11.174
37736W        W 2996  33.532  16.585   0.720
37737W        W 2997  13.845  14.887   1.697
37738W        W 2998   0.713  36.493   4.202
37739W        W 2999  24.308  13.910   2.759
37740W        W 3000   2.767  44.281  11.569
37741W        W 3001  30.991  15.887   0.394
37742W        W 3002   4.395   3.315  13.140
37743W        W 3003   2.690  35.184   4.945
37744W        W 3004  44.685  42.998  12.309
37745W        W 3005   6.601   5.156  14.742
37746W        W 3006  40.977  19.027   4.831
37747W        W 3007   3.501  42.486  11.014
37748W        W 3008  28.599  43.016  10.688
37749W        W 3009  11.821   2.483  14.526
37750W        W 3010  43.005  14.025   1.238
37751W        W 3011  21.689  42.798   0.372
37752W        W 3012  22.274   8.888  11.115
37753W        W 3013   6.377   6.430  13.392
37754W        W 3014   7.127  37.842  12.393
37755W        W 3015  12.907  23.011   0.167
37756W        W 3016  16.301  11.407  14.274
37757W        W 3017  39.901  37.507  12.863
37758W        W 3018  35.430  24.895  11.783
37759W        W 3019  18.885  12.278  10.668
37760W        W 3020  28.002  15.180   4.180
37761W        W 3021  35.695  17.396  11.204
37762W        W 3022  27.192  27.178   4.102
37763W        W 3023  40.498  29.667  13.779
37764W        W 3024  23.604   8.352  11.431
37765W        W 3025  19.890  40.429   1.729
37766W        W 3026  27.169  27.594  11.040
37767W        W 3027  35.016   1.999   3.228
37768W        W 3028   9.945  12.421  13.407
37769W        W 3029   8.084  17.338   5.051
37770W        W 3030  12.002  31.072   4.124
37771W        W 3031  32.455  34.152  12.674
37772W        W 3032  29.592  12.667   2.095
37773W        W 3033  23.913   7.448  11.177
37774W        W 3034   7.804  40.902  14.414
37775W        W 3035  20.680  36.993  10.431
37776W        W 3036  19.569  22.713  13.262
37777W        W 3037  32.664   2.691   4.608
37778W        W 3038  11.891  14.589   2.260
37779W        W 3039  37.967  10.796  13.856
37780W        W 3040  12.508   0.575   1.184
37781W        W 3041  43.800   4.920  11.316
37782W        W 3042  27.116  11.572   4.510
37783W        W 3043  16.505  19.802   0.430
37784W        W 3044   7.881  30.983   0.500
37785W        W 3045   2.943  39.050   4.435
37786W        W 3046   0.847  14.843  11.696
37787W        W 3047   4.340  14.796  11.998
37788W        W 3048  28.994  16.169   3.385
37789W        W 3049  40.507  13.633   1.373
37790W        W 3050  14.140  41.333  11.234
37791W        W 3051  43.789  20.338  10.755
37792W        W 3052  23.025  15.605   1.884
37793W        W 3053   8.127  33.953   1.470
37794W        W 3054  26.636  30.588   3.261
37795W        W 3055  36.458  38.307  12.545
37796W        W 3056  30.449  39.366  10.371
37797W        W 3057  14.438  29.618  11.482
37798W        W 3058  17.096  29.631   2.787
37799W        W 3059  41.375   9.988   1.615
37800W        W 3060  36.421  21.821   1.745
37801W        W 3061   8.356   1.960  13.320
37802W        W 3062  24.856  24.562  12.388
37803W        W 3063   6.897  16.269   2.556
37804W        W 3064   0.831  19.597  12.736
37805W        W 3065  21.749  33.995   2.877
37806W        W 3066  33.612  14.200  12.549
37807W        W 3067  34.175   4.017  11.027
37808W        W 3068  39.911  21.460  13.765
37809W        W 3069   7.957  21.117   1.890
37810W        W 3070  17.993  14.664   2.793
37811W        W 3071  10.256  16.644  11.445
37812W        W 3072   7.188  42.697  11.175
37813W        W 3073  22.967  10.852   1.240
37814W        W 3074   8.636   5.963  12.640
37815W        W 3075  12.423  34.501  11.438
37816W        W 3076  32.976  26.435   0.724
37817W        W 3077   0.299  30.516  13.959
37818W        W 3078  28.584   1.413  13.936
37819W        W 3079  27.448  22.794   3.635
37820W        W 3080  11.356  38.841   1.374
37821W        W 3081  21.048  22.684   3.304
37822W        W 3082   3.765  19.694  12.666
37823W        W 3083  26.734  17.003   3.262
37824W        W 3084   3.465  24.168   3.399
37825W        W 3085  40.461   4.619   2.787
37826W        W 3086   7.275  34.861  13.993
37827W        W 3087  30.357  27.585   2.291
37828W        W 3088  17.562  18.014  13.403
37829W        W 3089   9.376  17.280  12.680
37830W        W 3090  41.254  20.441  12.514
37831W        W 3091   3.280  17.689  11.556
37832W        W 3092  25.455   0.899  11.186
37833W        W 3093  26.669  29.518  13.414
37834W        W 3094  18.334  17.639   1.903
37835W        W 3095  35.622  27.534   4.617
37836W        W 3096  13.562  12.068  10.370
37837W        W 3097   0.304  29.881   4.826
37838W        W 3098  11.396  21.111  13.481
37839W        W 3099  32.320  17.908   0.406
37840W        W 3100  19.791  34.846  13.056
37841W        W 3101  24.750  16.528  13.905
37842W        W 3102  12.355   0.865   1.904
37843W        W 3103   4.046  35.614  11.076
37844W        W 3104  19.169   3.267  13.350
37845W        W 3105  32.988  33.655  12.089
37846W        W 3106  20.265  42.339  14.443
37847W        W 3107  33.981  21.738  11.121
37848W        W 3108   3.266  11.648  10.580
37849W        W 3109  21.745  16.360  12.050
37850W        W 3110  42.222  30.523   2.272
37851W        W 3111  19.305  28.484  12.684
37852W        W 3112   5.669  11.318   4.181
37853W        W 3113  38.500  29.897  11.341
37854W        W 3114  18.523  19.200   3.424
37855W        W 3115  38.883   3.373   3.714
37856W        W 3116  28.082   7.474  12.397
37857W        W 3117  39.869  17.824   3.185
37858W        W 3118   2.720  17.830   3.094
37859W        W 3119  17.652   8.122   3.320
37860W        W 3120  42.221  39.357   3.563
37861W        W 3121  34.352   1.921  11.612
37862W        W 3122   9.721  29.957  12.157
37863W        W 3123   0.311   8.710  14.107
37864W        W 3124  25.299  24.640  14.370
37865W        W 3125  27.626  21.735   1.741
37866W        W 3126  23.175   5.972   0.812
37867W        W 3127  27.124  35.260  14.001
37868W        W 3128  24.194   7.176  11.516
37869W        W 3129   7.624  42.503   0.784
37870W        W 3130  42.753  29.551   2.301
37871W        W 3131  22.116   7.895   2.868
37872W        W 3132   5.214  21.181  13.950
37873W        W 3133   4.854  25.370   1.915
37874W        W 3134  15.058  18.338  13.569
37875W        W 3135   9.393  42.768   0.394
37876W        W 3136  20.737  37.115  12.771
37877W        W 3137   6.222  40.254  11.245
37878W        W 3138  36.648  35.021   2.866
37879W        W 3139  23.607  28.633  11.618
37880W        W 3140  36.066  20.158   4.659
37881W        W 3141  21.087   7.172   3.090
37882W        W 3142  17.795  19.192  13.446
37883W        W 3143  13.793  16.701  12.923
37884W        W 3144  34.855   4.513   5.021
37885W        W 3145  40.529  17.435  13.520
37886W        W 3146  37.409   7.662  14.920
37887W        W 3147  17.642  38.285   3.802
37888W        W 3148  20.270  30.296   4.960
37889W        W 3149  42.519   4.695   3.079
37890W        W 3150  38.953   6.801  13.890
37891W        W 3151  13.155  12.683   1.252
37892W        W 3152  35.706  36.784   1.737
37893W        W 3153   4.698  29.632  13.908
37894W        W 3154  27.603  17.730   0.436
37895W        W 3155  35.384  19.528  10.787
37896W        W 3156  10.617  37.495   2.392
37897W        W 3157  37.042  35.490   0.246
37898W        W 3158  25.917  15.295   3.640
37899W        W 3159   1.715   8.709  13.773
37900W        W 3160  39.791  13.172  11.190
37901W        W 3161  18.885   3.268  10.308
37902W        W 3162  27.188   9.237  13.479
37903W        W 3163  40.354  34.831   4.583
37904W        W 3164  17.101  12.739   2.613
37905W        W 3165   5.798  26.533  13.993
37906W        W 3166  37.795   5.458   0.285
37907W        W 3167   3.740  11.261   1.453
37908W        W 3168  31.941  17.116   2.462
37909W        W 3169  21.018  32.136  11.457
37910W        W 3170  25.138  37.472   1.535
37911W        W 3171  14.287   7.333  12.705
37912W        W 3172   9.861  27.665   3.167
37913W        W 3173  22.233  24.889   3.569
37914W        W 3174   1.185  30.104   2.171
37915W        W 3175  39.861  19.777  11.516
37916W        W 3176   8.872  26.683   0.958
37917W        W 3177  30.200  30.880  11.662
37918W        W 3178   7.820  14.634  13.446
37919W        W 3179  33.452  29.242   0.271
37920W        W 3180  38.383  40.999   2.805
37921W        W 3181   8.902  36.336  12.094
37922W        W 3182   2.732   4.272   1.392
37923W        W 3183  25.179  14.823  12.481
37924W        W 3184  40.597   4.295   3.178
37925W        W 3185  25.009  41.028  13.011
37926W        W 3186  37.825  29.313   2.823
37927W        W 3187   5.970  27.193  12.901
37928W        W 3188  35.649  30.355   4.127
37929W        W 3189  24.519  42.285  11.241
37930W        W 3190  29.186  28.511   2.640
37931W        W 3191  36.397  27.755  12.379
37932W        W 3192  34.609  32.030  13.076
37933W        W 3193  11.903  35.058   3.677
37934W        W 3194   1.528   5.258   0.511
37935W        W 3195  36.855  37.695  10.576
37936W        W 3196  36.641  12.521   4.149
37937W        W 3197  33.547  21.738  11.612
37938W        W 3198  43.521  41.420  10.681
37939W        W 3199  23.286  34.308   2.678
37940W        W 3200   6.255  32.406  12.617
37941W        W 3201  36.148  34.563  11.971
37942W        W 3202   3.814  17.550   1.027
37943W        W 3203  39.334   4.687   0.061
37944W        W 3204  29.148  21.136  12.886
37945W        W 3205  28.844  27.406   2.237
37946W        W 3206  18.780  43.986   1.760
37947W        W 3207  38.609  18.608  11.612
37948W        W 3208   3.866   5.594  13.121
37949W        W 3209  19.285  15.562  11.546
37950W        W 3210  34.773  14.871   4.093
37951W        W 3211  39.929  39.597  13.865
37952W        W 3212  26.903  20.280   1.709
37953W        W 3213  29.954   6.416  11.570
37954W        W 3214   3.415   0.196   2.463
37955W        W 3215  36.434  41.546   0.466
37956W        W 3216  15.126   9.886   1.940
37957W        W 3217  37.998   8.008  13.137
37958W        W 3218  41.799  16.272   2.311
37959W        W 3219  25.147  26.371  14.724
37960W        W 3220  24.155  26.291  13.728
37961W        W 3221  22.985  24.645  14.287
37962W        W 3222  22.167  25.968  12.879
37963W        W 3223  38.570   3.098   1.231
37964W        W 3224  28.155  24.225  10.511
37965W        W 3225  17.211  42.301  11.109
37966W        W 3226   9.110  36.982   4.409
37967W        W 3227  22.994  27.503   3.203
37968W        W 3228  36.853  11.132   2.369
37969W        W 3229  20.994  30.099   2.403
37970W        W 3230  30.339   5.590  11.382
37971W        W 3231  17.095   2.685   2.432
37972W        W 3232   7.269   0.203  12.492
37973W        W 3233  18.071  39.017  13.996
37974W        W 3234   7.920  27.672  13.473
37975W        W 3235  27.806  19.244  13.993
37976W        W 3236  11.280  12.273  12.554
37977W        W 3237  11.684  11.818   1.954
37978W        W 3238  25.272  13.157   0.723
37979W        W 3239   9.688   9.813  10.854
37980W        W 3240   6.924  16.321  10.728
37981W        W 3241  20.232   4.838   4.593
37982W        W 3242  10.154  11.871   1.547
37983W        W 3243  44.813  40.571  11.609
37984W        W 3244  22.591  24.655  14.921
37985W        W 3245   8.891  32.551  11.127
37986W        W 3246  10.316  15.214  13.131
37987W        W 3247  40.789   7.699   3.917
37988W        W 3248  27.415   0.465  14.520
37989W        W 3249  17.860  41.100   2.744
37990W        W 3250  36.282   6.929  12.523
37991W        W 3251  37.910  11.776  14.751
37992W        W 3252  21.788  16.099  11.610
37993W        W 3253  35.564  17.542  10.434
37994W        W 3254   5.724  41.221   4.031
37995W        W 3255  41.964  35.000  10.361
37996W        W 3256   3.740  20.154   1.391
37997W        W 3257   3.890  28.974   2.144
37998W        W 3258  29.581  35.414   0.915
37999W        W 3259  34.959  16.387  13.466
38000W        W 3260  35.638  10.428  13.949
38001W        W 3261  19.714  25.876   2.312
38002W        W 3262  34.006  24.486   1.620
38003W        W 3263   0.484   2.958   4.934
38004W        W 3264   0.046  35.048  11.649
38005W        W 3265  43.532  26.954  14.353
38006W        W 3266  14.406  12.765  12.802
38007W        W 3267   7.117   7.982   1.766
38008W        W 3268  39.267  24.701   3.708
38009W        W 3269  37.316  44.142   4.956
38010W        W 3270  23.607   3.604   4.759
38011W        W 3271  28.319  19.622  13.379
38012W        W 3272  23.818  19.385  13.768
38013W        W 3273  20.023  16.314  11.981
38014W        W 3274  35.542  39.931  11.089
38015W        W 3275  25.092   5.153  14.005
38016W        W 3276  39.999  29.436   1.262
38017W        W 3277   8.459  11.967  11.125
38018W        W 3278  41.549  20.757  12.192
38019W        W 3279  17.024  26.954   1.795
38020W        W 3280  32.950  44.769   4.621
38021W        W 3281  22.631  15.300  11.026
38022W        W 3282  42.834   6.663  11.263
38023W        W 3283  20.373  21.738   2.827
38024W        W 3284  43.884  39.697   1.242
38025W        W 3285  25.931  20.125  12.546
38026W        W 3286  18.210  30.648  11.680
38027W        W 3287   1.906  40.873  13.645
38028W        W 3288  35.836  28.611   1.952
38029W        W 3289   0.922  16.344  12.148
38030W        W 3290   9.405  43.978  12.047
38031W        W 3291   1.899  10.867  14.528
38032W        W 3292   1.993   1.649  11.057
38033W        W 3293  31.200  43.793   4.985
38034W        W 3294  41.780  28.491   4.671
38035W        W 3295  35.478   4.706   3.823
38036W        W 3296  42.438  33.862  10.513
38037W        W 3297  33.051   0.485  14.759
38038W        W 3298  11.714   6.287   4.224
38039W        W 3299  44.542  37.051   4.589
38040W        W 3300   6.697  32.048  10.811
38041W        W 3301  27.726   0.320  13.004
38042W        W 3302   0.994  25.121  11.607
38043W        W 3303  13.155  13.237   1.941
38044W        W 3304  44.184   6.119  13.027
38045W        W 3305  32.545  30.965  13.312
38046W        W 3306  27.555  19.105  13.542
38047W        W 3307   7.010  43.707   3.185
38048W        W 3308  39.225  43.792  10.697
38049W        W 3309  16.643   9.537   0.320
38050W        W 3310  14.394  36.159  11.105
38051W        W 3311  43.169   5.103  12.684
38052W        W 3312  13.253  12.892   3.718
38053W        W 3313  42.886   5.695   4.563
38054W        W 3314  23.761  44.557   2.699
38055W        W 3315  16.569  41.461  11.427
38056W        W 3316  39.884   8.770  10.791
38057W        W 3317  35.493  12.872   3.746
38058W        W 3318  42.196  42.844   1.206
38059W        W 3319  35.829  12.099   3.745
38060W        W 3320  32.831  11.768  10.744
38061W        W 3321  38.820  42.614   5.052
38062W        W 3322  33.601  21.434  11.186
38063W        W 3323   8.160   0.709   3.744
38064W        W 3324  38.451  28.195   4.310
38065W        W 3325   6.747  32.994  13.114
38066W        W 3326  36.491   9.362   0.970
38067W        W 3327  24.767   5.234   2.660
38068W        W 3328  20.550  14.137   2.616
38069W        W 3329  13.817  39.379   2.096
38070W        W 3330  12.145   1.357  13.826
38071W        W 3331   6.955  14.296  11.505
38072W        W 3332  26.153  16.305  12.114
38073W        W 3333  20.693  37.333  11.153
38074W        W 3334  44.193   8.124  13.515
38075W        W 3335  37.514  23.931  11.227
38076W        W 3336  16.627   7.673  10.655
38077W        W 3337  16.322  30.953   0.842
38078W        W 3338  29.510  11.776  13.788
38079W        W 3339  12.143  16.108  10.613
38080W        W 3340  38.877   8.701  11.106
38081W        W 3341  23.333  14.638   1.234
38082W        W 3342   7.120  40.986   2.165
38083W        W 3343  40.162  23.712   3.270
38084W        W 3344   9.918  32.903   1.339
38085W        W 3345  20.097   5.707   4.786
38086W        W 3346  13.003  14.270  13.967
38087W        W 3347  18.619  18.131   3.617
38088W        W 3348   8.217  25.477   3.199
38089W        W 3349  41.734   2.725  11.159
38090W        W 3350  25.030  30.384   2.740
38091W        W 3351   3.994  24.610  14.001
38092W        W 3352   5.406  26.438   2.776
38093W        W 3353  34.561   4.439   2.322
38094W        W 3354   1.909  19.389  13.576
38095W        W 3355  25.698  14.334  10.885
38096W        W 3356   2.298  44.254  13.754
38097W        W 3357  30.819  18.976   2.846
38098W        W 3358  37.023  38.343   1.848
38099W        W 3359  28.929   3.193  11.565
38100W        W 3360  29.849  16.640   3.556
38101W        W 3361  10.794  34.883   4.663
38102W        W 3362   4.802  34.846   4.372
38103W        W 3363  35.579   9.406  12.479
38104W        W 3364  37.587   4.335   4.609
38105W        W 3365  20.785  24.534  10.653
38106W        W 3366  21.601  41.299   1.418
38107W        W 3367  30.746  25.593   3.215
38108W        W 3368  14.309   8.242   3.715
38109W        W 3369  42.414   6.003  11.010
38110W        W 3370  38.270  26.278   1.372
38111W        W 3371  30.965  28.433  12.062
38112W        W 3372  16.312   8.820  13.058
38113W        W 3373  38.024  10.054  13.396
38114W        W 3374  12.775  20.411   2.221
38115W        W 3375   3.917  42.151   0.197
38116W        W 3376  36.617  44.725  12.994
38117W        W 3377  34.047   6.680  11.555
38118W        W 3378  26.580  40.753  12.941
38119W        W 3379  44.468  14.170   3.395
38120W        W 3380  34.082  22.073  14.284
38121W        W 3381  34.435  41.297  14.891
38122W        W 3382  11.623  10.734  13.515
38123W        W 3383  42.147   9.458  11.184
38124W        W 3384  24.359   3.446   2.233
38125W        W 3385  38.559   0.553  12.561
38126W        W 3386  37.317  13.728  12.101
38127W        W 3387   2.034  17.822   1.209
38128W        W 3388  38.328  30.166   4.672
38129W        W 3389  17.137   2.873  10.827
38130W        W 3390   3.740  15.204   1.803
38131W        W 3391  27.274  36.136   1.864
38132W        W 3392  22.576  13.800  11.325
38133W        W 3393  11.332  42.807  14.923
38134W        W 3394   5.755  21.960  12.977
38135W        W 3395   2.770  25.577  14.222
38136W        W 3396  22.126  18.800  14.304
38137W        W 3397  26.930  11.581   2.257
38138W        W 3398  41.405  16.836   2.742
38139W        W 3399  20.519  33.600  14.864
38140W        W 3400  21.417  16.429  11.527
38141W        W 3401  30.502  20.193   0.463
38142W        W 3402   8.172  22.226   4.365
38143W        W 3403  41.457  27.720  13.933
38144W        W 3404  39.343  35.045   3.783
38145W        W 3405  42.497  13.830   1.186
38146W        W 3406  27.138  44.016   0.255
38147W        W 3407  17.098  33.424   0.870
38148W        W 3408  34.824  32.005  10.733
38149W        W 3409   9.710  42.009   2.869
38150W        W 3410  10.603  24.588  12.232
38151W        W 3411   9.975  34.777   1.035
38152W        W 3412  44.791  11.384  13.046
38153W        W 3413  13.121  35.136   1.633
38154W        W 3414  37.301  30.149   3.082
38155W        W 3415   3.478  20.100   0.942
38156W        W 3416  41.056   3.951  13.012
38157W        W 3417   4.973  20.288   1.660
38158W        W 3418   6.232  41.043   2.743
38159W        W 3419  40.517   1.983  13.820
38160W        W 3420  33.856  19.584  11.005
38161W        W 3421  30.076  33.942   1.889
38162W        W 3422  20.066  27.932  11.546
38163W        W 3423  38.516  23.936   1.415
38164W        W 3424  26.268   4.365  10.744
38165W        W 3425  40.575  20.551   2.340
38166W        W 3426  38.770  13.645   4.810
38167W        W 3427  43.721  44.843   0.594
38168W        W 3428  29.763   4.751   5.004
38169W        W 3429  22.571   4.799  14.842
38170W        W 3430  11.753  16.757   2.976
38171W        W 3431  31.852  15.537   0.761
38172W        W 3432  26.900  31.258  14.028
38173W        W 3433  23.964  40.992  12.476
38174W        W 3434   2.233  16.244   1.358
38175W        W 3435  21.240  13.580   4.080
38176W        W 3436  14.292   3.090  12.907
38177W        W 3437  22.822  19.173  14.853
38178W        W 3438  14.313  36.408  14.334
38179W        W 3439  37.368   7.746   1.797
38180W        W 3440  10.814   0.436  14.963
38181W        W 3441  34.559  25.514   0.480
38182W        W 3442   3.197  27.299  12.401
38183W        W 3443   8.007  36.377  11.605
38184W        W 3444  41.295  11.215   4.721
38185W        W 3445  32.817   2.432  14.860
38186W        W 3446  25.740   8.983  14.519
38187W        W 3447  28.098  15.816   2.470
38188W        W 3448  31.375   0.481   1.400
38189W        W 3449   7.159  13.603   2.822
38190W        W 3450  16.282  43.573   2.215
38191W        W 3451  40.002  31.103   2.942
38192W        W 3452  10.821   5.768   5.379
38193W        W 3453  26.921  20.608  13.222
38194W        W 3454  35.646  15.234  12.062
38195W        W 3455  36.358  29.430  14.045
38196W        W 3456  28.908   7.917   3.220
38197W        W 3457  44.098  35.771   4.987
38198W        W 3458  12.370  26.293   9.509
38199W        W 3459  23.580  40.267  10.274
38200W        W 3460  26.706  26.016   1.940
38201W        W 3461   0.362  14.073   3.754
38202W        W 3462   7.709   3.401   1.742
38203W        W 3463  18.652  18.600   4.918
38204W        W 3464  39.085   8.156   3.633
38205W        W 3465  23.647  17.497  12.664
38206W        W 3466   0.920  24.017   0.517
38207W        W 3467  13.809  31.045   0.822
38208W        W 3468  37.530  12.918   3.281
38209W        W 3469  26.932  30.035  12.530
38210W        W 3470   1.966  22.771   4.318
38211W        W 3471  26.989   2.992   3.841
38212W        W 3472   2.322  35.926   2.564
38213W        W 3473  33.508  41.520  13.978
38214W        W 3474  22.769  40.264  11.576
38215W        W 3475   6.861  10.081   3.174
38216W        W 3476  34.586  12.170   5.257
38217W        W 3477  28.476  19.744  14.755
38218W        W 3478  31.926  17.183   3.899
38219W        W 3479  40.262  18.597   1.000
38220W        W 3480  16.793   0.712  13.328
38221W        W 3481  30.292  10.802  13.937
38222W        W 3482  10.059  28.458   1.834
38223W        W 3483  30.697  10.403   3.786
38224W        W 3484  38.690   3.863  13.843
38225W        W 3485  24.987  36.444  14.419
38226W        W 3486  20.227  12.364  11.914
38227W        W 3487  40.786  43.506   2.910
38228W        W 3488  43.728  21.722   2.314
38229W        W 3489  15.056  44.856  10.485
38230W        W 3490   3.197   1.331   1.129
38231W        W 3491  22.084  16.929  12.566
38232W        W 3492  24.773  42.508   2.899
38233W        W 3493  39.115  18.716  11.502
38234W        W 3494  42.263  42.141   1.758
38235W        W 3495  14.301  43.934  14.311
38236W        W 3496  36.120  24.940   0.386
38237W        W 3497  33.862  15.297   1.419
38238W        W 3498  19.852   9.289   4.251
38239W        W 3499  37.592  38.800   4.244
38240W        W 3500  30.102   9.195   3.236
38241W        W 3501   1.531  13.562   3.073
38242W        W 3502  19.475  21.366   2.668
38243W        W 3503  10.936  39.088  12.472
38244W        W 3504   3.954  39.530   3.732
38245W        W 3505  35.426   2.526  11.206
38246W        W 3506  33.894  41.471  13.103
38247W        W 3507  15.536  39.469   0.744
38248W        W 3508  14.054  26.035  11.050
38249W        W 3509  23.472   5.337   1.843
38250W        W 3510  17.858  14.172  12.956
38251W        W 3511  10.172  21.023   0.448
38252W        W 3512  17.062   7.265   1.345
38253W        W 3513  23.859  12.991  11.518
38254W        W 3514  43.878  38.441   1.779
38255W        W 3515  20.125  25.869   3.668
38256W        W 3516  40.902  37.011  13.992
38257W        W 3517  25.630   2.878  13.991
38258W        W 3518   0.253  29.721   1.325
38259W        W 3519   0.033  33.636   4.577
38260W        W 3520  28.756  37.956   0.729
38261W        W 3521   4.373  30.086  12.220
38262W        W 3522  25.625  42.037  12.510
38263W        W 3523  12.681   8.393   3.146
38264W        W 3524  31.279  15.212   0.056
38265W        W 3525  32.677  14.617   4.839
38266W        W 3526  33.126   1.379   1.500
38267W        W 3527  20.552   1.208  14.364
38268W        W 3528  33.972  31.230   4.635
38269W        W 3529  29.648  29.535   4.525
38270W        W 3530  18.252  26.397   4.549
38271W        W 3531  43.417  15.559   1.255
38272W        W 3532  32.857   6.673   0.400
38273W        W 3533  39.210  32.561  11.383
38274W        W 3534  16.793  22.519   0.534
38275W        W 3535  35.271   9.965   1.734
38276W        W 3536  43.518  36.480   0.328
38277W        W 3537  27.497  18.199  14.715
38278W        W 3538  33.055  39.885  12.625
38279W        W 3539  15.665   3.129  13.405
38280W        W 3540  32.529  28.441  11.632
38281W        W 3541  31.530  25.245  12.985
38282W        W 3542   9.129  23.712  14.353
38283W        W 3543   6.566   4.423  12.992
38284W        W 3544  23.936   6.889   0.452
38285W        W 3545  25.140  41.263  14.303
38286W        W 3546  34.510   0.006   4.679
38287W        W 3547  28.124  25.256   4.369
38288W        W 3548  37.055  29.940   0.887
38289W        W 3549   5.934  33.930   2.527
38290W        W 3550  21.684   3.013   2.856
38291W        W 3551  26.128   6.252   1.709
38292W        W 3552  42.213  14.683  13.888
38293W        W 3553  14.690  37.536  11.979
38294W        W 3554  22.260  19.556  11.188
38295W        W 3555  16.792  18.518   4.520
38296W        W 3556  29.908  21.066   4.517
38297W        W 3557  35.996  41.483  11.533
38298W        W 3558  24.611  25.999  13.728
38299W        W 3559  40.000  36.668   0.376
38300W        W 3560  10.818  22.495   3.149
38301W        W 3561  26.935  30.438  13.787
38302W        W 3562  10.185  13.163   3.401
38303W        W 3563  10.841   4.017   2.387
38304W        W 3564  32.341   3.477   3.676
38305W        W 3565  13.577  15.331   3.698
38306W        W 3566  35.010  15.378  13.336
38307W        W 3567  33.440  11.437  14.944
38308W        W 3568   6.460  33.370   3.642
38309W        W 3569  44.000  24.724   0.718
38310W        W 3570   0.874  39.481  12.600
38311W        W 3571  19.801  40.048   0.856
38312W        W 3572  42.385   3.285   2.687
38313W        W 3573  24.757  24.988  11.225
38314W        W 3574   7.945  29.892   3.931
38315W        W 3575  10.096  30.167   0.399
38316W        W 3576  14.874  38.465   3.092
38317W        W 3577  21.914  25.280   2.180
38318W        W 3578  30.482  14.258   2.270
38319W        W 3579  30.374  21.687  14.562
38320W        W 3580  14.639  18.026   0.305
38321W        W 3581   7.123  23.482   2.329
38322W        W 3582  35.760  42.168   3.139
38323W        W 3583  20.201  15.061   1.882
38324W        W 3584  25.721  20.529  14.429
38325W        W 3585  13.277  13.354  10.817
38326W        W 3586  42.898  21.065   2.192
38327W        W 3587   5.481   8.646   1.459
38328W        W 3588  30.583  34.658  12.991
38329W        W 3589  19.348  33.020  11.638
38330W        W 3590  21.315   7.005  11.751
38331W        W 3591  34.674  39.866  12.973
38332W        W 3592  17.081  22.717  12.075
38333W        W 3593  19.920  42.581  14.085
38334W        W 3594  29.590  13.416  11.169
38335W        W 3595  36.006  44.169  13.318
38336W        W 3596   4.495   4.786  11.129
38337W        W 3597  44.278  32.118   1.348
38338W        W 3598  28.147  19.189  10.248
38339W        W 3599  17.616  35.136   4.601
38340W        W 3600  21.117   9.758  13.431
38341W        W 3601  27.448  11.787   3.482
38342W        W 3602  25.216   1.884   1.704
38343W        W 3603  15.805  13.080  14.299
38344W        W 3604  35.948  40.316   4.304
38345W        W 3605  29.827   5.130   2.666
38346W        W 3606   8.896  17.183  12.823
38347W        W 3607  25.530  22.462   1.939
38348W        W 3608  14.748  33.612  13.596
38349W        W 3609  35.002   0.600   4.861
38350W        W 3610   9.838  29.073   2.297
38351W        W 3611  42.759  28.861  13.422
38352W        W 3612   6.783   3.304  14.262
38353W        W 3613  22.665   2.062   4.533
38354W        W 3614  12.907  21.773   0.101
38355W        W 3615   8.836  16.642  12.979
38356W        W 3616  40.446   6.346   4.465
38357W        W 3617  37.491  26.316   3.212
38358W        W 3618   5.340  30.907  11.287
38359W        W 3619  25.526   2.977   0.340
38360W        W 3620   5.826  16.348  12.285
38361W        W 3621  10.843  15.380   2.893
38362W        W 3622  39.358  43.998  12.402
38363W        W 3623  31.551  27.514   2.689
38364W        W 3624  19.448  39.455  14.833
38365W        W 3625  31.520  28.438  13.369
38366W        W 3626  24.376  41.376  11.078
38367W        W 3627  30.144  11.282  10.624
38368W        W 3628   5.284  34.850   3.914
38369W        W 3629  15.406  33.092   0.356
38370W        W 3630   2.420  27.915  13.840
38371W        W 3631  19.683  42.955   1.090
38372W        W 3632   1.821  28.169   0.104
38373W        W 3633   7.317   9.237   3.974
38374W        W 3634  38.979  14.575  14.081
38375W        W 3635  17.839  14.203  11.207
38376W        W 3636  34.896  38.568  13.688
38377W        W 3637  11.330  27.389   0.751
38378W        W 3638  35.622  11.917   2.589
38379W        W 3639  25.722   1.918   3.186
38380W        W 3640  28.323  14.230   2.079
38381W        W 3641  12.806   5.283  13.527
38382W        W 3642   8.243  25.592   4.094
38383W        W 3643  44.864  34.875   2.125
38384W        W 3644  22.017  25.087  12.129
38385W        W 3645  11.430  12.294   3.566
38386W        W 3646   7.326  19.113  14.038
38387W        W 3647  36.098  11.217  12.933
38388W        W 3648   4.395  28.016   3.529
38389W        W 3649  19.071  35.682   2.847
38390W        W 3650  25.040  21.905  13.033
38391W        W 3651  18.511   0.746  11.879
38392W        W 3652  43.099  20.263  13.359
38393W        W 3653  35.854  28.987  11.738
38394W        W 3654  44.015  17.384  14.981
38395W        W 3655  15.007  43.040  12.428
38396W        W 3656  10.847  31.597   1.808
38397W        W 3657  28.252  34.664   3.740
38398W        W 3658  13.110   0.755  10.577
38399W        W 3659  29.039   9.853  14.528
38400W        W 3660  27.451   9.301  13.023
38401W        W 3661  19.124  28.468  11.691
38402W        W 3662  44.321  11.342   3.578
38403W        W 3663  35.344  35.927  14.973
38404W        W 3664  37.484  22.237   3.191
38405W        W 3665   2.398  39.407  14.035
38406W        W 3666  37.520  34.914  13.944
38407W        W 3667   6.385  29.178   4.220
38408W        W 3668  13.147   6.588  12.995
38409W        W 3669  32.416  34.680   2.900
38410W        W 3670  21.308   4.234  12.536
38411W        W 3671  33.994  21.963  12.462
38412W        W 3672   3.097   9.099   0.843
38413W        W 3673  19.767  26.619   2.761
38414W        W 3674  15.443  37.193   3.416
38415W        W 3675  14.259  18.302   2.719
38416W        W 3676   2.861  20.176   2.839
38417W        W 3677  12.159  42.277   1.387
38418W        W 3678  23.589   8.917   0.411
38419W        W 3679   7.081  25.590  14.568
38420W        W 3680  15.686  37.863  14.969
38421W        W 3681   9.782   8.883   0.574
38422W        W 3682  31.666  31.005   2.804
38423W        W 3683  31.513   3.222   1.188
38424W        W 3684  15.038  30.399  14.937
38425W        W 3685  33.495  18.979   0.505
38426W        W 3686  36.003  33.625   2.794
38427W        W 3687  11.062  19.044  11.959
38428W        W 3688  42.442   2.697  14.806
38429W        W 3689  36.961  11.300  14.425
38430W        W 3690  40.801  28.740   4.268
38431W        W 3691  14.686  34.900   1.377
38432W        W 3692  34.597  10.839   0.497
38433W        W 3693  24.157  27.104   2.613
38434W        W 3694  23.485  13.890  11.190
38435W        W 3695  25.996  28.877   0.929
38436W        W 3696  35.049  19.159  10.559
38437W        W 3697  25.510  14.006   0.204
38438W        W 3698  38.433  37.940   3.322
38439W        W 3699  36.694  29.853  13.845
38440W        W 3700  40.507  34.351  13.913
38441W        W 3701  22.606  43.516  12.382
38442W        W 3702   6.715  13.802  13.937
38443W        W 3703  20.661  16.578   1.831
38444W        W 3704   8.358  23.081   0.714
38445W        W 3705   3.203  38.430  11.599
38446W        W 3706   7.279  23.251  14.339
38447W        W 3707  40.985  29.569  13.057
38448W        W 3708   8.177  23.564   3.091
38449W        W 3709  24.218  40.399  12.422
38450W        W 3710   5.438   5.356  14.936
38451W        W 3711  29.831   4.849  11.996
38452W        W 3712  23.264  43.017   5.114
38453W        W 3713  14.875  11.750   0.683
38454W        W 3714  10.630  13.793  14.471
38455W        W 3715  12.366   7.735  13.020
38456W        W 3716  38.000   0.234  11.309
38457W        W 3717  26.017  38.261   3.920
38458W        W 3718  41.433  15.064  11.635
38459W        W 3719  44.510  13.343   0.871
38460W        W 3720  36.021  12.276  13.056
38461W        W 3721  33.126  19.644   4.917
38462W        W 3722  32.537  31.878   0.868
38463W        W 3723  41.014  28.767  14.518
38464W        W 3724  44.485  33.935   2.389
38465W        W 3725  19.644   1.803  12.022
38466W        W 3726  44.771   7.127   3.198
38467W        W 3727  19.183  36.743  11.660
38468W        W 3728   5.339   1.859  11.551
38469W        W 3729   6.199   7.596   4.075
38470W        W 3730  36.906   2.199  14.450
38471W        W 3731   6.659  37.532   4.197
38472W        W 3732  26.022  24.354   0.428
38473W        W 3733  42.601  27.995  14.397
38474W        W 3734   7.050   7.889   0.856
38475W        W 3735  39.901  20.323   4.079
38476W        W 3736   8.544  44.866  11.632
38477W        W 3737  18.375  31.677  13.166
38478W        W 3738  26.538   2.743   1.732
38479W        W 3739  13.974  12.465   0.447
38480W        W 3740   2.515   9.842   0.428
38481W        W 3741  43.797  34.372   3.335
38482W        W 3742  36.634  18.091   1.701
38483W        W 3743  41.285  36.735   2.500
38484W        W 3744  33.562  17.196   3.994
38485W        W 3745   1.426   7.292   1.766
38486W        W 3746  20.103  24.519   3.902
38487W        W 3747  28.506   0.402   1.307
38488W        W 3748  40.049  20.519   1.723
38489W        W 3749  33.992  13.006   4.674
38490W        W 3750  29.587  34.404  12.198
38491W        W 3751  27.119  18.782  11.967
38492W        W 3752   7.825  42.753  13.163
38493W        W 3753  43.837  12.883  14.842
38494W        W 3754  21.992  10.241  14.857
38495W        W 3755   5.336   0.862  14.957
38496W        W 3756  33.828  43.012  11.773
38497W        W 3757  19.265  22.289  13.341
38498W        W 3758  41.501  11.526  11.710
38499W        W 3759  39.884  31.362  11.646
38500W        W 3760   6.126  43.859   4.566
38501W        W 3761  26.483  18.478   2.338
38502W        W 3762  17.485  15.278  11.596
38503W        W 3763   4.124  19.007  11.392
38504W        W 3764   0.769  30.115   4.732
38505W        W 3765  21.259  27.523  14.584
38506W        W 3766  21.058  36.079   0.095
38507W        W 3767   1.613  31.440  14.138
38508W        W 3768   9.786  26.044   3.958
38509W        W 3769  26.968   4.252   3.211
38510W        W 3770  39.792  10.873   2.175
38511W        W 3771   9.814  35.217   3.659
38512W        W 3772  12.170  40.698   1.323
38513W        W 3773  15.510  34.172   0.298
38514W        W 3774  19.290  32.745   2.737
38515W        W 3775  32.569   0.020  12.361
38516W        W 3776  35.967  31.535   3.389
38517W        W 3777  20.674  14.664  13.564
38518W        W 3778  29.357   1.239   3.310
38519W        W 3779  34.967  17.503   2.643
38520W        W 3780  23.590   6.723  13.898
38521W        W 3781   4.270   4.162   0.916
38522W        W 3782  35.070  24.038   1.844
38523W        W 3783  26.787  37.390  13.983
38524W        W 3784  37.508  26.206  10.705
38525W        W 3785  31.098   6.268   4.920
38526W        W 3786  21.208   6.191   2.801
38527W        W 3787  11.700  38.173   1.828
38528W        W 3788  36.459  22.970  12.947
38529W        W 3789   1.788   0.729   4.439
38530W        W 3790  26.095  12.749   3.117
38531W        W 3791  43.828  27.628  14.481
38532W        W 3792  21.559  34.567  11.159
38533W        W 3793  18.413   7.579  13.788
38534W        W 3794  35.547  25.531   3.887
38535W        W 3795  19.731  33.951  11.548
38536W        W 3796   0.823  32.455   3.316
38537W        W 3797  17.189  17.546   3.760
38538W        W 3798   5.774  12.198   3.167
38539W        W 3799  23.548  14.179  12.204
38540W        W 3800  15.226  14.828  10.723
38541W        W 3801  20.560   8.942   0.254
38542W        W 3802   7.248  27.124  13.410
38543W        W 3803  27.429   3.910   1.306
38544W        W 3804  13.278  10.549   2.918
38545W        W 3805  41.535   6.254  11.423
38546W        W 3806  40.066  23.209  11.640
38547W        W 3807  32.902  32.046   4.568
38548W        W 3808  12.794  37.845  12.122
38549W        W 3809  12.537  10.055  13.830
38550W        W 3810  44.755  25.072   3.716
38551W        W 3811   4.488  13.176   3.923
38552W        W 3812  30.706  36.420   4.014
38553W        W 3813   0.702   2.477   4.961
38554W        W 3814  16.036  27.008   0.821
38555W        W 3815   9.566  39.386  11.552
38556W        W 3816  26.856  30.699   4.095
38557W        W 3817   2.284  43.902   1.879
38558W        W 3818  29.242  40.344   3.716
38559W        W 3819  38.758  38.735  11.901
38560W        W 3820  28.730   4.371   2.182
38561W        W 3821  28.459   0.269  14.229
38562W        W 3822   0.946  33.987  14.919
38563W        W 3823  14.300  29.731  12.440
38564W        W 3824  23.385  40.006  13.293
38565W        W 3825  13.782   7.729   1.936
38566W        W 3826  41.469  30.021   2.433
38567W        W 3827  21.049   2.419  14.469
38568W        W 3828  21.848   8.616  11.188
38569W        W 3829  16.558  34.386  14.007
38570W        W 3830  28.553   8.877   4.718
38571W        W 3831  24.216  22.693   3.221
38572W        W 3832  20.741  43.052   0.284
38573W        W 3833   6.688  15.342  14.819
38574W        W 3834  11.085  20.374  10.861
38575W        W 3835  41.244   0.205   0.328
38576W        W 3836   1.660  17.188  13.108
38577W        W 3837  36.961  10.273   0.256
38578W        W 3838  32.434  40.989   4.155
38579W        W 3839  39.644  13.537   2.679
38580W        W 3840  26.738  33.084  12.556
38581W        W 3841  20.258   4.900   2.784
38582W        W 3842  29.680  28.874  13.076
38583W        W 3843  36.912   3.418   9.784
38584W        W 3844  30.370  12.078  14.891
38585W        W 3845  10.834   4.671   4.209
38586W        W 3846  39.086  27.276  12.142
38587W        W 3847  29.206   5.709  11.627
38588W        W 3848  39.361   4.698   1.684
38589W        W 3849  34.054   6.300   1.357
38590W        W 3850  15.989  13.465  13.905
38591W        W 3851  17.287  16.197   0.885
38592W        W 3852  29.209  27.264  11.181
38593W        W 3853   9.560  21.549  14.292
38594W        W 3854  31.424  18.331  13.056
38595W        W 3855  12.650  16.506   2.637
38596W        W 3856  23.221  39.055   2.707
38597W        W 3857  29.263  30.137  10.695
38598W        W 3858   6.897  25.702  12.533
38599W        W 3859  12.294  43.475  13.773
38600W        W 3860   1.257   7.323   0.421
38601W        W 3861   7.997  43.284  12.413
38602W        W 3862   7.620  43.736  13.828
38603W        W 3863  24.990  26.982  12.453
38604W        W 3864  16.968  10.117  11.054
38605W        W 3865   9.439   0.221  10.691
38606W        W 3866  22.971  15.831   2.865
38607W        W 3867  17.264  34.611   0.442
38608W        W 3868  13.544  20.109  11.670
38609W        W 3869  17.164  44.648   0.359
38610W        W 3870  38.184  31.105  10.691
38611W        W 3871  18.054  31.090  14.824
38612W        W 3872  15.232   6.409   3.135
38613W        W 3873  25.119  29.018   4.077
38614W        W 3874  24.058   9.289   2.985
38615W        W 3875  28.364  26.098  14.361
38616W        W 3876  15.969  21.327   0.920
38617W        W 3877  10.083  16.764   0.848
38618W        W 3878  39.177   1.013   3.528
38619W        W 3879   8.877  13.118  10.488
38620W        W 3880  28.053  10.689   0.082
38621W        W 3881   1.304   5.321   1.734
38622W        W 3882  44.356  28.904   4.789
38623W        W 3883  22.176   4.971   1.009
38624W        W 3884  34.925  21.931   3.736
38625W        W 3885   2.330  44.760  12.608
38626W        W 3886   4.852  42.904   1.908
38627W        W 3887  31.614  32.692  10.624
38628W        W 3888  12.732  23.574  13.021
38629W        W 3889  21.600   5.467   3.049
38630W        W 3890  14.604   2.731   2.205
38631W        W 3891  44.543  40.769   2.519
38632W        W 3892   5.254  34.448   1.680
38633W        W 3893  11.143  12.688   1.254
38634W        W 3894  44.314  10.685   1.753
38635W        W 3895  19.983  15.433   2.612
38636W        W 3896  41.176  32.355   1.233
38637W        W 3897   4.693   8.332  10.905
38638W        W 3898  11.408  25.932  12.422
38639W        W 3899   2.508   0.867   1.709
38640W        W 3900   5.454  14.765   2.890
38641W        W 3901  40.437  29.689  14.325
38642W        W 3902   5.427   2.514   4.095
38643W        W 3903   5.733  25.969   2.400
38644W        W 3904  42.471  22.846   1.715
38645W        W 3905   8.334  20.931   1.277
38646W        W 3906  42.394  19.842  12.106
38647W        W 3907  11.756  11.111  10.369
38648W        W 3908  20.151  15.982  10.088
38649W        W 3909   0.352  36.858   1.464
38650W        W 3910  16.328  17.189   0.161
38651W        W 3911  26.597  33.510  14.007
38652W        W 3912  34.364  18.742   2.272
38653W        W 3913  24.251  26.031  14.696
38654W        W 3914  33.866  11.712  10.748
38655W        W 3915  37.081  15.835  14.929
38656W        W 3916   9.187  11.680   0.106
38657W        W 3917  14.654  41.879  12.807
38658W        W 3918  31.973  10.683  11.905
38659W        W 3919  12.619  18.688  14.879
38660W        W 3920   9.729  18.834  11.585
38661W        W 3921   2.071  18.726   3.779
38662W        W 3922  32.376  11.343   0.891
38663W        W 3923  19.604  25.223   4.025
38664W        W 3924  15.016  40.268  12.306
38665W        W 3925  41.465   6.713   2.273
38666W        W 3926  42.835   0.520   2.875
38667W        W 3927   6.671  27.525   0.480
38668W        W 3928  44.900  29.941   4.046
38669W        W 3929   3.757  18.585   3.140
38670W        W 3930   1.263  28.968  11.957
38671W        W 3931   8.307   6.691  12.227
38672W        W 3932   5.305  42.917  12.056
38673W        W 3933  20.598   2.068  12.612
38674W        W 3934  24.098  24.025  14.830
38675W        W 3935  15.714   7.488   2.745
38676W        W 3936   3.762  29.571   4.529
38677W        W 3937   8.159  24.993   2.170
38678W        W 3938  19.732  24.387  14.329
38679W        W 3939  19.186  11.142   4.165
38680W        W 3940  39.348  31.959   3.018
38681W        W 3941  22.112  29.601  12.988
38682W        W 3942   0.185  41.588  12.136
38683W        W 3943  43.697  24.515   2.274
38684W        W 3944  40.781  39.012  13.477
38685W        W 3945  16.486  36.006  11.488
38686W        W 3946   2.432  24.298   1.852
38687W        W 3947  34.565  18.212   4.195
38688W        W 3948  27.469  32.960   2.236
38689W        W 3949  35.642  32.481  11.535
38690W        W 3950  14.585  27.026  11.147
38691W        W 3951   7.376   9.458   1.884
38692W        W 3952  30.478  35.564   2.588
38693W        W 3953  16.689  34.671   0.885
38694W        W 3954  25.210  13.635  10.699
38695W        W 3955   1.053  35.727   4.552
38696W        W 3956  28.187   7.765   1.896
38697W        W 3957  39.782  15.752  13.439
38698W        W 3958   8.444  24.297   9.922
38699W        W 3959  43.138  24.632   3.285
38700W        W 3960  39.112  32.791  14.521
38701W        W 3961  33.804  26.613   2.668
38702W        W 3962  23.678  28.112  14.070
38703W        W 3963  20.562   3.308   1.291
38704W        W 3964  39.603  35.299   2.895
38705W        W 3965   7.319  25.173  14.367
38706W        W 3966   5.443  21.629  14.445
38707W        W 3967   0.302  16.133   4.396
38708W        W 3968  37.370  11.208   2.362
38709W        W 3969   5.249  35.081  12.451
38710W        W 3970   4.881  11.701   4.988
38711W        W 3971  44.380  28.852  14.113
38712W        W 3972  43.278  40.033  14.392
38713W        W 3973   9.655  11.130  11.859
38714W        W 3974  36.144  23.146  13.523
38715W        W 3975  29.357  16.014   3.059
38716W        W 3976   1.461  21.952   1.227
38717W        W 3977  30.611   3.395  12.945
38718W        W 3978  29.978  19.966   3.645
38719W        W 3979  38.230  31.007   2.623
38720W        W 3980   5.613  27.949   0.003
38721W        W 3981  23.806  32.024   0.280
38722W        W 3982  14.353  27.598   3.852
38723W        W 3983  17.290   7.802  12.495
38724W        W 3984  28.973   6.680  12.500
38725W        W 3985   7.368  43.442   1.591
38726W        W 3986   4.449  35.480  12.717
38727W        W 3987  10.870  16.953  14.763
38728W        W 3988  37.084  30.484  14.470
38729W        W 3989  19.221  16.130   1.899
38730W        W 3990  22.455   3.283  10.213
38731W        W 3991   9.035  28.070   2.300
38732W        W 3992  36.175  17.574  11.216
38733W        W 3993  42.830   6.145   5.366
38734W        W 3994   4.242  33.397   1.384
38735W        W 3995  43.273  12.786   1.414
38736W        W 3996   3.390   2.866   0.350
38737W        W 3997  28.522  39.922   1.180
38738W        W 3998  13.257  36.474  12.719
38739W        W 3999  43.308   5.067   4.131
38740W        W 4000  15.645  15.314   2.720
38741W        W 4001  21.612  23.779   2.777
38742W        W 4002   1.794  36.605   2.828
38743W        W 4003  44.964  22.073   1.847
38744W        W 4004   5.344  13.097  13.541
38745W        W 4005  39.240   9.320   4.618
38746W        W 4006  32.887  39.784  10.827
38747W        W 4007  43.768  35.158  11.650
38748W        W 4008  22.993  12.515  12.593
38749W        W 4009  19.901  15.269  13.292
38750W        W 4010  14.902  12.697   2.746
38751W        W 4011   6.427  32.014   5.145
38752W        W 4012  33.360  35.807   0.027
38753W        W 4013  33.640  41.431   0.788
38754W        W 4014  36.908   2.204   0.452
38755W        W 4015  44.478  11.722   0.814
38756W        W 4016  42.857   6.829  12.134
38757W        W 4017  42.919  35.837  14.959
38758W        W 4018  21.559  31.155   4.480
38759W        W 4019  42.409  28.903  13.821
38760W        W 4020  37.407   9.623  11.024
38761W        W 4021  23.796  37.903  13.091
38762W        W 4022  39.094  43.119  12.087
38763W        W 4023  25.473   1.805  11.099
38764W        W 4024  36.631   3.004   1.400
38765W        W 4025  16.266   7.087  11.046
38766W        W 4026   8.222  12.314  13.777
38767W        W 4027  44.264   6.225  14.973
38768W        W 4028  20.602   4.479   1.299
38769W        W 4029  18.677  12.402   2.829
38770W        W 4030  27.524  27.139  12.616
38771W        W 4031   3.530   8.346   1.185
38772W        W 4032  41.300  16.157   3.358
38773W        W 4033  40.448  42.318  11.199
38774W        W 4034   5.177   7.708  12.361
38775W        W 4035  11.311   5.741   1.194
38776W        W 4036   6.775  11.767   3.833
38777W        W 4037   5.479  38.989  11.180
38778W        W 4038   6.511   0.917   4.124
38779W        W 4039  14.678   8.100  13.561
38780W        W 4040  38.850  10.575  13.958
38781W        W 4041  19.512   9.420   9.976
38782W        W 4042  20.916  28.086   1.326
38783W        W 4043   5.654  31.391   1.642
38784W        W 4044   7.019  16.300  13.438
38785W        W 4045  41.014  27.202  11.075
38786W        W 4046   2.890  39.547   4.684
38787W        W 4047   7.582  33.394   2.371
38788W        W 4048  15.199  13.957  14.110
38789W        W 4049  43.391  40.272  11.529
38790W        W 4050  42.095  17.154  14.839
38791W        W 4051  23.055  16.553   3.343
38792W        W 4052  20.755  43.248  12.942
38793W        W 4053  28.938  31.589  14.571
38794W        W 4054  34.203  36.875  11.960
38795W        W 4055  21.297  15.345  12.955
38796W        W 4056  37.871  26.991   2.224
38797W        W 4057  24.050  24.677   3.536
38798W        W 4058  43.949  27.110  11.646
38799W        W 4059  13.136   5.885   3.591
38800W        W 4060  33.148  27.105   2.372
38801W        W 4061  38.626  16.606  11.122
38802W        W 4062  28.486   6.305   4.546
38803W        W 4063  32.439   9.849   3.161
38804W        W 4064  22.325  26.142   2.576
38805W        W 4065  39.149  36.420  14.410
38806W        W 4066  28.158  41.077  13.525
38807W        W 4067  14.588  37.027  12.099
38808W        W 4068   0.480  37.567   0.175
38809W        W 4069  39.668  10.018  13.024
38810W        W 4070  21.664  22.616  11.075
38811W        W 4071  43.234  26.086   1.878
38812W        W 4072  40.117  21.961   2.353
38813W        W 4073  39.862  10.872  10.581
38814W        W 4074  26.710  13.680  13.798
38815W        W 4075  21.143   9.356   2.567
38816W        W 4076   5.873  39.343   4.091
38817W        W 4077   8.363  37.106  12.479
38818W        W 4078  17.064   2.927   3.713
38819W        W 4079   3.043   9.709   3.689
38820W        W 4080   1.429   5.703   2.415
38821W        W 4081  19.446   4.832   4.073
38822W        W 4082   4.245   9.636   1.676
38823W        W 4083  35.162   6.789   2.662
38824W        W 4084  42.462  10.426  14.006
38825W        W 4085  35.652  39.092   2.759
38826W        W 4086  11.373  35.397  12.124
38827W        W 4087   0.405  19.977  12.828
38828W        W 4088  32.870   3.870   2.658
38829W        W 4089  14.700  26.983  11.654
38830W        W 4090   3.193   1.286   0.385
38831W        W 4091   6.911   0.714   3.298
38832W        W 4092  18.554  27.102   0.906
38833W        W 4093   3.597   7.789  12.436
38834W        W 4094  15.137  26.826   2.825
38835W        W 4095   0.098   1.849  12.500
38836W        W 4096  23.026   0.355  12.484
38837W        W 4097  33.413  20.057  13.493
38838W        W 4098  19.904  36.596  13.533
38839W        W 4099   1.313  16.218   1.488
38840W        W 4100  26.627  30.348   0.090
38841W        W 4101  28.482  21.852  13.887
38842W        W 4102   6.695   8.868   2.782
38843W        W 4103   5.327  19.016   1.422
38844W        W 4104   3.327  33.062  13.390
38845W        W 4105   1.951  10.994  12.191
38846W        W 4106  12.712   8.532  12.924
38847W        W 4107  29.637  35.848  10.666
38848W        W 4108  35.398  32.941  10.727
38849W        W 4109   4.709  30.688   1.928
38850W        W 4110  18.056  28.376  12.829
38851W        W 4111  12.009  28.363  14.753
38852W        W 4112  30.467  20.856  12.068
38853W        W 4113  25.971   6.848   3.074
38854W        W 4114  19.154  13.204  11.694
38855W        W 4115  14.454  10.327   0.135
38856W        W 4116  33.041   1.911   3.838
38857W        W 4117   0.401   9.383   3.676
38858W        W 4118  21.097   7.481  14.421
38859W        W 4119   5.305  25.754  14.997
38860W        W 4120  29.953  28.658  14.755
38861W        W 4121   1.341  15.928   1.930
38862W        W 4122  40.247  10.242   4.295
38863W        W 4123  30.013  32.438   0.658
38864W        W 4124  15.778  34.004  11.189
38865W        W 4125  30.513  20.137  13.348
38866W        W 4126  21.933  30.999   1.718
38867W        W 4127  12.735  31.788   3.201
38868W        W 4128  33.937   3.309   5.050
38869W        W 4129  16.653  36.864   0.934
38870W        W 4130  28.622  31.437  14.184
38871W        W 4131  11.856   9.226   3.484
38872W        W 4132  28.585  25.724   1.603
38873W        W 4133  33.659  37.264  14.904
38874W        W 4134   5.881  16.192   0.203
38875W        W 4135  29.541  30.946  12.995
38876W        W 4136  10.708  19.139   2.301
38877W        W 4137  19.734  43.265  12.885
38878W        W 4138  40.366  11.783   1.906
38879W        W 4139  31.159  24.219   2.593
38880W        W 4140   1.866  28.047  14.565
38881W        W 4141  34.643  13.066  13.515
38882W        W 4142  35.488  13.069  12.177
38883W        W 4143  43.590  34.909  13.904
38884W        W 4144  32.608   8.229  14.756
38885W        W 4145  18.558  26.719  14.053
38886W        W 4146   3.780  23.180   0.863
38887W        W 4147  22.777  35.342  11.800
38888W        W 4148  24.082  38.903  11.582
38889W        W 4149  14.805  24.499  13.406
38890W        W 4150  24.533  14.143  13.372
38891W        W 4151  30.716  22.827   3.768
38892W        W 4152  40.107  43.509   1.927
38893W        W 4153  31.466  20.272  14.213
38894W        W 4154  20.722  17.960   3.015
38895W        W 4155  33.217   1.722  13.619
38896W        W 4156   4.881  11.710  14.863
38897W        W 4157  33.748   0.051  10.214
38898W        W 4158   1.146  35.177  11.204
38899W        W 4159   0.557  15.775   5.563
38900W        W 4160  36.955  17.221   1.158
38901W        W 4161  20.614  32.780   4.059
38902W        W 4162  15.265  21.180   1.239
38903W        W 4163  22.914  15.478  12.085
38904W        W 4164  36.400  36.085   0.791
38905W        W 4165  33.488  15.784  13.876
38906W        W 4166  14.089  18.414  11.255
38907W        W 4167   8.981  39.169   2.996
38908W        W 4168  37.355  17.898   4.671
38909W        W 4169  23.009  37.653  10.312
38910W        W 4170  33.531  29.986  12.622
38911W        W 4171  18.762  27.426  10.936
38912W        W 4172  44.885  12.743  14.340
38913W        W 4173   0.483  14.099  11.052
38914W        W 4174  36.982  34.013   2.242
38915W        W 4175  35.993  29.710   3.674
38916W        W 4176   5.648  18.741  14.823
38917W        W 4177  22.135  28.876  11.900
38918W        W 4178  39.997  19.210   3.368
38919W        W 4179   5.849  15.877  12.486
38920W        W 4180  32.543   2.556   3.780
38921W        W 4181  33.600  43.887   2.845
38922W        W 4182  23.353  38.090  11.257
38923W        W 4183  38.628  33.555  13.081
38924W        W 4184  25.029   1.737  10.806
38925W        W 4185  44.215  27.282   3.638
38926W        W 4186  35.096  31.687   1.357
38927W        W 4187  33.439  14.139  10.775
38928W        W 4188  25.649   2.140  12.531
38929W        W 4189  27.541   8.814  13.245
38930W        W 4190  38.586  42.233  11.996
38931W        W 4191   3.642  36.175   4.270
38932W        W 4192   0.871  42.570   0.837
38933W        W 4193  31.567  36.368   1.465
38934W        W 4194  16.681  13.296  10.741
38935W        W 4195  34.536  35.321  12.861
38936W        W 4196   9.527  29.148   1.365
38937W        W 4197  28.725  22.556   4.646
38938W        W 4198  31.900   3.540  13.512
38939W        W 4199  44.510  28.963   0.905
38940W        W 4200  27.799  27.486   2.872
38941W        W 4201  31.425  43.940   2.435
38942W        W 4202  37.509   6.008  12.330
38943W        W 4203  38.745  41.272  11.875
38944W        W 4204  20.470  15.261   0.834
38945W        W 4205  41.793  44.472   3.179
38946W        W 4206  20.659  17.412  10.201
38947W        W 4207  19.195   4.724  13.540
38948W        W 4208   4.291  25.486  13.018
38949W        W 4209  31.474   9.409   3.226
38950W        W 4210  33.945   8.164   3.171
38951W        W 4211  15.205   0.486   1.215
38952W        W 4212  31.458  10.445  11.357
38953W        W 4213  17.730   6.266  11.669
38954W        W 4214   7.464  18.669   2.291
38955W        W 4215   8.475  10.935  13.988
38956W        W 4216   3.383  18.101   0.489
38957W        W 4217   2.812  27.590   9.768
38958W        W 4218   5.727  19.525  11.607
38959W        W 4219  43.150  15.753   3.433
38960W        W 4220   2.810  35.377   2.226
38961W        W 4221  23.013   7.939   2.910
38962W        W 4222  27.092  15.405  11.655
38963W        W 4223   6.324   2.859   0.453
38964W        W 4224  38.000  42.262   4.259
38965W        W 4225  18.303  18.727  14.436
38966W        W 4226  40.447  28.912   3.055
38967W        W 4227  10.383  24.633  10.709
38968W        W 4228   6.425  31.410  10.823
38969W        W 4229  37.996  31.828  14.012
38970W        W 4230  22.688   3.159   0.921
38971W        W 4231  26.420  13.074   2.840
38972W        W 4232  27.961   3.451  14.368
38973W        W 4233  35.290  40.925  12.771
38974W        W 4234  35.934  32.992   4.240
38975W        W 4235  36.608   2.798  14.872
38976W        W 4236  24.485   7.208   2.619
38977W        W 4237  27.658  14.319   2.323
38978W        W 4238  37.234   5.512  14.569
38979W        W 4239  35.586  40.816  14.998
38980W        W 4240   5.570  17.950   1.949
38981W        W 4241  27.897  31.212   2.717
38982W        W 4242  13.950  34.032  14.974
38983W        W 4243  30.562  33.620   0.948
38984W        W 4244   1.958  43.581   0.570
38985W        W 4245   0.740  32.107  11.759
38986W        W 4246  44.347  39.045  13.857
38987W        W 4247  37.235  40.835  11.324
38988W        W 4248  36.493  12.108  13.991
38989W        W 4249  36.987  31.110  11.819
38990W        W 4250   7.991   4.907   0.311
38991W        W 4251  40.331  34.410   0.394
38992W        W 4252  23.938   8.158   2.691
38993W        W 4253  11.077   5.604   4.975
38994W        W 4254  37.431  40.096  12.614
38995W        W 4255  27.442  18.735   0.289
38996W        W 4256  27.588  41.503   4.103
38997W        W 4257  23.309  37.487  13.973
38998W        W 4258  23.472   4.672  13.999
38999W        W 4259  27.483  11.385   0.486
39000W        W 4260  41.314  18.881   2.771
39001W        W 4261  33.031  32.889   3.242
39002W        W 4262  15.887  14.145  12.074
39003W        W 4263   6.170   5.967  12.506
39004W        W 4264  10.920  29.450  13.863
39005W        W 4265  17.008  32.312   2.626
39006W        W 4266  35.493  22.554  11.619
39007W        W 4267  41.814  41.033   2.116
39008W        W 4268  31.036  26.600   1.313
39009W        W 4269   5.381  33.889   3.612
39010W        W 4270  37.203  42.406   0.721
39011W        W 4271  30.964   2.477   1.347
39012W        W 4272  38.129  30.620   4.463
39013W        W 4273  41.925  27.049   2.466
39014W        W 4274   8.210  29.496  13.794
39015W        W 4275  27.642  15.171   0.372
39016W        W 4276  38.481   6.245   1.459
39017W        W 4277   6.490  11.671   3.013
39018W        W 4278  28.898  25.599   2.387
39019W        W 4279  22.762  30.363   1.757
39020W        W 4280  31.701   1.776   0.245
39021W        W 4281   4.802  38.305  10.248
39022W        W 4282  27.023  32.494  11.948
39023W        W 4283  35.105  13.531  14.383
39024W        W 4284  17.362  27.672   2.492
39025W        W 4285  13.591   9.958  14.914
39026W        W 4286  32.944  44.176  14.636
39027W        W 4287   4.754  15.497   0.018
39028W        W 4288  29.927  29.114   1.857
39029W        W 4289  37.947  41.534   1.972
39030W        W 4290   9.856  22.350  11.687
39031W        W 4291  42.060  16.943   4.471
39032W        W 4292  18.190  18.332   0.723
39033W        W 4293  17.391  30.867   4.131
39034W        W 4294  13.840  29.512  13.823
39035W        W 4295  29.682  19.653  12.068
39036W        W 4296  26.292  44.266  14.742
39037W        W 4297  17.793   9.110   4.172
39038W        W 4298  42.400  19.411   2.827
39039W        W 4299  23.114  42.555  14.309
39040W        W 4300  33.771   9.222   3.109
39041W        W 4301  43.170  17.780  11.046
39042W        W 4302   3.433  23.807   2.417
39043W        W 4303  19.458  13.256   0.176
39044W        W 4304   0.771   2.765   2.429
39045W        W 4305   4.828  26.062   4.651
39046W        W 4306  12.867  18.023  10.327
39047W        W 4307  32.355  19.449   1.110
39048W        W 4308  18.844  22.418  13.804
39049W        W 4309  33.757  25.420  11.671
39050W        W 4310  36.598  17.564  11.472
39051W        W 4311  18.577  33.225  14.659
39052W        W 4312   3.190  11.606  13.471
39053W        W 4313   1.128  24.059  14.776
39054W        W 4314  36.294  43.852  11.623
39055W        W 4315  37.963   7.826  14.084
39056W        W 4316  14.383  24.681   4.072
39057W        W 4317  40.349  34.050   3.889
39058W        W 4318  38.956  39.789  10.631
39059W        W 4319  44.476   7.673  12.250
39060W        W 4320   7.687  23.025  10.741
39061W        W 4321  17.276   9.455  11.726
39062W        W 4322   1.374  20.695  14.971
39063W        W 4323  24.507  22.107  13.907
39064W        W 4324   9.513  28.051   4.442
39065W        W 4325   7.652  38.782   4.568
39066W        W 4326  44.309   7.416  10.890
39067W        W 4327  23.317  12.753  12.973
39068W        W 4328  17.885  20.274  11.701
39069W        W 4329  14.168  32.611  11.292
39070W        W 4330  35.568   4.126  12.803
39071W        W 4331  14.281  23.191   4.961
39072W        W 4332  30.887  20.551   0.468
39073W        W 4333  20.483  42.499  11.229
39074W        W 4334  25.056   6.865   3.872
39075W        W 4335  14.550  37.607  13.313
39076W        W 4336   4.178  36.283  13.851
39077W        W 4337  26.867  34.665   4.658
39078W        W 4338  23.540   5.442  11.541
39079W        W 4339  37.208  34.478   2.194
39080W        W 4340  30.141   0.330   4.293
39081W        W 4341   1.509  38.322  14.897
39082W        W 4342  44.478   7.155  12.174
39083W        W 4343  17.372  27.991   3.309
39084W        W 4344  26.425   9.805   4.893
39085W        W 4345  33.807  44.253  12.208
39086W        W 4346   2.437  35.532   3.732
39087W        W 4347  13.435  34.874  14.174
39088W        W 4348  44.329  23.939   2.342
39089W        W 4349  36.106  16.706  14.575
39090W        W 4350  43.755  36.968  11.147
39091W        W 4351  15.384  14.420   3.123
39092W        W 4352  37.270  20.738   4.850
39093W        W 4353  16.786  14.241   4.794
39094W        W 4354  38.915   6.492   2.722
39095W        W 4355  26.389   7.326  14.906
39096W        W 4356   4.665  40.043   0.879
39097W        W 4357  14.314   2.602  13.090
39098W        W 4358   0.805  35.291  10.841
39099W        W 4359  28.684   7.193   3.894
39100W        W 4360  31.382  14.177  14.018
39101W        W 4361   8.735  24.567  12.183
39102W        W 4362  33.225  29.741   0.285
39103W        W 4363  19.865  21.641   2.870
39104W        W 4364  34.535  39.963  14.320
39105W        W 4365  33.932  33.970   2.030
39106W        W 4366  22.151  25.691  14.298
39107W        W 4367  21.345   7.631   4.528
39108W        W 4368  11.896  11.408   4.164
39109W        W 4369  37.505  12.854  12.014
39110W        W 4370  16.750   0.705   1.712
39111W        W 4371   0.223  17.793  14.108
39112W        W 4372   2.916   1.398  13.697
39113W        W 4373  27.325  21.247  10.806
39114W        W 4374  26.474  25.180   3.804
39115W        W 4375  18.562  12.855   3.678
39116W        W 4376  39.876  41.958   3.081
39117W        W 4377  10.280  10.693  12.910
39118W        W 4378  41.510  42.680   5.067
39119W        W 4379  11.752  35.729   1.828
39120W        W 4380  42.743   3.840  13.365
39121W        W 4381   0.437   0.269   0.517
39122W        W 4382  11.498  26.873   5.198
39123W        W 4383  43.887  38.726  14.339
39124W        W 4384  15.333   0.301   1.786
39125W        W 4385  11.655  13.735  11.927
39126W        W 4386  36.460   4.034   0.436
39127W        W 4387  37.569  24.821   3.461
39128W        W 4388   1.875  39.619   0.803
39129W        W 4389  32.517  12.826   0.718
39130W        W 4390  31.277   8.835   2.673
39131W        W 4391   5.453  24.620  13.802
39132W        W 4392  27.699  37.564  14.706
39133W        W 4393   8.399   0.207  10.767
39134W        W 4394  33.180  43.804   0.651
39135W        W 4395  17.402  36.419  13.804
39136W        W 4396  33.346   3.221  11.552
39137W        W 4397   3.494  12.862   4.123
39138W        W 4398   3.931  32.373   0.476
39139W        W 4399  33.901  11.065   4.368
39140W        W 4400  32.059  30.036  10.699
39141W        W 4401  12.758  24.457   4.434
39142W        W 4402  21.182  32.123  14.807
39143W        W 4403   8.173   8.555   2.380
39144W        W 4404  44.753   4.867  10.360
39145W        W 4405  18.627  29.700  10.780
39146W        W 4406  14.557  21.043  14.269
39147W        W 4407   8.884  37.187   3.595
39148W        W 4408   9.705  42.367  10.669
39149W        W 4409   6.120   6.336   4.724
39150W        W 4410  10.954   3.000   3.686
39151W        W 4411   6.193  34.155   3.184
39152W        W 4412  16.840  31.947   4.000
39153W        W 4413  11.045  18.298  12.087
39154W        W 4414  16.176  32.112  11.931
39155W        W 4415  22.121  29.665   2.740
39156W        W 4416  40.123  40.057   1.998
39157W        W 4417  28.465  18.314   2.764
39158W        W 4418  11.550   8.921   3.222
39159W        W 4419  43.280   0.348   2.371
39160W        W 4420  12.184  34.658   1.312
39161W        W 4421  30.108   2.847   0.819
39162W        W 4422   0.698  14.281  14.533
39163W        W 4423  35.808  32.752  14.287
39164W        W 4424  22.224  24.075  13.275
39165W        W 4425   8.713  43.962   2.810
39166W        W 4426  19.834   6.849  14.519
39167W        W 4427  40.123  44.207   2.302
39168W        W 4428  44.815  27.969  12.073
39169W        W 4429  22.739  27.560   2.728
39170W        W 4430   4.378   1.531  10.686
39171W        W 4431  31.857   2.588   2.207
39172W        W 4432   4.909  26.925   1.370
39173W        W 4433  16.561  25.912  13.481
39174W        W 4434  38.528  39.439  11.848
39175W        W 4435   4.925  19.392   0.302
39176W        W 4436  23.652  12.272  12.540
39177W        W 4437   2.819   3.778   2.312
39178W        W 4438  32.340   3.430   2.210
39179W        W 4439  34.314  42.820   2.753
39180W        W 4440  36.127  39.583  12.208
39181W        W 4441  14.265  12.041   2.390
39182W        W 4442   9.461  42.233   0.345
39183W        W 4443  23.003  34.567  12.000
39184W        W 4444  29.810  21.530  12.459
39185W        W 4445  41.819  16.702  13.451
39186W        W 4446  30.206  25.727   1.621
39187W        W 4447  28.364  25.787   4.966
39188W        W 4448  13.839   1.925  14.977
39189W        W 4449  35.229  15.815  11.555
39190W        W 4450  44.829  38.061  10.663
39191W        W 4451  17.772  37.942   0.396
39192W        W 4452  36.898  37.597   4.607
39193W        W 4453  27.146  29.858   2.259
39194W        W 4454  23.576  16.032   1.367
39195W        W 4455  25.673  25.724   4.520
39196W        W 4456  10.392  14.286   3.234
39197W        W 4457  29.674   4.688  12.938
39198W        W 4458  24.928  15.809   2.497
39199W        W 4459  40.257  36.392  10.346
39200W        W 4460  26.485  28.930   0.244
39201W        W 4461  38.804  10.835  14.467
39202W        W 4462  21.248  37.822   1.837
39203W        W 4463   9.542  21.153   3.552
39204W        W 4464  41.051  22.020   4.148
39205W        W 4465  36.992  33.365   2.756
39206W        W 4466   1.653  11.318   5.076
39207W        W 4467  19.065  40.879   3.326
39208W        W 4468  10.858  44.815   0.215
39209W        W 4469  29.676  22.201  13.360
39210W        W 4470   5.911  21.995  12.016
39211W        W 4471  39.395  13.252   0.721
39212W        W 4472  39.859  25.887  13.090
39213W        W 4473  14.824   3.841  12.914
39214W        W 4474  14.642  33.373  12.930
39215W        W 4475  14.719   6.880   9.653
39216W        W 4476  40.357   5.769   4.571
39217W        W 4477  36.667  14.555   0.317
39218W        W 4478  25.099   0.876   3.761
39219W        W 4479  10.169  10.373  12.442
39220W        W 4480  39.779  16.664  13.554
39221W        W 4481   9.521  26.727  10.682
39222W        W 4482  33.885  30.982   4.148
39223W        W 4483  32.531  29.434   1.836
39224W        W 4484  38.061  40.209   1.207
39225W        W 4485  38.108  38.464  13.423
39226W        W 4486   5.440   2.814   0.825
39227W        W 4487  26.219  43.044   0.386
39228W        W 4488  26.956   9.697  13.385
39229W        W 4489   4.759  33.619   4.591
39230W        W 4490   7.284   1.847  14.393
39231W        W 4491   8.067   3.470   0.701
39232W        W 4492  31.391  21.577  10.542
39233W        W 4493  33.884  19.319  13.268
39234W        W 4494  41.912   0.371  11.185
39235W        W 4495  36.392  34.648   4.556
39236W        W 4496   0.673  29.987   2.075
39237W        W 4497  28.676  19.627   4.407
39238W        W 4498   3.431  35.046   2.676
39239W        W 4499   0.993  30.974  11.353
39240W        W 4500  33.880  30.189   4.527
39241W        W 4501   9.776  15.483   2.890
39242W        W 4502  40.522  40.363   3.582
39243W        W 4503  14.087  26.319   4.053
39244W        W 4504  22.865  41.473  14.942
39245W        W 4505  25.501  10.686  13.544
39246W        W 4506   7.743   0.177   3.102
39247W        W 4507  37.619  12.138  14.539
39248W        W 4508   4.178   0.723  13.502
39249W        W 4509  10.207  19.237   3.662
39250W        W 4510  34.059   7.856   1.390
39251W        W 4511  44.405  14.068   0.119
39252W        W 4512  21.798  38.656   1.442
39253W        W 4513  37.396  44.921   4.511
39254W        W 4514   8.182   1.228   3.804
39255W        W 4515  18.362  14.244  12.567
39256W        W 4516   4.797   0.938  13.137
39257W        W 4517  12.278  29.939  13.932
39258W        W 4518  30.402   9.952   1.705
39259W        W 4519  24.240  28.413   3.911
39260W        W 4520  43.209  37.465  12.082
39261W        W 4521  37.044  26.570   3.295
39262W        W 4522  23.110  19.765   2.659
39263W        W 4523   4.217  35.513   4.214
39264W        W 4524  20.407   7.337   0.463
39265W        W 4525  38.330  25.662   4.354
39266W        W 4526   6.906  42.380  14.496
39267W        W 4527  36.431  41.284  12.890
39268W        W 4528   8.323  11.310   1.401
39269W        W 4529   9.206  31.458   0.314
39270W        W 4530   4.764  40.601   3.650
39271W        W 4531   4.383  43.723   1.060
39272W        W 4532  19.047   3.739   0.130
39273W        W 4533  29.430  20.117   4.712
39274W        W 4534  14.569  31.894  14.126
39275W        W 4535   9.759  41.415  13.299
39276W        W 4536  25.431  41.361   1.231
39277W        W 4537  26.663  26.275   1.069
39278W        W 4538  42.536  40.096  11.732
39279W        W 4539  36.147  32.426   4.887
39280W        W 4540  29.680  18.470  12.565
39281W        W 4541  27.406   6.239  10.616
39282W        W 4542   1.283  30.167  14.841
39283W        W 4543  27.228  13.711  13.920
39284W        W 4544  15.341   6.162   2.690
39285W        W 4545   6.274   0.824  11.882
39286W        W 4546  28.176  36.416  10.487
39287W        W 4547   8.395  17.254  11.660
39288W        W 4548  30.162   4.723  11.629
39289W        W 4549  26.654  11.995   0.309
39290W        W 4550  30.690   7.911   4.979
39291W        W 4551  21.642  26.490   2.151
39292W        W 4552  24.775  24.050  14.209
39293W        W 4553  30.655  41.859  11.924
39294W        W 4554  20.266  22.136  13.595
39295W        W 4555  37.904  22.479   2.410
39296W        W 4556   9.584  39.991  13.815
39297W        W 4557  19.175  31.874  11.144
39298W        W 4558  23.234  41.840  12.343
39299W        W 4559  35.548  16.685   2.135
39300W        W 4560  42.362  11.955  14.012
39301W        W 4561  17.671  27.414  12.013
39302W        W 4562  28.601  23.110  11.181
39303W        W 4563  37.097  39.348  11.982
39304W        W 4564  12.288  36.637   3.292
39305W        W 4565  23.093  19.283   2.899
39306W        W 4566  29.665  19.325   2.283
39307W        W 4567  11.359  27.563   3.887
39308W        W 4568   9.799  19.477  14.861
39309W        W 4569  27.167   9.017   4.641
39310W        W 4570  28.996   7.379   2.303
39311W        W 4571  14.200  12.278   1.898
39312W        W 4572   1.660  10.252  13.501
39313W        W 4573  42.234  18.083   0.429
39314W        W 4574  22.131  28.305  11.661
39315W        W 4575  40.753   2.241   2.866
39316W        W 4576  34.721  19.542  11.240
39317W        W 4577  20.906  26.804  14.860
39318W        W 4578  17.213   7.243  11.155
39319W        W 4579  16.122  29.264  12.507
39320W        W 4580  23.274   4.013  13.377
39321W        W 4581  31.274   6.652   4.533
39322W        W 4582  34.954  27.241   0.081
39323W        W 4583  42.245  32.007   3.833
39324W        W 4584  28.754  41.309  12.902
39325W        W 4585  20.709  31.919  14.949
39326W        W 4586  44.429  16.258   0.283
39327W        W 4587  10.101  38.072   3.720
39328W        W 4588  36.084  35.068  12.215
39329W        W 4589  37.556  23.903   0.485
39330W        W 4590  18.619  21.017  12.569
39331W        W 4591   6.427  38.009   4.114
39332W        W 4592  29.580  16.842  11.683
39333W        W 4593  30.777  32.096   4.338
39334W        W 4594  35.044  12.675   4.638
39335W        W 4595  13.116  17.251   2.624
39336W        W 4596  12.442   2.599  11.262
39337W        W 4597   3.185  42.797  13.423
39338W        W 4598   8.104  20.883  12.371
39339W        W 4599  26.060  31.646  11.988
39340W        W 4600  15.039  13.319  12.964
39341W        W 4601  37.124   7.878  14.535
39342W        W 4602  40.009  31.140  13.906
39343W        W 4603  31.695  23.530  14.041
39344W        W 4604   4.118   2.009  12.587
39345W        W 4605   7.915  20.185   3.156
39346W        W 4606  17.521  10.832  13.785
39347W        W 4607  38.408   2.864  11.954
39348W        W 4608  39.607   7.017  12.150
39349W        W 4609  37.035  12.394  10.667
39350W        W 4610   4.850  10.258  14.075
39351W        W 4611   8.217  11.699  10.770
39352W        W 4612  22.266  27.794  10.833
39353W        W 4613  43.535   2.894  12.819
39354W        W 4614   6.174   0.358   4.482
39355W        W 4615  21.468  31.333   4.014
39356W        W 4616  27.714  29.500  14.890
39357W        W 4617   2.438  37.431  14.063
39358W        W 4618  38.100  18.063  13.471
39359W        W 4619  20.697  12.337  13.930
39360W        W 4620  38.079  37.054  14.192
39361W        W 4621  14.094  35.084  12.881
39362W        W 4622  19.474   3.756   2.000
39363W        W 4623  34.636  28.474   3.745
39364W        W 4624  15.748  19.368  13.857
39365W        W 4625  36.169  38.466  12.038
39366W        W 4626  33.206  35.930   9.944
39367W        W 4627  43.948  30.489   1.496
39368W        W 4628  41.869   5.213  12.026
39369W        W 4629  28.670   5.892   1.465
39370W        W 4630  25.913  33.468  11.698
39371W        W 4631  20.810   6.732  14.349
39372W        W 4632  40.633  30.363  11.852
39373W        W 4633  17.541  44.918   1.010
39374W        W 4634  32.895  32.581  14.388
39375W        W 4635  28.665   3.825   0.020
39376W        W 4636  41.294   7.961  14.674
39377W        W 4637  30.510  40.123  14.003
39378W        W 4638  26.745  17.898   3.561
39379W        W 4639  23.093  12.737  12.089
39380W        W 4640  29.224   3.709   3.270
39381W        W 4641  44.907  13.344  12.185
39382W        W 4642  30.481  34.758  11.431
39383W        W 4643  19.077   6.074   1.259
39384W        W 4644  40.981   9.582  11.581
39385W        W 4645   0.811  37.762  13.102
39386W        W 4646  40.886   2.497  13.846
39387W        W 4647  15.704  41.079  10.234
39388W        W 4648   1.847  22.300  12.935
39389W        W 4649   7.828  11.669   2.617
39390W        W 4650  14.128  21.963   3.665
39391W        W 4651  34.428   9.181   1.394
39392W        W 4652  23.429  22.600  11.607
39393W        W 4653  17.852  18.002  12.982
39394W        W 4654  35.879  20.990  14.491
39395W        W 4655   9.139  23.585  13.476
39396W        W 4656  44.040   6.726  13.456
39397W        W 4657   3.046   2.996   3.712
39398W        W 4658  34.901  41.346  12.652
39399W        W 4659   7.341  21.435  12.472
39400W        W 4660  28.500  40.280  10.710
39401W        W 4661  18.346   3.863  14.344
39402W        W 4662  36.494   7.994   2.958
39403W        W 4663  44.960  42.775   1.878
39404W        W 4664  25.478  20.774   3.222
39405W        W 4665   1.753  11.808   0.033
39406W        W 4666  11.768  44.149   1.182
39407W        W 4667  31.464  14.694  10.820
39408W        W 4668   3.852   3.461  14.788
39409W        W 4669  43.277  20.663   4.079
39410W        W 4670  43.204   8.579   0.678
39411W        W 4671   6.138  34.834  12.536
39412W        W 4672  33.825   6.841   2.314
39413W        W 4673  10.695  30.134   3.816
39414W        W 4674  39.016  37.421  14.456
39415W        W 4675  43.324  35.186   4.631
39416W        W 4676  16.977   1.659  12.916
39417W        W 4677  18.366  31.838   4.951
39418W        W 4678   8.367  43.378   3.232
39419W        W 4679   1.235  25.147   2.771
39420W        W 4680   8.730  13.543  12.483
39421W        W 4681  12.736  34.742  12.372
39422W        W 4682  21.277  39.381   1.265
39423W        W 4683  25.119  11.850   3.198
39424W        W 4684  44.437   6.426  10.908
39425W        W 4685  39.337  18.712   3.385
39426W        W 4686  12.710  30.047   0.187
39427W        W 4687   0.885  11.505  12.244
39428W        W 4688  25.179  33.152  12.029
39429W        W 4689  25.456  20.131  12.335
39430W        W 4690  31.181   7.911   3.612
39431W        W 4691  26.997  27.967  12.694
39432W        W 4692  14.008  26.204   1.874
39433W        W 4693  41.452   8.073  12.014
39434W        W 4694  43.311  22.691   0.546
39435W        W 4695  31.528  28.113  12.967
39436W        W 4696  36.911  36.553  12.088
39437W        W 4697  19.546  37.864  12.391
39438W        W 4698  12.061   9.910   1.351
39439W        W 4699  41.425   6.711  14.985
39440W        W 4700  10.348  42.863   2.708
39441W        W 4701  34.196   0.913  13.805
39442W        W 4702  34.432  22.075   0.638
39443W        W 4703   0.937   7.222  11.612
39444W        W 4704  43.564  17.510   1.323
39445W        W 4705  28.945  31.517  10.615
39446W        W 4706  18.576  11.216  11.535
39447W        W 4707  42.958  12.468  11.966
39448W        W 4708  34.363  37.330  14.930
39449W        W 4709  11.040  35.033  10.776
39450W        W 4710   5.413   6.797   4.296
39451W        W 4711  31.024  17.034   3.533
39452W        W 4712   9.743  43.804  13.546
39453W        W 4713  18.956  30.442  13.977
39454W        W 4714  15.621  34.578  12.142
39455W        W 4715   3.399  28.400   1.757
39456W        W 4716  23.751  15.635   0.381
39457W        W 4717  43.472  10.769  11.083
39458W        W 4718   2.560  25.658   0.620
39459W        W 4719  29.459  33.222   1.118
39460W        W 4720  30.695  33.590   0.423
39461W        W 4721  35.374   0.049   2.188
39462W        W 4722  23.803  39.022  11.999
39463W        W 4723   3.811   3.785  13.051
39464W        W 4724  19.057  39.915   4.847
39465W        W 4725  24.670  35.266  12.003
39466W        W 4726  25.430  10.340   0.695
39467W        W 4727  43.683   7.591  12.549
39468W        W 4728  25.671   4.230   3.730
39469W        W 4729  24.544  23.063   2.301
39470W        W 4730  17.709  39.019  12.844
39471W        W 4731   6.451  39.101   2.576
39472W        W 4732  19.542   7.403   2.331
39473W        W 4733  33.603   3.907  12.042
39474W        W 4734  18.238  42.391  12.933
39475W        W 4735  40.810  40.571   3.986
39476W        W 4736  20.641  25.031  11.763
39477W        W 4737  31.142  41.987   2.377
39478W        W 4738   8.379  17.235   0.490
39479W        W 4739   8.010   9.306   1.119
39480W        W 4740  35.465   6.733  11.964
39481W        W 4741  28.047   2.690  11.843
39482W        W 4742   2.342  28.165  14.304
39483W        W 4743  18.131  32.968  13.580
39484W        W 4744  15.047  14.594   4.032
39485W        W 4745  31.514  33.565  13.620
39486W        W 4746  14.591  20.816   4.172
39487W        W 4747  40.177  10.557  12.451
39488W        W 4748   7.084  35.016  14.875
39489W        W 4749   3.870  18.207  14.227
39490W        W 4750  36.513  16.586   1.802
39491W        W 4751  38.502   5.714   1.435
39492W        W 4752  33.802  33.007  12.428
39493W        W 4753  34.163  13.554  10.645
39494W        W 4754  31.469  42.828  10.318
39495W        W 4755  43.601  35.955   0.685
39496W        W 4756  11.195  33.667   3.096
39497W        W 4757  42.316  22.156   2.735
39498W        W 4758   2.337  28.361   0.390
39499W        W 4759  21.386  19.346  10.220
39500W        W 4760  12.768  30.146  13.315
39501W        W 4761  44.420  40.406  10.533
39502W        W 4762  39.946  33.902   2.050
39503W        W 4763   7.254  32.344   4.165
39504W        W 4764  33.385  31.444   0.269
39505W        W 4765  23.543  37.393   4.687
39506W        W 4766  10.803  36.329  14.799
39507W        W 4767  18.545  42.628   1.972
39508W        W 4768  28.239  37.476  11.440
39509W        W 4769  15.379  18.249   1.616
39510W        W 4770  41.838  31.412   2.514
39511W        W 4771  21.254   4.917  14.328
39512W        W 4772  35.559  42.857   2.690
39513W        W 4773  21.074  25.549  12.878
39514W        W 4774  17.447  40.337   2.727
39515W        W 4775   5.937   5.196  14.897
39516W        W 4776  19.495  17.841  12.517
39517W        W 4777  29.550   3.337  11.387
39518W        W 4778   0.021   6.619  10.486
39519W        W 4779  40.848  16.916   1.266
39520W        W 4780  41.955  24.070   2.684
39521W        W 4781   6.811  40.341  10.546
39522W        W 4782  11.535  39.969   1.388
39523W        W 4783  25.694  19.601  14.279
39524W        W 4784   7.640   2.002   0.354
39525W        W 4785   6.208  20.946  14.882
39526W        W 4786  44.812  23.339   4.670
39527W        W 4787  38.444  13.358   2.704
39528W        W 4788  25.020  30.380  11.892
39529W        W 4789  21.135  35.807   2.745
39530W        W 4790   7.354   1.651  12.598
39531W        W 4791   4.854  30.218   1.097
39532W        W 4792  24.962  11.193  12.108
39533W        W 4793   2.223  44.730  13.958
39534W        W 4794  14.772   6.674  10.643
39535W        W 4795  35.120   5.646  11.080
39536W        W 4796  34.425  43.490  10.400
39537W        W 4797   7.283  32.358  13.897
39538W        W 4798  10.632   8.994  11.890
39539W        W 4799  37.226  13.756   4.515
39540W        W 4800   5.469  16.311  12.657
39541W        W 4801   5.801   2.489  11.998
39542W        W 4802  40.253  13.337  11.130
39543W        W 4803  20.202  12.457  13.692
39544W        W 4804  12.664  27.769  12.991
39545W        W 4805  23.473  28.994  11.956
39546W        W 4806  40.548   8.719   1.254
39547W        W 4807   7.083  12.084  13.911
39548W        W 4808   4.980  17.963  14.909
39549W        W 4809  32.662  20.628   2.347
39550W        W 4810  41.553   1.753  10.221
39551W        W 4811   1.026  33.656  12.866
39552W        W 4812  36.447  27.478  13.605
39553W        W 4813  19.858   9.935  11.827
39554W        W 4814  11.929  40.024   3.380
39555W        W 4815   2.629  11.378  14.901
39556W        W 4816   1.497  29.427  14.062
39557W        W 4817   2.759  15.216   1.907
39558W        W 4818  36.916   1.132   0.260
39559W        W 4819  32.371   5.208   0.918
39560W        W 4820   4.222   7.837  13.924
39561W        W 4821  10.306  40.921   1.623
39562W        W 4822  10.861  25.712   0.734
39563W        W 4823   7.899  20.127   1.449
39564W        W 4824  25.256  21.605  11.736
39565W        W 4825  33.607  26.728  11.979
39566W        W 4826  39.811  33.553  13.451
39567W        W 4827  11.807  11.253   0.123
39568W        W 4828   8.095   6.296   4.793
39569W        W 4829  24.450  37.791   2.763
39570W        W 4830  37.958  24.510  11.450
39571W        W 4831  32.400  27.293  12.095
39572W        W 4832  33.958  17.883   2.102
39573W        W 4833  27.912  43.218  12.619
39574W        W 4834  12.748  26.500  14.803
39575W        W 4835  32.427   1.319   4.016
39576W        W 4836  10.729  25.481   3.102
39577W        W 4837   6.261  26.029   4.090
39578W        W 4838  26.786  17.156  11.606
39579W        W 4839  33.407  19.063  12.697
39580W        W 4840  13.888  12.345   2.648
39581W        W 4841  18.617  35.340   2.173
39582W        W 4842  11.110  35.415  12.568
39583W        W 4843  16.978  24.985  10.799
39584W        W 4844  27.257  14.751  13.550
39585W        W 4845  36.615  14.768   1.246
39586W        W 4846  27.456  28.452  10.993
39587W        W 4847  38.240  23.118  10.708
39588W        W 4848  25.587  39.236   0.931
39589W        W 4849   1.926  22.782  12.684
39590W        W 4850  44.234   8.224  14.014
39591W        W 4851  32.281  26.797   4.998
39592W        W 4852  23.215  13.204   3.559
39593W        W 4853  39.399   9.234  12.647
39594W        W 4854  24.933   8.743   0.910
39595W        W 4855  19.521  23.987   4.553
39596W        W 4856  42.446   2.197  11.415
39597W        W 4857  36.898  15.014   0.488
39598W        W 4858  11.723  43.552   2.885
39599W        W 4859  11.693   3.237   0.166
39600W        W 4860   3.951  32.179   3.666
39601W        W 4861  15.052  23.907   3.256
39602W        W 4862  19.071  10.848  14.351
39603W        W 4863  33.658  26.298   3.204
39604W        W 4864   8.315  31.403  12.388
39605W        W 4865  35.901  16.030   3.733
39606W        W 4866  42.544  33.301  12.813
39607W        W 4867  30.740  32.875  11.093
39608W        W 4868   4.958   2.489   2.144
39609W        W 4869  31.827  39.937   3.573
39610W        W 4870  24.999  32.721  12.878
39611W        W 4871  40.792  18.545  11.230
39612W        W 4872  18.366  25.526   4.615
39613W        W 4873  25.574  17.342   3.268
39614W        W 4874  24.321  13.362   0.914
39615W        W 4875  13.753  27.411  11.086
39616W        W 4876  21.849  41.104  14.088
39617W        W 4877  26.997   1.503   3.111
39618W        W 4878  36.339  23.258  10.461
39619W        W 4879   1.946  31.675  11.985
39620W        W 4880   1.838  40.276  12.478
39621W        W 4881  34.038  28.035  11.822
39622W        W 4882  40.473  41.067  10.006
39623W        W 4883  42.400   4.977  10.954
39624W        W 4884  13.288  19.012  11.750
39625W        W 4885   4.068  21.455   2.773
39626W        W 4886  34.146  44.536   1.389
39627W        W 4887  16.425  22.974  13.422
39628W        W 4888  27.774  42.846  14.530
39629W        W 4889  29.546   4.666  10.939
39630W        W 4890  21.691  30.514   3.653
39631W        W 4891  23.449  37.053  11.047
39632W        W 4892  19.769   2.554  11.348
39633W        W 4893  17.815   2.267   1.844
39634W        W 4894  25.711  15.631   4.031
39635W        W 4895  26.546   7.789   0.063
39636W        W 4896  36.854  31.615   3.922
39637W        W 4897   5.838  19.446  12.082
39638W        W 4898  26.769  19.754  11.596
39639W        W 4899  20.979  15.492   4.147
39640W        W 4900  33.416   7.681  12.956
39641W        W 4901  37.632  36.573   0.370
39642W        W 4902  14.939  40.967   4.781
39643W        W 4903  24.903  44.983   4.258
39644W        W 4904  16.100  33.569   4.237
39645W        W 4905  29.930  31.990   0.389
39646W        W 4906  22.495   9.383  14.962
39647W        W 4907  12.889   1.244   2.392
39648W        W 4908  32.554  42.923   3.169
39649W        W 4909   4.894  14.062  13.013
39650W        W 4910   1.001  43.253  14.397
39651W        W 4911   1.470  13.861  14.443
39652W        W 4912   5.076  42.756   3.779
39653W        W 4913  32.218  23.502   9.860
39654W        W 4914  43.269  40.905   2.243
39655W        W 4915  21.515  17.272  12.058
39656W        W 4916  10.914  33.665  10.519
39657W        W 4917   5.821  12.473   0.488
39658W        W 4918  23.068   4.976   0.669
39659W        W 4919  26.006   6.819   1.761
39660W        W 4920  35.983   6.219   2.883
39661W        W 4921  34.906  21.504  10.570
39662W        W 4922  24.647  11.406  12.645
39663W        W 4923  34.471  39.881  11.647
39664W        W 4924   8.953  25.822   0.465
39665W        W 4925   0.315  26.922   4.881
39666W        W 4926  40.356  31.501  14.917
39667W        W 4927  17.718  43.464   2.928
39668W        W 4928   3.282  27.153  14.054
39669W        W 4929   4.243  12.299  13.527
39670W        W 4930  23.790  43.208   0.128
39671W        W 4931  35.562  23.648   2.353
39672W        W 4932  32.885  34.925  12.815
39673W        W 4933  12.507   4.911   0.004
39674W        W 4934   2.938  23.092   1.400
39675W        W 4935  24.454  27.438  12.392
39676W        W 4936  34.929  37.656  14.927
39677W        W 4937  28.779  18.543   0.381
39678W        W 4938  24.931  11.222   0.210
39679W        W 4939  17.094  15.827  12.873
39680W        W 4940  29.040  26.455   1.803
39681W        W 4941  40.076  32.378  13.077
39682W        W 4942  36.125  29.057   4.249
39683W        W 4943  30.482  29.665  10.616
39684W        W 4944  12.678   0.325   1.633
39685W        W 4945   2.431  39.370  13.069
39686W        W 4946  29.641  37.253  14.739
39687W        W 4947  15.188  18.674  12.943
39688W        W 4948  14.078   5.931   1.533
39689W        W 4949   1.785  27.514   3.147
39690W        W 4950  27.207  28.154  11.317
39691W        W 4951  42.937   9.117   3.257
39692W        W 4952  20.849  38.443   1.397
39693W        W 4953  15.267  16.149   4.303
39694W        W 4954  11.527  19.128   0.469
39695W        W 4955  28.364  23.045  11.650
39696W        W 4956  27.768   6.978  11.625
39697W        W 4957  30.652  42.830   2.351
39698W        W 4958  38.111  28.956   4.103
39699W        W 4959  33.015  41.083   2.246
39700W        W 4960   5.896  26.740  10.134
39701W        W 4961  20.662  14.797   3.524
39702W        W 4962  25.650  12.343   2.260
39703W        W 4963  33.579  22.178  14.328
39704W        W 4964  10.298  14.662  11.110
39705W        W 4965  40.404   6.333  13.853
39706W        W 4966  22.877  40.256   0.416
39707W        W 4967  39.617  19.534   3.291
39708W        W 4968  13.934   0.242   0.448
39709W        W 4969  10.404  42.987   0.469
39710W        W 4970  29.034  40.392   2.724
39711W        W 4971  13.982  35.390   0.816
39712W        W 4972  30.434  21.688  12.995
39713W        W 4973  25.977  43.854   5.042
39714W        W 4974  38.456  31.999   0.286
39715W        W 4975  14.625  30.425   4.622
39716W        W 4976  31.455   5.425   4.690
39717W        W 4977  30.507  40.039   1.250
39718W        W 4978  37.997  20.255  13.981
39719W        W 4979  19.755   6.887   0.434
39720W        W 4980  31.151  44.829  11.562
39721W        W 4981  43.507  37.935  12.439
39722W        W 4982  44.987  32.387   4.165
39723W        W 4983  23.215  34.386  14.563
39724W        W 4984  15.362  39.842  13.517
39725W        W 4985   7.746   6.740  12.019
39726W        W 4986  44.440   5.914  13.477
39727W        W 4987  11.615  35.922  10.680
39728W        W 4988  34.677  15.837   3.400
39729W        W 4989   3.630  11.168  14.939
39730W        W 4990  28.009  22.705   0.844
39731W        W 4991  33.836   7.715   1.834
39732W        W 4992  12.853  22.253   1.384
39733W        W 4993  17.298  43.224   2.656
39734W        W 4994  18.478  13.910   4.945
39735W        W 4995   2.746  24.673   1.719
39736W        W 4996  30.615  32.245  13.039
39737W        W 4997  43.550  40.867   2.668
39738W        W 4998   0.271  15.400   5.769
39739W        W 4999  30.619  16.686  13.562
39740W        W 5000  26.902  19.968   4.537
39741W        W 5001  25.512   5.747   4.606
39742W        W 5002  10.265  33.862  12.531
39743W        W 5003  44.266   5.961  10.775
39744W        W 5004  27.035  40.989  12.690
39745W        W 5005  13.608  43.968  12.848
39746W        W 5006   5.109  11.175  14.506
39747W        W 5007  13.578  18.190  14.945
39748W        W 5008  19.050  22.756  11.992
39749W        W 5009  28.698  11.801  10.666
39750W        W 5010  30.053   0.258  12.896
39751W        W 5011  29.375  17.072  13.795
39752W        W 5012   1.259  38.366  13.014
39753W        W 5013  18.690  22.907   2.206
39754W        W 5014  40.276  25.148  10.718
39755W        W 5015  41.290  39.536  10.870
39756W        W 5016  18.604  13.251  12.543
39757W        W 5017  31.734  22.339  10.709
39758W        W 5018  34.856  37.436   1.712
39759W        W 5019  19.712   5.708  11.529
39760W        W 5020  23.947   3.146   2.135
39761W        W 5021  20.157  13.630  11.632
39762W        W 5022  20.474  11.209  14.314
39763W        W 5023  17.311  39.082   0.535
39764W        W 5024  31.391  44.899  12.004
39765W        W 5025   5.372  44.863  10.760
39766W        W 5026  30.139  34.963   1.865
39767W        W 5027  18.044  18.085   1.705
39768W        W 5028  25.555  19.101  14.307
39769W        W 5029  33.843  18.417  14.364
39770W        W 5030  32.490  15.115   4.794
39771W        W 5031  38.742  31.226   1.800
39772W        W 5032   8.778  24.570   1.825
39773W        W 5033   6.593   8.514  12.646
39774W        W 5034  11.821  31.797   0.402
39775W        W 5035   1.446  41.516   1.414
39776W        W 5036  33.187  17.039   2.735
39777W        W 5037   6.394  25.505  11.004
39778W        W 5038   7.436  43.004   0.228
39779W        W 5039  16.634  42.468  13.358
39780W        W 5040  44.227  29.408  13.683
39781W        W 5041  13.212  36.414   2.879
39782W        W 5042   6.230  40.789   0.875
39783W        W 5043  41.183  11.887   1.415
39784W        W 5044  31.147  31.569  11.883
39785W        W 5045  14.866  40.352  14.051
39786W        W 5046  26.601  40.330  14.012
39787W        W 5047  10.870  41.314   3.071
39788W        W 5048  10.895  29.016   5.446
39789W        W 5049  24.113  22.105   0.981
39790W        W 5050  31.361   4.997   1.003
39791W        W 5051  22.456  17.098  10.998
39792W        W 5052  33.364  12.105   2.737
39793W        W 5053  33.993  34.589   0.319
39794W        W 5054  25.899   4.891   9.602
39795W        W 5055  27.464  18.215   0.231
39796W        W 5056  34.547  13.259  13.000
39797W        W 5057  17.776  29.930  11.903
39798W        W 5058  14.087   3.401   2.602
39799W        W 5059  30.035  13.329   3.216
39800W        W 5060   2.394  36.463  13.598
39801W        W 5061  25.065   4.284   3.161
39802W        W 5062  13.371  13.860  10.776
39803W        W 5063   9.137  16.863  12.465
39804W        W 5064   4.982  27.149   0.887
39805W        W 5065  13.574  31.336   1.308
39806W        W 5066   6.416  15.564   1.329
39807W        W 5067  13.652  24.020  10.737
39808W        W 5068  14.078  29.637  14.405
39809W        W 5069  14.285  12.522  11.208
39810W        W 5070  23.987  16.028   1.716
39811W        W 5071  17.207  12.567  12.126
39812W        W 5072  25.533  26.092  10.565
39813W        W 5073   1.309  34.494   3.322
39814W        W 5074  10.934  17.995   3.708
39815W        W 5075   9.387   3.944  14.389
39816W        W 5076   9.208   2.862  10.581
39817W        W 5077  19.731  18.432   3.253
39818W        W 5078  35.556  28.325   3.381
39819W        W 5079  38.522  15.002  14.577
39820W        W 5080  10.669   7.870   1.745
39821W        W 5081  22.555  34.872   5.375
39822W        W 5082  15.816  23.236   4.547
39823W        W 5083   1.242  41.014   0.344
39824W        W 5084  14.590  13.575   2.755
39825W        W 5085   7.876   6.946  14.251
39826W        W 5086  41.922   9.926  13.088
39827W        W 5087  25.718  19.289  13.847
39828W        W 5088  21.601  18.043  14.463
39829W        W 5089   1.767  26.680   1.838
39830W        W 5090  13.244  43.437   3.143
39831W        W 5091  15.720  40.412  12.466
39832W        W 5092  28.685  36.094   4.512
39833W        W 5093  41.915   6.645   0.492
39834W        W 5094  37.324  33.603  11.314
39835W        W 5095  13.144  20.241   5.018
39836W        W 5096   4.369   3.399   1.393
39837W        W 5097  36.047  11.791   2.891
39838W        W 5098   8.843  43.935  14.724
39839W        W 5099  34.520  37.544   3.044
39840W        W 5100   4.090   8.147  11.214
39841W        W 5101  26.506  38.602  10.615
39842W        W 5102  33.464  18.045  10.322
39843W        W 5103  12.360  15.364   4.151
39844W        W 5104  18.618  32.520  13.924
39845W        W 5105  19.641  27.382   1.274
39846W        W 5106  23.437  42.438   0.181
39847W        W 5107   2.586  32.627  10.990
39848W        W 5108   2.292  44.904   2.150
39849W        W 5109  36.326  12.253   3.847
39850W        W 5110  41.513   9.091   4.498
39851W        W 5111  28.649  32.301   4.279
39852W        W 5112  24.718  32.443   4.359
39853W        W 5113   7.312  11.229  12.886
39854W        W 5114  15.142   8.873  11.039
39855W        W 5115   4.837  13.867   3.250
39856W        W 5116  32.060  28.945  14.035
39857W        W 5117   2.808  25.995  14.535
39858W        W 5118  12.321   1.013   0.218
39859W        W 5119  12.282  41.363  14.339
39860W        W 5120  14.827  27.323  14.332
39861W        W 5121  15.262   7.200   2.682
39862W        W 5122   2.335   3.843   0.139
39863W        W 5123  21.147  27.732   3.848
39864W        W 5124  14.394  24.822  11.558
39865W        W 5125  42.670  10.495  11.460
39866W        W 5126  21.630  42.784   2.373
39867W        W 5127  31.495  16.289   0.725
39868W        W 5128   2.860   5.294   3.359
39869W        W 5129  35.990  18.753  11.604
39870W        W 5130  34.269   9.493  11.994
39871W        W 5131  44.715  12.635  10.844
39872W        W 5132  33.832  33.711  13.628
39873W        W 5133  39.605  32.214  10.649
39874W        W 5134  11.948  26.635  12.058
39875W        W 5135   1.227  29.949   1.294
39876W        W 5136  14.545  42.070   1.803
39877W        W 5137  16.602  26.084  14.870
39878W        W 5138  28.293  33.533  10.385
39879W        W 5139  21.595  33.492   2.790
39880W        W 5140   9.347  37.608   5.021
39881W        W 5141  15.973  27.060   4.648
39882W        W 5142   6.559   1.714   1.777
39883W        W 5143  24.221  12.698   2.367
39884W        W 5144  33.074  39.365   2.888
39885W        W 5145  37.394  19.572  11.710
39886W        W 5146  38.447   3.653   2.691
39887W        W 5147  15.124  10.185   1.460
39888W        W 5148  13.357  16.692  10.704
39889W        W 5149  28.478  18.765   1.601
39890W        W 5150  19.970  41.249   4.465
39891W        W 5151  27.621   1.280  13.094
39892W        W 5152  36.332  33.523  11.980
39893W        W 5153  14.185  25.769   0.971
39894W        W 5154  41.797  13.092  13.421
39895W        W 5155  25.199  32.594   2.789
39896W        W 5156  26.821   0.507   0.354
39897W        W 5157  38.551  15.781  14.936
39898W        W 5158  25.026  29.265   1.841
39899W        W 5159   7.587  10.228  11.553
39900W        W 5160  15.685  13.224   1.398
39901W        W 5161   3.258  25.565   3.355
39902W        W 5162  21.003  32.887   0.384
39903W        W 5163  26.321   6.251  12.168
39904W        W 5164  32.847  36.571  10.738
39905W        W 5165  16.550   1.506   2.782
39906W        W 5166  27.984   5.772   4.912
39907W        W 5167  36.407  40.730  10.811
39908W        W 5168  19.780   1.669   0.890
39909W        W 5169  44.378  13.919   1.734
39910W        W 5170  32.904  20.772   1.464
39911W        W 5171  35.547  37.352  12.690
39912W        W 5172  38.640  16.132  13.840
39913W        W 5173  15.370   1.657  12.635
39914W        W 5174  35.496  39.046   0.654
39915W        W 5175  12.024  27.967  10.220
39916W        W 5176  13.535  27.687  12.992
39917W        W 5177  25.576  29.721  14.265
39918W        W 5178  31.177   7.014   3.651
39919W        W 5179  35.066  17.520   2.143
39920W        W 5180  15.211  39.944   1.045
39921W        W 5181  20.761   5.347   4.194
39922W        W 5182  30.949  41.466  11.766
39923W        W 5183  14.284  27.112   3.244
39924W        W 5184  23.818  35.258  12.601
39925W        W 5185  23.967   4.689  14.000
39926W        W 5186  12.151  33.262   0.875
39927W        W 5187   0.784  42.017   2.602
39928W        W 5188  16.062  37.410  14.544
39929W        W 5189   6.199  12.474  11.805
39930W        W 5190  37.600   3.919   4.908
39931W        W 5191  21.246  40.781   2.235
39932W        W 5192  32.097  13.125  13.935
39933W        W 5193  21.988  30.902   3.391
39934W        W 5194  41.041  21.794   4.920
39935W        W 5195  10.034  39.403  13.437
39936W        W 5196  11.161   0.160   0.992
39937W        W 5197   5.787  27.953   1.288
39938W        W 5198  18.113  27.098   3.856
39939W        W 5199   9.231  22.605  11.030
39940W        W 5200  27.650  32.396  11.542
39941W        W 5201   7.992  38.900   5.310
39942W        W 5202   2.377  44.401   3.867
39943W        W 5203  15.379   2.265  12.834
39944W        W 5204   0.434  20.041   0.828
39945W        W 5205  40.676   3.313  10.623
39946W        W 5206   2.177  17.052   4.591
39947W        W 5207  19.604  21.480  12.123
39948W        W 5208  40.346  39.834   1.152
39949W        W 5209  11.526  36.676   2.371
39950W        W 5210  44.539  39.946  14.531
39951W        W 5211   3.053   4.666   3.252
39952W        W 5212  36.514  31.441  12.708
39953W        W 5213  41.352  37.562  10.070
39954W        W 5214  44.241   5.427   3.712
39955W        W 5215  36.460  21.334  12.161
39956W        W 5216  24.737  32.595  14.143
39957W        W 5217  33.111  27.605  11.551
39958W        W 5218  10.061  28.539   0.902
39959W        W 5219  43.940   6.908   3.195
39960W        W 5220  26.951  44.977   1.850
39961W        W 5221  18.070  35.391   2.784
39962W        W 5222  41.693  25.007   4.983
39963W        W 5223  13.845  39.232   2.927
39964W        W 5224  36.934  30.656  11.171
39965W        W 5225  21.547  16.969   1.103
39966W        W 5226  44.329  15.067   2.852
39967W        W 5227  10.890   1.468  13.714
39968W        W 5228   6.391  33.213  12.415
39969W        W 5229   4.427  14.833  13.434
39970W        W 5230  30.566  42.787   3.245
39971W        W 5231  17.259  17.128  11.563
39972W        W 5232  32.646  44.332   4.107
39973W        W 5233  12.216  43.316   1.914
39974W        W 5234  26.992  41.531  14.607
39975W        W 5235  44.329  38.568  14.086
39976W        W 5236  28.451  16.509   1.285
39977W        W 5237   4.191  39.552   4.192
39978W        W 5238   0.877   0.078   2.824
39979W        W 5239  23.973   9.669  12.907
39980W        W 5240  21.082  28.435   3.290
39981W        W 5241  14.059  39.963  14.503
39982W        W 5242  26.676  27.656  12.965
39983W        W 5243  35.297  34.458   2.737
39984W        W 5244  37.832  33.592  13.784
39985W        W 5245   4.213  14.551   1.019
39986W        W 5246  40.480  15.733   3.748
39987W        W 5247  14.916   6.772   1.735
39988W        W 5248  30.615  22.674   1.325
39989W        W 5249   8.701  36.385  14.286
39990W        W 5250  13.094  13.678   4.123
39991W        W 5251  11.377  41.892   4.696
39992W        W 5252  11.882   4.748  12.464
39993W        W 5253  40.836  24.202   1.268
39994W        W 5254   0.001  30.136  14.572
39995W        W 5255  43.316  44.504   3.997
39996W        W 5256  11.548  37.596   0.901
39997W        W 5257   0.010  37.886   2.383
39998W        W 5258  10.424  25.956  12.047
39999W        W 5259  11.866  40.174   0.035
40000W        W 5260  41.721  34.673   1.272
40001W        W 5261  14.071  39.464   3.385
40002W        W 5262   0.244  14.291   3.221
40003W        W 5263  29.553   6.275   1.978
40004W        W 5264   3.908  41.607   2.216
40005W        W 5265  15.289  41.087  14.183
40006W        W 5266  13.343  37.393  13.145
40007W        W 5267  42.632  33.567  11.873
40008W        W 5268  27.249  18.987  13.945
40009W        W 5269  14.829  35.781   2.879
40010W        W 5270   7.820   8.184  10.693
40011W        W 5271  40.544  25.009  14.276
40012W        W 5272  25.659  42.428   1.729
40013W        W 5273   3.690  39.789   3.381
40014W        W 5274  31.507  31.053   1.786
40015W        W 5275  36.851  16.181  10.657
40016W        W 5276   4.475  13.131   1.393
40017W        W 5277  39.508   9.410  12.172
40018W        W 5278  21.743  11.569  13.937
40019W        W 5279  10.944  26.488  12.126
40020W        W 5280  10.467  36.971   2.307
40021W        W 5281  13.740   0.372   3.233
40022W        W 5282   5.343  22.162  12.108
40023W        W 5283  22.509  32.106  11.733
40024W        W 5284  18.736  36.542   0.004
40025W        W 5285  43.365   9.889  13.760
40026W        W 5286   3.969   9.587  12.706
40027W        W 5287  22.987  29.417  13.446
40028W        W 5288  20.726  44.437  10.485
40029W        W 5289   3.690  36.443  11.562
40030W        W 5290  35.791  35.000  12.638
40031W        W 5291  32.686  32.463  13.935
40032W        W 5292  38.048  34.867   1.746
40033W        W 5293  40.874  38.746  11.238
40034W        W 5294   2.810  33.571  14.875
40035W        W 5295  35.106  33.529   2.389
40036W        W 5296  19.047  42.563  11.389
40037W        W 5297  20.722  22.599   1.746
40038W        W 5298   1.249  14.418  11.447
40039W        W 5299  31.092   3.183  10.797
40040W        W 5300   1.484   1.693   0.861
40041W        W 5301  18.773  41.533  11.577
40042W        W 5302   7.542  19.517  11.522
40043W        W 5303  34.814  12.263  12.572
40044W        W 5304  40.615  21.725  13.405
40045W        W 5305  29.242   0.038   3.543
40046W        W 5306   6.635  24.467   1.219
40047W        W 5307  40.487  17.774   3.644
40048W        W 5308  21.109  22.942   1.859
40049W        W 5309   7.318  12.712   0.399
40050W        W 5310   1.889   6.513  10.708
40051W        W 5311  10.730   1.036   1.302
40052W        W 5312  18.497  38.484   3.152
40053W        W 5313  15.348  10.561   4.114
40054W        W 5314  30.645   4.155  13.629
40055W        W 5315  23.009  16.719  11.611
40056W        W 5316   1.004  32.037  14.437
40057W        W 5317  16.275  22.027  12.954
40058W        W 5318  12.425   9.790   1.843
40059W        W 5319  19.434  38.093   4.071
40060W        W 5320  27.291   5.887   1.245
40061W        W 5321   5.240  16.395  12.045
40062W        W 5322   5.361  23.725  10.633
40063W        W 5323  17.059   9.914  11.807
40064W        W 5324  14.203  19.816  13.410
40065W        W 5325  44.848   4.891   2.800
40066W        W 5326  26.193  11.302   1.798
40067W        W 5327   3.323  31.423  14.889
40068W        W 5328  29.119  10.540   4.638
40069W        W 5329  14.775  28.358  11.168
40070W        W 5330  19.564  15.086  11.602
40071W        W 5331  15.505  25.112   3.140
40072W        W 5332  22.046  26.552  12.910
40073W        W 5333  21.333  38.877   0.733
40074W        W 5334  17.614  15.648  10.691
40075W        W 5335  16.045  40.935   1.748
40076W        W 5336  35.411   7.386   3.641
40077W        W 5337  10.222  23.808   2.197
40078W        W 5338  21.728  43.006   2.836
40079W        W 5339  39.884  26.617   1.110
40080W        W 5340  10.091  36.093   4.590
40081W        W 5341  23.975   3.136  10.576
40082W        W 5342  17.590  19.646  14.096
40083W        W 5343   6.849  29.243  14.323
40084W        W 5344  13.374  13.100   1.494
40085W        W 5345  14.740   8.821  11.835
40086W        W 5346   9.084   4.140  11.518
40087W        W 5347  18.324  24.140   0.295
40088W        W 5348  34.129  37.145   0.375
40089W        W 5349   0.349  23.422   1.810
40090W        W 5350  21.456  30.931  11.914
40091W        W 5351  43.224   2.389   1.354
40092W        W 5352  24.227   9.386  11.659
40093W        W 5353  26.495  43.211   2.816
40094W        W 5354   8.142  17.307  13.259
40095W        W 5355  15.709  38.777   0.328
40096W        W 5356  25.009   0.230  11.624
40097W        W 5357   9.375  10.717  11.695
40098W        W 5358  42.447  42.056  13.866
40099W        W 5359  27.430   4.077  14.080
40100W        W 5360   6.297   0.528  12.630
40101W        W 5361   1.420  32.360  14.523
40102W        W 5362  19.717  33.130  12.071
40103W        W 5363  27.545  10.656  14.361
40104W        W 5364  27.521  40.074  12.968
40105W        W 5365   0.927  28.913  14.114
40106W        W 5366  12.548  34.152   2.252
40107W        W 5367   7.209  44.351  14.036
40108W        W 5368  11.809  14.028  11.533
40109W        W 5369  22.157  43.654   3.697
40110W        W 5370  33.935  31.503   4.187
40111W        W 5371  22.695   7.761   5.002
40112W        W 5372  13.094  15.249   3.468
40113W        W 5373  27.257   5.722  10.638
40114W        W 5374   1.477  35.952   4.751
40115W        W 5375  42.341   4.263  13.975
40116W        W 5376  34.030  13.776  11.115
40117W        W 5377  42.934  38.924  10.661
40118W        W 5378  21.145   0.237   2.727
40119W        W 5379  19.604   9.633   0.213
40120W        W 5380  39.460  25.728   3.977
40121W        W 5381  27.435  15.290  13.745
40122W        W 5382   3.215  27.205   2.384
40123W        W 5383  12.281  24.693   2.186
40124W        W 5384   2.344  32.106  10.804
40125W        W 5385  11.387   8.646   5.154
40126W        W 5386   7.098   8.353   4.023
40127W        W 5387  31.525  35.600  13.864
40128W        W 5388  24.590  35.458  14.837
40129W        W 5389  27.579  35.406  13.771
40130W        W 5390  14.397   6.856   5.072
40131W        W 5391  16.782  32.319  14.440
40132W        W 5392  39.931  38.004   0.237
40133W        W 5393  32.810  30.993   3.137
40134W        W 5394  23.095  34.819  13.147
40135W        W 5395  16.633   1.060   0.681
40136W        W 5396   3.213  37.097   2.099
40137W        W 5397  41.687   7.479   1.228
40138W        W 5398  32.876  25.132   1.420
40139W        W 5399  29.693  40.438  14.907
40140W        W 5400   0.716  42.241   4.607
40141W        W 5401  35.722  15.224   1.886
40142W        W 5402  18.526  31.707  10.098
40143W        W 5403   4.785  39.018   2.254
40144W        W 5404  32.688  28.663   0.916
40145W        W 5405  26.569  20.856   0.856
40146W        W 5406   8.536  13.750   0.340
40147W        W 5407   4.393  24.007   0.269
40148W        W 5408  32.926  38.027   0.076
40149W        W 5409   9.065  38.398  12.410
40150W        W 5410  21.665  19.624   0.223
40151W        W 5411  10.590  16.769  13.379
40152W        W 5412   5.196  40.869   0.999
40153W        W 5413   0.402  23.523  12.441
40154W        W 5414  38.911  33.827  14.468
40155W        W 5415  35.478  40.301  11.810
40156W        W 5416  28.256  24.828   0.900
40157W        W 5417   7.182  11.650  10.634
40158W        W 5418  22.242  30.734   0.234
40159W        W 5419  31.993   7.931  11.598
40160W        W 5420  30.656  13.835   1.121
40161W        W 5421  27.618  37.770  10.675
40162W        W 5422  10.950  13.061   2.896
40163W        W 5423  27.684   3.792  12.371
40164W        W 5424  33.048  22.659  10.950
40165W        W 5425  40.634  13.122   5.068
40166W        W 5426   4.346  17.098   4.507
40167W        W 5427   0.236  20.651   4.754
40168W        W 5428  34.628  35.998   1.911
40169W        W 5429  29.521  42.397   0.177
40170W        W 5430  26.106  36.600   2.192
40171W        W 5431  26.506  42.033  12.398
40172W        W 5432  16.179  40.468  12.195
40173W        W 5433   1.676  20.731   4.564
40174W        W 5434   2.192  40.285   3.683
40175W        W 5435   5.460  39.409   1.899
40176W        W 5436  12.037  44.820  10.007
40177W        W 5437   4.206  17.794  12.160
40178W        W 5438  13.792  21.456  12.941
40179W        W 5439  30.743   5.255  11.482
40180W        W 5440  21.440  41.824   3.164
40181W        W 5441   9.430  26.896  12.035
40182W        W 5442  42.968   0.444  12.896
40183W        W 5443  13.501  37.391  14.865
40184W        W 5444  31.147  20.297  11.546
40185W        W 5445   0.590  13.572  12.467
40186W        W 5446  29.489  43.433   3.360
40187W        W 5447  31.990  15.027   2.186
40188W        W 5448  41.869   5.496  13.719
40189W        W 5449  41.906   7.893   0.948
40190W        W 5450  23.694  29.709   2.428
40191W        W 5451   4.807   2.341   0.327
40192W        W 5452  29.001  19.984  11.570
40193W        W 5453  37.358   2.421  12.396
40194W        W 5454  17.825  18.455   0.185
40195W        W 5455   3.899   9.191  14.627
40196W        W 5456  32.162   5.763   3.762
40197W        W 5457  15.194  43.440   3.146
40198W        W 5458  19.734  39.595   2.705
40199W        W 5459   3.666  43.231   3.276
40200W        W 5460   2.934  12.883   0.923
40201W        W 5461  34.280  29.613  12.961
40202W        W 5462   3.121  18.779   3.803
40203W        W 5463  12.861  14.272  13.467
40204W        W 5464  18.289  28.608  12.400
40205W        W 5465  19.501  36.351  12.986
40206W        W 5466  26.016  18.147   3.059
40207W        W 5467   0.935  34.926  11.576
40208W        W 5468  40.786  39.823   3.797
40209W        W 5469   4.720  43.405   1.263
40210W        W 5470  20.108  32.605   0.929
40211W        W 5471  39.522   6.870   0.401
40212W        W 5472   9.161  26.058  11.599
40213W        W 5473  39.329   6.239  11.983
40214W        W 5474  27.915  13.655  13.586
40215W        W 5475  33.063  21.536  14.751
40216W        W 5476   5.659  30.060   0.814
40217W        W 5477  12.178  40.002  10.571
40218W        W 5478  10.818   3.011  10.477
40219W        W 5479  23.182  39.792   4.562
40220W        W 5480  27.043  25.088   0.408
40221W        W 5481   3.892  43.332  12.233
40222W        W 5482  12.770  20.559   2.766
40223W        W 5483  33.968  23.704   2.603
40224W        W 5484  28.306  30.022  11.937
40225W        W 5485  20.306   5.417   2.759
40226W        W 5486  39.014  37.913  10.583
40227W        W 5487  36.655  43.166   1.289
40228W        W 5488   6.816  39.442   2.418
40229W        W 5489  44.408  15.845   4.667
40230W        W 5490   0.619  29.362  11.550
40231W        W 5491  41.708  18.073   0.407
40232W        W 5492  17.025   6.798  12.943
40233W        W 5493  41.053  22.247  11.962
40234W        W 5494  13.664   8.421   4.993
40235W        W 5495   3.273  42.873   2.624
40236W        W 5496  44.071   1.577  13.315
40237W        W 5497  25.243   3.131  13.760
40238W        W 5498  33.365  22.507  13.889
40239W        W 5499  11.806   8.798   4.286
40240W        W 5500  33.330  21.715   1.682
40241W        W 5501  35.006  13.092  13.096
40242W        W 5502   4.122   4.886   3.925
40243W        W 5503   5.399  12.285   1.829
40244W        W 5504  29.904   0.743  12.549
40245W        W 5505   2.662  32.261   1.142
40246W        W 5506  10.379   5.688  11.099
40247W        W 5507   1.015  24.665   2.772
40248W        W 5508  28.756   2.703   0.353
40249W        W 5509  33.078  33.476   1.906
40250W        W 5510  26.616  39.595  10.678
40251W        W 5511  23.670  33.884   4.836
40252W        W 5512   2.473  26.647  12.881
40253W        W 5513  11.445  25.649  10.138
40254W        W 5514   7.880  40.966   4.533
40255W        W 5515  18.816  34.462  12.914
40256W        W 5516  41.073   4.543   3.058
40257W        W 5517  38.756  32.289   0.985
40258W        W 5518  19.584   6.152  12.625
40259W        W 5519  33.017  23.315   1.401
40260W        W 5520  29.327   6.867  13.397
40261W        W 5521  24.982  11.379  13.901
40262W        W 5522  35.362  28.014  14.488
40263W        W 5523  26.227  22.043  13.449
40264W        W 5524   7.313  15.801  14.342
40265W        W 5525   3.882  15.180   3.344
40266W        W 5526  43.506  34.644   1.910
40267W        W 5527   6.351  24.498   1.670
40268W        W 5528  24.245  26.771   3.407
40269W        W 5529  40.366   7.667  13.298
40270W        W 5530  20.837   1.646   4.229
40271W        W 5531   7.754  26.517   1.417
40272W        W 5532   2.869  36.851   2.408
40273W        W 5533  33.957  25.309   0.700
40274W        W 5534  14.277  25.181  13.575
40275W        W 5535  34.949  14.378  11.086
40276W        W 5536  15.251  11.903   3.867
40277W        W 5537  12.992  19.240   2.306
40278W        W 5538  14.290  32.414   1.991
40279W        W 5539  41.271   6.231  14.819
40280W        W 5540  31.470  30.951   0.446
40281W        W 5541  16.125  32.596   3.698
40282W        W 5542  44.549  22.488   4.126
40283W        W 5543  36.783  34.618  13.225
40284W        W 5544   2.109   0.981   4.874
40285W        W 5545   8.704   8.287  13.339
40286W        W 5546   3.353  39.102   2.760
40287W        W 5547   5.314  30.244   0.301
40288W        W 5548  19.059   4.646  12.058
40289W        W 5549  14.924  15.465  12.282
40290W        W 5550   7.250  24.104  12.614
40291W        W 5551   0.257  36.028  12.850
40292W        W 5552  24.974   8.499  11.202
40293W        W 5553  26.226  36.768  10.004
40294W        W 5554  37.153  16.710   1.211
40295W        W 5555  29.033  37.016  13.613
40296W        W 5556   1.990  10.366   4.164
40297W        W 5557  24.755  27.960  10.522
40298W        W 5558   5.833  17.578  13.026
40299W        W 5559   5.844  15.008   1.686
40300W        W 5560  40.473  30.649  13.401
40301W        W 5561   0.800  39.478   2.266
40302W        W 5562  24.993  28.032  11.658
40303W        W 5563  40.627  39.776  14.815
40304W        W 5564  24.231  27.917  14.239
40305W        W 5565  17.036   7.669   1.683
40306W        W 5566  43.440  17.761   4.043
40307W        W 5567  19.453  24.943  12.092
40308W        W 5568   4.968  34.756  13.750
40309W        W 5569   1.270  31.057  10.493
40310W        W 5570  10.734  25.675   2.604
40311W        W 5571  32.055  27.465   2.572
40312W        W 5572  20.954  14.877  12.973
40313W        W 5573  38.870  40.326  11.534
40314W        W 5574  23.099  13.774   2.208
40315W        W 5575  20.689  41.639  14.233
40316W        W 5576  38.226   0.929   2.565
40317W        W 5577  19.248   5.600   1.314
40318W        W 5578  33.069   7.151  11.594
40319W        W 5579  20.218  24.534  14.448
40320W        W 5580  10.515   2.740  14.756
40321W        W 5581  43.022  43.611   1.016
40322W        W 5582  37.492  29.988  13.345
40323W        W 5583  10.205  23.132  11.874
40324W        W 5584  30.893  24.556   2.915
40325W        W 5585   8.323  43.407  13.325
40326W        W 5586  16.586  29.533   2.771
40327W        W 5587  14.597  13.559   0.712
40328W        W 5588  44.454  21.644  12.607
40329W        W 5589  30.720  20.257   2.247
40330W        W 5590  44.498   9.717   4.671
40331W        W 5591  35.049  13.515  13.428
40332W        W 5592  23.200  16.187  12.491
40333W        W 5593  42.347  37.606  14.024
40334W        W 5594   1.746  17.702   3.201
40335W        W 5595  23.585  12.113  13.041
40336W        W 5596  40.669   0.462  14.818
40337W        W 5597  39.721  40.566  14.799
40338W        W 5598  22.284  41.666  14.939
40339W        W 5599  36.559  22.662  11.144
40340W        W 5600   7.531  41.011  13.944
40341W        W 5601  38.447  17.181   1.890
40342W        W 5602  27.229  37.391  14.510
40343W        W 5603   9.388   3.301  13.107
40344W        W 5604  30.935  30.960   3.316
40345W        W 5605   1.571  28.601   1.027
40346W        W 5606   3.145  33.380   3.371
40347W        W 5607  33.092   2.944   4.804
40348W        W 5608  33.142  23.767  12.867
40349W        W 5609  10.819  19.054  13.366
40350W        W 5610  34.659  20.253  14.953
40351W        W 5611  30.579  30.393   3.523
40352W        W 5612  41.529  13.438   1.309
40353W        W 5613   9.805  27.885   2.693
40354W        W 5614   6.701  26.632  13.194
40355W        W 5615  40.963  42.229   1.377
40356W        W 5616  23.013  15.848   9.398
40357W        W 5617  42.638  18.391  13.361
40358W        W 5618   3.592  12.079  10.967
40359W        W 5619   8.672  41.721  11.010
40360W        W 5620  34.956  17.481  13.741
40361W        W 5621  42.877   9.936   3.638
40362W        W 5622  42.813  20.676  13.515
40363W        W 5623  15.042  28.955   3.917
40364W        W 5624  19.207  14.616  11.451
40365W        W 5625  42.711  34.772   4.116
40366W        W 5626  18.658   6.935  13.095
40367W        W 5627  16.094  22.694   2.695
40368W        W 5628  16.721  44.622   4.505
40369W        W 5629  17.243  18.104  11.642
40370W        W 5630  34.997   8.608  13.408
40371W        W 5631  25.251  19.051  13.844
40372W        W 5632  16.560  42.848   2.146
40373W        W 5633  28.489  25.134  13.094
40374W        W 5634  39.056  42.117  11.065
40375W        W 5635  26.970  39.316  13.956
40376W        W 5636  32.500  25.198   0.485
40377W        W 5637  13.879  14.416  13.457
40378W        W 5638   2.736   6.530   4.674
40379W        W 5639   6.017  44.321   2.858
40380W        W 5640  29.228   9.115  13.391
40381W        W 5641  13.746  40.048  10.973
40382W        W 5642  27.955  35.996   0.469
40383W        W 5643   9.626  10.216   0.709
40384W        W 5644  12.657  13.418   4.064
40385W        W 5645  29.901   5.145   4.683
40386W        W 5646   2.662  28.721  12.484
40387W        W 5647  10.592   8.366   0.907
40388W        W 5648  34.641  14.807   2.298
40389W        W 5649  26.677  30.639   4.602
40390W        W 5650  29.399  23.561   1.231
40391W        W 5651   9.826  39.882   0.233
40392W        W 5652  14.906   3.411   1.439
40393W        W 5653  24.283  32.698  12.434
40394W        W 5654   9.124  42.775   3.331
40395W        W 5655  43.954  28.519  12.422
40396W        W 5656  13.610  26.745   4.605
40397W        W 5657  36.638  29.091  11.964
40398W        W 5658   4.865  21.730   1.170
40399W        W 5659  37.040  30.970   0.831
40400W        W 5660  26.213  12.245   2.962
40401W        W 5661  13.324   9.880  11.618
40402W        W 5662   7.654  16.614   1.437
40403W        W 5663  17.339  38.575   0.414
40404W        W 5664  30.933  34.270  14.805
40405W        W 5665  25.204  30.564   2.259
40406W        W 5666   9.119  19.500   0.429
40407W        W 5667  27.615  31.145  10.744
40408W        W 5668   8.092  42.018  14.583
40409W        W 5669  33.040  38.167  11.373
40410W        W 5670  37.950  38.795   1.787
40411W        W 5671  16.434  18.480  11.913
40412W        W 5672   3.880   5.457  13.622
40413W        W 5673  21.259  24.955   0.018
40414W        W 5674  36.969  26.288  14.158
40415W        W 5675   2.864  12.648  13.923
40416W        W 5676  32.144   8.856   2.185
40417W        W 5677  16.369  25.473  13.814
40418W        W 5678  33.377  24.407  10.769
40419W        W 5679  20.187   8.961  11.719
40420W        W 5680  11.487  17.995   1.121
40421W        W 5681  21.189   5.542   1.116
40422W        W 5682  41.557  30.687   1.166
40423W        W 5683  16.838  12.676  12.981
40424W        W 5684  19.139  30.665  14.406
40425W        W 5685   6.251  42.413  13.865
40426W        W 5686   7.613  33.977   1.462
40427W        W 5687   9.938   4.892  12.129
40428W        W 5688  38.396  18.637  12.077
40429W        W 5689  21.055  21.065  14.275
40430W        W 5690  19.112   5.047  14.512
40431W        W 5691  41.731  22.841  12.082
40432W        W 5692  19.041  18.967   3.595
40433W        W 5693  44.427  23.854  12.098
40434W        W 5694   5.720   9.926  11.531
40435W        W 5695  34.122  18.697   3.244
40436W        W 5696  44.524  11.841   2.323
40437W        W 5697  41.287  21.643  14.928
40438W        W 5698  16.626  32.541  11.120
40439W        W 5699  36.293  26.751  11.180
40440W        W 5700  30.044  16.760  11.936
40441W        W 5701  29.096  27.177   4.948
40442W        W 5702   1.642  28.598   2.839
40443W        W 5703  28.599   6.265  14.698
40444W        W 5704  14.159  35.941   0.474
40445W        W 5705  24.906   3.201   0.851
40446W        W 5706  44.454  25.494  14.235
40447W        W 5707  18.376  30.294   2.872
40448W        W 5708  30.520  41.974  13.254
40449W        W 5709  14.235  16.610   4.275
40450W        W 5710  31.896  18.498  12.845
40451W        W 5711  28.234  37.306   2.840
40452W        W 5712  38.531  40.452  10.950
40453W        W 5713  33.492  29.240  12.185
40454W        W 5714  17.825  28.813  12.654
40455W        W 5715   0.022  25.843   1.450
40456W        W 5716  35.013  37.671  10.619
40457W        W 5717   7.416  29.643   0.783
40458W        W 5718  35.862  42.378   4.364
40459W        W 5719  33.620  41.014  13.989
40460W        W 5720   8.288  38.502  11.938
40461W        W 5721   2.140  23.308   5.450
40462W        W 5722  14.869  18.516  12.533
40463W        W 5723  29.260  33.542  13.031
40464W        W 5724  17.074  38.023  14.271
40465W        W 5725  13.675  20.536  11.449
40466W        W 5726  31.727  13.113   3.750
40467W        W 5727  26.221  23.255  12.994
40468W        W 5728  40.820  34.579   0.377
40469W        W 5729   1.378   6.148  14.864
40470W        W 5730  23.825  42.827   5.089
40471W        W 5731  20.648  35.350  11.122
40472W        W 5732   8.805   6.468  10.552
40473W        W 5733   9.627  23.087   3.200
40474W        W 5734  15.241  33.467   4.544
40475W        W 5735  27.557  34.083   2.579
40476W        W 5736  28.173  39.955   3.518
40477W        W 5737  37.437  12.879  11.172
40478W        W 5738  18.101  16.268   2.839
40479W        W 5739  36.193   8.581  13.366
40480W        W 5740   9.108  30.727  10.241
40481W        W 5741  11.759   9.274  14.857
40482W        W 5742  18.079  10.280   3.439
40483W        W 5743   8.824  33.456   3.763
40484W        W 5744  14.328  25.607  11.993
40485W        W 5745  14.141   2.410   5.007
40486W        W 5746  39.594  40.355   1.667
40487W        W 5747  23.289   9.668  12.507
40488W        W 5748  13.965  28.406   1.207
40489W        W 5749   0.363  44.997   2.808
40490W        W 5750  12.729  31.425  14.331
40491W        W 5751  41.413  21.820   0.792
40492W        W 5752  24.198  43.377   3.120
40493W        W 5753   3.436  29.187   4.343
40494W        W 5754   0.845  24.589   0.751
40495W        W 5755  40.585  19.474   2.673
40496W        W 5756   7.676   2.752   3.798
40497W        W 5757  27.367  12.690  11.213
40498W        W 5758  10.789  43.310   0.348
40499W        W 5759  40.496  12.355  14.320
40500W        W 5760  36.344  37.645   2.658
40501W        W 5761  11.136  30.163   0.954
40502W        W 5762  11.179  24.419   2.771
40503W        W 5763  21.356   9.904   3.774
40504W        W 5764  12.101  24.704  13.985
40505W        W 5765  11.774  10.379   2.152
40506W        W 5766  30.624   3.636  13.744
40507W        W 5767   1.226  35.013   3.328
40508W        W 5768  39.852  34.634  12.819
40509W        W 5769  20.165  33.137   0.968
40510W        W 5770  33.981  10.826  14.558
40511W        W 5771  38.458  27.559  13.880
40512W        W 5772  38.238  25.203  12.265
40513W        W 5773  14.280  43.438  13.529
40514W        W 5774  23.582  31.316  14.878
40515W        W 5775   4.292  41.526   1.664
40516W        W 5776  19.993   8.665  14.085
40517W        W 5777  30.533  31.722  14.067
40518W        W 5778   6.898  20.736   4.357
40519W        W 5779  11.378  22.161   1.519
40520W        W 5780  37.051  34.917  10.880
40521W        W 5781  36.791  44.062   3.108
40522W        W 5782  31.414  12.808   4.489
40523W        W 5783  21.907  27.731   1.362
40524W        W 5784  37.438  14.229  12.094
40525W        W 5785   9.916   7.379   1.827
40526W        W 5786  15.782  31.127  11.937
40527W        W 5787  44.327  24.417  13.854
40528W        W 5788  35.493  38.284   0.407
40529W        W 5789  11.412  39.906   4.820
40530W        W 5790  13.730   3.302  14.407
40531W        W 5791  38.990   3.885   0.532
40532W        W 5792  18.543  39.941   2.311
40533W        W 5793   6.779  41.515  14.797
40534W        W 5794  19.520  42.449   0.531
40535W        W 5795  39.356  23.914   4.692
40536W        W 5796  33.869  10.935   3.857
40537W        W 5797  39.422  17.992   0.492
40538W        W 5798  18.176   7.701   0.099
40539W        W 5799  18.648  17.310   2.214
40540W        W 5800  20.109  35.368   0.462
40541W        W 5801   0.793   8.627   1.810
40542W        W 5802  37.798  33.929  11.625
40543W        W 5803  22.079   4.497   2.321
40544W        W 5804  31.309  27.502  13.841
40545W        W 5805  22.127  11.307   0.995
40546W        W 5806  24.145  24.478  12.843
40547W        W 5807  41.108   4.709   3.848
40548W        W 5808  43.237  20.873   1.842
40549W        W 5809  31.584  32.694   4.692
40550W        W 5810  38.421  13.720  14.960
40551W        W 5811  13.018   3.483  12.949
40552W        W 5812  21.248  21.678   9.908
40553W        W 5813   4.734  39.937   4.377
40554W        W 5814  40.466   0.411   2.925
40555W        W 5815   6.595  44.636  11.196
40556W        W 5816  41.045  34.056  10.870
40557W        W 5817  23.998  15.592   4.542
40558W        W 5818  11.240  39.404   4.987
40559W        W 5819  18.337   4.998  14.959
40560W        W 5820  40.068  20.578   2.233
40561W        W 5821  17.218  35.975  13.497
40562W        W 5822  39.539   9.216  10.688
40563W        W 5823  42.865  12.077   2.634
40564W        W 5824  28.628  12.650   3.322
40565W        W 5825  18.710  32.470   4.173
40566W        W 5826   9.204  10.203  14.531
40567W        W 5827  38.184  14.779  13.010
40568W        W 5828  13.687  41.796   2.902
40569W        W 5829  17.235  36.484   3.804
40570W        W 5830  19.683  43.928   1.900
40571W        W 5831  33.878  15.717   0.821
40572W        W 5832   3.299  32.964  13.899
40573W        W 5833  16.697  44.483  13.921
40574W        W 5834   8.074  17.591   2.711
40575W        W 5835  12.481  31.847  12.570
40576W        W 5836   7.178  14.861   3.175
40577W        W 5837  14.707   0.483   0.747
40578W        W 5838  44.167  32.275   0.474
40579W        W 5839  22.742  29.926  13.388
40580W        W 5840  38.128   7.262   0.873
40581W        W 5841  14.559  16.407  14.262
40582W        W 5842  16.861   4.251   1.459
40583W        W 5843  11.276  32.924   3.789
40584W        W 5844  34.259  33.718   3.578
40585W        W 5845  40.415   7.212  13.903
40586W        W 5846  30.762   1.572   5.266
40587W        W 5847   7.747  11.261  13.871
40588W        W 5848  41.002  24.058   0.806
40589W        W 5849  39.200  27.619  11.632
40590W        W 5850  20.822  13.740   0.082
40591W        W 5851  18.962  29.270  10.792
40592W        W 5852  19.899  35.189   5.017
40593W        W 5853  37.107  44.459   2.319
40594W        W 5854  39.486  11.669  10.554
40595W        W 5855   3.275  24.546  11.552
40596W        W 5856  35.052  10.441   2.826
40597W        W 5857   0.383  22.118   0.996
40598W        W 5858  38.379   2.887  13.968
40599W        W 5859  37.437  36.425  12.094
40600W        W 5860  34.829  20.477  11.222
40601W        W 5861   3.328  26.572   3.099
40602W        W 5862  37.413  15.134  11.987
40603W        W 5863  12.690   5.457   1.868
40604W        W 5864  40.453  24.044  14.686
40605W        W 5865  21.106   1.529   3.771
40606W        W 5866  26.088   9.493  11.401
40607W        W 5867  39.944   0.561  12.891
40608W        W 5868  28.422  17.963   1.398
40609W        W 5869  20.227   0.201  12.501
40610W        W 5870  34.389  32.725   1.889
40611W        W 5871  23.882  44.039   1.024
40612W        W 5872  25.046  43.271   3.774
40613W        W 5873   6.867  12.607  14.652
40614W        W 5874  19.233  19.658   0.917
40615W        W 5875  16.130  30.870   4.285
40616W        W 5876  11.186  10.757   4.540
40617W        W 5877  10.295  38.860   4.091
40618W        W 5878  38.490  24.424  12.034
40619W        W 5879  31.933  23.087  12.895
40620W        W 5880  21.093  16.217   2.829
40621W        W 5881   5.805  38.824  13.866
40622W        W 5882   1.463  29.060   0.764
40623W        W 5883  16.560   5.342  11.116
40624W        W 5884  22.243  11.739  13.926
40625W        W 5885   1.860  14.081  12.064
40626W        W 5886  16.750  29.490   1.449
40627W        W 5887  35.659   2.407  12.750
40628W        W 5888  22.082   4.966   3.197
40629W        W 5889  33.605   6.725  11.302
40630W        W 5890   2.314   3.205  13.735
40631W        W 5891  40.950  40.817   2.281
40632W        W 5892  19.540  20.582   3.676
40633W        W 5893  44.099  26.275  12.028
40634W        W 5894  17.445  22.986   5.389
40635W        W 5895   2.901  21.267  14.332
40636W        W 5896  37.069  30.723  12.583
40637W        W 5897  34.285   0.861   1.176
40638W        W 5898  10.557  20.494   1.820
40639W        W 5899  11.155  43.463   0.692
40640W        W 5900  29.378  18.773   2.688
40641W        W 5901   2.478  10.588  11.131
40642W        W 5902  34.566  12.325  13.780
40643W        W 5903  14.389  41.601   1.862
40644W        W 5904  26.470  28.993  12.018
40645W        W 5905  41.572  32.361   2.859
40646W        W 5906  17.420  31.097  11.741
40647W        W 5907  11.630  33.105   0.781
40648W        W 5908  11.233   5.869   0.705
40649W        W 5909  15.521  30.619   2.771
40650W        W 5910   5.242  21.995   1.776
40651W        W 5911   5.292  17.799   2.902
40652W        W 5912   3.657   8.632  12.914
40653W        W 5913  14.658  20.755  11.915
40654W        W 5914  24.007  29.705  13.503
40655W        W 5915   8.383  34.625  10.713
40656W        W 5916  27.410  24.225  12.140
40657W        W 5917  39.471   2.138  10.747
40658W        W 5918  20.029  38.532  11.047
40659W        W 5919  16.207  41.851  12.407
40660W        W 5920   8.423  10.406   1.654
40661W        W 5921   3.219  30.749  10.588
40662W        W 5922  19.260  34.593  11.065
40663W        W 5923  44.206  30.952  12.252
40664W        W 5924   4.688   4.915   4.638
40665W        W 5925  40.852   4.086  12.111
40666W        W 5926  36.292  24.333  10.194
40667W        W 5927  31.634  32.901  11.103
40668W        W 5928   0.809   1.851  14.435
40669W        W 5929  29.226  15.710  12.491
40670W        W 5930  38.905  23.151  13.823
40671W        W 5931  11.771   1.949   0.369
40672W        W 5932  26.299  34.787   2.385
40673W        W 5933  15.702   7.731  10.735
40674W        W 5934  15.101  13.182  10.740
40675W        W 5935   6.619  41.340  12.023
40676W        W 5936  31.540  21.215   0.420
40677W        W 5937   7.461  39.437  10.446
40678W        W 5938  14.905  31.850  13.497
40679W        W 5939  13.608  10.248  13.047
40680W        W 5940  22.784   9.656  12.546
40681W        W 5941  25.226   1.925  13.431
40682W        W 5942  19.554  38.594   0.403
40683W        W 5943  26.486  13.184  13.841
40684W        W 5944  14.260   3.335  12.452
40685W        W 5945  38.687  20.101   1.832
40686W        W 5946  38.426  14.232  12.968
40687W        W 5947   1.448  37.980  13.321
40688W        W 5948  35.981  17.476  12.084
40689W        W 5949  22.775   6.965  13.443
40690W        W 5950  25.510  33.368  14.803
40691W        W 5951  12.834  38.926  10.882
40692W        W 5952  42.448  42.076  12.406
40693W        W 5953  27.921  10.777   1.575
40694W        W 5954  26.122  16.803  13.308
40695W        W 5955  29.651  24.147   0.233
40696W        W 5956  42.777   5.301  12.925
40697W        W 5957  23.708  24.792   0.434
40698W        W 5958   0.791  36.804   1.206
40699W        W 5959  14.712   3.661  12.440
40700W        W 5960  30.768  16.773   0.735
40701W        W 5961  43.325  39.538   0.323
40702W        W 5962  14.371   5.914  13.829
40703W        W 5963  33.867  35.003  14.952
40704W        W 5964  36.390  28.077  14.326
40705W        W 5965  27.621  13.785   4.143
40706W        W 5966   8.097  39.036   3.151
40707W        W 5967  36.251  21.507  14.832
40708W        W 5968  36.698  34.883   1.867
40709W        W 5969   7.676   7.480  14.789
40710W        W 5970   0.516   9.878   2.713
40711W        W 5971  15.723  36.977  13.272
40712W        W 5972  29.083  30.684   0.346
40713W        W 5973   6.719  13.157  11.220
40714W        W 5974  35.102  26.408   3.253
40715W        W 5975  25.043  21.385  13.514
40716W        W 5976  35.051   6.819  14.413
40717W        W 5977  27.059   8.870   2.838
40718W        W 5978  40.430  25.357   2.179
40719W        W 5979  13.576  21.192  14.559
40720W        W 5980   9.834  27.027  13.567
40721W        W 5981  36.909   7.902   4.133
40722W        W 5982  37.318   6.943   0.675
40723W        W 5983  32.580  18.734  13.457
40724W        W 5984  21.470  39.829   5.390
40725W        W 5985  13.427  11.806  12.922
40726W        W 5986  36.386  42.391  11.815
40727W        W 5987  16.047  36.569  12.368
40728W        W 5988  43.900   5.845  11.918
40729W        W 5989   6.186  17.650   3.092
40730W        W 5990  37.325  30.463   2.585
40731W        W 5991  29.476   6.088  13.215
40732W        W 5992  22.966   7.103  14.814
40733W        W 5993  23.655   9.044   3.201
40734W        W 5994  13.596  11.663  12.030
40735W        W 5995  32.519   2.324   3.260
40736W        W 5996  25.562  10.304  11.126
40737W        W 5997  10.643   3.784   1.993
40738W        W 5998  16.232   7.155  13.358
40739W        W 5999  25.198  10.065   1.118
40740W        W 6000  19.187  38.872   3.506
40741W        W 6001  25.073  41.603   4.168
40742W        W 6002  10.509  43.045  14.606
40743W        W 6003  35.489  29.643   2.913
40744W        W 6004  44.867  22.656  13.280
40745W        W 6005  42.565   9.921  14.856
40746W        W 6006   1.870  33.183  12.028
40747W        W 6007  39.913  30.107   4.529
40748W        W 6008  21.993  10.960  13.387
40749W        W 6009  42.481  16.843  11.946
40750W        W 6010  30.035  28.706   3.671
40751W        W 6011   2.640   0.058  11.513
40752W        W 6012  21.024  33.411   0.510
40753W        W 6013  36.984   0.015  14.267
40754W        W 6014  10.230  23.066  12.389
40755W        W 6015  40.263   5.921   0.863
40756W        W 6016  25.554  25.596   0.808
40757W        W 6017  40.482   1.964  10.433
40758W        W 6018  38.936  24.650  14.056
40759W        W 6019  25.824  31.865   2.561
40760W        W 6020  37.515  27.951   4.655
40761W        W 6021  26.516  18.058  11.827
40762W        W 6022  20.365  35.890  13.932
40763W        W 6023  43.355  33.224   1.480
40764W        W 6024   5.879  28.108   4.446
40765W        W 6025  14.767  32.855  12.919
40766W        W 6026   6.112  27.909  14.906
40767W        W 6027   8.053  35.654  13.888
40768W        W 6028  37.267  17.563  12.104
40769W        W 6029  39.333  13.627  10.556
40770W        W 6030   8.323   7.502   1.315
40771W        W 6031  25.560  14.143  12.867
40772W        W 6032  18.003  34.938   0.521
40773W        W 6033  22.286  41.594   1.927
40774W        W 6034  33.438   5.428   2.929
40775W        W 6035  40.440  32.193   5.063
40776W        W 6036  43.354   1.799   3.596
40777W        W 6037   3.682  36.368  13.918
40778W        W 6038   5.963  40.585  13.087
40779W        W 6039  38.632  37.671   3.746
40780W        W 6040  33.733  29.378   2.801
40781W        W 6041  35.958  26.534   0.182
40782W        W 6042  29.004  22.271   4.285
40783W        W 6043   8.593  11.623  11.996
40784W        W 6044  22.155  38.563   3.218
40785W        W 6045   2.987   3.885  13.084
40786W        W 6046  17.585   3.874  11.609
40787W        W 6047   4.759  13.272  14.222
40788W        W 6048  31.193  43.932  14.375
40789W        W 6049   9.217  22.559  14.519
40790W        W 6050  17.094  21.797  12.862
40791W        W 6051  36.825   7.756   3.262
40792W        W 6052  14.505  11.426   0.886
40793W        W 6053  14.557  16.094  12.818
40794W        W 6054  34.537  30.390   0.588
40795W        W 6055  17.622   7.259  10.462
40796W        W 6056  20.641  28.896  10.378
40797W        W 6057  17.438   5.759   2.268
40798W        W 6058  25.520  24.818  10.731
40799W        W 6059  15.661   7.614  13.934
40800W        W 6060   7.622  38.471   1.053
40801W        W 6061  10.866  28.602  11.576
40802W        W 6062  31.371  34.606  14.913
40803W        W 6063  20.542  10.865   0.330
40804W        W 6064  29.375  42.412  13.388
40805W        W 6065  15.361  27.523  11.108
40806W        W 6066  25.505   3.897  10.448
40807W        W 6067  29.274   7.389   0.074
40808W        W 6068  42.708  21.483   0.260
40809W        W 6069  22.153  26.485   0.771
40810W        W 6070  29.967  20.819   2.346
40811W        W 6071   0.426  41.857  11.490
40812W        W 6072  29.659   8.442   4.215
40813W        W 6073  40.996  17.719   1.772
40814W        W 6074   5.857  34.835   3.045
40815W        W 6075  34.863  35.041  10.972
40816W        W 6076  20.014  16.152   2.402
40817W        W 6077  20.253   3.276   0.850
40818W        W 6078  12.654   9.911  10.763
40819W        W 6079   9.400  44.546   0.512
40820W        W 6080   1.228   0.772  10.506
40821W        W 6081  29.446  27.053   9.954
40822W        W 6082  40.701   3.851  14.432
40823W        W 6083  23.783   1.845  14.847
40824W        W 6084  26.445  14.070   4.140
40825W        W 6085  29.942  26.235   2.763
40826W        W 6086  32.652  27.340   1.110
40827W        W 6087  10.213  24.580   0.492
40828W        W 6088  33.011  18.185   1.199
40829W        W 6089  36.565  24.114  11.986
40830W        W 6090  36.658  15.034   4.194
40831W        W 6091   8.263  35.527  11.515
40832W        W 6092  19.621  37.568  10.423
40833W        W 6093  44.087  21.251  12.603
40834W        W 6094  28.990   7.338  14.153
40835W        W 6095   2.060  14.769   0.385
40836W        W 6096  21.798  35.371  11.124
40837W        W 6097   1.806  13.361  13.455
40838W        W 6098  18.706  42.942  10.763
40839W        W 6099  30.850  41.280   2.206
40840W        W 6100   9.393   8.541  12.512
40841W        W 6101  25.011   0.910   1.734
40842W        W 6102   4.222  12.304   2.402
40843W        W 6103   7.838  18.974   2.526
40844W        W 6104  12.197  30.998  12.109
40845W        W 6105  36.119  11.040   0.815
40846W        W 6106   7.815  22.812   3.175
40847W        W 6107  23.380  31.521   4.784
40848W        W 6108  42.612  39.985   2.928
40849W        W 6109  27.691  19.379  13.116
40850W        W 6110   4.342  40.738   0.415
40851W        W 6111  34.466  29.457  14.909
40852W        W 6112  31.008  44.062  14.908
40853W        W 6113  17.727   4.225  12.464
40854W        W 6114  13.732  22.312  14.767
40855W        W 6115  40.042   1.262  14.753
40856W        W 6116  11.068  15.124  13.496
40857W        W 6117  20.307   9.913  12.390
40858W        W 6118  18.813  29.973   1.200
40859W        W 6119  31.672  34.655   4.192
40860W        W 6120   0.354  15.646   0.208
40861W        W 6121  18.051  42.791   3.381
40862W        W 6122  43.449  25.079  14.300
40863W        W 6123  40.386  44.417   3.056
40864W        W 6124  17.233   1.906  10.294
40865W        W 6125   3.982  12.734   5.097
40866W        W 6126  32.016  17.264   3.394
40867W        W 6127  42.867  32.851  10.798
40868W        W 6128   7.241   5.407  14.914
40869W        W 6129  22.414  41.048  14.303
40870W        W 6130  43.833   2.657   1.534
40871W        W 6131  19.353   1.388  10.753
40872W        W 6132  43.146  28.019  12.596
40873W        W 6133   0.856   2.301  12.294
40874W        W 6134  41.420  14.749   4.384
40875W        W 6135  32.657  34.577   3.376
40876W        W 6136   2.427   5.825  10.986
40877W        W 6137  29.158   8.505  12.063
40878W        W 6138  28.692  18.610  11.794
40879W        W 6139  31.388  39.854  12.802
40880W        W 6140  25.640  12.004  12.104
40881W        W 6141  18.620  24.786   3.824
40882W        W 6142  16.525  42.410   3.248
40883W        W 6143   2.404  15.850  14.896
40884W        W 6144  14.095  24.407   3.727
40885W        W 6145   8.128  39.888  10.696
40886W        W 6146  35.522  10.424   2.631
40887W        W 6147   7.863  35.035   4.502
40888W        W 6148  28.008  24.458  13.015
40889W        W 6149  37.339  20.468   3.445
40890W        W 6150  32.564  21.010  13.994
40891W        W 6151  24.368  22.403  11.218
40892W        W 6152  21.014  14.069  10.779
40893W        W 6153   6.765  42.549  14.951
40894W        W 6154   7.544  10.183  13.548
40895W        W 6155  43.351  26.598   4.519
40896W        W 6156  30.004  31.180  12.835
40897W        W 6157  21.470  28.861  13.773
40898W        W 6158   2.201  38.501  11.639
40899W        W 6159  41.862   8.241   3.750
40900W        W 6160  38.396  27.007   2.800
40901W        W 6161  36.891  41.917  13.509
40902W        W 6162  38.102  16.577  11.167
40903W        W 6163   1.228  36.869  14.142
40904W        W 6164  20.350  36.187  10.915
40905W        W 6165  24.096  26.732  13.960
40906W        W 6166   9.999  11.298   3.866
40907W        W 6167  38.141  14.202  14.322
40908W        W 6168  13.363  33.807  10.977
40909W        W 6169  44.202  27.048  11.171
40910W        W 6170  42.856  11.104   2.248
40911W        W 6171  28.734  44.010   1.172
40912W        W 6172  26.721  19.547   0.405
40913W        W 6173  15.239   1.066  14.771
40914W        W 6174   1.393  35.892  13.889
40915W        W 6175   9.937  26.174  12.033
40916W        W 6176   4.961  19.701   4.567
40917W        W 6177   9.954  34.457   3.183
40918W        W 6178  26.669   6.945   3.284
40919W        W 6179  17.658  11.798   3.462
40920W        W 6180  38.349  42.390  13.806
40921W        W 6181  32.068  32.055  12.581
40922W        W 6182  43.350   9.784   3.764
40923W        W 6183  39.067  28.222  14.693
40924W        W 6184  32.385  27.037  13.623
40925W        W 6185   8.656  28.448  14.423
40926W        W 6186  41.820  12.072   2.071
40927W        W 6187   3.678  39.408  13.438
40928W        W 6188  20.994  33.906   0.286
40929W        W 6189  19.836  42.824   4.466
40930W        W 6190   2.502  32.133  10.303
40931W        W 6191  28.290   5.357   4.787
40932W        W 6192  35.154  14.707   3.739
40933W        W 6193  34.021  41.575  13.927
40934W        W 6194  36.980  20.155   3.631
40935W        W 6195  37.611   9.135  11.062
40936W        W 6196   3.712  15.353  14.090
40937W        W 6197  30.099   5.791  12.174
40938W        W 6198  24.503  39.514   1.943
40939W        W 6199   2.799  16.016  13.574
40940W        W 6200  44.941  44.964   1.455
40941W        W 6201  39.309  31.621   4.537
40942W        W 6202   8.172  22.966  11.132
40943W        W 6203  27.831  35.480   4.698
40944W        W 6204  25.676  11.325  12.576
40945W        W 6205   4.277  35.304   1.482
40946W        W 6206  10.822  28.716   2.320
40947W        W 6207  38.777   6.776   4.660
40948W        W 6208  38.979  17.004  13.303
40949W        W 6209  32.846  41.697  11.938
40950W        W 6210  26.227  12.232   0.518
40951W        W 6211   4.969  17.508   4.160
40952W        W 6212  24.765  20.222   1.648
40953W        W 6213   1.311  42.914  11.414
40954W        W 6214  24.084  32.930  12.982
40955W        W 6215   8.936  15.194   2.794
40956W        W 6216  38.816  13.717  10.566
40957W        W 6217  40.586  23.613   0.007
40958W        W 6218  23.789  15.100   2.886
40959W        W 6219  26.960  32.633  10.686
40960W        W 6220  17.611   6.514   4.307
40961W        W 6221  36.340  14.324   4.588
40962W        W 6222   7.178  28.886  12.116
40963W        W 6223   6.755  35.047  11.119
40964W        W 6224  23.644  25.385  11.183
40965W        W 6225   5.190  41.729  11.524
40966W        W 6226  23.829  43.796   4.191
40967W        W 6227  38.240  31.981  12.835
40968W        W 6228   9.360   6.190   3.638
40969W        W 6229  28.697  33.369   2.179
40970W        W 6230  30.041  17.178  12.387
40971W        W 6231  16.535  30.608   3.597
40972W        W 6232  18.251  43.043   1.779
40973W        W 6233   6.894   6.842  13.278
40974W        W 6234  44.377  30.462   0.831
40975W        W 6235  24.355   1.484  11.672
40976W        W 6236  44.240  25.755   3.568
40977W        W 6237  27.339  34.682  14.327
40978W        W 6238  17.705  43.969  14.470
40979W        W 6239  11.759   8.766   3.721
40980W        W 6240  17.586   9.763  13.797
40981W        W 6241  33.903   1.856   1.309
40982W        W 6242  29.155   0.674   0.960
40983W        W 6243  29.100   4.143  11.402
40984W        W 6244  19.271  13.019  14.296
40985W        W 6245  38.080  26.892  10.702
40986W        W 6246  36.130  38.987   2.088
40987W        W 6247   2.304  34.617  13.934
40988W        W 6248  13.132   8.653   4.859
40989W        W 6249  17.719  21.497   2.592
40990W        W 6250  42.848  16.169  13.094
40991W        W 6251  42.392  13.686  14.307
40992W        W 6252  12.294  32.604  12.469
40993W        W 6253  18.036  37.215   2.269
40994W        W 6254  23.917  10.208   5.070
40995W        W 6255   9.778  15.608   1.982
40996W        W 6256  32.672   1.826   3.177
40997W        W 6257  27.112   7.416  13.612
40998W        W 6258   6.813  28.227   0.480
40999W        W 6259  38.491  31.112  14.935
41000W        W 6260  23.917  14.364   4.372
41001W        W 6261  38.493  14.086   4.933
41002W        W 6262  15.283  23.688   1.905
41003W        W 6263   5.552   7.914   0.918
41004W        W 6264   8.060   7.255   2.245
41005W        W 6265  41.335   0.062   1.338
41006W        W 6266   5.786   7.291   3.987
41007W        W 6267  41.580  18.143   2.324
41008W        W 6268  15.828  32.498  14.247
41009W        W 6269  28.478  10.515   0.954
41010W        W 6270  43.073  40.418   4.361
41011W        W 6271   0.791   4.653  14.100
41012W        W 6272  31.486   7.360  10.544
41013W        W 6273  15.154   3.567   4.134
41014W        W 6274  33.414  11.370   4.539
41015W        W 6275  36.681  21.729  13.879
41016W        W 6276  33.364  17.061   0.607
41017W        W 6277  18.552  19.005   0.680
41018W        W 6278  28.956   3.653   3.724
41019W        W 6279  32.021  18.460   5.068
41020W        W 6280  19.058  14.170   2.245
41021W        W 6281  26.238  22.007  14.499
41022W        W 6282  39.742  10.279  12.401
41023W        W 6283  21.717  30.649  14.989
41024W        W 6284  11.813  10.672   4.628
41025W        W 6285  31.380  15.128  11.113
41026W        W 6286  31.792  19.384   2.376
41027W        W 6287  30.404  42.486   3.648
41028W        W 6288  29.038   7.720  12.443
41029W        W 6289  25.061  39.953  14.950
41030W        W 6290  40.944  38.087   4.120
41031W        W 6291  10.787  25.464  13.902
41032W        W 6292   2.419   6.187  13.852
41033W        W 6293   8.162  10.194   0.645
41034W        W 6294  31.127  31.595   2.552
41035W        W 6295  44.683   6.979  14.971
41036W        W 6296  20.053  33.745   1.281
41037W        W 6297  26.556   9.177   0.283
41038W        W 6298  24.643   4.128  13.753
41039W        W 6299  29.432  10.568  12.958
41040W        W 6300  11.824   7.711   0.789
41041W        W 6301  17.038  38.945   1.566
41042W        W 6302   8.974  24.766  10.320
41043W        W 6303  22.327  13.415  11.916
41044W        W 6304  15.204  24.687   1.218
41045W        W 6305   6.629  27.532   4.209
41046W        W 6306  36.487  44.504   3.581
41047W        W 6307  28.660  35.591   1.208
41048W        W 6308  14.265   2.699   0.931
41049W        W 6309  41.044  41.559   0.650
41050W        W 6310  29.057  26.445   3.279
41051W        W 6311  28.279   3.437  13.926
41052W        W 6312   7.218   8.854  10.663
41053W        W 6313  40.606  24.091  11.477
41054W        W 6314  43.391  42.037  12.283
41055W        W 6315  28.946   2.273  11.748
41056W        W 6316  32.431  13.682  14.763
41057W        W 6317   5.844  31.900   3.289
41058W        W 6318  13.043   2.306   0.229
41059W        W 6319   8.255  20.541   2.113
41060W        W 6320  20.330  30.095   1.420
41061W        W 6321  14.475  15.338   3.765
41062W        W 6322  38.893  30.475   2.869
41063W        W 6323   4.162  42.546  12.458
41064W        W 6324  23.215  40.418   3.310
41065W        W 6325   6.157  14.482   4.563
41066W        W 6326   2.790  27.437   2.557
41067W        W 6327  20.214  32.526   3.207
41068W        W 6328   3.955  33.462  13.259
41069W        W 6329  14.810  23.505  11.543
41070W        W 6330  30.780  29.491  12.008
41071W        W 6331  24.778  44.271   0.849
41072W        W 6332  15.298  21.365  10.291
41073W        W 6333  28.380   1.759  10.744
41074W        W 6334   4.485  24.054  11.980
41075W        W 6335  30.684  28.404   0.139
41076W        W 6336  23.085  13.894   4.010
41077W        W 6337  32.509  21.340   4.645
41078W        W 6338  15.419  13.300   3.914
41079W        W 6339   8.611  15.792   1.436
41080W        W 6340   7.136   2.306  12.101
41081W        W 6341  19.473  10.557   3.322
41082W        W 6342  44.800  18.286   2.362
41083W        W 6343  36.800  31.554  11.522
41084W        W 6344  39.067  41.540   2.916
41085W        W 6345  18.185  38.325   2.774
41086W        W 6346  12.931  12.111   1.469
41087W        W 6347  20.578  11.912   1.929
41088W        W 6348  28.749  15.364  13.470
41089W        W 6349   3.339  30.596   2.127
41090W        W 6350  20.171  41.422  14.497
41091W        W 6351  17.351  12.125  10.578
41092W        W 6352  26.363  38.640   4.242
41093W        W 6353  24.643  22.813   0.979
41094W        W 6354  36.131  16.643  13.057
41095W        W 6355  44.983  29.186   0.943
41096W        W 6356   9.027   2.308   0.285
41097W        W 6357  32.118  30.462  14.082
41098W        W 6358  13.182  19.244  10.449
41099W        W 6359   0.239  27.456   0.770
41100W        W 6360   2.793  30.068   0.567
41101W        W 6361   0.556  35.144   2.673
41102W        W 6362  35.048  29.164  10.712
41103W        W 6363  39.396   4.436  14.118
41104W        W 6364  38.993  24.937  13.374
41105W        W 6365   5.701  11.249   1.495
41106W        W 6366   0.558   8.481  12.896
41107W        W 6367  29.887  32.458  13.521
41108W        W 6368  28.042  39.740   1.306
41109W        W 6369  34.120  11.692   2.460
41110W        W 6370  30.547   7.302  14.392
41111W        W 6371  42.916  37.346  10.625
41112W        W 6372  26.234  11.617  10.775
41113W        W 6373   2.697  41.290  11.383
41114W        W 6374  28.113  37.953   4.653
41115W        W 6375  38.920  14.299  13.279
41116W        W 6376   6.861   2.453  11.703
41117W        W 6377  33.941  16.301  12.535
41118W        W 6378  18.202  35.899   1.161
41119W        W 6379  16.085  30.500   0.739
41120W        W 6380  31.498  19.184   1.981
41121W        W 6381   8.914  27.253   0.375
41122W        W 6382  14.333  40.867  14.537
41123W        W 6383  31.669  35.537  12.995
41124W        W 6384  39.051   4.427   1.380
41125W        W 6385  44.527  32.023  14.364
41126W        W 6386  31.877  24.961  12.219
41127W        W 6387   7.198  43.856  12.364
41128W        W 6388  15.576  27.721  13.936
41129W        W 6389  30.212  22.631   0.430
41130W        W 6390  26.294  20.727  11.633
41131W        W 6391   4.954  25.194   4.243
41132W        W 6392  26.874  40.329   1.422
41133W        W 6393   5.063  17.734  10.637
41134W        W 6394  32.930  29.478  13.854
41135W        W 6395  15.006  32.386  14.922
41136W        W 6396  36.546  24.633  11.852
41137W        W 6397   0.721  10.779   3.953
41138W        W 6398  33.392  18.713  11.104
41139W        W 6399  19.614  42.374   1.405
41140W        W 6400  43.987   2.788  12.571
41141W        W 6401   4.818  18.513  12.882
41142W        W 6402   1.189  15.795  11.021
41143W        W 6403   1.262  13.237  13.327
41144W        W 6404  12.134  12.035  10.123
41145W        W 6405  18.864   2.883  14.933
41146W        W 6406   1.119  40.925  12.367
41147W        W 6407   4.994  13.676   0.318
41148W        W 6408  17.072   4.194  11.150
41149W        W 6409  22.745  21.948  13.677
41150W        W 6410  21.778  16.866   2.999
41151W        W 6411   7.200  44.248   4.039
41152W        W 6412  28.058  26.552   3.977
41153W        W 6413  40.426  17.137   3.005
41154W        W 6414  26.369   1.627  10.771
41155W        W 6415   3.713   4.876   0.390
41156W        W 6416  44.582  25.014  12.208
41157W        W 6417  21.683   8.610   2.679
41158W        W 6418  40.327  10.507  10.735
41159W        W 6419  22.949   7.753  12.410
41160W        W 6420  14.093  40.917   1.404
41161W        W 6421  38.461  32.958  13.849
41162W        W 6422  10.202  22.012  10.613
41163W        W 6423  41.875  22.072   2.319
41164W        W 6424   9.202  39.988   3.276
41165W        W 6425  41.417  12.245  10.523
41166W        W 6426  30.156  20.306  10.738
41167W        W 6427  40.274  21.992  12.940
41168W        W 6428  31.552  35.033  11.174
41169W        W 6429  39.457   8.411   4.719
41170W        W 6430  39.837  40.494  13.152
41171W        W 6431  11.258  15.610  14.502
41172W        W 6432  32.136  23.784   2.348
41173W        W 6433  17.114  29.409  14.724
41174W        W 6434  30.997  40.615   2.891
41175W        W 6435  35.889  39.352   2.363
41176W        W 6436  17.490  21.799   4.645
41177W        W 6437  28.997  11.559  13.754
41178W        W 6438  28.431  17.332   2.627
41179W        W 6439  12.147  18.713   3.138
41180W        W 6440  40.452  14.192  14.703
41181W        W 6441  44.349  17.749  13.480
41182W        W 6442   2.034  30.495   3.432
41183W        W 6443  26.182   3.651   4.252
41184W        W 6444  28.036  32.723  12.036
41185W        W 6445  14.717   6.656  12.002
41186W        W 6446  20.119   4.200   1.457
41187W        W 6447  28.438   0.254   3.657
41188W        W 6448  11.253   0.223  11.588
41189W        W 6449  11.583  41.789   1.849
41190W        W 6450  26.903  44.742  14.467
41191W        W 6451  18.359  25.248   3.763
41192W        W 6452   5.876  36.510   2.388
41193W        W 6453  36.432  36.830   4.801
41194W        W 6454  19.701  27.084  10.555
41195W        W 6455  26.749  21.115   1.867
41196W        W 6456  35.364  43.350   4.817
41197W        W 6457   7.961  39.892   2.613
41198W        W 6458  43.867  30.537   3.341
41199W        W 6459   5.204   9.643  12.871
41200W        W 6460  44.298   1.271  12.940
41201W        W 6461   0.910  37.508   5.000
41202W        W 6462  42.573  43.583   0.554
41203W        W 6463  37.065  24.552   4.599
41204W        W 6464  33.881  15.100   3.652
41205W        W 6465  22.124  21.216  13.951
41206W        W 6466  20.818  27.322  11.215
41207W        W 6467  36.939  16.047  12.118
41208W        W 6468  10.166   9.693  12.939
41209W        W 6469  21.459  21.204   3.643
41210W        W 6470  26.144  35.686   5.142
41211W        W 6471  18.130  26.908   2.200
41212W        W 6472  23.736  19.565  11.652
41213W        W 6473  35.332   3.006   0.904
41214W        W 6474  17.646  18.704   4.862
41215W        W 6475  14.093  25.580   1.462
41216W        W 6476   0.748  38.132  12.157
41217W        W 6477  35.511  23.217   4.278
41218W        W 6478   7.473  37.123   2.675
41219W        W 6479  23.040  33.791   4.060
41220W        W 6480  14.618  28.097  12.611
41221W        W 6481  29.692  30.473   3.049
41222W        W 6482  35.366  38.420   2.287
41223W        W 6483  10.622  36.436  10.906
41224W        W 6484  29.131  31.593  14.012
41225W        W 6485   2.772   0.913  13.628
41226W        W 6486  31.563  19.185  11.300
41227W        W 6487  23.501  24.382  12.530
41228W        W 6488  34.679  19.040  11.332
41229W        W 6489  25.305  27.713   3.837
41230W        W 6490  25.719  25.073  12.803
41231W        W 6491  20.301  36.351  12.583
41232W        W 6492  33.707  42.721  12.958
41233W        W 6493   5.742   2.162   0.361
41234W        W 6494  30.522  14.771   0.896
41235W        W 6495   3.758  20.565  13.683
41236W        W 6496  14.294  13.290  13.532
41237W        W 6497  41.425  38.809   5.024
41238W        W 6498  29.881  38.565   5.155
41239W        W 6499   3.799   6.896  10.710
41240W        W 6500   5.195  23.049   3.487
41241W        W 6501  10.405  27.145  10.642
41242W        W 6502  37.215  20.518  10.659
41243W        W 6503   1.119  24.410  13.859
41244W        W 6504  32.125  27.921   2.828
41245W        W 6505  18.282  12.317  14.280
41246W        W 6506  26.686  43.786   2.445
41247W        W 6507  12.429  40.015  13.622
41248W        W 6508  12.848  30.531   0.311
41249W        W 6509  29.169  25.005  10.816
41250W        W 6510  42.112   7.117   0.533
41251W        W 6511  10.271  37.915   2.404
41252W        W 6512   7.782  38.931  14.375
41253W        W 6513  28.853  43.893  10.633
41254W        W 6514   1.358   5.870   3.788
41255W        W 6515  10.766  34.814  14.067
41256W        W 6516  37.598   7.894   0.378
41257W        W 6517  32.928  20.660   3.891
41258W        W 6518   2.956  20.090   1.876
41259W        W 6519  39.299  11.262   1.486
41260W        W 6520  12.197  25.916  13.311
41261W        W 6521  28.482  44.366   2.184
41262W        W 6522  14.628  15.047  14.308
41263W        W 6523   6.888  23.216   3.166
41264W        W 6524   3.392   6.889   0.561
41265W        W 6525   4.040  42.824   1.464
41266W        W 6526  40.910   5.177  10.792
41267W        W 6527   6.483  29.658   0.905
41268W        W 6528   6.274  18.667  11.145
41269W        W 6529  32.007  42.295   0.910
41270W        W 6530   7.705  27.727   2.703
41271W        W 6531  44.351  17.599  13.982
41272W        W 6532  24.164  38.945   1.377
41273W        W 6533   8.544  26.007  12.844
41274W        W 6534   0.918  23.995  10.523
41275W        W 6535  17.323   2.397   3.729
41276W        W 6536  38.346  37.323  14.968
41277W        W 6537  10.759   6.603   1.309
41278W        W 6538  22.648  33.925   2.208
41279W        W 6539  16.282  13.399  13.148
41280W        W 6540  29.601  29.677  12.671
41281W        W 6541  23.684  32.585  11.581
41282W        W 6542  25.829  19.472  13.368
41283W        W 6543  36.007  36.930   1.323
41284W        W 6544  31.418  32.410   1.932
41285W        W 6545  10.235  11.757   3.829
41286W        W 6546  32.029  36.450   1.130
41287W        W 6547  34.342   1.334   2.304
41288W        W 6548  41.405  26.933   0.050
41289W        W 6549   0.467  20.754  13.937
41290W        W 6550  17.041   9.728  10.450
41291W        W 6551  29.531  44.910   4.525
41292W        W 6552   1.510  38.701   0.240
41293W        W 6553  42.974  38.319  11.581
41294W        W 6554  33.244  15.143   3.751
41295W        W 6555  29.215  23.463   3.605
41296W        W 6556   0.393  38.709  11.562
41297W        W 6557  26.674   3.352   0.932
41298W        W 6558   6.731  27.494   1.381
41299W        W 6559  39.625  16.323  11.180
41300W        W 6560  26.518   2.591   5.155
41301W        W 6561  26.216   2.026  11.562
41302W        W 6562   9.834  20.284  13.871
41303W        W 6563   6.799  20.230   4.633
41304W        W 6564  30.839  12.743  13.944
41305W        W 6565  20.135  20.257  12.054
41306W        W 6566  13.870  44.273   1.383
41307W        W 6567  25.038  20.526  11.229
41308W        W 6568  37.905   5.784   4.742
41309W        W 6569   1.455  10.829  12.384
41310W        W 6570  21.720   8.806  11.648
41311W        W 6571   3.727  31.497   4.235
41312W        W 6572  27.203  30.845  13.962
41313W        W 6573  14.354  22.637   5.258
41314W        W 6574  20.147   5.749  13.032
41315W        W 6575   2.742   6.499   3.328
41316W        W 6576  23.757  26.769   3.253
41317W        W 6577  23.371  44.885   2.642
41318W        W 6578  30.257  35.962   1.730
41319W        W 6579  21.530  27.640   1.793
41320W        W 6580   7.777  41.264  12.819
41321W        W 6581  14.860  19.803   4.219
41322W        W 6582  43.833  40.362   0.960
41323W        W 6583   6.108   9.195   0.880
41324W        W 6584   1.859  37.387   1.838
41325W        W 6585   6.649  22.643  12.130
41326W        W 6586  25.239  25.349  11.480
41327W        W 6587   8.917  24.210  14.888
41328W        W 6588  19.272  23.998   5.553
41329W        W 6589  28.016   5.882   0.273
41330W        W 6590  26.082  14.230  11.245
41331W        W 6591  23.228  25.684   1.253
41332W        W 6592  32.269  13.241   1.285
41333W        W 6593  13.115  27.573   0.777
41334W        W 6594  28.407  31.032   4.442
41335W        W 6595   6.869  17.059  10.369
41336W        W 6596  14.910  11.851  13.906
41337W        W 6597  21.540   1.243   4.829
41338W        W 6598  13.911  23.813   0.937
41339W        W 6599  14.786  31.564   0.307
41340W        W 6600  27.028  12.363   2.735
41341W        W 6601  18.581   0.953  10.518
41342W        W 6602  36.474  22.682   4.293
41343W        W 6603  16.390   9.279  10.784
41344W        W 6604  36.534   6.601   2.163
41345W        W 6605  41.043  40.556  12.476
41346W        W 6606  10.229  34.370   1.259
41347W        W 6607  31.950   5.312   3.648
41348W        W 6608  22.333  25.278  13.999
41349W        W 6609  43.898  10.229  10.843
41350W        W 6610  25.865  18.771  11.193
41351W        W 6611  43.912  16.015  14.519
41352W        W 6612   6.229  11.333   4.867
41353W        W 6613  29.110  36.575   0.440
41354W        W 6614   7.903  36.457   3.764
41355W        W 6615  32.993  23.266  12.848
41356W        W 6616  40.672   0.185   5.596
41357W        W 6617  39.822  27.390   2.881
41358W        W 6618  18.976   2.332  13.374
41359W        W 6619  24.763  30.497   1.996
41360W        W 6620   2.126   6.401   1.652
41361W        W 6621  15.109  16.210  14.369
41362W        W 6622   5.002   3.296  13.120
41363W        W 6623  42.524   4.934   9.961
41364W        W 6624   9.645  27.434   3.584
41365W        W 6625  40.962  33.645   0.850
41366W        W 6626  25.130  24.919  12.150
41367W        W 6627  20.124  39.575  11.029
41368W        W 6628  42.053  22.582  10.617
41369W        W 6629  39.964  32.490  14.488
41370W        W 6630   4.920  23.267   3.120
41371W        W 6631  12.214   1.213  11.108
41372W        W 6632  10.222  26.712  14.036
41373W        W 6633  25.681  33.449  13.916
41374W        W 6634  11.099  21.548  12.733
41375W        W 6635   5.768  25.393   1.336
41376W        W 6636  28.116  31.515   4.696
41377W        W 6637  25.816  11.142   3.705
41378W        W 6638   9.141  25.543  12.124
41379W        W 6639  43.993   3.855  14.969
41380W        W 6640  27.969  39.225   1.415
41381W        W 6641  36.600  24.887   0.154
41382W        W 6642  35.018  20.096  11.521
41383W        W 6643  41.315  19.603   4.640
41384W        W 6644  21.383  44.806   4.857
41385W        W 6645  42.624  28.085   0.257
41386W        W 6646   8.192   9.002  12.826
41387W        W 6647  13.858  35.166   2.416
41388W        W 6648   6.928  32.844   1.418
41389W        W 6649  27.672   6.267   0.146
41390W        W 6650  24.574  44.110  11.488
41391W        W 6651  34.426   2.463   3.700
41392W        W 6652  22.928   3.959  10.810
41393W        W 6653   6.752  42.957   2.803
41394W        W 6654  27.478  32.917  12.955
41395W        W 6655  15.882  44.458   2.648
41396W        W 6656  19.792  43.883  12.648
41397W        W 6657  12.928  25.029   2.894
41398W        W 6658  11.239  41.431   0.669
41399W        W 6659  40.819  39.496   4.825
41400W        W 6660  12.164  44.023   3.574
41401W        W 6661  35.055   5.990   2.061
41402W        W 6662  30.206  25.999  13.894
41403W        W 6663  18.611  14.188  14.100
41404W        W 6664   7.444  36.850  11.141
41405W        W 6665   6.216   7.934  10.788
41406W        W 6666   2.062  19.595  11.644
41407W        W 6667  38.587  20.312   4.587
41408W        W 6668  42.620  20.044   4.327
41409W        W 6669   1.746  12.583  11.980
41410W        W 6670  38.355  31.897  13.316
41411W        W 6671  24.059  22.552   2.744
41412W        W 6672  30.968  42.894   3.900
41413W        W 6673  35.886  35.473   4.344
41414W        W 6674  21.114  32.612  14.460
41415W        W 6675   6.919  10.541  13.877
41416W        W 6676   7.334  18.589   1.811
41417W        W 6677  23.207  10.578  14.433
41418W        W 6678  12.784  16.877   0.400
41419W        W 6679  32.951  31.464  11.043
41420W        W 6680  14.227  32.660  11.774
41421W        W 6681  41.063  35.460   2.287
41422W        W 6682   1.713   7.956   0.047
41423W        W 6683  44.358  40.414  13.278
41424W        W 6684  13.811  39.631   2.571
41425W        W 6685  43.928  11.058  11.254
41426W        W 6686  14.634  17.765   4.580
41427W        W 6687  19.737   2.108   1.166
41428W        W 6688  39.452  34.559  14.096
41429W        W 6689  33.501  13.134  11.720
41430W        W 6690   1.767  35.055   4.635
41431W        W 6691  25.065  43.106   3.278
41432W        W 6692  30.044  20.652   1.866
41433W        W 6693   7.749  23.278   0.015
41434W        W 6694  18.341  26.625   4.072
41435W        W 6695   9.741  27.044   1.693
41436W        W 6696  44.855   2.668  13.137
41437W        W 6697  15.345  36.473  11.631
41438W        W 6698   1.892  17.750  12.089
41439W        W 6699  31.181  31.859  10.704
41440W        W 6700  14.900   9.168   1.297
41441W        W 6701  27.720  40.001  13.930
41442W        W 6702   0.819   2.378   3.931
41443W        W 6703  30.947  43.704   0.776
41444W        W 6704  29.457   5.848   1.695
41445W        W 6705   6.293  38.827   0.734
41446W        W 6706  27.202  10.878   0.657
41447W        W 6707  36.328  10.853   4.524
41448W        W 6708  42.297  35.568   1.102
41449W        W 6709   8.707   0.714  13.812
41450W        W 6710   1.814  32.796   2.151
41451W        W 6711  25.761  16.562   0.012
41452W        W 6712  30.567  43.386  12.793
41453W        W 6713  41.855   5.883  11.601
41454W        W 6714  18.341  38.766  12.024
41455W        W 6715  34.569  10.203  11.201
41456W        W 6716  25.247  12.430  14.944
41457W        W 6717  38.879  32.939  11.546
41458W        W 6718   3.818   6.821   0.243
41459W        W 6719  24.180  11.807  13.409
41460W        W 6720  18.110  35.499  12.982
41461W        W 6721  44.359  14.699   0.811
41462W        W 6722  31.557  26.753   1.378
41463W        W 6723   5.132  24.645   1.299
41464W        W 6724  41.136  36.425  14.441
41465W        W 6725  22.143  27.527  14.617
41466W        W 6726   9.708  19.243  14.288
41467W        W 6727  31.360  10.637   1.679
41468W        W 6728  40.747  30.547  13.961
41469W        W 6729  30.514  30.011   4.821
41470W        W 6730  25.089   6.447  12.016
41471W        W 6731  21.055  41.993   1.034
41472W        W 6732  27.685  12.615   1.334
41473W        W 6733  31.065  22.641  14.005
41474W        W 6734  42.260  13.356   2.350
41475W        W 6735  43.664  29.516  14.909
41476W        W 6736   9.993  20.276   3.884
41477W        W 6737  17.302  25.969   1.417
41478W        W 6738  20.243  36.984  13.699
41479W        W 6739   4.820  23.508   0.973
41480W        W 6740   5.990  21.159  12.437
41481W        W 6741  25.011  41.433  14.768
41482W        W 6742  22.609  19.775   1.884
41483W        W 6743   6.593  29.717   1.444
41484W        W 6744  35.308  15.354  13.763
41485W        W 6745  35.392  23.867   9.686
41486W        W 6746  27.979  17.543  11.621
41487W        W 6747  41.503  20.329  14.996
41488W        W 6748  23.977   9.028   2.549
41489W        W 6749   5.831  35.868  14.588
41490W        W 6750  41.870  29.857   2.696
41491W        W 6751  38.249   4.881   1.253
41492W        W 6752  10.336  24.611  12.673
41493W        W 6753  44.025  29.667   0.804
41494W        W 6754  19.077  32.910  10.789
41495W        W 6755   5.050   7.933   1.008
41496W        W 6756  25.150  35.635   2.121
41497W        W 6757  43.067  36.558   5.104
41498W        W 6758  36.697  38.414  12.035
41499W        W 6759  33.144   6.389   0.073
41500W        W 6760  44.800   8.876   4.211
41501W        W 6761  13.221  36.286   4.701
41502W        W 6762  20.214  35.753   3.096
41503W        W 6763  24.636  34.985   1.687
41504W        W 6764  26.021  40.825   0.911
41505W        W 6765  21.753  25.493   4.140
41506W        W 6766  41.527   7.382   2.844
41507W        W 6767  12.967  32.088   0.948
41508W        W 6768  17.586  14.835  11.853
41509W        W 6769  28.219   8.373  14.860
41510W        W 6770  21.640   8.866  12.821
41511W        W 6771   6.788  10.744   3.787
41512W        W 6772   8.318   9.501   1.486
41513W        W 6773   2.535  44.284   0.982
41514W        W 6774   5.093  20.331  14.301
41515W        W 6775  29.928  18.094   0.574
41516W        W 6776  41.141  33.522   2.367
41517W        W 6777  12.904  31.963   4.405
41518W        W 6778  32.884  27.098  13.459
41519W        W 6779  33.443   0.500  11.570
41520W        W 6780  35.938   4.583   3.630
41521W        W 6781  40.812  39.089  12.562
41522W        W 6782  14.626  36.079  10.651
41523W        W 6783  17.054   1.386   0.561
41524W        W 6784  18.536  10.296   4.194
41525W        W 6785  37.354  13.154  11.643
41526W        W 6786  15.026   1.072   1.231
41527W        W 6787   6.639   5.354  14.252
41528W        W 6788  22.062  38.300   1.213
41529W        W 6789  17.780  11.059  13.354
41530W        W 6790  23.740  44.524   1.774
41531W        W 6791  17.134   9.323   0.811
41532W        W 6792  27.277   4.666  14.533
41533W        W 6793  36.740  39.841  10.826
41534W        W 6794   2.578  32.585   0.172
41535W        W 6795  17.302   1.988  13.927
41536W        W 6796  26.062  34.623   0.320
41537W        W 6797   2.679  20.001  13.989
41538W        W 6798  26.887  42.203   3.791
41539W        W 6799   4.624  24.914   1.823
41540W        W 6800  18.197  35.593   2.318
41541W        W 6801  16.812   3.053  11.684
41542W        W 6802  34.449  37.077   3.223
41543W        W 6803  24.324  13.336  14.477
41544W        W 6804  19.181  30.840   0.390
41545W        W 6805  16.454  17.104  13.408
41546W        W 6806  26.746  42.891   2.376
41547W        W 6807  28.374  27.596   2.190
41548W        W 6808  25.493   9.422  14.563
41549W        W 6809   5.418   4.508   4.100
41550W        W 6810   1.403  29.452   0.018
41551W        W 6811  16.078  37.509   4.613
41552W        W 6812  21.047   7.681  13.428
41553W        W 6813   3.608   1.494   4.552
41554W        W 6814  41.426  11.317  12.174
41555W        W 6815  37.857  20.112   0.139
41556W        W 6816  39.088  38.858  14.039
41557W        W 6817   8.196  19.891   2.727
41558W        W 6818  44.947   5.905   2.698
41559W        W 6819  37.242  23.508   3.668
41560W        W 6820   2.968  22.610  10.786
41561W        W 6821  13.575  41.568  11.538
41562W        W 6822  15.384  43.277   4.444
41563W        W 6823  22.253  43.069  13.364
41564W        W 6824   0.337  16.217   3.868
41565W        W 6825  39.035  21.703  12.498
41566W        W 6826  41.258  20.880  13.564
41567W        W 6827  27.224   8.827  14.273
41568W        W 6828  20.216  16.820   0.029
41569W        W 6829  43.961  41.420  10.946
41570W        W 6830  39.307   1.278   2.674
41571W        W 6831  44.662  16.288  14.828
41572W        W 6832  26.975  39.460   4.605
41573W        W 6833  14.076   4.818  12.360
41574W        W 6834  43.220  16.581   1.382
41575W        W 6835   9.113  16.965   0.071
41576W        W 6836  32.997  16.806   2.256
41577W        W 6837  22.219  25.652  10.673
41578W        W 6838  12.728  29.688   2.251
41579W        W 6839  20.478  43.561   1.308
41580W        W 6840  30.697  38.340   4.560
41581W        W 6841  19.318  18.941   0.333
41582W        W 6842  28.514  35.852  14.799
41583W        W 6843  16.712  22.970  12.979
41584W        W 6844  18.204  34.039  14.501
41585W        W 6845  30.907  41.873   1.340
41586W        W 6846  13.875  17.802   0.140
41587W        W 6847  26.957   2.751  14.654
41588W        W 6848   9.778  15.049  13.333
41589W        W 6849  35.608  24.408  11.933
41590W        W 6850  37.580   0.540   1.127
41591W        W 6851  35.934  17.571  14.803
41592W        W 6852   4.155  42.447   4.801
41593W        W 6853  17.182  11.998  11.048
41594W        W 6854  41.194   0.695  11.796
41595W        W 6855   0.848  32.081  13.060
41596W        W 6856  22.675  40.740  12.964
41597W        W 6857  37.775  36.991  10.939
41598W        W 6858   6.622  35.864  14.952
41599W        W 6859  29.528  30.066   1.334
41600W        W 6860   5.326  29.265   3.324
41601W        W 6861   0.203  24.041  13.328
41602W        W 6862  36.406  27.134   1.278
41603W        W 6863  11.899  21.392   4.887
41604W        W 6864  25.172   9.769  12.876
41605W        W 6865  30.808  12.687  11.576
41606W        W 6866   8.484  37.606   4.929
41607W        W 6867  17.285  14.847   1.097
41608W        W 6868  41.394  14.655   1.877
41609W        W 6869  18.692  22.961   1.690
41610W        W 6870  20.252  41.415   1.798
41611W        W 6871   8.723   3.167  14.404
41612W        W 6872   6.818   8.797  14.437
41613W        W 6873  36.958   5.239  12.228
41614W        W 6874   0.031  16.714   0.964
41615W        W 6875  10.184  20.262   4.517
41616W        W 6876  16.609  42.353   2.341
41617W        W 6877  33.690   9.175   0.225
41618W        W 6878  41.332   3.728   0.265
41619W        W 6879   2.833  34.892   2.026
41620W        W 6880   7.779  44.711  12.124
41621W        W 6881  29.180  25.541   9.946
41622W        W 6882  31.033  38.543   4.906
41623W        W 6883  30.373  26.999   1.748
41624W        W 6884  39.214  36.246  11.890
41625W        W 6885  41.483  33.545   0.101
41626W        W 6886  13.998   1.284  11.557
41627W        W 6887  33.415  23.910  11.700
41628W        W 6888  25.112  32.296   4.651
41629W        W 6889  22.510   0.483   3.703
41630W        W 6890  34.588  23.675   1.360
41631W        W 6891   7.110  24.090  12.112
41632W        W 6892  24.268  43.080  13.540
41633W        W 6893  40.348  26.892  13.584
41634W        W 6894   8.491  11.051   3.303
41635W        W 6895   6.368   0.944  11.114
41636W        W 6896  31.465  37.583   2.424
41637W        W 6897  36.454   2.409  14.540
41638W        W 6898   8.900  15.324   1.418
41639W        W 6899  26.219  25.876  11.103
41640W        W 6900  11.644  40.467   2.084
41641W        W 6901  39.988  36.536  13.391
41642W        W 6902  14.104  40.584  10.778
41643W        W 6903   8.847  39.468   0.309
41644W        W 6904  29.912   5.786   0.353
41645W        W 6905   7.367  11.707   0.579
41646W        W 6906  34.843  41.703  13.472
41647W        W 6907   0.951  35.624   0.838
41648W        W 6908  17.058  14.603   2.574
41649W        W 6909  14.905  18.805  13.392
41650W        W 6910   9.144  15.212   0.980
41651W        W 6911  29.368  32.339  11.169
41652W        W 6912  44.423  23.598   1.422
41653W        W 6913  43.765  11.552   0.564
41654W        W 6914  20.493   3.325   0.373
41655W        W 6915  43.105  42.647   3.757
41656W        W 6916  41.542   6.612  12.707
41657W        W 6917  13.453   0.677  12.893
41658W        W 6918   8.811  43.126  10.862
41659W        W 6919  32.369  37.960   2.229
41660W        W 6920  40.915  16.665  13.543
41661W        W 6921  12.845  17.079  12.604
41662W        W 6922  26.093  31.981   3.377
41663W        W 6923   0.964  13.618  11.855
41664W        W 6924  42.529  39.931  13.406
41665W        W 6925  33.484  13.821  13.936
41666W        W 6926  36.795  29.672   4.181
41667W        W 6927  24.720  22.625   3.215
41668W        W 6928  41.688  23.252  11.717
41669W        W 6929  23.032  27.053   2.859
41670W        W 6930   3.505  30.456   0.029
41671W        W 6931  27.564   8.258   2.802
41672W        W 6932  35.504  31.407   3.200
41673W        W 6933  39.933   2.344  10.827
41674W        W 6934  39.407  41.257  10.708
41675W        W 6935  28.689  40.035  13.570
41676W        W 6936   8.337  33.042  14.938
41677W        W 6937  42.722  13.008  10.693
41678W        W 6938   9.420  22.924   2.323
41679W        W 6939  35.124  14.584   1.299
41680W        W 6940  35.414  35.623   2.872
41681W        W 6941  41.946   7.383  12.150
41682W        W 6942  40.488  33.004   4.570
41683W        W 6943  14.100  44.744   0.728
41684W        W 6944   1.925   4.777   2.610
41685W        W 6945  23.478  33.103  10.699
41686W        W 6946  14.151  35.703  12.719
41687W        W 6947  29.046   0.801  11.758
41688W        W 6948  13.243   2.527   1.034
41689W        W 6949   8.860  18.038  11.819
41690W        W 6950  26.641  31.731   0.322
41691W        W 6951  26.016   2.261   3.413
41692W        W 6952  14.583  31.454  14.839
41693W        W 6953  27.128  36.466   3.193
41694W        W 6954  29.619  20.692   2.705
41695W        W 6955  24.997  29.959   4.633
41696W        W 6956  43.453  31.362   1.277
41697W        W 6957  40.683  10.743  12.481
41698W        W 6958   1.480  27.173  13.591
41699W        W 6959   2.442   7.240   1.849
41700W        W 6960  13.211  43.786   3.520
41701W        W 6961   2.481  22.664  14.294
41702W        W 6962  29.372  26.105  13.412
41703W        W 6963  25.965  32.856   2.367
41704W        W 6964  40.106  23.571  13.464
41705W        W 6965  43.057  14.119   0.711
41706W        W 6966  40.544  34.014  11.136
41707W        W 6967  22.758  13.875  12.663
41708W        W 6968   0.732  44.396  10.682
41709W        W 6969  18.229  37.448   4.206
41710W        W 6970  34.559  10.361  10.288
41711W        W 6971  39.355  11.776  14.417
41712W        W 6972  41.567  43.225  11.073
41713W        W 6973  40.953   9.347  14.340
41714W        W 6974  41.336  26.193   3.445
41715W        W 6975  37.616   1.535  12.902
41716W        W 6976  16.191   8.348  12.846
41717W        W 6977  40.987  22.631  13.036
41718W        W 6978   8.109  29.305  12.015
41719W        W 6979  39.563  17.648  11.674
41720W        W 6980   4.360  19.504   3.767
41721W        W 6981  30.574  22.870  10.828
41722W        W 6982  15.558  22.646  11.234
41723W        W 6983  26.142  35.354   3.145
41724W        W 6984  27.988  11.752   1.543
41725W        W 6985   7.250  19.585   3.125
41726W        W 6986  29.926  36.566   4.710
41727W        W 6987  15.768  20.990   2.149
41728W        W 6988  12.859  15.082  12.088
41729W        W 6989  21.596  34.172   0.342
41730W        W 6990   0.035  14.961   4.449
41731W        W 6991   8.977   2.986  13.040
41732W        W 6992   2.271   6.857   2.759
41733W        W 6993   2.219  15.655   4.612
41734W        W 6994  17.027  10.893   4.625
41735W        W 6995   5.737  38.081   3.170
41736W        W 6996   9.348  29.873   2.318
41737W        W 6997  25.596  33.108   0.228
41738W        W 6998  25.694  43.356   4.348
41739W        W 6999  37.334  42.751   3.913
41740W        W 7000   7.661  27.139   1.841
41741W        W 7001  19.258  39.790  11.515
41742W        W 7002  34.307  16.183  11.978
41743W        W 7003  12.230  23.929  14.509
41744W        W 7004  16.157  33.522  11.124
41745W        W 7005   9.282   5.306   1.760
41746W        W 7006   5.032   4.648  11.776
41747W        W 7007  40.625   4.941   5.019
41748W        W 7008  22.418  35.542   1.637
41749W        W 7009  38.599   5.916   3.948
41750W        W 7010  39.162  11.268  11.467
41751W        W 7011  33.453   2.327   1.678
41752W        W 7012  44.028   2.360   1.148
41753W        W 7013   6.577  29.386  12.605
41754W        W 7014  25.693   2.222   0.697
41755W        W 7015   0.988   9.217  12.070
41756W        W 7016  23.125  10.226  13.661
41757W        W 7017  14.054  10.862  14.294
41758W        W 7018  26.208  27.045   2.119
41759W        W 7019  17.225  26.168   3.873
41760W        W 7020   6.745   0.345   0.781
41761W        W 7021  15.986  24.969   2.199
41762W        W 7022   8.918  34.468   0.013
41763W        W 7023  23.511   0.924  14.816
41764W        W 7024  15.603  22.983   1.647
41765W        W 7025  18.341   7.572   1.998
41766W        W 7026  18.713  37.272  13.885
41767W        W 7027  44.058  37.051   1.816
41768W        W 7028  23.127  22.315   4.596
41769W        W 7029  16.787  44.965  10.652
41770W        W 7030  36.608  23.939  11.079
41771W        W 7031  20.738  15.663   3.682
41772W        W 7032   3.905  17.192   2.801
41773W        W 7033   2.145  41.123  10.649
41774W        W 7034  29.471  42.984   4.233
41775W        W 7035  26.893  23.518  10.530
41776W        W 7036   5.437  28.244  13.917
41777W        W 7037  19.963   1.338   1.508
41778W        W 7038  28.393  14.256   1.562
41779W        W 7039  26.040   3.186  14.110
41780W        W 7040   6.490  41.969  13.780
41781W        W 7041  28.774  31.971   3.633
41782W        W 7042  10.093  27.556  10.554
41783W        W 7043  38.711  19.521   4.217
41784W        W 7044   8.631  33.804   4.619
41785W        W 7045   2.957   9.295   4.542
41786W        W 7046  11.348  22.814  10.723
41787W        W 7047   2.535  26.950   1.381
41788W        W 7048   4.999  25.093  13.512
41789W        W 7049  30.970  36.335  12.932
41790W        W 7050   0.230  31.202   1.488
41791W        W 7051   8.199  39.756  12.901
41792W        W 7052  32.175   5.477   1.350
41793W        W 7053  16.703   0.155   4.619
41794W        W 7054   5.697  15.644   4.208
41795W        W 7055  15.837  40.131  13.440
41796W        W 7056  27.171   8.207  11.519
41797W        W 7057  38.047  28.342  13.175
41798W        W 7058  35.857  40.861   0.441
41799W        W 7059  35.074  29.819  14.183
41800W        W 7060  13.477  16.701   3.173
41801W        W 7061  42.270  37.003   3.377
41802W        W 7062   4.725   5.893  10.710
41803W        W 7063  18.107   3.861  10.566
41804W        W 7064  41.582  42.410   0.704
41805W        W 7065  20.206  22.650  13.944
41806W        W 7066  36.042  34.258  13.865
41807W        W 7067  40.003  23.066   3.160
41808W        W 7068  26.989  27.106  11.575
41809W        W 7069  13.710  43.122  11.605
41810W        W 7070   4.291  44.161  10.856
41811W        W 7071  15.308  44.893   3.162
41812W        W 7072  44.305  42.714  10.370
41813W        W 7073  30.307  11.273   1.444
41814W        W 7074  37.028   4.404  13.891
41815W        W 7075  16.980  13.773  13.232
41816W        W 7076  27.628   6.357  11.061
41817W        W 7077  32.404  23.461   0.634
41818W        W 7078  44.941   4.341  11.043
41819W        W 7079  14.659  23.782  12.124
41820W        W 7080  11.195  29.104   1.726
41821W        W 7081   4.656  37.919   0.498
41822W        W 7082  21.551   0.532  14.805
41823W        W 7083  27.490  13.700   3.123
41824W        W 7084  18.508  41.332  11.176
41825W        W 7085  44.100  24.433   4.168
41826W        W 7086   6.187  23.462   4.639
41827W        W 7087  16.697   9.222  14.899
41828W        W 7088   7.963   3.887   3.296
41829W        W 7089  23.323  29.511  12.109
41830W        W 7090  40.421  24.535   2.844
41831W        W 7091  30.520  23.615  12.584
41832W        W 7092  28.988   2.696  10.458
41833W        W 7093  16.866  16.516   4.614
41834W        W 7094  21.156   1.242   1.692
41835W        W 7095  33.208  37.033  12.067
41836W        W 7096   9.718  40.851   0.730
41837W        W 7097  11.187  38.902   3.603
41838W        W 7098  39.478  10.948  11.144
41839W        W 7099   5.814  21.017   2.677
41840W        W 7100   0.817  33.040   1.708
41841W        W 7101   4.909  41.919  13.767
41842W        W 7102  19.780   1.755   2.835
41843W        W 7103  11.872  24.155  12.567
41844W        W 7104  17.667  37.718  14.881
41845W        W 7105   5.980  27.979  11.765
41846W        W 7106  19.799   2.922   4.179
41847W        W 7107  19.512  40.777   1.816
41848W        W 7108   7.506  44.298   2.777
41849W        W 7109   4.681  33.897  12.603
41850W        W 7110  29.373   3.227  12.816
41851W        W 7111  11.326   4.858   0.748
41852W        W 7112   4.981  29.547  12.155
41853W        W 7113  31.623  11.144  12.516
41854W        W 7114  38.377  17.087  12.378
41855W        W 7115  21.025  34.822   4.686
41856W        W 7116   3.594  28.878  13.879
41857W        W 7117   7.767  13.618   0.765
41858W        W 7118  40.440  18.597   1.853
41859W        W 7119  39.929  22.533   1.289
41860W        W 7120   2.684   2.208  12.419
41861W        W 7121  29.304  28.556  10.775
41862W        W 7122  32.386   0.769  11.949
41863W        W 7123  32.675  43.488   0.232
41864W        W 7124  23.833   6.943   3.255
41865W        W 7125  18.616  14.291   2.475
41866W        W 7126  29.611  26.822   1.251
41867W        W 7127   4.376  10.882   4.525
41868W        W 7128  35.019  28.981  12.585
41869W        W 7129  19.239  28.103   1.471
41870W        W 7130  14.715   3.368  13.041
41871W        W 7131   7.521  32.301   0.743
41872W        W 7132  35.619  12.688   2.853
41873W        W 7133  31.145  42.317   1.029
41874W        W 7134  19.081  34.831   2.366
41875W        W 7135   0.486  20.672   1.483
41876W        W 7136   0.677  38.031  13.981
41877W        W 7137  33.417   0.846   1.752
41878W        W 7138  34.965  10.203  11.570
41879W        W 7139   4.786  33.142  14.037
41880W        W 7140  25.521  25.555  14.914
41881W        W 7141  14.826   4.911  11.579
41882W        W 7142  31.049  30.400  10.816
41883W        W 7143  13.878  38.069  12.918
41884W        W 7144  37.836   4.189  12.874
41885W        W 7145   6.813  36.129   0.387
41886W        W 7146   0.175  21.234  11.503
41887W        W 7147  18.211  30.140  11.689
41888W        W 7148   8.319  28.930  12.951
41889W        W 7149  30.481   6.448   4.343
41890W        W 7150  37.964  43.553   4.092
41891W        W 7151  44.091  14.684  12.429
41892W        W 7152  22.254  22.999   2.074
41893W        W 7153   7.190  23.058  11.183
41894W        W 7154  20.682  10.664  10.582
41895W        W 7155  43.541  37.500  11.661
41896W        W 7156  23.182   4.505   2.379
41897W        W 7157  34.189  26.976  11.137
41898W        W 7158   3.277  31.835   2.815
41899W        W 7159   5.259  12.507  14.852
41900W        W 7160  35.533  28.875  13.226
41901W        W 7161  22.238  22.012  14.890
41902W        W 7162   9.408   2.832  13.331
41903W        W 7163  40.944  22.204  13.395
41904W        W 7164  42.262  14.365   3.288
41905W        W 7165  28.626  36.953  10.346
41906W        W 7166   2.417  35.195   4.148
41907W        W 7167  41.277   6.755   4.203
41908W        W 7168  14.313  41.567  14.456
41909W        W 7169  13.672   5.307   0.713
41910W        W 7170  14.262  21.590  11.644
41911W        W 7171  42.955  22.876  12.329
41912W        W 7172  31.058   3.861  14.913
41913W        W 7173  19.969  38.907   0.316
41914W        W 7174  30.199  28.564  13.009
41915W        W 7175  21.964  42.845  13.751
41916W        W 7176  42.852  12.011   2.116
41917W        W 7177   3.747   7.658  11.964
41918W        W 7178  41.802  25.012   0.036
41919W        W 7179   1.826   3.997  12.072
41920W        W 7180   6.804  29.864   2.760
41921W        W 7181  10.048  18.150   3.380
41922W        W 7182   3.340  38.290   0.929
41923W        W 7183  21.002  40.203   3.522
41924W        W 7184  21.479  14.220   2.961
41925W        W 7185  17.100  28.432   3.313
41926W        W 7186   6.267  24.129  13.939
41927W        W 7187   6.378   2.598  10.230
41928W        W 7188  27.909  38.799  10.798
41929W        W 7189  32.912  36.480   0.700
41930W        W 7190  28.681  37.464   4.781
41931W        W 7191  13.151   4.772  13.603
41932W        W 7192  28.652  22.069  12.903
41933W        W 7193  33.650  31.646   4.597
41934W        W 7194  12.514  38.491   2.834
41935W        W 7195   2.770  12.854   0.095
41936W        W 7196  33.005   3.017  14.163
41937W        W 7197   0.245  14.655  12.232
41938W        W 7198  40.312  18.808  11.213
41939W        W 7199  43.322  18.933  12.952
41940W        W 7200  29.083   1.895   2.929
41941W        W 7201  10.780  17.120  10.842
41942W        W 7202  32.633  42.378  14.436
41943W        W 7203  21.738  21.580   1.522
41944W        W 7204  14.799  42.906  14.910
41945W        W 7205   8.840  42.602  10.793
41946W        W 7206   2.540  21.406   4.560
41947W        W 7207  41.561  43.104  13.884
41948W        W 7208  15.702  37.908   2.691
41949W        W 7209  13.341  17.963  12.125
41950W        W 7210  37.051  41.551   4.529
41951W        W 7211  21.015  14.288  13.842
41952W        W 7212  28.981  26.983   5.414
41953W        W 7213  44.841   3.414   1.784
41954W        W 7214  16.052   0.439   1.233
41955W        W 7215  38.863   9.154   3.709
41956W        W 7216  43.800   6.216  10.642
41957W        W 7217   2.455  41.578   4.106
41958W        W 7218   0.388  15.779   0.703
41959W        W 7219  35.965  20.334  12.483
41960W        W 7220  27.402   3.587  13.892
41961W        W 7221  16.654  41.730  12.065
41962W        W 7222  37.308  38.574  12.844
41963W        W 7223  15.627   9.597   0.494
41964W        W 7224  28.624  23.898   2.832
41965W        W 7225  19.547  37.817   4.493
41966W        W 7226  40.358   9.336  14.915
41967W        W 7227  41.854  40.904  11.003
41968W        W 7228  43.993  33.336   0.406
41969W        W 7229  16.374  27.256   3.157
41970W        W 7230  21.222  12.427  13.964
41971W        W 7231  34.409  41.800   1.892
41972W        W 7232  20.088  26.287  11.500
41973W        W 7233  31.512  42.220   4.408
41974W        W 7234  24.531  23.829   3.640
41975W        W 7235   9.841  29.879   0.063
41976W        W 7236  17.984  31.676   0.871
41977W        W 7237   7.700  40.745   3.714
41978W        W 7238  15.271  41.035   2.131
41979W        W 7239  37.786  12.558   3.601
41980W        W 7240  11.908  19.624  12.125
41981W        W 7241  13.689  31.656   4.703
41982W        W 7242  14.060  10.158  10.927
41983W        W 7243  28.864  31.419   0.051
41984W        W 7244  33.491  19.966   4.764
41985W        W 7245   3.966  39.590  12.963
41986W        W 7246  36.009   9.251   2.605
41987W        W 7247   4.073   1.884  14.118
41988W        W 7248  25.433  16.575  10.144
41989W        W 7249  39.469  39.804   4.360
41990W        W 7250   7.344   4.002   2.262
41991W        W 7251   2.455   5.309  13.218
41992W        W 7252  18.322  15.385  13.440
41993W        W 7253  43.275   1.208   4.897
41994W        W 7254   3.990   4.683  13.068
41995W        W 7255  26.681  30.571   2.316
41996W        W 7256   0.919  18.802  12.911
41997W        W 7257  38.923  14.351  11.435
41998W        W 7258  13.864  38.026  14.249
41999W        W 7259  36.871  42.876  14.866
42000W        W 7260  43.743   3.466   4.610
42001W        W 7261  39.514  15.219   1.378
42002W        W 7262  43.344  24.182   2.506
42003W        W 7263  21.854  33.106   1.216
42004W        W 7264  29.491  26.599  13.572
42005W        W 7265  10.327  25.945  14.562
42006W        W 7266   8.174  23.051   1.915
42007W        W 7267  14.715   6.401  14.502
42008W        W 7268   1.119  19.267  13.022
42009W        W 7269  41.635  22.191   1.863
42010W        W 7270   0.857  43.984  13.539
42011W        W 7271  14.381   9.410   0.072
42012W        W 7272  38.801   3.671   2.322
42013W        W 7273  16.214   9.189  11.608
42014W        W 7274  29.395  42.234   3.632
42015W        W 7275  33.317  37.847  12.233
42016W        W 7276  20.213  29.977  13.857
42017W        W 7277  38.541  33.433   0.370
42018W        W 7278   8.517  41.893  14.293
42019W        W 7279  42.032  37.981   3.177
42020W        W 7280  22.503  19.617   0.714
42021W        W 7281  21.243  30.388  14.380
42022W        W 7282  37.575  14.294   2.150
42023W        W 7283   0.266  27.103  10.543
42024W        W 7284  23.110  44.866  13.425
42025W        W 7285  29.105  19.675   2.606
42026W        W 7286   4.002  14.419   3.929
42027W        W 7287  34.000  12.530  13.909
42028W        W 7288  33.214  18.790  14.767
42029W        W 7289  11.154  15.774  11.185
42030W        W 7290  21.495  13.676   1.791
42031W        W 7291  15.833   1.905   1.890
42032W        W 7292  11.384  23.732   1.765
42033W        W 7293  12.219   8.984   5.549
42034W        W 7294  41.866  18.655  12.941
42035W        W 7295  33.984  32.147  12.776
42036W        W 7296  30.761  35.629   1.126
42037W        W 7297  35.887  23.625  14.365
42038W        W 7298  19.272  40.513  12.069
42039W        W 7299  20.568  18.913   1.437
42040W        W 7300  18.839  18.121  13.871
42041W        W 7301  26.419  17.283   1.508
42042W        W 7302   6.993  44.631   1.393
42043W        W 7303  29.391  32.072   0.447
42044W        W 7304  35.935  11.355  13.851
42045W        W 7305  18.330  21.549   2.014
42046W        W 7306  44.377   7.715   2.613
42047W        W 7307  28.422  39.853   1.670
42048W        W 7308  23.106  29.998  12.041
42049W        W 7309  27.126  30.388  12.156
42050W        W 7310  20.795  23.119   3.216
42051W        W 7311  26.344   6.761  12.359
42052W        W 7312  25.232  33.419   1.127
42053W        W 7313  10.450  10.880   4.101
42054W        W 7314  18.795   2.804  11.547
42055W        W 7315  39.370  24.386  13.970
42056W        W 7316  18.105  25.500  13.265
42057W        W 7317   8.867  36.304  10.603
42058W        W 7318  33.059  17.476  13.099
42059W        W 7319  12.359  35.588  12.218
42060W        W 7320   9.349  33.067   2.100
42061W        W 7321  25.360  43.048   4.097
42062W        W 7322  22.001  40.773  14.462
42063W        W 7323  17.177  19.343  14.284
42064W        W 7324   3.848   6.848  11.572
42065W        W 7325  30.970  10.494  13.829
42066W        W 7326  17.583  40.370   0.729
42067W        W 7327   8.243   8.067   2.575
42068W        W 7328  17.719   0.755  11.100
42069W        W 7329  37.145  30.151   1.359
42070W        W 7330   3.228  42.532   5.098
42071W        W 7331  27.431  43.909   3.789
42072W        W 7332  12.877  20.349   0.429
42073W        W 7333  28.026  10.050   1.701
42074W        W 7334  15.068  10.868  12.391
42075W        W 7335  32.897  16.676  10.697
42076W        W 7336  23.098  22.725   3.724
42077W        W 7337  18.475  44.772   4.450
42078W        W 7338  32.574   9.007  14.353
42079W        W 7339  32.604   3.052  13.141
42080W        W 7340   0.936  44.235   4.478
42081W        W 7341  14.173  23.482  12.056
42082W        W 7342   4.068  23.778   2.335
42083W        W 7343  34.438  23.103   4.110
42084W        W 7344  16.332  19.057   1.316
42085W        W 7345  43.056  16.689  13.828
42086W        W 7346  18.269   2.343  11.988
42087W        W 7347   7.608  30.158   0.694
42088W        W 7348  14.627  41.322  12.939
42089W        W 7349   8.964  33.851   1.784
42090W        W 7350  38.975  11.653   1.399
42091W        W 7351  34.991  26.084   2.887
42092W        W 7352  14.626  31.934  13.080
42093W        W 7353  32.455  12.398  11.178
42094W        W 7354  29.172  15.446   4.261
42095W        W 7355  17.351  23.684   0.189
42096W        W 7356  14.246  12.118   1.399
42097W        W 7357  30.062   7.290   4.187
42098W        W 7358   0.244  10.880   2.698
42099W        W 7359   5.883  36.077   3.341
42100W        W 7360  11.259  16.623   3.144
42101W        W 7361  34.861  32.868  11.580
42102W        W 7362   0.544  40.748   2.760
42103W        W 7363  29.926  12.500  11.983
42104W        W 7364  10.466  31.455  14.824
42105W        W 7365  13.807   9.548   1.815
42106W        W 7366  20.083  31.951  10.616
42107W        W 7367  40.882   3.778  11.198
42108W        W 7368  35.596  25.794   5.144
42109W        W 7369  19.205  24.097  14.046
42110W        W 7370  44.377  40.561   9.849
42111W        W 7371  38.316  39.922  12.197
42112W        W 7372  31.296  43.483   1.304
42113W        W 7373  32.071   8.382  11.206
42114W        W 7374  32.031   7.938   1.003
42115W        W 7375   0.462  38.071   2.545
42116W        W 7376   6.598  29.711  14.353
42117W        W 7377  44.307  25.750   3.035
42118W        W 7378  17.125  27.031  11.162
42119W        W 7379  30.039  34.341  14.557
42120W        W 7380  25.562  13.865   2.472
42121W        W 7381  36.832  17.398   0.261
42122W        W 7382  13.514  40.060   2.259
42123W        W 7383  24.582  41.899   3.232
42124W        W 7384  12.917  34.354   3.219
42125W        W 7385  42.306  29.101   1.704
42126W        W 7386  27.203  12.424   4.669
42127W        W 7387  33.625  37.966   3.803
42128W        W 7388  32.667  26.098   3.158
42129W        W 7389   5.757  42.510   1.067
42130W        W 7390  17.777   1.378   1.420
42131W        W 7391  12.846  12.668   4.771
42132W        W 7392   6.996   3.280   4.251
42133W        W 7393  18.143   8.722   4.192
42134W        W 7394  17.629   1.589   3.808
42135W        W 7395  26.021  19.218   1.379
42136W        W 7396  18.351  43.216  12.178
42137W        W 7397  44.726  16.394   0.702
42138W        W 7398  30.537  40.573  13.160
42139W        W 7399  13.298  41.523  12.629
42140W        W 7400  19.071  44.384  12.252
42141W        W 7401   9.085   3.506  13.897
42142W        W 7402  27.947  10.496  10.742
42143W        W 7403  18.154  21.296   0.699
42144W        W 7404  32.451  31.658  14.950
42145W        W 7405  14.540  20.473  11.491
42146W        W 7406   5.254  34.859   0.970
42147W        W 7407  14.532   9.084   4.082
42148W        W 7408  18.351  34.545  10.061
42149W        W 7409  41.827   8.764  12.456
42150W        W 7410   7.843  34.182   4.127
42151W        W 7411   9.152  22.829   0.932
42152W        W 7412  17.603   3.817   0.321
42153W        W 7413   5.543  25.766  10.421
42154W        W 7414   0.338  40.704  14.590
42155W        W 7415   8.113   2.641   2.841
42156W        W 7416  16.124  37.116  12.888
42157W        W 7417  17.985  17.261   5.045
42158W        W 7418  40.058   9.829   3.134
42159W        W 7419  15.784   6.413   0.866
42160W        W 7420  36.341  39.063   3.902
42161W        W 7421  16.311  42.901  12.611
42162W        W 7422  33.392   3.451  14.916
42163W        W 7423  39.107  18.042  13.364
42164W        W 7424  25.688  37.880  13.419
42165W        W 7425  20.380  32.828   1.316
42166W        W 7426   6.207  12.747   3.869
42167W        W 7427  37.416  23.311  14.106
42168W        W 7428   4.288  12.708   1.144
42169W        W 7429   7.537   3.483   0.508
42170W        W 7430   2.706  29.865   4.883
42171W        W 7431  44.752   5.729   2.263
42172W        W 7432  44.537  30.933   3.583
42173W        W 7433  31.208  10.719   2.354
42174W        W 7434  33.497  29.152   3.358
42175W        W 7435  43.309  13.221   1.709
42176W        W 7436   1.816  42.945  11.509
42177W        W 7437  17.252  23.199  12.065
42178W        W 7438  17.275  13.538  12.004
42179W        W 7439  22.554  16.972   3.820
42180W        W 7440  35.416  31.162  14.930
42181W        W 7441   4.488  37.974   1.431
42182W        W 7442  12.317  33.459  12.822
42183W        W 7443   1.289  14.741  14.998
42184W        W 7444   4.759  37.005   3.866
42185W        W 7445  44.937  38.345   2.169
42186W        W 7446  19.138   8.865  10.704
42187W        W 7447  24.686  11.833  13.551
42188W        W 7448  39.004   5.400  14.944
42189W        W 7449  13.220  20.151   2.260
42190W        W 7450  38.349  42.336   3.132
42191W        W 7451  44.043   7.932  12.387
42192W        W 7452  15.253   7.690  14.453
42193W        W 7453  42.207  29.387   0.315
42194W        W 7454   7.694  25.645   4.949
42195W        W 7455  31.958  13.854  14.441
42196W        W 7456  31.130  40.787   3.706
42197W        W 7457  27.434  39.432   2.321
42198W        W 7458   7.873  29.040   4.359
42199W        W 7459   7.444  41.883   3.456
42200W        W 7460   5.000  17.237   0.406
42201W        W 7461  30.976   2.516  12.856
42202W        W 7462   3.634  36.527   5.188
42203W        W 7463  44.882  38.552  11.630
42204W        W 7464  34.069  26.491  12.095
42205W        W 7465  38.348  18.640  11.168
42206W        W 7466  25.627  44.369  12.951
42207W        W 7467  30.632  34.321   4.178
42208W        W 7468  14.829  41.612   3.252
42209W        W 7469  17.570   1.838   1.317
42210W        W 7470   7.591   9.722  11.948
42211W        W 7471  29.892  18.083  12.852
42212W        W 7472   5.346  17.308  12.111
42213W        W 7473  23.726  36.220  12.955
42214W        W 7474  10.095  24.183   0.793
42215W        W 7475   3.013   5.869  13.482
42216W        W 7476  27.692   0.139   4.131
42217W        W 7477   6.574  16.402   2.922
42218W        W 7478  34.059   2.517   0.752
42219W        W 7479  23.047  29.948   1.944
42220W        W 7480  13.884   3.382   0.539
42221W        W 7481  31.629  31.225   0.869
42222W        W 7482  29.403  28.615  14.794
42223W        W 7483  13.535  10.829   4.490
42224W        W 7484  30.268  26.521  14.608
42225W        W 7485  10.383  27.164   0.330
42226W        W 7486  33.634  36.546   4.048
42227W        W 7487  27.884   8.956   2.382
42228W        W 7488  42.784  11.098   4.853
42229W        W 7489   9.697  39.516  14.619
42230W        W 7490  12.567  30.554   0.755
42231W        W 7491   7.758  22.151   3.739
42232W        W 7492   7.915  34.711   1.062
42233W        W 7493   5.344   7.420  13.344
42234W        W 7494  35.029  14.663   1.851
42235W        W 7495  38.820  24.032   4.676
42236W        W 7496  37.171  20.844  13.717
42237W        W 7497  15.750   1.642  11.123
42238W        W 7498  22.202   3.218  13.076
42239W        W 7499  34.596  28.499   2.606
42240W        W 7500  39.398  28.467   3.407
42241W        W 7501  19.304  19.960   0.503
42242W        W 7502  41.471   5.592  14.296
42243W        W 7503  34.257  26.610   4.972
42244W        W 7504  21.072  33.726  10.665
42245W        W 7505   6.504  18.682  14.918
42246W        W 7506  16.460  21.107  12.145
42247W        W 7507   8.125  15.911   4.137
42248W        W 7508  12.546  43.884   3.909
42249W        W 7509  43.273  11.286   1.431
42250W        W 7510  39.816  40.453   2.131
42251W        W 7511  36.338  32.722   1.767
42252W        W 7512  16.301  20.927  10.889
42253W        W 7513  15.701  44.371   4.970
42254W        W 7514  15.755  33.395   4.619
42255W        W 7515  37.732  15.593   1.229
42256W        W 7516  31.073   2.994   1.326
42257W        W 7517  36.051  24.472   3.297
42258W        W 7518  31.584  27.973   3.676
42259W        W 7519  23.788  29.925   4.503
42260W        W 7520   2.785  14.303  12.684
42261W        W 7521  15.115  17.484   1.911
42262W        W 7522   1.480  44.515  11.137
42263W        W 7523   8.801  14.610  14.242
42264W        W 7524   5.936  36.208   0.565
42265W        W 7525  41.932  30.057   3.174
42266W        W 7526  32.327  28.625  12.580
42267W        W 7527  17.308   4.791   3.505
42268W        W 7528  19.619  43.789   4.598
42269W        W 7529  16.116  25.072  12.055
42270W        W 7530  22.699  41.848   4.468
42271W        W 7531  34.305  21.686  13.197
42272W        W 7532  37.253  21.100   2.347
42273W        W 7533  38.245  15.508  10.094
42274W        W 7534  17.128  37.837  11.127
42275W        W 7535  32.580  40.582   1.844
42276W        W 7536  32.064   0.752  11.536
42277W        W 7537  36.792  30.472   5.034
42278W        W 7538  31.557  15.397   2.264
42279W        W 7539  13.008  37.011   2.015
42280W        W 7540  18.960  42.688   4.226
42281W        W 7541  24.265  44.363   0.859
42282W        W 7542  12.749   6.703  12.080
42283W        W 7543  31.141  34.417   0.362
42284W        W 7544  14.100  43.998   4.653
42285W        W 7545  32.862  31.165  13.674
42286W        W 7546  44.324  13.156   2.514
42287W        W 7547  27.570  34.558  11.387
42288W        W 7548   4.471  39.851   2.693
42289W        W 7549  24.152  13.942   2.261
42290W        W 7550  35.386  26.142   1.628
42291W        W 7551  13.689  26.213  12.189
42292W        W 7552  32.570  14.209  13.924
42293W        W 7553   5.108  37.603  13.397
42294W        W 7554  14.733   7.455  11.167
42295W        W 7555   8.178  18.191  11.574
42296W        W 7556  20.754  43.087   4.056
42297W        W 7557   1.021  14.856   1.289
42298W        W 7558  26.501  23.293  12.076
42299W        W 7559  31.658   8.647  12.882
42300W        W 7560  43.464  18.614  13.351
42301W        W 7561  44.181  20.318  12.446
42302W        W 7562   2.487  36.035   2.085
42303W        W 7563  27.782   5.871  11.816
42304W        W 7564   9.389  40.708  12.599
42305W        W 7565  20.286  44.896  11.138
42306W        W 7566  23.078  20.015  11.923
42307W        W 7567  31.505  26.657   3.128
42308W        W 7568  23.309  21.566  12.957
42309W        W 7569  18.720  24.612  14.584
42310W        W 7570  16.184  35.864   1.547
42311W        W 7571  43.411   3.478  11.111
42312W        W 7572  20.999  23.420   2.015
42313W        W 7573   2.609  40.288   4.049
42314W        W 7574  16.161  10.654  12.478
42315W        W 7575  34.481   4.835   9.896
42316W        W 7576  24.942   1.837   4.145
42317W        W 7577  41.497   1.295  12.940
42318W        W 7578  43.124  12.817  12.611
42319W        W 7579  35.077  39.765   3.212
42320W        W 7580  35.384  12.586  12.039
42321W        W 7581  38.047  21.694  12.508
42322W        W 7582  33.447  21.596   0.432
42323W        W 7583   7.596  12.608   0.865
42324W        W 7584  30.726  13.612   0.272
42325W        W 7585   5.104  31.080  10.312
42326W        W 7586   9.567  41.458  12.320
42327W        W 7587  23.249  43.273  10.756
42328W        W 7588   6.847  40.098   3.073
42329W        W 7589  34.629  30.760  10.822
42330W        W 7590  38.092   2.879   1.606
42331W        W 7591   5.676  42.781  13.590
42332W        W 7592  27.424  31.081   4.477
42333W        W 7593  39.462  27.238  12.984
42334W        W 7594   6.575   3.258  11.107
42335W        W 7595   8.558  35.607   2.845
42336W        W 7596  22.610  19.466  13.053
42337W        W 7597  40.279  17.803   2.366
42338W        W 7598  38.529  26.568   4.415
42339W        W 7599   4.611  31.034   3.121
42340W        W 7600  40.876  29.122   0.928
42341W        W 7601  16.116  36.685  11.060
42342W        W 7602   9.299  26.193   0.568
42343W        W 7603  25.078  22.987  11.490
42344W        W 7604  38.382   5.248   1.628
42345W        W 7605  34.922  37.022   1.307
42346W        W 7606  22.068  42.888   0.724
42347W        W 7607  34.061  42.791  10.811
42348W        W 7608   7.191  29.223  13.429
42349W        W 7609  24.128  11.162   4.171
42350W        W 7610  14.715   0.010   0.932
42351W        W 7611  27.810   4.763  13.040
42352W        W 7612  10.094  43.841   1.541
42353W        W 7613  17.818   0.991  10.639
42354W        W 7614  19.521  19.778   1.778
42355W        W 7615   5.160  41.469   3.249
42356W        W 7616  30.450  34.441   0.994
42357W        W 7617  39.072  38.602  12.526
42358W        W 7618   5.714  19.158   2.311
42359W        W 7619  12.184  10.855   2.418
42360W        W 7620  26.331  16.506  12.923
42361W        W 7621  34.119  32.076  10.095
42362W        W 7622   2.216  18.605  11.650
42363W        W 7623  12.266   7.609  13.527
42364W        W 7624  21.987  14.156   2.839
42365W        W 7625   9.266  43.019   4.653
42366W        W 7626  18.029  16.767   1.032
42367W        W 7627  12.334  12.575   1.837
42368W        W 7628  17.540  32.048   1.884
42369W        W 7629   5.400   1.712   5.336
42370W        W 7630  12.148  17.029  14.927
42371W        W 7631   1.541  37.540  13.552
42372W        W 7632  31.983  26.178  13.375
42373W        W 7633  14.872   6.018  13.814
42374W        W 7634   3.431   9.790  13.494
42375W        W 7635  13.703   2.582  11.209
42376W        W 7636  17.464  37.383   3.416
42377W        W 7637  38.925  10.872   4.526
42378W        W 7638  33.518   8.456  14.214
42379W        W 7639  14.254  10.796  10.733
42380W        W 7640  18.539  43.092  11.716
42381W        W 7641  14.653  41.419   4.751
42382W        W 7642  25.079   3.809  10.836
42383W        W 7643  27.510  11.869   0.715
42384W        W 7644  38.083  42.827   4.754
42385W        W 7645  19.677  16.410   2.777
42386W        W 7646  40.003  43.645   4.677
42387W        W 7647  36.397  31.630  14.452
42388W        W 7648   6.227  44.407   0.680
42389W        W 7649  36.814  37.121   3.234
42390W        W 7650  41.611  25.148   0.905
42391W        W 7651  23.133  44.605  11.634
42392W        W 7652   1.044  21.581  12.548
42393W        W 7653   4.221  10.865   4.035
42394W        W 7654   5.276   0.779  12.390
42395W        W 7655  37.110  21.958  11.607
42396W        W 7656  14.089  21.105  10.770
42397W        W 7657  12.140  21.494  13.311
42398W        W 7658  12.314  13.789   2.879
42399W        W 7659  11.143  22.449   4.316
42400W        W 7660   0.236  42.889  14.608
42401W        W 7661  10.464  24.081  14.364
42402W        W 7662  43.000   5.131  10.067
42403W        W 7663   3.056  30.999  10.995
42404W        W 7664   2.811  42.410   1.594
42405W        W 7665  22.635  12.631  13.928
42406W        W 7666   4.192  26.213   1.258
42407W        W 7667  32.097  15.599  13.969
42408W        W 7668  20.152  33.935   2.182
42409W        W 7669   7.348  25.228  11.281
42410W        W 7670  27.164   5.395   2.004
42411W        W 7671   0.175  17.489   2.676
42412W        W 7672  26.247  40.358   0.310
42413W        W 7673   1.841  21.749  12.997
42414W        W 7674  23.579  44.878  10.326
42415W        W 7675  28.869  17.620   3.255
42416W        W 7676  36.340  24.563   2.844
42417W        W 7677  14.601  30.902  12.509
42418W        W 7678  16.204  11.325   2.943
42419W        W 7679  20.019   6.278  10.840
42420W        W 7680  10.545  29.110  13.943
42421W        W 7681  10.356   1.025  14.471
42422W        W 7682  15.967  43.232  13.521
42423W        W 7683  18.610  44.013   4.028
42424W        W 7684   8.692   7.880   4.230
42425W        W 7685  19.691   8.916   2.908
42426W        W 7686  21.126  44.753  12.283
42427W        W 7687  26.210  28.382   2.669
42428W        W 7688  22.586  12.603  11.993
42429W        W 7689  32.677   5.968   2.184
42430W        W 7690  13.164  40.033   1.059
42431W        W 7691  39.629  36.523  14.558
42432W        W 7692   4.807  22.237  12.887
42433W        W 7693  10.677  27.978  13.903
42434W        W 7694   8.882  20.132  11.569
42435W        W 7695  36.420   9.526   1.825
42436W        W 7696  39.990  11.047   0.939
42437W        W 7697  29.918  37.840  13.468
42438W        W 7698   0.268   3.939  11.899
42439W        W 7699   0.707   6.588   1.858
42440W        W 7700  36.934   3.220   2.245
42441W        W 7701  28.078  11.152   0.331
42442W        W 7702  21.644   9.653   4.111
42443W        W 7703   5.229  13.890   4.947
42444W        W 7704  11.229  44.467   4.612
42445W        W 7705  44.604  34.986  13.519
42446W        W 7706  27.059  32.290  13.997
42447W        W 7707  28.524  25.993   4.530
42448W        W 7708  43.019   5.322  11.886
42449W        W 7709  15.617  15.619   4.066
42450W        W 7710  15.789  31.337   1.192
42451W        W 7711  33.613  20.710   2.258
42452W        W 7712  35.086  36.876  11.195
42453W        W 7713  10.229  40.973  11.127
42454W        W 7714  30.255  18.476   3.823
42455W        W 7715  12.849  34.863   3.345
42456W        W 7716  13.673  30.971   3.227
42457W        W 7717  37.102  30.477   2.097
42458W        W 7718   2.358  30.908  14.012
42459W        W 7719  37.559  21.054   1.920
42460W        W 7720  42.455  25.253   1.883
42461W        W 7721  38.971  41.605   1.923
42462W        W 7722  12.795  34.602   4.353
42463W        W 7723  38.854  15.035   3.581
42464W        W 7724   7.197  35.495   4.130
42465W        W 7725  41.028  30.209   0.300
42466W        W 7726  32.782  30.077   3.111
42467W        W 7727  25.659  17.575   0.266
42468W        W 7728  21.567  26.461   3.237
42469W        W 7729  12.410   6.198   0.888
42470W        W 7730  40.006  34.424  14.973
42471W        W 7731  20.799  33.793   0.811
42472W        W 7732  29.071  29.083  10.700
42473W        W 7733   6.200  44.510   4.213
42474W        W 7734   2.916  13.336   1.303
42475W        W 7735  24.784  15.359   2.771
42476W        W 7736   7.023   8.370  10.788
42477W        W 7737  12.243   6.723   3.396
42478W        W 7738   5.186  17.877   4.428
42479W        W 7739  25.770  28.597  13.512
42480W        W 7740  19.655  39.619  10.738
42481W        W 7741  35.747  27.121  13.014
42482W        W 7742  10.198   7.164   3.066
42483W        W 7743  13.788   0.958  14.915
42484W        W 7744  44.457  20.664   1.174
42485W        W 7745  34.772  26.696  14.887
42486W        W 7746  31.221  41.159   4.062
42487W        W 7747  10.302  34.841  12.568
42488W        W 7748  24.679   1.692   3.719
42489W        W 7749  44.783  30.191  12.995
42490W        W 7750  43.799  24.496  13.926
42491W        W 7751  27.973  14.267  10.706
42492W        W 7752  26.929  22.943  14.793
42493W        W 7753  36.471  31.961  11.545
42494W        W 7754  16.237  35.349   1.477
42495W        W 7755  37.372  41.988   4.577
42496W        W 7756   3.045   2.145  14.058
42497W        W 7757  31.869  38.344   1.746
42498W        W 7758  34.438   7.252  11.574
42499W        W 7759  13.944   4.006  12.596
42500W        W 7760   0.183  33.251  14.769
42501W        W 7761   5.153  23.588  14.008
42502W        W 7762  40.158  20.572   0.056
42503W        W 7763   3.475  13.121  14.925
42504W        W 7764  30.588  40.994  12.406
42505W        W 7765  20.954  25.477  11.173
42506W        W 7766   4.834   1.999   2.293
42507W        W 7767   4.878  11.124  13.510
42508W        W 7768  43.353  13.674   1.423
42509W        W 7769  27.064   3.280   4.249
42510W        W 7770  43.543   8.306   3.290
42511W        W 7771   3.812  20.032   2.801
42512W        W 7772  37.429  16.276   3.719
42513W        W 7773   6.088   8.337  14.769
42514W        W 7774  31.862  39.383   4.228
42515W        W 7775  42.255  26.353  14.516
42516W        W 7776   5.119   2.623  11.035
42517W        W 7777  38.392  10.830  14.155
42518W        W 7778  34.395  30.134   2.285
42519W        W 7779  34.676  28.243  12.362
42520W        W 7780  23.911  17.097   0.732
42521W        W 7781   6.385   5.773  12.071
42522W        W 7782  38.129  30.980   0.851
42523W        W 7783   5.658  16.984   1.816
42524W        W 7784  12.933  27.771  14.932
42525W        W 7785  32.567  38.950  10.592
42526W        W 7786   7.585   4.507   2.653
42527W        W 7787   3.004  38.611   3.853
42528W        W 7788  27.306   1.360   4.283
42529W        W 7789  16.815   4.680   3.351
42530W        W 7790   3.750  25.843   5.217
42531W        W 7791  14.582  21.256  11.945
42532W        W 7792  42.251  21.215   0.779
42533W        W 7793  37.321  29.198   2.095
42534W        W 7794  19.956  19.223  14.399
42535W        W 7795  40.790  41.439  13.526
42536W        W 7796  32.552  35.363  14.507
42537W        W 7797  11.276  38.067  14.055
42538W        W 7798  38.594  33.025  11.969
42539W        W 7799  25.902  22.804   5.028
42540W        W 7800  14.874   2.832  14.283
42541W        W 7801   2.378  42.164  14.037
42542W        W 7802  40.804  37.342  11.002
42543W        W 7803  20.227  26.790   0.995
42544W        W 7804   1.829   3.339  13.956
42545W        W 7805  35.584  30.025  14.020
42546W        W 7806  28.731  18.757  10.620
42547W        W 7807  29.820   2.467  12.074
42548W        W 7808   4.171  19.066  13.920
42549W        W 7809  39.372  28.403   2.351
42550W        W 7810  43.889  43.698  13.809
42551W        W 7811  44.244  34.148   3.665
42552W        W 7812   5.791   0.577   1.249
42553W        W 7813   3.214   2.376  11.948
42554W        W 7814  15.876  13.766   2.312
42555W        W 7815  39.448   5.776   3.361
42556W        W 7816   5.701  37.896   0.362
42557W        W 7817  41.556  41.513   4.379
42558W        W 7818  34.616   5.522  11.034
42559W        W 7819  23.137  28.173  11.159
42560W        W 7820  38.006  38.092   0.206
42561W        W 7821  41.882  27.605   1.251
42562W        W 7822  43.035  44.031   3.637
42563W        W 7823  40.868  28.036   0.971
42564W        W 7824  17.066   7.263   4.222
42565W        W 7825  24.245  33.891   1.713
42566W        W 7826  31.828   5.791   4.721
42567W        W 7827  31.087  35.154   3.037
42568W        W 7828  28.349  22.264  11.616
42569W        W 7829  20.675  10.717  11.577
42570W        W 7830  27.431   3.794  10.893
42571W        W 7831  39.957   1.744   4.647
42572W        W 7832  12.259  15.718   3.795
42573W        W 7833  27.328  14.755   1.476
42574W        W 7834  20.237  21.515  10.580
42575W        W 7835  33.785  30.630  11.134
42576W        W 7836  31.693  10.853   3.105
42577W        W 7837   9.602   6.104   1.349
42578W        W 7838  39.825  44.952  12.035
42579W        W 7839  16.123  42.634   2.341
42580W        W 7840  37.803  27.809  13.274
42581W        W 7841   4.358   2.466   4.816
42582W        W 7842   9.165   3.290  12.649
42583W        W 7843  21.541  44.425  14.525
42584W        W 7844  23.058   9.426  12.116
42585W        W 7845   7.424  38.837   3.675
42586W        W 7846  26.761  30.811   0.251
42587W        W 7847   6.221  14.864   3.316
42588W        W 7848  15.450  34.003  12.139
42589W        W 7849  31.474  25.919   1.763
42590W        W 7850   6.193  23.861   3.230
42591W        W 7851  44.940  12.267  13.550
42592W        W 7852  31.520   3.846  12.836
42593W        W 7853  34.745   5.071   0.945
42594W        W 7854  19.970  28.672  11.106
42595W        W 7855  21.780  22.515  10.574
42596W        W 7856   5.614   0.436   2.231
42597W        W 7857  22.414  38.535   2.369
42598W        W 7858  13.246  43.151   2.046
42599W        W 7859  43.106   5.229   1.812
42600W        W 7860  18.222  22.991   2.403
42601W        W 7861   3.504  18.770  12.120
42602W        W 7862  30.799  10.610  12.998
42603W        W 7863  14.179  29.635  11.946
42604W        W 7864   8.899  40.810  12.405
42605W        W 7865   4.690  41.842   2.776
42606W        W 7866  24.649  16.643  13.384
42607W        W 7867  38.364  11.597  11.708
42608W        W 7868  17.643  33.994  11.543
42609W        W 7869  44.394   9.844   2.790
42610W        W 7870  25.040  10.595  10.604
42611W        W 7871   2.798   6.920  14.834
42612W        W 7872  13.206  34.580  11.112
42613W        W 7873  27.022   0.826  11.993
42614W        W 7874  25.928   5.759   1.739
42615W        W 7875  21.464  21.052  14.617
42616W        W 7876   5.446  18.258   4.677
42617W        W 7877  20.123  11.893  13.583
42618W        W 7878  37.905  17.274  10.690
42619W        W 7879  27.524  36.374   0.656
42620W        W 7880  32.932   4.212   1.429
42621W        W 7881  41.758  19.567   3.553
42622W        W 7882   4.721   2.020   0.768
42623W        W 7883   8.125   2.256   0.162
42624W        W 7884  31.937   4.401   3.585
42625W        W 7885  16.830   7.586  11.127
42626W        W 7886  22.211  41.840   3.296
42627W        W 7887  43.988  40.287  11.247
42628W        W 7888  42.228   8.321  14.886
42629W        W 7889  31.867   0.205  14.593
42630W        W 7890  10.960  25.969  12.128
42631W        W 7891  30.904   7.371   1.429
42632W        W 7892  35.962   5.654  10.527
42633W        W 7893  28.913  20.133   2.724
42634W        W 7894   5.684  21.133   2.179
42635W        W 7895  40.429   1.878   0.847
42636W        W 7896  42.836  29.432   4.070
42637W        W 7897  23.666   9.185   0.860
42638W        W 7898  34.873  36.876  14.320
42639W        W 7899  42.321  38.083   2.737
42640W        W 7900   7.257  14.046  13.835
42641W        W 7901  36.264  12.073  11.076
42642W        W 7902   7.260  43.142  14.456
42643W        W 7903  24.648  15.005   4.250
42644W        W 7904   6.354  10.081  13.297
42645W        W 7905  27.996  36.907   4.616
42646W        W 7906  11.851   8.470   5.042
42647W        W 7907   4.801   0.556  12.386
42648W        W 7908  41.706  27.154   1.471
42649W        W 7909  33.077  35.468   0.296
42650W        W 7910  34.073  30.860   2.820
42651W        W 7911  10.253   3.213   4.583
42652W        W 7912  31.712  40.774  13.271
42653W        W 7913   8.239   5.271   2.861
42654W        W 7914  34.560  10.671  11.415
42655W        W 7915  12.261   5.687   4.477
42656W        W 7916  42.519   5.603  10.666
42657W        W 7917   3.190  22.088  13.039
42658W        W 7918  21.906  25.631  14.929
42659W        W 7919  10.690  32.558  14.257
42660W        W 7920  28.936  22.218  11.679
42661W        W 7921  43.778  36.671  14.452
42662W        W 7922  33.986   6.145   3.886
42663W        W 7923  38.941  15.467   0.178
42664W        W 7924  26.304  31.422   4.027
42665W        W 7925  28.013   6.687  10.997
42666W        W 7926  20.118  15.813   0.001
42667W        W 7927  28.324  34.502  14.330
42668W        W 7928  38.391   2.372   4.920
42669W        W 7929  18.360  34.901   4.554
42670W        W 7930  32.343   9.302   2.360
42671W        W 7931  35.812  13.790  12.083
42672W        W 7932  22.230   6.695   1.446
42673W        W 7933  22.256  14.554  10.896
42674W        W 7934  31.404  25.654   2.210
42675W        W 7935  35.499  13.782   4.008
42676W        W 7936  26.026  24.043   4.168
42677W        W 7937  44.197   7.222  13.585
42678W        W 7938  44.866   5.342   4.831
42679W        W 7939  20.233  43.693  12.445
42680W        W 7940  38.571  19.031  14.054
42681W        W 7941  20.763  36.447   9.792
42682W        W 7942   0.259  19.153  11.199
42683W        W 7943   3.166  32.352   2.751
42684W        W 7944  34.653   1.112  13.956
42685W        W 7945  34.095   4.733   4.164
42686W        W 7946  17.127  16.077   4.564
42687W        W 7947  34.315  44.669   3.699
42688W        W 7948   5.611  28.129   2.712
42689W        W 7949  22.494  36.587  13.464
42690W        W 7950  34.308   7.958   1.841
42691W        W 7951   2.724  11.832   3.928
42692W        W 7952  38.024  14.730   3.836
42693W        W 7953  14.372   8.240  13.948
42694W        W 7954  27.234  21.233  12.609
42695W        W 7955  32.616  38.357  11.669
42696W        W 7956  31.506  42.586   2.851
42697W        W 7957  22.119  14.262  12.427
42698W        W 7958  14.904   5.486   4.538
42699W        W 7959  43.462   4.098   4.041
42700W        W 7960  40.581  29.609   3.684
42701W        W 7961  32.472   6.010   2.815
42702W        W 7962   0.912   6.293  10.644
42703W        W 7963  17.188  16.333   1.405
42704W        W 7964  20.754   7.501  11.925
42705W        W 7965  39.979  36.602   1.303
42706W        W 7966  41.047   4.279  12.579
42707W        W 7967  39.292  10.371   4.278
42708W        W 7968  37.084  36.253   3.805
42709W        W 7969  31.085  41.807  13.892
42710W        W 7970  21.493  32.448   0.806
42711W        W 7971  26.267   2.362   0.794
42712W        W 7972  43.030   5.174  14.348
42713W        W 7973  41.068  16.039  11.942
42714W        W 7974  35.468  33.513   0.989
42715W        W 7975  25.539  44.404   2.122
42716W        W 7976  38.455  20.130  11.707
42717W        W 7977  14.200  29.200   2.866
42718W        W 7978  26.532  33.251   2.305
42719W        W 7979  13.591  20.305  14.637
42720W        W 7980  26.668   8.429   4.223
42721W        W 7981  12.857   6.593  13.457
42722W        W 7982  19.566   0.292   4.708
42723W        W 7983  16.102  15.530   0.906
42724W        W 7984  38.404  32.657   0.962
42725W        W 7985   4.842   7.875  10.675
42726W        W 7986   0.177  11.723  12.571
42727W        W 7987  35.428  35.537  11.898
42728W        W 7988  40.564   4.860  12.084
42729W        W 7989  11.700  20.337   3.898
42730W        W 7990  41.500  26.884   2.210
42731W        W 7991   9.328   5.706   2.738
42732W        W 7992  17.386  22.552   5.097
42733W        W 7993  13.802  13.565  10.728
42734W        W 7994  42.311  15.078   2.205
42735W        W 7995  13.633  18.117   0.471
42736W        W 7996   9.214  20.906  11.236
42737W        W 7997  16.318  44.508  10.702
42738W        W 7998  31.362   2.726   2.204
42739W        W 7999  18.303   0.259   0.296
42740W        W 8000  15.527  26.499   3.008
42741W        W 8001   4.283  14.289  13.319
42742W        W 8002  41.031  18.663   3.134
42743W        W 8003   0.271  38.917  13.736
42744W        W 8004  19.114  14.599   1.937
42745W        W 8005   7.193  20.136   0.378
42746W        W 8006   5.990  13.214   1.615
42747W        W 8007   7.671  24.225   4.523
42748W        W 8008  15.773   8.793   2.730
42749W        W 8009  13.687  25.264  14.468
42750W        W 8010  24.280  12.759  12.819
42751W        W 8011  43.225  25.521   2.248
42752W        W 8012  31.652  42.574  14.417
42753W        W 8013  24.064  44.124  10.303
42754W        W 8014   3.384  13.561   1.180
42755W        W 8015  11.183   7.832   1.902
42756W        W 8016  33.432  26.017   0.912
42757W        W 8017  11.381   9.840  13.878
42758W        W 8018  39.247  43.697   1.329
42759W        W 8019  10.217  40.201  12.676
42760W        W 8020   1.278  33.392   0.445
42761W        W 8021   8.485  16.491  14.336
42762W        W 8022  15.094  29.164   1.346
42763W        W 8023  44.317  27.641  14.292
42764W        W 8024   6.433  14.792  11.463
42765W        W 8025   8.696  39.457  14.800
42766W        W 8026  30.965  37.546  12.556
42767W        W 8027   9.427  19.327   2.743
42768W        W 8028  15.053  30.608   4.829
42769W        W 8029   1.247   0.978  11.914
42770W        W 8030  38.231   8.878  12.739
42771W        W 8031  39.652  36.397   0.951
42772W        W 8032  24.129  21.522   2.790
42773W        W 8033  21.488  21.532  11.648
42774W        W 8034  24.394  22.785  10.216
42775W        W 8035  37.577  28.624  11.767
42776W        W 8036  39.842  34.069  14.636
42777W        W 8037  26.063  32.142   4.273
42778W        W 8038  37.137  32.932  13.304
42779W        W 8039  27.864   4.754  10.102
42780W        W 8040   4.969   0.672   2.837
42781W        W 8041  11.329  44.684  11.562
42782W        W 8042  26.591  26.092   4.905
42783W        W 8043  10.123  38.473   2.806
42784W        W 8044  34.556   3.846  12.528
42785W        W 8045   3.094   7.772  12.375
42786W        W 8046   8.354  10.730  13.550
42787W        W 8047  40.784  11.101   4.087
42788W        W 8048  30.610  44.045   1.235
42789W        W 8049  38.795   7.353   2.097
42790W        W 8050   9.326  11.627  11.187
42791W        W 8051   2.166  11.366   5.086
42792W        W 8052  39.351   4.889  12.888
42793W        W 8053  19.522  24.099  10.680
42794W        W 8054   0.370  16.163   0.344
42795W        W 8055  20.848  16.590  12.024
42796W        W 8056  27.109  28.176   2.851
42797W        W 8057  12.215  19.486   4.810
42798W        W 8058  35.137  16.567   3.558
42799W        W 8059  35.858   4.661  11.964
42800W        W 8060  33.123  18.684   4.701
42801W        W 8061  41.578  20.157   3.283
42802W        W 8062  32.559  20.713  14.449
42803W        W 8063  13.165   9.459   0.383
42804W        W 8064   5.245  39.828  11.634
42805W        W 8065  38.427   7.855  13.874
42806W        W 8066  44.799  27.426  11.173
42807W        W 8067   1.894  41.001  14.127
42808W        W 8068   8.772  25.559  13.990
42809W        W 8069  28.914  10.412  11.761
42810W        W 8070  33.608  41.186  13.453
42811W        W 8071  13.554   4.982   3.086
42812W        W 8072  13.074  14.198   1.752
42813W        W 8073  16.536   2.367  14.941
42814W        W 8074  42.984  22.996   4.184
42815W        W 8075  23.142   4.259   1.854
42816W        W 8076  42.050  43.061  10.731
42817W        W 8077  36.463  31.929   1.415
42818W        W 8078  13.344  26.582  11.062
42819W        W 8079   6.119  18.585  12.118
42820W        W 8080   8.829  10.412  11.133
42821W        W 8081  24.787  21.615  13.924
42822W        W 8082   3.022  42.649  10.869
42823W        W 8083  27.550   0.971   4.069
42824W        W 8084  27.926  33.127  11.088
42825W        W 8085  18.690  33.505   1.435
42826W        W 8086  38.548   3.358  11.827
42827W        W 8087   0.356   5.788  11.712
42828W        W 8088  41.771  22.408   1.410
42829W        W 8089  22.665   8.397  11.590
42830W        W 8090  14.333  19.762  12.411
42831W        W 8091  31.312  29.102  13.533
42832W        W 8092  37.580  38.118   1.116
42833W        W 8093   1.163   2.001  14.052
42834W        W 8094  22.737  33.891  10.706
42835W        W 8095  23.099  31.939  10.113
42836W        W 8096  20.419  42.248   3.673
42837W        W 8097  26.842  15.885   1.430
42838W        W 8098  24.539  15.379   1.318
42839W        W 8099  15.111  19.195  12.839
42840W        W 8100  43.733  12.632  13.961
42841W        W 8101  26.089  38.943   2.403
42842W        W 8102  39.038  25.008   4.190
42843W        W 8103   0.197  34.479   0.131
42844W        W 8104  42.352  42.820   3.173
42845W        W 8105  34.106  11.813   1.067
42846W        W 8106  31.463  36.906  11.589
42847W        W 8107   4.215  27.635   1.771
42848W        W 8108  42.469  22.821   2.654
42849W        W 8109  43.975  40.144  14.255
42850W        W 8110  44.801   4.062  14.860
42851W        W 8111   2.573  29.983  14.117
42852W        W 8112  29.914  30.023  14.377
42853W        W 8113  42.056   0.848  11.190
42854W        W 8114  11.667  16.192  11.476
42855W        W 8115  41.848  10.402  14.379
42856W        W 8116  35.665   7.208  14.083
42857W        W 8117  30.530  19.016  14.890
42858W        W 8118  35.444  30.503   5.033
42859W        W 8119  39.809  12.281   2.353
42860W        W 8120  11.251  32.056  12.919
42861W        W 8121  20.722  33.094  11.661
42862W        W 8122  17.757  14.602   3.254
42863W        W 8123  42.381   2.297   0.266
42864W        W 8124  40.378  20.649   4.218
42865W        W 8125   0.588  36.327   1.239
42866W        W 8126   7.969  38.927  14.881
42867W        W 8127  44.987  42.167   1.283
42868W        W 8128  10.926  38.512  13.743
42869W        W 8129  35.828  15.147  11.594
42870W        W 8130  10.842  26.632  12.935
42871W        W 8131  33.317  19.319   3.664
42872W        W 8132  32.540  26.972  11.710
42873W        W 8133   4.583  12.415  11.097
42874W        W 8134  23.158  22.128   3.065
42875W        W 8135  10.884  22.487   0.241
42876W        W 8136  41.351  40.777  14.084
42877W        W 8137  11.846  26.149  12.184
42878W        W 8138  37.920  30.483   0.903
42879W        W 8139  25.145  40.581   3.314
42880W        W 8140   7.249   6.611   3.259
42881W        W 8141   3.485  19.554   3.384
42882W        W 8142   3.292  35.433   1.314
42883W        W 8143   1.853   5.552  12.085
42884W        W 8144   4.793  24.097   2.552
42885W        W 8145  27.174   4.567  11.043
42886W        W 8146  15.620  22.190   3.694
42887W        W 8147  32.296   4.295   4.123
42888W        W 8148   1.714  25.493   3.209
42889W        W 8149  25.938  44.461  12.289
42890W        W 8150  30.735  41.130   4.208
42891W        W 8151   8.507  31.061  12.886
42892W        W 8152  40.020  26.511   1.795
42893W        W 8153  16.164  42.475  14.534
42894W        W 8154  21.597  17.038  14.286
42895W        W 8155  35.908  27.997  11.589
42896W        W 8156  43.855  30.501  14.101
42897W        W 8157  22.606  33.282  11.942
42898W        W 8158  13.890  36.766  10.609
42899W        W 8159  28.587   4.951  12.466
42900W        W 8160   9.908  11.348  13.743
42901W        W 8161  20.600  15.056   4.928
42902W        W 8162  31.645  19.349   2.858
42903W        W 8163   2.850  19.077  10.678
42904W        W 8164   2.129  28.126   1.768
42905W        W 8165  33.429  42.387   3.981
42906W        W 8166  34.669  20.216   3.521
42907W        W 8167  35.577  25.672   1.446
42908W        W 8168  30.153  17.648  13.693
42909W        W 8169   0.252  26.439   1.881
42910W        W 8170   6.943   8.753  13.560
42911W        W 8171   3.858  40.567   3.705
42912W        W 8172  40.129  35.166   4.245
42913W        W 8173  38.096  10.916   2.843
42914W        W 8174  16.381  33.071  11.968
42915W        W 8175  20.871  24.028   0.349
42916W        W 8176  10.359  35.072   0.898
42917W        W 8177  37.033  42.098   1.459
42918W        W 8178  16.924  10.258   1.950
42919W        W 8179  21.958  23.392  10.681
42920W        W 8180   0.688  42.329   0.390
42921W        W 8181  23.212   4.917  11.077
42922W        W 8182   0.866  31.660  11.982
42923W        W 8183  42.940  11.294  12.935
42924W        W 8184  21.990  26.757  14.178
42925W        W 8185  34.854  23.134   2.842
42926W        W 8186  19.632  13.561   4.816
42927W        W 8187  12.185  29.550  12.306
42928W        W 8188  42.731  40.484  14.765
42929W        W 8189   5.752  27.097  13.475
42930W        W 8190   6.733  39.828   4.896
42931W        W 8191  23.605  20.206  11.181
42932W        W 8192  43.634  33.510  10.726
42933W        W 8193  38.020  29.207   4.577
42934W        W 8194  38.860   5.413   2.741
42935W        W 8195  16.865  20.900  12.616
42936W        W 8196   1.724  15.521  12.643
42937W        W 8197  13.645  17.720   1.627
42938W        W 8198  43.957  29.607  11.148
42939W        W 8199  11.411  34.495  12.881
42940W        W 8200  37.414   3.381  11.016
42941W        W 8201  12.153   9.216  12.429
42942W        W 8202  41.401  43.103   1.238
42943W        W 8203   6.720   6.190  10.668
42944W        W 8204  16.558  41.963   1.959
42945W        W 8205   7.834  33.159   0.927
42946W        W 8206   9.296  39.608  12.876
42947W        W 8207  10.233  13.238  14.853
42948W        W 8208   6.102  33.411   1.125
42949W        W 8209  24.496  16.089   2.384
42950W        W 8210  38.485  16.359  14.308
42951W        W 8211  14.827  43.952  11.903
42952W        W 8212  13.912   9.655   2.789
42953W        W 8213  36.972   7.765   2.774
42954W        W 8214  43.271   0.624  14.949
42955W        W 8215  39.168  34.447   3.243
42956W        W 8216  14.973  25.581   1.623
42957W        W 8217  27.419  43.544   2.552
42958W        W 8218  24.122  40.254  13.561
42959W        W 8219  25.656  26.271  12.643
42960W        W 8220  36.458  36.083   1.319
42961W        W 8221  35.326   8.165  13.175
42962W        W 8222   8.991  33.501   4.823
42963W        W 8223   6.729  30.673   5.102
42964W        W 8224  43.416  33.307  11.630
42965W        W 8225  20.057  15.562   1.813
42966W        W 8226  37.067  38.961  14.793
42967W        W 8227  14.720   8.340  13.096
42968W        W 8228  44.504  23.003  14.927
42969W        W 8229  44.203   1.214  13.667
42970W        W 8230  19.041  30.621  10.969
42971W        W 8231  35.196  42.870  14.961
42972W        W 8232   9.259  12.681  12.411
42973W        W 8233  40.356  40.842   3.726
42974W        W 8234  15.300  22.682   4.160
42975W        W 8235  33.930  11.183  12.391
42976W        W 8236  30.146  31.645   4.008
42977W        W 8237  24.615  14.405  10.389
42978W        W 8238  11.383  16.554  13.698
42979W        W 8239  30.649  34.454  12.485
42980W        W 8240  13.844   7.200   2.870
42981W        W 8241   1.389  26.005   3.121
42982W        W 8242  32.615  37.222  11.247
42983W        W 8243  13.146  26.605   0.464
42984W        W 8244  11.437   2.729  11.090
42985W        W 8245  25.098  10.494  13.837
42986W        W 8246  28.210  30.800  14.946
42987W        W 8247  34.257   5.732   3.111
42988W        W 8248  27.349  34.974  10.311
42989W        W 8249   6.292  31.569   2.310
42990W        W 8250   4.126  25.935   1.694
42991W        W 8251   0.283  15.641   4.556
42992W        W 8252  23.518  25.160   4.057
42993W        W 8253   3.443  15.790   2.215
42994W        W 8254   1.389  10.243  12.256
42995W        W 8255   2.502  10.684   0.224
42996W        W 8256  25.017  24.577  10.575
42997W        W 8257  23.448  27.180   3.141
42998W        W 8258   8.888  19.985   3.108
42999W        W 8259  14.352  30.163  13.956
43000W        W 8260  11.291   6.305   3.478
43001W        W 8261  25.525  32.882   1.464
43002W        W 8262   4.495   2.559  10.783
43003W        W 8263  20.817  33.538  11.432
43004W        W 8264  43.868   8.411   3.941
43005W        W 8265   4.379  30.602  10.968
43006W        W 8266  31.405  27.576  12.888
43007W        W 8267  17.534  27.729  11.624
43008W        W 8268  16.991  30.705   4.426
43009W        W 8269  40.715  12.621  13.884
43010W        W 8270  15.117  14.378  13.373
43011W        W 8271  27.682  28.479   4.615
43012W        W 8272  32.013  10.954   0.762
43013W        W 8273  29.392   6.655   3.567
43014W        W 8274  11.286  34.622  10.573
43015W        W 8275  40.230  24.338  11.125
43016W        W 8276  23.678  26.529   3.705
43017W        W 8277  26.093  44.919   3.855
43018W        W 8278  22.157  28.218  13.851
43019W        W 8279   2.689  27.950   3.702
43020W        W 8280  30.774  36.249   0.884
43021W        W 8281  18.544  36.165   3.560
43022W        W 8282  33.436  17.084   2.278
43023W        W 8283  25.233  15.831  11.515
43024W        W 8284  40.754   6.886   4.211
43025W        W 8285  33.979   0.378   1.338
43026W        W 8286  24.198  42.709  13.126
43027W        W 8287  22.184  11.929   3.091
43028W        W 8288  24.130  14.356   1.858
43029W        W 8289  12.185  22.604  14.901
43030W        W 8290   2.981  13.389  12.313
43031W        W 8291  19.694  24.523  10.901
43032W        W 8292  43.487  27.959   1.968
43033W        W 8293  21.981  11.789  14.915
43034W        W 8294  41.938   3.631  11.272
43035W        W 8295  16.046  31.619  11.086
43036W        W 8296  42.781  12.541   1.364
43037W        W 8297  14.123  44.977  10.749
43038W        W 8298  33.695   3.473  14.086
43039W        W 8299   8.466  39.043  14.988
43040W        W 8300  32.365  14.990   3.168
43041W        W 8301  20.280  17.767   4.346
43042W        W 8302  11.999  25.801   1.283
43043W        W 8303  16.825  12.448   0.127
43044W        W 8304   0.102  36.509   1.161
43045W        W 8305  39.179  29.070  11.868
43046W        W 8306  43.277   5.352   4.568
43047W        W 8307  39.372  29.458   4.369
43048W        W 8308  28.698   9.632   1.033
43049W        W 8309  26.472   7.950  10.489
43050W        W 8310  13.755  25.538  10.488
43051W        W 8311  11.142  12.252   3.150
43052W        W 8312   9.847  27.933  13.962
43053W        W 8313   9.691  22.605  11.265
43054W        W 8314   1.793   4.932   0.822
43055W        W 8315  16.803  31.706  13.894
43056W        W 8316  34.410  39.353   2.476
43057W        W 8317  41.997  14.475  12.482
43058W        W 8318  40.846   1.690   3.740
43059W        W 8319  33.805  16.061  12.053
43060W        W 8320  14.379  40.000   0.072
43061W        W 8321  16.545  40.804  11.984
43062W        W 8322  26.254  41.587   1.905
43063W        W 8323   8.329  34.394   1.215
43064W        W 8324   3.741  33.145   4.919
43065W        W 8325  42.924  14.249   4.063
43066W        W 8326  25.476  42.898  11.612
43067W        W 8327  28.459  27.664  13.134
43068W        W 8328  19.794  37.490   3.576
43069W        W 8329   1.455  32.022  12.812
43070W        W 8330  35.705   0.958   3.552
43071W        W 8331  20.312  15.766   1.382
43072W        W 8332  33.148  31.360   3.252
43073W        W 8333  20.771   3.273   0.810
43074W        W 8334  38.811  35.352   3.305
43075W        W 8335  22.133  19.481  10.687
43076W        W 8336  22.707  25.653   4.162
43077W        W 8337  17.109  34.004   1.202
43078W        W 8338  34.854  22.980   2.351
43079W        W 8339  40.092  19.086   1.137
43080W        W 8340   4.297   1.192   2.349
43081W        W 8341  17.101  35.953   0.254
43082W        W 8342  28.506  31.693  12.569
43083W        W 8343  26.419  25.077   2.241
43084W        W 8344   7.744   1.096   4.052
43085W        W 8345  36.663  15.878   2.360
43086W        W 8346  35.407   7.131  10.622
43087W        W 8347  32.588   4.172  14.620
43088W        W 8348  31.233   5.171  13.487
43089W        W 8349  40.821   0.938   0.003
43090W        W 8350  15.622  32.705   3.661
43091W        W 8351  14.559  13.287  14.776
43092W        W 8352  14.236   8.348  12.878
43093W        W 8353  42.019  29.575   1.771
43094W        W 8354  17.547  35.479   3.725
43095W        W 8355  31.242  11.371   0.326
43096W        W 8356  21.769  33.902   4.543
43097W        W 8357  33.723  16.262  13.017
43098W        W 8358  22.460   3.673   3.846
43099W        W 8359  11.631  38.380  11.667
43100W        W 8360  39.737  40.835   1.506
43101W        W 8361   1.903  34.431   0.741
43102W        W 8362  18.196   4.275  13.974
43103W        W 8363  22.668  31.140  12.137
43104W        W 8364   8.460  33.438   4.174
43105W        W 8365   8.658  23.476   3.236
43106W        W 8366  31.299  30.702   4.588
43107W        W 8367  17.544  17.765  13.849
43108W        W 8368  13.894  17.930  14.629
43109W        W 8369  11.651   1.902   3.771
43110W        W 8370  35.583  43.510  11.906
43111W        W 8371  35.366  43.847  11.166
43112W        W 8372   7.019   4.943  14.996
43113W        W 8373  43.993  41.472  11.467
43114W        W 8374  29.648  31.164   1.337
43115W        W 8375  21.791  22.661   0.333
43116W        W 8376  12.683   2.234  12.376
43117W        W 8377  23.831  28.120  10.393
43118W        W 8378  40.150   9.218   1.409
43119W        W 8379  29.054  14.869   1.679
43120W        W 8380  12.009  23.504   3.190
43121W        W 8381  38.855  18.118  14.885
43122W        W 8382   6.320  31.674   3.227
43123W        W 8383   4.984  34.299  10.467
43124W        W 8384  32.042  29.195   1.803
43125W        W 8385   2.880  13.398  10.146
43126W        W 8386  23.151  16.183   1.099
43127W        W 8387  26.990  39.066  14.409
43128W        W 8388  28.100  17.500   1.780
43129W        W 8389  15.165  33.066   3.255
43130W        W 8390  26.684   4.834   3.098
43131W        W 8391  10.580  21.181  11.206
43132W        W 8392  12.212   2.300   0.847
43133W        W 8393  19.409   2.437   0.360
43134W        W 8394   3.595   2.463  14.796
43135W        W 8395   1.010   6.272  11.647
43136W        W 8396  39.612  38.386   0.749
43137W        W 8397  44.051  36.970   3.669
43138W        W 8398  42.854  20.177   2.515
43139W        W 8399   4.877  18.577  11.853
43140W        W 8400  22.510   7.258  13.106
43141W        W 8401   4.848  17.065   3.694
43142W        W 8402  31.488  42.501   3.603
43143W        W 8403  41.494  23.169   3.322
43144W        W 8404  34.220  26.355  10.636
43145W        W 8405  43.994  31.061  13.429
43146W        W 8406  40.977  35.631  13.624
43147W        W 8407  35.883  40.611  12.237
43148W        W 8408   1.074  40.155   0.678
43149W        W 8409  32.887  42.109  11.643
43150W        W 8410  24.235  13.974  12.141
43151W        W 8411  23.418  31.679   0.241
43152W        W 8412  34.589  20.364  13.099
43153W        W 8413   6.757  21.648   0.176
43154W        W 8414  13.630  33.348  12.056
43155W        W 8415  28.306  14.631   1.215
43156W        W 8416   1.879  12.996  10.139
43157W        W 8417   1.587  23.230   9.807
43158W        W 8418  19.539   0.767  12.898
43159W        W 8419  13.546  15.604  10.839
43160W        W 8420  29.197   6.019  14.015
43161W        W 8421  31.972   1.864   4.615
43162W        W 8422  19.389  29.854   0.504
43163W        W 8423  17.361  28.119   2.807
43164W        W 8424   5.930  38.122   1.860
43165W        W 8425  44.323  16.318   1.112
43166W        W 8426  13.594  37.340  11.230
43167W        W 8427  29.905  17.201   0.779
43168W        W 8428  19.671  32.197  11.988
43169W        W 8429  27.021  38.387   3.649
43170W        W 8430  11.875  11.900  14.478
43171W        W 8431   2.254  31.363   3.620
43172W        W 8432  35.425   0.151   2.720
43173W        W 8433   6.240  23.160  10.439
43174W        W 8434  11.997  20.724  14.904
43175W        W 8435  13.827  15.762   4.542
43176W        W 8436  33.983  13.041  13.822
43177W        W 8437  38.089  41.526  13.402
43178W        W 8438   6.666  21.541   3.378
43179W        W 8439   9.600  17.190  14.995
43180W        W 8440  44.029  12.209  13.367
43181W        W 8441  14.317   3.367  13.867
43182W        W 8442  26.621  23.784  14.050
43183W        W 8443  11.113  30.801  14.754
43184W        W 8444  33.374  10.757  12.005
43185W        W 8445  17.035  14.196   3.344
43186W        W 8446  31.968  17.748  12.416
43187W        W 8447  21.254   1.722   2.601
43188W        W 8448   7.837   8.315  13.787
43189W        W 8449  28.760  11.563  11.116
43190W        W 8450   0.331  37.167   2.312
43191W        W 8451  30.383  29.969   0.203
43192W        W 8452  18.473  32.580  12.062
43193W        W 8453  33.888  11.390   1.327
43194W        W 8454   5.429   0.760   2.589
43195W        W 8455  35.058  32.176   3.212
43196W        W 8456  11.632  27.466   2.649
43197W        W 8457  24.005  31.854  12.803
43198W        W 8458  41.569  32.630  11.553
43199W        W 8459  12.193  42.690   0.446
43200W        W 8460   4.905  39.924  11.267
43201W        W 8461  41.585  40.572   1.893
43202W        W 8462   5.672  21.017  12.819
43203W        W 8463   8.356  36.049  12.804
43204W        W 8464  41.912  26.269  13.867
43205W        W 8465  28.991  11.518  12.883
43206W        W 8466  13.545  15.403   4.854
43207W        W 8467   8.737  14.361  12.952
43208W        W 8468  44.573  25.111  11.681
43209W        W 8469  29.674  44.692   3.705
43210W        W 8470  21.273  35.896   0.909
43211W        W 8471  17.310   6.267   2.413
43212W        W 8472  40.891  34.202   1.705
43213W        W 8473  24.705  28.568   3.706
43214W        W 8474  15.233   0.363  12.537
43215W        W 8475  32.447  23.980  14.379
43216W        W 8476  21.036   9.309  11.157
43217W        W 8477   8.082  28.257   1.727
43218W        W 8478   7.424  38.083   2.343
43219W        W 8479  42.023   2.246  12.031
43220W        W 8480  24.402   9.164  12.106
43221W        W 8481  37.497  36.364  14.386
43222W        W 8482  23.677  33.522  12.452
43223W        W 8483  18.203  15.160   0.872
43224W        W 8484  42.850  19.627   3.411
43225W        W 8485  28.249   9.576   4.163
43226W        W 8486   1.814  32.987  13.987
43227W        W 8487  27.637  38.081   4.955
43228W        W 8488  26.951   3.765  10.751
43229W        W 8489   3.266  11.431  14.412
43230W        W 8490  42.875  15.804  14.102
43231W        W 8491  44.911  39.932   3.160
43232W        W 8492  11.453   3.711  13.136
43233W        W 8493  28.877  33.137  12.911
43234W        W 8494  18.082  44.295  13.539
43235W        W 8495  15.902   9.849   4.704
43236W        W 8496  34.372  33.045  11.592
43237W        W 8497  10.852  41.936   4.773
43238W        W 8498  10.260   2.656  13.624
43239W        W 8499  29.577  15.321  13.867
43240W        W 8500  21.477  38.103  11.298
43241W        W 8501  22.204   9.404  13.565
43242W        W 8502  20.773   4.650   3.711
43243W        W 8503  16.010  40.062   2.553
43244W        W 8504  36.444   9.771  14.082
43245W        W 8505   7.410  20.013   4.068
43246W        W 8506   6.002  19.653  14.996
43247W        W 8507   2.956  35.791   1.931
43248W        W 8508  17.152  26.540   1.466
43249W        W 8509  38.380   7.455   1.758
43250W        W 8510   8.859   5.998  10.771
43251W        W 8511  18.302   2.003  14.445
43252W        W 8512   4.505   6.121   3.727
43253W        W 8513  14.357  44.995  12.136
43254W        W 8514  22.428  30.173   3.248
43255W        W 8515  42.117  31.635  11.983
43256W        W 8516  34.145  41.908   3.100
43257W        W 8517  15.377  19.481   4.732
43258W        W 8518  38.869  20.010   3.685
43259W        W 8519  33.987  31.167   3.244
43260W        W 8520  15.105  43.312   3.638
43261W        W 8521  31.156  37.376  12.083
43262W        W 8522  14.132  11.547   2.227
43263W        W 8523  25.442  44.164  10.482
43264W        W 8524  13.639   0.912  13.480
43265W        W 8525  12.793  42.947  12.358
43266W        W 8526  28.421  35.736  13.284
43267W        W 8527  17.197  23.472   4.643
43268W        W 8528  42.024  23.228  11.310
43269W        W 8529  17.397  25.530  13.015
43270W        W 8530  35.891  32.477   1.884
43271W        W 8531   6.286  23.432  14.448
43272W        W 8532   2.457  17.370  13.446
43273W        W 8533   1.329   7.408   4.157
43274W        W 8534  28.139  42.096   1.105
43275W        W 8535  24.660   7.871   4.867
43276W        W 8536  27.415  37.349   0.069
43277W        W 8537  13.277  41.837   3.822
43278W        W 8538  42.307  17.208   1.790
43279W        W 8539   6.808  38.384   4.587
43280W        W 8540  34.177  38.733   0.728
43281W        W 8541  42.107  33.322   2.104
43282W        W 8542  36.864  34.394   1.810
43283W        W 8543   1.209  11.721   2.667
43284W        W 8544  10.125  30.799   3.655
43285W        W 8545   4.236  27.439  12.105
43286W        W 8546  38.533  33.852   4.233
43287W        W 8547  27.522  17.620   3.067
43288W        W 8548  17.069   7.827   2.195
43289W        W 8549  40.965  40.974   2.821
43290W        W 8550  15.447  43.313  13.686
43291W        W 8551  10.181  37.175  13.404
43292W        W 8552   7.156   7.414  13.317
43293W        W 8553  29.967  19.595   4.116
43294W        W 8554  23.762  10.168  11.956
43295W        W 8555  24.500   3.760   0.891
43296W        W 8556  18.147  36.505   3.569
43297W        W 8557   6.292   6.656  11.673
43298W        W 8558  13.320  27.612   2.042
43299W        W 8559  42.842  42.978  13.536
43300W        W 8560  40.043  44.025   2.811
43301W        W 8561  20.780  42.196   3.228
43302W        W 8562   5.981  19.799   4.178
43303W        W 8563  34.921  33.859  11.539
43304W        W 8564  44.646  33.587  10.639
43305W        W 8565  19.618  17.761  14.105
43306W        W 8566  39.659  34.601  10.685
43307W        W 8567  11.107  29.992  13.421
43308W        W 8568  35.176  23.271  10.289
43309W        W 8569  23.518  38.939  10.606
43310W        W 8570   6.674  28.014   1.376
43311W        W 8571  15.786  35.612  13.424
43312W        W 8572  35.717   6.219   2.315
43313W        W 8573   5.153  21.498  11.518
43314W        W 8574   4.888  17.717  14.443
43315W        W 8575   2.244  31.234  10.811
43316W        W 8576  13.347  10.801  10.894
43317W        W 8577   6.766   3.105  13.356
43318W        W 8578  19.785   7.854  12.038
43319W        W 8579  21.510  30.415  12.022
43320W        W 8580  17.284   8.800  13.081
43321W        W 8581   9.358  22.393   3.253
43322W        W 8582  29.390  16.224  13.310
43323W        W 8583   4.827   5.392  12.837
43324W        W 8584  10.819  26.677   0.808
43325W        W 8585  13.289  19.630   2.321
43326W        W 8586  19.264  12.547   4.073
43327W        W 8587  33.545  37.432  11.971
43328W        W 8588   5.061  22.417  13.413
43329W        W 8589  40.601  36.461  12.111
43330W        W 8590  11.206  35.942   2.829
43331W        W 8591   5.366  14.270   4.602
43332W        W 8592  10.420  36.713  13.596
43333W        W 8593  10.718  32.649  10.608
43334W        W 8594  19.300  35.482  12.494
43335W        W 8595  31.427  17.995   3.392
43336W        W 8596  14.369  36.538  10.702
43337W        W 8597  37.873  25.583   4.608
43338W        W 8598  25.716  31.992  13.529
43339W        W 8599  18.624  12.164  13.916
43340W        W 8600  32.903  22.733   4.620
43341W        W 8601   6.735  12.143   1.113
43342W        W 8602  19.181  14.198  13.001
43343W        W 8603  16.687  40.914   4.087
43344W        W 8604  31.448  12.718   3.230
43345W        W 8605  17.409  44.441  14.691
43346W        W 8606  10.757  41.859   3.297
43347W        W 8607  24.866  25.696   3.254
43348W        W 8608  11.034  44.722  14.291
43349W        W 8609  31.237  20.592  12.336
43350W        W 8610  40.578   0.692  14.096
43351W        W 8611  24.188  41.143   3.822
43352W        W 8612   0.757  23.729  14.995
43353W        W 8613  41.035  32.340  10.850
43354W        W 8614  10.524  10.447  14.891
43355W        W 8615  39.514  41.254   4.229
43356W        W 8616  25.716  41.222  13.298
43357W        W 8617  26.367  17.186  11.888
43358W        W 8618  32.183  22.121   0.948
43359W        W 8619  21.235  20.155  14.989
43360W        W 8620  29.507  35.834   2.768
43361W        W 8621   4.704  23.064   3.674
43362W        W 8622   6.828  34.303   2.289
43363W        W 8623  28.138  40.274  14.178
43364W        W 8624  36.777   5.679  12.940
43365W        W 8625  19.973  17.781  10.975
43366W        W 8626  24.558  24.580  14.981
43367W        W 8627  30.584  30.662   3.096
43368W        W 8628   4.486  29.368   4.746
43369W        W 8629  14.091  27.660  10.296
43370W        W 8630  34.864   2.057  13.447
43371W        W 8631  15.532  24.691   2.192
43372W        W 8632   1.422  34.811  11.647
43373W        W 8633   9.321  16.994  11.580
43374W        W 8634  38.244  23.143  11.613
43375W        W 8635  30.177  21.516   0.034
43376W        W 8636  15.771  32.421   0.530
43377W        W 8637   9.272  37.930  12.617
43378W        W 8638  14.283  43.514   1.611
43379W        W 8639  25.062  34.334  13.315
43380W        W 8640  43.768   6.288   4.449
43381W        W 8641   9.937   0.508  13.108
43382W        W 8642  24.719  25.854   4.746
43383W        W 8643  17.704   4.638   3.179
43384W        W 8644  30.928  17.667  12.484
43385W        W 8645  23.426   0.692   1.410
43386W        W 8646  39.770   4.964  13.359
43387W        W 8647  15.721  19.309  12.614
43388W        W 8648  24.249  30.956  13.054
43389W        W 8649  28.110  22.866  11.014
43390W        W 8650   1.578  36.556   1.458
43391W        W 8651  44.790  44.433   1.722
43392W        W 8652  21.180  19.605   5.202
43393W        W 8653  27.646  35.172   1.207
43394W        W 8654  12.133  28.930  14.034
43395W        W 8655   8.346   7.760   3.850
43396W        W 8656  21.142   9.314   2.053
43397W        W 8657   7.220  26.430  12.870
43398W        W 8658  36.875  16.726   4.478
43399W        W 8659  31.886  42.801   5.014
43400W        W 8660   0.981  38.603  14.982
43401W        W 8661  39.016  40.522  12.451
43402W        W 8662   8.947  40.759   3.714
43403W        W 8663  14.347  37.206   2.200
43404W        W 8664  34.671  35.130   3.843
43405W        W 8665  31.553  17.307   1.038
43406W        W 8666  41.945  36.970  11.806
43407W        W 8667  42.966  31.125   3.751
43408W        W 8668   9.175  23.361   3.192
43409W        W 8669  24.729  37.928   3.702
43410W        W 8670   0.351  27.446   2.119
43411W        W 8671   5.931  14.742  14.930
43412W        W 8672  39.287  43.723   0.398
43413W        W 8673  20.000  18.479   3.719
43414W        W 8674  33.527  25.515  12.976
43415W        W 8675  17.580   1.737  11.065
43416W        W 8676   7.879  21.613   3.604
43417W        W 8677   5.891  29.479   4.562
43418W        W 8678  41.048  35.262  11.488
43419W        W 8679  17.044   5.424   2.345
43420W        W 8680   4.430  30.687   3.863
43421W        W 8681  22.562   8.170   3.089
43422W        W 8682  10.327  39.393  14.507
43423W        W 8683  29.605  30.159  12.505
43424W        W 8684   7.409  10.930   2.370
43425W        W 8685  23.686   6.647  13.363
43426W        W 8686  17.253   3.953   3.492
43427W        W 8687  36.052   8.297   4.632
43428W        W 8688  17.243  15.559   2.774
43429W        W 8689  20.370  40.526   1.919
43430W        W 8690   7.510   5.320  11.377
43431W        W 8691  39.948   7.973  13.997
43432W        W 8692   6.317  41.260  14.856
43433W        W 8693  30.487  28.702  14.752
43434W        W 8694   2.398  30.542   4.624
43435W        W 8695  24.225  22.614  12.937
43436W        W 8696  23.980  33.398  15.000
43437W        W 8697  10.263  44.391   1.450
43438W        W 8698  42.956  18.834  11.947
43439W        W 8699   4.654   6.971   3.945
43440W        W 8700  18.609  18.019   0.769
43441W        W 8701  12.860   2.911  12.131
43442W        W 8702  28.665  25.711  12.935
43443W        W 8703  44.797   3.688   3.716
43444W        W 8704  28.637  29.083  10.977
43445W        W 8705  11.170  40.572   1.886
43446W        W 8706  27.184  11.109  12.520
43447W        W 8707  11.209   9.800  14.395
43448W        W 8708  32.588  30.049   4.106
43449W        W 8709   4.237  39.400   2.864
43450W        W 8710  37.365  31.652  12.415
43451W        W 8711  40.425  31.256  11.558
43452W        W 8712  26.897  22.288   1.361
43453W        W 8713  14.897  20.955  12.714
43454W        W 8714  42.429  15.726  12.068
43455W        W 8715  29.542  10.883   4.613
43456W        W 8716   3.948   6.609  12.020
43457W        W 8717   9.677  27.483  14.790
43458W        W 8718  24.168   3.299   3.054
43459W        W 8719  39.416  11.106  10.652
43460W        W 8720  11.590  15.016  13.479
43461W        W 8721   3.225  17.014   3.826
43462W        W 8722  24.916  35.210   0.751
43463W        W 8723  33.562  23.461   3.624
43464W        W 8724  32.382  20.695   1.366
43465W        W 8725   2.966  22.978   4.696
43466W        W 8726  32.864  19.376   4.165
43467W        W 8727  35.454  10.796   1.317
43468W        W 8728  33.431  10.416   5.036
43469W        W 8729  37.633  24.667  11.074
43470W        W 8730  38.920  17.282   0.415
43471W        W 8731   0.316  37.967  14.387
43472W        W 8732  25.971  12.938   1.759
43473W        W 8733  14.120  17.661  12.513
43474W        W 8734   0.378  39.074   3.589
43475W        W 8735  43.247  18.574   2.765
43476W        W 8736  22.594  15.176   3.790
43477W        W 8737  26.314  14.050  12.131
43478W        W 8738   8.246  14.231  10.902
43479W        W 8739  19.272  10.667   2.849
43480W        W 8740  26.005  40.440  12.926
43481W        W 8741  28.480   3.284  10.761
43482W        W 8742  19.289  27.201  14.800
43483W        W 8743  18.236   8.616   1.923
43484W        W 8744  11.611  13.738  13.489
43485W        W 8745  37.031   5.832   1.434
43486W        W 8746  43.686  32.963  13.478
43487W        W 8747  32.497  38.465   2.745
43488W        W 8748   6.731  20.790  14.893
43489W        W 8749  26.640  39.174   9.913
43490W        W 8750  41.896  38.390  13.845
43491W        W 8751  26.168  36.830   3.582
43492W        W 8752   3.283  35.988  12.718
43493W        W 8753   0.471   3.007  14.404
43494W        W 8754  36.350  36.031  12.513
43495W        W 8755   7.127  42.893  13.473
43496W        W 8756   2.346  15.730   1.230
43497W        W 8757  35.668   7.009   2.656
43498W        W 8758  29.415  15.284  11.020
43499W        W 8759  10.965  19.212   0.289
43500W        W 8760  32.851  15.265  10.943
43501W        W 8761  31.652   0.803  13.860
43502W        W 8762  41.461  41.195  14.400
43503W        W 8763   7.849  34.992   3.636
43504W        W 8764  16.298  23.474  14.077
43505W        W 8765  11.540  29.989   0.462
43506W        W 8766  37.518  30.593  14.224
43507W        W 8767  42.416  41.511   0.771
43508W        W 8768  16.832   4.605  13.979
43509W        W 8769  44.893  33.434  11.503
43510W        W 8770  18.558  19.140  14.239
43511W        W 8771  30.104  11.706  10.954
43512W        W 8772   1.345   8.702  11.122
43513W        W 8773  26.816  17.142  12.229
43514W        W 8774   1.958  23.091  10.313
43515W        W 8775  26.446   6.217  13.047
43516W        W 8776  27.641  19.627   4.202
43517W        W 8777   8.793   9.380   1.291
43518W        W 8778   1.322   9.235   1.253
43519W        W 8779  35.262  38.296  14.461
43520W        W 8780  18.611   2.751   2.963
43521W        W 8781   6.399  23.070  11.908
43522W        W 8782  29.740  31.982  13.038
43523W        W 8783  38.642  12.232   0.267
43524W        W 8784   7.932   9.725   0.277
43525W        W 8785  23.087  34.844  12.649
43526W        W 8786   7.299   1.360   4.205
43527W        W 8787  32.110  38.971   5.083
43528W        W 8788   5.425  16.488   1.828
43529W        W 8789  19.561   5.635   4.506
43530W        W 8790  29.922  20.787   0.126
43531W        W 8791  39.022  17.804   1.677
43532W        W 8792   1.258  31.429  11.646
43533W        W 8793  43.578   3.406  14.358
43534W        W 8794  38.545  44.384  11.094
43535W        W 8795  11.904   6.811  13.614
43536W        W 8796  30.370  43.360  11.069
43537W        W 8797  12.235  34.888   1.822
43538W        W 8798  18.087  44.511   2.763
43539W        W 8799  34.389  25.969   0.726
43540W        W 8800  35.515  14.650   4.551
43541W        W 8801  19.545  27.264  12.109
43542W        W 8802  31.043  34.119   4.419
43543W        W 8803  12.148  27.574  14.274
43544W        W 8804  25.452   4.615  11.775
43545W        W 8805  44.956  43.727   3.596
43546W        W 8806  29.494  33.623  11.073
43547W        W 8807  22.043  42.956  12.922
43548W        W 8808   5.366  42.836   3.353
43549W        W 8809   4.914  37.834   4.718
43550W        W 8810  40.522   2.822  11.390
43551W        W 8811   4.080  16.550   2.344
43552W        W 8812  33.453   7.496  11.691
43553W        W 8813  35.492   9.046   3.179
43554W        W 8814  38.737  24.954   0.159
43555W        W 8815   4.928  38.045  11.738
43556W        W 8816  34.068  23.474   4.180
43557W        W 8817  36.093  23.151   1.370
43558W        W 8818   8.943   1.982  14.819
43559W        W 8819  41.317  23.577   3.066
43560W        W 8820  42.832  21.750  14.824
43561W        W 8821  12.199  22.392   1.361
43562W        W 8822  20.326   9.608   3.585
43563W        W 8823  28.839  33.341  12.110
43564W        W 8824  21.255   7.734   1.816
43565W        W 8825  18.521  41.720  13.482
43566W        W 8826  37.679   3.786   3.951
43567W        W 8827  38.966  26.327   4.551
43568W        W 8828  39.309   7.323   0.178
43569W        W 8829  16.758  17.372   3.547
43570W        W 8830  32.470  23.623   1.315
43571W        W 8831  42.791  37.543  13.036
43572W        W 8832  25.902  21.380   3.681
43573W        W 8833  24.943  34.578   1.856
43574W        W 8834  12.310  40.995  13.591
43575W        W 8835  31.946  16.686  12.365
43576W        W 8836   4.812  14.129  14.550
43577W        W 8837   4.111  14.256  11.986
43578W        W 8838  17.117  43.012   4.248
43579W        W 8839   6.655   9.234  13.306
43580W        W 8840  21.130  31.555   3.178
43581W        W 8841  37.651  39.003  14.186
43582W        W 8842  44.383  23.684   3.798
43583W        W 8843  39.803   4.987   1.731
43584W        W 8844  27.189   9.329   1.600
43585W        W 8845  22.030   9.261   2.795
43586W        W 8846  31.626  32.730   1.002
43587W        W 8847  17.671  29.825   1.760
43588W        W 8848   4.879  20.345  11.560
43589W        W 8849  23.245   0.825   3.718
43590W        W 8850  26.158   0.869   4.328
43591W        W 8851   6.223  30.383  10.540
43592W        W 8852  22.429  23.532   1.817
43593W        W 8853   2.315   2.354   0.713
43594W        W 8854  43.889  38.200  12.636
43595W        W 8855  12.059  34.486   0.012
43596W        W 8856  21.248  33.158  11.509
43597W        W 8857  36.891  32.381   4.387
43598W        W 8858  39.159  35.134   0.955
43599W        W 8859   5.360  19.235  12.000
43600W        W 8860  16.762   6.447   4.467
43601W        W 8861   5.398  20.522   1.924
43602W        W 8862  36.848  44.860   3.684
43603W        W 8863  39.390  10.405  12.037
43604W        W 8864   1.309   4.541  12.829
43605W        W 8865  12.135  25.154  14.980
43606W        W 8866  33.930  12.293   0.707
43607W        W 8867  15.307  29.912  13.312
43608W        W 8868  33.020   8.614  12.390
43609W        W 8869   2.175   7.040  13.490
43610W        W 8870  18.111  16.895   4.094
43611W        W 8871   5.104  37.039   2.188
43612W        W 8872  29.840  11.117   3.382
43613W        W 8873  22.953  14.019  14.857
43614W        W 8874  12.135  16.282  12.614
43615W        W 8875  36.733  23.529  10.757
43616W        W 8876  32.899  25.492   0.716
43617W        W 8877  11.524   0.028  11.957
43618W        W 8878   7.453  18.093   1.810
43619W        W 8879  32.149  38.140   3.580
43620W        W 8880  32.991  25.098   2.847
43621W        W 8881  36.500   2.388  12.135
43622W        W 8882  43.341  40.060   0.302
43623W        W 8883  11.162  19.213   4.036
43624W        W 8884   6.624  22.056  14.285
43625W        W 8885   5.631   2.868   1.321
43626W        W 8886  34.761  37.316  14.009
43627W        W 8887  13.797   4.785  14.920
43628W        W 8888  16.798  15.550   3.087
43629W        W 8889  18.574  16.659   2.260
43630W        W 8890  31.037  15.795   4.160
43631W        W 8891  30.508  33.959  12.416
43632W        W 8892   9.903  24.120  14.362
43633W        W 8893  32.513  28.415   4.535
43634W        W 8894  18.222  34.899   2.865
43635W        W 8895  44.798  20.834  10.711
43636W        W 8896  14.356  13.901  11.363
43637W        W 8897  36.707  30.213   2.878
43638W        W 8898  13.645  32.858   0.930
43639W        W 8899  29.381  33.065  12.810
43640W        W 8900  44.956  23.312   3.253
43641W        W 8901  18.560  17.675   0.377
43642W        W 8902  40.914  34.406  13.580
43643W        W 8903   0.204  39.840  14.755
43644W        W 8904  29.719  26.418  13.139
43645W        W 8905  17.263  18.396   4.676
43646W        W 8906  43.262  38.051  13.887
43647W        W 8907  31.317  27.785   0.006
43648W        W 8908  22.093  21.793   1.205
43649W        W 8909   8.695  26.071  14.706
43650W        W 8910  38.408   1.228  14.831
43651W        W 8911   1.168  14.262  10.653
43652W        W 8912  33.347  40.536  10.601
43653W        W 8913   7.568  15.621  14.767
43654W        W 8914   3.727   4.478   2.143
43655W        W 8915   6.069   1.813   1.870
43656W        W 8916  37.641   9.352   0.026
43657W        W 8917  21.203  17.278  10.663
43658W        W 8918  36.362  22.184  12.571
43659W        W 8919  41.602  29.512  10.549
43660W        W 8920  10.419  43.721  10.162
43661W        W 8921  37.607  15.569   3.172
43662W        W 8922  32.852   6.873   4.069
43663W        W 8923   2.023  20.634  12.932
43664W        W 8924   1.750  32.457   0.763
43665W        W 8925  36.007  24.721  12.920
43666W        W 8926  34.105   0.976  12.442
43667W        W 8927   2.182  16.172   3.869
43668W        W 8928  13.367   9.158  14.449
43669W        W 8929   5.316  39.283  12.630
43670W        W 8930  17.648   9.167  13.037
43671W        W 8931  30.812  16.196  13.597
43672W        W 8932  39.300  38.897  10.648
43673W        W 8933  35.810  13.240   0.337
43674W        W 8934  16.835  43.287  11.971
43675W        W 8935   5.785  33.027  11.585
43676W        W 8936   6.808  32.984   2.878
43677W        W 8937  23.575  20.720   3.506
43678W        W 8938  35.842  41.753  11.134
43679W        W 8939  11.753  26.577  13.940
43680W        W 8940   5.756   3.859  13.077
43681W        W 8941  37.495  13.022  14.060
43682W        W 8942  44.535  30.563   3.957
43683W        W 8943  44.226  43.750   1.233
43684W        W 8944  32.011  22.328   1.425
43685W        W 8945   2.826  19.572   4.041
43686W        W 8946  41.479  13.080  12.613
43687W        W 8947  19.567  29.476   2.226
43688W        W 8948  11.686  13.454   4.070
43689W        W 8949  11.696   9.523   9.781
43690W        W 8950  39.195  12.856  10.068
43691W        W 8951  36.641  34.690   0.844
43692W        W 8952  11.791  19.502  13.816
43693W        W 8953   8.644  14.989   2.387
43694W        W 8954   7.292  38.437  13.466
43695W        W 8955  29.204  12.509   0.398
43696W        W 8956  41.298  33.150  11.502
43697W        W 8957  42.899   4.256   0.866
43698W        W 8958  19.172  17.367   1.355
43699W        W 8959  36.312  12.863   0.765
43700W        W 8960  34.764   0.836   4.467
43701W        W 8961  14.920  16.430  13.477
43702W        W 8962   7.842  27.912   2.246
43703W        W 8963  44.174  43.610   0.518
43704W        W 8964   1.397   9.652   0.720
43705W        W 8965  42.043   3.393  14.499
43706W        W 8966   6.480  29.960  10.622
43707W        W 8967  36.464  11.274   4.787
43708W        W 8968   9.644  44.827  11.987
43709W        W 8969   4.230  11.125  14.370
43710W        W 8970  34.014   9.142  14.040
43711W        W 8971  11.933  13.191  11.063
43712W        W 8972  31.377  14.327   4.664
43713W        W 8973  23.469  37.862   3.266
43714W        W 8974   3.602   7.880   2.999
43715W        W 8975  25.636   9.277  11.277
43716W        W 8976   2.790   8.889   2.270
43717W        W 8977  21.557  41.066  14.619
43718W        W 8978  13.902   7.763   4.859
43719W        W 8979  32.542  33.940   4.850
43720W        W 8980  36.160  17.757  11.695
43721W        W 8981  37.885  41.862   4.627
43722W        W 8982  19.452  37.123   2.397
43723W        W 8983  39.296  17.124  10.665
43724W        W 8984  43.319  12.146  12.161
43725W        W 8985   5.352  27.228   2.338
43726W        W 8986   8.298  28.763   2.291
43727W        W 8987   0.266   5.789  13.860
43728W        W 8988  34.591  43.614   3.891
43729W        W 8989  35.352  13.573  12.151
43730W        W 8990  24.299  17.748   3.278
43731W        W 8991  38.349  15.837   1.750
43732W        W 8992  20.208  37.595   2.790
43733W        W 8993  44.712   2.492  11.490
43734W        W 8994  15.917  16.747   1.449
43735W        W 8995  28.242  36.459   3.792
43736W        W 8996  24.996  25.048  14.468
43737W        W 8997  25.454  25.259  12.396
43738W        W 8998  13.156   9.646   3.207
43739W        W 8999  25.433  31.877  13.964
43740W        W 9000  19.723   6.386   2.349
43741W        W 9001  43.930  26.168   3.495
43742W        W 9002  17.664  11.724   2.746
43743W        W 9003  21.060   8.667   3.834
43744W        W 9004   0.842  37.489   1.621
43745W        W 9005  24.572   9.546   3.754
43746W        W 9006  44.355  19.713  14.114
43747W        W 9007   7.197  42.053   2.650
43748W        W 9008   7.991   5.531  10.777
43749W        W 9009  17.418   1.243   4.643
43750W        W 9010  33.892  39.020   1.690
43751W        W 9011  17.613  31.960  12.356
43752W        W 9012  39.019  16.698  14.729
43753W        W 9013   3.861   6.358   2.077
43754W        W 9014  36.401  42.266   4.587
43755W        W 9015   2.228  39.141   2.363
43756W        W 9016  21.975  20.082   5.276
43757W        W 9017  28.710  29.503  12.998
43758W        W 9018  23.975   2.109   4.212
43759W        W 9019  23.093   2.805   4.611
43760W        W 9020  13.104  24.880  12.909
43761W        W 9021  21.883  28.645  10.703
43762W        W 9022   5.945   9.343   3.669
43763W        W 9023  43.830  20.638   4.506
43764W        W 9024  25.467   9.448   3.360
43765W        W 9025  16.416  22.785  11.607
43766W        W 9026   1.999   5.588  11.181
43767W        W 9027  19.349  26.668   0.476
43768W        W 9028  24.100   9.047   1.147
43769W        W 9029   4.183   9.106   2.293
43770W        W 9030  35.517  24.769   4.239
43771W        W 9031   6.652   6.297   0.859
43772W        W 9032  18.289  17.381  11.277
43773W        W 9033  19.140  35.840   1.441
43774W        W 9034   7.262  18.211   0.434
43775W        W 9035  33.311  29.187   3.850
43776W        W 9036  17.281   7.246  14.269
43777W        W 9037  37.600  19.072  11.584
43778W        W 9038   2.394  21.172  11.670
43779W        W 9039   4.475  23.915  10.362
43780W        W 9040  12.840  39.956   0.058
43781W        W 9041  10.374   0.223  13.304
43782W        W 9042   4.881   5.407  12.318
43783W        W 9043  18.608  20.448   2.672
43784W        W 9044  32.699  33.956   2.609
43785W        W 9045  25.237   7.349   9.614
43786W        W 9046  10.529  19.731  10.186
43787W        W 9047   9.221  23.167   4.039
43788W        W 9048  19.603  30.856  13.517
43789W        W 9049  35.973  22.303  13.365
43790W        W 9050  42.072  21.215  14.889
43791W        W 9051  23.962  13.448   3.856
43792W        W 9052  38.031  30.101  11.231
43793W        W 9053  28.680  39.282  11.551
43794W        W 9054   9.911  17.108   1.397
43795W        W 9055   9.060   0.606  10.204
43796W        W 9056  26.550  15.182   1.437
43797W        W 9057  40.708  35.081   2.136
43798W        W 9058   4.781  27.677   4.082
43799W        W 9059  40.326  33.611  13.405
43800W        W 9060  37.045  32.735  11.099
43801W        W 9061   8.146  39.314  11.593
43802W        W 9062  20.029  34.382  14.379
43803W        W 9063  16.560  12.698   2.631
43804W        W 9064  28.197   4.322  10.957
43805W        W 9065  18.133  26.115   0.502
43806W        W 9066   7.881  24.944   1.516
43807W        W 9067  16.599  21.721  13.829
43808W        W 9068  29.783  43.410   1.316
43809W        W 9069  11.655   2.377  12.635
43810W        W 9070  23.556   6.491   3.195
43811W        W 9071  33.410   8.486  11.569
43812W        W 9072  37.895   4.403  14.756
43813W        W 9073  19.204  27.910   3.879
43814W        W 9074   8.425  43.552   2.734
43815W        W 9075  36.587  35.038   4.270
43816W        W 9076  43.510  43.935  12.724
43817W        W 9077  38.495   4.702   0.269
43818W        W 9078  27.191  41.271  13.583
43819W        W 9079  16.087   0.625   4.062
43820W        W 9080  12.796  39.612  12.897
43821W        W 9081  21.658  22.238   4.486
43822W        W 9082   8.209  20.489  14.798
43823W        W 9083  15.652   2.626  13.599
43824W        W 9084  44.884   5.747   1.328
43825W        W 9085   3.046   0.277   4.119
43826W        W 9086   2.273  32.413  11.947
43827W        W 9087  20.742   7.689   2.686
43828W        W 9088   4.514  32.156  11.816
43829W        W 9089  22.755  35.501  12.311
43830W        W 9090  38.312  19.577   0.336
43831W        W 9091  35.998   6.455   1.349
43832W        W 9092   5.519   2.352  11.614
43833W        W 9093  22.380  16.887  14.753
43834W        W 9094  40.674  15.837   9.697
43835W        W 9095  36.846   8.131   1.261
43836W        W 9096  25.049  28.209   0.892
43837W        W 9097  13.808   2.200  12.972
43838W        W 9098  23.806  38.041   0.922
43839W        W 9099   1.066   8.451  12.087
43840W        W 9100  18.848  33.463   0.946
43841W        W 9101  14.928  40.740  14.946
43842W        W 9102  14.746   5.955   4.602
43843W        W 9103  26.420  12.286  11.027
43844W        W 9104   9.819  36.631  11.044
43845W        W 9105   5.657   7.189   2.564
43846W        W 9106  24.669  29.969  12.008
43847W        W 9107  43.326  42.751   0.784
43848W        W 9108  16.305  16.575  13.596
43849W        W 9109   9.290  42.135   4.059
43850W        W 9110  16.913   9.737   3.742
43851W        W 9111  26.096  15.114   1.172
43852W        W 9112   4.738  19.433   3.361
43853W        W 9113  17.247   1.806   3.091
43854W        W 9114  43.288  38.102  10.435
43855W        W 9115  41.198  12.700  11.679
43856W        W 9116   3.258  24.762  14.461
43857W        W 9117  31.685  41.795  12.542
43858W        W 9118  40.196  42.504  13.526
43859W        W 9119  23.442  28.052   3.600
43860W        W 9120  23.210  36.961  11.871
43861W        W 9121  38.325  26.675  11.156
43862W        W 9122  24.165  29.791   4.114
43863W        W 9123  21.414   1.871  12.252
43864W        W 9124  32.974  16.341   3.881
43865W        W 9125  39.809   9.872   2.689
43866W        W 9126  14.062  33.947   0.877
43867W        W 9127  42.892   7.445   4.556
43868W        W 9128  38.878  21.020  14.749
43869W        W 9129   7.146  11.731  12.980
43870W        W 9130   9.537  13.681  13.905
43871W        W 9131   9.313   4.739   4.226
43872W        W 9132  43.050  17.706   4.374
43873W        W 9133  16.171   4.957   4.519
43874W        W 9134  40.612  24.618   3.318
43875W        W 9135  41.744   1.278  11.901
43876W        W 9136  33.039  11.960   4.282
43877W        W 9137  22.639  32.162   0.751
43878W        W 9138   1.815  10.087  12.543
43879W        W 9139  13.173  18.129   3.240
43880W        W 9140   4.403  22.277  12.466
43881W        W 9141  41.365  20.543  13.977
43882W        W 9142  27.548   5.900   1.693
43883W        W 9143   8.353  39.112   3.605
43884W        W 9144  37.474  14.099  12.615
43885W        W 9145  38.311  31.661   4.699
43886W        W 9146  43.426  31.666   3.328
43887W        W 9147   2.148   1.434   0.260
43888W        W 9148  16.076   3.749  12.424
43889W        W 9149  34.349  28.320   2.192
43890W        W 9150  14.429  12.342   3.455
43891W        W 9151   6.946  34.001  14.611
43892W        W 9152  32.023  32.896   3.177
43893W        W 9153  10.155  13.646  12.938
43894W        W 9154  35.455  43.929  14.109
43895W        W 9155  36.501  13.236  13.187
43896W        W 9156  44.778  14.373  10.204
43897W        W 9157   2.383   0.203   1.338
43898W        W 9158  32.607   0.554   5.060
43899W        W 9159  39.391  14.493  11.173
43900W        W 9160  17.498  33.068   4.510
43901W        W 9161  36.410  19.804  12.858
43902W        W 9162  30.617  19.307   2.407
43903W        W 9163  32.990  29.639   4.620
43904W        W 9164  10.448  29.096  13.025
43905W        W 9165   1.345  10.392   4.726
43906W        W 9166  14.518   4.245  13.997
43907W        W 9167  18.654  26.947  11.655
43908W        W 9168  37.123  39.960   4.669
43909W        W 9169   4.418  36.418   0.406
43910W        W 9170  28.217  24.383  13.493
43911W        W 9171  16.619  37.724   2.447
43912W        W 9172  31.398   0.532  14.235
43913W        W 9173  19.983   6.024  14.903
43914W        W 9174  39.543   9.314  11.202
43915W        W 9175   4.920   9.614  11.275
43916W        W 9176  28.754  37.835   3.225
43917W        W 9177  38.124   8.954   2.290
43918W        W 9178  31.829  38.490  12.267
43919W        W 9179  15.265   6.459   4.034
43920W        W 9180   1.834   1.834  12.958
43921W        W 9181  42.271  22.678   3.119
43922W        W 9182  42.091   5.400  11.582
43923W        W 9183  17.368  40.396  14.755
43924W        W 9184   2.336  22.524  13.351
43925W        W 9185  39.580  24.926   3.337
43926W        W 9186  17.972  30.031   0.406
43927W        W 9187  17.588  10.834   0.807
43928W        W 9188  23.233  11.305   1.187
43929W        W 9189  44.859  13.716   5.407
43930W        W 9190  19.257  25.707   4.135
43931W        W 9191  37.507   3.790  14.949
43932W        W 9192  17.090   9.265   2.351
43933W        W 9193  38.877  26.109  11.531
43934W        W 9194  13.047  14.205   4.094
43935W        W 9195   3.506  29.395  11.549
43936W        W 9196  31.538  41.582  14.396
43937W        W 9197  37.101  21.568   1.657
43938W        W 9198  36.095  13.669   0.345
43939W        W 9199   6.246  11.761  10.158
43940W        W 9200  16.152  11.255   0.253
43941W        W 9201  18.584   9.737  10.731
43942W        W 9202  24.921  15.275  12.439
43943W        W 9203  27.155  35.971   1.394
43944W        W 9204  11.131  23.591  11.006
43945W        W 9205  38.573  23.659   2.614
43946W        W 9206   4.164  29.888  11.174
43947W        W 9207  12.050  40.287  11.109
43948W        W 9208  42.043  29.937  12.120
43949W        W 9209  30.001  12.215  10.767
43950W        W 9210  39.482  15.348  13.261
43951W        W 9211  12.446   5.613   4.010
43952W        W 9212  43.114  37.761   4.141
43953W        W 9213   0.033  36.538   3.310
43954W        W 9214  39.987  27.608   0.795
43955W        W 9215  33.157  41.592   2.261
43956W        W 9216  13.920  42.059  13.354
43957W        W 9217  21.597  44.621  14.041
43958W        W 9218   4.177  29.682   2.699
43959W        W 9219  27.416  29.982  12.378
43960W        W 9220  28.203  31.930  10.032
43961W        W 9221  27.638   9.682   2.889
43962W        W 9222  42.016  40.728  14.913
43963W        W 9223  12.642  29.257  10.996
43964W        W 9224  36.820  28.024  12.153
43965W        W 9225  21.143  40.413  14.525
43966W        W 9226  33.013  42.621   2.360
43967W        W 9227  31.561  18.293  14.529
43968W        W 9228  11.388  42.498  10.348
43969W        W 9229  18.899  27.954   3.472
43970W        W 9230  32.945   6.444  12.824
43971W        W 9231  38.689  31.357   3.938
43972W        W 9232  16.585  16.728   2.484
43973W        W 9233  10.688  40.715  11.156
43974W        W 9234  27.590  15.965  11.352
43975W        W 9235  32.096  32.410  11.636
43976W        W 9236  44.429  26.681   2.796
43977W        W 9237  26.287  37.855   2.616
43978W        W 9238  31.661  23.064   2.324
43979W        W 9239  18.880  42.525   3.423
43980W        W 9240  40.080  32.412   2.709
43981W        W 9241   4.437  14.455  14.713
43982W        W 9242  37.430  34.863   1.246
43983W        W 9243  35.861   0.261  12.546
43984W        W 9244  36.901  24.421   2.409
43985W        W 9245  42.865  13.265  12.638
43986W        W 9246  17.474  26.647   0.452
43987W        W 9247  42.828  30.105   0.742
43988W        W 9248  13.409  32.090  14.566
43989W        W 9249   9.570  39.811   2.755
43990W        W 9250  40.029  39.321  11.144
43991W        W 9251  34.989  20.616   0.102
43992W        W 9252  26.101  35.062  13.899
43993W        W 9253  17.031   1.473  11.892
43994W        W 9254  32.095  11.288  12.638
43995W        W 9255  16.818   3.810  12.044
43996W        W 9256  16.322  14.792   1.480
43997W        W 9257  37.280  25.237  11.877
43998W        W 9258   3.830  24.922  12.177
43999W        W 9259  22.053  28.244   1.911
44000W        W 9260  13.128  36.465  13.644
44001W        W 9261   4.704  10.913  14.300
44002W        W 9262  11.972  35.054   0.797
44003W        W 9263   3.727  24.446   4.298
44004W        W 9264  23.027  44.036   3.797
44005W        W 9265   4.730  18.957  13.143
44006W        W 9266  42.359  37.356   1.841
44007W        W 9267  19.525  34.882  11.605
44008W        W 9268  38.050  31.994   3.830
44009W        W 9269  13.469   6.371  13.368
44010W        W 9270   6.996  22.196   1.781
44011W        W 9271  31.985  43.802   2.183
44012W        W 9272  29.388   5.112   4.836
44013W        W 9273   4.041  27.651   2.268
44014W        W 9274  23.352   2.771   3.709
44015W        W 9275  34.689   0.440  12.962
44016W        W 9276  22.784  43.794   4.171
44017W        W 9277   4.152   9.617   2.191
44018W        W 9278   0.999  42.908  11.977
44019W        W 9279  16.383  18.227   0.932
44020W        W 9280  20.555  43.047  12.087
44021W        W 9281  40.371  33.090   2.136
44022W        W 9282  23.644  34.324   1.344
44023W        W 9283  37.612  35.354   3.779
44024W        W 9284  35.414   7.322  12.830
44025W        W 9285  13.315  22.762   0.328
44026W        W 9286  21.266  38.248  14.758
44027W        W 9287  18.599  23.276  13.902
44028W        W 9288  20.016   3.115   2.125
44029W        W 9289  43.154  27.006   2.806
44030W        W 9290  31.212  20.115   2.270
44031W        W 9291   5.687   1.977  11.924
44032W        W 9292  26.474  30.961   3.834
44033W        W 9293  10.606   3.862   4.598
44034W        W 9294  20.705  34.540  12.838
44035W        W 9295  23.095  12.919  13.904
44036W        W 9296  40.977  26.225  13.956
44037W        W 9297  16.246  44.104  12.809
44038W        W 9298  38.053  12.848   3.253
44039W        W 9299  17.139  11.726   0.236
44040W        W 9300   8.803  20.760   3.764
44041W        W 9301  24.191  35.672   0.370
44042W        W 9302  11.457  42.502  12.103
44043W        W 9303  19.783  33.399  14.567
44044W        W 9304  11.068  17.585   4.059
44045W        W 9305  29.893  29.084   4.531
44046W        W 9306   4.819  29.944  14.725
44047W        W 9307  26.624  44.208   2.762
44048W        W 9308  39.865  27.556  13.695
44049W        W 9309  37.647  36.883  12.251
44050W        W 9310  11.840  18.614  12.904
44051W        W 9311  37.505  29.784   1.392
44052W        W 9312  34.459   6.714   3.159
44053W        W 9313  35.473  25.035   3.792
44054W        W 9314  27.888  12.658  12.090
44055W        W 9315  20.606  15.016   0.382
44056W        W 9316  35.869  12.361  11.195
44057W        W 9317  20.565   2.854   1.019
44058W        W 9318  35.583  19.986   3.168
44059W        W 9319  16.187   5.153   1.332
44060W        W 9320  29.685  11.393  12.792
44061W        W 9321  29.837  41.934   3.305
44062W        W 9322  14.254  33.879   2.909
44063W        W 9323  29.652  18.757   3.131
44064W        W 9324  42.579  25.571  13.424
44065W        W 9325  41.521  17.122  11.662
44066W        W 9326  43.037  34.450  12.053
44067W        W 9327  18.087  39.554  11.759
44068W        W 9328  24.278  32.985  14.858
44069W        W 9329  39.015  19.296  14.027
44070W        W 9330   0.965  30.257   1.738
44071W        W 9331  28.070  20.846  11.051
44072W        W 9332  38.472  11.132   4.599
44073W        W 9333  37.338   4.596  12.037
44074W        W 9334  35.148  15.623  12.855
44075W        W 9335  25.026  33.060   1.482
44076W        W 9336  36.729  36.895  13.188
44077W        W 9337  17.096  36.299  14.736
44078W        W 9338   7.061  24.555  12.398
44079W        W 9339  33.195   6.662   3.738
44080W        W 9340  21.811  12.625  11.536
44081W        W 9341  39.658  34.593  11.605
44082W        W 9342  39.006  41.483  12.987
44083W        W 9343  21.114  24.694  13.502
44084W        W 9344  31.400   9.421   1.336
44085W        W 9345  43.506   5.400  14.045
44086W        W 9346  17.263  13.475   3.868
44087W        W 9347  18.137  30.741   3.151
44088W        W 9348  20.428  34.016  14.483
44089W        W 9349   5.204  38.454  11.531
44090W        W 9350  13.386  40.346  10.108
44091W        W 9351  25.954   4.798  14.784
44092W        W 9352  36.788   9.164  10.893
44093W        W 9353  12.005  29.031   4.221
44094W        W 9354  27.531  19.139   1.489
44095W        W 9355  44.809  40.100  14.941
44096W        W 9356  43.278  23.693   3.331
44097W        W 9357  23.679  32.609   3.456
44098W        W 9358  13.688  44.475   0.919
44099W        W 9359  41.841  28.593   3.320
44100W        W 9360  19.034  17.764  11.621
44101W        W 9361  21.474   4.179  14.855
44102W        W 9362   4.373  18.708   0.333
44103W        W 9363  43.759  32.462   0.198
44104W        W 9364  12.193  25.438  14.476
44105W        W 9365  32.907   3.007   4.268
44106W        W 9366  23.731  33.376   1.449
44107W        W 9367  25.511  15.202  12.504
44108W        W 9368  20.955  40.549   2.630
44109W        W 9369  26.218  19.314  13.047
44110W        W 9370   2.264  20.081  12.878
44111W        W 9371  43.252  38.394   3.445
44112W        W 9372  38.154  18.012   1.374
44113W        W 9373  12.212  14.602   4.577
44114W        W 9374  26.455  33.692   2.033
44115W        W 9375  18.071  35.903  13.918
44116W        W 9376  35.143  12.569  11.576
44117W        W 9377   0.441   6.109   4.215
44118W        W 9378   0.077  37.088   1.833
44119W        W 9379   2.809  26.308  11.240
44120W        W 9380   1.455  34.658   1.671
44121W        W 9381  13.710  41.516  14.320
44122W        W 9382  41.516   4.900   3.628
44123W        W 9383  18.144  43.725  14.328
44124W        W 9384  43.887  21.123   9.947
44125W        W 9385  34.527   8.663   1.335
44126W        W 9386   9.529  13.058  12.171
44127W        W 9387   2.716  44.975   2.745
44128W        W 9388   5.598  33.076  12.051
44129W        W 9389  22.800  29.992  12.459
44130W        W 9390   1.552  14.777  14.542
44131W        W 9391  34.111  12.164   4.277
44132W        W 9392  13.825  39.524  14.265
44133W        W 9393   7.157  37.946   3.617
44134W        W 9394  23.589  17.690   3.094
44135W        W 9395  39.936  43.966   4.267
44136W        W 9396  41.565  17.751   2.659
44137W        W 9397  23.903  11.131  13.911
44138W        W 9398  17.891  11.371   4.874
44139W        W 9399  43.910  37.189  12.516
44140W        W 9400  33.130   5.069  10.510
44141W        W 9401  39.512  35.469  10.620
44142W        W 9402  19.210   0.240   0.287
44143W        W 9403  34.858   0.823   3.168
44144W        W 9404  20.193  19.692  12.894
44145W        W 9405  42.439   2.991   2.233
44146W        W 9406  27.161  36.986  10.498
44147W        W 9407  36.387  24.520  14.281
44148W        W 9408  38.795  41.057  10.275
44149W        W 9409  33.401  43.813   0.175
44150W        W 9410  42.767  30.088   2.711
44151W        W 9411  21.132  39.780  13.301
44152W        W 9412  17.806  26.133  11.636
44153W        W 9413   7.693  20.318  12.983
44154W        W 9414  11.971  21.982  11.580
44155W        W 9415  28.444  13.936  14.284
44156W        W 9416  30.374  44.869   3.275
44157W        W 9417  22.747   9.444   5.713
44158W        W 9418  36.097   3.777   1.227
44159W        W 9419  18.727  36.585   2.651
44160W        W 9420   3.344  31.419   3.432
44161W        W 9421  18.495   8.227   0.731
44162W        W 9422  33.510  37.574  10.942
44163W        W 9423  25.564  24.646  13.930
44164W        W 9424  34.026   4.525   0.642
44165W        W 9425  37.016   2.389  13.123
44166W        W 9426   1.560  34.356   4.250
44167W        W 9427  29.486  44.091   5.176
44168W        W 9428  42.076  34.385   0.845
44169W        W 9429  40.062  10.785   3.068
44170W        W 9430   3.216  16.214  14.898
44171W        W 9431  44.482  28.206   0.426
44172W        W 9432  22.772  19.647  11.609
44173W        W 9433  40.954  12.933  14.959
44174W        W 9434  31.403   1.777   1.701
44175W        W 9435  32.817  25.539  14.255
44176W        W 9436  41.984  41.306  13.695
44177W        W 9437  19.565  35.486  13.793
44178W        W 9438   2.951   1.064   0.775
44179W        W 9439  33.220  20.553  13.381
44180W        W 9440   1.057  23.450   4.947
44181W        W 9441  29.968  44.223   3.781
44182W        W 9442  33.371   5.327   0.714
44183W        W 9443  19.489  10.576  13.382
44184W        W 9444  38.900  41.204   1.607
44185W        W 9445   3.363   4.952  11.970
44186W        W 9446  25.522  11.624   3.431
44187W        W 9447  30.094   7.267  13.416
44188W        W 9448  14.672  14.894   0.235
44189W        W 9449   6.431  28.476   2.728
44190W        W 9450  21.330   8.240   3.889
44191W        W 9451  10.051   8.338   4.975
44192W        W 9452  44.853  27.609   4.154
44193W        W 9453  42.427  32.446   3.094
44194W        W 9454  44.976   0.915   4.861
44195W        W 9455  12.667  16.199   1.284
44196W        W 9456  27.394   9.211  11.611
44197W        W 9457  33.105  19.858  14.748
44198W        W 9458  11.408  26.083   1.689
44199W        W 9459  31.554  35.056  12.036
44200W        W 9460   4.835  19.073   1.309
44201W        W 9461  19.647  18.335   4.582
44202W        W 9462  34.687  37.685  11.327
44203W        W 9463   8.335  35.175   3.691
44204W        W 9464  36.816  10.213  10.667
44205W        W 9465   5.660  39.833   2.181
44206W        W 9466   9.298   5.711  10.640
44207W        W 9467  19.889  39.523  11.612
44208W        W 9468   5.468  27.168  12.932
44209W        W 9469  10.363   0.231  11.618
44210W        W 9470   7.438  40.575   0.277
44211W        W 9471  42.067  18.630   3.060
44212W        W 9472  32.395  21.622  12.261
44213W        W 9473  16.269  31.826  12.331
44214W        W 9474   1.900  40.387   1.370
44215W        W 9475  38.009  18.048  14.771
44216W        W 9476   9.163  22.252  13.057
44217W        W 9477  34.458  41.605  12.543
44218W        W 9478  32.433  42.475   2.901
44219W        W 9479  44.406  27.728  12.287
44220W        W 9480  42.160  11.381   9.929
44221W        W 9481  14.415  40.957   4.660
44222W        W 9482   0.439  19.639   2.196
44223W        W 9483   2.426  39.370  11.454
44224W        W 9484  23.604  34.392   4.668
44225W        W 9485  10.133  44.906   1.533
44226W        W 9486  22.626  23.888  12.433
44227W        W 9487  18.540  42.571   2.524
44228W        W 9488  20.483  35.290   1.088
44229W        W 9489   4.938  38.069  14.175
44230W        W 9490  10.200  32.098  13.939
44231W        W 9491   2.519  28.980   4.475
44232W        W 9492  10.238  40.600   0.482
44233W        W 9493  11.692  14.868  11.025
44234W        W 9494  18.078   2.817  12.097
44235W        W 9495   9.423  35.982   2.290
44236W        W 9496   6.780  37.455  10.711
44237W        W 9497  16.392  38.421  13.841
44238W        W 9498  11.690  22.081  13.365
44239W        W 9499  37.873  28.418   2.263
44240W        W 9500  41.030  24.000   1.725
44241W        W 9501  15.247  40.125   4.099
44242W        W 9502  39.710  17.114  12.986
44243W        W 9503  28.414  26.151  13.503
44244W        W 9504  14.845  12.701   5.011
44245W        W 9505  35.063  33.196   5.046
44246W        W 9506  24.246  19.191  13.994
44247W        W 9507   0.904  30.598   4.864
44248W        W 9508  37.045  24.144  11.233
44249W        W 9509   2.917  41.488   1.940
44250W        W 9510  10.632  30.633   4.713
44251W        W 9511  35.624  17.226   4.232
44252W        W 9512  11.106  14.264   0.031
44253W        W 9513  25.739  11.127   2.702
44254W        W 9514  26.801  29.453   3.632
44255W        W 9515   8.455  15.231  10.725
44256W        W 9516  43.003  44.359  10.960
44257W        W 9517   5.708  41.440   3.217
44258W        W 9518  24.558  13.550  13.778
44259W        W 9519  42.760  39.870  12.368
44260W        W 9520  40.431  42.760   1.495
44261W        W 9521  42.223  40.971   3.785
44262W        W 9522  18.678  32.683  11.084
44263W        W 9523  17.145  34.956   0.817
44264W        W 9524  15.127  43.750   4.487
44265W        W 9525   2.833  27.065   4.004
44266W        W 9526   1.284   9.956  14.376
44267W        W 9527  17.570  26.540   3.850
44268W        W 9528   2.967  11.133   4.606
44269W        W 9529  37.993  24.774   0.283
44270W        W 9530  38.500  40.467   1.186
44271W        W 9531  32.944  28.408   3.750
44272W        W 9532  12.848  14.264   5.045
44273W        W 9533  19.528  38.303  11.054
44274W        W 9534  22.079  20.623   1.670
44275W        W 9535  30.565   7.844   0.075
44276W        W 9536  43.288   4.214   1.233
44277W        W 9537  26.715  22.148   5.051
44278W        W 9538  31.637  34.404  13.982
44279W        W 9539  20.014  35.133   0.906
44280W        W 9540  42.729  31.367   2.275
44281W        W 9541  16.730  29.558  13.369
44282W        W 9542   2.157   5.371   2.834
44283W        W 9543  29.707  35.962   3.232
44284W        W 9544   5.744  42.385  13.936
44285W        W 9545  37.629   9.262   2.449
44286W        W 9546   4.361  24.812  12.436
44287W        W 9547  17.244  39.556  10.715
44288W        W 9548  34.812  19.131  12.515
44289W        W 9549  38.072   0.114  12.326
44290W        W 9550   8.194   3.340   5.105
44291W        W 9551  37.608  21.968  11.673
44292W        W 9552  12.279   7.763   3.191
44293W        W 9553  36.732   9.800  13.065
44294W        W 9554  31.955  32.433   0.675
44295W        W 9555   0.335  30.938  14.858
44296W        W 9556  28.980   5.034  14.915
44297W        W 9557   5.916  24.673  14.829
44298W        W 9558  36.719  18.107   1.166
44299W        W 9559   9.867  17.719   3.152
44300W        W 9560   6.235   2.557   1.316
44301W        W 9561  25.415   5.760  12.580
44302W        W 9562  31.183  38.472  11.055
44303W        W 9563   6.563  25.795   4.624
44304W        W 9564  40.532  29.212  12.471
44305W        W 9565  24.996  15.660   4.635
44306W        W 9566  24.124  17.103   4.160
44307W        W 9567  41.551  19.088  13.079
44308W        W 9568  18.187  33.508  11.097
44309W        W 9569  25.077  29.518   0.552
44310W        W 9570  22.680  28.537   3.180
44311W        W 9571  43.919  21.871   3.604
44312W        W 9572   9.732  19.701   1.779
44313W        W 9573  19.186  25.296   1.846
44314W        W 9574   7.347  42.067   3.936
44315W        W 9575  12.305  29.561   1.946
44316W        W 9576  38.749  22.236   4.392
44317W        W 9577   3.418   6.838  13.071
44318W        W 9578  29.639  41.467  11.008
44319W        W 9579   1.534  37.844   4.189
44320W        W 9580  36.297   8.715   1.620
44321W        W 9581  37.117  34.673   3.483
44322W        W 9582  25.143  38.919  12.147
44323W        W 9583   5.156   8.371  11.687
44324W        W 9584  20.318  32.564   1.866
44325W        W 9585  43.746  23.736  14.502
44326W        W 9586  44.355   2.400   2.382
44327W        W 9587  34.788  42.915   2.162
44328W        W 9588   0.704  40.956   4.628
44329W        W 9589   0.783  40.837   0.499
44330W        W 9590  41.814  43.313   2.203
44331W        W 9591  25.940  19.121  12.380
44332W        W 9592   1.028  20.733   1.694
44333W        W 9593   4.324  41.966   0.857
44334W        W 9594   3.537  12.575  12.467
44335W        W 9595  29.599  37.812   1.887
44336W        W 9596   4.444   0.274   4.119
44337W        W 9597  42.322   7.250   2.266
44338W        W 9598  27.965  37.998   1.718
44339W        W 9599  10.260  29.740  10.475
44340W        W 9600  37.093  11.938  12.052
44341W        W 9601  26.908  41.802  11.593
44342W        W 9602  42.111  11.651   0.028
44343W        W 9603  24.128  41.601  14.271
44344W        W 9604   5.274  30.401   4.854
44345W        W 9605  38.091   5.177   2.058
44346W        W 9606   0.405  33.551  13.945
44347W        W 9607  28.828  23.591  14.337
44348W        W 9608  41.530  34.983  12.502
44349W        W 9609  12.662  16.755   1.839
44350W        W 9610  32.084  11.629  11.839
44351W        W 9611  21.646  18.481   1.352
44352W        W 9612  29.888  21.656   0.462
44353W        W 9613  39.804  32.335   2.283
44354W        W 9614  16.472  38.395   3.116
44355W        W 9615  37.078  24.734   4.124
44356W        W 9616  14.553  42.361   2.723
44357W        W 9617  11.311  23.603  14.918
44358W        W 9618  13.091   8.619  14.296
44359W        W 9619  16.915  27.687  12.400
44360W        W 9620   1.168  15.061   3.570
44361W        W 9621  17.844   6.786   0.080
44362W        W 9622  41.105  23.167   0.840
44363W        W 9623  12.254  27.076  14.424
44364W        W 9624   6.425   7.833   4.507
44365W        W 9625  37.072   9.728  14.332
44366W        W 9626   9.271  37.270   2.690
44367W        W 9627   2.354  37.387   3.723
44368W        W 9628  20.077  24.188   0.009
44369W        W 9629  28.243  39.881  12.443
44370W        W 9630  39.535  30.551  12.868
44371W        W 9631  10.394  35.025   4.995
44372W        W 9632  11.330  18.504  12.872
44373W        W 9633  21.160  43.325  12.622
44374W        W 9634   3.692  12.807  12.037
44375W        W 9635   8.941  44.738  13.958
44376W        W 9636  15.734  42.802  13.272
44377W        W 9637  41.005  37.548  13.420
44378W        W 9638  44.324  22.437  14.049
44379W        W 9639  44.294  29.044   3.601
44380W        W 9640  17.665  36.099  10.532
44381W        W 9641  18.702  39.947  14.716
44382W        W 9642  17.819  35.927   3.277
44383W        W 9643  20.584  30.862   0.081
44384W        W 9644  32.400  32.060  11.035
44385W        W 9645   6.466  20.971  12.464
44386W        W 9646  30.448  16.870  11.568
44387W        W 9647   0.019  36.437  10.865
44388W        W 9648  27.359  27.183   2.791
44389W        W 9649  23.482  19.370  11.243
44390W        W 9650  18.694   9.006  11.982
44391W        W 9651   6.465  32.744   2.196
44392W        W 9652   1.676  31.005  11.989
44393W        W 9653  43.791  28.174   4.609
44394W        W 9654  38.066  32.606  14.525
44395W        W 9655  36.590  32.154   4.967
44396W        W 9656  22.517  12.615   1.644
44397W        W 9657  43.503  29.960  13.546
44398W        W 9658  11.734  18.972  13.752
44399W        W 9659  22.068  22.810   1.422
44400W        W 9660  44.947   6.410  10.945
44401W        W 9661  44.387   2.387  14.383
44402W        W 9662  32.570  39.301  14.305
44403W        W 9663  14.336  21.308  13.487
44404W        W 9664  32.994   7.279  14.807
44405W        W 9665   9.290   2.460  14.239
44406W        W 9666  33.460  44.533  13.292
44407W        W 9667   2.665   4.876  11.625
44408W        W 9668  42.542   4.671  13.024
44409W        W 9669  26.022  29.415   4.828
44410W        W 9670  16.640  37.950  13.972
44411W        W 9671  12.217   6.124   3.569
44412W        W 9672  30.241  26.276  11.657
44413W        W 9673  41.792   0.880   4.108
44414W        W 9674  11.740   7.666   2.654
44415W        W 9675  23.110  15.947  12.047
44416W        W 9676  17.176  29.103   1.645
44417W        W 9677  30.922  42.697  13.956
44418W        W 9678  33.097  43.574   1.129
44419W        W 9679  27.956  42.444  13.767
44420W        W 9680  15.175   0.419   2.312
44421W        W 9681  44.584  22.922   2.402
44422W        W 9682  10.600  11.314   2.703
44423W        W 9683  40.368  23.181  14.820
44424W        W 9684  10.879  25.603  14.845
44425W        W 9685  22.188  37.878   2.392
44426W        W 9686  14.215   4.322  12.241
44427W        W 9687  42.328  23.660  14.548
44428W        W 9688  10.544  37.022   4.543
44429W        W 9689  32.873  20.561  14.045
44430W        W 9690  37.861   1.149   2.125
44431W        W 9691  23.165  34.871   9.849
44432W        W 9692  12.293  43.283   2.773
44433W        W 9693  33.481  33.384  14.368
44434W        W 9694  35.812   9.266  14.408
44435W        W 9695  36.118  38.850   2.584
44436W        W 9696  32.528  20.544  11.618
44437W        W 9697  16.216  40.461   2.890
44438W        W 9698   1.369  37.430   2.432
44439W        W 9699  36.422  35.547  13.149
44440W        W 9700  31.692  16.505   3.237
44441W        W 9701  26.190  14.755   0.662
44442W        W 9702  28.641  15.007   1.397
44443W        W 9703  37.495  30.480   1.190
44444W        W 9704  27.894   1.972  14.754
44445W        W 9705  27.775  28.980  13.936
44446W        W 9706  36.017  11.343   0.386
44447W        W 9707  41.832  14.470  11.987
44448W        W 9708  25.938  23.587   0.859
44449W        W 9709   9.551  39.834   4.441
44450W        W 9710  24.298  35.408  12.475
44451W        W 9711  36.053   2.300   2.379
44452W        W 9712  26.651  41.710  14.940
44453W        W 9713  11.222  31.553  12.051
44454W        W 9714  17.273  32.728   0.351
44455W        W 9715  37.022  44.359   0.999
44456W        W 9716  10.623   4.182   4.191
44457W        W 9717   5.686  41.863  13.393
44458W        W 9718   1.210  41.025   3.886
44459W        W 9719  10.865  19.172   1.383
44460W        W 9720  33.469  33.583   2.624
44461W        W 9721  35.477   5.609  13.715
44462W        W 9722  37.448  26.454   1.326
44463W        W 9723  14.122  21.079   4.640
44464W        W 9724   6.935  37.976   4.100
44465W        W 9725  44.594  23.637   2.911
44466W        W 9726  40.778  25.365  11.571
44467W        W 9727  30.434  10.675  14.438
44468W        W 9728  40.892  16.028   3.657
44469W        W 9729  25.876  20.951  12.509
44470W        W 9730  25.416  36.409   1.750
44471W        W 9731   9.654  12.411   0.690
44472W        W 9732   3.392   8.506  14.787
44473W        W 9733   5.229  22.087  14.868
44474W        W 9734  16.087  16.226   2.705
44475W        W 9735   2.884  28.722   3.227
44476W        W 9736  12.609   3.833   9.717
44477W        W 9737  37.257  14.825  10.978
44478W        W 9738  41.962  34.528  14.549
44479W        W 9739   8.344  43.444   0.271
44480W        W 9740   2.923  20.756  11.133
44481W        W 9741  14.182  24.265   0.897
44482W        W 9742  13.182  16.809   1.856
44483W        W 9743   4.340   9.847  14.508
44484W        W 9744  11.350  14.198   2.331
44485W        W 9745   4.243  43.703  14.516
44486W        W 9746  42.380  28.518  11.692
44487W        W 9747  35.460   1.066  12.401
44488W        W 9748  10.844  36.499  11.356
44489W        W 9749   9.790   8.143  14.166
44490W        W 9750  28.648  42.881  13.236
44491W        W 9751   1.193  33.128   3.854
44492W        W 9752  31.556  31.973  13.086
44493W        W 9753  19.601   1.742   2.344
44494W        W 9754   7.659  11.998   0.982
44495W        W 9755  24.777  23.919   2.282
44496W        W 9756   4.907  19.501  11.204
44497W        W 9757  22.461  18.205  10.229
44498W        W 9758  34.441  42.317   1.906
44499W        W 9759  30.820  44.816  12.855
44500W        W 9760  31.844  13.071  10.832
44501W        W 9761  20.616  44.998  13.859
44502W        W 9762   8.719   5.155  12.918
44503W        W 9763  27.931  17.003  12.832
44504W        W 9764  41.922   8.266  10.787
44505W        W 9765  41.669  16.800   0.884
44506W        W 9766  39.285   3.935  13.989
44507W        W 9767  33.969   4.946  11.077
44508W        W 9768   6.227  39.499  10.722
44509W        W 9769  43.873  43.351  10.640
44510W        W 9770  43.435  27.482  11.451
44511W        W 9771  14.342  42.412  10.843
44512W        W 9772  39.031  33.909   4.328
44513W        W 9773  38.356  41.955  13.494
44514W        W 9774   1.845   1.452   1.128
44515W        W 9775  22.629  43.299  14.440
44516W        W 9776  17.862   4.893  12.654
44517W        W 9777  26.230  24.019   0.846
44518W        W 9778  25.581  43.145   2.710
44519W        W 9779  23.257  24.171   2.123
44520W        W 9780   8.829  28.162   2.780
44521W        W 9781   1.768   3.020   1.757
44522W        W 9782  27.839   9.606   4.476
44523W        W 9783   5.222  39.136   0.828
44524W        W 9784  43.437  42.507   4.137
44525W        W 9785  42.394  42.520   4.949
44526W        W 9786   8.825  33.458   2.785
44527W        W 9787  16.153   5.512   0.401
44528W        W 9788  10.239  25.426   1.860
44529W        W 9789  18.458  19.108  12.438
44530W        W 9790  10.291  12.599  12.173
44531W        W 9791  42.970  38.985   4.572
44532W        W 9792  39.641  35.452   4.623
44533W        W 9793  27.652  34.480   0.373
44534W        W 9794  30.403  35.981   2.244
44535W        W 9795   4.813   8.162  14.689
44536W        W 9796  14.177  35.042  14.924
44537W        W 9797  12.865   2.299  14.525
44538W        W 9798  18.720  12.759  12.540
44539W        W 9799   2.735   8.794  13.909
44540W        W 9800  14.256  27.193  12.954
44541W        W 9801  18.219   5.247  11.539
44542W        W 9802  33.993  12.923   3.886
44543W        W 9803  31.078   4.121  11.957
44544W        W 9804  10.406  25.473   4.548
44545W        W 9805  44.682  44.391   3.004
44546W        W 9806  16.585  19.200  11.914
44547W        W 9807  43.794  22.142  13.064
44548W        W 9808  15.244  17.454  14.808
44549W        W 9809  11.674   7.244  10.379
44550W        W 9810  40.355  28.547   3.640
44551W        W 9811  34.796  31.490  12.914
44552W        W 9812  38.559  32.119  12.447
44553W        W 9813  33.278  42.900   5.204
44554W        W 9814  30.543  21.162  10.623
44555W        W 9815  17.189  22.073   2.176
44556W        W 9816  42.027  34.912   0.866
44557W        W 9817  39.576  28.882   3.144
44558W        W 9818  28.636  18.316  13.995
44559W        W 9819  41.862  26.879  14.834
44560W        W 9820  14.827  43.990  11.398
44561W        W 9821  43.464  30.969   3.665
44562W        W 9822  10.097   1.741  12.513
44563W        W 9823  30.235  14.767  10.768
44564W        W 9824   6.913  17.596   0.407
44565W        W 9825  13.540  21.531  13.365
44566W        W 9826  11.412  27.524   4.409
44567W        W 9827   7.213  43.876   2.729
44568W        W 9828  19.079  39.946  13.034
44569W        W 9829  25.254  31.475  14.431
44570W        W 9830  26.033  16.501  11.535
44571W        W 9831  40.264   4.710   1.755
44572W        W 9832  35.649  16.357   4.144
44573W        W 9833  25.170  39.455   2.627
44574W        W 9834   9.936  38.120  13.769
44575W        W 9835   5.369  35.061   0.078
44576W        W 9836  24.774  22.314  12.500
44577W        W 9837  21.116  38.734   9.873
44578W        W 9838  24.640   2.183   2.643
44579W        W 9839  33.031  39.866  14.999
44580W        W 9840  36.322  29.961   4.579
44581W        W 9841  38.884  20.313  11.458
44582W        W 9842  26.874  43.032  14.108
44583W        W 9843  27.625   8.510  12.841
44584W        W 9844  21.123  25.244  13.448
44585W        W 9845  37.834  16.740  13.887
44586W        W 9846   1.247  31.971  11.837
44587W        W 9847  40.959  26.435   3.787
44588W        W 9848  43.187  32.582  12.944
44589W        W 9849  24.976  27.491  12.511
44590W        W 9850  42.196  16.667   2.302
44591W        W 9851  38.715  33.918   4.816
44592W        W 9852  24.400   8.226  12.048
44593W        W 9853  35.686  22.546   3.560
44594W        W 9854  41.739   6.910   2.706
44595W        W 9855  27.299   6.782  13.742
44596W        W 9856  37.357   8.371   4.948
44597W        W 9857   9.425  29.487  11.736
44598W        W 9858   9.583  32.036  11.198
44599W        W 9859  38.468  30.668  12.870
44600W        W 9860  33.460  10.849   4.213
44601W        W 9861  43.725  31.568   0.328
44602W        W 9862  24.568  30.863  12.597
44603W        W 9863  14.817   3.224  12.076
44604W        W 9864  21.775  21.202  10.772
44605W        W 9865  40.822  28.218  11.121
44606W        W 9866   9.128  26.979  12.858
44607W        W 9867  35.610  40.340  10.256
44608W        W 9868  15.453  22.850   0.704
44609W        W 9869  38.417  37.841  12.158
44610W        W 9870  35.354  40.811   2.253
44611W        W 9871  43.952  11.221   1.769
44612W        W 9872  44.830  11.807  13.858
44613W        W 9873  13.854  21.606  14.344
44614W        W 9874  32.538  23.135   1.147
44615W        W 9875  37.600   3.807  13.642
44616W        W 9876  15.218  32.575  13.037
44617W        W 9877  37.060   2.250   1.375
44618W        W 9878  20.164  42.776  13.641
44619W        W 9879  16.434   2.295  14.006
44620W        W 9880  35.543  30.916   3.297
44621W        W 9881  28.696  22.665  11.695
44622W        W 9882  34.553  14.791  12.982
44623W        W 9883  29.109   8.170  13.385
44624W        W 9884   0.070  13.433   4.582
44625W        W 9885   0.305  38.945  14.242
44626W        W 9886  28.533  25.927   3.651
44627W        W 9887  43.294  14.786  11.999
44628W        W 9888  44.704  38.275   3.649
44629W        W 9889  17.107  10.152   4.110
44630W        W 9890  23.716  39.802   4.170
44631W        W 9891  23.798   2.114   5.108
44632W        W 9892   5.939  14.190  14.978
44633W        W 9893  25.940  43.520  11.109
44634W        W 9894  37.084  34.190   3.292
44635W        W 9895  11.517  23.177   0.150
44636W        W 9896  17.547   5.253   2.349
44637W        W 9897   3.255  40.151  10.129
44638W        W 9898  11.845   7.241  11.396
44639W        W 9899  21.712  41.499  14.409
44640W        W 9900   3.185  36.402   3.687
44641W        W 9901  26.450  19.174  10.757
44642W        W 9902  17.314  26.235  12.491
44643W        W 9903  18.556  36.804  13.851
44644W        W 9904   2.351  28.689  14.454
44645W        W 9905  28.007  38.293  10.781
44646W        W 9906  12.551  26.758   4.517
44647W        W 9907  34.402   9.798   2.718
44648W        W 9908  15.794  23.903  12.513
44649W        W 9909  15.386  31.670  14.379
44650W        W 9910   8.249   5.409   1.795
44651W        W 9911   5.815   1.323   0.559
44652W        W 9912  18.935  32.337  12.008
44653W        W 9913   0.515  33.436  12.144
44654W        W 9914  29.426  20.701  12.844
44655W        W 9915   0.092  44.297   0.764
44656W        W 9916  12.648  26.993  11.559
44657W        W 9917   3.181  12.580  12.837
44658W        W 9918  20.326  18.304   2.858
44659W        W 9919  30.575  30.912   3.681
44660W        W 9920  24.464   6.013   1.401
44661W        W 9921  35.904  35.660  12.073
44662W        W 9922  36.060  28.267   2.775
44663W        W 9923  38.992  31.990   0.056
44664W        W 9924   3.009   5.140   4.434
44665W        W 9925  43.900  12.304   0.276
44666W        W 9926   6.236  35.902  14.229
44667W        W 9927  29.089  41.951   4.354
44668W        W 9928  25.942  29.963  14.531
44669W        W 9929  23.496   2.425  11.147
44670W        W 9930   7.412   8.670  11.106
44671W        W 9931  34.606   9.903  11.963
44672W        W 9932  30.248  27.104  11.448
44673W        W 9933  21.550  14.127  11.612
44674W        W 9934  18.595  11.228   4.097
44675W        W 9935  39.868  40.897  12.099
44676W        W 9936  11.846  13.690   2.694
44677W        W 9937  36.874   6.375   2.985
44678W        W 9938   9.209  44.696   1.987
44679W        W 9939   9.951  25.406  11.494
44680W        W 9940  27.819   4.902  12.126
44681W        W 9941  28.444  15.011  13.793
44682W        W 9942  37.927  29.337  12.882
44683W        W 9943  10.490  41.808  12.937
44684W        W 9944   2.583  15.194  12.342
44685W        W 9945  10.773  44.274   4.410
44686W        W 9946  39.647  18.530   4.343
44687W        W 9947   2.519  13.717   0.366
44688W        W 9948   3.526  22.323   2.252
44689W        W 9949  41.823  27.281  10.403
44690W        W 9950   5.835  24.156  13.630
44691W        W 9951   3.379  30.670   4.664
44692W        W 9952  34.584  30.205   4.252
44693W        W 9953  42.803   4.780   1.776
44694W        W 9954  27.991  28.902  14.423
44695W        W 9955  35.006  43.403  11.873
44696W        W 9956  12.210   3.509  10.633
44697W        W 9957  31.962   5.297  12.665
44698W        W 9958   1.470  25.215   2.332
44699W        W 9959  44.748  31.007   2.884
44700W        W 9960   6.696  33.651  13.983
44701W        W 9961  10.841   7.220  12.581
44702W        W 9962  12.777  11.888  12.416
44703W        W 9963   7.192  21.522  14.885
44704W        W 9964   3.453   3.915  10.949
44705W        W 9965  27.561  29.160   4.064
44706W        W 9966   8.353  18.232   2.266
44707W        W 9967  25.461  25.867   2.244
44708W        W 9968   2.782  20.646  13.376
44709W        W 9969  30.419  40.986  10.656
44710W        W 9970  33.110   6.059   4.611
44711W        W 9971  13.665  22.213  12.104
44712W        W 9972  30.618  36.387   3.490
44713W        W 9973  44.845  30.700  13.742
44714W        W 9974  31.775  26.278   0.494
44715W        W 9975   2.493  37.332   2.800
44716W        W 9976  34.505  26.335   0.311
44717W        W 9977  15.687  36.578   4.911
44718W        W 9978  26.086  11.749   4.957
44719W        W 9979  15.017  23.610   4.515
44720W        W 9980  44.808  37.797   2.837
44721W        W 9981  21.211  27.735  13.070
44722W        W 9982  19.115  10.112   3.488
44723W        W 9983  14.396   6.887   2.985
44724W        W 9984   6.284  17.172  14.337
44725W        W 9985  28.909  43.329  12.111
44726W        W 9986  26.839  15.850  13.521
44727W        W 9987  44.736  15.132  13.822
44728W        W 9988  23.973   6.215  13.264
44729W        W 9989   7.139   7.025  11.388
44730W        W 9990  30.567   4.711   3.108
44731W        W 9991  35.875  10.897  12.429
44732W        W 9992  14.099  25.242   0.741
44733W        W 9993  11.521  34.062  10.535
44734W        W 9994  37.341   5.769   0.033
44735W        W 9995  18.776  42.027   3.263
44736W        W 9996  27.810   9.203   0.284
44737W        W 9997  13.042  25.896   3.316
44738W        W 9998  26.901  26.677   1.320
44739W        W 9999  44.331  42.455   4.395
44740W        W10000  34.950  43.908  14.004
44741W        W10001  38.969   4.653   3.340
44742W        W10002   8.976  39.888  12.572
44743W        W10003  24.110  42.476   4.729
44744W        W10004  36.047   9.310  12.907
44745W        W10005  29.173  23.211   4.070
44746W        W10006  16.564  22.462  12.939
44747W        W10007  25.661  16.834   3.295
44748W        W10008  23.142  32.812  13.158
44749W        W10009  40.062  26.927   3.988
44750W        W10010  42.599  44.097  11.648
44751W        W10011  15.275  17.243   0.461
44752W        W10012  31.474  12.535   1.807
44753W        W10013   2.727   7.345   1.025
44754W        W10014  28.068   1.445  14.397
44755W        W10015  29.182   8.224  12.479
44756W        W10016   2.812  11.719   0.830
44757W        W10017  30.735  16.513  14.449
44758W        W10018   0.007  20.514  13.916
44759W        W10019  13.258  35.814  11.622
44760W        W10020  39.284  37.465   2.719
44761W        W10021  36.889  24.216  10.739
44762W        W10022  36.201  12.803  10.537
44763W        W10023  21.207  41.814   2.308
44764W        W10024  18.569  29.994   4.501
44765W        W10025   1.639  34.959   0.859
44766W        W10026  11.915  34.822  11.540
44767W        W10027  43.396   7.789   0.216
44768W        W10028  40.308  30.660  14.362
44769W        W10029  24.495   5.680   1.796
44770W        W10030  17.106   6.984   3.314
44771W        W10031   4.288  38.056   1.906
44772W        W10032  31.510  33.876   1.874
44773W        W10033  21.724  27.927   4.551
44774W        W10034   2.748  22.511   4.625
44775W        W10035   3.262  36.094  11.208
44776W        W10036   7.875  39.350  14.096
44777W        W10037  43.109  14.350  12.896
44778W        W10038   2.949  21.779  11.143
44779W        W10039  14.685  18.766  12.935
44780W        W10040  26.085   6.580  14.346
44781W        W10041   8.203  43.767  12.498
44782W        W10042  10.957  36.457   1.550
44783W        W10043  14.664  24.728  11.079
44784W        W10044  14.291  19.284  10.970
44785W        W10045  21.231  28.419  14.517
44786W        W10046   7.267  13.664   1.909
44787W        W10047  36.641  21.380   1.847
44788W        W10048  37.868  19.347  12.415
44789W        W10049  30.153  38.686  13.909
44790W        W10050   0.330  12.883   1.731
44791W        W10051   0.271  12.216  13.952
44792W        W10052  31.666  26.646  12.866
44793W        W10053  32.897   1.079   4.018
44794W        W10054  37.502  41.037  11.698
44795W        W10055  44.463  11.850  11.280
44796W        W10056   9.991  24.139  12.027
44797W        W10057  39.932  24.063   3.811
44798W        W10058  30.765  44.286  12.832
44799W        W10059  21.966  22.078  12.981
44800W        W10060   5.712   1.005  12.208
44801W        W10061  30.815  19.002   4.624
44802W        W10062   6.607  43.613   1.922
44803W        W10063   2.831  39.780   2.401
44804W        W10064   7.457  35.236   0.718
44805W        W10065  38.336  18.213  13.911
44806W        W10066  32.541  19.363  10.299
44807W        W10067   6.318  32.946  14.000
44808W        W10068  25.569  11.215  13.069
44809W        W10069  40.501  35.801  11.992
44810W        W10070  21.433   4.295  13.098
44811W        W10071  17.790   4.060  13.577
44812W        W10072  37.820  31.641  14.525
44813W        W10073  29.030  10.624   3.329
44814W        W10074  28.629  18.179   0.760
44815W        W10075  33.833  14.344   4.929
44816W        W10076  13.637   6.765  13.016
44817W        W10077   2.450  43.837  14.380
44818W        W10078  12.141   3.219  11.577
44819W        W10079   7.687  10.580  14.291
44820W        W10080  21.253  10.019   0.909
44821W        W10081  12.896  19.149  11.432
44822W        W10082  44.843  35.010   3.486
44823W        W10083  38.416   1.663   1.150
44824W        W10084  40.004   9.295  11.482
44825W        W10085  22.178   8.374   2.676
44826W        W10086  17.813  11.353   1.699
44827W        W10087   3.355   3.640   1.029
44828W        W10088   1.171  29.251   2.607
44829W        W10089  29.215  27.112  12.941
44830W        W10090   5.730  30.662  13.084
44831W        W10091  14.599   1.685  12.478
44832W        W10092   1.684   1.224  10.980
44833W        W10093  35.404   7.613  11.485
44834W        W10094  26.523  41.951   3.235
44835W        W10095  24.775  39.781   4.142
44836W        W10096  29.761  14.120   4.961
44837W        W10097  27.704  18.551   2.341
44838W        W10098  10.706   3.899  10.947
44839W        W10099   0.938  30.233   0.969
44840W        W10100  17.299  29.696  11.051
44841W        W10101  15.163  18.164  13.091
44842W        W10102  29.376  16.504   3.394
44843W        W10103  15.309  40.025  14.006
44844W        W10104  43.804   2.954   2.427
44845W        W10105  23.621  11.830   4.584
44846W        W10106  39.291  11.767   1.798
44847W        W10107   0.439  12.808   1.230
44848W        W10108  19.990  16.343   1.478
44849W        W10109   1.193  44.325   0.454
44850W        W10110   4.635   2.307   3.566
44851W        W10111  33.621  23.733   4.072
44852W        W10112  24.276  16.299   4.056
44853W        W10113  11.636   9.811  10.752
44854W        W10114  26.612  41.165  11.070
44855W        W10115  38.257   5.178   0.321
44856W        W10116   0.648   1.909  13.944
44857W        W10117  19.678  23.536   1.659
44858W        W10118   7.163  22.793   2.578
44859W        W10119  42.645   3.961   2.156
44860W        W10120  13.452   7.810   3.286
44861W        W10121   0.822  44.826   2.391
44862W        W10122  42.714  30.604  11.518
44863W        W10123   5.983  16.668   0.015
44864W        W10124  18.874  12.107  14.898
44865W        W10125  19.064  12.001  11.575
44866W        W10126  38.551  26.092   3.638
44867W        W10127  39.883   7.776  12.508
44868W        W10128   9.779  22.994   3.717
44869W        W10129  32.934  39.083   2.378
44870W        W10130  10.114  19.718  12.966
44871W        W10131  14.058   1.328   4.887
44872W        W10132   3.289  18.329  10.750
44873W        W10133  20.975  32.158   1.831
44874W        W10134  19.127   4.784   3.356
44875W        W10135   3.829   4.320   0.706
44876W        W10136  21.039  33.569   2.831
44877W        W10137  29.102   0.675  13.121
44878W        W10138  25.932  15.202  14.792
44879W        W10139  39.785  37.561   2.891
44880W        W10140  22.864  30.287   4.513
44881W        W10141  24.591  22.249   9.697
44882W        W10142  23.790  34.970   4.026
44883W        W10143  36.457  25.384   3.797
44884W        W10144  26.699  11.305  12.491
44885W        W10145  29.334  41.952   0.012
44886W        W10146  34.493  10.230   4.561
44887W        W10147  12.333   3.409   3.177
44888W        W10148   6.762   1.116   0.090
44889W        W10149  39.910   1.294  10.683
44890W        W10150  36.425  11.201   1.293
44891W        W10151  12.056  38.380  14.619
44892W        W10152  19.796  10.271  13.066
44893W        W10153  41.769  43.854   0.980
44894W        W10154  31.461   6.659  11.616
44895W        W10155  35.513  26.673  10.599
44896W        W10156  42.530   6.825  11.635
44897W        W10157   4.882  44.454  14.663
44898W        W10158  36.536  42.910  13.035
44899W        W10159  32.078  44.760  14.409
44900W        W10160   8.935  35.462   3.223
44901W        W10161  43.045  14.674  12.447
44902W        W10162   7.836   0.291   2.224
44903W        W10163  18.598   6.228  11.908
44904W        W10164  28.434  29.564  11.693
44905W        W10165  31.342  36.476  11.258
44906W        W10166  10.378   2.039  12.108
44907W        W10167  36.531  44.488   4.511
44908W        W10168  17.689  18.205   4.941
44909W        W10169  18.120  21.758   3.702
44910W        W10170  39.918  34.691   4.129
44911W        W10171  28.632   9.118  10.816
44912W        W10172  30.397  35.139  13.060
44913W        W10173  40.583   1.747   2.842
44914W        W10174  17.725  28.785  10.934
44915W        W10175  17.478  44.902   2.306
44916W        W10176  27.944  32.132  13.978
44917W        W10177  24.334   6.259   3.655
44918W        W10178   2.716  31.115   0.880
44919W        W10179  44.037  14.565  11.776
44920W        W10180  20.304   0.859  14.728
44921W        W10181   7.494   4.816   0.185
44922W        W10182  28.969  38.561   2.797
44923W        W10183  28.533  38.443   1.009
44924W        W10184  37.811  12.204  12.621
44925W        W10185  26.946  23.029  11.886
44926W        W10186  44.990  22.271   1.324
44927W        W10187  33.879  40.791  13.613
44928W        W10188  41.441  43.214   0.291
44929W        W10189  43.519   4.319  10.734
44930W        W10190   7.760   9.764   4.972
44931W        W10191  41.305  23.164   1.320
44932W        W10192  44.944  24.294   0.947
44933W        W10193  35.132  25.648  12.931
44934W        W10194  12.642  12.314  13.856
44935W        W10195  30.032  40.549   0.460
44936W        W10196  33.248   5.197   1.250
44937W        W10197  44.248  35.318  14.415
44938W        W10198  19.897  19.438  13.271
44939W        W10199  31.423  19.530   3.709
44940W        W10200  16.475  17.563   9.679
44941W        W10201   2.460  18.659   1.462
44942W        W10202  12.262   5.395  12.842
44943W        W10203   6.833   3.831   2.394
44944W        W10204  26.485  37.513   1.316
44945W        W10205  12.173  35.423   2.573
44946W        W10206  21.072  33.978   1.209
44947W        W10207  14.370  31.173  10.759
44948W        W10208  37.782   3.313   0.350
44949W        W10209  18.002  26.103   2.414
44950W        W10210  11.382  25.159   2.473
44951W        W10211  35.949  33.394  11.648
44952W        W10212  27.079  15.983   2.865
44953W        W10213  10.944  30.339  11.342
44954W        W10214  27.632   4.606   3.615
44955W        W10215   0.257  23.921   1.828
44956W        W10216  24.501  43.852  10.203
44957W        W10217  39.873  27.028  13.380
44958W        W10218  29.165  36.226   2.740
44959W        W10219  26.460  32.271  13.205
44960W        W10220  14.816  41.714   2.120
44961W        W10221  25.470  26.010   0.485
44962W        W10222  23.965  10.313   0.071
44963W        W10223   7.364  39.628   4.214
44964W        W10224   8.235   5.446  12.048
44965W        W10225  25.930   0.442  11.495
44966W        W10226  12.021   0.186  13.133
44967W        W10227  27.381  44.801   0.728
44968W        W10228   3.243   4.829  10.470
44969W        W10229  18.486  21.996   1.809
44970W        W10230  19.815  39.633  13.975
44971W        W10231  27.137  39.364  14.810
44972W        W10232  15.033  41.349  11.482
44973W        W10233  20.980  34.059  13.559
44974W        W10234  43.228  13.801   4.206
44975W        W10235  15.325  24.071  12.440
44976W        W10236  37.363  22.260  14.863
44977W        W10237  30.588  27.979   2.740
44978W        W10238  34.419  21.990   3.800
44979W        W10239  37.868  37.542   4.671
44980W        W10240  29.635  43.859   3.091
44981W        W10241  13.567   1.734   1.981
44982W        W10242   2.051  15.462  11.163
44983W        W10243  26.267  10.788  11.221
44984W        W10244  29.014  12.591  13.720
44985W        W10245  39.862   3.496   4.103
44986W        W10246  31.041  19.776  12.433
44987W        W10247  27.332  22.173   1.087
44988W        W10248  43.135  17.627  14.539
44989W        W10249  16.025  19.665   3.650
44990W        W10250  13.696  24.662   4.627
44991W        W10251  34.558  29.133   4.213
44992W        W10252  36.667  36.352  14.149
44993W        W10253  30.882  31.366  13.326
44994W        W10254   5.678  26.627   3.164
44995W        W10255  12.186  38.380  14.135
44996W        W10256   0.039  24.511  13.502
44997W        W10257  21.490  26.896   1.312
44998W        W10258  17.267   0.263  10.720
44999W        W10259  22.776  12.791   4.056
45000W        W10260  11.753  41.510  10.197
45001W        W10261   4.938   0.007   4.129
45002W        W10262   9.283  16.007  13.338
45003W        W10263  18.123  14.142  13.881
45004W        W10264   7.206  13.071  13.955
45005W        W10265   3.716   4.284  12.848
45006W        W10266   7.571  42.221  12.391
45007W        W10267   0.540  22.034   3.316
45008W        W10268  39.486  10.428   2.030
45009W        W10269  31.370  20.876  14.010
45010W        W10270  13.658  34.875   4.701
45011W        W10271  34.045  36.897  14.907
45012W        W10272  43.873  18.962  13.767
45013W        W10273  38.846  16.801   2.644
45014W        W10274  43.046  14.027  14.862
45015W        W10275   9.552  28.869  12.938
45016W        W10276  14.678   0.641  13.241
45017W        W10277  39.915  39.377   0.291
45018W        W10278  18.019  24.614  10.430
45019W        W10279  28.334  27.456   3.577
45020W        W10280   8.238  44.799   3.757
45021W        W10281   7.232  41.948  13.320
45022W        W10282   9.405  39.318   2.738
45023W        W10283  16.040  27.553   1.321
45024W        W10284  19.098  24.986   3.200
45025W        W10285  27.674  34.501  12.967
45026W        W10286  42.378   5.149  11.957
45027W        W10287  35.442  17.264  12.071
45028W        W10288  36.152   0.443   2.230
45029W        W10289   6.673  21.117   2.526
45030W        W10290  40.795   5.994  13.976
45031W        W10291  34.695  38.120   0.994
45032W        W10292  29.543  44.409   1.128
45033W        W10293  40.319  24.031  12.511
45034W        W10294  22.504   7.310   2.216
45035W        W10295   6.971  34.745  12.382
45036W        W10296  20.048  40.427  13.509
45037W        W10297   8.076  25.502   2.279
45038W        W10298   0.591  35.939   4.599
45039W        W10299  30.590  30.223   2.521
45040W        W10300  35.208   2.717   1.328
45041W        W10301  31.205   9.619   0.861
45042W        W10302  24.728  21.300   0.816
45043W        W10303  30.520  35.837   0.714
45044W        W10304  34.666  33.391   1.159
45045W        W10305   8.924  33.966   2.744
45046W        W10306  30.494   5.744  11.852
45047W        W10307  27.682  28.592  12.602
45048W        W10308  17.475   9.870  11.475
45049W        W10309  43.477  19.264  13.953
45050W        W10310   0.761  28.914  13.613
45051W        W10311  29.291   5.223   2.867
45052W        W10312  32.905  41.792   1.239
45053W        W10313  35.086  34.604  11.104
45054W        W10314  40.031   5.347  12.429
45055W        W10315  24.113  21.532  13.410
45056W        W10316   8.249  16.149   1.228
45057W        W10317  13.758   5.897   4.457
45058W        W10318  16.997   5.800   2.846
45059W        W10319   6.465  34.410   3.733
45060W        W10320  40.563  13.640   4.571
45061W        W10321  13.750   2.708   3.178
45062W        W10322   0.907   2.724  12.014
45063W        W10323  17.200  36.993   0.246
45064W        W10324  22.017  13.801  14.496
45065W        W10325  37.862  27.008   4.015
45066W        W10326  15.179  35.484   4.707
45067W        W10327  22.901   6.161  12.930
45068W        W10328   7.724  24.479  11.213
45069W        W10329  31.210  23.303  10.747
45070W        W10330  37.096   3.314  13.785
45071W        W10331  13.414  33.391   2.164
45072W        W10332  11.487  17.689  13.141
45073W        W10333  43.060  19.681  12.625
45074W        W10334   8.259  42.203  11.537
45075W        W10335  28.110  42.810  10.663
45076W        W10336  19.025  32.876  13.937
45077W        W10337  19.190  15.333  14.557
45078W        W10338  38.100  19.253  11.554
45079W        W10339  20.364  29.258   2.279
45080W        W10340  11.342  10.469   0.371
45081W        W10341  18.159   0.096   3.624
45082W        W10342   0.206  23.084  13.379
45083W        W10343   6.602  35.575  10.967
45084W        W10344  25.224  16.729  12.618
45085W        W10345  15.829  34.858   2.257
45086W        W10346  18.319   1.981  12.354
45087W        W10347   5.577  12.727   4.667
45088W        W10348  34.941  13.575  11.503
45089W        W10349  15.309  19.741   5.157
45090W        W10350  23.632  43.363   4.426
45091W        W10351  41.765  33.161   1.262
45092W        W10352  28.096  33.091  10.598
45093W        W10353  43.364  19.737   1.016
45094W        W10354  16.073  17.047  14.280
45095W        W10355  30.528  27.775   1.816
45096W        W10356  31.052  16.087   4.603
45097W        W10357  22.423  26.009   0.239
45098W        W10358  13.881  29.446  11.582
45099W        W10359  13.184  38.451   3.190
45100W        W10360   8.423  28.461  14.930
45101W        W10361  43.351  34.191   4.704
45102W        W10362  18.210   2.488   2.746
45103W        W10363  31.921  37.978   0.429
45104W        W10364   6.716  23.090   4.066
45105W        W10365   9.224  37.742   1.807
45106W        W10366  41.827   0.841  14.594
45107W        W10367  11.659  30.310   1.789
45108W        W10368  19.940  24.092  10.383
45109W        W10369  28.696   9.862  13.719
45110W        W10370  43.521  41.493  11.189
45111W        W10371  12.437  19.748   1.366
45112W        W10372  16.300  16.862   0.602
45113W        W10373  15.655  21.047  13.231
45114W        W10374  14.117  24.730  13.752
45115W        W10375  13.579  18.189   2.297
45116W        W10376   8.879  36.094  13.540
45117W        W10377  36.640  34.221   1.035
45118W        W10378  31.973  12.191   2.152
45119W        W10379  13.798   8.193   4.555
45120W        W10380  29.596  12.629   0.780
45121W        W10381   7.253  18.138  14.585
45122W        W10382  29.664  33.928   3.279
45123W        W10383   9.396  11.368  13.838
45124W        W10384  21.029  35.827   1.369
45125W        W10385   6.145  31.435   1.761
45126W        W10386  20.622  28.892  12.915
45127W        W10387  20.950   8.841  14.446
45128W        W10388  25.406  35.374  11.050
45129W        W10389   0.697  20.774   3.528
45130W        W10390  11.312  24.029   1.247
45131W        W10391  40.360   2.280   1.829
45132W        W10392   8.345  31.369   3.994
45133W        W10393   0.846   3.267  11.263
45134W        W10394  19.748  30.393  10.246
45135W        W10395  37.750  25.199  12.088
45136W        W10396   9.658   9.297  10.701
45137W        W10397   8.962  21.644   2.839
45138W        W10398   5.394   4.010   1.759
45139W        W10399  38.848  27.656   1.668
45140W        W10400   2.142  29.762   4.162
45141W        W10401   4.657  39.041  13.848
45142W        W10402  19.228   6.326   1.691
45143W        W10403  17.827  17.999   2.922
45144W        W10404  35.307  29.663  12.907
45145W        W10405  12.146   4.956   3.118
45146W        W10406  12.639  24.759  13.928
45147W        W10407  39.710  25.429  12.883
45148W        W10408   1.455  37.476   1.465
45149W        W10409   3.695  11.403   2.426
45150W        W10410  13.277  33.538  14.479
45151W        W10411  44.343  33.112   1.246
45152W        W10412   5.714  10.256  12.456
45153W        W10413  44.738  28.477  12.941
45154W        W10414  10.222  24.449   3.637
45155W        W10415   1.006   3.250   1.026
45156W        W10416  19.635  32.437   4.472
45157W        W10417  10.345   8.813  12.303
45158W        W10418  16.243   3.881  13.477
45159W        W10419  42.452  22.495   0.243
45160W        W10420  42.604  14.351   1.235
45161W        W10421   6.232  19.515   1.242
45162W        W10422  17.545  44.004  13.058
45163W        W10423  36.455  16.534  10.570
45164W        W10424  38.829  15.808   1.402
45165W        W10425  33.821  35.588  14.303
45166W        W10426   9.684  30.687   1.275
45167W        W10427  35.304  12.236  12.392
45168W        W10428  19.238  22.372   1.317
45169W        W10429  20.135  29.459   3.623
45170W        W10430  38.914  43.241   4.506
45171W        W10431  18.124  14.753   4.181
45172W        W10432  39.912   2.253   3.093
45173W        W10433  23.500  10.085   4.095
45174W        W10434   4.866  27.059   2.307
45175W        W10435  19.019  15.648   1.794
45176W        W10436  22.509   2.020   2.825
45177W        W10437  14.656  18.252   4.851
45178W        W10438   5.064   5.446  11.852
45179W        W10439  32.746   6.833  11.334
45180W        W10440   6.466   1.905   0.904
45181W        W10441   4.874  19.300  11.704
45182W        W10442   7.735  36.012   3.529
45183W        W10443   0.868  29.685  12.493
45184W        W10444  18.540  28.004  14.459
45185W        W10445   2.541  37.512  10.631
45186W        W10446  37.055  16.690  10.517
45187W        W10447  22.476  42.905  13.792
45188W        W10448  29.493  17.429   3.720
45189W        W10449  27.490  30.396  13.819
45190W        W10450  34.429  15.340  10.690
45191W        W10451  23.749  28.886   2.730
45192W        W10452  10.112  34.343  10.777
45193W        W10453  27.853  44.472  11.155
45194W        W10454  44.282  10.311   4.653
45195W        W10455  20.010   6.448  12.588
45196W        W10456   3.261  24.672   3.191
45197W        W10457  21.756  33.867   0.721
45198W        W10458  27.105   5.000   2.352
45199W        W10459  28.080  38.091  11.238
45200W        W10460  44.459   2.475  12.507
45201W        W10461   4.404  39.801   3.782
45202W        W10462  14.111   2.483  13.804
45203W        W10463   6.475  42.328   0.308
45204W        W10464  37.556  11.257  14.588
45205W        W10465  30.951  43.334  12.439
45206W        W10466   6.657   2.592  13.470
45207W        W10467   2.182  19.238   4.406
45208W        W10468  31.423  38.909   4.893
45209W        W10469  27.121  25.135  12.597
45210W        W10470  29.232  18.488   3.112
45211W        W10471   7.750  10.634   0.268
45212W        W10472  20.134  24.531  10.617
45213W        W10473  44.973  27.376   1.211
45214W        W10474  19.482  41.406  13.831
45215W        W10475  37.435  40.858  13.469
45216W        W10476  23.558  30.947   1.499
45217W        W10477   1.771  18.030   0.819
45218W        W10478  28.026  21.173   3.276
45219W        W10479  25.530   2.422   3.217
45220W        W10480   6.780  24.183  13.961
45221W        W10481  38.073  11.360  13.103
45222W        W10482   5.402  22.690   4.269
45223W        W10483   4.414  42.003  13.967
45224W        W10484  18.531   0.939   0.718
45225W        W10485  23.975   0.363   0.755
45226W        W10486  16.737  17.129   9.762
45227W        W10487  10.464  25.454  11.353
45228W        W10488  41.443  43.492  14.829
45229W        W10489  27.147  40.888   0.864
45230W        W10490  43.810  22.917  11.256
45231W        W10491  40.778  41.715   3.232
45232W        W10492  33.452   8.439  14.726
45233W        W10493  37.826  34.501  11.046
45234W        W10494   9.267  41.821   2.145
45235W        W10495  25.261  21.866  13.583
45236W        W10496  17.146  19.094   0.327
45237W        W10497  30.043   4.692  14.420
45238W        W10498  39.008  22.594   2.091
45239W        W10499  10.318   8.155  13.049
45240W        W10500   7.900  33.045   2.830
45241W        W10501  31.619   0.863   1.656
45242W        W10502   5.247  44.329  10.713
45243W        W10503  24.461   0.799  12.632
45244W        W10504  27.392   0.833   1.024
45245W        W10505  30.505   0.709   4.295
45246W        W10506   2.792  43.434   0.572
45247W        W10507   8.658  12.681  12.996
45248W        W10508  40.939  43.886   4.632
45249W        W10509  17.742   7.433  14.095
45250W        W10510  34.770  38.224  12.078
45251W        W10511   1.503  34.307  11.563
45252W        W10512  33.461  43.219   1.282
45253W        W10513  16.592  38.249  12.110
45254W        W10514  10.793  12.626   0.307
45255W        W10515  28.576  14.811   0.234
45256W        W10516   6.360  29.609  14.846
45257W        W10517   9.716   4.977   3.224
45258W        W10518  27.426  39.793  13.412
45259W        W10519  40.442  18.074   1.921
45260W        W10520  13.217  24.141   2.916
45261W        W10521  38.084   4.486   4.567
45262W        W10522   5.195  43.553   0.237
45263W        W10523  12.435  42.455   0.982
45264W        W10524   2.324  31.844   1.880
45265W        W10525  15.624  42.432  14.502
45266W        W10526   7.385   5.334  14.084
45267W        W10527  17.623  22.192  11.578
45268W        W10528  29.495  24.141   2.685
45269W        W10529  24.174   1.870  11.336
45270W        W10530  42.775   8.418  12.948
45271W        W10531  20.711  37.570   2.623
45272W        W10532  12.370  36.933  13.824
45273W        W10533  40.371  10.197  14.136
45274W        W10534   2.360  25.673  11.654
45275W        W10535   9.022  42.791   4.187
45276W        W10536  40.535  21.659  11.618
45277W        W10537   5.517   8.666  10.813
45278W        W10538  31.965  21.351  10.693
45279W        W10539   1.724  42.073   3.358
45280W        W10540   0.191  44.520  10.704
45281W        W10541  13.299  31.174   2.696
45282W        W10542  27.221  36.762  12.005
45283W        W10543  35.358  41.993   3.816
45284W        W10544  26.441   3.401  11.572
45285W        W10545  17.614   0.882   1.531
45286W        W10546  13.373  38.897  13.891
45287W        W10547  15.368  23.722  13.836
45288W        W10548  28.091   5.213  13.785
45289W        W10549  35.315  24.447   0.395
45290W        W10550   9.179  16.819   0.934
45291W        W10551  31.513  31.135  13.562
45292W        W10552   0.244  12.618  10.848
45293W        W10553  15.202  18.520   0.861
45294W        W10554  35.406   2.407  13.667
45295W        W10555   0.780  42.224   3.182
45296W        W10556  26.154  33.178  13.439
45297W        W10557   3.540  13.770  14.352
45298W        W10558  10.408   0.755  13.289
45299W        W10559  12.866   0.239  14.837
45300W        W10560  19.777  17.252  11.679
45301W        W10561  27.287  27.075  11.124
45302W        W10562  17.612  29.158  14.110
45303W        W10563   3.849  28.214  13.267
45304W        W10564   3.832  15.239   2.831
45305W        W10565   2.687  32.091  13.337
45306W        W10566  43.518  14.915  10.157
45307W        W10567  26.489  21.989   3.348
45308W        W10568  38.507  17.304   2.894
45309W        W10569  26.666  36.990  10.664
45310W        W10570  23.581  22.282   4.278
45311W        W10571  26.585  11.540   2.630
45312W        W10572   5.771  41.540  14.812
45313W        W10573   8.813  29.549   0.545
45314W        W10574  20.796  31.177  14.014
45315W        W10575   7.179  31.994  12.444
45316W        W10576  15.067  15.943  13.481
45317W        W10577  35.710   7.325  14.895
45318W        W10578  25.229   5.939  11.153
45319W        W10579  40.893  23.613   4.900
45320W        W10580  42.020  29.058   4.145
45321W        W10581  19.263  43.500  11.497
45322W        W10582   3.958  16.538   3.599
45323W        W10583  23.222   0.017  10.686
45324W        W10584  33.018  24.966  13.462
45325W        W10585   2.762  28.379   2.890
45326W        W10586  43.882  41.958   0.482
45327W        W10587  22.159  11.066  12.918
45328W        W10588  10.565  33.108   0.536
45329W        W10589  33.494  34.169   4.681
45330W        W10590  19.661  18.871  12.420
45331W        W10591  26.087  27.339  10.680
45332W        W10592   9.344  25.746   3.254
45333W        W10593  34.892  43.462   5.088
45334W        W10594  25.143   5.469  12.126
45335W        W10595  27.244  38.381  13.053
45336W        W10596   6.436  19.560   0.291
45337W        W10597   3.137  16.490   4.022
45338W        W10598   3.859  39.618  12.033
45339W        W10599  20.845  20.607   3.321
45340W        W10600  10.151  43.754  13.909
45341W        W10601  20.797   7.664   9.947
45342W        W10602  13.015  36.533  10.712
45343W        W10603  27.565  33.059  14.711
45344W        W10604  40.346  16.892  12.419
45345W        W10605   0.830   1.897  12.604
45346W        W10606  28.955   2.702   1.878
45347W        W10607  36.464  32.428  14.844
45348W        W10608  39.094   9.832   1.567
45349W        W10609  24.199  38.595   4.462
45350W        W10610   6.027  17.663  12.065
45351W        W10611  23.439  41.508  11.463
45352W        W10612  10.670  27.675   5.609
45353W        W10613  26.959  33.274   5.223
45354W        W10614  16.201  28.510   4.066
45355W        W10615  26.293  12.289  11.509
45356W        W10616  40.826  14.048   3.036
45357W        W10617  25.910  34.539   0.812
45358W        W10618  29.562  38.859  10.516
45359W        W10619   4.582  17.628  10.403
45360W        W10620  19.256  18.861   1.217
45361W        W10621  17.154  21.690  13.782
45362W        W10622  30.722  44.268   4.422
45363W        W10623  43.960   7.325   0.718
45364W        W10624  36.046  22.030  12.947
45365W        W10625   8.448  12.155  10.646
45366W        W10626  18.239  27.435   0.240
45367W        W10627   6.466   3.611  13.059
45368W        W10628   4.871   4.264  14.981
45369W        W10629  14.106  31.293   3.301
45370W        W10630  18.961   5.785   0.825
45371W        W10631  34.940  41.114  14.002
45372W        W10632  21.473  15.119   2.592
45373W        W10633  23.571  37.944  12.592
45374W        W10634  35.259   4.305  11.172
45375W        W10635  27.871  20.623   3.260
45376W        W10636  16.719  28.948  11.976
45377W        W10637  14.733  25.123  12.628
45378W        W10638   9.609  26.946  14.851
45379W        W10639  29.797  17.318   2.883
45380W        W10640  41.142   1.952   3.092
45381W        W10641   6.145   4.171   0.432
45382W        W10642   5.619  22.110  11.106
45383W        W10643  18.466   6.204  10.541
45384W        W10644   3.182  37.982   2.164
45385W        W10645  39.407  28.181  12.696
45386W        W10646  43.788   3.063  13.996
45387W        W10647  20.102  43.704   1.682
45388W        W10648  41.838  26.436   1.638
45389W        W10649   6.682  16.321   0.759
45390W        W10650  12.485  43.936  13.620
45391W        W10651  26.579  36.804   4.250
45392W        W10652  15.757  11.110   4.879
45393W        W10653  28.817  12.307  14.184
45394W        W10654  20.622  35.706  10.170
45395W        W10655   9.695  25.381  14.031
45396W        W10656  40.576  44.310  13.906
45397W        W10657   0.267  42.089  13.449
45398W        W10658   6.879  13.341   1.127
45399W        W10659  27.457  35.548  13.286
45400W        W10660  39.532   2.328   0.840
45401W        W10661  41.103   9.682   1.951
45402W        W10662   9.113  27.266  13.832
45403W        W10663  11.058  26.501  13.391
45404W        W10664  28.926  41.785   0.272
45405W        W10665  44.793  16.913   0.522
45406W        W10666  22.356  13.709  12.390
45407W        W10667  27.506  37.201  12.076
45408W        W10668  36.945  26.011   3.759
45409W        W10669  18.761  23.578  12.525
45410W        W10670  20.716  41.133   4.362
45411W        W10671   5.184  24.460   3.598
45412W        W10672  31.097  31.654  12.383
45413W        W10673  21.309  17.128   0.590
45414W        W10674  44.244  22.827   0.355
45415W        W10675   9.767  41.831  13.615
45416W        W10676   1.900  13.292   2.398
45417W        W10677  10.319  13.432  13.420
45418W        W10678  34.524  41.798  14.714
45419W        W10679  43.288  10.611  12.049
45420W        W10680   8.976  44.077  14.225
45421W        W10681  29.453  18.070  10.767
45422W        W10682  25.535  23.698  11.445
45423W        W10683  26.623  16.731   2.841
45424W        W10684  14.771  24.077   4.636
45425W        W10685  44.589  14.354   1.524
45426W        W10686  44.900   8.684   1.557
45427W        W10687   8.413  36.110  10.820
45428W        W10688  12.445  10.115  12.605
45429W        W10689  41.368  39.533  13.169
45430W        W10690  36.485   9.557   0.470
45431W        W10691  21.643   0.383   0.928
45432W        W10692  28.519  14.534  11.372
45433W        W10693  27.492  32.505  14.783
45434W        W10694   5.352  21.080  14.996
45435W        W10695  13.314  44.257   4.737
45436W        W10696   4.910   1.046  12.649
45437W        W10697  18.509  40.982   4.868
45438W        W10698  39.856  20.184   2.555
45439W        W10699  31.525  17.295   4.597
45440W        W10700   1.207  19.647   4.020
45441W        W10701  18.735   0.480   5.085
45442W        W10702  34.293  16.601   4.907
45443W        W10703   0.734  25.107   2.676
45444W        W10704   5.750  11.682  11.969
45445W        W10705  44.477  17.072   5.396
45446W        W10706  30.146  39.742   3.689
45447W        W10707  26.991  43.417   2.810
45448W        W10708   1.234  33.907  14.461
45449W        W10709  36.916  25.191   9.809
45450W        W10710  17.247  40.252   1.984
45451W        W10711  26.162   5.572  12.217
45452W        W10712  13.895  36.372  11.076
45453W        W10713  11.414  31.235  14.669
45454W        W10714  33.368  42.315  11.612
45455W        W10715  30.467  11.796   0.329
45456W        W10716  14.941   9.617   3.718
45457W        W10717  34.763  25.879   5.366
45458W        W10718  35.070  32.294  14.173
45459W        W10719  39.467  22.385  12.329
45460W        W10720  35.839  36.853  13.877
45461W        W10721  11.752   0.457  14.011
45462W        W10722  18.951  23.394   9.694
45463W        W10723  10.490  24.160  11.933
45464W        W10724  40.456  35.142  12.548
45465W        W10725  23.717  40.336   3.549
45466W        W10726   5.603  33.235   0.469
45467W        W10727   4.224  26.116  10.686
45468W        W10728  32.319  20.353  14.787
45469W        W10729  18.046  41.267  14.032
45470W        W10730  35.545  19.237  13.021
45471W        W10731  13.138   5.179  14.360
45472W        W10732  37.555  36.911   4.877
45473W        W10733  35.088  44.712   2.703
45474W        W10734  34.865   9.337  14.812
45475W        W10735   9.427  15.483  13.392
45476W        W10736  28.994  24.318   4.685
45477W        W10737  31.255  39.592   0.285
45478W        W10738  20.369  33.318  13.223
45479W        W10739   5.829  22.291  10.652
45480W        W10740  16.773  42.892  10.720
45481W        W10741  14.561   6.580   0.409
45482W        W10742   6.471  10.708   2.083
45483W        W10743  34.841   8.237   3.168
45484W        W10744  10.256   9.256  13.546
45485W        W10745  25.947  34.319  10.604
45486W        W10746  20.989  34.932  13.421
45487W        W10747  36.548   3.000   3.264
45488W        W10748  12.259  10.506   4.337
45489W        W10749  19.678  21.265   5.082
45490W        W10750  15.763  33.096  10.325
45491W        W10751  17.880  30.135   2.832
45492W        W10752  14.575  32.806   2.942
45493W        W10753  36.386  26.212  14.910
45494W        W10754   1.050   5.775   4.580
45495W        W10755  32.345  22.002   3.657
45496W        W10756  40.809   0.246  13.389
45497W        W10757  22.844  38.930  14.782
45498W        W10758  37.952  43.463  12.461
45499W        W10759  20.063  42.389   1.759
45500W        W10760  16.974  10.625  12.048
45501W        W10761  41.475  34.497  12.990
45502W        W10762   2.969  36.547  14.474
45503W        W10763  13.134  24.996  10.962
45504W        W10764  22.115  29.053  10.905
45505W        W10765  26.146  32.935  11.094
45506W        W10766  18.430  26.954   0.354
45507W        W10767  29.767  26.250   3.689
45508W        W10768  33.567  26.410   0.524
45509W        W10769  31.035  29.867  10.708
45510W        W10770  36.596  12.792   2.766
45511W        W10771  13.255  11.148   3.195
45512W        W10772  18.764  35.607   0.126
45513W        W10773  29.099   7.864  14.189
45514W        W10774  16.398  44.830  13.629
45515W        W10775  11.321  17.640  14.018
45516W        W10776  24.518  37.388   2.445
45517W        W10777  11.941  43.318  11.932
45518W        W10778  27.979   0.022   1.836
45519W        W10779  44.864   7.940  13.010
45520W        W10780  17.517  11.811   0.552
45521W        W10781  26.906   8.556  11.919
45522W        W10782  33.798  22.699   1.794
45523W        W10783  24.031  31.881  10.238
45524W        W10784  36.188  23.225   3.148
45525W        W10785  19.353  21.094  13.632
45526W        W10786  26.904  39.153   0.764
45527W        W10787  19.071  37.976   0.958
45528W        W10788  43.920   5.240   3.027
45529W        W10789  21.765  43.881   4.134
45530W        W10790  17.230  11.202   3.826
45531W        W10791  22.213  44.914   3.325
45532W        W10792  22.254  30.168  13.521
45533W        W10793  39.215   9.703  13.911
45534W        W10794  43.592  26.019  11.181
45535W        W10795  29.323  15.771  11.175
45536W        W10796  39.031   6.179   3.245
45537W        W10797  21.666   2.486  11.585
45538W        W10798  16.470  42.375  11.535
45539W        W10799   1.439   9.756  12.109
45540W        W10800  20.097  41.695  11.253
45541W        W10801   7.739  33.089  13.413
45542W        W10802  40.864  21.762   3.759
45543W        W10803  17.697  31.441  13.876
45544W        W10804   1.054  40.405  12.098
45545W        W10805  36.808  32.461  14.465
45546W        W10806  43.341  16.623  14.796
45547W        W10807   0.265   0.651   0.815
45548W        W10808  42.823   5.243   4.869
45549W        W10809  40.476   3.969   4.092
45550W        W10810  26.420   2.113  14.796
45551W        W10811  15.157  27.401  13.958
45552W        W10812  21.349  32.349  13.430
45553W        W10813  33.642  17.683  13.882
45554W        W10814  17.829   7.844  12.260
45555W        W10815  11.713  24.430  11.931
45556W        W10816  26.380   9.004   1.245
45557W        W10817  20.036  44.129  11.559
45558W        W10818  37.914  29.382  10.649
45559W        W10819  40.892  27.551   1.887
45560W        W10820   2.280  32.548  10.566
45561W        W10821   3.312  15.249  13.759
45562W        W10822  26.455  11.243  11.175
45563W        W10823   3.518  29.483   1.385
45564W        W10824  39.316   4.793  12.371
45565W        W10825  44.304   6.640  14.251
45566W        W10826  20.776  26.646   4.984
45567W        W10827  22.683  21.525   3.651
45568W        W10828  10.161  40.255   4.160
45569W        W10829   9.899  21.297  13.403
45570W        W10830   8.830  30.945  14.259
45571W        W10831   3.259  29.603  12.504
45572W        W10832  25.227   6.855  14.043
45573W        W10833  26.064  39.514  12.915
45574W        W10834   2.327  19.073   0.284
45575W        W10835  42.827   7.499  13.489
45576W        W10836  14.852   9.757  10.909
45577W        W10837  23.685   9.780  14.403
45578W        W10838  13.270  27.510   0.264
45579W        W10839  17.996  44.802   4.094
45580W        W10840   8.292  34.047   2.381
45581W        W10841   6.231  34.934  10.646
45582W        W10842  36.626   0.384   2.387
45583W        W10843   4.915  26.011   1.190
45584W        W10844  36.096  17.561  12.946
45585W        W10845   2.740  14.036   4.597
45586W        W10846   9.115  21.255   4.168
45587W        W10847  31.023  27.445   3.219
45588W        W10848  18.326  41.381  14.966
45589W        W10849  24.687  34.847  11.706
45590W        W10850  11.343  26.030  13.317
45591W        W10851  43.821   3.348  11.447
45592W        W10852  33.886   5.675  11.487
45593W        W10853  16.222  22.842  14.898
45594W        W10854   1.050   4.702   0.009
45595W        W10855  31.700  10.322  12.897
45596W        W10856  33.616   2.449  12.620
45597W        W10857  19.081  26.037   0.918
45598W        W10858  13.131  17.189   3.150
45599W        W10859  27.975  20.331  13.835
45600W        W10860  15.562  40.802  11.189
45601W        W10861  11.222   4.173   2.694
45602W        W10862  42.634  29.960  11.046
45603W        W10863  33.138  42.040   0.330
45604W        W10864  15.366  30.013  11.641
45605W        W10865  37.706  36.452  12.557
45606W        W10866  30.563  34.177  10.655
45607W        W10867  39.928  42.990   0.740
45608W        W10868   6.866  19.813  13.020
45609W        W10869  23.165  15.751  14.770
45610W        W10870  19.525   1.879  13.898
45611W        W10871  34.978  28.457   1.651
45612W        W10872  35.506  16.834  13.897
45613W        W10873  41.352  42.890   0.738
45614W        W10874  23.586   3.477   4.204
45615W        W10875   7.889  40.379  14.401
45616W        W10876  10.598  21.703  10.519
45617W        W10877   2.710   4.446  11.997
45618W        W10878  22.894  38.565   4.394
45619W        W10879  28.784  16.010  14.050
45620W        W10880  33.745   9.770  14.518
45621W        W10881  43.445  11.156  14.461
45622W        W10882  37.924  11.093   3.287
45623W        W10883   5.708  17.814   3.200
45624W        W10884  29.085  30.908  13.274
45625W        W10885  23.104  28.001  13.766
45626W        W10886   9.162   1.946  10.753
45627W        W10887   8.132  44.273   0.279
45628W        W10888   9.343  13.686   2.817
45629W        W10889  39.881  18.021  14.721
45630W        W10890  30.100  37.737   2.045
45631W        W10891   9.506  30.936   3.357
45632W        W10892  33.210  23.749  14.654
45633W        W10893   3.890  24.708  12.642
45634W        W10894  26.697  22.142   4.129
45635W        W10895  13.060  42.911  10.860
45636W        W10896  16.778  43.435   2.888
45637W        W10897  16.654  13.244   3.439
45638W        W10898  23.098  25.778  14.495
45639W        W10899  16.136   9.200   3.830
45640W        W10900  17.011   8.035  11.368
45641W        W10901  28.899  35.237   2.651
45642W        W10902  20.554  42.539   0.296
45643W        W10903  31.446  32.764   2.787
45644W        W10904   7.082  43.024  12.108
45645W        W10905  14.226   7.774   5.558
45646W        W10906  33.400  18.437   2.861
45647W        W10907   1.217  39.044   1.956
45648W        W10908  11.752   1.493   3.469
45649W        W10909   7.483  21.496  14.462
45650W        W10910   6.702  18.691   1.449
45651W        W10911   2.823  14.662  12.006
45652W        W10912  37.318  10.649   5.136
45653W        W10913  35.603  17.117  14.955
45654W        W10914  25.460  37.915   2.330
45655W        W10915   7.686  44.563   0.448
45656W        W10916  35.826  41.230  11.107
45657W        W10917  14.697   2.370  14.520
45658W        W10918  15.473  30.409   3.715
45659W        W10919  18.108  22.243   0.895
45660W        W10920  16.613  31.835   2.054
45661W        W10921  37.029  24.146   4.258
45662W        W10922   9.696  41.756   4.897
45663W        W10923  11.605  43.239  14.946
45664W        W10924  39.546  23.340  14.368
45665W        W10925  14.699   1.505   0.760
45666W        W10926   2.058  19.815   1.821
45667W        W10927  33.159  26.782  13.985
45668W        W10928  44.916  29.942   2.720
45669W        W10929  15.202  43.448  10.720
45670W        W10930  20.445  43.261   2.633
45671W        W10931   1.905  22.416   3.950
45672W        W10932  40.395  18.298   1.412
45673W        W10933  39.887   9.314  12.515
45674W        W10934  23.566  33.135  13.328
45675W        W10935  32.860  31.629  14.045
45676W        W10936   2.320  18.386   1.922
45677W        W10937   5.912  27.280  11.168
45678W        W10938  17.329   2.665   4.164
45679W        W10939  29.045   9.340  14.360
45680W        W10940  16.718  40.483  11.518
45681W        W10941  18.057  42.709  14.453
45682W        W10942  22.629  34.372   4.507
45683W        W10943  18.321  12.552  12.039
45684W        W10944  19.832  27.116   2.818
45685W        W10945  41.386  44.786  12.337
45686W        W10946  12.813  36.448  11.967
45687W        W10947  12.882  37.121   3.854
45688W        W10948  18.539  40.869   0.793
45689W        W10949  35.615  11.393  12.943
45690W        W10950   4.237   5.236   2.305
45691W        W10951  10.920  14.327   0.583
45692W        W10952  29.663  14.886  13.572
45693W        W10953  13.123   6.999   2.135
45694W        W10954   0.454  40.982  13.518
45695W        W10955   4.218  12.778   2.173
45696W        W10956  37.320  27.907  13.545
45697W        W10957  30.797  14.054  11.323
45698W        W10958   1.018   4.472   0.865
45699W        W10959  43.606   1.010  12.257
45700W        W10960  43.585  34.642   3.720
45701W        W10961  10.078  44.078   2.847
45702W        W10962  34.876  38.904   3.706
45703W        W10963  20.626  34.195  14.970
45704W        W10964  29.620  26.675  10.267
45705W        W10965   1.055  21.610   0.964
45706W        W10966   8.202  37.341  13.403
45707W        W10967  14.347  29.075   1.830
45708W        W10968  16.645  28.956  14.505
45709W        W10969  44.459   3.002  12.482
45710W        W10970  21.611  32.437   2.611
45711W        W10971  35.578  20.366   1.400
45712W        W10972  20.333  18.130   1.661
45713W        W10973   8.259  13.842  12.604
45714W        W10974  19.892  25.425   1.064
45715W        W10975  44.807  17.180   4.629
45716W        W10976  32.604  37.306   5.290
45717W        W10977  30.011  25.662  14.806
45718W        W10978  16.250  39.910   1.579
45719W        W10979  15.704   6.231  10.932
45720W        W10980  34.088  10.495  11.181
45721W        W10981  33.477  13.616   2.800
45722W        W10982   4.121   9.806  12.271
45723W        W10983  15.160   0.743   0.768
45724W        W10984  18.679   2.277  14.177
45725W        W10985   5.765  43.829  14.501
45726W        W10986   4.849  31.307   2.353
45727W        W10987  31.031  14.611  13.360
45728W        W10988   5.407  34.407   3.688
45729W        W10989  11.341  19.801  11.471
45730W        W10990  22.966  13.517  13.437
45731W        W10991  24.214  32.514   2.815
45732W        W10992  10.174  16.811   1.721
45733W        W10993  27.184  13.178   3.219
45734W        W10994   2.177  22.285   1.779
45735W        W10995   4.873   6.150   4.135
45736W        W10996  34.473  23.800  13.491
45737W        W10997  34.725  28.110   1.928
45738W        W10998   2.040   5.936   0.873
45739W        W10999  33.609   9.344   0.740
45740W        W11000  16.519   1.469   3.659
45741W        W11001  35.594  41.195   3.227
45742W        W11002  22.538  36.584   1.743
45743W        W11003  37.367  44.831   5.430
45744W        W11004  37.565   1.810  13.556
45745W        W11005  43.330  25.170   4.552
45746W        W11006  33.329  37.561  10.140
45747W        W11007  42.445  29.107  14.318
45748W        W11008  30.570   8.872   4.484
45749W        W11009  19.068   2.392  10.669
45750W        W11010  28.271  41.378   2.780
45751W        W11011  42.739  22.013  14.002
45752W        W11012  43.851   6.331  14.026
45753W        W11013  24.060   7.632   0.148
45754W        W11014  22.829  29.090  14.915
45755W        W11015  34.371  38.998  12.170
45756W        W11016  19.644  31.095   0.387
45757W        W11017  35.612  29.562  12.425
45758W        W11018  19.257  40.288  11.613
45759W        W11019  43.997  23.032  14.031
45760W        W11020  23.070   5.400   2.303
45761W        W11021   6.683  34.082  11.586
45762W        W11022  38.852  44.328   0.524
45763W        W11023  13.109   6.460   1.331
45764W        W11024   5.070  26.500   4.563
45765W        W11025  26.085  39.926   1.158
45766W        W11026   1.652  31.085  14.817
45767W        W11027  36.060  16.359   3.222
45768W        W11028  24.931  24.700  13.388
45769W        W11029   9.457   9.577   4.803
45770W        W11030   1.008  14.079  11.102
45771W        W11031   8.481  31.414   2.612
45772W        W11032  18.791  41.551  13.080
45773W        W11033  30.602   2.167   4.938
45774W        W11034   3.400  21.029   3.191
45775W        W11035  10.808  23.541   4.661
45776W        W11036  10.342   5.219  12.481
45777W        W11037  35.870  18.499  12.034
45778W        W11038  43.696   5.328   0.048
45779W        W11039  10.181  24.620  13.551
45780W        W11040  35.851  33.496   4.123
45781W        W11041   1.523  34.703  14.384
45782W        W11042  24.224  29.651  14.000
45783W        W11043  39.767  37.215  14.045
45784W        W11044  42.753   1.202   3.824
45785W        W11045  19.311  43.450   0.408
45786W        W11046  35.436  29.991   0.882
45787W        W11047  29.693  26.027   0.773
45788W        W11048   1.409   8.906   0.278
45789W        W11049  28.052  40.219  12.835
45790W        W11050   7.893   4.828   5.007
45791W        W11051  20.604  21.987   3.239
45792W        W11052  10.462  25.129   1.499
45793W        W11053  18.049  41.065   1.765
45794W        W11054  31.348   5.925   1.207
45795W        W11055  26.177  34.020   1.682
45796W        W11056   9.986   9.568  12.153
45797W        W11057  11.188  15.692  13.988
45798W        W11058  15.158  31.436  12.472
45799W        W11059  12.855  43.432  12.203
45800W        W11060  38.953  37.571   3.349
45801W        W11061   8.253  40.096   1.334
45802W        W11062  27.570  44.343   0.889
45803W        W11063  24.112  15.827   3.176
45804W        W11064  29.060  11.923   2.388
45805W        W11065  32.858  17.118   1.853
45806W        W11066  18.138  35.338  14.794
45807W        W11067  40.368  39.648   0.260
45808W        W11068   0.726  41.634  12.344
45809W        W11069   2.076   9.043  10.841
45810W        W11070  26.196  18.006  13.958
45811W        W11071  11.726  11.853   0.940
45812W        W11072  23.533  26.649   0.702
45813W        W11073  17.046  23.814  12.839
45814W        W11074  33.395  18.897   2.635
45815W        W11075  10.653  37.400  10.467
45816W        W11076  31.985   5.855   2.867
45817W        W11077   6.044  13.957  14.465
45818W        W11078  29.435  25.646   2.395
45819W        W11079   8.395  25.545   4.611
45820W        W11080  38.355  22.864  12.105
45821W        W11081  37.505  43.196  12.577
45822W        W11082  27.136  29.450  13.630
45823W        W11083  19.578  28.658   1.916
45824W        W11084  22.556  43.077   0.190
45825W        W11085   8.229  19.954  14.893
45826W        W11086   4.012  25.220  13.386
45827W        W11087   2.325  28.140  14.841
45828W        W11088  26.502  22.282   4.570
45829W        W11089  20.778  17.640   4.574
45830W        W11090  37.459  16.573   3.279
45831W        W11091   6.217   2.400   4.556
45832W        W11092  10.464  34.442  13.389
45833W        W11093  24.315   6.922   2.190
45834W        W11094  23.293   2.888   0.230
45835W        W11095  39.965  26.909   2.732
45836W        W11096  29.508   3.485  11.871
45837W        W11097  29.936   0.397  14.373
45838W        W11098  39.600   7.748   0.909
45839W        W11099  30.019  17.753   4.689
45840W        W11100   9.609  36.578   1.249
45841W        W11101  21.276  21.207  13.308
45842W        W11102  44.758  35.430   3.815
45843W        W11103  40.125  16.145  14.249
45844W        W11104  21.503  43.531  14.110
45845W        W11105  17.016  44.033  13.932
45846W        W11106  37.308  31.675   1.811
45847W        W11107  26.686  41.796   4.932
45848W        W11108   7.867  20.668   3.358
45849W        W11109  37.499  32.427  13.749
45850W        W11110  21.110  26.586  13.867
45851W        W11111  41.436  24.238   1.459
45852W        W11112  17.833  24.788   2.275
45853W        W11113  14.216  16.109  14.029
45854W        W11114   6.779  13.655   2.453
45855W        W11115  23.736   6.370   1.821
45856W        W11116   7.653  23.928   1.909
45857W        W11117  30.651  43.132  11.502
45858W        W11118   4.976  26.228   0.705
45859W        W11119  24.559  36.751  14.462
45860W        W11120  26.215  37.128   2.172
45861W        W11121  32.439  12.198   4.367
45862W        W11122  11.919   7.916   4.003
45863W        W11123  34.119   0.172  12.070
45864W        W11124   8.314  32.050   1.329
45865W        W11125   1.880  35.898   1.985
45866W        W11126   3.696  12.699   3.662
45867W        W11127  27.645  18.866  13.091
45868W        W11128  15.285  19.345   4.256
45869W        W11129   3.393  39.512   0.398
45870W        W11130  32.104  11.666   2.131
45871W        W11131  37.259  32.559  11.566
45872W        W11132  28.618  24.605  11.393
45873W        W11133  33.725  21.963   2.739
45874W        W11134  40.087  43.423   1.005
45875W        W11135   7.410  36.977  12.558
45876W        W11136   8.301  33.090  11.475
45877W        W11137  37.996   3.269  12.629
45878W        W11138  44.393   3.244   4.143
45879W        W11139   7.335  29.410   9.866
45880W        W11140  40.388  39.242  10.745
45881W        W11141  16.391  43.746   0.079
45882W        W11142  44.767  40.841  11.172
45883W        W11143  15.265  26.499   0.536
45884W        W11144  21.045  39.358  10.649
45885W        W11145  34.818   2.385   1.079
45886W        W11146  18.320  23.848  12.467
45887W        W11147  43.851   2.406   3.604
45888W        W11148   4.543  35.743  14.641
45889W        W11149  19.649  18.533   4.100
45890W        W11150  38.162  14.920   0.454
45891W        W11151  34.129   4.223   2.226
45892W        W11152  43.921  32.315   4.267
45893W        W11153   0.778  34.837  14.429
45894W        W11154  28.600  37.388   1.898
45895W        W11155   3.456  32.581   0.384
45896W        W11156  36.012  42.456  12.573
45897W        W11157  20.262  21.749   0.895
45898W        W11158  25.330   1.908   0.971
45899W        W11159   9.451  10.624   2.439
45900W        W11160  29.332  34.484  14.490
45901W        W11161  38.860  13.528   0.184
45902W        W11162  38.324  14.134  12.457
45903W        W11163  35.554  22.241   4.738
45904W        W11164  12.714   8.917  14.900
45905W        W11165  13.855  42.112  11.609
45906W        W11166   6.378   5.236   4.309
45907W        W11167   9.689  10.411  13.383
45908W        W11168  11.329   5.445   2.181
45909W        W11169   8.944  14.185  11.537
45910W        W11170  27.402  41.060  13.046
45911W        W11171  13.239   0.333  10.282
45912W        W11172  20.001  37.046   4.698
45913W        W11173  31.480  27.822  11.953
45914W        W11174  35.838  15.432  13.614
45915W        W11175  23.249  15.358  13.099
45916W        W11176  28.339  26.333  10.899
45917W        W11177  18.824  35.464  13.648
45918W        W11178  42.014  42.844  13.882
45919W        W11179  27.749   0.800   2.993
45920W        W11180  42.078  17.116  12.071
45921W        W11181  25.219  17.148  14.429
45922W        W11182   6.307  37.739  10.454
45923W        W11183  31.345  37.054   0.760
45924W        W11184  17.133  27.621  10.730
45925W        W11185  12.402   1.525  10.731
45926W        W11186  38.437  41.236  13.716
45927W        W11187  18.275   7.682   3.340
45928W        W11188  21.033   8.743   0.328
45929W        W11189   2.682  39.840  13.944
45930W        W11190  29.014  37.550   2.452
45931W        W11191  30.713   1.254  11.245
45932W        W11192  33.583  41.261  14.425
45933W        W11193  26.176   3.005  13.282
45934W        W11194   8.905  44.168   5.402
45935W        W11195  19.382  11.319  13.089
45936W        W11196  36.523  30.936   1.215
45937W        W11197  38.250  18.227  11.471
45938W        W11198  11.473  20.223  12.732
45939W        W11199  23.569  17.166   3.049
45940W        W11200  17.856  19.022  11.150
45941W        W11201   0.283   8.622  13.599
45942W        W11202  16.340  41.858  14.785
45943W        W11203  26.919  39.928   1.728
45944W        W11204   0.334   7.168   4.109
45945W        W11205  31.947  28.727  14.512
45946W        W11206   3.914   0.297  11.634
45947W        W11207  40.949  32.348  13.590
45948W        W11208  15.599  18.885   3.707
45949W        W11209   9.739  20.028  12.116
45950W        W11210  28.723  32.495  11.913
45951W        W11211  30.031  32.532   1.139
45952W        W11212  36.467  44.732  14.389
45953W        W11213  18.262  26.211  13.921
45954W        W11214  29.512  24.264   4.510
45955W        W11215   2.447  34.500  10.547
45956W        W11216  40.972  42.485   1.829
45957W        W11217  29.499  13.067   4.490
45958W        W11218   2.469  12.271   4.048
45959W        W11219  13.674  37.934   3.623
45960W        W11220  39.600   4.410  10.316
45961W        W11221  25.587  39.353  14.448
45962W        W11222  20.869  34.031   1.705
45963W        W11223   2.489  27.506  12.881
45964W        W11224  25.072  28.216  12.121
45965W        W11225  21.553  13.066  11.624
45966W        W11226  32.140  10.825   3.899
45967W        W11227  29.584  37.516   4.486
45968W        W11228  14.088  10.783  12.041
45969W        W11229  23.156   7.330  13.411
45970W        W11230  43.427  41.783   2.168
45971W        W11231  27.537  34.980   0.256
45972W        W11232  11.052   7.839  14.299
45973W        W11233  10.951  22.202  11.521
45974W        W11234   3.537  11.965  13.567
45975W        W11235  16.666  24.000  11.532
45976W        W11236  26.331  24.232   2.639
45977W        W11237  16.384  35.665   1.088
45978W        W11238  40.289  23.896   4.534
45979W        W11239  24.057  34.939  13.031
45980W        W11240  27.961  40.751  14.455
45981W        W11241   3.436  27.126  11.197
45982W        W11242  14.900  29.864  11.067
45983W        W11243  41.277  11.058   4.196
45984W        W11244  26.925  20.404  13.990
45985W        W11245  17.035  18.965  12.520
45986W        W11246  11.529  16.399  11.923
45987W        W11247   0.480  38.199   2.055
45988W        W11248  25.084  39.918   2.003
45989W        W11249  31.766  39.503  12.878
45990W        W11250  43.861  40.416  13.399
45991W        W11251   8.814  32.213   0.802
45992W        W11252  23.602  23.008   2.333
45993W        W11253  34.907  27.532   2.429
45994W        W11254  18.590  14.060  12.144
45995W        W11255  42.669   3.190  12.733
45996W        W11256  27.098  11.064   4.552
45997W        W11257  42.651  20.270   0.753
45998W        W11258  28.388  15.646  11.945
45999W        W11259  43.766  21.693  13.308
46000W        W11260  17.669  21.312  12.143
46001W        W11261  24.070   2.759  10.918
46002W        W11262   5.705  32.790   0.233
46003W        W11263  31.049  21.260  13.833
46004W        W11264  37.855  11.211  13.538
46005W        W11265  29.983  21.503   2.955
46006W        W11266  30.087   6.149   4.563
46007W        W11267  14.762  37.978   2.210
46008W        W11268   4.417  39.286   4.563
46009W        W11269  17.726   2.519   4.474
46010W        W11270  12.240  14.896   1.446
46011W        W11271   7.176  24.969  12.987
46012W        W11272  44.848  30.501   2.142
46013W        W11273   2.359  21.925   3.014
46014W        W11274  22.160  27.125   3.681
46015W        W11275  14.823  28.509  10.642
46016W        W11276  16.531   5.060   2.416
46017W        W11277  30.773  22.464  14.441
46018W        W11278  26.334   1.048  12.460
46019W        W11279  32.054  39.718   0.829
46020W        W11280  30.957  17.813   5.019
46021W        W11281   1.831  44.383  13.996
46022W        W11282  22.480  15.043   2.778
46023W        W11283   1.231   7.393  13.077
46024W        W11284  44.213  20.306   3.325
46025W        W11285   3.316  43.721   0.912
46026W        W11286  31.097  12.863   4.081
46027W        W11287  19.480  32.433   1.297
46028W        W11288  35.087  28.461  12.594
46029W        W11289  34.984  31.121  10.659
46030W        W11290  30.944  40.348  10.900
46031W        W11291  23.103  26.045  13.870
46032W        W11292  15.583  38.954   4.253
46033W        W11293  28.531  43.521  10.823
46034W        W11294  31.001   9.962   3.801
46035W        W11295   2.162  16.156   4.384
46036W        W11296  10.353  36.553  14.990
46037W        W11297  33.127  16.011   2.882
46038W        W11298  34.008  26.818   1.066
46039W        W11299  38.561  39.850   2.203
46040W        W11300   2.514   3.999   2.758
46041W        W11301  38.337  44.694   4.086
46042W        W11302  24.641  11.337   4.290
46043W        W11303  15.230   8.015  14.848
46044W        W11304  29.215  25.588  13.646
46045W        W11305  10.618  42.251  14.452
46046W        W11306  30.163   8.671  11.602
46047W        W11307  44.057  15.636   1.471
46048W        W11308  42.605  14.331  13.057
46049W        W11309  20.094  40.218   3.682
46050W        W11310  32.722  20.268  12.946
46051W        W11311  13.339  29.099  14.208
46052W        W11312  13.681  44.077   4.361
46053W        W11313  35.560   9.286  13.457
46054W        W11314  28.406  32.396  11.100
46055W        W11315  28.397   1.584   3.141
46056W        W11316  40.743  28.186   4.253
46057W        W11317  43.765   0.353   0.737
46058W        W11318   8.685  29.563   4.029
46059W        W11319  33.548  43.799  14.679
46060W        W11320   0.529  33.597   4.392
46061W        W11321   1.455   0.373   0.462
46062W        W11322  23.980   3.504   1.771
46063W        W11323  15.549   1.389   2.727
46064W        W11324  36.798  14.245   3.813
46065W        W11325  37.420  11.205   0.952
46066W        W11326  26.433  13.656  12.993
46067W        W11327  32.580   6.164   0.916
46068W        W11328  43.521  11.880   2.659
46069W        W11329  34.627   2.379  12.520
46070W        W11330   5.407  35.628  14.953
46071W        W11331  37.023  27.496  10.371
46072W        W11332  10.364  32.357  12.492
46073W        W11333  33.405  35.511  13.341
46074W        W11334  22.395  12.097  12.057
46075W        W11335   6.374  39.954  11.640
46076W        W11336  41.694  21.599  12.574
46077W        W11337  15.289  12.592  11.905
46078W        W11338  42.440  30.283   1.418
46079W        W11339   9.870  40.857  13.293
46080W        W11340  15.110   2.805   4.548
46081W        W11341  20.521  28.047  14.474
46082W        W11342  31.481  40.516   4.090
46083W        W11343  34.171   7.175   0.831
46084W        W11344  29.530  27.096  13.368
46085W        W11345  36.049   7.719   2.900
46086W        W11346  20.526  23.532   1.651
46087W        W11347  15.116  34.560  11.128
46088W        W11348  25.698  24.055   0.770
46089W        W11349  32.795   2.355   1.204
46090W        W11350   0.304  39.529  13.049
46091W        W11351  35.089  24.009   1.317
46092W        W11352  32.008  17.783  13.779
46093W        W11353  38.064  10.250   0.807
46094W        W11354  23.000  14.378   4.119
46095W        W11355  20.811  13.237   0.406
46096W        W11356   3.675  40.328   1.763
46097W        W11357  42.190   0.740  14.997
46098W        W11358  29.859  21.551  13.567
46099W        W11359  41.785  15.991   5.062
46100W        W11360  44.398   8.675   0.233
46101W        W11361  29.235  41.756  13.887
46102W        W11362  27.689  21.852  14.892
46103W        W11363  36.016  13.567  12.517
46104W        W11364  27.433  24.281  13.932
46105W        W11365  42.365   8.686  13.095
46106W        W11366  38.898   6.884  14.643
46107W        W11367   4.310  21.718  13.346
46108W        W11368   2.759  34.695   0.718
46109W        W11369  22.246  11.659   4.614
46110W        W11370   0.416  32.515  13.367
46111W        W11371  43.299   6.367   3.172
46112W        W11372   0.766  12.868  14.306
46113W        W11373  34.313  41.660  12.051
46114W        W11374  18.141  18.488   2.002
46115W        W11375  19.955   8.114   2.785
46116W        W11376   2.283   9.957   1.734
46117W        W11377  28.442  42.383   3.687
46118W        W11378  18.422  17.821  14.902
46119W        W11379  32.595   2.307   4.248
46120W        W11380  23.556  28.580   1.596
46121W        W11381  32.392   4.276   0.098
46122W        W11382   2.835   6.813  13.926
46123W        W11383  10.124  34.643   2.701
46124W        W11384   5.382   5.569  12.341
46125W        W11385   4.235   3.324  13.706
46126W        W11386  14.814   9.785  12.520
46127W        W11387  29.885  43.185  12.018
46128W        W11388  12.399   6.989   0.490
46129W        W11389  25.058  29.176  10.687
46130W        W11390  21.991  23.274   0.209
46131W        W11391   8.613   1.921   2.179
46132W        W11392  40.401  33.133  14.818
46133W        W11393   1.906  29.848  14.046
46134W        W11394  44.917  11.687  11.778
46135W        W11395  27.400  27.669   1.301
46136W        W11396  32.208  31.235   2.032
46137W        W11397   9.263   9.173   0.187
46138W        W11398   7.436  10.189   4.920
46139W        W11399  35.379  13.623   1.962
46140W        W11400  39.114   0.448  12.966
46141W        W11401  43.744   9.761   5.130
46142W        W11402  43.553  28.642   4.613
46143W        W11403  35.839   6.338   0.477
46144W        W11404   1.445  19.609  14.316
46145W        W11405  22.764  14.418   5.095
46146W        W11406   5.453  32.411  13.852
46147W        W11407  23.098  39.096   4.055
46148W        W11408  29.105   8.976   0.016
46149W        W11409   6.382  19.995  14.841
46150W        W11410   6.909   0.065   3.650
46151W        W11411  40.519   6.230  11.625
46152W        W11412   2.511  11.351   4.124
46153W        W11413  11.308  24.416   3.746
46154W        W11414  11.805  30.107  11.129
46155W        W11415  37.866  19.255   1.060
46156W        W11416  35.195  42.990  11.626
46157W        W11417  20.713   8.708   1.244
46158W        W11418  14.103  36.121   3.290
46159W        W11419   4.506   4.723   0.746
46160W        W11420  41.588  28.752   0.185
46161W        W11421   3.297  16.123  13.426
46162W        W11422  15.829  12.592   3.978
46163W        W11423  40.814  40.132   2.737
46164W        W11424   5.185  36.738   3.120
46165W        W11425   2.792  22.248  13.424
46166W        W11426  34.148  26.137  14.891
46167W        W11427  12.210  14.204   3.818
46168W        W11428  29.180  15.722   4.718
46169W        W11429  35.956  12.377  10.692
46170W        W11430  35.497  30.904  12.144
46171W        W11431  36.402  23.239  14.830
46172W        W11432  24.763  39.912  11.608
46173W        W11433   2.119  11.787  12.249
46174W        W11434  29.893  15.816  14.435
46175W        W11435   7.882  28.451   2.197
46176W        W11436  21.695   0.156   2.366
46177W        W11437  24.797  17.130  13.472
46178W        W11438  32.057  33.978   0.229
46179W        W11439  36.120  43.277  14.068
46180W        W11440  12.302  44.326   4.604
46181W        W11441   1.512  29.673   0.932
46182W        W11442  21.255  24.150   1.262
46183W        W11443  22.102  44.530   4.324
46184W        W11444   2.045  24.950  12.522
46185W        W11445  14.299  28.970  10.835
46186W        W11446  32.948   6.538   4.902
46187W        W11447  20.294  27.026   0.537
46188W        W11448  21.795   4.595  14.008
46189W        W11449  44.785  10.809   0.342
46190W        W11450  19.172  24.579   2.429
46191W        W11451  32.247  43.258   0.485
46192W        W11452  16.635  41.246  14.168
46193W        W11453  29.775  33.401   0.337
46194W        W11454  40.304  20.109   2.286
46195W        W11455   1.951  13.269   2.915
46196W        W11456  43.417  14.290   4.276
46197W        W11457  25.306  31.111   0.343
46198W        W11458  44.221  21.478   4.213
46199W        W11459  30.199  29.705  11.040
46200W        W11460  42.829  10.672  12.340
46201W        W11461  23.472  11.762  10.781
46202W        W11462  34.211   0.204  12.929
46203W        W11463  18.644  22.574  11.145
46204W        W11464  29.441  12.657   2.649
46205W        W11465   1.376  32.463   5.049
46206W        W11466   8.347  10.299   1.128
46207W        W11467  36.854  15.708  14.485
46208W        W11468  21.097   2.967  11.108
46209W        W11469  43.580  12.411  14.460
46210W        W11470  33.034  12.171   1.774
46211W        W11471  32.530  18.760   1.685
46212W        W11472  30.081  23.418   2.780
46213W        W11473  28.028  20.016  12.873
46214W        W11474  35.349  35.617  13.856
46215W        W11475  41.117   6.418   2.605
46216W        W11476  43.891   7.352  14.538
46217W        W11477  23.447  10.234   1.763
46218W        W11478  26.630  11.126  13.939
46219W        W11479  19.052  39.923  10.680
46220W        W11480  19.774  33.469   0.890
46221W        W11481  17.771   9.381  11.081
46222W        W11482  14.763  27.866  14.280
46223W        W11483  29.529  44.778  14.828
46224W        W11484  41.236   1.466  11.004
46225W        W11485  15.222   1.772   2.689
46226W        W11486   4.083  24.083   0.694
46227W        W11487   8.179  23.248  11.578
46228W        W11488  23.054  37.923   2.610
46229W        W11489   4.314  15.127   3.024
46230W        W11490  18.566   1.769  14.893
46231W        W11491  36.892  44.701  12.528
46232W        W11492  38.388  23.644  13.281
46233W        W11493   7.428  25.518   2.824
46234W        W11494  17.204  27.495  14.307
46235W        W11495   7.449  34.055  13.455
46236W        W11496   6.918  22.225   0.938
46237W        W11497  15.542  42.339   4.100
46238W        W11498  13.780  31.399  14.061
46239W        W11499  36.764  20.155  12.952
46240W        W11500  31.417  34.524  11.927
46241W        W11501  30.911  11.398  14.037
46242W        W11502  12.452   9.853  11.241
46243W        W11503   2.694  39.307   2.583
46244W        W11504  21.317  26.658  11.601
46245W        W11505  12.042   4.750   0.442
46246W        W11506  20.211  13.115   4.654
46247W        W11507  23.160  22.510   2.707
46248W        W11508  30.343  29.404  13.480
46249W        W11509  36.162  18.143   1.936
46250W        W11510  18.344   4.919   0.746
46251W        W11511  18.972  29.668  10.398
46252W        W11512  37.842  16.803   0.780
46253W        W11513  33.973  32.547   3.628
46254W        W11514   0.271  31.620   0.502
46255W        W11515  40.918   1.713  10.516
46256W        W11516   6.638  44.877  14.489
46257W        W11517  40.401   3.306   4.328
46258W        W11518  43.304  16.024  13.252
46259W        W11519  33.439  39.560  12.825
46260W        W11520   1.769   5.299  12.555
46261W        W11521  31.807  39.832  12.430
46262W        W11522   3.049   6.374   1.850
46263W        W11523  33.261  24.078  14.028
46264W        W11524  13.834  33.359  13.387
46265W        W11525   8.131   0.328   0.215
46266W        W11526   6.301  31.376  12.450
46267W        W11527  43.113   0.239  11.498
46268W        W11528  15.612  42.497  12.370
46269W        W11529  16.656   4.992  14.277
46270W        W11530  43.371   7.711   1.242
46271W        W11531  40.244   6.873   4.162
46272W        W11532  43.080  42.045   1.312
46273W        W11533  29.575   9.822  13.626
46274W        W11534  39.731  10.727  11.550
46275W        W11535   1.507  27.487   3.663
46276W        W11536   6.394  13.350   0.864
46277W        W11537  21.031  37.928   2.796
46278W        W11538  15.059   4.237   3.639
46279W        W11539  12.700  20.598   3.859
46280W        W11540   4.415  11.320   3.668
46281W        W11541   0.411  22.133  14.401
46282W        W11542   9.870  42.510  13.849
46283W        W11543  32.479   0.810   3.239
46284W        W11544  20.565  22.120  14.096
46285W        W11545   6.482  28.558   3.573
46286W        W11546  15.856   4.694   3.556
46287W        W11547  31.408  21.520  13.273
46288W        W11548  34.582  13.762  13.059
46289W        W11549  32.767  13.219   1.484
46290W        W11550   1.386  20.549   2.019
46291W        W11551  10.201  12.677  14.512
46292W        W11552  22.624  26.749   0.680
46293W        W11553  14.547  36.089  13.991
46294W        W11554  41.041   0.224  11.607
46295W        W11555  22.660  27.225  14.039
46296W        W11556  26.695  14.737   3.672
46297W        W11557  13.686  19.428  10.474
46298W        W11558   9.801   5.989  14.870
46299W        W11559  22.160  40.864  10.662
46300W        W11560   2.858  22.989   1.895
46301W        W11561  30.183  36.816   1.369
46302W        W11562  40.920  33.084  14.980
46303W        W11563  30.171  32.327   2.571
46304W        W11564  37.062  32.606  12.448
46305W        W11565   1.510  38.413  14.079
46306W        W11566   6.220   4.005   1.267
46307W        W11567   4.323   7.760   0.199
46308W        W11568  13.607  27.045   1.439
46309W        W11569  42.444  24.122   3.386
46310W        W11570  28.858  32.402  13.599
46311W        W11571   7.774  11.204   4.416
46312W        W11572   3.266  29.914   1.316
46313W        W11573  44.437   9.147  13.810
46314W        W11574   7.495  30.382  14.846
46315W        W11575  42.209  37.598   2.261
46316W        W11576   6.286  14.227  10.722
46317W        W11577   5.129   7.506   5.091
46318W        W11578  34.536   8.007  10.479
46319W        W11579   7.900  34.914  11.638
46320W        W11580  10.726  11.781   2.887
46321W        W11581  34.854  32.610   1.213
46322W        W11582  44.587  40.419   3.366
46323W        W11583  24.010  37.545   4.531
46324W        W11584  32.928  25.966   1.003
46325W        W11585   7.212   3.474   2.312
46326W        W11586   5.683   9.456  14.108
46327W        W11587  44.439  44.255  12.135
46328W        W11588   8.889  31.965  14.488
46329W        W11589   6.306  20.010   1.865
46330W        W11590  42.969  17.305  10.869
46331W        W11591  42.590   7.290   0.508
46332W        W11592   8.800  14.488  10.726
46333W        W11593  31.995  37.427  13.776
46334W        W11594  43.768  26.680   2.076
46335W        W11595  22.416  38.995   3.242
46336W        W11596  23.135  13.694   4.471
46337W        W11597  31.980  39.304   4.715
46338W        W11598   6.927  42.614   1.203
46339W        W11599  44.578  14.841   2.219
46340W        W11600  28.394  16.327  13.467
46341W        W11601   9.535  26.605  13.505
46342W        W11602  34.197  42.380  13.560
46343W        W11603  24.434  27.077  11.602
46344W        W11604  30.411   5.803  14.461
46345W        W11605  25.050  19.614  14.490
46346W        W11606  12.756  39.466   0.268
46347W        W11607  20.281  32.226  14.943
46348W        W11608  17.070  31.271   4.084
46349W        W11609  40.456  43.716   0.280
46350W        W11610   4.318   2.334   0.495
46351W        W11611  36.981  25.948   2.192
46352W        W11612  43.028   6.566  13.832
46353W        W11613  34.859  31.388  11.448
46354W        W11614  21.040  11.069  10.658
46355W        W11615  16.138  19.717   3.141
46356W        W11616  10.139  13.755   4.253
46357W        W11617  14.521  37.564  11.135
46358W        W11618   9.929  10.338   2.253
46359W        W11619  30.476  43.436   0.877
46360W        W11620  26.948  35.593  13.342
46361W        W11621  29.931  29.670  12.231
46362W        W11622   5.235  24.760   4.023
46363W        W11623  24.733  40.499  13.833
46364W        W11624  25.753  29.859  14.999
46365W        W11625   9.917  16.821   3.140
46366W        W11626  24.337  28.058   3.061
46367W        W11627  18.963  43.315   3.604
46368W        W11628  30.075  37.089  10.689
46369W        W11629   4.323  28.557   1.747
46370W        W11630  14.901  22.141   1.501
46371W        W11631   7.961  43.628   2.345
46372W        W11632   1.308   3.858  12.110
46373W        W11633  28.028  19.219   0.284
46374W        W11634   2.050  11.695  11.016
46375W        W11635   5.251  18.600  12.644
46376W        W11636  24.807   0.545   0.431
46377W        W11637  43.931  16.272   0.773
46378W        W11638  26.106  21.746   1.766
46379W        W11639  31.386   7.400  14.070
46380W        W11640  44.357  37.482   1.935
46381W        W11641  35.452  24.384   1.676
46382W        W11642  14.543  17.798   2.233
46383W        W11643   4.317  32.001  10.856
46384W        W11644  21.209  12.685   1.250
46385W        W11645  19.735  19.774   0.748
46386W        W11646   2.279  14.334  11.917
46387W        W11647  10.789  30.565  13.053
46388W        W11648  24.832  20.745  13.341
46389W        W11649  38.503  24.059  10.739
46390W        W11650   4.315  38.948  10.392
46391W        W11651  18.773  25.048  13.898
46392W        W11652   8.187   8.671  14.865
46393W        W11653  39.381   3.834   3.049
46394W        W11654  22.633  19.882  11.159
46395W        W11655  37.159  41.622  13.868
46396W        W11656  30.903  43.327  11.930
46397W        W11657  16.723   0.979  13.819
46398W        W11658  40.929   1.285  13.524
46399W        W11659   2.402  26.084  12.553
46400W        W11660  27.101  39.940   3.540
46401W        W11661  37.966  27.367   0.714
46402W        W11662  24.406  27.301  13.419
46403W        W11663  41.863  13.127   3.271
46404W        W11664  18.976  44.077  10.744
46405W        W11665  15.751   5.257   4.397
46406W        W11666  27.247  19.589  12.427
46407W        W11667  20.659  34.082  11.179
46408W        W11668   3.232  43.335   2.350
46409W        W11669  34.434   4.531  13.432
46410W        W11670   2.526  25.525   2.880
46411W        W11671  10.366  23.260  14.222
46412W        W11672   7.659  36.367   0.390
46413W        W11673  43.094   8.885   3.737
46414W        W11674  33.130  32.779   2.112
46415W        W11675  23.226  43.871  13.742
46416W        W11676   7.045  40.825   0.059
46417W        W11677   2.020  38.828  12.002
46418W        W11678   9.434   5.289   4.934
46419W        W11679   6.936  32.849   2.396
46420W        W11680  15.857  21.130  14.771
46421W        W11681  38.338  35.928  14.445
46422W        W11682  12.407  12.681  10.319
46423W        W11683   2.945  22.709   4.150
46424W        W11684   9.773  18.527  11.998
46425W        W11685   3.203   1.488   1.615
46426W        W11686   6.806  17.565  11.571
46427W        W11687  12.848  10.464   5.474
46428W        W11688   0.314  36.327   3.719
46429W        W11689  29.351  27.421  14.573
46430W        W11690  21.104   8.305  12.313
46431W        W11691  26.601  41.460   4.135
46432W        W11692  34.418   4.301  11.602
46433W        W11693  36.987   9.852   1.070
46434W        W11694  19.178   3.371   1.780
46435W        W11695  26.594  20.197   2.109
46436W        W11696   5.720  36.244   2.878
46437W        W11697   9.304  44.692   3.673
46438W        W11698  21.719  21.976  12.490
46439W        W11699  30.871  32.607  12.632
46440W        W11700  20.182  27.725   2.432
46441W        W11701  37.730  28.102  11.753
46442W        W11702  36.362  10.987  12.561
46443W        W11703  36.533   7.365  12.639
46444W        W11704  44.864  42.498   3.194
46445W        W11705  34.534  11.855   2.749
46446W        W11706  12.813  10.775  12.996
46447W        W11707  17.599   0.813   3.288
46448W        W11708   2.706  37.906  13.851
46449W        W11709  21.095  23.723  10.789
46450W        W11710  40.016  11.735   1.253
46451W        W11711  31.285  13.590   1.719
46452W        W11712   3.396   2.604   0.809
46453W        W11713  12.677  26.216   3.141
46454W        W11714  43.470   9.731  11.096
46455W        W11715  40.909  24.018  14.978
46456W        W11716   6.229  10.838   2.892
46457W        W11717  32.379   6.141  11.038
46458W        W11718  40.783  41.938   0.392
46459W        W11719  37.949  32.143   0.343
46460W        W11720  26.029  24.679  13.040
46461W        W11721  14.849   3.762   3.762
46462W        W11722  44.374   3.882  13.650
46463W        W11723   4.882  18.660  10.871
46464W        W11724   1.240  10.124  11.729
46465W        W11725  23.596  22.024   0.187
46466W        W11726  19.039  31.536   4.156
46467W        W11727  21.781  34.427  11.608
46468W        W11728  43.696  16.257  14.937
46469W        W11729  41.596  44.509  14.726
46470W        W11730  27.958  41.027  11.241
46471W        W11731  27.121   0.338   4.013
46472W        W11732   2.539  21.111  13.491
46473W        W11733  41.967  44.241  13.977
46474W        W11734  31.850  22.061   3.782
46475W        W11735   9.780   7.305  13.755
46476W        W11736  27.938  14.179  12.488
46477W        W11737  42.097  26.955   3.843
46478W        W11738  40.828  27.709   2.808
46479W        W11739  11.219  11.800   2.171
46480W        W11740   4.166  26.133  14.856
46481W        W11741  30.389  19.797  11.588
46482W        W11742  44.369  34.505   1.353
46483W        W11743   2.812  24.001   1.616
46484W        W11744  39.486  29.328   1.395
46485W        W11745  27.789   5.674  13.121
46486W        W11746   1.455  23.762   4.975
46487W        W11747   7.824  39.408  14.594
46488W        W11748  14.912   8.310  13.980
46489W        W11749   9.382  20.771  10.621
46490W        W11750  39.053  12.429   0.603
46491W        W11751  11.816  23.464   1.898
46492W        W11752   1.705  17.559  11.631
46493W        W11753  44.296  37.765   2.858
46494W        W11754   9.766  22.244   4.289
46495W        W11755  20.240  16.763  12.872
46496W        W11756  41.484  27.474  11.162
46497W        W11757  18.661  24.954  12.528
46498W        W11758  37.386  20.094   1.014
46499W        W11759  30.006   8.902  14.560
46500W        W11760   3.591  26.295   3.752
46501W        W11761  38.830  10.747  10.700
46502W        W11762  19.253   4.789   2.860
46503W        W11763  42.069   8.274  11.554
46504W        W11764   5.489   5.014   3.322
46505W        W11765   5.616  29.704   1.253
46506W        W11766  40.794   4.360   4.035
46507W        W11767  31.538  28.504  14.739
46508W        W11768  39.356  41.911   3.175
46509W        W11769  31.328  40.693   4.882
46510W        W11770  17.351  31.143  11.228
46511W        W11771  42.364  32.771  10.876
46512W        W11772   7.357  18.485   3.146
46513W        W11773  15.245  28.692   1.823
46514W        W11774   6.339  39.120   1.159
46515W        W11775   3.281  11.112  13.626
46516W        W11776   0.315  17.088   0.756
46517W        W11777  44.256  32.119  13.917
46518W        W11778  11.371  13.824   3.606
46519W        W11779   9.268   6.822  14.773
46520W        W11780   2.221  12.513  14.771
46521W        W11781   4.423  33.977   2.064
46522W        W11782  39.283  21.009   3.262
46523W        W11783  36.562  24.565   3.314
46524W        W11784  11.794  25.218   4.443
46525W        W11785   9.257  10.999   4.848
46526W        W11786  37.962   6.173   1.783
46527W        W11787  15.359  28.877   9.876
46528W        W11788   0.647  41.970   4.190
46529W        W11789  12.267  36.649   1.369
46530W        W11790  13.368  22.167  10.789
46531W        W11791  40.467  38.337   1.180
46532W        W11792  43.045  41.333  14.364
46533W        W11793  29.626  33.045   3.254
46534W        W11794  30.683  32.641  14.013
46535W        W11795  15.060  43.548  13.967
46536W        W11796   0.814   3.857   1.642
46537W        W11797  41.415  38.203  13.944
46538W        W11798  36.278  36.570   0.554
46539W        W11799  18.479  38.881  13.344
46540W        W11800  38.273  13.228  14.493
46541W        W11801  34.704  27.680   3.554
46542W        W11802  23.771  22.000  13.435
46543W        W11803  21.267  33.467  14.049
46544W        W11804  27.859  23.155  11.655
46545W        W11805  14.119   4.806   2.591
46546W        W11806  24.563  24.960  14.111
46547W        W11807  42.068  17.207  10.804
46548W        W11808  28.187   3.878  11.484
46549W        W11809   4.224  22.489  13.951
46550W        W11810  14.303   5.970  13.117
46551W        W11811  38.091  20.449   4.517
46552W        W11812  24.721  44.558  13.751
46553W        W11813   2.134   9.682  14.036
46554W        W11814   6.075  30.113   3.172
46555W        W11815  35.935  31.625   0.736
46556W        W11816  21.704  28.485  14.728
46557W        W11817  44.014  22.061  14.402
46558W        W11818  19.435  36.943   4.226
46559W        W11819  36.210  41.887  13.820
46560W        W11820   8.400   5.197   3.785
46561W        W11821  11.279  23.025  14.293
46562W        W11822  37.153  13.616   0.361
46563W        W11823  22.872  20.035   3.603
46564W        W11824  27.909  26.566  14.834
46565W        W11825   0.959  28.973  10.658
46566W        W11826  40.916  20.615   1.725
46567W        W11827  32.012  12.781  12.597
46568W        W11828  10.825  43.043  10.382
46569W        W11829  40.505  17.981  11.619
46570W        W11830  25.573  35.256   4.082
46571W        W11831   1.806  41.169   0.299
46572W        W11832   4.035  11.736   0.251
46573W        W11833  17.749  24.324   1.923
46574W        W11834  16.578  30.573   2.752
46575W        W11835  28.662  43.281  12.557
46576W        W11836  35.489  29.323   3.322
46577W        W11837  31.413  30.794  10.881
46578W        W11838  14.747  30.690   1.371
46579W        W11839  19.181  10.643   1.617
46580W        W11840   7.426  36.390   3.198
46581W        W11841  17.118  35.075  10.643
46582W        W11842  31.713   1.891  14.357
46583W        W11843   0.815  28.829  11.708
46584W        W11844  36.801   4.419   1.712
46585W        W11845  43.342  22.738  11.083
46586W        W11846  30.549   7.329  10.469
46587W        W11847  36.245  37.057  12.997
46588W        W11848  19.713   6.187   1.835
46589W        W11849  24.640   1.744  14.782
46590W        W11850   8.886   4.904  12.443
46591W        W11851   8.289  44.919  11.185
46592W        W11852  13.152  39.873  11.600
46593W        W11853   7.938  35.052   0.676
46594W        W11854  12.640  44.291   0.822
46595W        W11855   6.193  19.504   1.767
46596W        W11856  24.570  40.790  11.641
46597W        W11857  13.860  32.304   5.066
46598W        W11858   0.678  23.019  13.602
46599W        W11859  35.139  12.485   0.336
46600W        W11860  30.902  35.644   3.901
46601W        W11861  21.117  18.788   4.668
46602W        W11862  35.439  16.320   0.189
46603W        W11863   8.874  15.671   1.004
46604W        W11864  21.201  11.241   1.320
46605W        W11865  27.641  18.000  10.490
46606W        W11866  14.768   8.780  13.418
46607W        W11867  34.084  16.221  14.746
46608W        W11868  10.868  38.497   4.018
46609W        W11869   4.251  39.745  14.261
46610W        W11870  25.798  19.775   4.737
46611W        W11871  22.447  34.508   4.039
46612W        W11872  43.133   9.729  10.255
46613W        W11873  34.980   8.902   2.919
46614W        W11874  20.296   9.591   4.483
46615W        W11875  28.747   1.435  11.602
46616W        W11876   4.700  28.451  12.481
46617W        W11877   1.438   9.642   2.256
46618W        W11878  19.082  26.211  11.939
46619W        W11879  29.628  10.944   1.671
46620W        W11880  40.302  26.613  12.814
46621W        W11881  23.670  31.077   3.797
46622W        W11882   0.724  11.830   2.704
46623W        W11883  20.537  17.840   2.542
46624W        W11884  10.331  42.027  12.480
46625W        W11885  42.490  22.554  12.388
46626W        W11886  42.354  28.626  12.694
46627W        W11887  38.573  29.565   2.438
46628W        W11888  22.129  31.829   2.411
46629W        W11889  25.037  37.878  14.586
46630W        W11890  42.458  40.689  10.351
46631W        W11891  30.368  34.441  11.057
46632W        W11892  43.633   5.336  13.486
46633W        W11893  23.005   1.323  13.060
46634W        W11894  25.717   5.893  10.152
46635W        W11895   0.696   4.206   3.682
46636W        W11896   5.305  26.659  12.848
46637W        W11897   9.317  20.249   3.238
46638W        W11898  19.311  23.782   9.730
46639W        W11899  17.229  24.955  12.155
46640W        W11900  25.672  37.043  10.758
46641W        W11901  42.684  19.807   3.864
46642W        W11902  36.909  14.080   0.381
46643W        W11903  37.244   5.316   0.295
46644W        W11904  33.516   2.313   3.186
46645W        W11905  44.024   0.960  11.914
46646W        W11906  17.888  21.774   5.151
46647W        W11907  27.996   2.608  10.707
46648W        W11908  30.324  42.272   1.158
46649W        W11909   0.492  24.065   3.168
46650W        W11910  19.201   9.916  12.598
46651W        W11911  25.168  24.055  10.603
46652W        W11912   0.020   3.223  14.501
46653W        W11913  34.881   5.855  10.670
46654W        W11914  12.467  36.091  14.120
46655W        W11915   7.729  44.337  11.707
46656W        W11916  34.709  15.356  14.761
46657W        W11917   1.308  15.834  10.138
46658W        W11918  24.776  18.727   2.611
46659W        W11919  25.463  32.876  12.357
46660W        W11920   6.594  12.716  12.652
46661W        W11921  35.834  40.832  14.536
46662W        W11922  30.116  34.452   1.920
46663W        W11923   0.041  35.355   4.246
46664W        W11924  43.465  17.935  12.403
46665W        W11925  20.603   8.629   3.609
46666W        W11926   3.842   4.632  14.373
46667W        W11927  31.900  38.869  14.790
46668W        W11928  20.789  34.691  14.777
46669W        W11929  18.123  36.234  11.635
46670W        W11930  25.698  20.273  13.716
46671W        W11931  15.087  15.955   4.753
46672W        W11932  33.928  21.499   2.866
46673W        W11933  14.177  14.281   0.867
46674W        W11934  40.394   1.517  14.275
46675W        W11935  25.795   0.538   4.547
46676W        W11936  13.410   2.921  14.333
46677W        W11937  35.602  19.695   0.829
46678W        W11938  17.231  39.309   2.743
46679W        W11939  19.544  35.490   9.862
46680W        W11940  34.024  43.233   4.748
46681W        W11941  13.891  19.980   1.822
46682W        W11942  11.612   7.672  14.931
46683W        W11943  16.331  40.734   1.348
46684W        W11944  44.372  37.596  10.964
46685W        W11945  42.058   5.772   4.608
46686W        W11946   3.923  43.447   2.730
46687W        W11947  21.198  21.155  11.272
46688W        W11948   2.532  10.299   5.003
46689W        W11949  43.376  32.678   3.074
46690W        W11950  31.170  44.358   4.136
46691W        W11951  36.183  23.712  14.768
46692W        W11952  26.163  38.923   4.675
46693W        W11953  18.286  43.360   2.219
46694W        W11954  13.758  43.236   0.420
46695W        W11955  35.107   4.799  13.849
46696W        W11956  41.817  25.457   0.352
46697W        W11957  11.224  34.005  11.427
46698W        W11958  17.335  33.204   4.033
46699W        W11959  31.089   1.661  11.972
46700W        W11960  21.636  34.794  10.695
46701W        W11961  35.131  20.130   3.329
46702W        W11962  16.090   2.001  14.233
46703W        W11963  19.601  23.845  13.118
46704W        W11964  23.696  21.760   4.201
46705W        W11965   1.228  21.958   2.639
46706W        W11966  11.629  35.311  11.542
46707W        W11967  30.938  15.812  10.214
46708W        W11968  27.421   5.976  12.791
46709W        W11969  15.331  10.900  12.901
46710W        W11970   4.070  21.154  11.984
46711W        W11971  19.705  39.732   1.258
46712W        W11972  29.579   9.608  10.631
46713W        W11973  34.014   3.362  10.406
46714W        W11974  14.846  24.500  11.480
46715W        W11975   6.402  15.514  14.203
46716W        W11976  31.877  12.219  10.133
46717W        W11977  14.189   4.639  13.223
46718W        W11978  12.334  44.613   0.489
46719W        W11979   9.643  43.841   1.924
46720W        W11980  24.774  18.820   0.106
46721W        W11981  31.674  16.462   1.959
46722W        W11982  22.701   8.920   1.754
46723W        W11983   5.392   7.918  13.332
46724W        W11984  12.557  25.580   2.647
46725W        W11985  30.155   2.436   4.123
46726W        W11986   1.548  30.537  11.240
46727W        W11987  24.555  11.736  14.025
46728W        W11988  14.162   7.385   0.407
46729W        W11989  14.709  32.577  10.694
46730W        W11990  29.044  43.783  11.951
46731W        W11991  38.368  31.639  14.519
46732W        W11992  37.265   8.887   4.657
46733W        W11993   0.694   7.045  12.431
46734W        W11994  30.916   4.726  13.454
46735W        W11995  31.051   5.797   4.674
46736W        W11996  25.598  32.664   0.732
46737W        W11997  40.124  26.927  12.392
46738W        W11998   7.464  17.263   0.269
46739W        W11999  19.265  44.708  11.309
46740W        W12000   8.966  16.011   1.888
46741W        W12001   5.153   6.922  13.397
46742W        W12002   7.707  16.544  13.253
46743W        W12003   9.337   0.698   3.650
46744W        W12004   6.392   0.021  12.538
46745W        W12005   4.664  11.861  12.133
46746W        W12006  12.709  37.656   3.281
46747W        W12007  15.902   7.557  13.485
46748W        W12008  25.955  32.247   1.095
46749W        W12009  19.738  20.001  14.868
46750W        W12010  44.791  39.394   4.214
46751W        W12011  42.292  27.692  12.470
46752W        W12012  10.837  18.114  13.461
46753W        W12013   6.250  35.365   1.325
46754W        W12014   2.241  37.886   3.697
46755W        W12015  43.659  43.770   2.157
46756W        W12016  23.543  11.440  11.187
46757W        W12017   0.553   7.308   4.628
46758W        W12018  13.684  27.054   2.473
46759W        W12019  19.121  27.067  10.903
46760W        W12020  35.369   9.821   4.026
46761W        W12021  10.867  31.021   1.866
46762W        W12022  24.084  44.480  10.873
46763W        W12023  30.485   2.664   5.057
46764W        W12024  20.250  32.039  14.428
46765W        W12025  11.945  19.815  13.448
46766W        W12026   7.404   0.219  10.755
46767W        W12027   7.434  22.425   4.491
46768W        W12028  35.916  33.586  11.181
46769W        W12029   0.653  21.285   0.838
46770W        W12030  12.448  31.567   2.808
46771W        W12031  30.438   6.174   0.282
46772W        W12032   5.754  26.752  13.096
46773W        W12033  26.422  43.871  10.084
46774W        W12034   4.325  29.452   0.756
46775W        W12035  13.137  39.069   2.403
46776W        W12036  18.036  22.858   3.688
46777W        W12037  12.350   3.812   0.753
46778W        W12038  28.153  19.072   2.076
46779W        W12039  42.118  20.031   4.232
46780W        W12040  29.875  37.858   4.213
46781W        W12041  35.189  32.219   1.323
46782W        W12042  28.123  33.632  13.010
46783W        W12043  11.372  20.835  10.721
46784W        W12044   2.455  34.442  10.011
46785W        W12045  43.026  19.583   2.892
46786W        W12046  17.975   3.508   4.088
46787W        W12047  27.551   1.838  12.929
46788W        W12048   8.166  24.690  10.956
46789W        W12049  36.061  11.826  12.268
46790W        W12050   0.884  14.327   0.422
46791W        W12051   9.204  15.537   0.131
46792W        W12052  32.903  38.126   0.568
46793W        W12053  30.773   4.182   3.189
46794W        W12054  26.118   4.532   1.331
46795W        W12055  43.881   6.874   4.688
46796W        W12056  27.316   0.744  12.447
46797W        W12057  10.901  33.567  11.501
46798W        W12058  34.546  41.729  11.478
46799W        W12059   7.997   6.774  10.258
46800W        W12060  31.598  21.438  12.753
46801W        W12061  14.426   4.808   4.083
46802W        W12062  34.311  27.451  12.148
46803W        W12063  30.716  40.512   1.287
46804W        W12064   5.191  43.744  11.764
46805W        W12065  17.927   3.914   0.729
46806W        W12066  30.006  30.465  12.604
46807W        W12067   7.199  14.594   3.654
46808W        W12068  41.176  17.038  12.094
46809W        W12069   0.784  22.074   2.873
46810W        W12070  17.681  29.563   0.385
46811W        W12071  23.182  11.510  13.486
46812W        W12072  12.378  25.534   1.533
46813W        W12073  12.736  20.094   3.626
46814W        W12074   3.757  24.564  14.484
46815W        W12075   7.341   0.020   4.737
46816W        W12076  44.400  11.939  14.124
46817W        W12077  43.218  27.143   1.142
46818W        W12078  32.456  14.100  13.429
46819W        W12079   2.737  43.392  11.637
46820W        W12080  31.849  34.345  13.519
46821W        W12081  15.714  31.537   3.012
46822W        W12082  24.766   3.657   2.504
46823W        W12083  28.254  22.821   1.301
46824W        W12084   3.991   0.766  12.980
46825W        W12085  36.258  11.598   1.738
46826W        W12086  22.626  34.998   1.620
46827W        W12087  42.320  33.931  12.067
46828W        W12088  26.514   8.480   1.450
46829W        W12089  22.162  38.284   2.758
46830W        W12090   5.789  13.705   2.298
46831W        W12091  33.117  16.682  11.175
46832W        W12092  12.747  23.955   3.671
46833W        W12093  28.668  21.576  11.086
46834W        W12094   6.768  40.056  13.790
46835W        W12095   5.472  17.053   4.188
46836W        W12096  30.373  37.804  14.810
46837W        W12097  44.047  26.072   3.992
46838W        W12098   5.706   6.300  12.037
46839W        W12099  16.841  30.940   0.884
46840W        W12100  16.064  24.071   3.238
46841W        W12101  35.798  13.793  13.054
46842W        W12102   1.565   8.300  13.001
46843W        W12103  34.561  41.958   4.518
46844W        W12104  10.688  12.638   1.706
46845W        W12105  22.221   3.242   3.629
46846W        W12106  23.281   8.380  13.256
46847W        W12107   9.590  34.880  13.258
46848W        W12108  11.498  26.970  14.808
46849W        W12109  14.769   2.500   0.873
46850W        W12110   4.892  28.514   2.435
46851W        W12111  43.542  44.169   3.678
46852W        W12112   4.334  41.069   0.837
46853W        W12113  25.153  18.405  12.092
46854W        W12114  34.651   0.973  12.965
46855W        W12115  23.720  16.567  12.819
46856W        W12116  42.310  39.835  12.110
46857W        W12117   6.874  16.732   3.226
46858W        W12118  11.745  27.255  14.405
46859W        W12119  10.391   1.686   2.331
46860W        W12120  21.131  16.165  14.063
46861W        W12121  19.527   2.957  13.860
46862W        W12122  43.457  36.150  13.024
46863W        W12123   0.506  38.393   4.139
46864W        W12124   4.775   7.391  11.635
46865W        W12125  21.551  10.797   2.912
46866W        W12126  26.460  27.151  12.472
46867W        W12127  20.921  10.916   4.127
46868W        W12128  14.878  11.117   2.420
46869W        W12129   1.586  24.728  12.535
46870W        W12130  22.150  33.902  12.979
46871W        W12131  30.434   3.279   3.123
46872W        W12132  24.286  22.062  13.441
46873W        W12133  16.362  22.960  14.302
46874W        W12134  30.049  39.393   4.508
46875W        W12135  33.187  35.618  11.560
46876W        W12136   6.429  30.592  10.974
46877W        W12137  10.204  37.651  13.734
46878W        W12138  29.775  33.481   5.109
46879W        W12139  26.433  20.028  12.435
46880W        W12140   1.629  29.612  13.080
46881W        W12141  43.792   5.833  14.296
46882W        W12142  40.441   4.784   3.279
46883W        W12143  44.769  43.402   4.211
46884W        W12144  35.666  39.444  11.282
46885W        W12145  12.715  21.297  14.022
46886W        W12146  20.033  32.002  12.852
46887W        W12147  33.054  41.689   4.620
46888W        W12148  17.606  29.985  12.392
46889W        W12149  13.591  35.053  12.371
46890W        W12150  38.112  40.152   2.267
46891W        W12151  19.711  42.850  10.348
46892W        W12152  33.932   7.363   1.448
46893W        W12153  28.431   3.858   2.282
46894W        W12154   8.226   5.363   0.219
46895W        W12155   0.850  38.225   2.854
46896W        W12156  10.823   9.003  11.152
46897W        W12157  26.478  44.792  11.628
46898W        W12158  21.744  16.321   2.233
46899W        W12159  30.247  44.420   4.168
46900W        W12160  36.856  39.606   4.917
46901W        W12161  21.188  22.321   1.233
46902W        W12162   9.396  12.568   3.886
46903W        W12163   2.419  25.621   1.505
46904W        W12164  30.175  20.720   3.304
46905W        W12165  23.091  12.258  13.036
46906W        W12166  26.986  40.319   4.229
46907W        W12167   4.626  39.505   2.149
46908W        W12168   2.787   8.939  12.858
46909W        W12169   8.159  22.015   3.156
46910W        W12170  29.618   7.762  14.949
46911W        W12171  10.978  28.978  13.011
46912W        W12172  22.508  22.253  12.147
46913W        W12173   8.633  18.373  13.917
46914W        W12174   8.174  40.329  14.904
46915W        W12175  39.410  33.792  11.775
46916W        W12176  25.540  24.124  11.901
46917W        W12177  21.285   2.489  11.976
46918W        W12178  30.227  13.513  11.821
46919W        W12179  42.820  11.847  13.420
46920W        W12180   2.699  25.992  12.133
46921W        W12181   1.848   6.872   4.892
46922W        W12182  10.656  31.302  11.487
46923W        W12183  14.286   1.946   3.188
46924W        W12184  12.344  41.610  12.565
46925W        W12185   1.718  13.388  14.362
46926W        W12186   7.894   8.952  11.140
46927W        W12187  32.975   7.403  11.152
46928W        W12188  41.498  11.033   1.050
46929W        W12189  40.047  37.087   2.900
46930W        W12190  40.520  12.642   4.352
46931W        W12191  14.517  20.507  13.866
46932W        W12192  40.892  30.982  13.543
46933W        W12193  40.349  20.837   1.419
46934W        W12194  24.099   8.769   1.580
46935W        W12195  25.094  38.589   4.196
46936W        W12196  36.336   9.315  14.358
46937W        W12197  20.558  34.043  12.071
46938W        W12198  25.469  27.765  11.111
46939W        W12199  36.060  42.583  13.105
46940W        W12200   2.906  26.014   0.769
46941W        W12201  44.226  26.301   9.896
46942W        W12202   7.711  33.192  10.705
46943W        W12203  10.741   7.015  13.964
46944W        W12204  13.228  20.880   3.779
46945W        W12205  12.766  42.098   0.796
46946W        W12206   8.004  41.732   4.490
46947W        W12207  35.956  20.336  11.600
46948W        W12208   1.310   8.269   0.834
46949W        W12209  44.412  25.242   3.109
46950W        W12210   9.398  14.700  13.407
46951W        W12211  31.886  21.309   1.239
46952W        W12212  35.001  27.988   0.762
46953W        W12213  24.238  26.483  14.410
46954W        W12214   2.867  29.229  13.531
46955W        W12215  23.115  17.563   3.245
46956W        W12216   7.787  22.132   4.750
46957W        W12217  37.857   8.747  13.987
46958W        W12218   6.241  29.986   1.819
46959W        W12219  29.304  36.215  13.932
46960W        W12220  21.075  37.427   4.018
46961W        W12221  22.556  29.429   2.842
46962W        W12222   9.132  33.588  14.783
46963W        W12223  24.420  15.326  13.399
46964W        W12224  32.367   7.593   3.277
46965W        W12225  39.403  31.696   5.090
46966W        W12226  11.896  16.308   0.388
46967W        W12227  16.975  36.530   3.354
46968W        W12228  19.581  24.733   3.221
46969W        W12229  42.946   6.355   4.606
46970W        W12230   6.360  10.527  14.269
46971W        W12231  26.553   3.295   3.899
46972W        W12232  25.509  22.621   3.663
46973W        W12233  44.883  36.858  10.587
46974W        W12234  39.466  27.088   3.501
46975W        W12235  44.882  39.120   3.793
46976W        W12236   9.806  20.975   1.592
46977W        W12237   1.665  12.233  10.625
46978W        W12238   5.618  30.549   4.520
46979W        W12239  43.612  12.188   0.938
46980W        W12240  32.626  38.626  13.953
46981W        W12241  36.934  43.659  11.442
46982W        W12242   5.375  32.117   3.314
46983W        W12243  28.660  39.782   2.622
46984W        W12244  14.543   6.870  12.758
46985W        W12245  21.532  38.869   4.313
46986W        W12246  32.533  10.315   0.975
46987W        W12247  25.645  33.488   4.938
46988W        W12248   1.807  25.204   4.580
46989W        W12249  23.223   0.641  13.779
46990W        W12250  17.687  17.654   3.748
46991W        W12251  31.214  21.761  13.796
46992W        W12252  11.748  44.730  10.460
46993W        W12253  11.196  35.473   4.154
46994W        W12254  25.821  15.526   1.333
46995W        W12255   8.610  16.659  13.443
46996W        W12256  29.690  25.231  12.438
46997W        W12257  14.605  10.743  12.117
46998W        W12258  40.407  33.927   2.341
46999W        W12259  31.845  40.424  11.547
47000W        W12260   2.294  27.050   2.357
47001W        W12261  27.163  17.394  10.262
47002W        W12262  24.991  17.522   2.649
47003W        W12263  19.168  40.439  10.722
47004W        W12264  15.284  27.624   0.680
47005W        W12265  36.592  25.957  12.063
47006W        W12266  30.435  12.109  13.495
47007W        W12267   6.921  33.059   0.922
47008W        W12268  40.822  31.877  13.395
47009W        W12269  16.107  39.877  11.447
47010W        W12270  18.023   1.746   2.287
47011W        W12271  21.683  24.453   1.311
47012W        W12272   3.355  13.827   0.721
47013W        W12273  13.672  23.604   0.212
47014W        W12274   8.315   2.181   1.447
47015W        W12275  30.541   0.280  14.438
47016W        W12276  27.989   3.315   1.751
47017W        W12277  16.039  20.854   4.875
47018W        W12278  23.543  23.811   2.883
47019W        W12279  14.549  22.756  11.067
47020W        W12280  43.512  26.164   0.509
47021W        W12281  21.031  22.834   4.317
47022W        W12282  42.421   0.879   2.296
47023W        W12283  41.402  24.080  12.573
47024W        W12284  15.865  34.695  11.708
47025W        W12285  39.142  19.804   4.112
47026W        W12286   8.944  25.873   1.483
47027W        W12287   6.601  11.137   1.317
47028W        W12288  35.477  21.663   2.250
47029W        W12289  34.441  23.280  10.648
47030W        W12290  44.345   3.347   3.020
47031W        W12291   7.835  17.151   2.112
47032W        W12292  37.870  15.820   0.437
47033W        W12293  31.336  24.431  10.254
47034W        W12294  25.062   1.422  13.485
47035W        W12295  44.239  31.060   4.999
47036W        W12296  36.132   2.623  12.929
47037W        W12297  13.849  17.187   4.870
47038W        W12298  18.247  32.409   3.960
47039W        W12299   0.949  37.566   0.767
47040W        W12300  33.616  34.459  10.695
47041W        W12301   0.935  39.119   3.249
47042W        W12302   5.803  12.250   4.634
47043W        W12303  27.576  14.239   3.816
47044W        W12304  35.125  18.620  10.522
47045W        W12305  41.972  40.547   3.568
47046W        W12306   8.468   2.441  13.111
47047W        W12307  39.240  36.718   0.857
47048W        W12308  28.634   2.905  13.122
47049W        W12309  37.519  38.802   2.751
47050W        W12310   7.919  38.481  13.552
47051W        W12311  23.898   8.599   5.055
47052W        W12312  15.085  42.890   0.482
47053W        W12313  13.329  10.789  12.975
47054W        W12314  30.714  16.153  12.014
47055W        W12315  22.276  11.202  11.029
47056W        W12316  18.708   7.847   1.747
47057W        W12317   6.449  38.495  12.959
47058W        W12318   7.002  30.254  14.928
47059W        W12319   3.952  22.283  12.815
47060W        W12320   1.011  29.351  12.869
47061W        W12321  32.526  17.782  13.108
47062W        W12322  34.280  14.520  12.144
47063W        W12323  21.150  40.402  11.514
47064W        W12324  32.651   7.068  12.155
47065W        W12325  40.162  32.517   1.374
47066W        W12326  19.657  18.169  10.823
47067W        W12327  13.679  19.232   4.566
47068W        W12328   4.260  10.363   3.223
47069W        W12329   6.984  32.073   3.377
47070W        W12330  12.187  37.534   0.037
47071W        W12331  40.270  30.159  14.468
47072W        W12332  25.356  41.991  14.605
47073W        W12333  40.530  31.477   3.311
47074W        W12334  10.916  18.949   1.857
47075W        W12335   2.728  24.731  13.567
47076W        W12336  19.175  21.860   1.347
47077W        W12337  11.475  22.089  11.538
47078W        W12338  35.314   2.816   0.419
47079W        W12339  12.204  37.600   3.342
47080W        W12340  17.578  19.128  10.314
47081W        W12341  25.495  20.915  13.097
47082W        W12342  28.150   3.829  14.999
47083W        W12343  39.016  16.263  14.452
47084W        W12344  21.637  38.139   3.073
47085W        W12345  39.516   1.222   4.102
47086W        W12346  36.333  35.051  13.466
47087W        W12347  15.865  35.456  12.088
47088W        W12348  13.874  37.159  14.030
47089W        W12349  23.722  11.391   0.265
47090W        W12350  26.061  26.604  11.161
47091W        W12351   1.397  33.621   4.912
47092W        W12352   9.997   6.169  12.539
47093W        W12353  11.332  13.809   2.749
47094W        W12354  39.567  13.340   3.160
47095W        W12355  22.591  41.973   0.208
47096W        W12356  30.144   7.410  11.881
47097W        W12357  20.438   4.644  11.067
47098W        W12358  32.704  28.794  14.975
47099W        W12359   2.288  17.803   0.026
47100W        W12360  13.733  31.867   4.187
47101W        W12361  29.514  14.775  11.246
47102W        W12362  42.926  41.792  11.385
47103W        W12363  11.328  36.544  13.094
47104W        W12364  38.604  18.438   2.656
47105W        W12365   0.539  32.034  13.513
47106W        W12366  20.228  35.060   1.870
47107W        W12367  21.957  26.694  10.802
47108W        W12368  27.962   9.970  10.751
47109W        W12369  21.252  10.517   4.195
47110W        W12370  30.862  11.147   1.255
47111W        W12371  13.646  29.029  13.763
47112W        W12372  20.558  26.350  11.195
47113W        W12373  42.885   2.494  12.156
47114W        W12374   1.279  20.104  14.296
47115W        W12375  38.979  32.167  13.773
47116W        W12376  21.235  37.859  13.445
47117W        W12377  44.058  16.974   1.206
47118W        W12378  42.279  15.533  11.426
47119W        W12379  33.948  42.793   4.481
47120W        W12380   6.001  26.052  13.976
47121W        W12381  39.772  36.770  11.068
47122W        W12382   0.351  10.293   0.870
47123W        W12383  41.921   8.240   3.238
47124W        W12384  43.175  17.647  12.054
47125W        W12385  38.830   0.474   5.344
47126W        W12386   5.732  13.656  13.871
47127W        W12387  39.978  16.782   0.464
47128W        W12388  29.648  30.293   2.305
47129W        W12389  15.027  11.680  12.710
47130W        W12390   7.248  23.616   0.425
47131W        W12391  26.038  44.146   1.376
47132W        W12392  29.971  34.698  14.949
47133W        W12393  24.940   6.437  14.273
47134W        W12394  10.242  39.838  12.084
47135W        W12395   1.890  35.749   1.031
47136W        W12396  24.717  33.437  10.728
47137W        W12397  26.179  21.978   2.920
47138W        W12398  21.271  10.139  11.636
47139W        W12399  37.609  37.331   3.391
47140W        W12400   3.009  22.239   2.357
47141W        W12401   0.995  41.734   1.258
47142W        W12402  32.121   7.832  10.534
47143W        W12403   2.655  28.545  14.040
47144W        W12404   2.496  28.140  11.042
47145W        W12405  17.054   5.799  11.025
47146W        W12406  22.777  35.552  12.860
47147W        W12407   2.424  11.115   4.594
47148W        W12408  37.974  15.148   1.299
47149W        W12409   6.924   1.436  11.792
47150W        W12410  41.296  12.361   1.207
47151W        W12411  23.408  25.185   1.245
47152W        W12412  43.301  30.092   1.787
47153W        W12413   1.242  34.939  14.045
47154W        W12414  41.987  27.720   4.217
47155W        W12415  25.036  34.238   0.781
47156W        W12416   9.439   7.662  12.812
47157W        W12417  44.647   6.474  10.096
47158W        W12418  36.084  21.551   4.561
47159W        W12419  34.850  25.651  11.645
47160W        W12420  40.504  13.381  14.329
47161W        W12421  24.622  20.142  11.901
47162W        W12422  18.658  38.562   0.289
47163W        W12423  29.461  44.887   1.922
47164W        W12424  26.684  40.027  10.382
47165W        W12425  20.263  31.535   2.621
47166W        W12426  43.029  34.692  14.785
47167W        W12427   3.222  38.627   2.949
47168W        W12428   7.843  19.468  11.101
47169W        W12429  34.961  28.774   1.251
47170W        W12430  43.936  34.491  11.989
47171W        W12431  19.563  16.148  10.745
47172W        W12432   9.880   2.608   1.277
47173W        W12433  39.554  15.421   0.419
47174W        W12434  29.370   5.424  10.754
47175W        W12435   5.041  39.500  12.228
47176W        W12436  35.058  13.687   4.557
47177W        W12437  40.488  13.164   1.661
47178W        W12438  33.276  39.837   4.109
47179W        W12439  31.537  10.426   3.336
47180W        W12440  10.133  43.266   4.745
47181W        W12441  33.948  36.088   1.407
47182W        W12442  19.582   4.365   4.158
47183W        W12443  37.817  10.808   1.449
47184W        W12444  18.993  13.684   2.475
47185W        W12445   7.351  40.474   4.397
47186W        W12446   1.460   3.675  12.987
47187W        W12447  23.128   7.042  12.023
47188W        W12448  32.882  15.513  13.107
47189W        W12449  31.136  21.463   4.212
47190W        W12450  44.190   1.711  13.800
47191W        W12451  32.668  25.537   1.173
47192W        W12452   5.826   8.750   4.492
47193W        W12453  29.188  14.365   1.800
47194W        W12454   8.843  30.712  10.716
47195W        W12455  32.850  20.722  14.916
47196W        W12456  34.524  44.340  11.004
47197W        W12457  11.302   2.955  12.025
47198W        W12458  33.822  44.756  12.076
47199W        W12459  20.493   6.890  11.580
47200W        W12460  39.327  34.662   4.149
47201W        W12461  17.110  20.490  13.441
47202W        W12462  40.196   0.424   3.337
47203W        W12463  22.973   4.193  13.019
47204W        W12464  21.660  32.065   4.652
47205W        W12465  32.676  43.480   2.737
47206W        W12466  41.885   4.349  10.738
47207W        W12467  17.128  32.566  11.928
47208W        W12468  15.198  44.457   1.415
47209W        W12469  27.576   0.308  12.482
47210W        W12470  44.242  19.630   0.962
47211W        W12471  10.154  41.585   0.440
47212W        W12472   8.143  16.220   4.566
47213W        W12473  20.560  26.933   2.271
47214W        W12474   4.242   5.267   3.575
47215W        W12475  27.514  15.905  11.854
47216W        W12476  23.115  11.863   3.689
47217W        W12477  10.487  18.803  12.653
47218W        W12478  28.956  29.386  13.443
47219W        W12479  19.147   7.275  11.525
47220W        W12480  28.627  29.354  14.915
47221W        W12481  12.616  21.199   0.472
47222W        W12482  13.693  34.661   0.518
47223W        W12483  19.564  32.097   1.686
47224W        W12484  16.194  44.966   3.384
47225W        W12485  17.316  32.674   1.753
47226W        W12486  28.696  30.500   3.602
47227W        W12487  27.031  13.673   2.310
47228W        W12488  37.930  40.185  11.468
47229W        W12489   2.239  20.225   0.979
47230W        W12490  33.382  12.292   4.117
47231W        W12491   1.037  17.636   0.290
47232W        W12492   0.034  33.905  13.915
47233W        W12493   2.275  43.756   4.694
47234W        W12494  12.291  36.891   2.722
47235W        W12495   4.255  20.660   1.724
47236W        W12496  26.519  41.942   0.404
47237W        W12497  26.739  35.030   2.549
47238W        W12498  39.841   6.402   0.510
47239W        W12499  15.591  32.629  11.168
47240W        W12500  30.208  40.755   3.726
47241W        W12501   2.994  25.640   0.277
47242W        W12502  37.232  31.893  14.630
47243W        W12503  29.126   9.972   2.386
47244W        W12504   3.491  13.814   4.198
47245W        W12505  11.162  39.451  11.496
47246W        W12506  21.722  35.033  10.240
47247W        W12507  43.451  14.668  13.730
47248W        W12508   9.708  42.578  11.154
47249W        W12509  28.987  43.956  14.549
47250W        W12510  34.803  24.660   0.375
47251W        W12511  30.197  44.342  10.770
47252W        W12512  38.897  41.241  13.962
47253W        W12513  24.803  26.998   0.259
47254W        W12514   5.190  24.909  12.903
47255W        W12515   0.207  14.224   2.709
47256W        W12516  37.981  18.603  12.980
47257W        W12517  41.841  15.999   2.759
47258W        W12518   2.774  13.744  11.960
47259W        W12519  19.747  15.777   0.368
47260W        W12520  41.558  38.218  10.261
47261W        W12521   8.850  39.329   4.463
47262W        W12522  25.453  23.653  10.490
47263W        W12523  21.213   5.852   5.570
47264W        W12524  44.809  29.695   4.926
47265W        W12525  10.661  17.243   0.194
47266W        W12526  32.709  21.891  14.370
47267W        W12527  43.312  10.776  12.546
47268W        W12528  26.051  41.878   3.435
47269W        W12529  32.517  10.177  10.665
47270W        W12530  11.890  34.976  14.784
47271W        W12531  24.523  38.577   1.522
47272W        W12532  44.749   7.745  13.902
47273W        W12533  35.092   7.170  11.261
47274W        W12534   6.737  27.192   1.836
47275W        W12535  29.741  30.531   4.575
47276W        W12536   9.859  41.899  12.268
47277W        W12537  38.593  17.911   2.663
47278W        W12538  44.848  16.294   4.086
47279W        W12539  16.712  35.352   4.610
47280W        W12540  41.724   3.859  10.828
47281W        W12541  33.038  18.372   3.241
47282W        W12542  23.636  36.126   1.789
47283W        W12543  34.000   8.320   0.554
47284W        W12544  22.580  22.915  11.459
47285W        W12545  17.005  17.071  13.418
47286W        W12546  16.019  39.528   3.753
47287W        W12547  30.835  39.279   2.611
47288W        W12548  20.183  22.298  14.891
47289W        W12549  31.427  28.889  14.405
47290W        W12550  10.291  44.708  11.760
47291W        W12551  12.354  40.815   0.327
47292W        W12552  33.941  36.332  10.590
47293W        W12553  34.158   6.415   2.395
47294W        W12554  28.567  28.936   2.187
47295W        W12555   0.452  37.550   2.663
47296W        W12556  17.129  39.913   1.155
47297W        W12557  25.726   2.255  14.267
47298W        W12558  37.314  42.946  11.921
47299W        W12559  17.155  13.035   4.675
47300W        W12560  40.340  19.874   5.399
47301W        W12561  13.652  30.460  14.250
47302W        W12562  16.959  13.280  14.785
47303W        W12563  30.836  39.608   1.761
47304W        W12564  42.070  37.381  10.742
47305W        W12565  25.072  23.483  11.355
47306W        W12566  19.051  13.737   1.950
47307W        W12567   1.337  29.248   3.143
47308W        W12568  16.274  24.196   2.756
47309W        W12569  19.863  29.922  13.462
47310W        W12570  37.226  12.429  11.968
47311W        W12571  43.900   2.938  10.648
47312W        W12572  19.019  39.357   0.212
47313W        W12573   2.792  14.759  12.492
47314W        W12574   5.233  17.854   3.871
47315W        W12575  14.985   8.840   4.173
47316W        W12576   0.958  43.372  12.321
47317W        W12577  39.179  34.612  10.464
47318W        W12578   5.776  19.046  12.364
47319W        W12579  17.513  23.759   3.160
47320W        W12580  15.122  29.436  13.170
47321W        W12581  26.191  40.528  12.098
47322W        W12582  41.794   7.370   0.206
47323W        W12583  28.258  36.378   2.736
47324W        W12584  18.990  23.877   3.247
47325W        W12585  22.083  23.122  14.453
47326W        W12586  27.406  32.363   0.755
47327W        W12587   1.852  39.097  14.436
47328W        W12588   9.266  19.002   0.509
47329W        W12589   1.418   8.794  12.898
47330W        W12590  20.492  13.699  12.489
47331W        W12591  28.026  22.030  10.603
47332W        W12592  23.494   1.660  11.811
47333W        W12593  16.130  15.016   1.035
47334W        W12594  22.531  42.960   1.665
47335W        W12595  32.761  40.447   4.517
47336W        W12596  33.645  37.481   4.158
47337W        W12597  43.349  13.900   2.811
47338W        W12598  38.399  27.547   1.420
47339W        W12599  35.023   4.382   0.420
47340W        W12600  20.367   5.244   0.768
47341W        W12601  43.823  13.011  13.091
47342W        W12602   6.332  26.465  10.061
47343W        W12603  43.326  30.947  12.200
47344W        W12604   2.828   6.511  10.569
47345W        W12605  21.863  16.895  12.115
47346W        W12606  37.440  37.332  12.083
47347W        W12607  21.810  19.360  11.083
47348W        W12608  28.648  23.564  13.839
47349W        W12609  31.981   6.149  12.120
47350W        W12610  34.886  38.436  13.032
47351W        W12611   2.304   8.379   1.640
47352W        W12612  22.794  32.898  14.927
47353W        W12613  32.476   2.022   0.700
47354W        W12614  34.861  23.011  12.631
47355W        W12615  21.725  11.901  10.642
47356W        W12616  19.572  18.234  14.354
47357W        W12617  17.668  29.940  13.511
47358W        W12618  38.808  36.650   3.143
47359W        W12619   8.896  24.964   1.438
47360W        W12620  28.552  31.906  14.421
47361W        W12621  21.712   0.419   1.913
47362W        W12622  40.917  14.998   2.861
47363W        W12623  26.997  28.792  12.979
47364W        W12624  17.576  40.898   1.887
47365W        W12625  32.148   6.151   4.501
47366W        W12626  16.777  22.186  11.210
47367W        W12627   9.458  21.540  11.520
47368W        W12628   6.709  32.513  12.893
47369W        W12629  42.475  22.203   4.097
47370W        W12630  38.413   3.892   0.723
47371W        W12631  39.786   1.350   2.361
47372W        W12632  28.447  31.706   3.201
47373W        W12633  28.961  22.243   0.890
47374W        W12634  22.685   2.427   0.024
47375W        W12635   3.013   1.729  10.014
47376W        W12636  14.797  31.003   3.995
47377W        W12637  37.463  31.734  11.118
47378W        W12638  37.513  19.589   2.668
47379W        W12639   2.405  15.149   0.333
47380W        W12640   5.218  22.010  13.106
47381W        W12641  44.335  38.953   2.104
47382W        W12642  16.542  38.954  10.844
47383W        W12643  43.642  30.032  11.105
47384W        W12644  34.987   3.333   2.126
47385W        W12645  27.573  35.098   2.646
47386W        W12646  44.522  42.496   1.227
47387W        W12647  18.060   8.653   0.051
47388W        W12648  22.491   9.169   3.715
47389W        W12649  23.984  35.047  11.627
47390W        W12650  44.897  37.806   3.745
47391W        W12651  35.424   7.715   0.852
47392W        W12652  25.472   7.324   2.950
47393W        W12653  15.785  16.313   2.302
47394W        W12654  30.984  29.166   1.797
47395W        W12655   9.662   1.175   0.395
47396W        W12656  35.130  42.069  12.928
47397W        W12657  16.321  26.041   1.633
47398W        W12658   6.381  20.048  13.921
47399W        W12659  37.635  14.232  14.132
47400W        W12660   0.268  28.028   2.804
47401W        W12661   0.532  13.375   3.098
47402W        W12662  39.336   7.711  11.006
47403W        W12663  18.286  16.513  10.272
47404W        W12664  32.424   2.050  11.573
47405W        W12665  33.363   7.330   4.039
47406W        W12666  21.575  36.211   3.149
47407W        W12667  21.571  32.579  13.988
47408W        W12668  27.013  14.163   4.976
47409W        W12669  43.431  43.337   0.880
47410W        W12670  14.047  28.326   0.702
47411W        W12671  39.214   8.681   0.774
47412W        W12672  10.923  17.611   3.370
47413W        W12673  23.279  10.887   2.259
47414W        W12674  28.148  13.860   4.906
47415W        W12675  30.000  22.625   3.375
47416W        W12676   2.167  20.910   3.208
47417W        W12677  41.013  32.215   0.669
47418W        W12678  14.852   9.904   4.437
47419W        W12679  44.555   7.265   4.885
47420W        W12680  17.736  18.124   0.546
47421W        W12681  31.159  25.801   1.227
47422W        W12682  28.925  40.004   1.720
47423W        W12683  26.835   0.276   3.601
47424W        W12684   5.270   4.710  14.369
47425W        W12685  42.544  10.842   1.000
47426W        W12686  30.879  10.095   0.277
47427W        W12687  27.267  25.380  14.501
47428W        W12688  34.511  32.450  14.968
47429W        W12689   7.126  26.683  12.422
47430W        W12690  14.965  33.549   1.307
47431W        W12691  42.927  39.221   2.362
47432W        W12692  39.585  38.045   1.184
47433W        W12693  12.753   2.838  11.617
47434W        W12694  23.643  37.147  14.888
47435W        W12695  38.255  10.875   3.641
47436W        W12696  24.928  44.337  12.630
47437W        W12697  36.928  24.244   1.771
47438W        W12698  40.377   2.017  14.306
47439W        W12699  15.679  25.623   3.157
47440W        W12700  30.397   2.227  14.225
47441W        W12701  10.561  21.206   1.357
47442W        W12702  27.647   2.453  12.039
47443W        W12703  31.912  23.372   0.469
47444W        W12704  13.793  32.732  14.590
47445W        W12705  40.370  41.467  10.777
47446W        W12706  22.468  22.190  12.967
47447W        W12707  25.065   2.340   2.958
47448W        W12708  43.003  40.452  14.325
47449W        W12709   2.536   5.954   4.155
47450W        W12710  39.306  30.765   3.621
47451W        W12711  32.408  17.134   4.062
47452W        W12712   6.321  27.422  10.338
47453W        W12713  19.659  14.671  13.420
47454W        W12714   9.360  30.892   5.076
47455W        W12715   3.381  15.549  11.208
47456W        W12716  21.679  23.285   3.689
47457W        W12717  30.204   9.580   0.889
47458W        W12718  31.360  15.188   2.924
47459W        W12719   6.674  43.701  12.896
47460W        W12720  11.725   5.170   0.471
47461W        W12721  36.707  12.780  10.536
47462W        W12722   2.343   8.884   0.299
47463W        W12723  34.633  11.746   2.253
47464W        W12724  25.956  34.644   1.934
47465W        W12725  20.247  26.499   0.557
47466W        W12726   4.557  13.737  14.304
47467W        W12727  11.360  35.416   1.695
47468W        W12728  35.412  38.021   3.075
47469W        W12729  22.168  13.901  14.982
47470W        W12730  29.294  12.122   3.276
47471W        W12731  36.848  25.050   3.758
47472W        W12732  11.610  36.952  12.946
47473W        W12733  25.835  27.429   3.839
47474W        W12734  38.681  34.408   2.157
47475W        W12735  12.907  13.120   3.238
47476W        W12736  20.616  34.065  10.670
47477W        W12737  43.389   2.655  13.282
47478W        W12738   5.713  18.636   2.712
47479W        W12739  14.003   8.787  12.745
47480W        W12740  12.830  37.940   4.215
47481W        W12741   5.539  10.395   2.661
47482W        W12742  20.516   9.135   1.474
47483W        W12743   3.849   8.572   3.898
47484W        W12744  35.258  14.884  14.013
47485W        W12745   8.474  29.981   3.714
47486W        W12746  28.034  40.003  11.991
47487W        W12747  33.372  37.388   1.655
47488W        W12748  36.951  23.091  13.027
47489W        W12749  18.102  18.392  12.788
47490W        W12750   6.926  20.586   1.303
47491W        W12751   8.029  29.019  13.792
47492W        W12752  16.665  30.263   0.537
47493W        W12753  27.189  33.800  12.787
47494W        W12754  14.876  43.031   3.227
47495W        W12755  29.805   5.497   0.807
47496W        W12756  16.069  16.882  11.139
47497W        W12757  31.405  28.454   3.799
47498W        W12758  26.995   8.522   4.775
47499W        W12759   5.438  21.438   4.656
47500W        W12760  35.671  38.597   1.880
47501W        W12761   8.465  22.613   4.564
47502W        W12762   2.361  29.172  13.579
47503W        W12763  16.849  17.763   2.776
47504W        W12764  17.881  23.183  13.373
47505W        W12765  42.810   5.292  10.970
47506W        W12766  18.638  17.726  13.541
47507W        W12767  22.376  22.536  11.757
47508W        W12768  24.044   4.189  12.086
47509W        W12769  14.545  24.379   1.563
47510W        W12770  30.430  33.736  12.856
47511W        W12771  16.836  31.583   4.884
47512W        W12772  18.361  12.661   3.212
47513W        W12773   8.778  44.810   2.260
47514W        W12774  14.308  36.711   3.875
47515W        W12775  40.109  41.316  11.202
47516W        W12776   9.356  29.344   2.264
47517W        W12777  25.917   6.107  14.378
47518W        W12778  18.599  27.585   1.165
47519W        W12779  34.611  23.235   1.817
47520W        W12780  25.040  17.406   1.697
47521W        W12781  39.793  35.886  13.916
47522W        W12782  18.898   1.357  14.960
47523W        W12783  32.447  36.710  14.883
47524W        W12784  10.101  33.183  10.031
47525W        W12785  19.841  44.992   2.739
47526W        W12786  34.403  42.800   4.216
47527W        W12787  33.999   0.337   0.283
47528W        W12788  16.872  44.695  13.440
47529W        W12789  35.550   4.757   1.020
47530W        W12790  37.784  35.654  14.980
47531W        W12791   4.512   4.256   3.328
47532W        W12792  38.800   9.777  10.619
47533W        W12793  26.546  44.276  10.442
47534W        W12794  42.618   5.362  11.548
47535W        W12795  11.844  24.644  12.413
47536W        W12796   8.424  40.985  10.689
47537W        W12797  23.167  35.727  10.784
47538W        W12798  17.685   3.860   3.723
47539W        W12799  15.999   0.823  11.234
47540W        W12800  40.449  10.998   4.945
47541W        W12801   0.476  35.841   1.822
47542W        W12802  40.830  37.580   1.598
47543W        W12803  21.015  19.056  13.809
47544W        W12804  17.089  25.075   1.375
47545W        W12805  15.698  27.226   2.315
47546W        W12806  26.437  26.620  13.005
47547W        W12807  12.362  30.509  13.450
47548W        W12808  33.202  22.512   1.119
47549W        W12809  38.337  39.414   1.327
47550W        W12810  12.445  28.602   2.390
47551W        W12811  33.965   1.360  13.784
47552W        W12812  22.106  41.732   4.844
47553W        W12813  24.301  40.792  12.099
47554W        W12814  41.992  11.053   2.589
47555W        W12815  14.426  43.769  12.682
47556W        W12816  28.918  42.190  14.809
47557W        W12817  22.484  17.513  14.508
47558W        W12818   3.044  23.957   0.657
47559W        W12819   3.701  27.976  14.410
47560W        W12820  21.980  15.127   2.652
47561W        W12821  15.283  12.124  12.120
47562W        W12822   0.801   7.738   4.765
47563W        W12823  44.981  35.665   1.739
47564W        W12824  11.153  41.756  13.948
47565W        W12825  14.202  10.849   3.621
47566W        W12826  13.827   1.791   3.024
47567W        W12827  33.426  18.971   1.322
47568W        W12828  13.691  19.206  13.524
47569W        W12829   2.706  43.708   2.136
47570W        W12830  32.897  22.608   3.259
47571W        W12831   2.986  30.076  12.567
47572W        W12832  19.091  18.450   3.627
47573W        W12833   7.868  21.156  10.493
47574W        W12834   4.726   4.317  14.003
47575W        W12835  13.301  43.302  10.636
47576W        W12836   0.475  34.480   1.928
47577W        W12837  15.766  22.772   2.267
47578W        W12838   2.544  15.264   4.765
47579W        W12839  19.321  16.443  14.793
47580W        W12840  33.041   8.706   5.069
47581W        W12841  21.269  20.593  10.572
47582W        W12842  42.446  31.452  10.638
47583W        W12843  27.875  15.523   5.150
47584W        W12844   6.439  40.055  12.134
47585W        W12845   9.585  28.054   2.249
47586W        W12846  23.452  40.999  12.374
47587W        W12847   5.674  40.584   1.188
47588W        W12848   1.501  19.527  13.288
47589W        W12849  15.762  29.485   3.298
47590W        W12850   6.645  39.375  11.509
47591W        W12851  34.155  30.562   0.895
47592W        W12852  38.897  23.425  14.680
47593W        W12853  40.854  33.319   3.680
47594W        W12854   9.241  43.314   4.209
47595W        W12855  36.149   5.868  11.545
47596W        W12856  23.059  26.004   0.875
47597W        W12857  19.190  37.798  10.591
47598W        W12858  13.775  12.714   2.225
47599W        W12859  20.095  12.792   2.781
47600W        W12860  28.689   6.367   2.256
47601W        W12861  36.309  32.996   0.561
47602W        W12862  14.079  40.034   2.794
47603W        W12863  24.516  21.231  11.976
47604W        W12864   0.723  25.140  14.955
47605W        W12865  25.477  21.170  11.598
47606W        W12866  35.109  37.499   2.183
47607W        W12867  37.355   6.012  10.054
47608W        W12868  26.132  35.341   4.716
47609W        W12869   0.960  35.573   1.771
47610W        W12870  31.872  43.349   2.426
47611W        W12871  26.111  35.772   3.506
47612W        W12872   5.469   8.826  13.418
47613W        W12873   5.303  20.150   1.202
47614W        W12874  29.652  22.239   1.277
47615W        W12875   6.250  12.347   2.426
47616W        W12876  29.072  15.552  10.727
47617W        W12877  35.318   1.321  11.135
47618W        W12878  17.051   2.844  12.152
47619W        W12879  14.634  33.644  14.484
47620W        W12880  33.781  37.770  14.022
47621W        W12881  36.735  10.787   3.671
47622W        W12882   3.417  23.967   3.869
47623W        W12883  25.113  39.389  13.822
47624W        W12884  24.405  23.701   1.936
47625W        W12885  15.681  40.434   4.655
47626W        W12886  13.141  21.244   0.419
47627W        W12887  30.165   8.920  12.669
47628W        W12888  32.835  21.142   2.362
47629W        W12889  37.548  12.587  11.573
47630W        W12890   8.448  43.945  13.503
47631W        W12891  30.128  11.652  12.540
47632W        W12892  24.672  39.382  11.643
47633W        W12893   2.959   0.431   2.455
47634W        W12894  16.706  16.838   4.987
47635W        W12895  25.800  13.325  12.423
47636W        W12896  35.127  12.697   1.392
47637W        W12897  44.377  42.363  14.841
47638W        W12898  38.399   4.143  11.470
47639W        W12899  36.170  33.373   4.518
47640W        W12900  42.739  11.309  13.430
47641W        W12901  22.684  25.210   4.429
47642W        W12902  23.490   2.741   2.108
47643W        W12903  18.290  34.532  13.978
47644W        W12904  39.298  18.112  11.631
47645W        W12905  35.644  37.443   2.307
47646W        W12906   9.416  19.464  12.163
47647W        W12907  23.608  11.088   3.581
47648W        W12908  21.674   4.008  12.008
47649W        W12909  18.743  29.359   2.849
47650W        W12910  10.708  13.305   3.295
47651W        W12911   1.848  14.937  13.524
47652W        W12912  29.220  37.968   2.280
47653W        W12913   4.767  14.469  13.300
47654W        W12914  21.428  42.405  11.915
47655W        W12915  31.942  40.799   4.183
47656W        W12916  30.942  37.526   1.305
47657W        W12917  22.033  10.600   2.946
47658W        W12918  44.044  40.446  12.865
47659W        W12919  37.616  18.338   1.893
47660W        W12920   2.426  16.608  12.910
47661W        W12921   9.160  10.365  13.507
47662W        W12922  25.070   1.997  14.981
47663W        W12923  44.751  20.664  14.327
47664W        W12924  37.341   5.024  14.410
47665W        W12925   3.561   9.874  12.528
47666W        W12926  17.063  36.545  11.049
47667W        W12927  13.494  44.465  13.022
47668W        W12928  28.998  28.074   4.817
47669W        W12929  13.157  32.404   2.311
47670W        W12930  35.100  25.836   1.325
47671W        W12931  21.376  43.410  12.100
47672W        W12932  43.783  30.948  14.874
47673W        W12933  31.012  15.070  13.661
47674W        W12934  13.218   3.360  10.749
47675W        W12935  14.563  21.009  13.108
47676W        W12936  34.093  15.618   3.701
47677W        W12937  20.401  22.077  11.895
47678W        W12938  31.108  44.828  12.423
47679W        W12939   3.155  30.127   4.831
47680W        W12940  22.017  36.135   3.451
47681W        W12941  18.628  17.846  12.425
47682W        W12942  16.350  37.052   4.592
47683W        W12943  14.165  12.471  14.262
47684W        W12944  27.970   1.875   3.139
47685W        W12945  12.116  13.713   4.653
47686W        W12946  42.946  35.419  14.017
47687W        W12947   2.192  44.935   2.647
47688W        W12948  16.588  27.948   4.670
47689W        W12949   1.857  43.617   0.067
47690W        W12950  30.110   0.302  10.418
47691W        W12951  43.999  18.590   0.511
47692W        W12952  30.412   2.647  11.225
47693W        W12953   0.422  40.835   0.872
47694W        W12954  40.099   1.965   4.186
47695W        W12955  18.655  19.862  11.898
47696W        W12956   7.415   2.718   3.319
47697W        W12957   9.349  25.949   4.550
47698W        W12958  16.935  41.626   3.780
47699W        W12959  27.273  25.151   3.455
47700W        W12960  14.230   1.451   1.914
47701W        W12961  25.132   6.375   1.766
47702W        W12962  41.188  27.479   4.526
47703W        W12963  29.206  43.884   4.264
47704W        W12964  13.792   3.547  13.950
47705W        W12965  42.383  27.731   1.359
47706W        W12966  30.020  32.442  13.014
47707W        W12967  23.585  30.490   1.244
47708W        W12968  36.177  19.855   2.188
47709W        W12969  37.131  27.395   2.693
47710W        W12970  43.922  41.494   4.920
47711W        W12971  35.608   0.583  13.168
47712W        W12972  37.388   7.275  13.150
47713W        W12973  11.051  40.447  11.988
47714W        W12974   1.840  31.960   4.644
47715W        W12975  37.679  41.801  12.892
47716W        W12976  30.650  42.943  13.560
47717W        W12977   2.342  29.519  13.991
47718W        W12978   9.192  32.708   4.447
47719W        W12979  10.660  42.005   2.290
47720W        W12980  30.563  19.530  12.495
47721W        W12981   6.808  12.801  14.170
47722W        W12982  18.242  12.548  12.929
47723W        W12983  31.131  13.582   3.813
47724W        W12984  14.859  41.526  10.258
47725W        W12985  21.013  35.880  12.599
47726W        W12986  11.603  12.313   1.774
47727W        W12987   1.249  25.118  14.837
47728W        W12988  42.422  22.661   4.979
47729W        W12989  43.428  29.152   4.645
47730W        W12990  18.018   1.873  11.909
47731W        W12991  25.701  41.888  13.982
47732W        W12992   0.030  30.568   1.658
47733W        W12993  41.397  33.565   4.278
47734W        W12994  19.147  31.341  12.085
47735W        W12995  39.958   0.855   2.220
47736W        W12996  21.007   1.083   4.588
47737W        W12997   8.957  34.518  13.973
47738W        W12998  36.873  31.387   1.820
47739W        W12999  44.906  27.162  12.511
47740W        W13000   5.773  16.078  13.921
47741W        W13001  35.366  34.928  13.113
47742W        W13002  10.631  33.074  12.123
47743W        W13003   0.878  27.899  14.037
47744W        W13004   5.530  43.753  13.507
47745W        W13005   2.544  12.742  13.548
47746W        W13006  26.724  11.239   3.271
47747W        W13007  11.616  35.473   0.844
47748W        W13008   9.129  15.249   4.475
47749W        W13009   1.748  20.214   1.195
47750W        W13010   3.989  27.502  11.195
47751W        W13011  42.997   3.806  14.731
47752W        W13012  34.934  10.894  11.978
47753W        W13013   5.043  22.788   2.258
47754W        W13014   3.693  17.217  12.043
47755W        W13015  43.796  16.691   3.386
47756W        W13016  44.278  32.477  14.423
47757W        W13017  24.213  24.036  10.592
47758W        W13018   7.468  33.030   3.625
47759W        W13019   7.256   3.770   2.739
47760W        W13020  14.334   1.389   3.917
47761W        W13021  33.014   9.213   4.881
47762W        W13022   1.991   9.214   0.529
47763W        W13023  26.485  32.986  12.089
47764W        W13024   3.878  17.390  14.308
47765W        W13025   3.819  31.555  14.876
47766W        W13026  41.339  33.584  11.252
47767W        W13027  35.995  12.159  14.859
47768W        W13028  28.317  12.852   2.385
47769W        W13029  10.248  21.971   4.088
47770W        W13030  17.011  25.025   3.280
47771W        W13031   4.356  24.225  14.019
47772W        W13032   5.390  25.389  12.966
47773W        W13033  16.916  26.424   5.117
47774W        W13034  25.943  39.770  13.670
47775W        W13035  32.452  28.606  14.549
47776W        W13036   8.841  30.980   5.061
47777W        W13037  19.348  15.067   3.910
47778W        W13038   0.440  25.452  12.085
47779W        W13039  43.485   6.166  13.454
47780W        W13040  40.337   7.788  12.770
47781W        W13041  35.950  19.282   3.077
47782W        W13042  17.531  34.575  14.706
47783W        W13043  15.905  43.378   1.821
47784W        W13044   1.011  31.845  13.498
47785W        W13045  31.158   8.626  13.061
47786W        W13046  25.490  44.905  11.002
47787W        W13047   5.953   6.780  14.896
47788W        W13048  26.007  14.846   4.388
47789W        W13049   6.950  42.265  11.600
47790W        W13050  39.608  26.493  13.416
47791W        W13051  33.878  14.177  12.082
47792W        W13052  15.785   8.088   4.416
47793W        W13053  35.050   0.347   1.242
47794W        W13054  17.546  25.198   2.423
47795W        W13055  17.654  16.806   0.213
47796W        W13056  41.013  19.562  14.973
47797W        W13057  35.466  33.446   3.241
47798W        W13058   0.965  30.599   2.189
47799W        W13059  37.053  17.279  10.433
47800W        W13060  13.211   8.730  10.505
47801W        W13061   3.436  31.177  12.301
47802W        W13062  42.807  14.243   2.181
47803W        W13063  33.605  14.290  11.640
47804W        W13064   4.793  39.533  10.933
47805W        W13065   6.747  44.144   1.391
47806W        W13066  31.607  17.084  12.041
47807W        W13067  43.801  39.516  13.077
47808W        W13068  22.102  24.678  12.473
47809W        W13069   2.279  36.468   0.044
47810W        W13070  13.679  25.065  10.723
47811W        W13071  33.414  26.400  14.272
47812W        W13072  23.666   5.218  12.206
47813W        W13073   1.030  24.915  13.559
47814W        W13074   9.860  27.760   0.216
47815W        W13075  31.906  44.054   3.749
47816W        W13076  33.937  16.621   0.325
47817W        W13077  18.505  27.612  14.848
47818W        W13078  38.011  20.840  11.480
47819W        W13079  37.021  10.059  14.754
47820W        W13080  37.506  14.202  11.546
47821W        W13081   4.695  34.408  13.455
47822W        W13082   1.710  42.930  13.146
47823W        W13083  30.436   4.302   2.801
47824W        W13084  13.662  17.232   3.260
47825W        W13085  38.457  15.844  12.823
47826W        W13086  31.469   0.307   2.940
47827W        W13087  19.648  27.611  13.456
47828W        W13088  10.282  32.599  13.860
47829W        W13089  18.494  15.100   4.054
47830W        W13090  17.710  10.604   0.356
47831W        W13091   9.798  11.392  14.278
47832W        W13092  32.618   3.053   3.765
47833W        W13093   6.860  12.875   1.327
47834W        W13094  22.504  14.632   4.121
47835W        W13095  40.792   9.262  13.124
47836W        W13096   6.920  15.318   3.169
47837W        W13097  31.589  37.667  12.125
47838W        W13098  29.682   5.588  11.423
47839W        W13099  17.604  37.125   4.480
47840W        W13100  37.075   6.190   4.625
47841W        W13101   1.408  11.404   0.121
47842W        W13102  37.498  30.951  14.875
47843W        W13103  10.039  34.711   2.111
47844W        W13104  34.625  26.585   1.364
47845W        W13105  43.295  25.974  10.780
47846W        W13106  44.679  35.525  13.440
47847W        W13107  44.618  11.406  12.574
47848W        W13108   2.816  35.464  11.521
47849W        W13109  10.390  29.434   1.708
47850W        W13110  30.445  36.776  10.464
47851W        W13111  19.102  43.844  13.338
47852W        W13112   8.234   1.256   4.622
47853W        W13113  37.228  33.682   5.047
47854W        W13114  34.359  17.096   4.659
47855W        W13115  25.877  27.652  12.979
47856W        W13116   7.303  37.041  13.472
47857W        W13117  43.223  20.667   0.289
47858W        W13118  11.509  44.018   3.067
47859W        W13119   4.910  41.861   4.126
47860W        W13120  33.840  44.326   0.987
47861W        W13121  25.990  20.126   4.347
47862W        W13122  37.497   3.718   4.436
47863W        W13123   2.286   7.811  13.939
47864W        W13124  36.991  44.216   0.498
47865W        W13125  13.680  34.889  14.949
47866W        W13126  33.800   6.003   0.318
47867W        W13127  43.791  42.790  11.507
47868W        W13128   5.966  18.723   2.235
47869W        W13129  22.101  42.224   1.390
47870W        W13130  43.388   2.364  14.089
47871W        W13131  16.513  11.108  13.884
47872W        W13132   9.914  33.443  11.041
47873W        W13133  14.613  37.339   0.328
47874W        W13134  12.619   9.784   5.006
47875W        W13135  17.293  42.121   3.119
47876W        W13136  40.885  17.167   0.819
47877W        W13137  20.251   4.105   2.334
47878W        W13138   0.034  24.959  11.499
47879W        W13139   7.705  10.358  12.580
47880W        W13140  13.824  11.900   1.176
47881W        W13141   0.298  30.419  11.537
47882W        W13142  20.556   3.922  13.975
47883W        W13143  44.458  26.930  11.600
47884W        W13144  37.915  13.005   4.516
47885W        W13145   3.255  35.793  14.870
47886W        W13146   0.022  28.943  12.898
47887W        W13147  32.368  41.980  14.835
47888W        W13148  38.813  12.569   3.667
47889W        W13149  40.258  22.820   1.634
47890W        W13150   5.929  37.484   0.598
47891W        W13151  34.395  15.063   4.399
47892W        W13152  28.940   0.971   2.410
47893W        W13153  16.011  42.541   0.452
47894W        W13154  29.564  29.166  12.654
47895W        W13155  42.523   3.941   0.648
47896W        W13156  44.795   6.318   1.865
47897W        W13157  20.010  39.556   1.692
47898W        W13158  41.535  35.219  11.396
47899W        W13159   6.656  25.138   0.013
47900W        W13160  42.463  23.497  11.506
47901W        W13161  20.548   9.449  12.428
47902W        W13162  32.169  15.713  12.550
47903W        W13163  12.183  32.399   3.596
47904W        W13164  13.073  36.883  11.897
47905W        W13165  11.681  32.463  12.086
47906W        W13166  27.008  42.250   4.315
47907W        W13167   6.831  34.844   2.737
47908W        W13168   4.880  28.090   3.327
47909W        W13169  28.340  16.242  11.548
47910W        W13170   9.277   8.135   0.599
47911W        W13171  41.870  29.361  11.597
47912W        W13172  27.059  39.104   0.262
47913W        W13173   9.197  43.443  11.007
47914W        W13174  30.049  28.883   2.313
47915W        W13175   0.250  31.710   1.416
47916W        W13176   4.067  43.688  10.923
47917W        W13177  25.967  39.059  11.627
47918W        W13178  10.852  35.846   0.982
47919W        W13179  10.694  10.568  12.626
47920W        W13180  17.068  37.862   1.640
47921W        W13181   2.836  43.108  10.771
47922W        W13182  35.031  40.729   4.794
47923W        W13183   0.950  25.006   3.175
47924W        W13184  44.438   1.934  13.393
47925W        W13185  26.010  28.872  10.615
47926W        W13186  28.512  13.780   1.388
47927W        W13187   6.722  24.205  12.539
47928W        W13188  40.493  22.956  14.371
47929W        W13189  14.356  30.240  12.566
47930W        W13190   6.168  15.331  14.986
47931W        W13191  38.760   4.700  13.557
47932W        W13192  22.686  35.747  13.969
47933W        W13193  43.079  29.144  12.917
47934W        W13194  42.485  40.383  14.339
47935W        W13195  28.538   9.285   3.373
47936W        W13196  39.804  27.516   1.271
47937W        W13197  20.709  44.540  10.999
47938W        W13198  14.289  29.527   1.549
47939W        W13199  24.206  43.340   1.573
47940W        W13200  35.891  41.785  13.383
47941W        W13201  16.355  27.639   3.489
47942W        W13202   1.764  18.834  13.692
47943W        W13203   4.673   9.315  13.490
47944W        W13204  18.037  27.053  13.411
47945W        W13205  40.916  29.138  13.994
47946W        W13206  27.497  25.504  12.587
47947W        W13207  23.893  31.483   0.267
47948W        W13208  27.107  33.438  10.246
47949W        W13209  19.110   2.847   1.709
47950W        W13210  44.376   5.993   1.323
47951W        W13211  31.082  36.830   2.213
47952W        W13212  15.591  18.019   2.722
47953W        W13213  19.275  19.154  13.487
47954W        W13214  33.488  16.607   1.793
47955W        W13215  13.927   3.216   4.035
47956W        W13216  13.402  24.516   4.176
47957W        W13217  18.719  27.308  12.517
47958W        W13218  20.255   4.152  13.592
47959W        W13219  20.954   9.089  14.913
47960W        W13220  34.378  14.272  13.003
47961W        W13221  25.728   9.987  10.724
47962W        W13222  31.552  25.864   2.686
47963W        W13223  24.695   8.058  11.068
47964W        W13224  26.957  10.177   1.899
47965W        W13225  17.773  36.649   4.590
47966W        W13226  39.512  32.598  14.814
47967W        W13227   6.436  10.657   4.225
47968W        W13228   9.281  31.925   3.027
47969W        W13229  26.491   0.047  13.367
47970W        W13230  30.621  20.222   1.431
47971W        W13231  24.100   9.933  14.724
47972W        W13232  31.929  38.611  11.777
47973W        W13233  44.274  37.316   3.358
47974W        W13234   8.118   5.489  14.717
47975W        W13235  12.396  15.129   2.732
47976W        W13236  43.520  12.778   1.882
47977W        W13237  32.382  27.781  11.926
47978W        W13238  22.156  23.906  11.531
47979W        W13239  17.064  17.619  11.544
47980W        W13240  41.277   7.301  13.997
47981W        W13241   2.937  34.442  10.700
47982W        W13242  27.644  36.402   3.023
47983W        W13243  14.721  36.357   4.557
47984W        W13244  41.354  44.203   4.582
47985W        W13245   5.834  20.802   1.805
47986W        W13246  42.872  15.273  14.229
47987W        W13247  33.373  33.898  14.386
47988W        W13248  36.462  33.606  13.515
47989W        W13249   1.704  27.511  10.995
47990W        W13250  34.507  32.914   4.131
47991W        W13251  41.731  35.471  12.688
47992W        W13252  22.774  42.042  12.611
47993W        W13253  21.070  40.696   3.650
47994W        W13254   0.776  39.873   2.589
47995W        W13255  37.329  42.870  13.361
47996W        W13256  18.735  14.234  13.607
47997W        W13257  23.254  39.103  14.310
47998W        W13258  25.602  35.301   3.184
47999W        W13259  12.305   4.430   2.265
48000W        W13260   1.435  34.272   1.345
48001W        W13261   7.223   9.828  10.717
48002W        W13262  30.652  15.830  12.398
48003W        W13263   7.757  15.826  11.561
48004W        W13264  17.680  33.394   0.028
48005W        W13265  35.574  42.660   3.160
48006W        W13266   2.072   8.261   4.763
48007W        W13267  13.941  31.130   0.329
48008W        W13268  38.346  29.522   1.928
48009W        W13269  40.354  18.809   3.226
48010W        W13270   4.726   5.749   0.220
48011W        W13271  21.207   4.185   0.852
48012W        W13272   1.971   4.760  14.842
48013W        W13273  38.377  36.084   3.693
48014W        W13274   8.511  18.233   3.055
48015W        W13275  28.147  24.234  14.244
48016W        W13276  19.682  39.837  11.209
48017W        W13277  26.980   4.890  14.913
48018W        W13278  11.516  17.578   1.848
48019W        W13279  13.261  22.974  14.034
48020W        W13280  17.055  15.581  12.400
48021W        W13281   1.986   9.720   0.372
48022W        W13282  17.452  41.054   2.391
48023W        W13283  24.216  23.081  11.563
48024W        W13284   8.810  42.567  14.495
48025W        W13285  37.496  35.053   3.377
48026W        W13286  41.087  23.498  14.955
48027W        W13287  42.847  26.829   3.941
48028W        W13288  38.658  11.176  11.624
48029W        W13289  19.232   3.971   2.432
48030W        W13290  23.056  43.459  13.122
48031W        W13291  43.565  25.590  14.365
48032W        W13292   4.887  44.104  14.281
48033W        W13293  18.159  30.528  14.792
48034W        W13294   6.419  40.827   4.144
48035W        W13295  40.377  27.062  13.086
48036W        W13296  28.923   3.322  12.543
48037W        W13297  43.040   7.886  14.311
48038W        W13298  19.012  29.008   1.310
48039W        W13299  31.080   1.393   4.409
48040W        W13300   2.557  21.688   0.173
48041W        W13301   5.605   8.918  11.647
48042W        W13302  21.536  29.668  11.541
48043W        W13303  30.597   6.123   4.714
48044W        W13304   2.850   3.523   0.907
48045W        W13305  33.999  27.483   2.899
48046W        W13306  25.954  42.132  11.363
48047W        W13307   0.282  16.068   2.612
48048W        W13308  44.908  14.367   3.624
48049W        W13309  22.624  30.855   1.343
48050W        W13310  14.739  32.346   2.747
48051W        W13311  16.306  11.148  12.476
48052W        W13312  40.954  38.432  13.926
48053W        W13313   4.037  34.368   2.346
48054W        W13314  18.568  37.907  11.103
48055W        W13315   8.748  31.465  14.361
48056W        W13316   6.218  40.367   1.879
48057W        W13317  29.487  11.259  11.971
48058W        W13318   1.030  31.328   4.662
48059W        W13319  20.619  30.026   4.654
48060W        W13320  10.092  42.235  13.458
48061W        W13321  37.619  40.589  13.927
48062W        W13322  31.438  42.072   0.655
48063W        W13323  39.205  24.693   1.716
48064W        W13324   6.742   5.957  11.150
48065W        W13325  18.159  15.171  12.996
48066W        W13326  11.337  44.825   0.618
48067W        W13327   7.572  14.269   4.727
48068W        W13328   9.816  29.438  11.067
48069W        W13329  32.210  16.781   2.727
48070W        W13330  28.280  35.975  13.760
48071W        W13331  13.310  17.263  12.521
48072W        W13332   1.755  42.606   0.383
48073W        W13333   5.052  35.296  11.595
48074W        W13334  38.305  40.575   1.673
48075W        W13335   1.282  30.163   9.541
48076W        W13336  31.073  12.602  11.152
48077W        W13337  31.932  25.228  14.489
48078W        W13338  31.786  42.786   1.181
48079W        W13339  42.419  26.629  12.550
48080W        W13340  29.414  35.648  14.863
48081W        W13341   1.565  14.622   1.370
48082W        W13342  42.328  34.650  12.449
48083W        W13343  31.107  38.030   0.334
48084W        W13344   1.348  30.936   2.266
48085W        W13345   2.270  15.261  12.806
48086W        W13346  41.464  24.953   2.175
48087W        W13347  21.553   3.343  14.447
48088W        W13348   2.415  17.647   3.972
48089W        W13349  40.025   6.397   4.176
48090W        W13350  27.481  14.477   2.795
48091W        W13351  38.892  17.768   4.272
48092W        W13352   3.342  32.978   4.599
48093W        W13353  44.108  41.169   2.290
48094W        W13354  36.048  12.747   0.322
48095W        W13355   5.142  26.770  14.780
48096W        W13356   7.280  28.064  14.873
48097W        W13357  17.072  14.574   3.699
48098W        W13358   4.929  32.389  13.067
48099W        W13359   6.830  22.608   3.817
48100W        W13360  33.972   3.341   2.159
48101W        W13361  24.234  42.727  10.920
48102W        W13362  23.727  41.079   0.012
48103W        W13363   3.356   4.126  12.330
48104W        W13364  30.416  19.780  14.361
48105W        W13365   5.353  34.868  10.792
48106W        W13366   7.973   6.354  12.565
48107W        W13367  18.814  44.320   2.192
48108W        W13368  19.729  11.556  11.061
48109W        W13369  38.515  13.272   0.505
48110W        W13370  38.179  33.777   2.426
48111W        W13371  35.861  40.032   1.754
48112W        W13372   4.441  33.844   1.144
48113W        W13373   0.654  32.403  14.296
48114W        W13374  18.048   3.445  14.456
48115W        W13375  10.686  25.485   1.174
48116W        W13376  15.248  11.112   0.524
48117W        W13377   4.862  35.497   3.580
48118W        W13378  32.986  35.553  10.563
48119W        W13379  28.411  18.264  11.537
48120W        W13380  22.917  39.527  14.390
48121W        W13381  38.552   1.759  10.350
48122W        W13382  22.027  37.037   3.157
48123W        W13383  13.698  24.893   1.972
48124W        W13384   6.805  39.811  11.377
48125W        W13385  10.147  20.220  12.976
48126W        W13386   3.325  13.140   2.333
48127W        W13387  35.147  38.732  14.148
48128W        W13388  11.146  37.052   0.742
48129W        W13389   5.423  37.556  10.640
48130W        W13390  22.329   1.352  12.422
48131W        W13391  15.110  26.730   9.838
48132W        W13392  36.597  44.509  11.155
48133W        W13393   2.936  18.584  12.985
48134W        W13394  14.108  11.550   2.762
48135W        W13395   1.922  33.011   1.697
48136W        W13396  36.453  15.917   0.334
48137W        W13397  33.372  27.003  13.005
48138W        W13398  37.796  43.867   0.901
48139W        W13399  28.188  16.644   4.444
48140W        W13400   9.562   8.738   3.404
48141W        W13401  37.861  23.510   0.926
48142W        W13402  15.039  38.428  14.876
48143W        W13403  28.530  41.950  10.717
48144W        W13404  44.958  16.313  14.419
48145W        W13405  26.110  34.413  13.794
48146W        W13406  29.099  32.864  13.752
48147W        W13407  36.451  15.304  11.475
48148W        W13408   4.264   9.724  13.140
48149W        W13409  10.851  44.221  12.459
48150W        W13410   4.558   3.729   3.449
48151W        W13411  34.154  21.232   4.091
48152W        W13412  18.087  11.834  12.542
48153W        W13413  38.369   3.402  11.020
48154W        W13414  31.870   4.752   4.983
48155W        W13415  21.534  16.466  10.779
48156W        W13416  20.106   8.002  10.112
48157W        W13417  20.879  17.135  14.007
48158W        W13418  20.607  28.976   4.615
48159W        W13419   4.857  22.255  10.914
48160W        W13420  41.897  36.007  14.872
48161W        W13421  17.802   3.606  14.897
48162W        W13422  43.705  40.097  10.652
48163W        W13423   6.347  14.102   2.679
48164W        W13424  27.513  11.618  12.791
48165W        W13425  33.373  23.269   0.816
48166W        W13426  15.199  13.960   3.290
48167W        W13427  12.166  20.151  14.790
48168W        W13428  42.873  23.463  14.060
48169W        W13429  40.284  34.838  12.992
48170W        W13430  25.143   8.335   1.190
48171W        W13431  21.295  37.866   4.216
48172W        W13432  20.682  16.608  14.250
48173W        W13433  32.011  28.967   2.824
48174W        W13434   6.101  22.790  14.993
48175W        W13435  22.152  25.545   0.390
48176W        W13436  18.837  28.693  12.761
48177W        W13437   6.425  26.370  10.545
48178W        W13438   1.892  44.490  13.482
48179W        W13439   7.148  14.990   1.724
48180W        W13440  41.087  33.177   1.025
48181W        W13441  31.397   1.444  13.890
48182W        W13442   6.457  23.628  11.727
48183W        W13443  23.179  33.159  14.098
48184W        W13444  35.365  13.598   1.421
48185W        W13445  38.572   6.210   3.010
48186W        W13446   1.368  14.280   0.215
48187W        W13447  13.202  38.019  13.413
48188W        W13448  17.299   7.402  14.759
48189W        W13449  10.209  14.153  11.137
48190W        W13450   8.128  25.025  14.758
48191W        W13451  26.465  23.873   3.755
48192W        W13452   0.855  17.421  13.605
48193W        W13453   9.062  21.503  14.404
48194W        W13454  37.159  14.004   2.317
48195W        W13455  40.575  12.537   0.182
48196W        W13456  32.251  17.027   1.324
48197W        W13457  16.094  10.196  11.137
48198W        W13458  38.566  39.349  12.896
48199W        W13459  34.900  32.452  12.863
48200W        W13460  36.489  19.886  11.543
48201W        W13461  30.678  41.773   2.316
48202W        W13462  33.449  30.929   1.499
48203W        W13463  15.662  21.572   0.006
48204W        W13464   3.906  26.258   4.921
48205W        W13465   7.239  11.098   3.303
48206W        W13466   9.541  36.330  11.378
48207W        W13467  30.438  20.621   4.118
48208W        W13468   9.101  41.443  14.774
48209W        W13469  31.557  22.305   3.201
48210W        W13470  35.426  17.305   3.750
48211W        W13471   7.169   6.525  11.500
48212W        W13472  15.222  28.621  14.571
48213W        W13473  27.443  18.314  12.013
48214W        W13474  18.474  17.042  11.961
48215W        W13475   3.777  31.390   1.492
48216W        W13476  27.927   7.884  10.570
48217W        W13477  34.143  30.122  12.924
48218W        W13478   0.950  12.919  12.413
48219W        W13479  33.565   8.784   5.065
48220W        W13480  25.986   2.273  11.077
48221W        W13481  22.213  41.946   0.968
48222W        W13482  20.787  31.824   3.673
48223W        W13483  26.114  41.783  12.608
48224W        W13484   3.206  41.235   0.722
48225W        W13485  12.652   3.471   4.969
48226W        W13486  21.964  43.824  14.947
48227W        W13487  29.092   5.039  11.559
48228W        W13488   7.193  16.058   1.405
48229W        W13489  23.287   2.497   1.161
48230W        W13490  24.017   2.740  12.915
48231W        W13491   9.133  14.674  13.861
48232W        W13492  37.055  12.864  13.820
48233W        W13493  26.699  41.857   2.297
48234W        W13494  36.821  27.019  11.568
48235W        W13495   5.669  37.279  12.066
48236W        W13496  22.329  17.705  12.187
48237W        W13497  26.760  28.865  11.611
48238W        W13498  38.945  17.428  11.944
48239W        W13499  19.665  22.631   1.532
48240W        W13500  41.282  20.532   1.315
48241W        W13501   3.797  17.617  11.503
48242W        W13502  20.900  34.378   2.730
48243W        W13503  12.655  22.719  14.067
48244W        W13504  11.230  14.366   1.447
48245W        W13505  31.610  30.656  11.708
48246W        W13506  35.089   6.401  14.748
48247W        W13507  20.414  31.043   2.648
48248W        W13508   1.214  36.934  11.476
48249W        W13509  34.330  34.149   1.760
48250W        W13510  21.692  26.244   0.725
48251W        W13511   6.078   4.563  13.116
48252W        W13512   7.140  24.515   1.226
48253W        W13513  16.445  30.299  11.825
48254W        W13514   8.730  35.860  11.974
48255W        W13515   7.622  38.845  13.305
48256W        W13516   3.892   3.917   0.052
48257W        W13517  23.146  18.248  14.805
48258W        W13518  26.294   2.704  10.872
48259W        W13519  44.384   2.450   3.799
48260W        W13520  33.818  32.554  12.116
48261W        W13521  26.616   4.509   1.231
48262W        W13522  41.842  10.233   1.669
48263W        W13523   8.518  15.990  11.384
48264W        W13524   8.439   4.290  13.875
48265W        W13525  29.493  43.897   2.605
48266W        W13526  44.027  26.953   3.975
48267W        W13527  15.761   1.745   2.403
48268W        W13528  22.802   3.695   2.614
48269W        W13529  21.731  23.059  13.975
48270W        W13530  25.238  27.711   1.915
48271W        W13531  27.172  26.006  13.139
48272W        W13532  17.074  23.696   1.863
48273W        W13533  28.447   4.824  14.853
48274W        W13534   5.539  30.922  12.651
48275W        W13535   6.421  24.050   2.387
48276W        W13536  33.114  18.013   1.702
48277W        W13537  23.529  11.491   2.826
48278W        W13538  24.742  28.487  11.783
48279W        W13539  12.853  28.891   1.689
48280W        W13540   3.962  11.734  11.154
48281W        W13541  24.065   5.274  13.062
48282W        W13542  30.447  24.371   3.658
48283W        W13543  27.495  10.153  10.583
48284W        W13544   0.899  32.200  10.532
48285W        W13545  42.139  25.102  11.668
48286W        W13546   6.764  21.019  11.786
48287W        W13547   8.779   2.169   3.817
48288W        W13548  24.560  14.122   9.916
48289W        W13549  11.102  30.550  14.276
48290W        W13550  28.903  15.847   0.356
48291W        W13551  37.604  28.255   0.853
48292W        W13552  21.134  26.948   0.822
48293W        W13553  18.675  35.083   3.603
48294W        W13554  39.782  23.630  12.471
48295W        W13555  31.050  37.581  14.376
48296W        W13556  40.705   5.002   1.809
48297W        W13557   3.370  32.210  12.583
48298W        W13558  17.087  17.001   3.742
48299W        W13559  31.905  13.324   3.326
48300W        W13560  31.509  38.565  13.240
48301W        W13561  10.307  11.243   0.780
48302W        W13562   6.888  17.720  13.887
48303W        W13563  37.079  16.186  14.530
48304W        W13564  13.682  38.786  13.419
48305W        W13565  18.783   3.178  12.416
48306W        W13566  18.335   6.660   1.192
48307W        W13567   5.747  12.795  12.527
48308W        W13568   8.598  25.560  12.091
48309W        W13569  42.181  28.230  12.367
48310W        W13570  13.819  13.427  13.377
48311W        W13571  26.559  36.998   1.437
48312W        W13572   3.483  34.648   0.292
48313W        W13573  39.876  40.850  11.274
48314W        W13574  14.259   3.067  10.665
48315W        W13575  32.623   8.499  14.329
48316W        W13576  39.520  31.002  11.609
48317W        W13577  41.577  30.780  11.598
48318W        W13578  28.868  36.129   3.773
48319W        W13579   0.423  31.379  12.107
48320W        W13580  39.485  19.054   2.569
48321W        W13581  34.437   1.811   2.051
48322W        W13582  39.340   5.741   1.663
48323W        W13583  41.687  16.777   2.313
48324W        W13584  23.368  37.239   1.805
48325W        W13585  40.630  14.770   3.699
48326W        W13586   2.783  44.416  13.489
48327W        W13587   8.663  22.710  12.340
48328W        W13588  27.026  37.846  13.831
48329W        W13589   4.835  41.916  14.297
48330W        W13590  23.073  34.114   0.648
48331W        W13591  42.942  43.272   4.570
48332W        W13592  39.449  25.097   0.864
48333W        W13593  12.212   0.202  10.981
48334W        W13594  32.220  16.548  12.959
48335W        W13595  35.448  32.583   0.472
48336W        W13596   1.764   6.882   3.423
48337W        W13597  20.620  19.650  13.814
48338W        W13598   4.437   7.155   2.218
48339W        W13599  41.279   0.852   4.192
48340W        W13600  26.187   1.169   2.408
48341W        W13601   6.559  40.316  13.377
48342W        W13602  17.164  16.135   1.903
48343W        W13603  13.644  35.094  10.685
48344W        W13604   6.124  26.082   9.779
48345W        W13605   5.776   4.376   1.924
48346W        W13606  22.136  29.832  13.944
48347W        W13607  36.566  19.894  14.077
48348W        W13608  23.463  17.724   0.411
48349W        W13609  14.700  16.780   4.609
48350W        W13610  15.113   3.188   2.695
48351W        W13611  38.900   5.356   3.945
48352W        W13612  23.371  28.467  13.817
48353W        W13613  32.844   9.344  13.018
48354W        W13614  14.235  18.059   3.169
48355W        W13615  24.830  40.351   0.267
48356W        W13616  35.305   8.131  12.636
48357W        W13617  25.972  40.761   0.102
48358W        W13618   7.760   0.019  12.537
48359W        W13619  29.961  34.916   3.165
48360W        W13620  33.929  35.822  12.513
48361W        W13621  12.328   1.548  11.957
48362W        W13622  41.519  13.965   0.515
48363W        W13623  40.038  21.537   4.604
48364W        W13624  27.219  19.779   1.292
48365W        W13625  25.274  18.676   0.010
48366W        W13626  20.143   1.891   3.645
48367W        W13627   6.253  33.438  13.758
48368W        W13628  23.001   8.449   3.811
48369W        W13629  32.635  16.367  13.808
48370W        W13630  23.442  31.427  14.027
48371W        W13631  28.093  39.816  14.760
48372W        W13632   3.418  30.614  13.402
48373W        W13633  21.545   8.153  11.908
48374W        W13634  18.309  21.271  13.421
48375W        W13635  36.601   9.517  11.600
48376W        W13636  30.792  34.627  10.807
48377W        W13637  38.697  42.279   0.854
48378W        W13638  28.021  33.486  11.481
48379W        W13639  19.451  30.194  14.805
48380W        W13640  16.044   6.492   1.352
48381W        W13641  44.388  44.762   3.253
48382W        W13642  28.824  14.866  11.706
48383W        W13643  14.697  13.897   3.140
48384W        W13644   3.754  32.462  14.381
48385W        W13645  31.353   8.392  12.081
48386W        W13646  28.420  25.020  11.142
48387W        W13647   6.956  28.930   2.496
48388W        W13648   4.870   6.801   1.988
48389W        W13649  12.667  24.417   3.908
48390W        W13650  31.097  14.309   4.217
48391W        W13651  43.321   0.110  14.812
48392W        W13652  36.189  38.184   2.683
48393W        W13653   9.398  10.731  13.882
48394W        W13654  31.541  14.622   4.255
48395W        W13655  13.109   2.143  10.630
48396W        W13656  28.190  28.218  11.454
48397W        W13657  29.604  13.884   2.761
48398W        W13658  31.760  41.333  13.986
48399W        W13659  21.553  27.525  12.765
48400W        W13660  29.876  40.964   3.428
48401W        W13661   1.512  16.680  14.824
48402W        W13662  13.094   4.333   3.531
48403W        W13663  16.687  41.831   1.414
48404W        W13664   9.196  31.601  11.770
48405W        W13665   3.013  11.781  11.308
48406W        W13666  35.378  13.329   3.115
48407W        W13667   4.287  16.727   0.521
48408W        W13668  39.083   0.926  10.192
48409W        W13669  22.070   2.229   2.610
48410W        W13670  10.301  40.685  13.618
48411W        W13671  41.808  31.976  11.059
48412W        W13672  40.514  37.359   0.409
48413W        W13673  12.344   5.948  11.081
48414W        W13674  42.449  42.042   0.809
48415W        W13675  17.682  32.099   0.860
48416W        W13676   8.702  30.002  12.273
48417W        W13677  33.842  16.248   4.829
48418W        W13678  15.712   1.267  13.867
48419W        W13679  32.910  43.955   0.207
48420W        W13680  39.390   4.499  11.486
48421W        W13681   8.352  37.855   4.119
48422W        W13682  35.076  15.607  11.995
48423W        W13683  43.656  28.129  12.603
48424W        W13684  38.832   2.702  12.245
48425W        W13685  27.948  11.675   2.434
48426W        W13686  33.386  20.906   1.218
48427W        W13687  10.290  12.182   2.258
48428W        W13688   8.397  43.378  10.616
48429W        W13689  40.056  38.813  11.097
48430W        W13690   6.494  18.174  14.901
48431W        W13691   3.474  11.945  11.484
48432W        W13692  20.840   6.981  11.956
48433W        W13693  24.035  19.153  12.966
48434W        W13694  43.757  19.098   3.235
48435W        W13695  44.542   1.985  10.749
48436W        W13696   5.722  29.134  12.023
48437W        W13697  44.569  40.429   0.250
48438W        W13698  14.891  39.270   4.589
48439W        W13699  27.947  41.868  14.761
48440W        W13700  18.572  10.679  14.372
48441W        W13701   8.603  27.218   2.901
48442W        W13702  21.122  19.584  13.971
48443W        W13703  36.661  33.580  14.846
48444W        W13704  42.794   0.507   2.346
48445W        W13705  15.330  34.098   4.184
48446W        W13706  43.876  34.073  14.296
48447W        W13707  19.859   6.894  11.173
48448W        W13708  33.079  40.753  12.807
48449W        W13709  43.428  34.324  14.282
48450W        W13710  33.332  21.480   4.397
48451W        W13711  13.970  39.918  12.973
48452W        W13712   6.796  43.482  14.893
48453W        W13713  30.407  29.855  11.979
48454W        W13714  33.848  22.178  12.930
48455W        W13715   8.284  38.522   3.193
48456W        W13716  42.311  34.331   1.817
48457W        W13717  12.339  35.185  12.941
48458W        W13718   0.207  33.888  13.031
48459W        W13719  41.969  33.322   0.771
48460W        W13720  24.637  13.680   4.667
48461W        W13721   4.782  17.338   3.237
48462W        W13722  34.540  21.067   2.896
48463W        W13723  39.323  37.582   2.094
48464W        W13724  30.668  19.336  11.745
48465W        W13725  36.233   5.562   0.400
48466W        W13726  29.863  26.729   3.582
48467W        W13727   0.371  35.530  13.080
48468W        W13728  20.525  23.464  12.035
48469W        W13729   5.333  13.091   0.969
48470W        W13730  36.603  43.330  14.364
48471W        W13731  40.227  40.422  13.561
48472W        W13732  13.754  21.486   1.901
48473W        W13733  16.816  27.160  11.579
48474W        W13734  20.182   9.622   2.783
48475W        W13735  24.026  23.983   1.733
48476W        W13736  33.562  21.656   4.878
48477W        W13737  12.254  38.054  14.983
48478W        W13738  19.136  24.581   4.781
48479W        W13739  35.183  34.422   0.872
48480W        W13740  12.989  37.344   2.992
48481W        W13741  36.611  44.472   2.182
48482W        W13742  39.968  15.458   1.491
48483W        W13743  37.111  35.073   4.275
48484W        W13744  18.202   8.962  11.738
48485W        W13745   4.230  35.714   1.179
48486W        W13746  34.382  36.797  13.251
48487W        W13747  36.266  15.345  10.098
48488W        W13748  15.768  43.984  11.670
48489W        W13749  16.791  36.884   2.936
48490W        W13750   0.315  23.315   0.694
48491W        W13751  41.569  16.296   0.957
48492W        W13752  28.931  18.311   2.127
48493W        W13753  16.069  18.561   4.523
48494W        W13754  41.172  38.489   3.661
48495W        W13755  34.055  11.287  11.004
48496W        W13756  17.613  31.333   1.454
48497W        W13757  37.542  26.513   4.114
48498W        W13758  34.874  32.327   2.247
48499W        W13759  39.609  42.929  11.185
48500W        W13760   6.193   0.219  10.549
48501W        W13761  36.148  24.651  14.960
48502W        W13762  16.887  32.998  11.140
48503W        W13763  12.899  39.556   4.583
48504W        W13764  33.523  14.382  13.568
48505W        W13765  14.570  10.742   4.492
48506W        W13766   7.776  32.271   1.445
48507W        W13767  41.013  32.410   4.134
48508W        W13768  21.980  11.111   2.751
48509W        W13769  15.813  38.486   4.171
48510W        W13770  17.186  20.241   1.923
48511W        W13771  33.942  24.628  12.574
48512W        W13772  12.563   5.656  13.776
48513W        W13773  24.784  26.103   4.276
48514W        W13774  24.474  34.935  12.678
48515W        W13775  27.983   4.770  14.549
48516W        W13776  25.237  16.165   2.752
48517W        W13777  40.618  15.973   4.812
48518W        W13778   3.448  41.532   2.710
48519W        W13779  43.804  39.179   1.218
48520W        W13780  14.632  16.272   3.111
48521W        W13781  43.522  18.285  11.129
48522W        W13782  19.688   6.476   1.398
48523W        W13783   9.776  24.727   1.855
48524W        W13784  33.913  34.090   0.301
48525W        W13785  33.346  37.922   4.243
48526W        W13786  28.232  26.011  12.975
48527W        W13787   9.812  35.595   1.635
48528W        W13788  42.329  38.482   2.411
48529W        W13789   4.333  31.060   1.628
48530W        W13790   6.601  20.779   0.382
48531W        W13791   2.224  34.849   1.399
48532W        W13792   0.541  22.063  13.424
48533W        W13793  35.064  17.618  12.904
48534W        W13794  35.656  34.988   1.651
48535W        W13795  32.086   2.285  10.486
48536W        W13796  34.387  15.353  13.856
48537W        W13797   5.686   8.406  11.619
48538W        W13798   7.954   1.733   0.049
48539W        W13799  40.922   3.738   2.258
48540W        W13800  14.437  28.941  12.581
48541W        W13801  43.533   4.284   3.571
48542W        W13802  35.913  28.232  12.061
48543W        W13803  28.000  21.762  11.051
48544W        W13804   9.863   7.889  13.091
48545W        W13805  42.352  43.247   1.475
48546W        W13806  35.813  16.047  14.039
48547W        W13807  32.968   1.026  12.913
48548W        W13808  27.686  13.154   1.233
48549W        W13809  10.418  39.051  12.555
48550W        W13810  29.539  42.093  13.018
48551W        W13811  13.484  15.397   4.334
48552W        W13812  43.968  32.057  14.476
48553W        W13813  25.230  29.102   4.583
48554W        W13814   6.498  37.164  11.237
48555W        W13815   4.564   5.541   0.664
48556W        W13816   3.333  44.676   3.889
48557W        W13817  33.493  23.196  14.526
48558W        W13818  13.309  36.879  14.895
48559W        W13819   4.179   0.234   3.056
48560W        W13820  33.104  23.519  11.578
48561W        W13821  26.122  19.023   2.702
48562W        W13822  42.434  33.432   0.525
48563W        W13823  17.707   8.709   0.429
48564W        W13824   9.302  36.967  13.440
48565W        W13825  41.775  37.069   3.269
48566W        W13826   1.605  43.322  11.206
48567W        W13827  19.217   0.419  10.669
48568W        W13828  44.224  32.398  14.960
48569W        W13829  30.588  36.032   0.220
48570W        W13830   0.279  16.209   1.768
48571W        W13831   5.174   2.057   1.883
48572W        W13832   0.973  32.025   2.516
48573W        W13833   0.223  19.713   4.160
48574W        W13834   9.834  26.907  12.699
48575W        W13835  35.774  38.948  10.378
48576W        W13836  32.437  19.169   4.415
48577W        W13837   7.394  29.342   1.214
48578W        W13838  43.608   9.691   0.575
48579W        W13839  35.524  21.318   0.795
48580W        W13840  33.555  12.270   1.870
48581W        W13841  41.505  43.400   1.676
48582W        W13842  20.991  27.489  12.639
48583W        W13843  19.954   3.448   4.150
48584W        W13844   5.421  32.653  10.931
48585W        W13845  44.295  38.514   1.508
48586W        W13846  12.918  34.588  11.514
48587W        W13847  11.632  42.515  11.628
48588W        W13848  40.761  30.154   1.241
48589W        W13849  43.125  31.555  11.208
48590W        W13850  42.342  21.201   4.330
48591W        W13851   2.523   4.206   2.281
48592W        W13852  19.204   6.020   4.209
48593W        W13853  40.348  18.490   2.818
48594W        W13854  13.256  41.744   4.824
48595W        W13855  27.975  31.255  11.878
48596W        W13856  23.548  24.703   0.954
48597W        W13857  44.212  30.168   1.818
48598W        W13858  16.623  30.974  14.345
48599W        W13859  10.599  31.790  13.983
48600W        W13860  26.530  35.033  10.082
48601W        W13861  17.182   0.973  13.557
48602W        W13862  39.462  30.076  12.624
48603W        W13863  16.104  20.567   2.154
48604W        W13864  28.907  36.318  13.026
48605W        W13865  16.591   7.760   2.401
48606W        W13866   6.745   8.196   1.438
48607W        W13867  37.044  20.181   0.583
48608W        W13868  42.212   2.287   1.452
48609W        W13869  35.568  29.254  10.545
48610W        W13870  21.447  31.939   1.808
48611W        W13871  29.445  29.104   0.385
48612W        W13872   2.057  23.716   3.635
48613W        W13873  35.989  35.875   1.464
48614W        W13874  22.793  34.156   2.657
48615W        W13875  36.441  31.571  14.960
48616W        W13876  33.079  34.429   0.423
48617W        W13877  26.980  13.414   3.641
48618W        W13878  10.596  22.797  12.973
48619W        W13879  14.268   7.784  10.594
48620W        W13880  35.983  29.141  13.167
48621W        W13881  12.664  26.372  11.569
48622W        W13882   5.303   5.889   4.285
48623W        W13883  35.398  36.439   0.768
48624W        W13884  25.207  22.897  13.757
48625W        W13885   2.056  40.270  11.136
48626W        W13886  41.571  26.631  12.302
48627W        W13887  23.299  29.100   1.268
48628W        W13888   8.949  40.117   2.846
48629W        W13889  36.800  23.040  10.597
48630W        W13890   1.779   3.546   1.694
48631W        W13891  18.334  14.737   4.647
48632W        W13892  28.142  27.460  11.979
48633W        W13893   4.922   3.329   0.484
48634W        W13894  32.808   5.163  13.382
48635W        W13895   0.722  18.506  14.300
48636W        W13896   1.974  36.195  14.352
48637W        W13897  17.257  10.778  12.487
48638W        W13898  12.639  27.131   3.463
48639W        W13899  14.971   6.872   0.247
48640W        W13900  39.764  41.865   0.320
48641W        W13901  17.070  22.307  12.855
48642W        W13902  22.107  42.570  13.318
48643W        W13903  35.631  30.336  12.781
48644W        W13904  36.240   4.357  12.190
48645W        W13905  30.821   4.769   4.947
48646W        W13906  12.855  12.155  12.864
48647W        W13907  43.406   6.332  12.371
48648W        W13908  27.539  17.230   3.701
48649W        W13909  38.180  42.831   3.442
48650W        W13910  32.196  20.072   0.556
48651W        W13911   9.673  44.855   0.216
48652W        W13912  21.118  41.387   9.994
48653W        W13913  11.676  41.997  13.035
48654W        W13914  42.774   7.605   3.240
48655W        W13915  42.983  16.293  14.610
48656W        W13916  25.447  20.574   2.754
48657W        W13917  14.591   0.708  12.527
48658W        W13918  33.934  36.628  13.588
48659W        W13919  30.991   7.621   0.310
48660W        W13920  42.250   6.881   2.645
48661W        W13921  44.241   0.482  10.302
48662W        W13922  28.754  29.504   2.743
48663W        W13923  42.035  32.117  12.907
48664W        W13924   5.720  10.827   2.884
48665W        W13925  43.598  39.009   2.862
48666W        W13926  25.840  15.201   0.735
48667W        W13927   3.260   4.753   4.192
48668W        W13928  35.751  12.737  13.040
48669W        W13929   5.625  27.811   4.871
48670W        W13930   8.821  23.578  13.083
48671W        W13931  24.477  23.837   0.934
48672W        W13932   5.291   1.836   0.009
48673W        W13933  13.857  15.022  12.213
48674W        W13934  19.501   0.567  11.118
48675W        W13935   0.724  10.463  10.678
48676W        W13936  20.414  33.303  13.959
48677W        W13937  17.250   6.748  12.095
48678W        W13938  13.113   9.607  12.005
48679W        W13939  11.850  25.176   2.734
48680W        W13940   3.258   7.299  10.788
48681W        W13941  32.380  12.388  14.384
48682W        W13942  10.279   7.844  13.477
48683W        W13943  13.608  13.701   4.783
48684W        W13944  33.808  36.501   3.176
48685W        W13945  33.497   1.778   3.637
48686W        W13946  34.881   4.447  13.101
48687W        W13947  30.252  38.367   4.815
48688W        W13948  15.814  44.005  12.551
48689W        W13949  36.338  22.686  13.364
48690W        W13950  16.841  28.129   4.222
48691W        W13951  25.276  40.912  12.002
48692W        W13952  19.654  13.098  12.379
48693W        W13953  30.173  11.366  14.505
48694W        W13954  20.774  40.751   4.754
48695W        W13955   3.377   5.227   2.536
48696W        W13956   9.960  10.686   4.169
48697W        W13957   8.650  10.844   0.409
48698W        W13958  24.482   8.676  14.456
48699W        W13959   8.886   8.307   3.089
48700W        W13960   5.343   6.353   4.043
48701W        W13961  15.799  41.505   1.800
48702W        W13962  20.619  18.170   2.138
48703W        W13963  34.399   2.939  14.417
48704W        W13964   4.819  15.538   0.522
48705W        W13965  33.224  19.257   0.846
48706W        W13966  39.623  37.534  11.489
48707W        W13967  33.411  21.987  13.878
48708W        W13968   4.916  36.278  10.794
48709W        W13969  31.945  25.363  13.975
48710W        W13970  10.831  25.160  11.096
48711W        W13971  18.941  14.144  12.529
48712W        W13972   1.855   9.773  13.444
48713W        W13973  29.011   3.263  13.884
48714W        W13974   6.207  14.722  12.942
48715W        W13975  38.566  16.705   0.130
48716W        W13976  14.324  37.527   3.200
48717W        W13977  35.345  36.958  11.629
48718W        W13978   3.196   2.728  14.344
48719W        W13979  37.090   4.189   2.144
48720W        W13980  38.062  40.430  12.985
48721W        W13981   1.221  10.904   0.164
48722W        W13982  25.303  21.433  13.064
48723W        W13983   7.498  41.072   0.157
48724W        W13984  24.236   5.175   2.662
48725W        W13985  34.603  38.054   2.797
48726W        W13986  12.717  10.422   1.676
48727W        W13987  11.941   1.219  12.058
48728W        W13988  10.083  21.499   4.083
48729W        W13989  24.464  34.439  11.057
48730W        W13990  23.038   9.313  10.745
48731W        W13991   7.633  42.227   1.675
48732W        W13992  43.398  20.311  12.904
48733W        W13993   3.108  19.653   1.642
48734W        W13994  37.586  13.193   1.026
48735W        W13995  41.513  27.721  11.602
48736W        W13996  27.552  31.028  14.282
48737W        W13997  12.771  13.605  11.610
48738W        W13998  22.121  13.259  12.355
48739W        W13999  24.557  12.115  11.367
48740W        W14000  12.976  11.232   5.035
48741W        W14001  14.375  11.070  10.279
48742W        W14002  12.733  30.551   2.756
48743W        W14003  38.388   2.787  14.833
48744W        W14004  42.789   3.352  13.585
48745W        W14005  23.601  36.879   0.331
48746W        W14006  44.915  36.999  14.301
48747W        W14007  16.131  27.189  12.625
48748W        W14008  38.785  32.481  10.828
48749W        W14009  22.766   9.270  11.195
48750W        W14010  31.142  37.544   3.323
48751W        W14011  34.621  19.150  10.829
48752W        W14012  42.471   2.989   3.706
48753W        W14013  23.368  40.247   0.560
48754W        W14014  40.489  40.976   0.203
48755W        W14015  13.727  16.061  14.762
48756W        W14016  26.167   9.725  10.920
48757W        W14017  25.235  32.164  13.540
48758W        W14018  25.267  40.482  13.834
48759W        W14019  34.387  15.765   0.884
48760W        W14020  33.654  13.607  12.563
48761W        W14021  20.079   3.452   2.894
48762W        W14022  10.615  34.117   4.781
48763W        W14023  25.555  40.248  11.930
48764W        W14024  37.525  39.500   3.273
48765W        W14025  31.143  17.941   4.128
48766W        W14026  35.876  13.186   2.390
48767W        W14027  42.742  31.426  14.462
48768W        W14028  28.637  17.031   1.238
48769W        W14029   0.289  34.163  14.743
48770W        W14030  29.102  25.132   1.080
48771W        W14031  12.042  30.643   1.685
48772W        W14032  38.152  16.799   4.983
48773W        W14033  22.223  12.612  13.122
48774W        W14034  11.310  19.292  11.581
48775W        W14035  21.630  12.176   0.005
48776W        W14036  42.046  28.045  14.421
48777W        W14037  26.880  13.514  12.788
48778W        W14038  15.187   6.932  13.372
48779W        W14039  32.897  19.443  11.101
48780W        W14040   1.926   6.906   0.922
48781W        W14041  34.383  22.254  14.722
48782W        W14042  10.261  20.240  12.035
48783W        W14043  14.738   6.315   0.930
48784W        W14044  37.854   4.716  12.134
48785W        W14045  11.600  21.933   2.094
48786W        W14046  40.356  18.082   0.928
48787W        W14047   4.911   5.950  13.655
48788W        W14048  42.740  14.935   4.547
48789W        W14049  21.962  12.865   0.773
48790W        W14050  44.195  39.445   0.324
48791W        W14051  22.608   8.162   3.604
48792W        W14052   6.249  39.135  13.825
48793W        W14053  25.568  31.764  13.066
48794W        W14054  39.770  31.006   1.380
48795W        W14055  11.089   6.301  12.885
48796W        W14056  14.113  38.453  10.736
48797W        W14057  13.647   6.655   0.407
48798W        W14058  19.024  24.074  10.773
48799W        W14059  17.594   5.692   0.724
48800W        W14060  32.723  33.476   0.507
48801W        W14061  43.701  21.181  13.960
48802W        W14062  14.258  15.691   4.084
48803W        W14063  11.396  24.455  12.610
48804W        W14064   3.429  34.537  12.622
48805W        W14065  17.650  41.381   4.733
48806W        W14066   4.335  22.738  13.451
48807W        W14067  21.475  14.858  13.011
48808W        W14068  22.164  35.496   0.446
48809W        W14069  43.911  16.533   0.312
48810W        W14070  25.638  13.737  11.544
48811W        W14071  34.635   6.208   2.285
48812W        W14072  43.757  15.513  14.465
48813W        W14073  26.991  31.188   2.779
48814W        W14074   2.626  33.087   1.838
48815W        W14075  18.774  38.910  11.738
48816W        W14076  39.334  16.840   3.865
48817W        W14077  32.578   1.713   0.288
48818W        W14078  17.115  35.019  10.110
48819W        W14079  30.180  25.028   2.321
48820W        W14080   7.508   9.304   4.961
48821W        W14081  21.623   3.830  12.863
48822W        W14082  17.526  26.684  14.944
48823W        W14083  22.399  28.035   0.542
48824W        W14084  16.066  14.551   0.434
48825W        W14085  26.141  33.405   0.311
48826W        W14086  10.751  40.347   4.614
48827W        W14087  11.108  15.593   3.301
48828W        W14088   0.802  31.138   2.051
48829W        W14089  42.932  43.444  11.124
48830W        W14090   1.848  15.094   2.636
48831W        W14091  15.882   2.390   0.474
48832W        W14092  10.908  44.952  13.810
48833W        W14093  34.110   8.647  13.340
48834W        W14094  29.761   3.957  12.004
48835W        W14095   0.499  13.539   2.305
48836W        W14096  10.553  13.793   3.243
48837W        W14097  34.077  37.468   3.322
48838W        W14098  16.207   0.839   0.934
48839W        W14099   8.250   2.701   1.409
48840W        W14100   8.630  35.369   4.148
48841W        W14101  19.796  44.798  14.386
48842W        W14102  25.729  43.362   1.661
48843W        W14103  11.315  20.530   2.611
48844W        W14104  38.440   6.715   2.890
48845W        W14105  19.685  20.703  11.518
48846W        W14106   7.176  43.523  14.051
48847W        W14107  25.545  22.271   4.253
48848W        W14108  41.518  23.107  11.263
48849W        W14109  26.039  12.230  13.610
48850W        W14110  36.269   5.927   2.587
48851W        W14111  14.557  23.722   4.306
48852W        W14112  22.028  11.884   3.797
48853W        W14113  34.268  19.794  11.333
48854W        W14114   1.736  10.378  14.422
48855W        W14115   7.297  31.018  11.996
48856W        W14116  35.829  26.003   0.210
48857W        W14117  41.309  28.792   4.480
48858W        W14118  14.359  44.855  11.664
48859W        W14119  19.673  26.581  11.345
48860W        W14120  33.637  23.797  14.970
48861W        W14121  16.046  28.041   2.324
48862W        W14122   8.870   8.874  14.996
48863W        W14123   2.356  10.714   2.222
48864W        W14124  38.611  18.158  13.481
48865W        W14125  17.327  13.449  14.470
48866W        W14126  43.486  23.656   4.433
48867W        W14127  11.241  40.363   2.367
48868W        W14128  32.664  15.400  14.918
48869W        W14129  35.470  39.872  12.597
48870W        W14130  22.752  26.120  14.855
48871W        W14131  31.406  20.096   4.664
48872W        W14132  23.665  17.574  13.508
48873W        W14133   3.310  34.398   3.310
48874W        W14134  29.118  33.045   1.459
48875W        W14135  24.801  26.142   2.850
48876W        W14136  12.768  41.749  12.910
48877W        W14137   6.735  21.678  13.925
48878W        W14138  15.398  42.733   4.439
48879W        W14139   6.383  37.196   3.907
48880W        W14140   9.958  33.800   0.807
48881W        W14141   3.776  26.780  11.560
48882W        W14142  16.349  32.302   3.298
48883W        W14143   3.295  18.202   1.516
48884W        W14144  20.129  33.593   1.768
48885W        W14145  33.380  14.842   0.897
48886W        W14146  23.378   3.629   2.406
48887W        W14147  41.748   9.998   4.227
48888W        W14148  10.778  21.777   1.850
48889W        W14149  27.921  33.064   4.093
48890W        W14150  18.143  34.792   5.046
48891W        W14151  16.600  34.880   0.009
48892W        W14152  24.731   4.932   0.279
48893W        W14153  29.330  36.791   1.861
48894W        W14154  24.107  33.629   4.640
48895W        W14155   5.477  37.485  13.002
48896W        W14156  11.456  24.997  12.543
48897W        W14157   4.041  18.992   2.959
48898W        W14158   6.240   6.808  14.438
48899W        W14159  29.173  23.626  13.909
48900W        W14160  35.111  39.041   2.838
48901W        W14161   7.785   1.521   3.746
48902W        W14162   9.691  44.840   2.319
48903W        W14163   7.290   3.753  13.665
48904W        W14164   5.301  24.102  13.876
48905W        W14165   2.555   2.751   0.997
48906W        W14166  21.962  21.117   1.693
48907W        W14167  34.575  25.647  12.091
48908W        W14168  42.492  28.063   3.399
48909W        W14169  11.038  42.966   4.095
48910W        W14170  24.701  39.550   2.825
48911W        W14171  20.151  29.952  12.503
48912W        W14172  19.029  37.654  13.082
48913W        W14173  41.373   3.128   1.944
48914W        W14174  39.565   8.904   2.423
48915W        W14175  30.013  16.569   2.117
48916W        W14176  33.104   7.943  13.991
48917W        W14177   3.760   7.651  13.873
48918W        W14178  17.408  39.475  12.927
48919W        W14179  39.301  42.017  14.997
48920W        W14180   0.468  38.562   2.743
48921W        W14181  16.544  18.878   3.611
48922W        W14182  43.171  28.513   4.023
48923W        W14183  44.479  31.339  13.173
48924W        W14184   8.353  34.347  11.136
48925W        W14185  27.950  44.318   1.271
48926W        W14186   2.763  30.387  12.933
48927W        W14187   3.462  40.794  14.978
48928W        W14188  31.196  20.434   4.256
48929W        W14189  37.107  34.983  13.065
48930W        W14190  30.875  30.514  12.744
48931W        W14191  31.444  32.179   2.812
48932W        W14192  10.210  36.184  10.696
48933W        W14193  22.075  12.559   0.381
48934W        W14194  31.183   6.172   3.316
48935W        W14195  17.936  12.264  14.765
48936W        W14196  43.567  23.049  14.339
48937W        W14197  32.900  31.859  14.564
48938W        W14198  31.894   4.550   2.830
48939W        W14199   2.773  37.360   1.512
48940W        W14200  16.693  40.294   2.193
48941W        W14201  43.472  10.254  11.157
48942W        W14202  34.154  30.509   4.203
48943W        W14203  37.831  40.902  13.064
48944W        W14204  23.692   7.634   2.371
48945W        W14205  18.539  21.185   0.278
48946W        W14206   0.890   0.524  13.653
48947W        W14207   5.483  25.180  14.453
48948W        W14208   3.192  33.449   1.205
48949W        W14209  33.046  41.830   1.742
48950W        W14210  34.943   0.396  12.500
48951W        W14211   1.562   7.221   4.608
48952W        W14212   9.207  18.329   3.525
48953W        W14213  44.363   8.370  10.714
48954W        W14214  39.896  13.892  10.646
48955W        W14215  18.313  29.253   2.318
48956W        W14216   0.787  35.366   3.715
48957W        W14217   7.246   6.816  14.103
48958W        W14218  18.182   7.802  13.066
48959W        W14219  31.157  12.752   2.808
48960W        W14220  13.729  32.870  11.243
48961W        W14221  20.774  25.390   1.219
48962W        W14222  37.132   4.136   4.917
48963W        W14223  29.700  33.031   4.892
48964W        W14224  18.188   5.392   3.103
48965W        W14225   3.455  16.485  11.985
48966W        W14226  10.612  21.584  13.988
48967W        W14227  10.840  43.238  14.240
48968W        W14228  29.980  23.919   0.871
48969W        W14229  28.436  44.489   4.497
48970W        W14230  38.862  30.578   0.409
48971W        W14231  34.661  39.345   3.837
48972W        W14232  13.809  44.530  10.640
48973W        W14233  25.677  38.335  12.103
48974W        W14234  20.282  25.103   0.212
48975W        W14235  12.197  44.295  11.697
48976W        W14236  41.018  18.030  13.856
48977W        W14237  16.078  39.076   3.308
48978W        W14238  25.988  13.856   4.090
48979W        W14239  21.951  10.831  12.022
48980W        W14240  21.608  20.758  12.926
48981W        W14241   1.200  43.156   4.152
48982W        W14242   3.730  42.609   1.058
48983W        W14243  44.466   3.451  10.648
48984W        W14244   5.852  34.456  14.428
48985W        W14245  15.372  22.533   3.176
48986W        W14246  15.580  44.470  11.681
48987W        W14247   2.634  15.764   4.967
48988W        W14248   4.731  26.619   3.763
48989W        W14249  12.523  17.671   1.919
48990W        W14250  18.565  16.074  10.415
48991W        W14251  44.703   3.478  13.609
48992W        W14252  23.620  27.560  11.097
48993W        W14253  19.129  22.876   1.288
48994W        W14254  22.434   1.488   5.391
48995W        W14255   1.298  35.710  13.412
48996W        W14256   9.821   3.515  14.961
48997W        W14257  18.878  33.047   0.632
48998W        W14258   2.725   3.330   3.467
48999W        W14259  44.423  33.157   1.788
49000W        W14260  39.642  38.517  10.739
49001W        W14261  19.310  33.715   0.870
49002W        W14262  19.596  22.152   3.931
49003W        W14263  13.374  44.109  12.406
49004W        W14264  20.170  41.303   4.930
49005W        W14265   6.217  23.940  14.441
49006W        W14266  44.934  25.949  13.249
49007W        W14267  36.260  32.825   2.713
49008W        W14268  18.928  10.488   3.196
49009W        W14269  35.372  24.519   3.812
49010W        W14270  40.663  25.390   2.626
49011W        W14271   0.986  15.752  11.973
49012W        W14272   6.710  39.942   2.468
49013W        W14273  41.742  26.615   2.698
49014W        W14274  36.158  17.691  10.281
49015W        W14275  14.897  35.631  14.852
49016W        W14276   5.023  20.116   0.742
49017W        W14277   8.927  34.690   1.006
49018W        W14278   1.775   2.760  13.068
49019W        W14279  35.506  32.342  11.997
49020W        W14280  13.773   7.356  12.849
49021W        W14281  41.267  25.230  11.408
49022W        W14282   0.406  31.468   1.893
49023W        W14283   7.335  42.231  11.024
49024W        W14284   1.255  10.597  11.924
49025W        W14285  33.530  42.664   9.983
49026W        W14286  43.013  19.680   4.241
49027W        W14287  11.504  38.403   2.791
49028W        W14288  40.979  13.224  12.525
49029W        W14289  40.540  17.217   5.045
49030W        W14290   1.465  40.351  13.892
49031W        W14291  43.075  21.985  12.606
49032W        W14292  12.602   1.016   3.822
49033W        W14293  19.698  15.451   4.601
49034W        W14294  19.342  26.198  12.378
49035W        W14295   3.626  14.726  11.636
49036W        W14296  44.435  39.645   4.481
49037W        W14297  42.862  20.993   1.455
49038W        W14298  44.548   4.627   1.914
49039W        W14299  25.994  24.564   4.237
49040W        W14300   2.865  30.994  14.011
49041W        W14301  44.175  16.599   9.790
49042W        W14302  35.017   0.490   2.227
49043W        W14303   8.263  25.183   2.649
49044W        W14304   6.181  33.557  12.813
49045W        W14305   9.873  19.303  11.467
49046W        W14306  10.256  16.048   4.049
49047W        W14307  40.828   4.506   1.744
49048W        W14308  44.748   9.938  11.069
49049W        W14309  30.695  10.906   0.747
49050W        W14310  30.959  27.175   2.774
49051W        W14311  28.317  40.869   3.932
49052W        W14312  17.312  17.614   1.888
49053W        W14313   9.359  27.243  14.453
49054W        W14314  19.112  19.615  12.605
49055W        W14315  32.665   5.873   3.690
49056W        W14316  12.874  21.521  10.500
49057W        W14317   9.398  40.476   3.161
49058W        W14318   8.202   9.387   3.752
49059W        W14319  29.520   2.922   0.050
49060W        W14320  17.640  43.370  13.794
49061W        W14321  31.937  36.747  13.011
49062W        W14322  29.079  10.838   0.915
49063W        W14323   5.693   4.162   2.846
49064W        W14324  29.044  33.536   1.811
49065W        W14325  41.745  38.081  11.149
49066W        W14326  24.284  31.781   4.293
49067W        W14327  34.644  23.968  11.989
49068W        W14328   5.931  28.018  13.960
49069W        W14329   3.152  18.250   4.339
49070W        W14330  15.757  30.624   2.321
49071W        W14331  11.628  25.047   0.917
49072W        W14332  39.482  34.103  13.328
49073W        W14333   2.051  26.506   2.254
49074W        W14334  24.140  28.167  13.774
49075W        W14335  15.296   9.700  13.710
49076W        W14336  25.865   6.884  12.544
49077W        W14337   9.856  11.210  12.333
49078W        W14338  44.215  24.456   2.293
49079W        W14339  30.072  13.527   3.695
49080W        W14340  17.610  21.974   2.827
49081W        W14341   7.110  18.224   2.191
49082W        W14342   2.621  44.598   2.397
49083W        W14343  26.681  23.028  12.895
49084W        W14344  30.346  15.781  11.963
49085W        W14345  16.826  20.692  12.153
49086W        W14346   2.771   8.719  13.364
49087W        W14347  35.006  12.212   3.385
49088W        W14348  17.370   7.241  11.998
49089W        W14349  28.511  19.133  12.591
49090W        W14350  18.459  18.299   2.367
49091W        W14351  18.622  14.917  13.019
49092W        W14352  38.118   6.319   2.793
49093W        W14353  30.076  36.657   0.484
49094W        W14354  27.491  17.214   0.329
49095W        W14355   7.610  26.370   9.907
49096W        W14356  39.839   5.298   2.834
49097W        W14357  26.652   8.258  11.592
49098W        W14358  14.704  43.493   3.378
49099W        W14359  35.873  43.046  10.771
49100W        W14360  15.650  19.093  14.305
49101W        W14361  23.050  15.520   2.412
49102W        W14362  25.300   9.938   4.160
49103W        W14363  23.486  13.636   1.812
49104W        W14364  35.358  37.050  14.017
49105W        W14365  32.561  39.970  12.623
49106W        W14366   5.078  42.436   4.220
49107W        W14367  20.124  37.825   2.320
49108W        W14368  35.852  25.160  11.991
49109W        W14369  16.611  17.218  12.455
49110W        W14370  20.577  20.960   3.043
49111W        W14371  32.218  38.396  10.959
49112W        W14372   6.296  32.925   1.173
49113W        W14373  21.284  24.017   4.053
49114W        W14374  33.960  27.269   4.605
49115W        W14375  30.362   9.947   2.585
49116W        W14376  27.828   0.606   4.344
49117W        W14377  37.887  25.854  10.559
49118W        W14378   0.693  15.330   3.044
49119W        W14379  41.839   7.368   2.121
49120W        W14380  30.179   2.128   2.669
49121W        W14381   1.368  36.333   2.775
49122W        W14382  41.272  37.970   3.727
49123W        W14383   8.817   4.196   3.711
49124W        W14384   4.717  36.894  14.460
49125W        W14385  21.122   4.032   2.156
49126W        W14386  10.561  15.369  11.502
49127W        W14387   4.176  37.710  14.908
49128W        W14388   2.766  29.635  12.383
49129W        W14389  32.834   7.431   2.834
49130W        W14390  12.316  24.428  13.508
49131W        W14391  20.650   3.567  12.495
49132W        W14392  28.271  29.689  12.584
49133W        W14393  13.672  21.190  14.059
49134W        W14394  38.617  34.547  12.493
49135W        W14395  37.876  40.789   0.333
49136W        W14396  35.661  33.163  12.453
49137W        W14397   9.594   0.756  14.827
49138W        W14398  29.430  29.470  13.604
49139W        W14399  13.264  30.701  13.972
49140W        W14400  27.615   6.927   4.598
49141W        W14401  37.827  24.442  13.769
49142W        W14402  16.779  25.049  11.897
49143W        W14403  35.836  36.943  12.543
49144W        W14404  18.991  22.125   1.740
49145W        W14405  35.994  10.635  14.429
49146W        W14406  20.911   5.857   4.092
49147W        W14407  10.681   4.291   0.176
49148W        W14408  28.042   8.231   3.591
49149W        W14409  44.507  19.977  10.601
49150W        W14410  24.316  24.198  11.074
49151W        W14411   5.366  17.268  13.562
49152W        W14412  10.372  24.557  11.508
49153W        W14413   4.322  20.043   0.186
49154W        W14414  18.249  28.429  14.327
49155W        W14415  31.979  11.867   2.790
49156W        W14416  12.020  19.290   2.131
49157W        W14417  12.306  37.268  10.783
49158W        W14418  36.992  37.311  13.070
49159W        W14419  14.472   1.807   1.128
49160W        W14420   7.733  36.011   2.987
49161W        W14421   4.000  41.970   4.073
49162W        W14422  43.741  25.077   3.641
49163W        W14423  27.555  11.818   0.182
49164W        W14424   7.338  28.662  12.560
49165W        W14425  19.974   4.724  14.228
49166W        W14426  24.658  37.141   1.163
49167W        W14427  25.474  15.480   4.857
49168W        W14428   5.681  28.606   3.135
49169W        W14429  40.859  40.909  14.259
49170W        W14430  14.860   3.778   2.269
49171W        W14431  13.897  23.062   4.481
49172W        W14432  12.922  28.725   4.040
49173W        W14433  25.471  29.473  10.551
49174W        W14434  28.512   0.673  14.554
49175W        W14435  35.657  24.979  14.508
49176W        W14436   5.408  38.145  11.953
49177W        W14437  27.990  19.246  12.441
49178W        W14438   5.793   0.309  11.339
49179W        W14439  12.611  11.314   4.421
49180W        W14440   9.502  33.529   4.967
49181W        W14441   9.215  29.096  13.932
49182W        W14442  39.714  30.697  13.905
49183W        W14443   3.319  17.805   4.079
49184W        W14444  24.440  25.006   3.527
49185W        W14445  17.005  42.710  14.458
49186W        W14446  18.276  31.394  12.180
49187W        W14447   3.271  14.348  13.381
49188W        W14448  43.848  44.427  10.720
49189W        W14449  44.811  30.517  11.565
49190W        W14450  17.540  32.957  14.115
49191W        W14451  34.176  24.971   1.810
49192W        W14452  36.624  30.052  14.941
49193W        W14453  15.279  12.909   3.583
49194W        W14454  35.999  19.829  13.385
49195W        W14455  19.170  16.368   2.824
49196W        W14456   6.191  44.837  14.771
49197W        W14457  12.142  25.005  13.093
49198W        W14458   7.222  36.812   0.937
49199W        W14459  10.753  22.340   0.856
49200W        W14460  25.222  17.452  10.273
49201W        W14461  13.724  24.472  13.438
49202W        W14462  25.726  28.468  11.541
49203W        W14463  36.448  21.768   4.836
49204W        W14464  27.326  31.688   4.202
49205W        W14465  18.182  36.979   3.839
49206W        W14466  21.844   2.877  14.472
49207W        W14467  44.203  35.059   2.899
49208W        W14468  11.727  16.560   0.796
49209W        W14469  18.848  41.860   4.584
49210W        W14470  25.417  11.303  10.753
49211W        W14471  26.673  42.069  10.735
49212W        W14472  26.115  17.006   2.387
49213W        W14473  16.674  24.344  14.871
49214W        W14474  26.079  32.524   0.530
49215W        W14475  12.577   4.977   2.777
49216W        W14476  23.511  41.887   1.799
49217W        W14477  18.068  13.835   1.855
49218W        W14478   3.992  25.376   3.787
49219W        W14479   4.644  11.152   4.134
49220W        W14480  33.505  38.446  10.605
49221W        W14481   3.660  17.229  12.873
49222W        W14482   6.229  16.676  14.540
49223W        W14483  12.873  17.655  13.906
49224W        W14484  32.726   1.303   1.820
49225W        W14485  18.306   9.054  10.405
49226W        W14486   1.848  20.206   3.682
49227W        W14487  20.373  25.178  10.643
49228W        W14488  32.486  13.126   4.931
49229W        W14489   7.438  40.743  14.757
49230W        W14490  30.193   6.361   3.151
49231W        W14491  28.354  17.219  13.128
49232W        W14492  41.921  37.799   2.646
49233W        W14493  29.837  15.654  11.117
49234W        W14494   1.414  20.575  13.956
49235W        W14495  12.071  13.680  11.143
49236W        W14496  17.669  36.885   0.042
49237W        W14497   8.725  40.323  13.711
49238W        W14498  33.841  24.568   4.527
49239W        W14499   9.964  26.473   1.908
49240W        W14500  25.379  13.131   0.156
49241W        W14501  39.616  41.524  11.651
49242W        W14502  17.685  39.521   3.063
49243W        W14503   6.295  28.239   4.103
49244W        W14504  12.832  30.467   4.962
49245W        W14505  24.207  40.890   1.293
49246W        W14506  19.196  16.541   0.288
49247W        W14507  36.591  22.474  12.955
49248W        W14508  22.299   4.271   1.360
49249W        W14509  28.132  23.790   1.390
49250W        W14510  15.737  40.527  11.946
49251W        W14511   7.425  31.505   1.235
49252W        W14512  44.943  42.367   2.173
49253W        W14513  44.978  38.211  14.058
49254W        W14514  19.243  40.890   2.778
49255W        W14515  25.474  20.273  11.324
49256W        W14516   3.228  37.799  14.860
49257W        W14517  38.532  17.702  14.794
49258W        W14518  42.330  26.110  12.543
49259W        W14519   4.410  38.568   1.766
49260W        W14520   8.153   4.902   1.297
49261W        W14521  38.248  22.149   1.571
49262W        W14522  20.701  13.204  14.261
49263W        W14523  40.853  44.885   4.359
49264W        W14524  14.781  29.926   3.722
49265W        W14525  29.255  17.495   2.859
49266W        W14526   8.627  18.971  11.096
49267W        W14527  41.431  16.870   4.596
49268W        W14528  43.862  26.589  13.582
49269W        W14529  39.767  32.096   0.270
49270W        W14530  12.539  27.649   5.240
49271W        W14531  21.267  20.630   3.032
49272W        W14532  32.622   4.757   0.182
49273W        W14533  15.643  36.946  11.011
49274W        W14534   8.886  37.292  10.908
49275W        W14535  11.860   1.254   2.261
49276W        W14536   5.949  36.168  10.721
49277W        W14537  28.028   0.803   3.912
49278W        W14538  35.050  22.652   0.978
49279W        W14539  19.356  34.332  14.812
49280W        W14540  17.574  16.752  12.948
49281W        W14541   7.934  36.067   0.773
49282W        W14542   2.062   5.248  10.404
49283W        W14543  34.878  42.608  13.792
49284W        W14544  26.214  40.008  12.735
49285W        W14545  13.574   5.154   0.226
49286W        W14546  33.608  23.991   3.634
49287W        W14547  15.493   3.787  10.859
49288W        W14548   0.288   1.466  11.913
49289W        W14549  17.280   2.681   3.311
49290W        W14550  43.993  39.972  14.737
49291W        W14551  10.834  22.060   3.453
49292W        W14552  18.353  11.192   3.626
49293W        W14553  26.094   3.864  10.667
49294W        W14554  36.747  33.997   0.230
49295W        W14555  27.630  34.448   1.665
49296W        W14556  14.304   7.988  13.239
49297W        W14557  41.362  37.676   0.492
49298W        W14558  35.653  37.804  11.128
49299W        W14559  17.231  15.755  11.477
49300W        W14560  35.599  37.513  11.742
49301W        W14561  18.810  29.414   3.893
49302W        W14562  34.342  37.908  12.142
49303W        W14563  14.162  39.020  10.716
49304W        W14564  24.530  38.771   4.130
49305W        W14565   3.389  17.989   2.487
49306W        W14566  44.913  11.901  14.983
49307W        W14567  31.884  21.713  10.350
49308W        W14568  18.761  17.389   3.212
49309W        W14569   8.198  37.034  11.991
49310W        W14570  34.314  28.960   3.759
49311W        W14571  10.083   4.662   4.540
49312W        W14572  36.081   1.163   0.304
49313W        W14573  24.629   6.647  11.830
49314W        W14574  31.603  44.739   0.200
49315W        W14575   8.404  24.752  13.579
49316W        W14576   0.836  37.356   2.274
49317W        W14577  37.906  33.530  14.695
49318W        W14578   2.110  21.418   4.095
49319W        W14579   0.520  42.264  13.051
49320W        W14580  21.653  14.413  13.345
49321W        W14581  16.358  44.246   2.714
49322W        W14582  27.425  34.343   0.840
49323W        W14583  43.059  42.870   4.227
49324W        W14584  37.985  13.840   4.041
49325W        W14585  24.496  37.783  14.257
49326W        W14586  31.040   0.386   4.235
49327W        W14587  17.419   9.237   3.846
49328W        W14588  10.804  14.084  12.714
49329W        W14589  32.584  40.473   2.741
49330W        W14590   4.861   6.278   1.915
49331W        W14591  31.639  44.549  13.311
49332W        W14592  32.679  30.022  12.989
49333W        W14593  33.484  39.274  13.285
49334W        W14594  43.286   1.130  14.800
49335W        W14595   5.408   1.214  11.444
49336W        W14596   0.148  27.972  14.740
49337W        W14597  16.097  25.580   4.812
49338W        W14598  22.119  43.395   0.915
49339W        W14599  17.468  39.368  11.142
49340W        W14600  20.625  16.207  13.943
49341W        W14601  28.590  12.850  12.677
49342W        W14602  18.223   0.467  12.216
49343W        W14603   9.639  10.343   3.763
49344W        W14604  37.097  29.092  14.086
49345W        W14605  17.160  35.455  14.549
49346W        W14606   6.903  35.937   2.880
49347W        W14607  33.604  37.924  12.673
49348W        W14608  15.318  44.430   1.910
49349W        W14609  42.906  13.164  14.536
49350W        W14610  14.728   7.864  11.483
49351W        W14611  39.313   2.450  12.492
49352W        W14612  17.208  39.088   3.640
49353W        W14613  34.338  43.091   2.292
49354W        W14614  23.138  44.968  14.830
49355W        W14615  32.942   1.475  12.024
49356W        W14616   2.647  41.863   2.773
49357W        W14617  40.898  20.169  12.804
49358W        W14618  41.047  14.221   3.954
49359W        W14619   3.738  27.592  12.036
49360W        W14620   6.187  34.130   4.074
49361W        W14621  24.202  36.959  13.260
49362W        W14622  29.890  15.601   3.749
49363W        W14623   1.572  43.389   5.170
49364W        W14624   3.506  21.760  14.568
49365W        W14625  38.419   5.465   9.733
49366W        W14626  44.861   9.641   2.627
49367W        W14627  33.542  40.326   1.539
49368W        W14628   7.805  32.551  13.895
49369W        W14629  40.720  31.104   1.503
49370W        W14630  44.286  13.415   1.681
49371W        W14631  40.620  17.565   2.747
49372W        W14632  38.315   2.916  12.893
49373W        W14633  29.550  29.213   3.235
49374W        W14634  42.667   6.374   0.779
49375W        W14635  34.899  25.385   3.178
49376W        W14636  31.863   6.426   1.694
49377W        W14637  42.509  18.205  14.910
49378W        W14638  17.583  35.066  14.888
49379W        W14639   1.972  17.332  14.264
49380W        W14640  39.880  35.928   0.958
49381W        W14641  40.049   5.803  13.475
49382W        W14642   2.621   3.790   3.655
49383W        W14643  25.117   8.218  11.612
49384W        W14644  23.535  13.104  14.763
49385W        W14645  38.722  39.567  14.871
49386W        W14646  38.901   9.731   1.098
49387W        W14647  25.134   9.714   2.715
49388W        W14648  40.293  26.169   3.267
49389W        W14649  27.135  32.779  12.590
49390W        W14650  18.307  22.101   3.203
49391W        W14651  22.153  10.773  13.917
49392W        W14652  43.933  29.106   4.544
49393W        W14653  40.327   6.707  12.446
49394W        W14654  15.076  34.781  14.745
49395W        W14655  13.421  31.153  12.884
49396W        W14656  39.316  14.286  11.740
49397W        W14657  37.399   8.633  13.075
49398W        W14658  22.230  33.669  11.619
49399W        W14659  38.841  40.440  13.419
49400W        W14660  29.912  27.399  13.786
49401W        W14661  10.345  26.120  13.455
49402W        W14662   7.352  10.642  10.616
49403W        W14663  29.444  33.082  11.007
49404W        W14664  35.113  23.044   1.869
49405W        W14665   1.025  32.915  10.746
49406W        W14666  29.539   1.734   3.268
49407W        W14667  19.885  20.888   4.759
49408W        W14668  15.525  21.659   3.656
49409W        W14669   3.117   4.254  14.932
49410W        W14670  43.141  42.369   3.302
49411W        W14671  33.609  12.191  10.699
49412W        W14672  33.493  24.760   4.144
49413W        W14673  10.717  30.890   2.870
49414W        W14674  36.614  32.375   3.606
49415W        W14675  11.767  23.512   3.625
49416W        W14676   4.038  34.889  14.543
49417W        W14677   2.161  30.605   0.264
49418W        W14678  20.696  17.696  14.844
49419W        W14679  42.814   3.607  12.450
49420W        W14680   6.897  36.374  12.889
49421W        W14681  27.238  23.124  10.896
49422W        W14682  36.995   2.689   4.117
49423W        W14683  41.372   2.365  13.897
49424W        W14684  14.595  44.259   2.220
49425W        W14685  12.548  33.353   3.095
49426W        W14686   1.457  18.019  12.447
49427W        W14687  20.176  39.891  11.435
49428W        W14688  32.448  26.752  11.052
49429W        W14689   7.498  28.538  14.761
49430W        W14690  37.561  20.026  13.420
49431W        W14691  25.681  23.863   1.244
49432W        W14692  22.028  36.633   0.626
49433W        W14693  28.493  12.272  10.631
49434W        W14694  41.925  42.460   4.714
49435W        W14695  36.525  16.177  12.429
49436W        W14696  14.898  12.801   4.140
49437W        W14697  14.718  38.060  11.160
49438W        W14698  29.015  11.044   4.598
49439W        W14699   0.346  29.045  13.329
49440W        W14700  30.277  16.596   0.715
49441W        W14701  32.061  31.101  11.094
49442W        W14702   6.716  18.562  11.410
49443W        W14703  33.523  37.473   2.141
49444W        W14704   5.766  34.418   3.313
49445W        W14705  19.800  34.556   0.014
49446W        W14706  21.601  32.628  12.782
49447W        W14707  27.890  22.011  11.545
49448W        W14708  42.572  44.402  10.681
49449W        W14709   4.794  13.672  14.806
49450W        W14710  34.134  35.547   2.338
49451W        W14711  21.365  19.516   1.199
49452W        W14712   9.858  19.097   0.994
49453W        W14713   1.158  34.629  12.051
49454W        W14714  40.704  41.419  14.361
49455W        W14715  17.759   2.948  13.040
49456W        W14716  38.599   1.432   0.693
49457W        W14717   2.687   5.904   2.747
49458W        W14718  37.612   5.023   0.537
49459W        W14719  22.131  24.645   0.181
49460W        W14720  23.873  35.138   1.696
49461W        W14721  37.157  24.629  10.492
49462W        W14722  10.067  42.014  11.553
49463W        W14723  10.940  16.948  10.377
49464W        W14724  21.733  19.156  14.364
49465W        W14725   2.794  23.611  10.530
49466W        W14726  35.976  36.692  12.026
49467W        W14727  44.462  37.353  13.539
49468W        W14728  13.494  19.434  12.558
49469W        W14729   6.934  37.080   2.747
49470W        W14730  24.691   0.387   4.850
49471W        W14731  14.683  23.796  12.878
49472W        W14732  13.089  31.118  14.533
49473W        W14733  23.213   9.578  14.231
49474W        W14734  34.865   2.802  12.368
49475W        W14735  25.268  36.472   1.244
49476W        W14736  33.121   6.704   1.281
49477W        W14737  43.002   8.782  14.293
49478W        W14738  44.861  24.290  13.931
49479W        W14739  32.930  11.115   4.861
49480W        W14740   4.860  24.383  13.989
49481W        W14741  16.799   0.342  11.009
49482W        W14742   5.170   3.332  12.629
49483W        W14743  23.295  32.255  13.261
49484W        W14744  10.211  27.616   5.344
49485W        W14745  35.239   1.995   9.617
49486W        W14746  38.317  32.455  10.575
49487W        W14747  30.397  29.070  12.393
49488W        W14748  25.714  15.443   5.337
49489W        W14749  41.556  10.746  13.044
49490W        W14750  28.533  37.699  14.646
49491W        W14751  40.236  39.568   3.393
49492W        W14752  38.058  14.246  13.815
49493W        W14753   4.700  31.970   9.946
49494W        W14754  24.210  23.064   1.905
49495W        W14755   9.184   3.749  12.421
49496W        W14756  33.071  41.360   4.190
49497W        W14757  37.518  21.425   0.677
49498W        W14758  31.124  40.768  12.030
49499W        W14759  27.463  30.368  11.176
49500W        W14760  34.422  22.733  12.589
49501W        W14761  38.416   5.481   3.765
49502W        W14762  30.909  40.861  14.904
49503W        W14763  42.268  29.632   2.213
49504W        W14764  10.155  17.326   0.016
49505W        W14765  12.319  14.176  12.135
49506W        W14766  12.563  10.897   1.744
49507W        W14767  17.556  26.197   0.705
49508W        W14768  13.867  14.300   0.423
49509W        W14769  30.474  13.779   2.446
49510W        W14770   9.438  39.665  12.397
49511W        W14771   4.907   5.782  13.176
49512W        W14772  36.669   9.092   0.352
49513W        W14773   5.381  40.042  13.470
49514W        W14774  37.361  27.410  12.417
49515W        W14775  37.685  11.754   3.767
49516W        W14776  12.026  43.192   4.075
49517W        W14777  29.904  42.014   1.355
49518W        W14778   5.868  10.257   3.900
49519W        W14779  31.630  11.700   2.365
49520W        W14780  17.766  18.629   0.704
49521W        W14781  29.864  26.539  10.690
49522W        W14782  13.129   6.226  13.724
49523W        W14783  29.648  30.178  13.949
49524W        W14784  30.313  41.387  12.567
49525W        W14785  34.878  16.947  13.623
49526W        W14786   4.043  20.139  13.532
49527W        W14787   8.877   1.975   0.768
49528W        W14788  37.641  27.489   4.052
49529W        W14789   4.220   2.875  12.919
49530W        W14790   0.693   3.386   2.820
49531W        W14791  36.933  22.543   1.946
49532W        W14792  34.069  12.256   1.839
49533W        W14793   3.924   7.949  13.471
49534W        W14794  21.825  16.046  10.657
49535W        W14795  28.524  33.349  11.242
49536W        W14796  30.961  42.485  14.926
49537W        W14797  19.607   4.006  10.753
49538W        W14798  33.616  18.531  13.895
49539W        W14799   1.976  23.691  12.978
49540W        W14800  15.030   4.445   1.324
49541W        W14801  44.031  11.864   2.442
49542W        W14802  18.036  26.633   3.653
49543W        W14803  11.758  20.964  14.146
49544W        W14804  19.673  42.641   2.725
49545W        W14805   6.586   9.108  13.838
49546W        W14806  38.946  30.497   3.863
49547W        W14807  41.198  12.262   5.022
49548W        W14808   8.310  17.718   1.391
49549W        W14809  37.400  12.051  10.783
49550W        W14810   8.256  20.627  13.922
49551W        W14811  18.772  24.985   1.874
49552W        W14812  13.777  37.918  12.092
49553W        W14813  43.414  34.315  13.364
49554W        W14814  32.898   0.040  13.020
49555W        W14815  29.559  32.898  11.858
49556W        W14816  25.174  36.271  14.889
49557W        W14817   3.986  31.685  14.379
49558W        W14818  34.614  41.521   2.258
49559W        W14819  29.929  34.894   1.367
49560W        W14820  11.126  19.785  13.910
49561W        W14821  38.872  20.260   4.130
49562W        W14822  13.305  35.913   2.706
49563W        W14823  19.014  26.144   4.043
49564W        W14824  25.713  27.606   1.715
49565W        W14825  25.493  36.435  12.598
49566W        W14826  37.191  28.595   0.886
49567W        W14827  38.562  44.785  14.236
49568W        W14828  29.984  14.546  12.446
49569W        W14829   8.331  36.163   3.844
49570W        W14830  31.636  30.454   2.821
49571W        W14831  11.927   9.366  11.575
49572W        W14832   3.212  13.641   3.777
49573W        W14833  13.476  33.066  12.442
49574W        W14834   9.856  13.179  13.543
49575W        W14835  26.047   6.721   0.069
49576W        W14836  18.005  32.176   1.647
49577W        W14837  11.754  25.659  13.555
49578W        W14838  28.666   9.721   2.468
49579W        W14839   4.852  14.570   0.254
49580W        W14840   4.463  43.039   2.859
49581W        W14841   9.157   1.243  10.757
49582W        W14842   2.397  26.116   0.887
49583W        W14843  26.891  27.198   3.662
49584W        W14844  30.938  38.039   1.687
49585W        W14845   4.116  38.613   2.734
49586W        W14846  41.769  16.750   3.166
49587W        W14847  30.784  24.095  13.039
49588W        W14848  29.638  35.886  11.685
49589W        W14849  18.388  10.407  12.842
49590W        W14850  13.724  34.407  12.027
49591W        W14851  23.511  44.472   0.413
49592W        W14852  33.401  10.182   0.476
49593W        W14853  25.591  29.106   1.165
49594W        W14854  36.053  11.596  11.224
49595W        W14855   0.257  35.547   4.666
49596W        W14856  12.710   9.212   0.316
49597W        W14857   2.221  24.441   4.110
49598W        W14858   7.007  20.733  13.127
49599W        W14859  37.353  15.065  12.978
49600W        W14860  42.921  16.346  12.314
49601W        W14861  38.646   0.203   3.315
49602W        W14862  22.212   2.893   4.486
49603W        W14863  14.198   3.716   0.897
49604W        W14864  38.001  41.276  10.794
49605W        W14865   7.128  40.475  12.491
49606W        W14866  40.768  44.719   0.854
49607W        W14867   1.634  42.201  12.544
49608W        W14868   7.550   1.446   3.293
49609W        W14869  21.279   6.705   3.203
49610W        W14870  27.934  14.124   1.759
49611W        W14871   8.358  43.380  12.806
49612W        W14872  29.227  42.530   4.101
49613W        W14873   6.766   5.876   3.208
49614W        W14874   4.813  31.202  11.071
49615W        W14875  24.061  33.624   3.607
49616W        W14876   5.924  16.537   2.632
49617W        W14877   1.842  24.904   1.234
49618W        W14878  16.931   6.310   1.582
49619W        W14879   0.848  37.563   4.087
49620W        W14880  25.372  15.775   1.410
49621W        W14881  26.163   9.611   4.456
49622W        W14882  26.230  36.316   2.640
49623W        W14883  33.737   8.208  12.131
49624W        W14884  28.134  39.231  13.034
49625W        W14885  11.712  37.289  13.852
49626W        W14886  20.179  39.800   2.917
49627W        W14887  17.864  15.383   0.171
49628W        W14888  41.052  32.076  14.854
49629W        W14889  31.866  27.128   4.776
49630W        W14890  44.233  14.241  12.106
49631W        W14891  37.122  35.134   2.065
49632W        W14892  20.106   9.478  11.751
49633W        W14893  41.900  36.396   4.293
49634W        W14894   8.967  38.242   0.440
49635W        W14895  39.423  21.797   1.876
49636W        W14896  21.522  37.114   1.483
49637W        W14897  34.763  10.678  13.979
49638W        W14898  21.312  20.673   4.098
49639W        W14899  15.797  35.962   5.042
49640W        W14900   3.835  44.348   2.813
49641W        W14901  41.317  26.441  14.949
49642W        W14902  18.847  39.489  12.880
49643W        W14903   0.798  13.286   0.566
49644W        W14904  39.029   3.481  11.927
49645W        W14905  43.533  29.119   3.306
49646W        W14906  39.055  11.288  13.500
49647W        W14907  21.028   4.980  10.319
49648W        W14908  12.556  18.547  13.471
49649W        W14909   7.395  14.365  13.401
49650W        W14910  41.384  31.502   1.152
49651W        W14911  18.076  24.981   5.223
49652W        W14912  29.598  23.245  14.865
49653W        W14913  35.880  11.414  12.503
49654W        W14914   8.193   0.445   1.329
49655W        W14915  14.832  28.997  14.495
49656W        W14916  17.367  30.107  13.096
49657W        W14917   1.915   9.110   3.327
49658W        W14918  39.536  17.168   4.239
49659W        W14919  27.541  40.956  11.577
49660W        W14920   4.906  32.526  11.741
49661W        W14921  25.033   6.198  12.939
49662W        W14922  31.006  19.535   1.242
49663W        W14923  19.776   3.269  14.895
49664W        W14924  37.890   3.526   4.702
49665W        W14925  23.229  27.621   1.794
49666W        W14926   4.766   4.773  10.673
49667W        W14927  17.560  12.794   3.626
49668W        W14928   2.840  28.563   0.422
49669W        W14929   9.796  38.970   2.747
49670W        W14930   5.618  28.619   4.520
49671W        W14931  40.712  12.861  11.609
49672W        W14932   8.694   8.565  10.291
49673W        W14933  25.507  23.599   4.609
49674W        W14934  23.232  11.741  13.032
49675W        W14935  19.998   9.901   0.995
49676W        W14936   2.768  17.696  11.410
49677W        W14937  41.446  24.505  14.376
49678W        W14938  44.853  16.735  11.660
49679W        W14939  19.018  14.710   3.581
49680W        W14940  26.761  36.693  12.655
49681W        W14941  10.002   4.807   1.776
49682W        W14942  44.494  19.960   1.936
49683W        W14943  16.591  20.035   0.889
49684W        W14944  39.161  22.092   2.231
49685W        W14945   1.227   3.336   0.514
49686W        W14946  43.698  17.544   2.219
49687W        W14947  25.686   3.786   1.920
49688W        W14948  20.980  17.716  12.636
49689W        W14949  31.370  34.957  12.550
49690W        W14950  43.580  29.552   1.806
49691W        W14951   2.995   0.843  10.771
49692W        W14952  30.424   9.292  14.564
49693W        W14953  15.657  44.667   1.276
49694W        W14954  34.995  16.814   4.422
49695W        W14955   1.718  21.002  13.820
49696W        W14956   1.509  43.393   0.422
49697W        W14957  26.171   6.342   4.472
49698W        W14958  24.662   1.040  11.704
49699W        W14959  40.332  28.209  14.760
49700W        W14960  27.010  31.916   3.849
49701W        W14961  21.109  13.450   2.148
49702W        W14962  16.803  28.449   0.703
49703W        W14963  35.706  40.028  13.027
49704W        W14964  41.426   1.897   1.337
49705W        W14965  22.960  39.305  13.915
49706W        W14966   6.291   0.515  14.053
49707W        W14967  30.510   6.461  13.961
49708W        W14968  38.130  22.644   0.874
49709W        W14969  28.061  41.335  13.997
49710W        W14970  19.129  13.817   3.671
49711W        W14971  30.095  13.877   4.107
49712W        W14972  33.454  44.901   4.488
49713W        W14973   1.103  21.654  13.429
49714W        W14974  40.489  36.383  13.152
49715W        W14975  26.681  23.160   0.778
49716W        W14976  37.772  12.452   3.093
49717W        W14977  23.367  34.210   1.780
49718W        W14978  39.440  14.103  10.795
49719W        W14979  25.948  12.803  13.480
49720W        W14980  44.632  38.682   2.453
49721W        W14981  37.342   0.567   4.210
49722W        W14982  39.667   2.183   3.993
49723W        W14983  41.274   3.687  13.430
49724W        W14984  18.723   5.326  11.482
49725W        W14985  33.864   7.555   0.957
49726W        W14986  26.035  16.177  12.596
49727W        W14987  11.663  23.883   2.274
49728W        W14988   6.180   6.221  13.826
49729W        W14989  16.075  21.531  12.906
49730W        W14990  23.198  12.666   4.360
49731W        W14991  34.701   2.060  11.252
49732W        W14992  15.909  42.727   4.086
49733W        W14993   5.318  31.269  12.332
49734W        W14994  20.598  19.273   1.061
49735W        W14995  15.217  29.366   2.691
49736W        W14996  29.989  25.654  12.284
49737W        W14997  44.896  34.577  14.403
49738W        W14998  22.720  17.181   1.241
49739W        W14999   2.842  23.291   3.244
49740W        W15000  43.913   3.135  13.052
49741W        W15001  22.944  24.680  13.355
49742W        W15002  40.889  10.347  14.168
49743W        W15003  14.064  24.917   0.315
49744W        W15004  25.751  22.072  10.478
49745W        W15005   0.704  35.775  12.757
49746W        W15006  20.553  33.197   0.435
49747W        W15007  18.239  11.082   1.874
49748W        W15008  26.634   3.146  11.985
49749W        W15009   5.401  10.127  12.016
49750W        W15010  38.827  26.878   0.295
49751W        W15011  22.456  29.525  12.592
49752W        W15012  37.119  16.192   1.846
49753W        W15013  30.362  38.291   2.005
49754W        W15014   9.165  29.919  11.534
49755W        W15015  35.944  35.110   3.571
49756W        W15016  22.573  30.142   0.768
49757W        W15017  39.219   3.806   2.567
49758W        W15018   7.403  17.009   3.703
49759W        W15019  11.036  16.183   0.072
49760W        W15020  41.390   1.456   0.814
49761W        W15021   9.894   5.816   2.180
49762W        W15022  26.595   6.646   1.515
49763W        W15023  39.303  23.637   1.828
49764W        W15024  21.586   4.022   1.821
49765W        W15025  13.322   6.151   4.574
49766W        W15026  25.681  42.442   0.271
49767W        W15027  19.184  32.092   2.025
49768W        W15028  30.241  41.822  12.234
49769W        W15029  10.633  38.492  11.563
49770W        W15030   6.707  20.799   0.871
49771W        W15031  30.180  35.586  13.238
49772W        W15032   4.774  42.193   3.716
49773W        W15033  32.526  11.865  12.016
49774W        W15034  24.276   9.837  13.311
49775W        W15035  18.710   2.410   1.139
49776W        W15036   8.351  37.760  14.937
49777W        W15037  14.688  31.606  10.775
49778W        W15038  37.375  43.181   1.933
49779W        W15039  26.242  36.577   3.118
49780W        W15040  30.871   5.029  11.043
49781W        W15041  12.992  40.495  12.731
49782W        W15042   3.205  10.220  11.598
49783W        W15043   6.708   6.898  14.259
49784W        W15044  21.462  24.804   2.770
49785W        W15045  38.353  17.278  14.465
49786W        W15046  26.903  39.434   2.376
49787W        W15047  35.611  14.299  13.856
49788W        W15048  14.245  16.527   1.433
49789W        W15049  26.482  22.709  10.683
49790W        W15050  14.844  27.475   2.126
49791W        W15051  28.473  14.222  10.503
49792W        W15052  29.941   1.263  12.848
49793W        W15053   4.766   9.906  11.673
49794W        W15054  20.113  22.238  12.770
49795W        W15055  21.687   8.963   1.379
49796W        W15056   0.401   9.669  13.310
49797W        W15057  11.339   5.558   1.676
49798W        W15058  42.363  44.548   4.624
49799W        W15059  29.314  31.150   0.295
49800W        W15060   2.698  27.519   4.249
49801W        W15061  17.312   3.059   1.458
49802W        W15062   4.882   4.330   1.477
49803W        W15063  32.610  12.791   1.224
49804W        W15064  12.076  22.422  14.420
49805W        W15065  42.356  41.854   1.299
49806W        W15066  25.318  24.516   3.584
49807W        W15067  18.642  22.820   3.039
49808W        W15068   2.547  12.314  11.684
49809W        W15069  43.383   2.802  13.772
49810W        W15070  38.429  30.423  13.321
49811W        W15071  35.322  23.462   3.857
49812W        W15072  37.464  30.740  11.177
49813W        W15073  26.152  11.818   2.664
49814W        W15074  15.264  13.768  11.907
49815W        W15075  26.990  12.894   4.592
49816W        W15076  26.564  14.144  14.103
49817W        W15077   9.231  39.671  14.476
49818W        W15078  19.713  40.039  13.642
49819W        W15079  28.198   8.161   2.257
49820W        W15080  34.876   1.340   3.260
49821W        W15081  28.461   1.994   1.731
49822W        W15082  32.303  25.633   3.144
49823W        W15083  23.638  13.281   2.695
49824W        W15084  35.337  30.626  14.920
49825W        W15085  24.036  37.170   5.478
49826W        W15086  39.268  24.301  12.598
49827W        W15087  35.019   2.249  13.973
49828W        W15088  43.278   9.974   4.978
49829W        W15089  31.313  32.439  14.247
49830W        W15090  27.042  34.294  14.498
49831W        W15091  26.535  32.582  14.714
49832W        W15092  30.065  23.473  14.907
49833W        W15093   8.214  18.041  13.888
49834W        W15094   1.364  21.435   1.386
49835W        W15095  25.241  21.538  11.221
49836W        W15096   4.247  23.603   4.651
49837W        W15097  42.367  18.351   1.359
49838W        W15098  32.636  14.872  13.777
49839W        W15099   7.622  25.613  11.918
49840W        W15100  21.656   6.908   0.324
49841W        W15101  35.130  24.439  14.029
49842W        W15102  30.263  11.874  13.925
49843W        W15103   3.971  40.707   1.955
49844W        W15104  30.551  27.027  13.095
49845W        W15105   4.317  28.155  11.640
49846W        W15106  38.845   8.490   2.696
49847W        W15107  37.833  18.924   1.460
49848W        W15108  17.711  31.985   3.844
49849W        W15109  38.877   7.755  11.232
49850W        W15110  11.735  41.599  11.496
49851W        W15111  44.374  10.525   4.186
49852W        W15112  17.698  39.487  13.756
49853W        W15113  43.373  21.237   3.361
49854W        W15114   5.106  43.507  12.921
49855W        W15115   0.839  25.620  12.343
49856W        W15116  26.977  23.473  14.341
49857W        W15117  37.462  19.834  12.575
49858W        W15118  22.491   9.188  12.519
49859W        W15119  25.983  18.689   3.072
49860W        W15120  14.637  27.655   0.224
49861W        W15121   3.537   4.248   4.092
49862W        W15122   1.983  23.004   0.392
49863W        W15123  33.044  17.123  11.964
49864W        W15124   9.320  38.318  13.758
49865W        W15125  14.212  13.811  13.522
49866W        W15126  11.328   9.398   4.121
49867W        W15127  25.225   8.429   3.226
49868W        W15128  13.674  33.766   3.516
49869W        W15129  35.387  31.494   0.954
49870W        W15130  31.945  37.215  11.652
49871W        W15131  40.622  42.485   1.076
49872W        W15132  31.600  19.799  14.512
49873W        W15133  26.275  28.758  14.293
49874W        W15134  23.762  11.572   4.142
49875W        W15135  40.388  28.708   2.177
49876W        W15136  15.120  39.997  11.516
49877W        W15137  20.292   1.458  12.928
49878W        W15138   3.205  20.804  10.591
49879W        W15139  36.170  24.978   3.201
49880W        W15140  29.280  14.123   0.030
49881W        W15141   1.529  18.199   4.646
49882W        W15142  26.116   7.947   0.330
49883W        W15143  21.533   7.455  12.524
49884W        W15144  44.801  23.806   1.125
49885W        W15145   1.019  32.445  11.018
49886W        W15146   1.360  41.867  14.386
49887W        W15147  29.166  35.841  12.991
49888W        W15148  21.299   0.028  11.108
49889W        W15149  12.205  27.450   0.737
49890W        W15150   2.417  25.025   3.546
49891W        W15151   2.770  24.120  10.694
49892W        W15152  39.380  39.277  13.334
49893W        W15153  30.760  13.872  12.302
49894W        W15154  40.015  26.023  10.632
49895W        W15155   8.292  34.218   3.862
49896W        W15156  25.602   3.263  12.105
49897W        W15157  38.885  41.490   4.903
49898W        W15158  14.365  11.890   0.617
49899W        W15159  36.519  41.109   0.751
49900W        W15160  31.825  35.467   2.468
49901W        W15161   3.797  23.647   2.783
49902W        W15162   7.200  14.548  13.845
49903W        W15163  35.520  21.015   4.144
49904W        W15164  43.577  32.991  10.967
49905W        W15165  19.174  19.814   3.103
49906W        W15166  25.688   7.284  12.857
49907W        W15167  44.425  37.664  14.807
49908W        W15168  39.693  40.822   4.520
49909W        W15169  41.968   9.809  13.577
49910W        W15170  18.543  16.528   2.771
49911W        W15171  17.091   0.615  14.536
49912W        W15172  29.616   0.547   1.236
49913W        W15173  11.406   0.788   3.197
49914W        W15174  32.851  31.733   4.993
49915W        W15175  24.060  24.530   4.021
49916W        W15176  42.833  13.557   1.455
49917W        W15177   7.568   8.436  12.322
49918W        W15178  29.846  30.963  12.032
49919W        W15179   7.393  28.688   2.338
49920W        W15180  23.823   0.003  12.250
49921W        W15181  43.170   7.011  13.565
49922W        W15182  39.399   6.417   0.796
49923W        W15183  35.616  30.403   1.595
49924W        W15184   6.250  26.691   2.115
49925W        W15185  34.654  44.387   1.294
49926W        W15186  39.939  15.897   4.623
49927W        W15187   9.816  26.162  13.400
49928W        W15188  20.017  38.576   1.853
49929W        W15189  28.478  24.650  12.905
49930W        W15190  22.108  32.994  10.177
49931W        W15191  17.647  18.334   1.494
49932W        W15192  25.562  31.939   1.237
49933W        W15193  23.226  40.065  11.681
49934W        W15194   2.113  27.791  11.149
49935W        W15195   1.604  12.946   4.452
49936W        W15196  18.792  40.587  12.925
49937W        W15197  42.619  10.314  12.672
49938W        W15198  20.660  29.809  14.111
49939W        W15199  13.117  41.279   5.030
49940W        W15200  28.669  29.960   0.857
49941W        W15201   1.017  14.410  12.486
49942W        W15202   9.396  31.599   2.637
49943W        W15203  15.199  16.625   1.678
49944W        W15204  37.356  40.757   0.227
49945W        W15205   8.688   8.625  14.057
49946W        W15206  40.357  36.051   0.769
49947W        W15207  10.655  26.654   2.567
49948W        W15208   0.224  37.742  12.794
49949W        W15209  39.930  12.807  14.799
49950W        W15210  10.075  35.351   4.096
49951W        W15211  43.739  39.239   0.239
49952W        W15212  33.515  39.090  12.462
49953W        W15213   6.094   9.584  14.444
49954W        W15214  12.897  35.056  11.742
49955W        W15215  30.208   7.268  11.377
49956W        W15216  34.896  24.551  10.638
49957W        W15217  16.553  10.444  11.049
49958W        W15218  31.851   7.773   0.542
49959W        W15219   7.753  36.835  11.591
49960W        W15220  40.971  30.003   0.763
49961W        W15221  21.299  16.690   3.152
49962W        W15222  26.140  18.776  10.645
49963W        W15223  29.852  15.809  12.057
49964W        W15224  41.536   2.875  10.309
49965W        W15225   3.006  41.348  10.499
49966W        W15226  37.340  25.471   0.397
49967W        W15227   7.848  15.763  14.348
49968W        W15228  31.894  43.966   2.662
49969W        W15229  40.267  20.750  13.386
49970W        W15230   9.642   5.809   0.826
49971W        W15231   0.823  28.934   0.460
49972W        W15232  14.726  22.985   3.073
49973W        W15233  28.577  28.175  10.813
49974W        W15234   5.210  11.310   3.244
49975W        W15235   9.792   4.872  12.633
49976W        W15236  23.220  19.295   2.389
49977W        W15237  30.732   5.423  14.343
49978W        W15238  18.107  26.010  13.401
49979W        W15239  23.324  39.080   3.584
49980W        W15240  30.164   1.799   2.241
49981W        W15241  29.376  25.662   0.546
49982W        W15242  43.098  43.442  13.483
49983W        W15243  12.842  18.069  14.242
49984W        W15244  26.110   6.225  13.924
49985W        W15245   1.606  16.012  12.816
49986W        W15246   1.983  35.299   3.758
49987W        W15247  33.985   4.647   0.132
49988W        W15248  12.674  43.342  12.674
49989W        W15249  35.594  22.748   4.513
49990W        W15250   1.906  28.796  10.952
49991W        W15251  23.930  44.721   4.066
49992W        W15252   8.613  29.498  12.034
49993W        W15253  22.269  21.572   2.862
49994W        W15254  22.942  39.962  13.613
49995W        W15255  18.034  22.719  13.546
49996W        W15256   2.623  40.866   4.582
49997W        W15257  29.109   9.624  13.483
49998W        W15258  40.665   9.967  11.484
49999W        W15259  41.040  39.881   0.114
50000W        W15260   8.850  21.079   1.222
50001W        W15261  41.088  44.064   3.716
50002W        W15262  27.781   4.295   0.943
50003W        W15263   8.230  20.645   4.620
50004W        W15264  30.311  28.765  10.794
50005W        W15265  27.482  27.733   3.222
50006W        W15266  27.628  17.690  14.535
50007W        W15267  27.108  30.377  10.783
50008W        W15268   6.865  38.861   3.598
50009W        W15269  27.989  21.626   3.020
50010W        W15270  28.181  39.760  14.244
50011W        W15271  44.324  18.463  14.341
50012W        W15272  12.319   3.934  12.436
50013W        W15273  30.069  23.613   3.807
50014W        W15274  29.525  34.741   4.187
50015W        W15275  30.948   6.776  11.624
50016W        W15276  32.911  42.671  14.790
50017W        W15277  37.820  28.081  11.251
50018W        W15278  28.740  10.275  14.635
50019W        W15279  25.036  41.503   2.762
50020W        W15280  29.853  29.375   4.081
50021W        W15281  38.380  16.620   2.268
50022W        W15282  20.023  10.571   3.694
50023W        W15283  44.715  25.164   2.645
50024W        W15284   7.173  20.108   4.978
50025W        W15285   6.221  12.858   0.709
50026W        W15286   3.373  20.949   0.779
50027W        W15287  41.744  21.668   1.734
50028W        W15288  28.483  35.475  12.485
50029W        W15289   0.415   8.355   4.683
50030W        W15290  20.061  15.573   0.952
50031W        W15291  22.285  33.995   4.630
50032W        W15292  14.589  35.519  12.499
50033W        W15293  13.933   2.503   0.533
50034W        W15294  35.557  33.079   1.235
50035W        W15295  39.693  11.235  10.234
50036W        W15296  28.586  14.073  11.969
50037W        W15297  15.843  19.825  14.777
50038W        W15298  28.479  15.051   3.992
50039W        W15299  11.557  13.126  12.828
50040W        W15300   3.290   2.723   3.282
50041W        W15301   0.317   8.937   1.863
50042W        W15302  35.366  37.173   4.062
50043W        W15303  35.956  34.383   1.489
50044W        W15304  29.586   9.704  13.119
50045W        W15305  15.577  33.606   0.225
50046W        W15306   8.190  39.430   2.694
50047W        W15307  28.742   2.982   3.594
50048W        W15308  27.366  20.435   3.269
50049W        W15309  40.773  14.244  13.866
50050W        W15310  19.347  33.008   0.439
50051W        W15311  11.774   0.369   2.844
50052W        W15312   2.795  19.799   1.186
50053W        W15313  19.810  36.488  14.890
50054W        W15314  33.519  40.072  12.533
50055W        W15315  44.768  44.862  12.879
50056W        W15316  40.333  42.237   3.837
50057W        W15317  37.116  44.065  12.652
50058W        W15318  18.642  38.464  10.905
50059W        W15319  26.512  42.540  12.494
50060W        W15320  20.213  42.763   2.829
50061W        W15321  21.683  34.661   3.269
50062W        W15322  35.558  34.483   3.194
50063W        W15323  28.897  23.688  12.014
50064W        W15324  29.406   8.907   1.696
50065W        W15325  31.133  43.389  11.479
50066W        W15326  19.014  38.596  12.658
50067W        W15327   8.809  24.360  13.626
50068W        W15328  39.580  14.211   4.190
50069W        W15329   8.907   8.834  13.572
50070W        W15330   7.785  16.727  14.286
50071W        W15331  34.082  26.811  10.431
50072W        W15332   7.418  38.341  13.972
50073W        W15333  20.993  30.108   3.288
50074W        W15334  40.673  36.121  14.039
50075W        W15335   7.748  15.603   3.341
50076W        W15336  31.619  23.686  10.551
50077W        W15337   1.760  35.213  10.769
50078W        W15338  14.699  32.703   1.089
50079W        W15339  29.397   8.895   4.245
50080W        W15340  40.908  42.465   4.685
50081W        W15341   8.637  28.206  13.374
50082W        W15342  28.684  43.705  13.719
50083W        W15343  39.632  23.811   5.162
50084W        W15344  18.485  11.260  12.385
50085W        W15345  26.956  14.694   3.181
50086W        W15346  41.898  42.752   2.958
50087W        W15347  41.845  32.388   2.193
50088W        W15348   9.753  19.558   4.544
50089W        W15349   9.300  13.278  11.328
50090W        W15350  34.408  41.094   3.149
50091W        W15351  39.772  20.981   2.372
50092W        W15352  39.126  27.929   2.257
50093W        W15353  12.813  43.459  13.678
50094W        W15354  38.080   9.951   1.363
50095W        W15355  12.878  43.315  13.175
50096W        W15356  37.521  15.843   4.994
50097W        W15357   6.246  21.092   1.712
50098W        W15358  28.191  27.978   0.923
50099W        W15359  20.453  24.025   2.236
50100W        W15360  44.392  39.573  13.920
50101W        W15361   6.271  20.513   1.635
50102W        W15362  22.851  41.052   2.006
50103W        W15363  44.482  20.429  14.695
50104W        W15364  18.260  36.173  13.511
50105W        W15365  44.924  37.436   0.839
50106W        W15366  31.084  16.641  13.355
50107W        W15367  30.927  39.853  11.074
50108W        W15368  24.350  31.592  14.335
50109W        W15369  29.140  14.938   2.185
50110W        W15370  26.100   4.996   4.965
50111W        W15371  22.137  18.640  13.277
50112W        W15372  12.392  29.343   2.400
50113W        W15373  16.632  35.092  10.907
50114W        W15374  42.910  23.988  13.983
50115W        W15375  18.667   4.375   0.765
50116W        W15376  43.071  34.822  11.087
50117W        W15377   9.934  32.441   3.674
50118W        W15378  18.159  18.397   3.662
50119W        W15379  31.130   1.262   4.925
50120W        W15380  19.323  36.618  11.152
50121W        W15381  25.590   1.370   4.151
50122W        W15382  37.571   6.329  14.140
50123W        W15383  35.588  19.782  14.854
50124W        W15384  19.311  17.808  13.031
50125W        W15385   9.100  40.431  14.971
50126W        W15386   6.342  12.089   0.250
50127W        W15387   2.476  34.676  13.456
50128W        W15388  15.356  34.342  12.512
50129W        W15389  32.339  43.985  13.815
50130W        W15390  13.122   3.846   0.265
50131W        W15391  29.008  13.362  13.363
50132W        W15392   0.782   0.346   4.836
50133W        W15393  16.939  33.397  11.540
50134W        W15394  10.810  29.969  13.884
50135W        W15395  21.901  37.310   4.677
50136W        W15396  18.308  11.987   1.099
50137W        W15397  10.853  26.943   2.202
50138W        W15398   8.691  14.689  11.670
50139W        W15399  42.888  30.575  11.039
50140W        W15400   2.683   1.501   0.541
50141W        W15401  13.626  31.059  13.419
50142W        W15402  41.799   7.237  13.564
50143W        W15403  25.038  13.673  13.977
50144W        W15404   4.568  37.173   2.912
50145W        W15405  40.725  17.639  10.774
50146W        W15406  15.687  25.477  14.887
50147W        W15407   2.523   5.329   0.372
50148W        W15408  32.132  26.016   4.289
50149W        W15409  18.684  34.328  12.438
50150W        W15410  21.147  42.965  13.581
50151W        W15411   7.762  27.696  12.963
50152W        W15412  22.258   1.064  12.891
50153W        W15413  12.750   9.296  12.242
50154W        W15414  19.134  32.725  11.278
50155W        W15415  16.189  37.658   0.825
50156W        W15416  39.824  16.960   3.607
50157W        W15417  34.650  22.199   1.782
50158W        W15418   8.832   9.406  10.878
50159W        W15419  19.729  36.452   3.403
50160W        W15420  19.706  25.270  11.212
50161W        W15421  21.273  33.140   2.969
50162W        W15422  26.733  15.602   4.049
50163W        W15423  33.163   6.138   2.191
50164W        W15424  11.183   2.802   4.558
50165W        W15425  35.939  25.719  11.595
50166W        W15426  39.325  35.387   3.321
50167W        W15427  13.817  34.424  13.600
50168W        W15428  40.506  28.203   2.245
50169W        W15429   6.784   4.544   2.327
50170W        W15430  10.767   8.402  12.901
50171W        W15431  37.440  27.428   0.289
50172W        W15432  43.622   4.323  13.486
50173W        W15433  37.183  29.319   1.562
50174W        W15434  41.770   6.388  14.725
50175W        W15435  30.104   3.128   2.710
50176W        W15436  27.455  40.390  10.728
50177W        W15437  14.204  31.627  11.459
50178W        W15438  43.787  21.025   2.823
50179W        W15439  15.706   7.733  14.987
50180W        W15440   3.630  35.717  11.972
50181W        W15441  16.219  23.587  14.962
50182W        W15442  26.662  13.520   0.506
50183W        W15443   9.547  20.440   4.101
50184W        W15444  33.014  17.023  13.502
50185W        W15445  42.533  11.701   1.513
50186W        W15446   7.605  30.486   4.604
50187W        W15447   0.470   7.809   1.963
50188W        W15448   6.678   8.295  13.395
50189W        W15449  25.489  31.957  12.428
50190W        W15450  38.203  25.124  14.466
50191W        W15451  41.500  15.851  11.140
50192W        W15452  37.812  26.162   1.545
50193W        W15453  22.636   9.981   5.005
50194W        W15454  10.060  41.497   4.589
50195W        W15455  29.139  30.381  13.291
50196W        W15456  15.542   3.969  13.805
50197W        W15457   4.963  10.870   2.333
50198W        W15458  34.219   7.648  10.698
50199W        W15459  20.686  17.310  11.478
50200W        W15460  27.840  31.145   0.916
50201W        W15461   2.212  16.090   4.905
50202W        W15462   3.494  20.197  13.410
50203W        W15463  21.130  35.954   3.275
50204W        W15464  32.331  31.755   2.725
50205W        W15465  13.124  22.040   0.825
50206W        W15466  27.931  31.751  11.832
50207W        W15467   7.118  43.533  11.974
50208W        W15468  26.483   4.921  13.432
50209W        W15469   0.279  42.073   2.410
50210W        W15470   2.581  40.876  12.506
50211W        W15471  39.753  40.854  12.604
50212W        W15472  44.260   1.822  12.097
50213W        W15473   3.729  10.726  10.613
50214W        W15474  18.056   1.784  13.682
50215W        W15475  38.378  36.147   4.911
50216W        W15476   0.345  17.546   0.998
50217W        W15477   6.347   0.320  14.979
50218W        W15478   0.543  32.689  12.513
50219W        W15479  32.518  44.736  11.017
50220W        W15480  39.248  41.368   0.835
50221W        W15481  34.390  41.919  13.774
50222W        W15482  44.876  21.929   0.880
50223W        W15483  29.246  38.463   4.692
50224W        W15484  19.754   1.711  10.815
50225W        W15485  25.211  11.348   3.103
50226W        W15486  34.996  18.619   3.764
50227W        W15487  24.606  38.499  11.109
50228W        W15488  41.354  34.675  13.855
50229W        W15489  27.158  23.602   1.721
50230W        W15490  14.621   1.726  13.070
50231W        W15491  15.788  39.805  14.373
50232W        W15492  25.934  31.999  14.745
50233W        W15493  36.398  22.999   0.850
50234W        W15494  19.238   9.595   1.771
50235W        W15495  18.296  13.721   0.816
50236W        W15496   2.300  35.852  12.994
50237W        W15497  25.761  36.795   3.259
50238W        W15498  14.400  27.641  12.730
50239W        W15499  40.682   1.495  11.000
50240W        W15500   4.965  15.196   1.319
50241W        W15501  14.608  11.689   2.743
50242W        W15502  30.119  17.742  13.158
50243W        W15503  29.589  20.545  14.802
50244W        W15504   9.088  44.711  14.454
50245W        W15505  35.960  12.843   4.661
50246W        W15506  17.597  25.713   4.531
50247W        W15507   2.838  44.932  13.360
50248W        W15508  32.987  26.990   0.277
50249W        W15509  30.413   0.822   1.494
50250W        W15510  28.110  38.592   3.959
50251W        W15511  15.493  16.043  11.055
50252W        W15512  12.242  11.861  12.356
50253W        W15513  14.998  16.591  14.026
50254W        W15514   1.513   4.077  14.419
50255W        W15515  15.080   1.374   4.537
50256W        W15516  41.002  20.527   3.218
50257W        W15517   5.681   5.371  12.846
50258W        W15518  11.165  17.697   1.427
50259W        W15519  37.151  33.248  11.000
50260W        W15520  12.590  25.001  11.485
50261W        W15521   0.751  30.023  12.889
50262W        W15522  30.024  34.131  11.356
50263W        W15523  41.354  35.333  13.425
50264W        W15524  37.109  41.896   1.928
50265W        W15525   2.534  25.060  12.443
50266W        W15526   6.185   6.877  12.574
50267W        W15527  36.076  26.361   2.226
50268W        W15528  18.784  18.098   2.731
50269W        W15529  30.630  39.329   4.163
50270W        W15530  27.930  28.433   0.866
50271W        W15531  24.313  31.418  12.816
50272W        W15532   2.217  41.894  13.321
50273W        W15533   1.484  16.066  14.547
50274W        W15534  31.059  35.096  10.808
50275W        W15535  34.597  17.107   4.179
50276W        W15536  12.163   6.467   1.315
50277W        W15537  31.462  35.829  10.812
50278W        W15538  33.924   7.309  14.609
50279W        W15539  19.687  35.092   1.852
50280W        W15540  18.519   9.253   0.678
50281W        W15541  13.227  12.399   3.699
50282W        W15542  38.553  37.877  13.038
50283W        W15543  19.295  33.214   0.900
50284W        W15544  11.052  22.080   0.514
50285W        W15545  20.517  30.697  13.975
50286W        W15546   1.493  16.631   4.159
50287W        W15547   9.178  10.297   0.480
50288W        W15548   0.000  37.327   3.585
50289W        W15549  28.574   6.261   0.718
50290W        W15550   5.362  27.460   2.791
50291W        W15551  34.501  31.685  11.182
50292W        W15552  41.950  23.313  12.154
50293W        W15553  29.756  30.701  10.325
50294W        W15554  11.735  26.806  11.620
50295W        W15555  33.087  23.012  12.375
50296W        W15556   1.800  22.506  11.666
50297W        W15557  15.021  20.954   0.798
50298W        W15558   5.948  15.630  11.169
50299W        W15559   1.821  37.079   4.645
50300W        W15560  40.723  19.865  13.911
50301W        W15561  12.348   1.230  12.351
50302W        W15562  39.629  22.464   0.182
50303W        W15563   5.713   3.336   1.627
50304W        W15564  19.943  40.209   4.720
50305W        W15565  23.147  25.377  10.674
50306W        W15566   0.382  33.591   0.410
50307W        W15567  38.742  28.649   0.387
50308W        W15568  41.095  43.246  11.682
50309W        W15569   3.703  33.109  10.681
50310W        W15570  42.934  23.494  11.306
50311W        W15571  10.681  22.307  12.244
50312W        W15572  42.834  38.014   2.739
50313W        W15573  16.994  25.061  10.275
50314W        W15574  40.302   6.406   4.963
50315W        W15575  35.207   8.438   2.823
50316W        W15576  25.471  38.714  14.538
50317W        W15577  11.958  14.669   3.624
50318W        W15578  15.546  41.308  11.457
50319W        W15579  14.163  25.021  14.476
50320W        W15580  17.811  26.952  10.602
50321W        W15581   5.726   4.021  13.928
50322W        W15582  39.835  11.248  12.201
50323W        W15583   6.207   6.191   0.632
50324W        W15584  20.272  42.850  14.368
50325W        W15585  37.826  18.296  13.886
50326W        W15586  16.311   3.632   0.426
50327W        W15587   7.767   4.680  12.040
50328W        W15588  28.156  31.422   0.585
50329W        W15589  26.959  12.656   5.053
50330W        W15590   7.448   2.770  14.529
50331W        W15591   8.248   9.881  13.928
50332W        W15592   3.635  43.808   3.667
50333W        W15593  24.194  33.328   3.198
50334W        W15594  43.774   4.340   4.393
50335W        W15595  41.371  22.308   0.949
50336W        W15596  38.562  14.840  11.093
50337W        W15597  44.118  39.047  12.873
50338W        W15598  35.683  19.833  11.088
50339W        W15599  36.357  18.740   0.227
50340W        W15600  40.352   2.953  12.332
50341W        W15601  24.318   1.288  12.528
50342W        W15602  25.523  12.094   1.812
50343W        W15603  43.522  33.001   4.898
50344W        W15604  14.588  22.158   3.450
50345W        W15605  39.823   4.439  11.181
50346W        W15606   9.274  30.712  12.021
50347W        W15607  34.880  35.840  11.872
50348W        W15608   1.258  30.156  11.899
50349W        W15609  23.457  27.505   0.415
50350W        W15610  21.988  42.730  14.675
50351W        W15611  22.523  26.570  10.714
50352W        W15612  32.012  16.585  10.536
50353W        W15613  41.054  27.461   2.382
50354W        W15614  14.795  22.772   4.320
50355W        W15615  39.893  19.282  10.598
50356W        W15616  24.092  12.090  10.542
50357W        W15617  38.315  36.235   0.698
50358W        W15618  21.750  35.897   1.748
50359W        W15619  36.936  25.022  10.749
50360W        W15620  38.091  33.063  11.918
50361W        W15621   7.792   7.724   4.172
50362W        W15622  25.020   4.824   0.706
50363W        W15623   4.640  14.772   4.626
50364W        W15624  26.367  23.825  11.263
50365W        W15625  18.845  30.111  12.325
50366W        W15626  25.385  29.637   1.838
50367W        W15627  26.951  43.323  12.483
50368W        W15628  12.777  15.450  14.917
50369W        W15629  30.378   0.379   1.216
50370W        W15630  28.877  30.110   0.346
50371W        W15631  17.506  25.707  11.759
50372W        W15632   0.047  43.525  12.525
50373W        W15633   5.582   0.402  12.223
50374W        W15634   6.830  37.229  13.925
50375W        W15635   4.935  32.596  10.734
50376W        W15636  35.403  43.905   4.203
50377W        W15637  22.251  40.392  11.478
50378W        W15638  41.845  22.972  14.826
50379W        W15639  21.925  39.026   3.413
50380W        W15640  33.948  29.119  13.992
50381W        W15641   8.931  22.384   0.422
50382W        W15642  32.405  27.680   4.023
50383W        W15643  28.068   4.878  10.757
50384W        W15644  16.301   8.304  12.321
50385W        W15645   1.897  38.897  13.362
50386W        W15646  11.547  15.744   4.434
50387W        W15647   1.845  39.928   0.185
50388W        W15648  11.295   7.751   2.882
50389W        W15649   0.516  30.729   2.412
50390W        W15650  33.069  15.260   3.002
50391W        W15651  39.943  12.671  11.193
50392W        W15652  38.818   9.856  11.655
50393W        W15653   9.231  31.550  14.477
50394W        W15654  36.038  25.034  13.318
50395W        W15655  19.560   0.759   4.459
50396W        W15656   8.924  26.978  11.972
50397W        W15657  27.197   9.249  12.485
50398W        W15658   4.652  14.857  12.899
50399W        W15659  15.669  35.034  11.405
50400W        W15660  14.576  13.144  10.895
50401W        W15661   6.416  24.764  14.754
50402W        W15662  17.293  38.528  14.532
50403W        W15663  41.285  30.298   2.836
50404W        W15664  14.465   9.309  14.570
50405W        W15665  35.655  15.293   2.760
50406W        W15666   6.195  12.817  12.989
50407W        W15667  13.574  27.873   2.401
50408W        W15668  41.971  44.225  12.998
50409W        W15669  33.113   9.732  11.186
50410W        W15670   6.790  33.160  14.116
50411W        W15671  40.128   5.272  14.173
50412W        W15672   3.428  22.155   0.067
50413W        W15673   5.826  39.501   2.730
50414W        W15674  25.488  30.246   1.945
50415W        W15675  14.664  25.172   4.526
50416W        W15676  18.313  12.321   4.699
50417W        W15677  35.102  23.790   5.057
50418W        W15678  14.817  20.733   3.290
50419W        W15679  16.694  36.545  12.576
50420W        W15680  23.029  26.662   2.143
50421W        W15681  28.646  23.205   4.065
50422W        W15682  42.468  24.299   1.971
50423W        W15683  23.551   0.533  12.552
50424W        W15684  29.723   8.696  14.186
50425W        W15685  42.718  28.344   4.229
50426W        W15686  20.497  40.612  10.768
50427W        W15687  40.267  39.966  12.645
50428W        W15688  24.718  17.273  12.964
50429W        W15689  19.068  26.577  13.147
50430W        W15690  32.930  19.150   1.260
50431W        W15691   9.274  24.860   9.899
50432W        W15692  40.811  24.735  12.919
50433W        W15693  38.362  25.204   2.204
50434W        W15694  33.724  16.537   1.275
50435W        W15695   4.549  44.275   5.011
50436W        W15696  15.236  40.665  13.868
50437W        W15697  33.828  37.854  12.199
50438W        W15698   9.671  42.978  14.001
50439W        W15699  16.138  39.968  13.018
50440W        W15700   6.288  38.317   0.901
50441W        W15701   2.903  31.873  10.984
50442W        W15702  21.225   1.087  13.344
50443W        W15703  19.246  38.880  11.493
50444W        W15704   6.638  43.761  12.002
50445W        W15705  27.371  41.577  13.196
50446W        W15706   1.218  20.207  14.849
50447W        W15707  34.899   4.383   4.104
50448W        W15708  17.803  14.665  14.729
50449W        W15709  33.065  20.854  14.447
50450W        W15710  25.449   3.494  11.679
50451W        W15711  20.118  31.418  11.505
50452W        W15712   8.308  44.241   4.488
50453W        W15713   3.549  15.650   5.061
50454W        W15714  40.929  44.327  10.547
50455W        W15715   5.360   9.621   0.324
50456W        W15716  29.975   8.199   1.797
50457W        W15717  12.331  12.658   0.816
50458W        W15718  21.015  13.658   1.626
50459W        W15719  26.082  16.689  10.662
50460W        W15720  35.530  17.634  14.444
50461W        W15721  33.389  33.871   3.651
50462W        W15722  35.619  23.239  13.502
50463W        W15723  19.258  39.998   3.417
50464W        W15724  22.069  28.922  14.497
50465W        W15725  14.236  25.179   4.824
50466W        W15726   1.193  40.886   4.830
50467W        W15727  32.081  42.940   2.163
50468W        W15728  43.791   1.555   1.279
50469W        W15729  30.422  44.902  10.949
50470W        W15730  15.161  30.829   3.679
50471W        W15731  19.731  40.275  12.140
50472W        W15732   0.523   8.936   0.988
50473W        W15733  43.380  14.150  13.801
50474W        W15734  42.700   9.619   1.863
50475W        W15735  30.243  18.569  12.074
50476W        W15736  40.797  13.648   0.937
50477W        W15737  24.726  11.324   1.970
50478W        W15738  35.839  42.929  14.331
50479W        W15739  26.150   7.470  12.725
50480W        W15740  36.870  13.394   3.781
50481W        W15741  25.034  10.285   2.908
50482W        W15742  21.129   5.945   2.372
50483W        W15743   1.682  29.177   1.211
50484W        W15744   3.761   8.226  12.628
50485W        W15745   8.708   5.933  13.373
50486W        W15746  28.666  41.234   3.080
50487W        W15747  44.985  14.326  12.532
50488W        W15748   9.821  29.521  10.562
50489W        W15749  27.570  29.624  13.386
50490W        W15750  31.134   2.247   4.381
50491W        W15751  44.567  29.433   2.710
50492W        W15752  39.015   5.881  13.433
50493W        W15753  42.419  31.939  11.717
50494W        W15754  12.351  19.491  13.469
50495W        W15755  29.574  15.162  11.893
50496W        W15756  39.536   9.868   3.125
50497W        W15757  34.840  25.237   2.067
50498W        W15758   1.037  32.000   2.003
50499W        W15759  11.209  35.807  14.393
50500W        W15760  23.778   2.258   3.736
50501W        W15761  13.052  21.834   2.230
50502W        W15762  13.316  30.132   3.151
50503W        W15763  23.986  12.724   4.784
50504W        W15764  10.398   6.419   1.645
50505W        W15765   1.367  33.417  14.323
50506W        W15766  41.064  27.547   0.951
50507W        W15767  34.349   7.314  14.282
50508W        W15768  23.578  17.482   0.864
50509W        W15769   4.364  35.948   2.598
50510W        W15770   3.753  29.044   1.275
50511W        W15771  16.059  38.919  10.623
50512W        W15772  13.104   4.789   3.297
50513W        W15773  21.577  23.774  10.609
50514W        W15774   2.118  38.967  12.906
50515W        W15775   5.683  43.315  14.340
50516W        W15776   7.936  44.192   3.100
50517W        W15777  38.420   5.691   4.747
50518W        W15778   7.771  18.643  12.607
50519W        W15779   6.104  28.278  10.111
50520W        W15780   3.399  40.516  11.988
50521W        W15781  20.690   2.775   4.417
50522W        W15782  14.543   5.911  11.667
50523W        W15783  15.105  36.142  11.994
50524W        W15784  41.025   5.444   2.751
50525W        W15785   9.250  22.138   3.708
50526W        W15786  31.843   3.482   3.752
50527W        W15787   8.200  14.617   3.618
50528W        W15788  40.305  26.746   2.191
50529W        W15789  18.196  28.038  14.916
50530W        W15790  38.423  37.419   3.347
50531W        W15791   9.021  25.410  13.550
50532W        W15792  10.173   8.813   4.768
50533W        W15793  41.611  11.452   1.844
50534W        W15794   8.251   1.949  11.026
50535W        W15795  29.679  26.874  12.930
50536W        W15796  33.339  29.786  13.892
50537W        W15797  15.953  21.084  11.977
50538W        W15798  15.216   0.534   4.094
50539W        W15799  35.897   6.692  11.223
50540W        W15800  42.328  13.694   0.702
50541W        W15801  42.954  13.478   1.946
50542W        W15802  15.060  19.824   0.480
50543W        W15803   2.804  44.010  12.426
50544W        W15804  43.419   2.057   0.871
50545W        W15805  44.000  21.937   4.106
50546W        W15806  35.511  12.001  14.942
50547W        W15807   3.212  19.625  12.571
50548W        W15808  20.419  14.790  11.380
50549W        W15809  44.804  15.415   3.555
50550W        W15810  36.834  39.395   1.231
50551W        W15811  17.162  43.528  13.931
50552W        W15812  31.296  12.257  13.443
50553W        W15813  13.579  20.899   2.188
50554W        W15814  35.235   3.250   4.425
50555W        W15815  33.575  26.472  12.875
50556W        W15816  29.631  44.321  11.563
50557W        W15817  31.092  21.292  12.907
50558W        W15818  20.644   7.400   3.343
50559W        W15819  15.251   7.474  12.061
50560W        W15820  38.178  24.280   1.248
50561W        W15821   0.020  20.865  12.593
50562W        W15822  18.469  29.147  10.793
50563W        W15823  10.394  38.945  11.620
50564W        W15824   0.032  35.899   2.864
50565W        W15825   9.754  44.375   3.615
50566W        W15826  18.585  23.329   3.790
50567W        W15827   1.243  43.077  10.939
50568W        W15828   8.896  42.389  12.642
50569W        W15829  35.242  42.258   3.136
50570W        W15830   9.465   1.372  13.937
50571W        W15831   6.548   7.237  11.097
50572W        W15832  27.531  40.503  13.999
50573W        W15833  17.077  14.789  13.909
50574W        W15834  22.050  42.319  13.793
50575W        W15835  41.363  32.792  12.906
50576W        W15836  27.064  37.567   0.378
50577W        W15837  38.803  22.623   2.621
50578W        W15838  12.089  26.204   2.179
50579W        W15839  26.423  38.509  13.763
50580W        W15840  39.814  24.162   2.278
50581W        W15841  14.356   6.484  13.037
50582W        W15842  28.239  28.949  14.902
50583W        W15843  22.189  16.448  12.741
50584W        W15844  41.019  22.255   2.855
50585W        W15845  34.135  37.966  12.634
50586W        W15846  31.880  23.732   3.251
50587W        W15847  39.115  30.641  11.524
50588W        W15848  38.969  24.665   1.092
50589W        W15849  16.072  25.003  10.299
50590W        W15850  36.939   9.402   2.772
50591W        W15851  12.560  18.184   0.938
50592W        W15852  28.252  15.167  13.196
50593W        W15853   8.918   4.099   0.642
50594W        W15854  35.857  15.796   2.741
50595W        W15855  15.145  26.215   0.986
50596W        W15856  25.628  21.274  13.448
50597W        W15857  33.886   7.173   1.926
50598W        W15858  42.592  12.337   0.834
50599W        W15859  13.056  34.274   2.264
50600W        W15860  14.627  26.911  12.168
50601W        W15861  14.890  31.858  12.627
50602W        W15862  16.725   7.807  11.720
50603W        W15863  28.174  34.663   4.725
50604W        W15864  25.902  10.205   3.786
50605W        W15865  24.127   0.914  13.460
50606W        W15866  41.042   9.199   4.225
50607W        W15867   6.647  42.958  13.333
50608W        W15868  16.992  35.061   0.325
50609W        W15869  33.817  40.565  11.600
50610W        W15870   1.406   3.215   1.428
50611W        W15871  22.771  18.758  11.719
50612W        W15872  35.009  25.681   3.830
50613W        W15873  13.790  23.044   1.633
50614W        W15874  37.408  31.448  10.679
50615W        W15875  41.094   8.818  12.961
50616W        W15876   1.129  28.104  11.098
50617W        W15877   7.591  20.312   2.743
50618W        W15878  43.900  44.098  11.919
50619W        W15879   0.909  31.573   1.746
50620W        W15880  43.191   5.585   4.102
50621W        W15881   6.441  40.515  12.918
50622W        W15882  31.444   5.323   2.795
50623W        W15883  25.300  25.630  10.640
50624W        W15884  29.903  34.738   2.292
50625W        W15885  17.107  16.526  10.330
50626W        W15886  17.804  42.370  13.488
50627W        W15887  20.589  18.764   2.764
50628W        W15888  21.771   6.039  10.496
50629W        W15889  13.126  28.787   2.367
50630W        W15890  18.736  28.318  12.412
50631W        W15891  43.716   6.054   3.254
50632W        W15892  44.278  12.481  13.964
50633W        W15893  43.233   8.200  13.045
50634W        W15894  36.265   8.408   0.798
50635W        W15895  39.555  24.723  10.530
50636W        W15896  41.770   3.375  13.091
50637W        W15897   5.833   3.161  10.346
50638W        W15898   2.881  20.732   2.906
50639W        W15899  35.005  24.430   2.536
50640W        W15900  30.195  23.115  11.897
50641W        W15901  30.023  35.286   0.631
50642W        W15902  10.095  20.712  12.914
50643W        W15903  20.475  23.235  10.138
50644W        W15904  31.694   9.832  13.062
50645W        W15905  30.299  39.312  11.409
50646W        W15906   6.527   5.844   1.938
50647W        W15907  27.698  18.262  13.776
50648W        W15908  20.702  43.933   2.858
50649W        W15909  16.756  43.339   2.222
50650W        W15910  21.468  33.929  12.492
50651W        W15911  11.458  21.090  11.425
50652W        W15912  32.362   9.781  12.534
50653W        W15913   6.103   3.667   0.272
50654W        W15914  19.166  44.487  12.751
50655W        W15915  16.311  43.391  14.277
50656W        W15916  13.400  38.391   3.657
50657W        W15917  27.952   9.691   0.336
50658W        W15918  26.821   4.958   3.783
50659W        W15919  35.511  29.438   0.682
50660W        W15920  10.394  37.198  11.444
50661W        W15921  23.613  24.705   3.810
50662W        W15922  20.528   0.923   0.218
50663W        W15923  19.553  16.256  11.733
50664W        W15924  30.281   1.349  10.463
50665W        W15925  42.919  29.910  13.333
50666W        W15926  39.885  24.763  14.239
50667W        W15927   0.660  31.440   1.283
50668W        W15928  42.927   2.475  11.643
50669W        W15929   0.238   4.729  11.251
50670W        W15930  34.015  19.791   1.538
50671W        W15931  31.483  36.336  14.676
50672W        W15932  13.774   4.746  10.689
50673W        W15933  44.272  11.390   2.495
50674W        W15934  26.456  16.215   1.294
50675W        W15935  16.801  44.503   2.767
50676W        W15936   8.752   7.354  13.804
50677W        W15937  29.124   7.919  12.900
50678W        W15938   5.929  24.915   4.185
50679W        W15939  41.353  23.133   3.809
50680W        W15940  41.076  35.513   1.407
50681W        W15941   2.489   5.806  13.467
50682W        W15942  11.677  11.746   2.458
50683W        W15943   4.024  42.508  11.162
50684W        W15944  14.642  12.248  11.470
50685W        W15945  15.124  14.065   2.773
50686W        W15946  24.437  22.694  10.745
50687W        W15947  38.564  33.655   2.768
50688W        W15948   2.354  19.092   3.402
50689W        W15949  28.851  13.138  14.389
50690W        W15950   4.744   7.280   4.875
50691W        W15951  39.332   6.196   1.967
50692W        W15952   2.451  44.377   3.353
50693W        W15953  41.634  44.787   3.698
50694W        W15954  32.305  24.532   5.125
50695W        W15955  20.119  32.916   4.039
50696W        W15956  24.210   6.667   2.651
50697W        W15957  32.033  22.949  13.876
50698W        W15958  15.595   5.901  11.315
50699W        W15959  30.675  24.367  12.103
50700W        W15960  17.704   3.930   4.238
50701W        W15961  20.406   7.465  13.374
50702W        W15962  12.085  34.263  14.085
50703W        W15963  31.257   8.728   3.589
50704W        W15964  10.771  28.938   2.794
50705W        W15965  42.320  19.013   3.344
50706W        W15966  21.540  35.670   3.150
50707W        W15967  19.268  26.170  12.906
50708W        W15968   0.980  13.016  10.721
50709W        W15969   5.171  33.115   3.595
50710W        W15970  10.403  40.539   3.227
50711W        W15971  26.019  40.394   4.311
50712W        W15972  24.144  23.066  14.773
50713W        W15973  39.128  44.094  11.933
50714W        W15974  35.889   5.195   2.635
50715W        W15975   9.338  21.028  14.424
50716W        W15976   8.260   7.911  12.575
50717W        W15977  14.859  42.902  12.933
50718W        W15978  20.061  21.189   0.808
50719W        W15979   1.421  12.437   4.940
50720W        W15980  20.115  14.750  14.517
50721W        W15981  25.234  23.571   4.152
50722W        W15982  34.191  20.138   3.662
50723W        W15983  36.822  44.353   4.921
50724W        W15984  41.963  22.283  11.590
50725W        W15985  33.562  18.486   0.582
50726W        W15986  29.177  44.100   0.930
50727W        W15987   3.313  18.273   2.927
50728W        W15988  16.735  36.643  10.658
50729W        W15989  42.504  35.365   3.347
50730W        W15990  21.642   2.744   4.408
50731W        W15991  21.132  32.190  12.364
50732W        W15992   6.948  11.598  11.289
50733W        W15993   4.677  21.310  11.530
50734W        W15994  21.349  11.624   3.294
50735W        W15995  31.026  42.355   2.021
50736W        W15996   3.213  33.107  10.525
50737W        W15997  18.841  28.868   3.108
50738W        W15998  40.907  15.187   3.849
50739W        W15999  33.105   2.500  11.928
50740W        W16000  28.076  26.517  13.047
50741W        W16001  20.619  30.123   1.845
50742W        W16002  36.847  25.922  13.287
50743W        W16003   8.761   4.478   5.027
50744W        W16004  10.762  43.744  14.405
50745W        W16005  22.593  17.860   2.302
50746W        W16006   1.946  34.215   3.078
50747W        W16007   4.626   0.799   4.200
50748W        W16008  18.978   3.912   4.196
50749W        W16009  29.006  10.895   3.762
50750W        W16010  11.818  23.204   0.555
50751W        W16011  21.021  16.550  10.200
50752W        W16012  10.151  13.648  11.248
50753W        W16013  26.669  42.537  14.238
50754W        W16014  39.784  13.461  13.017
50755W        W16015  22.612  27.675  13.801
50756W        W16016  37.507  14.125  10.595
50757W        W16017  27.984  17.127   0.475
50758W        W16018  34.409   7.910   3.239
50759W        W16019  21.664  27.205  12.383
50760W        W16020  25.756  40.617  13.918
50761W        W16021  20.084  35.301   2.312
50762W        W16022  40.064   9.602   0.257
50763W        W16023  33.923  29.178   4.649
50764W        W16024  44.088  32.918  10.979
50765W        W16025  17.672  11.498  14.501
50766W        W16026  41.628  28.000   3.927
50767W        W16027   5.260  17.317   2.735
50768W        W16028  44.283  17.750   0.941
50769W        W16029  23.997  37.946   0.464
50770W        W16030  17.607  36.897   2.323
50771W        W16031   4.674  32.303  14.426
50772W        W16032  24.786  10.651   3.210
50773W        W16033  12.324  24.940  13.563
50774W        W16034   3.226  34.398  11.199
50775W        W16035  26.180   1.725   0.030
50776W        W16036  39.480   2.775  11.053
50777W        W16037  19.692  33.117   3.801
50778W        W16038  30.595  22.146   3.082
50779W        W16039  32.454   4.801  11.033
50780W        W16040  18.462  36.977   2.412
50781W        W16041   1.310  43.529  11.981
50782W        W16042  10.751  38.852   4.918
50783W        W16043  33.037  12.085   3.173
50784W        W16044  24.170  30.929   2.630
50785W        W16045   8.259  28.088   0.847
50786W        W16046  22.993  33.996   4.522
50787W        W16047  37.122   6.188   2.559
50788W        W16048   3.905  40.376   4.661
50789W        W16049  40.694  25.161   4.076
50790W        W16050  17.006  17.254  13.936
50791W        W16051   6.405  17.246  11.557
50792W        W16052  21.566  11.364   4.132
50793W        W16053  37.879  35.934   0.967
50794W        W16054  18.256  32.651   2.944
50795W        W16055   5.841  25.035   0.508
50796W        W16056  37.983  41.763  11.670
50797W        W16057  31.489  20.081  12.387
50798W        W16058  35.795  28.585  11.202
50799W        W16059   9.579   5.194   1.331
50800W        W16060  12.235   7.145  14.554
50801W        W16061  15.819  34.440   0.697
50802W        W16062  41.267   4.360   1.511
50803W        W16063  41.424  24.038   3.355
50804W        W16064  22.627  28.210   4.180
50805W        W16065  40.301  11.083  13.374
50806W        W16066  29.660   0.852   2.799
50807W        W16067  37.376  39.788  14.243
50808W        W16068  11.551  41.039   0.413
50809W        W16069  21.771  19.222  14.887
50810W        W16070  19.301  22.054   0.181
50811W        W16071  12.848  27.712  11.039
50812W        W16072  28.589   3.262  13.526
50813W        W16073  24.911   1.017  14.722
50814W        W16074  20.686  41.269   4.857
50815W        W16075   5.173  24.269  14.828
50816W        W16076  40.750  12.167  14.758
50817W        W16077  28.958  16.195   1.967
50818W        W16078  19.751  20.734   1.527
50819W        W16079  26.746  33.031   0.973
50820W        W16080  26.083  32.930   0.114
50821W        W16081  15.320  37.904   4.700
50822W        W16082  13.121  24.154   3.963
50823W        W16083  15.136   1.774   0.771
50824W        W16084  29.440  11.780  14.338
50825W        W16085  26.736  14.059   0.476
50826W        W16086  19.256   1.207  11.674
50827W        W16087  32.676   0.025  14.745
50828W        W16088  31.843  38.351   0.796
50829W        W16089  19.035  30.352  11.909
50830W        W16090  30.097  10.216   0.871
50831W        W16091  26.478   8.798   3.528
50832W        W16092  37.849  14.861  12.127
50833W        W16093  28.428  26.435   3.609
50834W        W16094  11.327  10.249  10.698
50835W        W16095  41.107  31.419  11.907
50836W        W16096  41.982  31.408   4.178
50837W        W16097   2.225  32.942   3.587
50838W        W16098  23.268  37.720  12.989
50839W        W16099  40.426  20.735  13.882
50840W        W16100  40.666  13.356  14.851
50841W        W16101  28.588   6.144   3.666
50842W        W16102  15.084  43.526  12.591
50843W        W16103   3.025   4.745  14.881
50844W        W16104   1.328  38.780   3.285
50845W        W16105  38.909  29.633  12.911
50846W        W16106  39.418  29.681  13.138
50847W        W16107  16.936  37.602  12.667
50848W        W16108  38.917  31.610  10.657
50849W        W16109  16.242   6.958  13.996
50850W        W16110  39.625  14.619   0.368
50851W        W16111  17.097  40.117  11.553
50852W        W16112  28.702  37.106   1.205
50853W        W16113  42.863  28.369   3.190
50854W        W16114   5.900  33.940   1.492
50855W        W16115  11.673  35.422  13.948
50856W        W16116  32.633  21.192   1.823
50857W        W16117  37.020  39.968   0.396
50858W        W16118   1.939  18.340  11.256
50859W        W16119  13.000  31.094  11.081
50860W        W16120  22.785  25.522   9.885
50861W        W16121  17.262  18.177   0.739
50862W        W16122  16.895  32.360  11.535
50863W        W16123   7.699   0.975   0.355
50864W        W16124  21.668  32.900   1.722
50865W        W16125   0.999  41.778   3.880
50866W        W16126  40.541  42.309  13.190
50867W        W16127  24.018  15.365  13.711
50868W        W16128  29.789  41.851  14.823
50869W        W16129  44.285  39.929   0.497
50870W        W16130  42.738  35.534  11.141
50871W        W16131  44.538  21.506   0.788
50872W        W16132  25.334   8.176  14.887
50873W        W16133  43.988  41.773   4.121
50874W        W16134  12.987  19.542  12.481
50875W        W16135  29.155   4.862   2.401
50876W        W16136  14.827  25.078  11.526
50877W        W16137  37.520  41.938   1.468
50878W        W16138  32.993  30.109   3.590
50879W        W16139  20.833   1.480   3.248
50880W        W16140  41.742  44.023  14.956
50881W        W16141  38.338  17.805  13.059
50882W        W16142  17.880  15.599  11.137
50883W        W16143   8.235  39.623  11.149
50884W        W16144  10.649  35.298  11.523
50885W        W16145  18.692  34.866   3.106
50886W        W16146   3.363  34.204  13.041
50887W        W16147   9.180  11.508   4.907
50888W        W16148  16.407  20.689  12.473
50889W        W16149   3.463  40.290  13.979
50890W        W16150  12.437  42.024  11.651
50891W        W16151  44.630  22.186   2.754
50892W        W16152  12.216  13.645   1.846
50893W        W16153  40.280  42.019   0.920
50894W        W16154  13.280  13.081  14.391
50895W        W16155  28.490  35.310  14.951
50896W        W16156  35.406  34.772  11.488
50897W        W16157   2.438  27.859  12.484
50898W        W16158   3.986  20.061   4.522
50899W        W16159  21.625  25.256  11.558
50900W        W16160  16.272  29.756   4.525
50901W        W16161  24.693   2.692   2.782
50902W        W16162  43.312  14.831  12.893
50903W        W16163  13.667  19.139  14.034
50904W        W16164   9.286  44.210  14.606
50905W        W16165  32.710   2.255  12.186
50906W        W16166  44.464  25.090   5.430
50907W        W16167  44.135  29.579   3.645
50908W        W16168  29.577  19.701   2.849
50909W        W16169  13.855  35.411   1.967
50910W        W16170  40.551  19.757   1.826
50911W        W16171  25.119   0.782   1.215
50912W        W16172  24.950  11.092   3.938
50913W        W16173   1.655  13.881   4.071
50914W        W16174  32.883  44.786   4.128
50915W        W16175  13.825  42.348  12.926
50916W        W16176  40.445  44.552   1.567
50917W        W16177   0.459  29.570  12.100
50918W        W16178  31.926   6.824   0.167
50919W        W16179  37.089  17.915   4.230
50920W        W16180  24.176  44.872  12.618
50921W        W16181   9.615  40.004   1.200
50922W        W16182  41.597   2.495  12.980
50923W        W16183   5.158  44.532   4.129
50924W        W16184  21.497  25.072   3.358
50925W        W16185  15.018  20.584  13.807
50926W        W16186  31.451   1.533  10.792
50927W        W16187  28.890   4.168  12.620
50928W        W16188  32.949   5.955   2.629
50929W        W16189  39.169   0.168   2.101
50930W        W16190  19.868  37.830  13.241
50931W        W16191  22.031  34.574  12.583
50932W        W16192   2.909  31.002   4.211
50933W        W16193  18.023  28.535  14.794
50934W        W16194  39.995   6.363  14.151
50935W        W16195  40.320   3.707  12.875
50936W        W16196  41.547  20.021  13.470
50937W        W16197   1.240   1.447  13.646
50938W        W16198  22.576  11.343   2.733
50939W        W16199   6.355  35.591  12.809
50940W        W16200  32.074  25.476   0.363
50941W        W16201  28.438  27.059  12.302
50942W        W16202   6.635  39.005   0.361
50943W        W16203  27.128  28.054  10.816
50944W        W16204   3.157  30.122   2.696
50945W        W16205  29.943  28.208  12.005
50946W        W16206  36.652  17.005  10.568
50947W        W16207  12.976   2.420   1.455
50948W        W16208  15.270  19.039  13.843
50949W        W16209  21.895  39.772   4.602
50950W        W16210  37.555  30.221   4.102
50951W        W16211  12.727  43.960   2.442
50952W        W16212   7.881   8.975   3.706
50953W        W16213  16.963   2.268   4.181
50954W        W16214   7.153  43.649  14.535
50955W        W16215  17.376  25.408  14.878
50956W        W16216  26.691  40.053  12.560
50957W        W16217  41.588  25.688  13.188
50958W        W16218  22.729  26.734  14.288
50959W        W16219   1.227  20.503  12.358
50960W        W16220  28.803  16.759   2.676
50961W        W16221   2.026   9.201  12.134
50962W        W16222  28.529   2.974  11.195
50963W        W16223  23.405  14.368  13.973
50964W        W16224  14.194  25.322  14.922
50965W        W16225  22.216  29.366   4.029
50966W        W16226   3.824   7.810  12.943
50967W        W16227  24.066  37.678   4.051
50968W        W16228  12.090  16.504  14.953
50969W        W16229  42.987  13.235  13.144
50970W        W16230  44.667  37.772  13.956
50971W        W16231  40.999  11.449   9.796
50972W        W16232  21.779  15.266  13.134
50973W        W16233  16.142  44.481   1.413
50974W        W16234  34.493  24.982  11.138
50975W        W16235   9.140  32.672   2.422
50976W        W16236   0.496  34.533   3.869
50977W        W16237   4.423  19.299   1.110
50978W        W16238  26.997   6.388   1.147
50979W        W16239  22.653   3.908   1.437
50980W        W16240   9.108  26.961  13.390
50981W        W16241  36.163  38.184  13.445
50982W        W16242   5.458   7.960  11.467
50983W        W16243  37.345  14.531   1.727
50984W        W16244   0.034  38.739  12.771
50985W        W16245   2.701  14.380   2.937
50986W        W16246  35.394   7.044  13.514
50987W        W16247  41.965   4.302  13.267
50988W        W16248   3.740  10.327  11.697
50989W        W16249  28.753  39.985  11.060
50990W        W16250   6.639  16.786  10.751
50991W        W16251   7.697  28.680  11.252
50992W        W16252  44.858   3.856   4.192
50993W        W16253  17.850   8.602   0.922
50994W        W16254  10.782  36.923  11.681
50995W        W16255  30.531  12.628  14.355
50996W        W16256  20.340  34.089   1.713
50997W        W16257  40.413   9.825   4.038
50998W        W16258  34.007   3.895  14.048
50999W        W16259  18.462  41.024   2.092
51000W        W16260  36.664  40.320  10.675
51001W        W16261  34.584  28.174   1.389
51002W        W16262  40.930  43.767   2.468
51003W        W16263   5.161  30.133  14.351
51004W        W16264  36.808  19.999  12.150
51005W        W16265  30.451  21.646   3.125
51006W        W16266  29.880  17.660   3.278
51007W        W16267  37.947   3.549   0.808
51008W        W16268  12.947  41.099  12.153
51009W        W16269  38.516  15.082  13.290
51010W        W16270  31.919  39.204  11.164
51011W        W16271   0.296  37.617   4.917
51012W        W16272  25.756  11.245   3.202
51013W        W16273   3.416  29.886  11.666
51014W        W16274  30.361  18.976   3.691
51015W        W16275  16.027   7.109  11.493
51016W        W16276  28.557  32.784   2.170
51017W        W16277  39.472  40.053   1.260
51018W        W16278   2.168  26.592  12.484
51019W        W16279   0.267  22.369  13.973
51020W        W16280   2.191   5.930   2.834
51021W        W16281  24.413  20.585  14.763
51022W        W16282  17.568  28.914  14.561
51023W        W16283  44.962  28.200   0.907
51024W        W16284  38.547  26.513  13.440
51025W        W16285  11.649  18.908  11.632
51026W        W16286  30.271  16.084  13.701
51027W        W16287  29.230  24.126   3.137
51028W        W16288  15.691  23.194   2.583
51029W        W16289   2.967  26.694  10.471
51030W        W16290  22.389  38.983   0.722
51031W        W16291   4.827  14.483   5.109
51032W        W16292  43.289  24.780   1.352
51033W        W16293  25.919   3.789   2.406
51034W        W16294  19.253  18.980  11.937
51035W        W16295  25.192  34.365  14.900
51036W        W16296  27.624  22.206  14.545
51037W        W16297  15.631  42.269   4.650
51038W        W16298  27.030  35.058   0.346
51039W        W16299  25.310   8.382   1.673
51040W        W16300   2.003  38.105   1.322
51041W        W16301  43.846  11.938   1.982
51042W        W16302   8.942   3.031   0.718
51043W        W16303  23.453  35.636   0.880
51044W        W16304  23.643  20.464  14.253
51045W        W16305  13.776  40.630   4.147
51046W        W16306  13.861  10.346  12.127
51047W        W16307  35.525  32.098   0.310
51048W        W16308  12.291  26.191  10.417
51049W        W16309  22.485  19.581  14.843
51050W        W16310  11.119  24.056   3.448
51051W        W16311  33.904  26.706   1.873
51052W        W16312  13.243  19.004  13.749
51053W        W16313  23.562  18.526  12.664
51054W        W16314  18.215   1.905  10.679
51055W        W16315  26.696  17.485  13.303
51056W        W16316  30.191  14.815   3.181
51057W        W16317  12.356   2.888   3.220
51058W        W16318  31.394   0.026  14.242
51059W        W16319  24.180  38.451  13.700
51060W        W16320  32.946  35.023  12.317
51061W        W16321  40.818  20.873  11.444
51062W        W16322  24.703  23.335   2.762
51063W        W16323  17.740  12.299   3.588
51064W        W16324  19.178  35.683  11.915
51065W        W16325  41.006  13.047   3.136
51066W        W16326   7.805  15.839   4.550
51067W        W16327  32.188  34.261  13.929
51068W        W16328   4.306  27.916  11.197
51069W        W16329   8.306  41.940  12.912
51070W        W16330   5.795  14.128   3.263
51071W        W16331  34.927  39.792  13.400
51072W        W16332   8.867  30.435   0.949
51073W        W16333  44.408  20.277   1.542
51074W        W16334  42.937  10.663   4.625
51075W        W16335  34.976  11.139  10.559
51076W        W16336  12.272  34.896  12.520
51077W        W16337   5.528  20.164  12.578
51078W        W16338  23.194  24.861  10.689
51079W        W16339  21.747  18.708   3.851
51080W        W16340  44.070  17.230   2.776
51081W        W16341  27.025  10.299  10.273
51082W        W16342   5.470  26.946   2.783
51083W        W16343  23.795  34.456   2.701
51084W        W16344  35.298  25.410  11.139
51085W        W16345  44.951  26.853  12.937
51086W        W16346  28.502  33.567  12.644
51087W        W16347  39.906  24.704   2.220
51088W        W16348  21.440  38.229   2.122
51089W        W16349   0.345  18.530  14.866
51090W        W16350   9.103  41.268   3.785
51091W        W16351  11.294  18.508  10.615
51092W        W16352  34.048  33.554   1.727
51093W        W16353  43.513  35.360   3.294
51094W        W16354  13.755  39.283   1.585
51095W        W16355   1.306   2.455  14.293
51096W        W16356  16.213  32.556   1.414
51097W        W16357  34.513   3.320   3.359
51098W        W16358  33.824  42.054   2.713
51099W        W16359  29.123  19.679   4.149
51100W        W16360  24.909  33.613   2.698
51101W        W16361  30.081  23.935   2.778
51102W        W16362  36.724  41.651  13.073
51103W        W16363  16.862  13.173  11.982
51104W        W16364  32.703  30.550   0.775
51105W        W16365  20.757  41.369   3.553
51106W        W16366  12.090  11.534  14.791
51107W        W16367   4.383   8.806  11.104
51108W        W16368   5.322  32.605  12.033
51109W        W16369  44.037  37.146  14.431
51110W        W16370  11.250  40.022   2.800
51111W        W16371  12.265  28.679  12.961
51112W        W16372   1.871  22.752  13.195
51113W        W16373  16.836  25.040   4.932
51114W        W16374   2.391  35.184   1.823
51115W        W16375  22.785  18.624  14.973
51116W        W16376  30.096  43.807  12.131
51117W        W16377  34.349  12.668   0.979
51118W        W16378   5.391   0.258  13.513
51119W        W16379   4.656   9.560   3.302
51120W        W16380  10.210  36.339  11.193
51121W        W16381  26.766   0.717  11.557
51122W        W16382  40.640   0.894   2.262
51123W        W16383   1.383  24.081   9.748
51124W        W16384  19.819  33.492  11.099
51125W        W16385   9.373  28.656  12.493
51126W        W16386  33.152   6.639  13.895
51127W        W16387  16.264  13.707  12.131
51128W        W16388  15.873  38.429  13.789
51129W        W16389   0.886   2.791  11.098
51130W        W16390  10.779  33.902   3.261
51131W        W16391  41.424  39.869  14.003
51132W        W16392  30.704  21.723  13.864
51133W        W16393  27.353   8.304   1.800
51134W        W16394  13.617  20.985  10.555
51135W        W16395  43.996   3.424  10.432
51136W        W16396  24.700  41.555  10.664
51137W        W16397  32.210  28.633   3.223
51138W        W16398   0.249  37.734  11.386
51139W        W16399   8.813   2.396  11.505
51140W        W16400  10.764   6.615  14.921
51141W        W16401   0.263  17.704  10.741
51142W        W16402  20.509  19.130  13.743
51143W        W16403  14.147   4.138  14.372
51144W        W16404  42.990  29.603   2.753
51145W        W16405   5.423  22.736   3.132
51146W        W16406  35.816  10.335   3.273
51147W        W16407  29.146  34.389  11.506
51148W        W16408  15.052  29.470   3.783
51149W        W16409  22.059  28.450  12.732
51150W        W16410  19.004   5.603  13.765
51151W        W16411  44.585  15.563  13.599
51152W        W16412  16.195  20.077   1.235
51153W        W16413  16.087  36.031  13.419
51154W        W16414  33.923  20.006  10.279
51155W        W16415  41.022  21.151  14.917
51156W        W16416  16.678  29.212  14.957
51157W        W16417  35.370  40.583  12.354
51158W        W16418  18.211  28.692   0.262
51159W        W16419  16.810  16.260   0.588
51160W        W16420  36.435  24.089  12.479
51161W        W16421  13.063  10.799   1.839
51162W        W16422  28.685   5.855  11.656
51163W        W16423  13.837  25.685   3.229
51164W        W16424  29.079  28.074  14.220
51165W        W16425  19.476   5.220  12.672
51166W        W16426   1.796  24.618  11.297
51167W        W16427  14.553  22.435  12.932
51168W        W16428  38.275  30.230  11.661
51169W        W16429  33.471  12.709  14.686
51170W        W16430  32.114  44.804  12.476
51171W        W16431  36.505  20.861   2.677
51172W        W16432   1.242  35.567   5.019
51173W        W16433   7.878  14.531   3.229
51174W        W16434   2.514  20.581  13.817
51175W        W16435  28.378  16.053  11.001
51176W        W16436   5.689  26.199  10.698
51177W        W16437  24.534   0.416   4.319
51178W        W16438  29.182  12.152   1.532
51179W        W16439  21.599  15.737   3.383
51180W        W16440  17.264  27.576  13.414
51181W        W16441   1.462  30.192   0.786
51182W        W16442  26.979  32.851  14.042
51183W        W16443   6.862   9.354   1.813
51184W        W16444  41.376   8.238   3.948
51185W        W16445  35.885  40.336  13.706
51186W        W16446   5.931   3.875  11.956
51187W        W16447   0.400  19.173   3.249
51188W        W16448   9.773  29.709  13.036
51189W        W16449  13.214   5.748  14.471
51190W        W16450  13.177  35.976   1.713
51191W        W16451  18.525  31.514   4.075
51192W        W16452  29.596  28.718   2.072
51193W        W16453  43.413  44.413  12.922
51194W        W16454   2.978  20.514   2.457
51195W        W16455   8.386  40.539  11.429
51196W        W16456  28.260   8.493  12.416
51197W        W16457  23.051   3.262   2.607
51198W        W16458   3.277  19.371   2.929
51199W        W16459  42.034   3.487  11.764
51200W        W16460   6.138  44.313  11.129
51201W        W16461  34.936  41.839  12.493
51202W        W16462  33.322  16.035   2.403
51203W        W16463  22.153  37.315   2.727
51204W        W16464  38.664  39.457   2.579
51205W        W16465  38.028  21.359  13.369
51206W        W16466  31.640  15.827  13.774
51207W        W16467   4.877  30.477  13.578
51208W        W16468  14.272  36.058   4.686
51209W        W16469  36.485   3.983   2.439
51210W        W16470  35.872  21.998   2.364
51211W        W16471  19.369  37.752   1.488
51212W        W16472  13.607   8.719  14.437
51213W        W16473  39.022  14.239  12.778
51214W        W16474  37.994  23.411   4.061
51215W        W16475   1.177  36.500  11.745
51216W        W16476  12.849  38.781   1.251
51217W        W16477   0.684  11.575  14.407
51218W        W16478  36.366   8.411  14.369
51219W        W16479   5.842  40.472  11.574
51220W        W16480   9.675  14.748   1.309
51221W        W16481  30.969  43.289   3.569
51222W        W16482  32.758   8.818   4.651
51223W        W16483  40.290  23.139  10.559
51224W        W16484   7.176  13.496  12.493
51225W        W16485  20.653  22.575   4.531
51226W        W16486  35.524  43.092   3.469
51227W        W16487  29.363  11.138  13.560
51228W        W16488  17.084  32.248  12.834
51229W        W16489  34.022   9.038   0.837
51230W        W16490   6.383  22.167  10.651
51231W        W16491  14.532  37.206   4.024
51232W        W16492  10.662   9.217  12.378
51233W        W16493  25.661  37.324  14.575
51234W        W16494  38.550  40.545   4.103
51235W        W16495  43.888  10.604   3.465
51236W        W16496  39.465  16.320  11.702
51237W        W16497  11.556  25.076  10.633
51238W        W16498  16.692   1.832   1.381
51239W        W16499  39.362  30.122  14.470
51240W        W16500  11.634  39.373  11.092
51241W        W16501  19.700   3.146   3.116
51242W        W16502  11.921   3.033   0.854
51243W        W16503  37.881  23.582  11.418
51244W        W16504  35.036  42.849   0.461
51245W        W16505   9.787  18.298   0.367
51246W        W16506  43.244  39.884   4.906
51247W        W16507  26.091  31.104  13.071
51248W        W16508   2.045  14.349   1.264
51249W        W16509  25.474  25.466  13.759
51250W        W16510  44.734  32.425   2.262
51251W        W16511  12.379  32.091   4.445
51252W        W16512   9.767   6.825  14.616
51253W        W16513  29.022  32.659   2.377
51254W        W16514  20.573  36.764  12.369
51255W        W16515  14.532  25.120   0.398
51256W        W16516  11.186  17.200  11.169
51257W        W16517  23.737  38.589   2.778
51258W        W16518  36.102  37.165   2.662
51259W        W16519  43.620  15.634  13.298
51260W        W16520  19.593  43.270  12.400
51261W        W16521   5.803  34.661   4.624
51262W        W16522  36.505  24.730  12.411
51263W        W16523  37.393  31.541   3.303
51264W        W16524  15.279  44.982  12.121
51265W        W16525  27.436  36.076  13.392
51266W        W16526   2.897  18.340  13.437
51267W        W16527  11.697  10.598   1.673
51268W        W16528   0.189  30.914   4.680
51269W        W16529  34.261  14.157   3.666
51270W        W16530  24.948  18.638  12.893
51271W        W16531  25.570  15.597  13.078
51272W        W16532   3.583   3.236   1.938
51273W        W16533  37.029  38.691  10.856
51274W        W16534  25.634  20.469   3.637
51275W        W16535  40.121   3.480   1.696
51276W        W16536  12.598  43.040  11.043
51277W        W16537  11.328  25.496   3.693
51278W        W16538   4.000  44.813  11.357
51279W        W16539  42.249   4.449   2.185
51280W        W16540  28.769  13.272   2.590
51281W        W16541  25.837  36.388  11.613
51282W        W16542  29.427  15.133  14.810
51283W        W16543  17.082  20.194  13.874
51284W        W16544  31.679  20.750   4.270
51285W        W16545   7.640  28.155   3.806
51286W        W16546   3.781  24.673   0.904
51287W        W16547  18.731  23.462   1.830
51288W        W16548   7.183  32.169  13.381
51289W        W16549  44.846  44.910   0.890
51290W        W16550   9.854  30.556  12.814
51291W        W16551  10.165  43.353   1.687
51292W        W16552   8.388  35.296   0.743
51293W        W16553  44.402   8.166  12.116
51294W        W16554  41.770  26.363  11.912
51295W        W16555  26.739  18.429  12.790
51296W        W16556   4.237  15.227   2.527
51297W        W16557   1.438  23.366  11.578
51298W        W16558  33.812  10.140   0.159
51299W        W16559  14.486  22.180  12.483
51300W        W16560  35.387  11.606  14.617
51301W        W16561  33.527   2.911  14.915
51302W        W16562  27.704  11.904   3.915
51303W        W16563  37.832  43.125   5.564
51304W        W16564  39.541  25.005  12.077
51305W        W16565  11.112  37.709   2.337
51306W        W16566  21.557  21.701   4.894
51307W        W16567  10.921  26.161   0.434
51308W        W16568  28.235  29.591   4.519
51309W        W16569  34.154   5.338  14.567
51310W        W16570  37.336  10.560   1.737
51311W        W16571  40.525  40.292  13.955
51312W        W16572  21.664  29.456  12.152
51313W        W16573  31.564  31.715   0.969
51314W        W16574  30.122  28.830  13.901
51315W        W16575  15.811   5.290   3.014
51316W        W16576  41.260  38.463   2.239
51317W        W16577  16.991  42.001   2.278
51318W        W16578  11.220  20.746   0.406
51319W        W16579   5.787  18.812   3.614
51320W        W16580  34.907  32.812   0.032
51321W        W16581   4.583  19.667   4.202
51322W        W16582  22.554  18.299   5.002
51323W        W16583  22.783  11.808   0.871
51324W        W16584  32.145   0.621  10.197
51325W        W16585  33.662  39.805   2.256
51326W        W16586  31.952   8.712   4.376
51327W        W16587  30.819  17.021  12.817
51328W        W16588  14.744  38.084   1.679
51329W        W16589   2.999  15.829   2.592
51330W        W16590   2.449  35.683  14.352
51331W        W16591  33.425  31.997  13.864
51332W        W16592  28.085  20.576  14.855
51333W        W16593  22.519   3.256  13.488
51334W        W16594   6.317  25.454  12.991
51335W        W16595   7.186  12.420   2.874
51336W        W16596  40.828   5.407   3.329
51337W        W16597   4.457  30.997  11.795
51338W        W16598  20.184  27.435  11.712
51339W        W16599   9.378   8.160  13.859
51340W        W16600  17.375  24.975  13.570
51341W        W16601  40.196  37.457  13.852
51342W        W16602  38.984  26.870   1.213
51343W        W16603  39.452  17.064   0.091
51344W        W16604  27.837  12.828   0.870
51345W        W16605   4.511  18.435  14.076
51346W        W16606  22.482   7.356   0.835
51347W        W16607  35.466  26.568  11.615
51348W        W16608   7.352  32.073   2.856
51349W        W16609  30.544  29.989   3.820
51350W        W16610  21.713  33.639  13.829
51351W        W16611  17.858  30.077   3.721
51352W        W16612  29.961  40.051   0.465
51353W        W16613  33.968  25.043   4.364
51354W        W16614  38.472  28.666  13.083
51355W        W16615  21.711   3.379   3.229
51356W        W16616  14.968  13.081  11.224
51357W        W16617  34.851  31.301   0.332
51358W        W16618  17.724  11.323   3.669
51359W        W16619  25.778  36.376   1.238
51360W        W16620   6.212  26.497   3.096
51361W        W16621  35.603  42.408   3.608
51362W        W16622   9.846  30.031  10.358
51363W        W16623  24.649  38.573  14.981
51364W        W16624  10.243  11.025  11.021
51365W        W16625  17.662  22.209  11.061
51366W        W16626  34.669  42.846  12.841
51367W        W16627  40.867  20.404  13.898
51368W        W16628   4.396   7.403   4.195
51369W        W16629  28.024  12.092   0.201
51370W        W16630  21.321  26.151   4.599
51371W        W16631   7.858  28.708  12.423
51372W        W16632   1.779  38.115  12.957
51373W        W16633   5.431  13.680   2.712
51374W        W16634   5.435   0.064   0.459
51375W        W16635  34.591  44.946   0.852
51376W        W16636  35.124  24.101  14.415
51377W        W16637   8.996  11.817   4.548
51378W        W16638  23.617  10.567   4.247
51379W        W16639  22.680  42.390  14.506
51380W        W16640   5.115   1.171   2.739
51381W        W16641  11.347  20.653  14.912
51382W        W16642  17.884  30.973   4.364
51383W        W16643  24.974  43.897  12.195
51384W        W16644   2.319  42.524   2.259
51385W        W16645   7.596  27.440   1.419
51386W        W16646  39.266  22.722   2.820
51387W        W16647   1.156   1.884   4.525
51388W        W16648  26.143  18.540  13.951
51389W        W16649  17.107  23.133   1.411
51390W        W16650  42.376  30.513  11.148
51391W        W16651  44.703   6.047  13.055
51392W        W16652  20.073  40.800   2.622
51393W        W16653  34.148  41.866  14.350
51394W        W16654  42.938  24.299  11.592
51395W        W16655  32.967  44.557  14.032
51396W        W16656   7.500  41.825   4.363
51397W        W16657   3.301   4.401   2.902
51398W        W16658   4.220  22.245  11.567
51399W        W16659  38.527  19.050  10.556
51400W        W16660   3.428  14.282  11.436
51401W        W16661  21.470  43.986  10.679
51402W        W16662  10.250  24.911   1.921
51403W        W16663  25.385  24.469  13.500
51404W        W16664  43.351  37.617  10.713
51405W        W16665  19.490   6.893  11.535
51406W        W16666  17.618  24.449  10.795
51407W        W16667  27.240  24.937   1.767
51408W        W16668  36.365  44.714  12.534
51409W        W16669   4.961  38.091  11.239
51410W        W16670  10.193  25.572   1.291
51411W        W16671  32.721   3.843  13.173
51412W        W16672  21.342  30.639   0.724
51413W        W16673  13.253  43.633  13.015
51414W        W16674  26.578   5.455   0.309
51415W        W16675   1.203  40.927  12.889
51416W        W16676  33.651   3.550   1.278
51417W        W16677  10.815  16.170   3.198
51418W        W16678  28.995  12.180  12.088
51419W        W16679  11.786  33.050   2.926
51420W        W16680   0.920  31.049   2.544
51421W        W16681   0.347  43.990  13.199
51422W        W16682  34.588  38.836  13.081
51423W        W16683  18.061  16.905   0.527
51424W        W16684  32.015  18.699   1.414
51425W        W16685  35.474   4.312   0.742
51426W        W16686   4.423  41.398  11.283
51427W        W16687   1.886  34.457   2.574
51428W        W16688  30.299   7.582   2.904
51429W        W16689  26.128  34.172  12.139
51430W        W16690  42.415  31.380  14.000
51431W        W16691  31.678  24.482  12.015
51432W        W16692   5.222  23.264   2.243
51433W        W16693  26.272  20.740   0.304
51434W        W16694   8.273   1.472  13.496
51435W        W16695   4.749  23.625   4.508
51436W        W16696  38.358   5.123   2.812
51437W        W16697  28.607  21.306  11.571
51438W        W16698  33.926   9.228  14.613
51439W        W16699  20.079  26.889   3.704
51440W        W16700   5.378   6.665   1.824
51441W        W16701  17.837  34.478  10.623
51442W        W16702   9.364  41.253   9.994
51443W        W16703  31.409   1.969  12.675
51444W        W16704  14.169  44.718  14.736
51445W        W16705  21.222  26.323   5.083
51446W        W16706  13.620   9.348  12.623
51447W        W16707  29.474  42.221  13.872
51448W        W16708  16.606  11.062   1.281
51449W        W16709  30.760  29.210   4.121
51450W        W16710   8.353  15.227  13.918
51451W        W16711  39.256   0.737  14.414
51452W        W16712   2.300  29.141  10.738
51453W        W16713  35.869  34.618   1.947
51454W        W16714  41.710  30.666  12.458
51455W        W16715  29.938  13.325   4.311
51456W        W16716  17.531  22.788   0.506
51457W        W16717  33.908  30.335  12.483
51458W        W16718  29.977  25.485   3.801
51459W        W16719  22.824  44.472  12.587
51460W        W16720  21.656  16.324  12.943
51461W        W16721  24.076  40.043  10.207
51462W        W16722  19.213  23.557  13.320
51463W        W16723   2.817   3.676   3.104
51464W        W16724  42.368  12.793   1.685
51465W        W16725  14.985  22.976   0.879
51466W        W16726  17.666  40.492   4.610
51467W        W16727   6.628  28.011   2.744
51468W        W16728  44.540  26.084   3.796
51469W        W16729  34.249  17.231  11.054
51470W        W16730  17.156  21.495  11.162
51471W        W16731  42.922   0.052   0.381
51472W        W16732  31.695  36.039   1.859
51473W        W16733  33.849  33.908   3.882
51474W        W16734   5.695   5.698   0.254
51475W        W16735  42.773  22.078  13.079
51476W        W16736  12.674  10.331  11.083
51477W        W16737  11.774  23.133  10.630
51478W        W16738  41.854  27.886  12.627
51479W        W16739  38.093   6.800  13.359
51480W        W16740   0.980  43.378  10.593
51481W        W16741   7.762  18.250   4.166
51482W        W16742  34.940  10.834   1.432
51483W        W16743  32.700  29.046  10.679
51484W        W16744  19.482  16.287   1.455
51485W        W16745  14.841  25.419  10.317
51486W        W16746   3.486  23.799  14.247
51487W        W16747  42.738  30.618   4.685
51488W        W16748  31.035  31.614   5.034
51489W        W16749  39.641  20.230   1.596
51490W        W16750  22.358   3.001   5.291
51491W        W16751  33.532  41.989   4.640
51492W        W16752  18.708  20.254  13.315
51493W        W16753  37.512  30.559   9.768
51494W        W16754  15.127  11.144   1.425
51495W        W16755  17.247  21.379   4.452
51496W        W16756  33.342  20.592  11.181
51497W        W16757  11.439  19.718  14.317
51498W        W16758  21.607  32.124  12.624
51499W        W16759   8.165  15.507  11.526
51500W        W16760  31.206  19.088   1.556
51501W        W16761  40.260  30.014  13.031
51502W        W16762  38.513   3.211   4.029
51503W        W16763   5.457  11.295   2.783
51504W        W16764  20.971  44.858   0.426
51505W        W16765  28.566  11.393  14.017
51506W        W16766  14.757   6.845  11.529
51507W        W16767  33.449  38.700   1.729
51508W        W16768  15.287  23.792  11.569
51509W        W16769   7.146  27.981  11.185
51510W        W16770  32.480  32.312   3.726
51511W        W16771  34.335  20.632  11.648
51512W        W16772  40.854  31.425   4.555
51513W        W16773  42.539  23.214  12.606
51514W        W16774  21.165  43.842  11.851
51515W        W16775  17.157  14.573  12.013
51516W        W16776  40.229   5.734   1.523
51517W        W16777  14.927  38.584  11.185
51518W        W16778  25.964  13.858  12.928
51519W        W16779  28.482  28.162   0.391
51520W        W16780   0.206  18.560  11.587
51521W        W16781  21.710  24.953  14.782
51522W        W16782  11.033  41.160   0.269
51523W        W16783  23.212  34.361  10.715
51524W        W16784  12.695  20.938  11.187
51525W        W16785  14.327   6.929  13.978
51526W        W16786  35.979  29.668   2.742
51527W        W16787  38.261   5.903  11.301
51528W        W16788  40.039   8.710   1.346
51529W        W16789  37.443  17.744  13.064
51530W        W16790  23.177  26.491   3.647
51531W        W16791   9.625  11.323  13.289
51532W        W16792  28.345  22.480   3.697
51533W        W16793  37.577  34.071  12.997
51534W        W16794  40.321  29.680   2.395
51535W        W16795   9.184  21.810  13.968
51536W        W16796  12.210  34.787  14.153
51537W        W16797   0.477  21.632   1.161
51538W        W16798  16.355  26.733  12.473
51539W        W16799  20.130  23.625  13.917
51540W        W16800  30.868  13.015  13.470
51541W        W16801  29.496  25.311   9.613
51542W        W16802  28.702   0.351   0.791
51543W        W16803   9.691  36.036   1.346
51544W        W16804  14.268   3.809  12.248
51545W        W16805   1.207  40.889  14.399
51546W        W16806  29.759  33.580   2.076
51547W        W16807  18.155  37.540   4.773
51548W        W16808  44.065   6.831   0.841
51549W        W16809  22.990  27.508   2.274
51550W        W16810  12.880  26.479   2.212
51551W        W16811  42.627   2.858  11.924
51552W        W16812  24.595  11.590  12.142
51553W        W16813  40.023  14.937  12.497
51554W        W16814   7.094   9.652  14.723
51555W        W16815  30.166   1.931  12.025
51556W        W16816  21.280  41.416  13.450
51557W        W16817  12.823  27.769   2.817
51558W        W16818   4.298  24.524   0.827
51559W        W16819  29.539  13.771  14.741
51560W        W16820  25.711   9.562  13.566
51561W        W16821  30.953  18.179   3.174
51562W        W16822  19.633  27.467  10.893
51563W        W16823  16.969  28.123  14.139
51564W        W16824  18.714  37.908  12.141
51565W        W16825  32.019  42.729   2.637
51566W        W16826  11.258  15.876   1.303
51567W        W16827   2.703  14.206  12.160
51568W        W16828  39.391  31.091  14.502
51569W        W16829   1.309  14.933  11.412
51570W        W16830  24.539   7.758   4.390
51571W        W16831  42.444  44.794   3.401
51572W        W16832  19.155  16.627  12.416
51573W        W16833  33.445  27.596   1.715
51574W        W16834   9.138  40.002   0.875
51575W        W16835  41.100  43.010   2.839
51576W        W16836  35.990  26.993   5.427
51577W        W16837  26.964  44.578   1.485
51578W        W16838  16.224  11.466  12.891
51579W        W16839   2.705  10.347  11.641
51580W        W16840  30.364  26.397   0.193
51581W        W16841   8.398   5.364  10.485
51582W        W16842   9.443  39.906  14.891
51583W        W16843   4.262  13.838  11.190
51584W        W16844   8.808   7.448   2.704
51585W        W16845  33.591  12.691  12.542
51586W        W16846  24.955  42.387  12.088
51587W        W16847  44.026  36.478   1.263
51588W        W16848  24.155   0.133  13.069
51589W        W16849  18.072  27.105   3.341
51590W        W16850   4.179  12.302   3.301
51591W        W16851   8.208  44.765  10.588
51592W        W16852  35.141  23.970   2.364
51593W        W16853   0.229   2.012   2.764
51594W        W16854  26.036   9.431  14.586
51595W        W16855  27.423  14.246  10.689
51596W        W16856  37.098  25.716  14.736
51597W        W16857  33.909  39.452  14.204
51598W        W16858  25.466  16.220  13.373
51599W        W16859  11.158   3.737  10.765
51600W        W16860   1.305  13.791   4.427
51601W        W16861   3.890   8.684  12.406
51602W        W16862  37.032  23.293   1.231
51603W        W16863  31.592   7.669  11.400
51604W        W16864  20.067  35.843   2.256
51605W        W16865  30.701  18.792   0.340
51606W        W16866  44.512  33.491  12.094
51607W        W16867  44.820  37.533   5.124
51608W        W16868   5.852   1.883  10.461
51609W        W16869  18.263  33.501   4.542
51610W        W16870  17.217  30.596   2.244
51611W        W16871  18.300  40.885  12.703
51612W        W16872  18.090  18.118   5.418
51613W        W16873   4.601  24.489   0.360
51614W        W16874  39.332  19.300   1.648
51615W        W16875  42.875  28.085  13.027
51616W        W16876  44.488   8.312   1.595
51617W        W16877  27.108  10.314   0.509
51618W        W16878  44.978  16.251   2.208
51619W        W16879  40.353  11.879  14.468
51620W        W16880  11.798  25.272  11.648
51621W        W16881  28.945  30.018   3.233
51622W        W16882   9.721   2.454   4.471
51623W        W16883  28.549   4.738  10.886
51624W        W16884   5.778   4.633   4.787
51625W        W16885  31.382   0.576  13.398
51626W        W16886  42.574  10.641   3.218
51627W        W16887  31.099  32.451   3.089
51628W        W16888  28.583  14.646  10.856
51629W        W16889  11.115  28.701  10.682
51630W        W16890  29.773   2.167   2.326
51631W        W16891  39.089  25.953   1.235
51632W        W16892  21.596  44.207  11.168
51633W        W16893  20.197  17.184  11.399
51634W        W16894  19.018   5.145   4.786
51635W        W16895  29.576  13.592   2.225
51636W        W16896  39.056   5.341  12.832
51637W        W16897  29.349  21.593   0.491
51638W        W16898  35.530   7.650  10.653
51639W        W16899  37.391   4.697  11.100
51640W        W16900  34.949   1.264  11.954
51641W        W16901  14.649  33.808   2.150
51642W        W16902  19.551   9.344  13.965
51643W        W16903  30.189   5.675   3.889
51644W        W16904  21.354   8.246   3.252
51645W        W16905  44.104  26.154   4.586
51646W        W16906  24.661  25.912  12.415
51647W        W16907  14.118  33.358   0.167
51648W        W16908   0.096  42.936   2.831
51649W        W16909   3.452  34.425  10.633
51650W        W16910  22.565  28.090  13.472
51651W        W16911  19.735  11.049  14.974
51652W        W16912  41.178  29.543   0.923
51653W        W16913   3.709   4.100   3.048
51654W        W16914  11.788  43.272  10.482
51655W        W16915  29.064  25.212   3.851
51656W        W16916  10.410  14.017  14.027
51657W        W16917  22.270   9.404  11.121
51658W        W16918  44.926  27.092   1.927
51659W        W16919  33.807  10.276  13.811
51660W        W16920   3.732  44.818   1.630
51661W        W16921  10.385   3.232  10.319
51662W        W16922  34.137   2.796   2.783
51663W        W16923  16.655  25.995   3.209
51664W        W16924   9.635  21.021   0.578
51665W        W16925   6.303  30.649   4.732
51666W        W16926  30.448  10.408  11.126
51667W        W16927  36.438   9.320  13.835
51668W        W16928  15.540  16.248   0.776
51669W        W16929  38.154   1.976  11.099
51670W        W16930  33.211  24.220  13.161
51671W        W16931  38.910  43.964   2.150
51672W        W16932  10.501   3.088  10.898
51673W        W16933  43.527  31.258  10.600
51674W        W16934  23.664   3.352  14.740
51675W        W16935  26.159  30.930  11.246
51676W        W16936  34.940  10.856  12.940
51677W        W16937  36.789  23.841  11.602
51678W        W16938  18.287  37.994  14.073
51679W        W16939  26.155  38.959  10.751
51680W        W16940  39.469  36.590   2.360
51681W        W16941   6.999  24.616  13.801
51682W        W16942  28.409  12.768   4.312
51683W        W16943  43.050  40.017  11.856
51684W        W16944  17.291  37.812   4.526
51685W        W16945  40.354  37.468  14.884
51686W        W16946  16.052  23.959  12.069
51687W        W16947  35.761  41.917   2.306
51688W        W16948  20.120  38.262  10.619
51689W        W16949  29.209  13.596   2.623
51690W        W16950  24.071  26.464  10.777
51691W        W16951   5.745  41.842   0.251
51692W        W16952  20.031  11.789  13.085
51693W        W16953   2.426  35.038   2.350
51694W        W16954   6.426   4.116  13.980
51695W        W16955  37.152  21.362   4.270
51696W        W16956  17.737   2.611  13.436
51697W        W16957  17.217  18.365   1.225
51698W        W16958  34.417  30.455  14.565
51699W        W16959  32.383  12.807  14.813
51700W        W16960   4.514  38.954  13.342
51701W        W16961   6.390  44.009  14.281
51702W        W16962  15.773  25.939   1.121
51703W        W16963  42.376   9.444   1.166
51704W        W16964  14.208  22.982  11.965
51705W        W16965  30.901  25.896  12.050
51706W        W16966   1.170  16.577   3.757
51707W        W16967  10.818   3.322   1.860
51708W        W16968  28.914  44.605  11.179
51709W        W16969  28.018  33.857   2.636
51710W        W16970  17.413  30.449  13.893
51711W        W16971  17.242   6.120  14.130
51712W        W16972  35.972   7.671   4.768
51713W        W16973  13.823  44.385  14.954
51714W        W16974  21.469  20.265   1.327
51715W        W16975   3.387  37.474   5.127
51716W        W16976  30.925  14.065   3.788
51717W        W16977  26.478  19.808  12.920
51718W        W16978  10.109  10.169  11.568
51719W        W16979  32.811   3.070   0.653
51720W        W16980  24.789  20.258   2.172
51721W        W16981  41.056  31.209   1.896
51722W        W16982  37.523  22.973   1.894
51723W        W16983   7.166  13.776  10.699
51724W        W16984  13.714  11.327   2.424
51725W        W16985   8.722  38.102  14.983
51726W        W16986  22.341  21.121  14.779
51727W        W16987  26.204  39.035  13.125
51728W        W16988  29.530  11.279   3.857
51729W        W16989   5.181  25.739  11.337
51730W        W16990  26.865  22.374  12.914
51731W        W16991   1.483  24.106   3.157
51732W        W16992  11.237  38.038   0.879
51733W        W16993  31.254  34.710   0.789
51734W        W16994  10.836  25.980   3.040
51735W        W16995  28.764  26.909  13.108
51736W        W16996  42.886   5.799  13.019
51737W        W16997  43.299  43.045  12.238
51738W        W16998  14.510  38.574  12.166
51739W        W16999  34.598  16.280  13.835
51740W        W17000   3.916  22.561  14.375
51741W        W17001  15.033  37.571   3.331
51742W        W17002  34.759  23.227   9.938
51743W        W17003  30.892  35.794   2.261
51744W        W17004  17.724  22.747   0.989
51745W        W17005  24.530  20.214  13.909
51746W        W17006  27.963  42.869   9.787
51747W        W17007  23.049   3.890   0.708
51748W        W17008  16.746  35.035  13.011
51749W        W17009  44.167  43.283  12.956
51750W        W17010   6.787  10.672   1.389
51751W        W17011  16.042  31.940   2.261
51752W        W17012  36.816  14.332   1.911
51753W        W17013  29.103   6.349  11.081
51754W        W17014  30.654   6.956   2.174
51755W        W17015  11.884  16.533   2.223
51756W        W17016  31.859  36.339   0.630
51757W        W17017  37.119  14.533  11.474
51758W        W17018  31.419  33.290  12.577
51759W        W17019  22.234   3.939   0.246
51760W        W17020  26.744  13.161   5.000
51761W        W17021   5.011  27.997   0.829
51762W        W17022  12.681   5.740  12.357
51763W        W17023  25.692  13.356   0.987
51764W        W17024  19.818  41.022  13.916
51765W        W17025  25.259  29.188   3.113
51766W        W17026   4.388  20.365  11.731
51767W        W17027  20.656  39.239  11.993
51768W        W17028  15.791  22.564   1.362
51769W        W17029  39.844  23.168  12.113
51770W        W17030  41.046  14.709  11.659
51771W        W17031  10.415   0.252  10.696
51772W        W17032  41.352  30.857  10.689
51773W        W17033  42.424  27.953   4.435
51774W        W17034  38.213  19.541   1.306
51775W        W17035  24.954  27.863  11.183
51776W        W17036  37.361  31.418  14.721
51777W        W17037   8.793  44.562   3.624
51778W        W17038  21.735  26.990   1.755
51779W        W17039  27.131  44.806  14.013
51780W        W17040  31.571   6.278  12.983
51781W        W17041   7.264  17.061  12.091
51782W        W17042   8.777  11.690  13.314
51783W        W17043  33.580  33.443  14.893
51784W        W17044  27.681  15.565  10.522
51785W        W17045   9.940  40.995   4.351
51786W        W17046  24.301   2.349   5.059
51787W        W17047   5.778  16.561   3.631
51788W        W17048  32.205  26.495   0.249
51789W        W17049  21.687  13.119   2.526
51790W        W17050   9.360  27.021   0.296
51791W        W17051  41.523  12.960   0.311
51792W        W17052  31.548  38.558  13.757
51793W        W17053  14.930   0.700  14.468
51794W        W17054   1.937   7.270   1.898
51795W        W17055   3.157  16.111   4.407
51796W        W17056   7.118   0.982  12.007
51797W        W17057  22.182  29.695   3.630
51798W        W17058  10.596   0.549  11.973
51799W        W17059  20.306  21.177  10.980
51800W        W17060  17.837  29.055   3.576
51801W        W17061  10.299  25.219   2.345
51802W        W17062  20.002  22.822   0.746
51803W        W17063  43.170  19.751  10.300
51804W        W17064  36.632   0.987  12.135
51805W        W17065  14.709  18.660  12.053
51806W        W17066   3.854  11.396  12.862
51807W        W17067  39.307  34.252   2.796
51808W        W17068  11.948  17.577   4.500
51809W        W17069  13.007  39.908   2.367
51810W        W17070   7.333   4.972  12.121
51811W        W17071   1.415  16.889   2.779
51812W        W17072   2.445  17.265  10.734
51813W        W17073  23.815  37.039   1.973
51814W        W17074  34.810   3.453  11.660
51815W        W17075  26.250  36.308  13.295
51816W        W17076  39.361  44.271   0.399
51817W        W17077  12.496  36.351   3.682
51818W        W17078  11.929   9.786  11.248
51819W        W17079   8.699   3.225   3.369
51820W        W17080  29.634  16.186  10.478
51821W        W17081  16.536  16.389  14.024
51822W        W17082  41.410  24.745  11.484
51823W        W17083  39.826  12.282  11.764
51824W        W17084  27.165   5.448   0.958
51825W        W17085  33.069  22.277  14.421
51826W        W17086  20.952   1.787  14.070
51827W        W17087  39.876   3.272   4.595
51828W        W17088  41.508  42.970  14.816
51829W        W17089  28.743  42.521  11.512
51830W        W17090  23.067  33.388  10.658
51831W        W17091  42.826   0.218  14.898
51832W        W17092  38.594  23.914  11.952
51833W        W17093   3.248   8.372   1.636
51834W        W17094  42.272   4.725   2.624
51835W        W17095  26.458  14.589  11.245
51836W        W17096  35.194  36.878   3.684
51837W        W17097   7.494  42.023   0.292
51838W        W17098  10.986   0.452   3.319
51839W        W17099   0.700  15.919  11.007
51840W        W17100  26.107  23.003  11.209
51841W        W17101   3.205  30.379  11.464
51842W        W17102   0.901  22.801   3.734
51843W        W17103  40.980  40.126   4.179
51844W        W17104  16.943  30.417  11.957
51845W        W17105  21.059  32.367   3.732
51846W        W17106  21.574   6.171  13.956
51847W        W17107  39.690  32.104   5.252
51848W        W17108  12.714  37.453   2.228
51849W        W17109  33.197   9.817   3.526
51850W        W17110   1.701  40.517   4.443
51851W        W17111  41.920  14.548   2.897
51852W        W17112  28.768  38.965   4.936
51853W        W17113  34.153  33.450   1.149
51854W        W17114  11.713  12.293  14.799
51855W        W17115  10.666  18.762  11.704
51856W        W17116  11.015  37.249   4.511
51857W        W17117  10.237   5.362  14.987
51858W        W17118   2.743  41.164   0.494
51859W        W17119  23.949  37.453  13.294
51860W        W17120  14.795  14.279   0.583
51861W        W17121  12.814   6.487   1.758
51862W        W17122  20.112  43.600  14.065
51863W        W17123  25.397  19.960   3.771
51864W        W17124  39.987  16.284   4.258
51865W        W17125  26.990  15.595   4.960
51866W        W17126  28.622  38.996  12.888
51867W        W17127  26.076   4.711   3.124
51868W        W17128  10.369  18.060  11.477
51869W        W17129   1.312  37.280  14.967
51870W        W17130  42.576  15.968  11.217
51871W        W17131  14.631   6.364   1.939
51872W        W17132  17.276  21.820   0.849
51873W        W17133  31.433  43.457  12.520
51874W        W17134  13.250   3.972   3.198
51875W        W17135  10.110  41.306   1.932
51876W        W17136  18.117   4.002   2.882
51877W        W17137   6.479  20.638  13.141
51878W        W17138  33.866   8.288   1.829
51879W        W17139  32.586  11.167  13.517
51880W        W17140  24.713  11.222   1.481
51881W        W17141  30.998  11.300   0.778
51882W        W17142  22.004  22.251  12.117
51883W        W17143  34.909  11.761  13.296
51884W        W17144  41.891  18.134   2.735
51885W        W17145  36.405  30.639  13.098
51886W        W17146  12.276  23.712   3.597
51887W        W17147  39.028   9.218  11.033
51888W        W17148  13.451   0.507  12.049
51889W        W17149  40.841  28.151  13.390
51890W        W17150  25.030  18.621   2.181
51891W        W17151  39.427   8.697   1.957
51892W        W17152  16.269  21.142   1.321
51893W        W17153  36.537  25.159  13.929
51894W        W17154  12.830  25.752   1.674
51895W        W17155  21.404  35.050  11.080
51896W        W17156  11.716  19.343   0.892
51897W        W17157  35.094  26.397  11.200
51898W        W17158  38.935  20.293  11.968
51899W        W17159  39.946  23.030   0.944
51900W        W17160  21.550  38.935   0.265
51901W        W17161   4.128  20.631   3.608
51902W        W17162  42.568  15.570  14.497
51903W        W17163  17.238  19.888   0.182
51904W        W17164  30.935  41.047  14.330
51905W        W17165  13.679  10.758  13.328
51906W        W17166  20.263  40.992   4.135
51907W        W17167  37.490   5.093  12.043
51908W        W17168  30.501  27.065   2.395
51909W        W17169  21.067   2.729  14.918
51910W        W17170   9.830   9.081   3.109
51911W        W17171   3.431  40.154   3.675
51912W        W17172   7.625  14.828   1.505
51913W        W17173   3.642  30.970  14.928
51914W        W17174  20.900  14.616  12.116
51915W        W17175  31.896  38.825   3.243
51916W        W17176  11.848   9.327  12.953
51917W        W17177  41.029   9.929  11.965
51918W        W17178  37.317  26.376   3.690
51919W        W17179  41.864  42.408  11.163
51920W        W17180  21.097   0.788  12.365
51921W        W17181  34.426  23.787  12.567
51922W        W17182  41.835  40.099  12.111
51923W        W17183   1.976  11.317  13.010
51924W        W17184  10.815  12.260   4.194
51925W        W17185  30.900   2.933   3.326
51926W        W17186  19.165  16.685  10.603
51927W        W17187  26.678  41.918  14.418
51928W        W17188  26.417   9.335  12.973
51929W        W17189   3.986  36.805   0.554
51930W        W17190  11.901  20.119  13.030
51931W        W17191  24.304  10.964   0.786
51932W        W17192   4.363  34.070   3.096
51933W        W17193   8.243  22.514   3.200
51934W        W17194  10.756  43.544  12.167
51935W        W17195  35.369  28.460  12.165
51936W        W17196  24.551  31.193  14.914
51937W        W17197  42.316  35.072   1.281
51938W        W17198  25.261   6.727   0.569
51939W        W17199   7.107   3.823   0.366
51940W        W17200  38.239  31.067  13.148
51941W        W17201  11.141  25.682   1.840
51942W        W17202  38.898  21.153   0.691
51943W        W17203  22.085  43.485  13.035
51944W        W17204   0.354  13.750   2.753
51945W        W17205   9.682  11.967   4.580
51946W        W17206   2.594  19.676   9.834
51947W        W17207   0.013  40.507  12.644
51948W        W17208  18.650  29.143  11.282
51949W        W17209   7.118  31.790  14.946
51950W        W17210  43.400  18.546  10.652
51951W        W17211   6.392  34.625   2.367
51952W        W17212   2.287  10.958  10.518
51953W        W17213  44.677  17.265  13.045
51954W        W17214  26.959  40.848   4.000
51955W        W17215  40.283  36.131  11.624
51956W        W17216  43.513  27.562  10.904
51957W        W17217   1.657  31.130  12.891
51958W        W17218  40.551  36.467  13.650
51959W        W17219  16.912  34.358  10.645
51960W        W17220  44.955   0.727  12.315
51961W        W17221  28.117  23.433  13.187
51962W        W17222   9.219  34.887  14.512
51963W        W17223  24.348  39.101   4.563
51964W        W17224  10.206  13.124   4.315
51965W        W17225  37.185  42.399  14.401
51966W        W17226   6.372  29.118   9.884
51967W        W17227  12.489   3.728  10.248
51968W        W17228   6.327  43.240  13.633
51969W        W17229  19.937  38.074   4.201
51970W        W17230  43.836  32.075  12.386
51971W        W17231   9.384  25.962  11.125
51972W        W17232   1.694  31.325  10.683
51973W        W17233  13.818  29.031   1.841
51974W        W17234  18.672  20.126  14.253
51975W        W17235  24.657   8.194  14.586
51976W        W17236   1.053  16.585  13.360
51977W        W17237  43.679  37.232   4.966
51978W        W17238  19.331  18.995  10.437
51979W        W17239  29.240  13.221  11.492
51980W        W17240  10.864   3.188   9.970
51981W        W17241   4.901  24.002   1.188
51982W        W17242   2.192  23.000  13.513
51983W        W17243  13.241  24.615   3.146
51984W        W17244   6.195  11.872   1.490
51985W        W17245  27.201   3.286  10.846
51986W        W17246  35.120  14.032  13.606
51987W        W17247  13.362  38.923   4.139
51988W        W17248  29.192  10.321  14.367
51989W        W17249  15.128  34.616   4.179
51990W        W17250   3.427  40.079  11.030
51991W        W17251  28.690  35.106  13.618
51992W        W17252  12.859  13.089   1.496
51993W        W17253  17.186  36.962   2.621
51994W        W17254  41.789  29.596   3.422
51995W        W17255  31.933   4.761   4.135
51996W        W17256  18.247  35.672  13.463
51997W        W17257   8.700  23.615   1.346
51998W        W17258   2.036  39.838   1.928
51999W        W17259  19.865  28.375   0.476
52000W        W17260   0.322  36.089   2.451
52001W        W17261   8.326   7.189  10.331
52002W        W17262  43.402  11.802   1.306
52003W        W17263  10.606  33.149  12.966
52004W        W17264  11.729  42.453   3.636
52005W        W17265  25.094   0.055  14.962
52006W        W17266  26.385  22.483   1.983
52007W        W17267  35.582  13.684  13.523
52008W        W17268  20.239  38.921   3.523
52009W        W17269  41.830  26.194  12.396
52010W        W17270  21.717   6.979  12.574
52011W        W17271   2.335  19.806  14.326
52012W        W17272   5.253  33.410  14.015
52013W        W17273  23.920   3.179   5.028
52014W        W17274  17.076  34.989  14.829
52015W        W17275   2.210   4.926  14.409
52016W        W17276  12.626   6.817  14.370
52017W        W17277  44.232  34.002  11.397
52018W        W17278  26.983  18.995   0.219
52019W        W17279  43.336  16.802   3.111
52020W        W17280   1.893  30.553   4.452
52021W        W17281  28.999   8.613   1.877
52022W        W17282  39.011   8.266  14.189
52023W        W17283  25.883  12.976  11.183
52024W        W17284  32.181  30.143  13.008
52025W        W17285  44.008  18.682  12.382
52026W        W17286   8.894  36.538  12.576
52027W        W17287  20.697  36.278   3.246
52028W        W17288  35.990  12.285   2.758
52029W        W17289  41.715  26.649   0.342
52030W        W17290  26.445   0.963   2.890
52031W        W17291  13.624  37.057   4.224
52032W        W17292  13.549   6.168   0.183
52033W        W17293  18.937   7.690  13.800
52034W        W17294  31.071  13.502  10.258
52035W        W17295  35.001  13.527  12.833
52036W        W17296  39.045  29.842   0.832
52037W        W17297  28.081  34.176   3.811
52038W        W17298   0.451  21.646   4.532
52039W        W17299  34.381   7.193  14.842
52040W        W17300  10.243  14.599  10.131
52041W        W17301  32.282   1.563  11.651
52042W        W17302  35.846  13.079  12.572
52043W        W17303  18.500  43.436   3.382
52044W        W17304   0.614  37.975   1.601
52045W        W17305  29.719   1.690  13.100
52046W        W17306  36.510   2.796   4.305
52047W        W17307  39.860  27.581   4.694
52048W        W17308  44.244  24.759   4.578
52049W        W17309  42.693   1.835   3.307
52050W        W17310  42.533  29.031   4.082
52051W        W17311  44.311   1.669   0.063
52052W        W17312  43.920  31.969   0.010
52053W        W17313  30.576  39.143  12.131
52054W        W17314  41.900   1.659  11.091
52055W        W17315   6.680  24.180   3.705
52056W        W17316  19.534  31.153  14.440
52057W        W17317  30.961   8.435  13.987
52058W        W17318  30.664  17.566  12.000
52059W        W17319  35.359  44.320  14.422
52060W        W17320   0.809   9.307   1.840
52061W        W17321  43.206  31.871   0.492
52062W        W17322  12.143  38.608  11.915
52063W        W17323  39.721   3.752   2.626
52064W        W17324   8.918  28.058  12.935
52065W        W17325  31.563  43.073   1.861
52066W        W17326   6.139  24.671   4.580
52067W        W17327  23.403   6.411   0.932
52068W        W17328  27.947  44.532  10.286
52069W        W17329  29.601  38.479   3.111
52070W        W17330  43.322  39.615  13.947
52071W        W17331  20.041   2.779  12.517
52072W        W17332  11.678   3.735  13.879
52073W        W17333   6.944  34.415  13.815
52074W        W17334   5.654  34.205   2.861
52075W        W17335  42.716  19.155  12.247
52076W        W17336  20.035  23.142  14.083
52077W        W17337  22.848  42.054  10.659
52078W        W17338  23.162  34.182   1.187
52079W        W17339   1.146  32.872   1.309
52080W        W17340  11.120  31.952  13.994
52081W        W17341  26.724  37.887   1.776
52082W        W17342   6.272   2.002   0.056
52083W        W17343  41.899  39.715   0.868
52084W        W17344   0.117  36.848   3.697
52085W        W17345  26.990  17.217   3.679
52086W        W17346  26.511  22.611  12.608
52087W        W17347  44.890  34.589  12.453
52088W        W17348  21.601   2.745  14.935
52089W        W17349  15.171  20.200  11.551
52090W        W17350   6.234   5.348   1.417
52091W        W17351  34.568  30.923   2.103
52092W        W17352   4.019   2.394   2.759
52093W        W17353   5.743  33.634  14.047
52094W        W17354  29.456  43.323  11.129
52095W        W17355   1.849   0.870  13.162
52096W        W17356  16.328  12.542  13.808
52097W        W17357  42.708  39.828  10.444
52098W        W17358  39.438  21.263   1.903
52099W        W17359  35.489  24.591   9.836
52100W        W17360   9.709  20.638   3.645
52101W        W17361  18.069  37.518  10.615
52102W        W17362  24.495  25.236   0.449
52103W        W17363  19.653  27.489   0.322
52104W        W17364  10.907   4.299   4.591
52105W        W17365  29.706  26.191  13.835
52106W        W17366  39.526  12.830   0.437
52107W        W17367  10.836  16.262   4.056
52108W        W17368   2.698  16.322  14.010
52109W        W17369   4.517  12.696   3.185
52110W        W17370  39.857  17.744   0.508
52111W        W17371  30.542  30.955  13.554
52112W        W17372   3.191  44.712   4.383
52113W        W17373   2.301  32.151   2.941
52114W        W17374  18.352   9.434   2.756
52115W        W17375  42.403  42.501  11.443
52116W        W17376   2.335   8.450  11.585
52117W        W17377   0.193  34.890  12.133
52118W        W17378  32.082   2.875   2.921
52119W        W17379  35.036  18.732   0.298
52120W        W17380   1.036  13.621   3.209
52121W        W17381   8.160  29.438   4.209
52122W        W17382  23.156  35.500  13.922
52123W        W17383  31.289  23.631   5.130
52124W        W17384   3.764  10.199  12.186
52125W        W17385  26.118   4.321   3.499
52126W        W17386  12.074   9.497  10.174
52127W        W17387   2.983  29.668   4.106
52128W        W17388  25.008  23.652  14.452
52129W        W17389  10.344  44.195   4.775
52130W        W17390   9.882  21.639  11.058
52131W        W17391  33.380  38.313  12.971
52132W        W17392   1.753   1.015   1.389
52133W        W17393  24.229   3.885   3.665
52134W        W17394  25.108  16.191  12.541
52135W        W17395  16.123   1.083  10.385
52136W        W17396  20.738  11.349  13.894
52137W        W17397  42.935  21.075  14.428
52138W        W17398  17.908  34.892   3.276
52139W        W17399  26.964  15.067   1.833
52140W        W17400  17.478  17.530   5.008
52141W        W17401  18.334  36.131   0.705
52142W        W17402  25.960  27.506   2.156
52143W        W17403  25.184  13.660   3.716
52144W        W17404  18.543  28.414  14.799
52145W        W17405  25.125   8.695  10.718
52146W        W17406   7.342  34.949   0.305
52147W        W17407  27.598  25.997   2.470
52148W        W17408  21.014  22.175  10.742
52149W        W17409  29.516  42.087   4.109
52150W        W17410  29.453  41.448  14.900
52151W        W17411  17.675  34.981   3.726
52152W        W17412  20.841  17.959  11.150
52153W        W17413   1.223  12.931  14.100
52154W        W17414   2.532  21.783  14.444
52155W        W17415  38.051  13.454  12.359
52156W        W17416  40.388  34.337  10.749
52157W        W17417  31.214  18.760   2.108
52158W        W17418  43.703   8.747   0.711
52159W        W17419  34.002  20.595  12.383
52160W        W17420  11.636   1.968  11.313
52161W        W17421  13.848   1.016  11.122
52162W        W17422   3.654  32.475   0.946
52163W        W17423  42.892   5.190  13.845
52164W        W17424  42.500  13.890   4.926
52165W        W17425   5.022   6.180   3.639
52166W        W17426   5.398  43.469  14.773
52167W        W17427   2.893  43.526  13.724
52168W        W17428  23.640  13.834   2.295
52169W        W17429  10.810  41.111  12.367
52170W        W17430  33.733  25.024   3.392
52171W        W17431  13.623   2.549  12.609
52172W        W17432  40.013  19.951   0.670
52173W        W17433  20.386  26.599   4.057
52174W        W17434  30.297   4.436  13.967
52175W        W17435  42.495   3.292  10.629
52176W        W17436  32.877  23.506  13.325
52177W        W17437  27.708  39.882  12.479
52178W        W17438  40.052  43.724   1.458
52179W        W17439  18.178  24.792   0.866
52180W        W17440  13.109  18.587   2.954
52181W        W17441  32.919  34.057  12.421
52182W        W17442  43.066  30.484   1.014
52183W        W17443  23.793   5.946   5.387
52184W        W17444  30.028   5.170   1.622
52185W        W17445  14.084  19.788  11.052
52186W        W17446   5.732  40.538  12.622
52187W        W17447  28.890  23.924   2.281
52188W        W17448   2.451  40.078  10.838
52189W        W17449  20.520   5.378   9.827
52190W        W17450  25.026   8.804   1.425
52191W        W17451   2.283  11.415  11.938
52192W        W17452  32.080   8.738   0.227
52193W        W17453  37.962   6.812  11.462
52194W        W17454  17.067  28.927  11.067
52195W        W17455  26.486  30.935   0.938
52196W        W17456   5.315  41.808  12.379
52197W        W17457  31.272  10.383   0.485
52198W        W17458   3.622  28.613  14.911
52199W        W17459  28.161   5.464   1.954
52200W        W17460  15.910  18.930  10.301
52201W        W17461  24.495  18.718   2.150
52202W        W17462   7.671  21.777   3.156
52203W        W17463  23.763  44.336  13.590
52204W        W17464  41.780  29.098   1.816
52205W        W17465   5.352   0.312   0.934
52206W        W17466   3.320  23.055   4.297
52207W        W17467  15.234  42.114  12.774
52208W        W17468  40.570  23.667   2.927
52209W        W17469  26.018  16.394   0.436
52210W        W17470  34.503  42.088  12.373
52211W        W17471  37.618  32.719  13.268
52212W        W17472  31.708  14.598  13.884
52213W        W17473  11.614   3.250  12.930
52214W        W17474  37.552   5.262  14.877
52215W        W17475  33.303  30.948  12.315
52216W        W17476  32.846  39.825   2.851
52217W        W17477  23.778  42.828   1.401
52218W        W17478   5.814   4.226  13.442
52219W        W17479  32.275  12.593   4.054
52220W        W17480  12.368  18.649   3.729
52221W        W17481   7.456  15.327  14.178
52222W        W17482   1.605  41.031   4.548
52223W        W17483  43.805  38.631   1.278
52224W        W17484  36.877   7.848   0.836
52225W        W17485   4.314   5.290  12.999
52226W        W17486  35.492  36.258  10.384
52227W        W17487  25.407  18.577  14.320
52228W        W17488  24.956  25.240  13.953
52229W        W17489  27.609  29.282  11.902
52230W        W17490  39.821  44.941  11.116
52231W        W17491  14.479  30.361   3.610
52232W        W17492   5.646   9.676  11.999
52233W        W17493   1.310  35.508  10.745
52234W        W17494  41.769  27.688   0.314
52235W        W17495  14.318  37.720   4.841
52236W        W17496  35.818  32.641  13.000
52237W        W17497   4.411  43.537   3.644
52238W        W17498  20.394  14.746   0.768
52239W        W17499  39.360  28.023   0.071
52240W        W17500  13.812  27.451   2.149
52241W        W17501   2.651  30.452   1.298
52242W        W17502  12.022  23.325  11.127
52243W        W17503  38.875  28.409   4.560
52244W        W17504  12.904  29.088  14.946
52245W        W17505  32.794  30.702  10.107
52246W        W17506   8.929   0.409   2.666
52247W        W17507   0.537  21.560  12.449
52248W        W17508  10.832  12.337  11.084
52249W        W17509  33.493  17.993   0.748
52250W        W17510  17.997  36.158   4.235
52251W        W17511  32.044  16.048  10.654
52252W        W17512  42.322  22.274   3.452
52253W        W17513  12.419  44.767   1.480
52254W        W17514   2.985  10.206  12.911
52255W        W17515  18.712  16.557   4.107
52256W        W17516   1.751  27.901   0.568
52257W        W17517  41.414   9.133   3.233
52258W        W17518  16.029   2.433  11.590
52259W        W17519  44.968   2.242  11.832
52260W        W17520  27.135  31.159  11.547
52261W        W17521  29.567  35.475   3.647
52262W        W17522   0.371  34.424   1.447
52263W        W17523  38.419   9.307  12.988
52264W        W17524   5.397  35.695   4.237
52265W        W17525  38.663  34.963   0.863
52266W        W17526  33.533  11.926   3.189
52267W        W17527  15.933  23.470  12.221
52268W        W17528  38.393  36.923   1.415
52269W        W17529  26.718  25.185  12.931
52270W        W17530  22.224  28.424   2.380
52271W        W17531  37.901  14.238  11.876
52272W        W17532  27.299  21.141   3.662
52273W        W17533   5.691   3.353  14.754
52274W        W17534  42.438  34.836  10.493
52275W        W17535   4.319  40.315   3.740
52276W        W17536  34.851  33.910   4.809
52277W        W17537  44.540  10.936  12.392
52278W        W17538   1.816   8.101  12.572
52279W        W17539  30.785  33.024   2.172
52280W        W17540   1.944  11.165   2.893
52281W        W17541  43.526   5.379   2.690
52282W        W17542  26.583   5.260   1.692
52283W        W17543  42.942  17.591  13.890
52284W        W17544  38.377  41.024  12.645
52285W        W17545  19.299  11.391  10.788
52286W        W17546   0.454  29.744  11.153
52287W        W17547   0.831  13.578   2.738
52288W        W17548   4.599  35.480  11.749
52289W        W17549  44.997  43.542  11.630
52290W        W17550  44.513  39.140   1.649
52291W        W17551  26.479   0.885  11.112
52292W        W17552  23.453   3.464  12.546
52293W        W17553  26.004  21.284   4.548
52294W        W17554   1.699  23.227   1.707
52295W        W17555  28.574  19.634  10.924
52296W        W17556  15.232  19.409   2.894
52297W        W17557  30.490   0.936  10.917
52298W        W17558  31.430  36.494   3.374
52299W        W17559  26.554  25.519   1.823
52300W        W17560  11.765  32.614  12.577
52301W        W17561  30.307  25.540   2.303
52302W        W17562  14.151  10.659   3.113
52303W        W17563  17.064   6.819  14.448
52304W        W17564  14.278  30.483   1.376
52305W        W17565   6.804   2.860   0.741
52306W        W17566  36.556  34.611  14.564
52307W        W17567  24.795  19.214  14.754
52308W        W17568   3.647  31.503   2.576
52309W        W17569  34.991  17.333   0.763
52310W        W17570  38.063  37.538  14.368
52311W        W17571   7.855  13.192  10.737
52312W        W17572  13.754   9.054   1.952
52313W        W17573  41.647  17.662  14.391
52314W        W17574   2.411  24.219   1.335
52315W        W17575  34.782   2.353  13.021
52316W        W17576   8.747   0.039  12.554
52317W        W17577   6.033  35.132   4.808
52318W        W17578   3.865  35.392   4.557
52319W        W17579  31.046  36.123   3.112
52320W        W17580  17.870   4.378  14.494
52321W        W17581  44.905  26.537   0.978
52322W        W17582  25.066   3.750   3.193
52323W        W17583  36.077   5.221   3.101
52324W        W17584  22.693  38.612  11.542
52325W        W17585  42.011   9.299  12.091
52326W        W17586  30.644  34.456  13.844
52327W        W17587  11.797  11.587  11.666
52328W        W17588  29.985  43.949  14.321
52329W        W17589  24.151  27.243  13.990
52330W        W17590  36.739  25.150  11.192
52331W        W17591  42.539  33.782   1.558
52332W        W17592   4.277  24.757   2.198
52333W        W17593  29.935  34.471   0.999
52334W        W17594  44.806  36.223   1.540
52335W        W17595  10.950   3.709  12.980
52336W        W17596  18.667  29.054   4.220
52337W        W17597  13.369  18.161  13.360
52338W        W17598  43.612   7.761   3.603
52339W        W17599  13.207   3.939   1.032
52340W        W17600  29.033  38.321  12.821
52341W        W17601  35.530   6.700   2.271
52342W        W17602  28.703   3.729   3.272
52343W        W17603  34.584  36.440  13.619
52344W        W17604  31.915   7.406  13.867
52345W        W17605  39.378   5.768   5.014
52346W        W17606  31.149   3.484   4.234
52347W        W17607   2.392  13.212   2.655
52348W        W17608   3.924  21.026   3.021
52349W        W17609  37.819   6.917  14.540
52350W        W17610  12.737  35.471   0.258
52351W        W17611  14.221   5.068   1.260
52352W        W17612  38.922   6.975   2.923
52353W        W17613  15.576  21.618  10.657
52354W        W17614   5.411  27.936   1.895
52355W        W17615  27.213   0.497  11.402
52356W        W17616   3.956   4.079  14.311
52357W        W17617  16.646  24.679   0.828
52358W        W17618  38.220   8.749   1.026
52359W        W17619  22.547  38.549  13.544
52360W        W17620   3.991  17.713   2.898
52361W        W17621   9.759   1.506   4.680
52362W        W17622  32.237   4.960   1.361
52363W        W17623  16.382  34.586  11.683
52364W        W17624   6.784   0.364  12.590
52365W        W17625  12.373   2.549  12.102
52366W        W17626   2.901   4.336   4.278
52367W        W17627  20.648  44.678  14.827
52368W        W17628  36.416  23.066  13.959
52369W        W17629  39.043  34.956  12.177
52370W        W17630  20.445  41.348  13.862
52371W        W17631  20.268  16.238  13.561
52372W        W17632   4.652  18.955  14.074
52373W        W17633  19.252   6.208   0.800
52374W        W17634  40.584   1.373   1.651
52375W        W17635  31.500  30.633  13.400
52376W        W17636   2.732  36.070  10.909
52377W        W17637  36.558   3.318   3.676
52378W        W17638  17.108  41.125  10.751
52379W        W17639  11.564   3.184   3.752
52380W        W17640  18.420  11.419   0.246
52381W        W17641  19.663  37.578   2.703
52382W        W17642  15.185  20.228   5.076
52383W        W17643  40.565   2.294  11.606
52384W        W17644  27.485  42.004  14.904
52385W        W17645  29.937  39.520   1.504
52386W        W17646  41.060  40.837  10.448
52387W        W17647  17.206  26.943   4.288
52388W        W17648   8.880  40.467  13.244
52389W        W17649  11.163  21.114   4.508
52390W        W17650  35.251  43.599  13.235
52391W        W17651  24.263  32.617   0.677
52392W        W17652  14.219  15.105  11.862
52393W        W17653  38.732   0.884   0.776
52394W        W17654  14.940  42.530  14.128
52395W        W17655  39.322  25.734  11.429
52396W        W17656  13.878  10.327   4.097
52397W        W17657  43.663  35.633  11.469
52398W        W17658  10.403  34.075   0.852
52399W        W17659  24.283  29.131   0.348
52400W        W17660  33.559  38.568  12.402
52401W        W17661  41.631  25.782  10.774
52402W        W17662   6.486  21.990  13.485
52403W        W17663  18.031  41.359  14.534
52404W        W17664  20.322  16.962   4.061
52405W        W17665  34.654   6.463   2.745
52406W        W17666   9.230  20.432   1.294
52407W        W17667  41.330   8.697   0.799
52408W        W17668  38.856  25.392  14.302
52409W        W17669  37.496   8.765   1.712
52410W        W17670   2.171  28.834  12.586
52411W        W17671  25.629   7.733  12.614
52412W        W17672   7.009  18.333   0.878
52413W        W17673   9.969  44.810  14.814
52414W        W17674   5.309  31.384  13.852
52415W        W17675  34.821  33.821   4.280
52416W        W17676  44.956  33.357  13.760
52417W        W17677  24.594   7.493  11.602
52418W        W17678  41.404  15.660   4.893
52419W        W17679   9.429  11.975  14.744
52420W        W17680  28.135  35.339  10.616
52421W        W17681  27.327  28.472   3.716
52422W        W17682  27.368   9.668  14.334
52423W        W17683   6.890  40.318  14.232
52424W        W17684   5.180  16.354  13.112
52425W        W17685  21.758  24.735  10.714
52426W        W17686  27.669   5.353   1.841
52427W        W17687  19.091  13.211   3.223
52428W        W17688  12.135  27.030   4.186
52429W        W17689  13.671   4.388   3.889
52430W        W17690  21.591   3.337  13.607
52431W        W17691  27.024  22.998  10.424
52432W        W17692   3.948  39.576   1.033
52433W        W17693   2.233   4.839   4.656
52434W        W17694   9.884  25.538   4.583
52435W        W17695  27.644  43.043  10.525
52436W        W17696  42.120  12.351   1.785
52437W        W17697  35.136  15.711  14.558
52438W        W17698  30.462  35.319  11.462
52439W        W17699  36.501  24.988   4.143
52440W        W17700  29.551  40.437  10.251
52441W        W17701  40.828   5.935   3.316
52442W        W17702  44.573  31.040  10.562
52443W        W17703  11.323  33.520  11.241
52444W        W17704  14.990  18.818  10.582
52445W        W17705   1.316  19.096  10.570
52446W        W17706  13.199  43.775  12.045
52447W        W17707  25.610  31.050   4.366
52448W        W17708  29.546  34.967  14.393
52449W        W17709  43.058  43.238  12.652
52450W        W17710  21.185   9.461   4.076
52451W        W17711  29.605  14.700  12.116
52452W        W17712  36.180   0.258   3.237
52453W        W17713  12.617  22.489  11.209
52454W        W17714  36.748  11.172   4.327
52455W        W17715   1.271  18.509  14.410
52456W        W17716  25.599  44.664  10.535
52457W        W17717  24.228   1.113   4.091
52458W        W17718  36.798  39.398  14.902
52459W        W17719  32.199   7.771  14.149
52460W        W17720   6.127  16.737  10.723
52461W        W17721   4.514   8.443   0.556
52462W        W17722  31.566  17.375  10.805
52463W        W17723  43.818   8.277   0.899
52464W        W17724  35.556  29.656   0.216
52465W        W17725  15.628  24.382   1.405
52466W        W17726   0.514  14.230  12.443
52467W        W17727  18.785  10.591   1.253
52468W        W17728  38.484  30.727  14.593
52469W        W17729  15.313  42.854   0.020
52470W        W17730  21.773   1.409   0.284
52471W        W17731  35.939  12.837  13.971
52472W        W17732  22.173  15.884   1.309
52473W        W17733  33.219  39.960   1.324
52474W        W17734  10.997  29.986  11.708
52475W        W17735  41.078  20.060  14.787
52476W        W17736  23.000  40.622   5.046
52477W        W17737  30.744  18.501  14.021
52478W        W17738  43.206  30.336  14.796
52479W        W17739  31.912  30.899  13.898
52480W        W17740   3.588   6.295   5.063
52481W        W17741  35.934  27.470   3.153
52482W        W17742   6.155   4.958   4.676
52483W        W17743  33.784  26.591  10.833
52484W        W17744  12.232  39.557  13.677
52485W        W17745   0.497   9.227   1.435
52486W        W17746  23.096  36.877  12.833
52487W        W17747  44.048  16.869  14.953
52488W        W17748   8.154  42.541   0.781
52489W        W17749  13.904  15.702  11.744
52490W        W17750   9.809  18.335  11.512
52491W        W17751  20.481  13.147   2.786
52492W        W17752  14.806   2.858  13.777
52493W        W17753  25.506  27.168   2.807
52494W        W17754  31.451  40.914   4.431
52495W        W17755  21.941  34.479   2.783
52496W        W17756  35.482  22.274   2.596
52497W        W17757  13.845  39.684   1.275
52498W        W17758  28.064  25.896   2.787
52499W        W17759  19.295   5.807  13.375
52500W        W17760   9.110  14.779   2.558
52501W        W17761  18.613  34.036   2.826
52502W        W17762  30.168  21.190   0.515
52503W        W17763  39.952  33.141   1.839
52504W        W17764  31.609  32.991  14.304
52505W        W17765   5.280  40.473   0.219
52506W        W17766  40.883   7.701   3.408
52507W        W17767  21.040  17.622   3.285
52508W        W17768  14.064   6.778   2.614
52509W        W17769  27.588  33.538   2.721
52510W        W17770  39.457  27.642  12.075
52511W        W17771  30.016   5.674   4.780
52512W        W17772   8.771  39.605  12.957
52513W        W17773  33.012   8.608   3.193
52514W        W17774  35.428  13.850  11.716
52515W        W17775   1.904  17.271  11.155
52516W        W17776  15.761  19.607   1.878
52517W        W17777  27.996  30.644   0.935
52518W        W17778   3.017  40.444   0.674
52519W        W17779  10.080  27.234   3.366
52520W        W17780  12.243  37.075   1.064
52521W        W17781  22.626  23.130  10.616
52522W        W17782  34.482   1.566  11.213
52523W        W17783   5.234   1.586  14.068
52524W        W17784  29.257  40.561   2.291
52525W        W17785  26.717  44.892  12.077
52526W        W17786  39.469  27.510   0.020
52527W        W17787   8.876   9.799  12.487
52528W        W17788  29.871   3.185  12.609
52529W        W17789   2.963  40.964   3.580
52530W        W17790   1.525  26.617  13.881
52531W        W17791   3.893   8.113  12.145
52532W        W17792  43.130  41.919  11.858
52533W        W17793  28.406  32.022   1.718
52534W        W17794  14.275  36.007  13.135
52535W        W17795  30.350  13.203  10.767
52536W        W17796  37.159  14.150  13.850
52537W        W17797  22.697   3.908  14.742
52538W        W17798  38.541  30.141  13.788
52539W        W17799   7.841  38.258   3.198
52540W        W17800  34.122  35.265   2.794
52541W        W17801  43.060  42.921   2.193
52542W        W17802  12.720  14.289   3.700
52543W        W17803   9.824  17.022   4.777
52544W        W17804  39.575   7.289   4.400
52545W        W17805  27.790  15.662  13.893
52546W        W17806  44.740  40.067   1.886
52547W        W17807  28.140  17.600  14.555
52548W        W17808  12.302  40.455   0.866
52549W        W17809   6.335  34.810   2.855
52550W        W17810  28.110  14.293   3.069
52551W        W17811  18.896  25.202   3.640
52552W        W17812  29.024   1.245  12.006
52553W        W17813  12.660  44.351   1.691
52554W        W17814   4.690  41.499  13.991
52555W        W17815  31.553  27.120  12.649
52556W        W17816  15.612  43.484   3.602
52557W        W17817  22.863  13.271   2.208
52558W        W17818  16.188  11.517  13.783
52559W        W17819  40.850  11.371   4.924
52560W        W17820  32.719  27.967  11.596
52561W        W17821  39.367   6.323  13.442
52562W        W17822  32.120  16.425  11.013
52563W        W17823  34.400  17.973  11.658
52564W        W17824  15.071  38.554   2.613
52565W        W17825   1.668  13.378   0.335
52566W        W17826  42.388   7.349  12.482
52567W        W17827  16.805   1.777   3.359
52568W        W17828  13.155  44.939   1.025
52569W        W17829  43.347   0.556   3.321
52570W        W17830  13.190   6.479   2.161
52571W        W17831   5.743  33.899   3.262
52572W        W17832   0.100  21.236  10.608
52573W        W17833  24.747  10.260  11.581
52574W        W17834  33.915  25.671  14.828
52575W        W17835  12.765  42.923   2.128
52576W        W17836  37.576  42.126  14.219
52577W        W17837   5.572  13.694  14.356
52578W        W17838   1.549  10.761  13.543
52579W        W17839   1.980  13.110   4.789
52580W        W17840  42.142  14.969  12.504
52581W        W17841  38.917  17.060   3.656
52582W        W17842  34.846  13.985   2.850
52583W        W17843  20.061  40.113  11.002
52584W        W17844  44.040  33.654   2.773
52585W        W17845  33.540   7.706   1.328
52586W        W17846  12.382   0.896   0.734
52587W        W17847  33.891   6.785   0.557
52588W        W17848  21.126   0.768   1.423
52589W        W17849  18.644  33.739  14.528
52590W        W17850  36.047  18.309  10.626
52591W        W17851   8.534  19.405  11.914
52592W        W17852  35.439  26.161  13.972
52593W        W17853   7.987   6.701   0.809
52594W        W17854  21.114  14.597   3.752
52595W        W17855  41.962   3.047   2.948
52596W        W17856  26.943   6.946   2.798
52597W        W17857  15.663  17.516  12.186
52598W        W17858  27.570  27.948  14.324
52599W        W17859  16.038  26.158   0.673
52600W        W17860  13.635  22.800  14.877
52601W        W17861   0.243  32.610   2.231
52602W        W17862  19.237  40.678   4.138
52603W        W17863  29.066   5.184   1.981
52604W        W17864  37.527  33.639   0.448
52605W        W17865  37.753  38.905   0.349
52606W        W17866   8.230  22.720  14.330
52607W        W17867  36.808  18.880   4.206
52608W        W17868  19.491  33.833   4.922
52609W        W17869   2.011  13.664  13.031
52610W        W17870  17.402  24.654   3.174
52611W        W17871  22.976  39.911   1.328
52612W        W17872  16.867  22.897   2.372
52613W        W17873  14.386  25.345  11.563
52614W        W17874  44.419  13.846  13.992
52615W        W17875  44.145  21.290  11.658
52616W        W17876  30.402  22.205  13.787
52617W        W17877  14.714  34.106   1.727
52618W        W17878  20.731  14.275   3.538
52619W        W17879  30.921  13.297   1.971
52620W        W17880   6.857   2.874   3.392
52621W        W17881   3.027  19.734   3.228
52622W        W17882   1.644  20.430  13.502
52623W        W17883  35.339  27.555   2.142
52624W        W17884  12.670  44.297   4.193
52625W        W17885  30.112  30.703   3.754
52626W        W17886  34.174  31.079  12.109
52627W        W17887  27.288  21.366   0.967
52628W        W17888  44.905   3.328   4.098
52629W        W17889  21.752  29.101   1.374
52630W        W17890  16.222   9.512   2.159
52631W        W17891   4.894  19.029  13.622
52632W        W17892  24.453  44.570   0.419
52633W        W17893  28.387  31.880  13.036
52634W        W17894  25.777  28.611   3.553
52635W        W17895   6.898  42.763  10.753
52636W        W17896  27.556  23.605   4.830
52637W        W17897  18.610  11.416   2.758
52638W        W17898  15.224   4.781   9.950
52639W        W17899  37.769  43.930   3.797
52640W        W17900  17.246   5.734   4.144
52641W        W17901  26.961  37.337   1.301
52642W        W17902  26.136  42.949  10.712
52643W        W17903  17.077  22.220   4.158
52644W        W17904  23.592  26.277  13.036
52645W        W17905  13.404  16.145   3.886
52646W        W17906  12.085   8.222  13.381
52647W        W17907  23.827  18.048   1.436
52648W        W17908  24.129  39.404  14.701
52649W        W17909   0.834   8.678   4.620
52650W        W17910  21.653  17.148   4.257
52651W        W17911  41.003  34.103  12.394
52652W        W17912  18.755  18.587   0.384
52653W        W17913  37.451  36.821  11.758
52654W        W17914  13.521  11.754   0.793
52655W        W17915  12.895   2.962  10.618
52656W        W17916  20.776  16.298  13.442
52657W        W17917  21.996  24.516   0.667
52658W        W17918  15.070  43.495  11.627
52659W        W17919  16.733   4.470  10.648
52660W        W17920  38.017  37.229   3.115
52661W        W17921  26.997  40.703   1.786
52662W        W17922  10.255  36.541   2.591
52663W        W17923  31.851  35.426   2.984
52664W        W17924   0.498  31.691  11.115
52665W        W17925  43.354   3.640   2.754
52666W        W17926   2.218  15.562   2.212
52667W        W17927  27.974   9.193   3.267
52668W        W17928  18.146  13.381  11.647
52669W        W17929  19.818  20.638   3.244
52670W        W17930  41.759  22.885   1.245
52671W        W17931  40.391  22.804   1.121
52672W        W17932  42.915  23.607  12.214
52673W        W17933   8.346  34.028  14.459
52674W        W17934  28.559  19.639  14.236
52675W        W17935  16.202  14.749  11.242
52676W        W17936  27.188  38.999   2.179
52677W        W17937   6.929  12.694   2.245
52678W        W17938  16.298  38.138   0.681
52679W        W17939   4.875  38.929  11.878
52680W        W17940  21.836  30.532  14.477
52681W        W17941  27.986  31.461  14.896
52682W        W17942  18.809  25.626   4.377
52683W        W17943  35.229  25.667   4.302
52684W        W17944  16.804  34.318  11.513
52685W        W17945  20.876   4.376  11.118
52686W        W17946   4.221  20.774   4.482
52687W        W17947  14.857  38.530   3.606
52688W        W17948  23.087  32.339  10.950
52689W        W17949  26.849   4.353  11.534
52690W        W17950  18.536   5.351  13.647
52691W        W17951  40.365  31.115  12.386
52692W        W17952  41.072   5.276  11.278
52693W        W17953  13.122  30.947  13.505
52694W        W17954  18.251  28.720   1.522
52695W        W17955  34.587  37.460  12.265
52696W        W17956  11.722  23.133  11.504
52697W        W17957   4.579  34.777  12.301
52698W        W17958   8.195  30.097   0.777
52699W        W17959  17.894  38.270  14.255
52700W        W17960  30.932   5.891  14.425
52701W        W17961  30.405  20.684  13.241
52702W        W17962   9.545   6.941  10.198
52703W        W17963  10.185   7.864   2.997
52704W        W17964   1.491  22.649   4.106
52705W        W17965  28.080   7.078  12.774
52706W        W17966   4.073  31.882  12.086
52707W        W17967  12.754   3.945   4.161
52708W        W17968  32.842  41.219  10.881
52709W        W17969  13.355  41.861  14.452
52710W        W17970  25.294  16.558   1.713
52711W        W17971  23.378   4.855  11.575
52712W        W17972  16.748  41.594  10.965
52713W        W17973  37.404  17.380   4.579
52714W        W17974  30.374  25.081   4.028
52715W        W17975  38.914  27.186   2.812
52716W        W17976  37.354  15.792  11.235
52717W        W17977  30.935  39.856  12.004
52718W        W17978  16.321  38.536  14.350
52719W        W17979  25.633  23.013   0.691
52720W        W17980  31.742   0.226   0.097
52721W        W17981  27.016   3.061  13.399
52722W        W17982  26.990  14.691   4.968
52723W        W17983  35.902  29.502  11.550
52724W        W17984  11.637  16.322   1.294
52725W        W17985  26.186  16.635  13.798
52726W        W17986  42.676  17.840  12.056
52727W        W17987   7.052  21.093   2.151
52728W        W17988  35.346  33.625  14.367
52729W        W17989  31.295   1.023  14.157
52730W        W17990  39.284  39.519  14.170
52731W        W17991  22.552  42.449  11.330
52732W        W17992  22.433  27.710   1.451
52733W        W17993  18.025  20.437   0.390
52734W        W17994  29.976  36.180   2.458
52735W        W17995  25.068  14.608  12.028
52736W        W17996  44.388  23.407  13.892
52737W        W17997  42.953   9.255  11.469
52738W        W17998   9.455   7.026   1.016
52739W        W17999  39.768  33.486  14.722
52740W        W18000  23.459  37.624  14.875
52741W        W18001  43.343  32.632  14.944
52742W        W18002  23.181  24.217  13.403
52743W        W18003  40.075  38.571  12.430
52744W        W18004   2.983   2.545  12.701
52745W        W18005  34.668   0.488  14.337
52746W        W18006   4.659   0.375   3.244
52747W        W18007   0.938  29.374   4.228
52748W        W18008  17.246   9.840  12.920
52749W        W18009   5.020  11.374  13.080
52750W        W18010  15.597  32.890  11.606
52751W        W18011  42.544  15.245   3.719
52752W        W18012  12.969  14.197   3.259
52753W        W18013  17.187  37.666  13.112
52754W        W18014  26.539  20.655   1.860
52755W        W18015   6.559   4.645  14.849
52756W        W18016  12.827  44.431   2.687
52757W        W18017  44.956   3.014   0.948
52758W        W18018  20.128  26.173   2.363
52759W        W18019  34.993  36.430   2.788
52760W        W18020  39.544  10.483  14.860
52761W        W18021   8.637  33.930   3.238
52762W        W18022  44.882  32.417   1.170
52763W        W18023  18.134  40.288  13.890
52764W        W18024  35.609   4.601  13.917
52765W        W18025   9.368   1.678  14.808
52766W        W18026  41.872   1.935  10.650
52767W        W18027  16.558   4.185  11.624
52768W        W18028  43.931  10.246   5.056
52769W        W18029  32.365  40.952   2.788
52770W        W18030  43.355  10.101  12.834
52771W        W18031   4.996  20.433  12.412
52772W        W18032  16.869   9.513  12.064
52773W        W18033  18.769  39.450  12.334
52774W        W18034  15.959  19.292   9.920
52775W        W18035  26.534  21.229  11.855
52776W        W18036  13.400  21.476  14.984
52777W        W18037  35.053   1.904  14.825
52778W        W18038  44.663  42.990   1.149
52779W        W18039  28.255  40.819   2.276
52780W        W18040  14.978  20.609   2.271
52781W        W18041   6.725   0.904  11.633
52782W        W18042  13.746  36.417   2.134
52783W        W18043  21.075  11.368   4.278
52784W        W18044  29.739  37.053   0.444
52785W        W18045  43.999  22.081   3.130
52786W        W18046  16.005  32.468  14.750
52787W        W18047   5.647   1.254  14.021
52788W        W18048  42.689  41.801   0.381
52789W        W18049  26.192  41.045  12.098
52790W        W18050  34.989  34.216   3.380
52791W        W18051   4.206   6.760   3.731
52792W        W18052   0.059  22.710  12.343
52793W        W18053  19.585  27.116   3.650
52794W        W18054   3.867  39.468   4.653
52795W        W18055  44.863   8.767   3.137
52796W        W18056   1.902   4.625   1.233
52797W        W18057  10.937  35.491   0.295
52798W        W18058  33.025  32.123  14.145
52799W        W18059  41.096   1.680   9.929
52800W        W18060  29.675  12.591  12.519
52801W        W18061  41.825  33.484  11.419
52802W        W18062  31.209  20.434  13.798
52803W        W18063  37.743  26.509  10.055
52804W        W18064  41.508  10.242  12.385
52805W        W18065  11.648   8.030  11.070
52806W        W18066  29.912  39.230  14.955
52807W        W18067  29.443  14.234  11.824
52808W        W18068  13.361   9.932  12.604
52809W        W18069  11.759  32.102   1.724
52810W        W18070  44.321   8.244   0.782
52811W        W18071  13.533  30.142   1.903
52812W        W18072  12.761  23.458   3.499
52813W        W18073   2.876  20.954  11.629
52814W        W18074  18.954  34.699  14.849
52815W        W18075  40.576  43.227   0.210
52816W        W18076  36.336  32.058   0.658
52817W        W18077  10.148  40.732  14.211
52818W        W18078   1.314  27.561  14.346
52819W        W18079  40.687  10.293  12.211
52820W        W18080  39.044   3.885   0.000
52821W        W18081  13.504  14.292   1.381
52822W        W18082  41.091  32.344   2.629
52823W        W18083  43.737   9.829  11.795
52824W        W18084   8.954  25.593   2.682
52825W        W18085  20.836  18.514  13.033
52826W        W18086  26.914  22.494  10.555
52827W        W18087  11.453  34.047  14.918
52828W        W18088   7.014  16.892  14.915
52829W        W18089  44.544  15.121  11.590
52830W        W18090  33.935  10.178   0.674
52831W        W18091  37.856  34.495  12.872
52832W        W18092  24.968   8.547  14.845
52833W        W18093  30.146  19.829  12.514
52834W        W18094  38.789  26.011   4.187
52835W        W18095  10.252  29.782  12.135
52836W        W18096  35.912   7.649   0.731
52837W        W18097  44.902  37.434   2.165
52838W        W18098   4.488  11.871  11.648
52839W        W18099  39.893   6.220  14.634
52840W        W18100  28.649  41.021  10.638
52841W        W18101  23.290  26.046   2.804
52842W        W18102  28.475  23.200  13.510
52843W        W18103  25.141  21.558   2.128
52844W        W18104  41.937   2.419   4.953
52845W        W18105  25.762  37.007  11.316
52846W        W18106  40.741  28.207   2.731
52847W        W18107  31.884  40.493   2.383
52848W        W18108   0.520  37.133   4.920
52849W        W18109   3.177  12.891  12.295
52850W        W18110  33.908  28.178  10.987
52851W        W18111   1.435  30.924   1.436
52852W        W18112  25.456  36.906  14.797
52853W        W18113  26.258  17.350  14.484
52854W        W18114  27.692  11.165  14.517
52855W        W18115  36.901  41.455   1.743
52856W        W18116  35.828   6.136  10.734
52857W        W18117  38.734  36.700  11.094
52858W        W18118  43.425  18.568  11.562
52859W        W18119  30.894   7.227   9.824
52860W        W18120   2.499  12.310   1.691
52861W        W18121  23.475  36.535   2.840
52862W        W18122  28.602  44.931  13.604
52863W        W18123  15.096   5.526  14.956
52864W        W18124  26.493  32.598   0.225
52865W        W18125   2.435  35.728  11.725
52866W        W18126  15.263  23.404   2.363
52867W        W18127  22.130  41.998  11.426
52868W        W18128  29.701   9.860  11.045
52869W        W18129  26.483  37.471  10.747
52870W        W18130   9.062   1.931  12.486
52871W        W18131  18.722  31.108  12.278
52872W        W18132  33.865  17.352   2.133
52873W        W18133  39.193  25.829   4.510
52874W        W18134  36.304   0.022   3.694
52875W        W18135  43.829  38.464  11.351
52876W        W18136  32.212   8.134   4.216
52877W        W18137  37.797   2.119  10.705
52878W        W18138  10.419  28.047   3.972
52879W        W18139  18.709  22.661  12.928
52880W        W18140  12.090  21.200  14.612
52881W        W18141  25.927  36.115   2.225
52882W        W18142  11.218   1.798  10.497
52883W        W18143  17.742   4.756  11.647
52884W        W18144  29.179  43.057   1.228
52885W        W18145  43.081  13.794   2.351
52886W        W18146  38.513   0.284   0.983
52887W        W18147  35.211  24.951   3.124
52888W        W18148  14.607  41.266  14.812
52889W        W18149  38.817  15.975   0.355
52890W        W18150  26.835  24.034   2.617
52891W        W18151   7.993  29.447  11.528
52892W        W18152  31.692   5.815   2.404
52893W        W18153  16.385  11.330  12.004
52894W        W18154  35.820   0.006  10.704
52895W        W18155  31.207  23.945  10.376
52896W        W18156  40.426  28.905  12.087
52897W        W18157  26.316  14.100  13.223
52898W        W18158  10.665  34.465   2.674
52899W        W18159  34.536  22.633  12.102
52900W        W18160  11.228  17.831  11.975
52901W        W18161   7.442  22.526   1.707
52902W        W18162  30.785  33.573   1.423
52903W        W18163  11.897  21.578  10.303
52904W        W18164  43.898  44.896  12.477
52905W        W18165  42.268  33.029   1.700
52906W        W18166  26.848  39.067   3.023
52907W        W18167  16.056  19.548   0.309
52908W        W18168  36.590   3.259   0.947
52909W        W18169  36.462  19.500   1.437
52910W        W18170  30.856   7.429  13.975
52911W        W18171  35.107  28.266   1.192
52912W        W18172  23.763   1.858   2.866
52913W        W18173  24.204  24.656  14.318
52914W        W18174   6.196   9.889  10.749
52915W        W18175  11.585   6.405  12.824
52916W        W18176  34.981  17.157  11.813
52917W        W18177  20.107  30.605  11.039
52918W        W18178  26.414  33.514  11.605
52919W        W18179   3.222  16.724  11.558
52920W        W18180  14.748  10.437   0.856
52921W        W18181  25.644  21.775   3.381
52922W        W18182  40.987  43.328   1.493
52923W        W18183  43.067  18.804  12.460
52924W        W18184  27.360  34.243  12.569
52925W        W18185  24.029  22.228  10.854
52926W        W18186  39.672  10.793  12.431
52927W        W18187  35.530   4.484   3.310
52928W        W18188  24.225  15.798  13.313
52929W        W18189  19.485  28.098  13.337
52930W        W18190  24.728  25.928  11.111
52931W        W18191   8.587   6.325   4.527
52932W        W18192  43.496  26.422  13.286
52933W        W18193  26.924  23.953   4.672
52934W        W18194   5.793  32.567  11.855
52935W        W18195   0.548   7.451   2.347
52936W        W18196  44.973  28.555   3.977
52937W        W18197  14.778  31.512   2.537
52938W        W18198   6.250  38.638  13.431
52939W        W18199  43.104  19.952  14.303
52940W        W18200  22.949  37.595  13.456
52941W        W18201   1.096  39.522  13.575
52942W        W18202  10.627  24.136  12.945
52943W        W18203  23.396   7.201   3.449
52944W        W18204  13.668   1.915   0.966
52945W        W18205  44.443   5.168  10.872
52946W        W18206  31.952  30.031   0.897
52947W        W18207  36.785  35.596  13.539
52948W        W18208  36.935   6.516   3.479
52949W        W18209   7.648  23.007   3.820
52950W        W18210   3.960  28.435  14.465
52951W        W18211  13.768  44.262   0.450
52952W        W18212  16.279  17.350  11.384
52953W        W18213  13.201  34.999  14.602
52954W        W18214  41.564  24.624   0.272
52955W        W18215  32.026  22.406  12.477
52956W        W18216  24.937  11.609  10.724
52957W        W18217  26.516   9.812  10.531
52958W        W18218  40.288  24.422   4.548
52959W        W18219  16.361   9.165  14.441
52960W        W18220   4.221  31.655   1.287
52961W        W18221  15.466   9.206   4.873
52962W        W18222  27.950  25.099  13.837
52963W        W18223   9.331  31.184  10.097
52964W        W18224  30.493  36.768   4.725
52965W        W18225  12.671  30.700  11.023
52966W        W18226  43.962   7.904  11.412
52967W        W18227  32.659  34.347  11.584
52968W        W18228  29.677  17.855  11.208
52969W        W18229   7.190  33.962  10.721
52970W        W18230  18.775  40.645  11.943
52971W        W18231  34.497  43.514   4.768
52972W        W18232   0.591   9.407   4.583
52973W        W18233  20.071  41.402  11.678
52974W        W18234  38.031   9.076  11.380
52975W        W18235  16.511  33.707   1.856
52976W        W18236  36.087  30.587  12.682
52977W        W18237  26.250  22.635   4.120
52978W        W18238  40.447  15.202  12.521
52979W        W18239  42.384  41.027   3.293
52980W        W18240  12.641  34.562   1.955
52981W        W18241  12.035  16.668   1.261
52982W        W18242  26.046  12.403  11.945
52983W        W18243  34.228   4.267  14.807
52984W        W18244  44.101  34.817  13.746
52985W        W18245   1.011  26.996  13.651
52986W        W18246  28.585  17.129  11.515
52987W        W18247  29.852  17.602  14.147
52988W        W18248  26.243  43.342   1.657
52989W        W18249  17.681  41.514   1.509
52990W        W18250  37.355   8.053   1.261
52991W        W18251  18.904  43.376  13.501
52992W        W18252   0.765  22.208  14.031
52993W        W18253  42.350  36.087   1.201
52994W        W18254  43.371  31.041   3.139
52995W        W18255   9.142   9.620  12.889
52996W        W18256  32.774  29.333  11.999
52997W        W18257  30.708   1.473  11.692
52998W        W18258   8.001  29.170  14.922
52999W        W18259  35.590  22.981  11.073
53000W        W18260  44.475  42.212   2.926
53001W        W18261  25.218  29.486  13.950
53002W        W18262  28.503  23.749  13.368
53003W        W18263  25.443  22.235  13.199
53004W        W18264   7.779  27.890   4.946
53005W        W18265  37.875   4.846   3.782
53006W        W18266  10.398  17.002   1.219
53007W        W18267   2.780  23.216  11.174
53008W        W18268  18.576  18.312  12.615
53009W        W18269   8.629  26.747   0.444
53010W        W18270  40.733  18.286  12.509
53011W        W18271  24.253  10.765  11.030
53012W        W18272  17.156   4.649   0.346
53013W        W18273   5.827  30.927   0.799
53014W        W18274  34.542  37.830  14.168
53015W        W18275  39.549  12.215  14.187
53016W        W18276   3.862   5.723  14.965
53017W        W18277  19.705  34.149   3.676
53018W        W18278   1.028  12.419   3.766
53019W        W18279  37.212  29.444  11.256
53020W        W18280   3.493   1.329  12.453
53021W        W18281  12.807  31.013   4.782
53022W        W18282  18.871   1.954   1.883
53023W        W18283  24.885  15.484  14.854
53024W        W18284  33.427   7.241  14.480
53025W        W18285  32.886   1.040   3.482
53026W        W18286  22.162  12.799  14.152
53027W        W18287  27.661  38.590   3.222
53028W        W18288  23.597  33.534  11.533
53029W        W18289  29.777  30.132  10.388
53030W        W18290   6.223  44.892  13.514
53031W        W18291  35.424   5.620  14.971
53032W        W18292  19.682  41.903  13.852
53033W        W18293   8.900  33.313  11.839
53034W        W18294  37.648  22.892   0.322
53035W        W18295  24.068  23.815   0.316
53036W        W18296  31.766  21.897  14.776
53037W        W18297  17.358   8.420  10.508
53038W        W18298  30.149  38.979   2.172
53039W        W18299  19.346  27.512  11.685
53040W        W18300  28.072  35.458   1.818
53041W        W18301   2.581  17.093   1.232
53042W        W18302  23.036  28.616  12.382
53043W        W18303  18.701  11.455  13.407
53044W        W18304  19.238  12.892  14.802
53045W        W18305   1.446  31.548  12.608
53046W        W18306  25.137   8.359   4.108
53047W        W18307  17.033  44.221  13.432
53048W        W18308  12.092  25.610  12.453
53049W        W18309  43.128  20.578   2.261
53050W        W18310  12.246  23.535   4.950
53051W        W18311  17.089  19.672   2.618
53052W        W18312  25.187  43.499  12.561
53053W        W18313  43.853  35.303  11.117
53054W        W18314  13.753  31.841  14.867
53055W        W18315  22.720   0.840  13.001
53056W        W18316  17.082  31.598   2.180
53057W        W18317  21.022  44.360   1.187
53058W        W18318   2.294   3.432  14.198
53059W        W18319  27.170  22.560   4.503
53060W        W18320   7.935  32.419  14.777
53061W        W18321   4.666  12.627   1.485
53062W        W18322  11.837  32.807   4.207
53063W        W18323  42.009  18.026  14.967
53064W        W18324  42.446  39.419   2.684
53065W        W18325  24.582  12.141  14.330
53066W        W18326   8.284  23.051   3.217
53067W        W18327  10.095  43.972  13.007
53068W        W18328  14.596  42.762  10.499
53069W        W18329  42.426  24.732   4.521
53070W        W18330  35.075  44.441   3.158
53071W        W18331  27.179  14.653  12.386
53072W        W18332  38.512  26.223   2.184
53073W        W18333   6.180  14.304   4.095
53074W        W18334  16.316  19.734  13.040
53075W        W18335  21.462  14.222   4.261
53076W        W18336  22.756  29.540  13.006
53077W        W18337  25.470  44.988   0.318
53078W        W18338  24.028   8.944  12.393
53079W        W18339   0.841  26.897   4.773
53080W        W18340  44.801  33.921   1.976
53081W        W18341   4.917  44.839   3.232
53082W        W18342  22.996  42.725  12.540
53083W        W18343  18.617   7.893   0.355
53084W        W18344  31.149  44.515   2.238
53085W        W18345   0.336  12.158   2.790
53086W        W18346  23.779  35.330   0.432
53087W        W18347   6.379  26.252   3.612
53088W        W18348  23.749  30.550   1.790
53089W        W18349   5.421   1.211  12.615
53090W        W18350  13.938  18.332   3.631
53091W        W18351  41.726  31.144   1.361
53092W        W18352  36.063  36.404   1.590
53093W        W18353  18.168   6.444   0.768
53094W        W18354   1.298   7.743   4.603
53095W        W18355  31.343  32.786  12.519
53096W        W18356  37.873  13.298  11.536
53097W        W18357   0.321  39.406  13.992
53098W        W18358  15.180  33.837  13.429
53099W        W18359  20.269  28.753   2.323
53100W        W18360  13.243  25.440  10.691
53101W        W18361  34.153  38.134  14.949
53102W        W18362  13.133  20.528   1.846
53103W        W18363  12.472   2.426   1.323
53104W        W18364   2.035  12.651   4.540
53105W        W18365  42.823  29.123  10.678
53106W        W18366  26.976  10.639  12.475
53107W        W18367  13.595  27.891  11.117
53108W        W18368  33.089  21.024  11.941
53109W        W18369  29.583  43.006  10.708
53110W        W18370  16.241  44.317  12.326
53111W        W18371  42.909  14.435   1.646
53112W        W18372  20.133   9.328   3.206
53113W        W18373  14.274  36.190   3.779
53114W        W18374   3.769  31.010   3.925
53115W        W18375  21.710  14.617  12.553
53116W        W18376  26.170  10.374   2.202
53117W        W18377  22.304  17.569   1.377
53118W        W18378  21.751  44.610   0.463
53119W        W18379   6.501  44.805   3.876
53120W        W18380  39.304  19.809  14.377
53121W        W18381  24.569  15.529   3.254
53122W        W18382   7.721  16.043   3.059
53123W        W18383  34.544  41.690   0.221
53124W        W18384  39.847  21.026  13.495
53125W        W18385  20.021   0.786  10.485
53126W        W18386   0.186  43.619  14.636
53127W        W18387  35.589  37.287   3.614
53128W        W18388  37.784  17.594  12.140
53129W        W18389  12.108  19.509   2.578
53130W        W18390  26.755   1.431  14.164
53131W        W18391  26.075  34.402  14.647
53132W        W18392   7.333  20.714   2.315
53133W        W18393  32.454  35.586  14.016
53134W        W18394  31.381  27.517   0.436
53135W        W18395  20.510   4.415   4.514
53136W        W18396  15.295  39.649  14.396
53137W        W18397  26.214  19.564  12.507
53138W        W18398  31.959  13.573   0.866
53139W        W18399   3.363  17.554   2.201
53140W        W18400  44.446  32.392   3.195
53141W        W18401   4.937  12.054  10.904
53142W        W18402   9.033   4.209  13.010
53143W        W18403  25.461  22.079   3.763
53144W        W18404  17.331  33.628   2.849
53145W        W18405  26.286   0.496  10.187
53146W        W18406  29.128  36.305   4.665
53147W        W18407  33.472  27.784   3.998
53148W        W18408  18.011   4.617   2.153
53149W        W18409   6.186  19.740  11.790
53150W        W18410   4.293  33.645   4.363
53151W        W18411  10.654  40.772  12.009
53152W        W18412  16.335  42.261   2.763
53153W        W18413  23.699  22.533   1.425
53154W        W18414  33.624  31.595   3.258
53155W        W18415  32.231  43.475   1.425
53156W        W18416  15.594  44.862   1.749
53157W        W18417   9.271   7.572  12.297
53158W        W18418  13.247  31.897  10.643
53159W        W18419  22.983  25.992   3.637
53160W        W18420  34.071  16.333  13.407
53161W        W18421  23.157   3.409   0.962
53162W        W18422  17.564   3.374  11.468
53163W        W18423  26.901  36.547  13.952
53164W        W18424  29.322  26.599  10.682
53165W        W18425  12.355  16.596   0.373
53166W        W18426  38.056  44.230  13.937
53167W        W18427  34.295  44.360   2.818
53168W        W18428  38.071   4.283  12.415
53169W        W18429  11.241  39.565   1.728
53170W        W18430  39.416  37.558  12.002
53171W        W18431   5.293  41.896   2.342
53172W        W18432  38.934  23.104  13.310
53173W        W18433  30.693  42.734  14.437
53174W        W18434  12.182  38.884  14.411
53175W        W18435  36.196  18.231   1.435
53176W        W18436   0.911  22.923  14.501
53177W        W18437  42.420  41.094  12.615
53178W        W18438   5.422  26.499   5.279
53179W        W18439  43.399  39.461  11.012
53180W        W18440  23.355  43.382   3.072
53181W        W18441  33.588   5.956   3.609
53182W        W18442  32.096  30.014   3.899
53183W        W18443  30.026  42.724  12.556
53184W        W18444  42.222  38.726   0.104
53185W        W18445  27.650  39.410   3.174
53186W        W18446   3.683  42.087   3.681
53187W        W18447   9.749  19.789  14.012
53188W        W18448  29.008  36.635  13.975
53189W        W18449  24.613  28.781   1.173
53190W        W18450  21.061   7.908   2.274
53191W        W18451  26.593  37.030   3.791
53192W        W18452  30.573  31.727  13.111
53193W        W18453   6.141  15.342  13.575
53194W        W18454  14.123   6.914   1.316
53195W        W18455   2.072  40.941  12.406
53196W        W18456  38.431  29.135  14.856
53197W        W18457  42.839  28.140  13.939
53198W        W18458  28.112  34.474   1.838
53199W        W18459  37.799   6.044  10.334
53200W        W18460  16.341  27.252  10.744
53201W        W18461  17.012  44.305  14.999
53202W        W18462  40.790  38.836   0.496
53203W        W18463   5.214  35.652   1.342
53204W        W18464  33.160  25.197   1.904
53205W        W18465   9.419  33.185   2.597
53206W        W18466  29.225  22.658  11.745
53207W        W18467   0.022   1.823  10.711
53208W        W18468  32.398  17.443  12.371
53209W        W18469  21.856  25.725  11.539
53210W        W18470   2.996  20.793   1.122
53211W        W18471  37.433   7.549   2.703
53212W        W18472  10.352  40.270   2.800
53213W        W18473  40.746  44.137  14.935
53214W        W18474  32.086   5.705  11.031
53215W        W18475   7.932   6.046  10.785
53216W        W18476  17.383  35.905   0.930
53217W        W18477  39.959  28.719   4.631
53218W        W18478  32.384  37.965   3.986
53219W        W18479   1.038  36.652   0.780
53220W        W18480  13.649  11.662   1.973
53221W        W18481  31.400  12.624   3.729
53222W        W18482  25.538  14.078  14.285
53223W        W18483  21.539  22.564   2.413
53224W        W18484  28.839  29.843   2.311
53225W        W18485  34.648  39.459  12.461
53226W        W18486  11.133  30.134   4.586
53227W        W18487  42.004  23.530   0.918
53228W        W18488  20.474   1.127  11.190
53229W        W18489   0.044  24.406   1.801
53230W        W18490  26.329  17.429   2.002
53231W        W18491   1.226  41.862   1.761
53232W        W18492  43.103   4.427   3.843
53233W        W18493   4.465  10.336  14.589
53234W        W18494  11.147  24.614   3.281
53235W        W18495   7.878  29.733   0.536
53236W        W18496   8.448  38.348   4.120
53237W        W18497  29.690  18.545  12.057
53238W        W18498  13.090   0.701  14.720
53239W        W18499  23.402  25.489  12.636
53240W        W18500  27.345  26.204  11.235
53241W        W18501  14.967  32.154  13.901
53242W        W18502  25.784  42.140   3.815
53243W        W18503  28.205   2.515  14.331
53244W        W18504  42.856  40.157   2.353
53245W        W18505  42.967  38.262   2.143
53246W        W18506  13.801  18.447  12.815
53247W        W18507   3.692  41.977   2.821
53248W        W18508  39.139   8.207  11.134
53249W        W18509  19.068  33.055   1.707
53250W        W18510  15.241  26.442   0.013
53251W        W18511  24.059   7.414   1.638
53252W        W18512  22.032  29.555   1.256
53253W        W18513  21.065  41.282   2.310
53254W        W18514  27.419  25.547  13.351
53255W        W18515  28.567  21.644   1.668
53256W        W18516  44.786  23.753  14.002
53257W        W18517  43.373  19.487  14.452
53258W        W18518   3.118  42.159  11.118
53259W        W18519  18.569  12.291  11.160
53260W        W18520  17.068   9.896  13.399
53261W        W18521   0.146   0.281  14.946
53262W        W18522  13.672   3.874   0.069
53263W        W18523  39.330   7.764   4.609
53264W        W18524   0.782  20.152  13.515
53265W        W18525  35.866  18.601   0.178
53266W        W18526  13.050  26.026   5.094
53267W        W18527   8.438  37.494  12.091
53268W        W18528   3.960  15.013   1.348
53269W        W18529  16.983  30.164   0.148
53270W        W18530   1.724  23.237  12.847
53271W        W18531  37.772   0.216   3.601
53272W        W18532  44.674   1.783   1.408
53273W        W18533  33.706  26.061   1.382
53274W        W18534  29.276  35.651   3.265
53275W        W18535  23.136  42.280   1.239
53276W        W18536  39.749   2.237  14.782
53277W        W18537  43.030  36.336   2.313
53278W        W18538  30.610  40.315   4.698
53279W        W18539  30.239   8.638  13.090
53280W        W18540  30.115  37.477   4.529
53281W        W18541   4.910  37.481   1.234
53282W        W18542   3.519  37.003   0.416
53283W        W18543  25.917  24.875   5.008
53284W        W18544  12.082  18.029  11.936
53285W        W18545  43.683   3.957  12.699
53286W        W18546  31.382  40.103   0.218
53287W        W18547   6.170  34.563  14.819
53288W        W18548  28.530  20.223  11.630
53289W        W18549   8.824  34.878   4.645
53290W        W18550   2.425   9.372   0.315
53291W        W18551  24.180  30.097   4.836
53292W        W18552   4.361  27.653   2.700
53293W        W18553  12.735  37.549  10.977
53294W        W18554   4.260  29.064  13.421
53295W        W18555   2.164  32.637   2.930
53296W        W18556  27.493  13.538   1.509
53297W        W18557  14.350  31.066   3.727
53298W        W18558   8.396  10.655   2.146
53299W        W18559   6.561  11.913  13.935
53300W        W18560  34.326   1.065  11.173
53301W        W18561  11.108  14.741   0.262
53302W        W18562  39.765  44.673  11.569
53303W        W18563  10.960  10.843   5.910
53304W        W18564  42.404  30.298   0.427
53305W        W18565  43.840  24.784  14.385
53306W        W18566  31.452  22.267   0.425
53307W        W18567  16.595  24.889   1.305
53308W        W18568  22.502  27.210   0.413
53309W        W18569  14.926  42.424  10.685
53310W        W18570   4.719   8.449   4.972
53311W        W18571  40.980  31.061  11.528
53312W        W18572  11.183   0.749  11.648
53313W        W18573  33.460  10.242   1.877
53314W        W18574  42.801  34.215   3.997
53315W        W18575  12.158  23.628   4.413
53316W        W18576  18.913  27.499  14.586
53317W        W18577  33.574  32.147   3.175
53318W        W18578  17.705   0.983  12.841
53319W        W18579  34.310   7.864  11.155
53320W        W18580  34.005  35.080   0.450
53321W        W18581  23.346  40.773   0.353
53322W        W18582  18.749  35.877  13.332
53323W        W18583  13.321  41.316   2.976
53324W        W18584  20.084  41.934   0.835
53325W        W18585   7.435   8.275  12.811
53326W        W18586  24.665  14.130   4.192
53327W        W18587  31.073  36.592  13.378
53328W        W18588   0.953  27.304  12.680
53329W        W18589  35.837  37.655   2.783
53330W        W18590  40.280  39.950  12.130
53331W        W18591  27.261  28.980  13.867
53332W        W18592  27.417  10.154   2.812
53333W        W18593   3.359  24.170   0.287
53334W        W18594   7.747   7.672  12.905
53335W        W18595  30.913   5.247  14.808
53336W        W18596  43.414  13.242  12.811
53337W        W18597   6.181  22.106   2.277
53338W        W18598   6.915  33.937  11.157
53339W        W18599  25.693  35.554   5.413
53340W        W18600   1.709  21.975   0.412
53341W        W18601  42.028  13.622   1.312
53342W        W18602   3.013  12.079  11.737
53343W        W18603  43.986  11.592  11.131
53344W        W18604   2.929  15.010  14.457
53345W        W18605  43.801  13.580  13.035
53346W        W18606  14.745  35.537  13.849
53347W        W18607  44.767  10.151   4.726
53348W        W18608  26.128   4.447  13.436
53349W        W18609  36.647  24.945  14.395
53350W        W18610  30.831  30.861   4.760
53351W        W18611  25.196  21.070   0.807
53352W        W18612  26.110   8.864   0.808
53353W        W18613  30.366  34.485   2.400
53354W        W18614  25.986  30.549  13.981
53355W        W18615  42.408  24.890  12.078
53356W        W18616   2.040  17.568   1.663
53357W        W18617  29.479  36.647   4.456
53358W        W18618  37.317   4.815   0.931
53359W        W18619   1.972  40.126   0.908
53360W        W18620   3.190  18.045   2.007
53361W        W18621  35.021  36.380  10.560
53362W        W18622  20.190  26.102   1.508
53363W        W18623   3.344   1.824   3.283
53364W        W18624  37.561  31.120   4.105
53365W        W18625  36.640  29.119   4.173
53366W        W18626  31.952  33.592  13.348
53367W        W18627  44.055  12.157  14.436
53368W        W18628  44.037  28.480   0.286
53369W        W18629  25.321   3.755  12.113
53370W        W18630  42.329  43.419   0.117
53371W        W18631  25.322  36.782   3.533
53372W        W18632   9.762  41.972  13.118
53373W        W18633  37.352  25.259  14.816
53374W        W18634  37.289  44.418  14.525
53375W        W18635  32.648  22.858  12.080
53376W        W18636  26.016  27.985   2.921
53377W        W18637  22.832  11.038  12.300
53378W        W18638  12.179  38.917   2.938
53379W        W18639   8.102  14.375  14.706
53380W        W18640  24.306  12.823  11.105
53381W        W18641  40.299  12.677   1.897
53382W        W18642   9.681  32.023   1.853
53383W        W18643   9.570  38.370  14.782
53384W        W18644  38.503  36.861  13.974
53385W        W18645  35.312  18.982   2.260
53386W        W18646  21.808   2.285   3.585
53387W        W18647  21.073  31.607  14.764
53388W        W18648  16.448  13.069  11.149
53389W        W18649  41.023  20.151   0.795
53390W        W18650  30.011  42.860   1.740
53391W        W18651  30.104  38.398  12.328
53392W        W18652   6.235  42.078   3.769
53393W        W18653   3.373  15.345  12.996
53394W        W18654   0.697  20.482  11.697
53395W        W18655  39.635  15.744  12.938
53396W        W18656   3.823  43.501   1.653
53397W        W18657  17.693  12.258   0.729
53398W        W18658   7.187   3.369   0.892
53399W        W18659  25.487   5.145  11.912
53400W        W18660   9.702   3.198  12.202
53401W        W18661   6.762  21.153   3.044
53402W        W18662  16.754  23.224   4.119
53403W        W18663  22.293  19.071  10.969
53404W        W18664  19.285  23.604  14.220
53405W        W18665  39.055  31.515  12.034
53406W        W18666  12.519   3.502  14.489
53407W        W18667  18.682  11.915   2.593
53408W        W18668   1.022  16.720  10.826
53409W        W18669  26.697  31.194  10.624
53410W        W18670  14.232  23.331   0.681
53411W        W18671   0.901  10.154   1.402
53412W        W18672  32.619  39.385  11.609
53413W        W18673  42.810  16.178  11.646
53414W        W18674   0.299  35.013   4.572
53415W        W18675  41.404  14.924   9.864
53416W        W18676  35.216  43.274   2.752
53417W        W18677   2.737   5.397  12.215
53418W        W18678  38.154  29.661  11.010
53419W        W18679  36.557  44.915   3.236
53420W        W18680  38.512   6.367  11.091
53421W        W18681   7.918  14.070  11.315
53422W        W18682  22.311   7.858   0.822
53423W        W18683  40.923  27.197   2.830
53424W        W18684   2.676   2.910   2.017
53425W        W18685  19.082  42.368   0.240
53426W        W18686   4.266  15.325  13.377
53427W        W18687   1.819  26.161  12.155
53428W        W18688  34.656  44.315   0.409
53429W        W18689  15.216  26.892  11.666
53430W        W18690   7.430  26.010   0.691
53431W        W18691  37.281  27.490  14.772
53432W        W18692  30.881  38.929  12.517
53433W        W18693   7.682  32.649   4.071
53434W        W18694  13.651  12.573   1.730
53435W        W18695  28.030  11.647  14.960
53436W        W18696  12.831  18.755   2.325
53437W        W18697  41.930   5.167  11.149
53438W        W18698  24.001  20.098  14.029
53439W        W18699  22.713  35.040   3.131
53440W        W18700  35.364  29.422  14.803
53441W        W18701  23.581  31.974   1.217
53442W        W18702  18.027   2.934  14.390
53443W        W18703  43.806  29.095   3.734
53444W        W18704  27.146   2.327   3.124
53445W        W18705  30.393  44.237  11.991
53446W        W18706  10.698  26.314  12.546
53447W        W18707  32.107   0.943  10.622
53448W        W18708  25.972  32.877   4.566
53449W        W18709  33.354   7.814  12.079
53450W        W18710  16.811  38.400   2.724
53451W        W18711  16.792  10.303   0.752
53452W        W18712  40.191  28.174   0.269
53453W        W18713  22.567  27.658  14.352
53454W        W18714  12.800   2.636  14.916
53455W        W18715   6.686   8.011  12.512
53456W        W18716  10.346  35.967   0.860
53457W        W18717  17.034  33.096  14.076
53458W        W18718  29.584  27.422   2.775
53459W        W18719  23.615  17.806  13.971
53460W        W18720  32.001   1.108   3.822
53461W        W18721  26.950  11.202  10.286
53462W        W18722   1.900  31.781   2.178
53463W        W18723   7.846  22.635  13.044
53464W        W18724  37.552  24.934   4.303
53465W        W18725  41.973   7.828   0.423
53466W        W18726  26.638  39.898   4.946
53467W        W18727   2.429  29.215  14.421
53468W        W18728  29.979  34.164   3.611
53469W        W18729   1.712  41.003   1.646
53470W        W18730  31.091  20.078   0.358
53471W        W18731  27.951  35.815   4.131
53472W        W18732  33.042   6.166   3.932
53473W        W18733   4.293  17.817   1.262
53474W        W18734  22.075  41.244   3.892
53475W        W18735  13.568  25.163  13.021
53476W        W18736   7.344  10.961  12.355
53477W        W18737  23.772   2.540  11.568
53478W        W18738   8.807   3.505  14.805
53479W        W18739  22.107  20.289   1.261
53480W        W18740  27.471  44.285  10.425
53481W        W18741  29.696  12.656  10.720
53482W        W18742  18.715  27.148   1.436
53483W        W18743  38.375  39.363   2.150
53484W        W18744  20.033   8.847  14.596
53485W        W18745  15.421  44.687   0.343
53486W        W18746  15.141  36.537  13.330
53487W        W18747  30.477   8.238  10.998
53488W        W18748  33.915  42.821  13.467
53489W        W18749  16.113  44.074   2.298
53490W        W18750  19.559  20.231   3.046
53491W        W18751   1.950   2.257  14.757
53492W        W18752  43.522  43.467  14.432
53493W        W18753   8.697   8.625   4.972
53494W        W18754  35.254  22.603  11.168
53495W        W18755  20.147  13.677   2.130
53496W        W18756  28.614   6.228  11.289
53497W        W18757  33.782  10.863   0.970
53498W        W18758  21.833  11.836  12.572
53499W        W18759  27.087  26.407   3.257
53500W        W18760  27.494  13.233   3.635
53501W        W18761   8.210   9.762  10.467
53502W        W18762   9.621  31.524  11.465
53503W        W18763   9.925  39.964  14.739
53504W        W18764  33.465  31.643  11.125
53505W        W18765   2.855   6.327  14.140
53506W        W18766  20.454   2.572  14.012
53507W        W18767  34.594   7.314   3.149
53508W        W18768  29.168  34.630   3.455
53509W        W18769  20.709   8.749   1.834
53510W        W18770  35.787   1.555   0.845
53511W        W18771  19.210  11.927  14.550
53512W        W18772  29.974  41.865   4.126
53513W        W18773  23.461  28.555  14.338
53514W        W18774  33.214   8.687  12.888
53515W        W18775  26.181  21.487  14.553
53516W        W18776  20.424  24.947  12.214
53517W        W18777  21.111   2.783  13.055
53518W        W18778  29.618   4.037   3.365
53519W        W18779  41.899  32.664   1.737
53520W        W18780  13.492  17.563  10.666
53521W        W18781   8.075  10.037   1.503
53522W        W18782   3.759   8.765  10.452
53523W        W18783  11.276  27.591   0.267
53524W        W18784  16.260   4.950  13.164
53525W        W18785  31.603  13.707   3.111
53526W        W18786  26.154   1.371  12.094
53527W        W18787  43.096  37.810  12.703
53528W        W18788  40.869  29.703  14.630
53529W        W18789  31.960  38.262   4.576
53530W        W18790  32.522   7.167   1.771
53531W        W18791  21.250  40.811  10.699
53532W        W18792  12.607  35.977  12.008
53533W        W18793   0.812  37.378  13.485
53534W        W18794   8.583  43.296   0.783
53535W        W18795  16.038  29.523   4.145
53536W        W18796  32.037  40.422  12.039
53537W        W18797   2.939  36.393   3.216
53538W        W18798  11.614  16.251  14.956
53539W        W18799  16.296   9.143  10.287
53540W        W18800  13.859  22.224  10.992
53541W        W18801  30.147  30.493  14.397
53542W        W18802  19.978  22.100   2.670
53543W        W18803  10.710  40.900   4.373
53544W        W18804   0.400  41.257   0.552
53545W        W18805  22.909   1.826   4.138
53546W        W18806   9.216  44.768   4.614
53547W        W18807  16.843  14.622  10.467
53548W        W18808  44.257  43.991  14.231
53549W        W18809   4.273  26.653   4.056
53550W        W18810  15.305   7.728   4.606
53551W        W18811  23.026  38.567  13.354
53552W        W18812  25.572  26.993   0.743
53553W        W18813  13.707  32.897   2.930
53554W        W18814  13.881  17.494  10.981
53555W        W18815  16.952  29.934   4.113
53556W        W18816   7.330   2.435   2.308
53557W        W18817   6.719  25.490  13.938
53558W        W18818  11.049  40.418  12.892
53559W        W18819  21.846  11.785   4.272
53560W        W18820  16.233  26.506   1.912
53561W        W18821  42.022  30.272  11.720
53562W        W18822  25.302  32.115  10.647
53563W        W18823  21.919  39.917   2.261
53564W        W18824  30.941  26.386   2.365
53565W        W18825  31.085  10.312   2.876
53566W        W18826   2.161  42.756  13.413
53567W        W18827  13.055   3.832  10.598
53568W        W18828   2.439  39.647  10.510
53569W        W18829  34.091  31.770  12.440
53570W        W18830   8.121  32.503   0.381
53571W        W18831  21.737  33.041  12.497
53572W        W18832  22.589  22.394  11.322
53573W        W18833   5.270  18.758  12.155
53574W        W18834  20.652  32.212   0.358
53575W        W18835  19.986  31.891   1.464
53576W        W18836  42.549  41.129   4.772
53577W        W18837  43.936  31.408   1.746
53578W        W18838   4.431  40.237  14.298
53579W        W18839  32.982   8.431  13.905
53580W        W18840  10.727  12.604  10.631
53581W        W18841  38.223  11.004  12.412
53582W        W18842  36.089  26.947  14.867
53583W        W18843  33.895  32.527   2.021
53584W        W18844  20.219   6.560   3.088
53585W        W18845  42.974   9.185   0.050
53586W        W18846  27.672  25.962   1.973
53587W        W18847  22.962  18.515   0.474
53588W        W18848   8.896  22.168   2.755
53589W        W18849   1.934  41.587   3.398
53590W        W18850  19.028   2.714  12.480
53591W        W18851  21.273   4.655   3.875
53592W        W18852  35.020  24.757   2.153
53593W        W18853  26.724   6.673  12.975
53594W        W18854  27.470  12.794   4.412
53595W        W18855  38.518  41.399   4.135
53596W        W18856  16.095  43.272   2.798
53597W        W18857  10.956  22.730   1.864
53598W        W18858   7.911   8.227   3.327
53599W        W18859  24.097  31.649  13.680
53600W        W18860  35.002   1.798  12.051
53601W        W18861   9.061  17.872   2.662
53602W        W18862  28.073   2.146  12.095
53603W        W18863  40.578  35.479   2.540
53604W        W18864  43.401   0.237   4.719
53605W        W18865  39.979  23.163  12.605
53606W        W18866  37.042  41.823   0.490
53607W        W18867   8.303   9.654  13.474
53608W        W18868  39.253   2.298  10.286
53609W        W18869  19.982   9.826  14.322
53610W        W18870  32.447  22.971   2.656
53611W        W18871  26.588  34.576  12.987
53612W        W18872  42.448  38.660  10.626
53613W        W18873  26.178   5.035  11.651
53614W        W18874  42.925  21.622  13.742
53615W        W18875  41.362  10.591  11.487
53616W        W18876  42.889   5.899  11.703
53617W        W18877  26.655  39.600   0.828
53618W        W18878  37.921   7.359   2.752
53619W        W18879  44.533  33.018  11.919
53620W        W18880   9.862  33.978   1.291
53621W        W18881  40.423  21.950  14.293
53622W        W18882   1.327  10.874  12.928
53623W        W18883   2.731   0.202  14.743
53624W        W18884  10.125  16.278  11.774
53625W        W18885   5.702   6.176   4.450
53626W        W18886  17.214  42.767   2.913
53627W        W18887  42.702  28.667  10.475
53628W        W18888  26.160  39.590   2.861
53629W        W18889  43.564  16.716   1.787
53630W        W18890  38.453  11.879  11.250
53631W        W18891  29.127  13.822  11.138
53632W        W18892  17.454  12.133   2.018
53633W        W18893  19.969  22.784  14.917
53634W        W18894  13.142  17.690   2.901
53635W        W18895  38.542  31.540  12.975
53636W        W18896  11.356  41.467   2.865
53637W        W18897  15.046  37.301   3.773
53638W        W18898  22.657   7.092  13.928
53639W        W18899   4.536  26.064   3.737
53640W        W18900  41.817   9.402  13.108
53641W        W18901   1.376  27.251   1.413
53642W        W18902   0.405  20.560   0.970
53643W        W18903  11.903  35.188  11.125
53644W        W18904  22.919  44.915   0.877
53645W        W18905  29.875  10.769  12.806
53646W        W18906  23.343  30.632  10.714
53647W        W18907  35.120  24.962   1.685
53648W        W18908  31.531  38.363   3.650
53649W        W18909  30.671  14.858   4.432
53650W        W18910   4.797  38.849  12.898
53651W        W18911  44.316  39.823  11.795
53652W        W18912  41.497  24.700  10.582
53653W        W18913  27.421  38.743  14.456
53654W        W18914  39.226  20.652   3.633
53655W        W18915  17.851   6.864   0.625
53656W        W18916  43.541   7.324   0.419
53657W        W18917   4.190  42.770   2.480
53658W        W18918  19.189  38.125  13.988
53659W        W18919  30.234  40.935  12.909
53660W        W18920  18.508  32.150  13.277
53661W        W18921   5.827  32.297  10.912
53662W        W18922  33.057  16.493   2.686
53663W        W18923  14.810  34.493   3.372
53664W        W18924  14.812  19.226  14.875
53665W        W18925  15.135   7.906   1.220
53666W        W18926  28.720  33.088  13.419
53667W        W18927  32.399  22.726   3.264
53668W        W18928  41.781  33.884   1.725
53669W        W18929  41.772  12.828  12.968
53670W        W18930  11.457  42.444   2.298
53671W        W18931  39.300   1.995   1.271
53672W        W18932   3.409   2.323   0.260
53673W        W18933  27.879  27.870  10.206
53674W        W18934  19.016  43.694  14.333
53675W        W18935  15.433  21.599   4.540
53676W        W18936  17.205   0.839   1.921
53677W        W18937   0.910  20.368  13.993
53678W        W18938  37.388  44.308  13.330
53679W        W18939   3.271  35.141   2.185
53680W        W18940   1.449   5.646  14.799
53681W        W18941  14.502  23.034   1.008
53682W        W18942  26.977  41.419   2.234
53683W        W18943  32.624  17.713  11.556
53684W        W18944  44.391  31.626   1.497
53685W        W18945  25.244  39.832  10.998
53686W        W18946  35.039  12.248  13.064
53687W        W18947  27.157  23.534   4.497
53688W        W18948  34.959  41.099  10.712
53689W        W18949  16.544   6.383   1.223
53690W        W18950  27.624  19.837  11.690
53691W        W18951   9.277   9.625   2.405
53692W        W18952  16.353  10.353   0.022
53693W        W18953   3.398  44.013  12.022
53694W        W18954  12.264  12.790   3.792
53695W        W18955  42.453   0.267   3.158
53696W        W18956   8.130  14.076   3.607
53697W        W18957  27.099   4.893   0.821
53698W        W18958  30.459  19.041  13.549
53699W        W18959  24.177  19.576   0.232
53700W        W18960  27.682  41.855   2.440
53701W        W18961  43.904  30.619   1.002
53702W        W18962  31.358  30.948  10.380
53703W        W18963   5.141  21.685  10.713
53704W        W18964  27.215   5.609  13.605
53705W        W18965   2.478  37.467   5.185
53706W        W18966  23.724   4.455  12.403
53707W        W18967   6.845   7.704  12.974
53708W        W18968  29.555   6.144  10.204
53709W        W18969   0.993  25.362   2.211
53710W        W18970  11.803  26.256  14.499
53711W        W18971  10.978  11.470  12.299
53712W        W18972  29.632  22.857  12.693
53713W        W18973   1.329  27.755   3.218
53714W        W18974   9.353  43.252   0.214
53715W        W18975  32.376  41.791   1.222
53716W        W18976   2.453  33.945   3.631
53717W        W18977  22.869  29.030  13.128
53718W        W18978  42.322  17.612  14.998
53719W        W18979  11.581   1.607  11.666
53720W        W18980  21.028  27.170   1.271
53721W        W18981  12.268  23.001  10.809
53722W        W18982  40.038  20.455   0.807
53723W        W18983  44.316  37.984   1.624
53724W        W18984  25.561  26.168  13.714
53725W        W18985  14.103  14.572  14.030
53726W        W18986  26.608  40.261  13.035
53727W        W18987  15.983  25.995  11.075
53728W        W18988  17.351  43.290  12.009
53729W        W18989  10.918  16.728  13.814
53730W        W18990   7.428  34.113  14.787
53731W        W18991  13.695  42.212   0.307
53732W        W18992   8.895  25.989   3.397
53733W        W18993  24.220  12.395  14.599
53734W        W18994  32.407  11.123   1.365
53735W        W18995  35.408   0.513  11.715
53736W        W18996  34.377  30.123  12.467
53737W        W18997   1.751  44.672   2.761
53738W        W18998   9.230   3.237   3.134
53739W        W18999  32.522  13.325  13.030
53740W        W19000  29.466  31.529  11.147
53741W        W19001  25.009  31.843  10.293
53742W        W19002  32.107  20.038   4.063
53743W        W19003  16.915  23.149  13.444
53744W        W19004  34.521  28.024  11.535
53745W        W19005  30.539  20.070  10.391
53746W        W19006   1.915  14.607  13.923
53747W        W19007  21.716   9.730   0.905
53748W        W19008  32.315  41.985   4.189
53749W        W19009  28.675  10.521   2.728
53750W        W19010   4.938   0.226   1.497
53751W        W19011  35.759  20.963   2.448
53752W        W19012  12.547  34.318   3.998
53753W        W19013  20.084  40.863  14.782
53754W        W19014   0.832  33.548   0.690
53755W        W19015  16.541  41.645  12.829
53756W        W19016  23.472  19.692  14.886
53757W        W19017  38.500  13.843   1.844
53758W        W19018  36.160  30.504   4.047
53759W        W19019  24.942  39.498   4.563
53760W        W19020   5.136   7.737   1.873
53761W        W19021  27.428  38.829   0.865
53762W        W19022  31.956   9.208  11.966
53763W        W19023  18.500   7.420   4.411
53764W        W19024  13.768  33.489  12.548
53765W        W19025  41.876   7.424  10.397
53766W        W19026  26.527  24.247   4.110
53767W        W19027  36.453  40.437  12.598
53768W        W19028   2.890  44.566   1.925
53769W        W19029  43.457   2.227   3.880
53770W        W19030  23.210  16.692   1.804
53771W        W19031  33.099  14.026   4.517
53772W        W19032  44.789  14.118  14.763
53773W        W19033   4.196  38.001  12.446
53774W        W19034  40.395  28.615  12.973
53775W        W19035  39.968  37.117   2.037
53776W        W19036  11.652   5.212  12.382
53777W        W19037   0.064  21.783  13.244
53778W        W19038  32.443   1.333  10.677
53779W        W19039  15.581  13.703  11.173
53780W        W19040   4.377  13.078  13.944
53781W        W19041  12.677   8.811   4.620
53782W        W19042  10.881  13.822   0.812
53783W        W19043  22.734  39.406   2.399
53784W        W19044  26.087  41.984  13.092
53785W        W19045  14.273  38.492   4.204
53786W        W19046  28.138  25.903  11.102
53787W        W19047  37.950   9.227  10.427
53788W        W19048  32.935  19.029  10.330
53789W        W19049   5.703   3.324   1.115
53790W        W19050   2.243   7.798   3.720
53791W        W19051  42.532   2.414  13.392
53792W        W19052  10.945  44.684  11.188
53793W        W19053  10.086  30.112   1.769
53794W        W19054  12.243  37.052  12.500
53795W        W19055  39.545  37.874  13.329
53796W        W19056  29.625   4.800  11.463
53797W        W19057  14.612  19.083   4.771
53798W        W19058  42.361  16.141  10.783
53799W        W19059  21.951   0.684  11.106
53800W        W19060  21.113  41.865  14.022
53801W        W19061  13.338  21.194  11.793
53802W        W19062  13.283  14.484   4.614
53803W        W19063  31.379  17.884  11.669
53804W        W19064  22.081   5.183   1.456
53805W        W19065  35.824   8.256  13.126
53806W        W19066  25.802  40.524   3.145
53807W        W19067  30.878  14.358  12.458
53808W        W19068  40.698  17.880   4.541
53809W        W19069  24.081  13.690  14.181
53810W        W19070   6.181  37.058  11.639
53811W        W19071  19.587  24.347  14.848
53812W        W19072  18.176  17.697   1.402
53813W        W19073  22.027  25.674  12.459
53814W        W19074  25.592  13.887   1.178
53815W        W19075   0.922  18.074   2.901
53816W        W19076  13.783  43.232   1.318
53817W        W19077  28.372  40.779   1.350
53818W        W19078  19.575   4.060  11.605
53819W        W19079  25.987  35.138   2.134
53820W        W19080  25.491   9.296   0.485
53821W        W19081   9.751  13.724   1.718
53822W        W19082   6.683   6.878   2.440
53823W        W19083   4.394  12.361  14.457
53824W        W19084  10.207  41.788   3.264
53825W        W19085   8.309   5.999   3.925
53826W        W19086  18.624  17.676  10.593
53827W        W19087  34.344   4.372   4.976
53828W        W19088  43.532  34.366  12.275
53829W        W19089   0.260  17.710   3.132
53830W        W19090  43.477   0.314  11.027
53831W        W19091  33.519  10.698  14.324
53832W        W19092  22.537  17.647  13.612
53833W        W19093  43.760  37.332   3.443
53834W        W19094  34.324  44.760  13.158
53835W        W19095  18.277  35.364  11.432
53836W        W19096  17.975  14.887   0.394
53837W        W19097   1.606   5.555  12.990
53838W        W19098   9.156  39.963  12.077
53839W        W19099   9.081  38.307   1.224
53840W        W19100  13.304  33.136   2.633
53841W        W19101  18.869  37.294   2.589
53842W        W19102  36.379  35.123   0.920
53843W        W19103  34.313  39.547  12.844
53844W        W19104  15.335   8.474  12.495
53845W        W19105  27.758  30.584   1.402
53846W        W19106  17.976   7.914   3.694
53847W        W19107  42.746  41.002  11.650
53848W        W19108  44.319   3.789  11.420
53849W        W19109  38.148  15.172  14.234
53850W        W19110  39.422  38.062   0.388
53851W        W19111  15.290  18.786   0.408
53852W        W19112  28.086   4.959   1.900
53853W        W19113  17.801  13.270   2.771
53854W        W19114  22.788   9.302  13.987
53855W        W19115  35.844  25.911   2.351
53856W        W19116  29.227  29.314  11.155
53857W        W19117   0.795   8.216  11.680
53858W        W19118  21.592  10.191   0.181
53859W        W19119  37.132  23.548  12.845
53860W        W19120  22.699  25.997  13.496
53861W        W19121  43.330  35.283  11.159
53862W        W19122  24.917  11.759  14.431
53863W        W19123  16.180  31.481  14.763
53864W        W19124  23.343  24.168   3.181
53865W        W19125   9.674  19.984  14.857
53866W        W19126  30.911  30.233   4.148
53867W        W19127   9.685  25.369  12.356
53868W        W19128  26.188  16.508   2.653
53869W        W19129  13.220  42.507   0.410
53870W        W19130  31.364  33.044   1.330
53871W        W19131  25.452   0.927   4.704
53872W        W19132   8.873  24.447   4.066
53873W        W19133  26.716  36.804  12.106
53874W        W19134  37.427   7.439   4.581
53875W        W19135   3.123  11.590  12.953
53876W        W19136   6.352  40.334   2.402
53877W        W19137  35.006  22.316  11.574
53878W        W19138  15.741  40.498   2.635
53879W        W19139  10.325  36.462  12.060
53880W        W19140  42.914   2.805   0.021
53881W        W19141  40.328  37.487   1.935
53882W        W19142  40.181   4.886   0.369
53883W        W19143  12.291   7.901  10.270
53884W        W19144  37.855   6.396  12.141
53885W        W19145   5.953  41.887  12.939
53886W        W19146  40.942  15.812   0.337
53887W        W19147   6.309  29.473   1.820
53888W        W19148  33.083   7.647  14.422
53889W        W19149   8.219  24.454  11.962
53890W        W19150  20.718  33.298   0.936
53891W        W19151  15.330  21.401   2.528
53892W        W19152  11.633  39.083   3.796
53893W        W19153  39.610  17.673   2.749
53894W        W19154   5.799  19.574  12.593
53895W        W19155  18.168  42.198  13.813
53896W        W19156  38.719  28.052   1.958
53897W        W19157  44.873  35.562  10.331
53898W        W19158   3.987  25.113   0.740
53899W        W19159   4.904  38.384   1.737
53900W        W19160  23.708  36.913   4.660
53901W        W19161  44.195  38.387  14.563
53902W        W19162  37.410  14.248   1.270
53903W        W19163   0.651  41.998  10.694
53904W        W19164   6.162  23.295  14.931
53905W        W19165  28.400  14.177  11.008
53906W        W19166  14.789  32.500  13.522
53907W        W19167   5.812   3.754   1.914
53908W        W19168   5.170   7.629   3.376
53909W        W19169  35.546  19.315   4.344
53910W        W19170  38.618  22.560   4.821
53911W        W19171  31.028  13.233  13.976
53912W        W19172  18.762   9.602  12.093
53913W        W19173  24.563  15.011  13.792
53914W        W19174  35.588   8.744  11.239
53915W        W19175  43.326  42.204   0.836
53916W        W19176  36.885  26.009   1.081
53917W        W19177  28.691  32.167   3.169
53918W        W19178  22.236   9.105  13.130
53919W        W19179  33.527  29.107  11.049
53920W        W19180  13.117   4.183   4.516
53921W        W19181   0.386  20.109  10.773
53922W        W19182  17.604  25.743   1.789
53923W        W19183  23.492  21.053  14.951
53924W        W19184  42.533   6.243   0.267
53925W        W19185  23.964  29.203  13.450
53926W        W19186  35.683  14.277  11.956
53927W        W19187  13.662  30.074   0.106
53928W        W19188   5.254  11.661   4.138
53929W        W19189  34.445  27.975  13.861
53930W        W19190   9.784  13.268  14.584
53931W        W19191  32.458  13.338   0.798
53932W        W19192   0.825  17.449   4.512
53933W        W19193  27.911  12.310  13.212
53934W        W19194  35.031   0.919  11.537
53935W        W19195   2.888  30.579   0.840
53936W        W19196  31.528   6.764  11.106
53937W        W19197  41.564  27.988   1.430
53938W        W19198  26.168  21.556   5.416
53939W        W19199  36.053  36.136  12.959
53940W        W19200   0.874  38.824  14.451
53941W        W19201  37.961  37.559  12.106
53942W        W19202   9.023  22.300  14.040
53943W        W19203  13.315  28.310  12.890
53944W        W19204  43.201  19.676   1.876
53945W        W19205  35.071  42.859  12.514
53946W        W19206   7.332  14.721   4.153
53947W        W19207  26.196  39.637   4.205
53948W        W19208  42.941  13.943   1.763
53949W        W19209  16.703   8.685   0.100
53950W        W19210  12.805  30.968  10.604
53951W        W19211  17.769  18.714   2.379
53952W        W19212  31.927  16.831  14.007
53953W        W19213   0.823  33.486  11.562
53954W        W19214  19.542  19.029  14.624
53955W        W19215  18.171   4.486  12.417
53956W        W19216   7.622  32.463   0.236
53957W        W19217  24.751  21.694  11.645
53958W        W19218  13.227  39.048  13.415
53959W        W19219  36.147  19.786  10.770
53960W        W19220  32.017  18.982  11.159
53961W        W19221  15.224  38.713  11.590
53962W        W19222   8.555  32.697   4.057
53963W        W19223   0.778  20.463  10.722
53964W        W19224  35.477  41.857  14.883
53965W        W19225   3.954   2.218   0.114
53966W        W19226   8.846  23.822   0.885
53967W        W19227  34.154  29.956   4.111
53968W        W19228  35.678  16.045   0.578
53969W        W19229  23.218  26.829  10.562
53970W        W19230  27.086  30.073   4.492
53971W        W19231  39.891  42.158  13.776
53972W        W19232   3.203  31.765  12.405
53973W        W19233  28.049  26.647  13.933
53974W        W19234  11.653  29.711   3.556
53975W        W19235   8.166  26.201   1.383
53976W        W19236   4.378  37.026  13.418
53977W        W19237  41.823   4.248   4.132
53978W        W19238  29.341  13.260  14.246
53979W        W19239  37.673  13.347  12.026
53980W        W19240  32.611  41.884  12.477
53981W        W19241  24.577  32.319   2.391
53982W        W19242   9.526   5.452   3.118
53983W        W19243   5.818   8.159  14.331
53984W        W19244  32.885  11.488  12.913
53985W        W19245  25.832  17.710  13.320
53986W        W19246  33.818  25.927   2.284
53987W        W19247  27.106  42.965   0.009
53988W        W19248   9.382   1.200  14.954
53989W        W19249  31.909   3.562   2.473
53990W        W19250  31.442  17.107   1.800
53991W        W19251  27.817   2.002   1.096
53992W        W19252  39.279  32.486  11.890
53993W        W19253   9.261  10.329   2.813
53994W        W19254  11.681   5.758  11.664
53995W        W19255  32.163  21.497  14.819
53996W        W19256  38.526  43.280  14.307
53997W        W19257  44.939  19.620  12.398
53998W        W19258  35.476  42.898   0.825
53999W        W19259   7.928  29.925  13.838
54000W        W19260  27.637  37.321   4.675
54001W        W19261  13.668  12.121   4.781
54002W        W19262  38.625  14.106   2.262
54003W        W19263  31.060  37.088  14.954
54004W        W19264  34.481  23.051  12.991
54005W        W19265  27.145   5.718  12.105
54006W        W19266  26.187   5.489   5.022
54007W        W19267  32.368  42.479  13.963
54008W        W19268  44.500   8.966   1.313
54009W        W19269  24.271   3.828  12.381
54010W        W19270  23.545  15.621  10.833
54011W        W19271  23.634  15.542   1.486
54012W        W19272  11.092   3.867   1.718
54013W        W19273  17.190  31.957  10.806
54014W        W19274  28.948  34.368   0.759
54015W        W19275  30.787  10.709   3.125
54016W        W19276  30.980  18.232  11.596
54017W        W19277  13.407  19.254   0.768
54018W        W19278   2.547  12.382   0.192
54019W        W19279  11.905   6.780   0.542
54020W        W19280  29.056  12.073  13.759
54021W        W19281   3.429  22.677  14.834
54022W        W19282   2.364  40.860   2.835
54023W        W19283  16.405  34.161   2.154
54024W        W19284  32.903  23.105  11.171
54025W        W19285  42.502  30.937   2.514
54026W        W19286  25.764  28.191  11.041
54027W        W19287  26.500  17.775   1.333
54028W        W19288  13.901  39.390   4.300
54029W        W19289  36.996  42.119  13.983
54030W        W19290   5.304   5.897  14.983
54031W        W19291  36.473  35.567  14.122
54032W        W19292  37.223  44.049   1.443
54033W        W19293  34.347  23.154  14.927
54034W        W19294  15.787  39.039   2.872
54035W        W19295  41.649  12.578  12.521
54036W        W19296  10.584  16.124   4.476
54037W        W19297  44.754  39.335  11.136
54038W        W19298  15.277  37.092  13.616
54039W        W19299   9.101  25.531  11.209
54040W        W19300  15.305  23.362   0.971
54041W        W19301   8.837  12.756   2.779
54042W        W19302  43.904  38.297   2.324
54043W        W19303   9.655  40.156   4.058
54044W        W19304  22.415  13.157   4.118
54045W        W19305   7.069  24.003  11.219
54046W        W19306  28.010   0.030  12.448
54047W        W19307  16.653  36.855  13.651
54048W        W19308  42.835  27.198   0.770
54049W        W19309   0.930  16.942   4.724
54050W        W19310  35.961   2.215  14.296
54051W        W19311  41.802   0.842  10.714
54052W        W19312  33.011   5.248   3.184
54053W        W19313  43.070  37.555   2.800
54054W        W19314  40.518  35.927  12.929
54055W        W19315  14.097   7.367  10.362
54056W        W19316  22.497   6.628  13.756
54057W        W19317   2.285   7.901  11.523
54058W        W19318  19.118  42.475   1.241
54059W        W19319  24.629  19.044  13.013
54060W        W19320  36.471   0.059  13.985
54061W        W19321   8.288   4.123   4.505
54062W        W19322   4.719   8.964  14.385
54063W        W19323   4.456  41.349  13.556
54064W        W19324  26.095  26.820  10.695
54065W        W19325  19.528  41.590   2.863
54066W        W19326  15.392  43.497  12.055
54067W        W19327  22.932  42.804   1.297
54068W        W19328  19.446   3.515  10.726
54069W        W19329  19.371  27.392   4.070
54070W        W19330   3.871  21.206   4.569
54071W        W19331  40.616  40.436  11.256
54072W        W19332  36.325   8.718  12.557
54073W        W19333  25.178  44.919   0.900
54074W        W19334  37.033  32.018  11.726
54075W        W19335  35.076   3.791   1.927
54076W        W19336   5.799  18.938  13.366
54077W        W19337  40.932  20.183  11.959
54078W        W19338  13.727  41.589  13.393
54079W        W19339   8.208  10.462   3.899
54080W        W19340  18.711  43.865  13.656
54081W        W19341  19.083  17.439  13.390
54082W        W19342   5.667   9.687  13.109
54083W        W19343  43.820  13.193  10.721
54084W        W19344  10.672  42.883   2.269
54085W        W19345  32.210  11.021   0.305
54086W        W19346  31.835   5.373  14.507
54087W        W19347  18.457  41.225   3.903
54088W        W19348  12.304   5.119   0.840
54089W        W19349  34.220  18.152   1.747
54090W        W19350  19.220  28.951  12.435
54091W        W19351   4.240  15.127  13.872
54092W        W19352  28.862  31.748   2.377
54093W        W19353  12.864  44.508  11.085
54094W        W19354  36.861  35.899  13.968
54095W        W19355  41.336  25.556   4.090
54096W        W19356   5.141   9.463   2.375
54097W        W19357  25.310  19.461   3.743
54098W        W19358  23.307   6.323   2.754
54099W        W19359  30.711  17.203  12.357
54100W        W19360  15.229   5.961  10.969
54101W        W19361   5.580   8.327   4.664
54102W        W19362  29.919  25.277  11.029
54103W        W19363  24.248  17.240  10.518
54104W        W19364   9.217  23.046  14.742
54105W        W19365  24.153   0.494  10.612
54106W        W19366   5.407  43.473   1.562
54107W        W19367  17.760   3.461  13.107
54108W        W19368  41.589  39.646   4.566
54109W        W19369  44.001  15.684   1.992
54110W        W19370  18.460  22.780  13.827
54111W        W19371  37.161   7.726  12.005
54112W        W19372   9.192  35.919  12.182
54113W        W19373   9.292   7.397  11.717
54114W        W19374  29.651  38.405   0.514
54115W        W19375  42.374  26.150   3.835
54116W        W19376  22.943  21.032   3.740
54117W        W19377  34.753   5.754   0.409
54118W        W19378  42.060   6.141   2.774
54119W        W19379  17.595   7.387   4.256
54120W        W19380  16.551  29.945   3.191
54121W        W19381   1.991   3.507  13.464
54122W        W19382   8.701  18.388   1.615
54123W        W19383  39.852  42.440   3.810
54124W        W19384   7.835  30.182  11.915
54125W        W19385  23.348   9.788   4.479
54126W        W19386  26.593  38.892   1.581
54127W        W19387  36.120   4.169  14.558
54128W        W19388  14.570  35.064   0.285
54129W        W19389  17.701  11.024  12.436
54130W        W19390   5.999  35.247   1.774
54131W        W19391   0.709   2.851  12.992
54132W        W19392  15.759  13.624   4.174
54133W        W19393  10.319  39.085  11.144
54134W        W19394  22.745   5.286  14.862
54135W        W19395  34.016  20.143  12.644
54136W        W19396  23.526  34.847  11.847
54137W        W19397  24.118  26.733  11.221
54138W        W19398   7.609  31.184   0.884
54139W        W19399   2.921  14.810   1.133
54140W        W19400  40.522  21.251   0.396
54141W        W19401  40.476  25.635   1.314
54142W        W19402   1.550  20.084   3.246
54143W        W19403   2.766   3.513  14.381
54144W        W19404  39.412  20.750  13.556
54145W        W19405  12.017  44.544   3.656
54146W        W19406  37.413  23.738   0.020
54147W        W19407  35.461  13.366  13.116
54148W        W19408  41.017  41.929   2.709
54149W        W19409  28.467   1.922  14.903
54150W        W19410  31.901  36.449   3.181
54151W        W19411  34.639  22.761   0.117
54152W        W19412  43.579   4.781   2.209
54153W        W19413  37.147  35.609  12.523
54154W        W19414   6.049   2.711   4.920
54155W        W19415  22.798  40.111   3.233
54156W        W19416  27.080   7.771   1.275
54157W        W19417   4.441  30.434  13.312
54158W        W19418  10.168   6.672   0.448
54159W        W19419   6.814   2.771   4.420
54160W        W19420  12.409  21.021  11.999
54161W        W19421   2.811  16.065  12.157
54162W        W19422  11.404  29.012  11.052
54163W        W19423  20.094  43.921   3.258
54164W        W19424   5.301  16.087   1.490
54165W        W19425  44.288   6.354   1.794
54166W        W19426  17.785  28.352  12.395
54167W        W19427   6.873  39.097   2.850
54168W        W19428  35.105   1.429  14.619
54169W        W19429  23.394  20.076   4.813
54170W        W19430  44.064  27.921  11.026
54171W        W19431  30.604  18.122  11.191
54172W        W19432  24.786  28.891   4.459
54173W        W19433  14.023   0.247  11.173
54174W        W19434  24.515  26.098  12.878
54175W        W19435  21.058  13.332  13.888
54176W        W19436  42.142  30.985  14.904
54177W        W19437  13.746  43.530   4.332
54178W        W19438  18.028  19.556   0.374
54179W        W19439  33.943   1.216  12.014
54180W        W19440  40.995   1.913   2.093
54181W        W19441  21.133  11.738  14.420
54182W        W19442   3.025  36.370  12.497
54183W        W19443   2.965  34.940  12.045
54184W        W19444  15.162  11.417  11.227
54185W        W19445  38.852  19.758  12.620
54186W        W19446  25.231  15.537   1.873
54187W        W19447  29.131  37.849  12.635
54188W        W19448  39.670  24.607  12.841
54189W        W19449  29.148  23.630  14.942
54190W        W19450  42.784  13.401   4.902
54191W        W19451   0.794  40.250   1.505
54192W        W19452  43.752  20.157  12.182
54193W        W19453  13.271  16.271   3.405
54194W        W19454  39.755  42.061   0.870
54195W        W19455   0.409   6.129   2.790
54196W        W19456  27.000  10.124   4.153
54197W        W19457   9.779  24.948   9.723
54198W        W19458  36.050  21.474  14.363
54199W        W19459  38.851  18.484  12.798
54200W        W19460  37.446  42.273   3.659
54201W        W19461  24.125  17.212  11.028
54202W        W19462  24.115   2.913  14.558
54203W        W19463  43.196  29.065  11.980
54204W        W19464  11.916  23.019  11.962
54205W        W19465  42.956  10.754   1.323
54206W        W19466   0.241  22.869  11.119
54207W        W19467  39.429  19.638  11.802
54208W        W19468  12.731   1.967   1.420
54209W        W19469  39.599  17.568  14.693
54210W        W19470  27.487  27.549   2.451
54211W        W19471  11.839   2.246   5.061
54212W        W19472  30.462   8.819   0.300
54213W        W19473  17.670   7.392  10.962
54214W        W19474  11.620  30.657  14.777
54215W        W19475  17.407  17.731  14.704
54216W        W19476  26.502   4.653   4.051
54217W        W19477  16.615  36.826  11.127
54218W        W19478  30.762  14.619  14.757
54219W        W19479  25.156  43.155   2.383
54220W        W19480  29.361  26.573   3.688
54221W        W19481  24.762  17.624  13.367
54222W        W19482  11.260  35.133  10.327
54223W        W19483  21.236  27.987  13.806
54224W        W19484  17.267  33.526   1.349
54225W        W19485   0.770   5.221   1.786
54226W        W19486  32.456  24.137   4.841
54227W        W19487  13.126  32.774   4.582
54228W        W19488  42.062   9.778  12.280
54229W        W19489  32.090  44.275  12.557
54230W        W19490   5.839  16.739  13.556
54231W        W19491  34.605   0.360  10.484
54232W        W19492  33.399  29.970   4.564
54233W        W19493   3.850  15.245   3.874
54234W        W19494  31.520  35.302   1.851
54235W        W19495  29.479  21.658   4.564
54236W        W19496  24.648   3.405  14.480
54237W        W19497  20.242   5.437  13.463
54238W        W19498   2.660  43.000   1.391
54239W        W19499  24.772  23.673  14.935
54240W        W19500  13.901  37.710  12.539
54241W        W19501  28.716  42.901   4.772
54242W        W19502  24.037  11.257  11.073
54243W        W19503  21.170   4.759   2.868
54244W        W19504  19.255  31.059   0.854
54245W        W19505  32.010  10.449   3.577
54246W        W19506  31.686   7.024   3.639
54247W        W19507  12.457  21.296   2.340
54248W        W19508  22.606  13.614  13.079
54249W        W19509  16.758   3.227  10.790
54250W        W19510  33.373  19.198  13.198
54251W        W19511  41.795  19.215  14.504
54252W        W19512  19.691  32.620   3.992
54253W        W19513  30.575  15.369  11.491
54254W        W19514  21.703  22.662  12.020
54255W        W19515  23.469  30.991  13.530
54256W        W19516  18.675  17.874   4.597
54257W        W19517   1.735  16.410   1.192
54258W        W19518  20.747  22.577  13.910
54259W        W19519   3.349  31.827   0.627
54260W        W19520  42.086  12.281   0.844
54261W        W19521  36.947   0.223   2.756
54262W        W19522  37.089  19.923  14.087
54263W        W19523  25.020  24.178   4.309
54264W        W19524  44.120  20.666  11.025
54265W        W19525  18.222  30.780   4.739
54266W        W19526   0.419  16.318  12.609
54267W        W19527  17.521  42.013   2.353
54268W        W19528  33.131  10.746   2.882
54269W        W19529  10.797  13.550   2.812
54270W        W19530  44.669  37.616   3.303
54271W        W19531   4.892   3.304   3.519
54272W        W19532  41.238  17.679  12.099
54273W        W19533  24.572  34.165  12.806
54274W        W19534  26.210  13.665   3.649
54275W        W19535  20.124   8.849   4.331
54276W        W19536  14.798   5.149  12.863
54277W        W19537   3.552  34.662  14.511
54278W        W19538  23.738  15.149  10.942
54279W        W19539  15.169  12.577   2.265
54280W        W19540  13.257  28.045  11.697
54281W        W19541   3.512  32.069   0.178
54282W        W19542  41.985  32.898   4.239
54283W        W19543  33.966  43.755  10.475
54284W        W19544  38.959   7.329   4.511
54285W        W19545  17.461  43.970   2.385
54286W        W19546  14.621  14.010   4.754
54287W        W19547  13.296  43.036   0.337
54288W        W19548  28.771  37.468  11.456
54289W        W19549  20.286  14.113   3.303
54290W        W19550  11.151  28.493   4.118
54291W        W19551   1.385  33.482   0.947
54292W        W19552  19.860  26.634   4.082
54293W        W19553  22.478  33.044   5.060
54294W        W19554  38.334   3.360   3.108
54295W        W19555  32.901  29.925  14.133
54296W        W19556   0.977  44.436  11.130
54297W        W19557  38.076   3.227   1.196
54298W        W19558   8.079  19.134   3.397
54299W        W19559  26.156  24.887   1.842
54300W        W19560  12.303  32.988  13.099
54301W        W19561  16.363  25.527  12.947
54302W        W19562  27.622  41.347   1.671
54303W        W19563  38.548   4.421   2.272
54304W        W19564  20.276  35.304   5.368
54305W        W19565  27.437  28.244   3.253
54306W        W19566  36.682  42.468   0.828
54307W        W19567  32.506  40.621  10.714
54308W        W19568  19.522  21.781   4.323
54309W        W19569   3.182  41.976   4.697
54310W        W19570  35.305  43.944  13.619
54311W        W19571   2.002   1.813  13.439
54312W        W19572  35.970   4.452   0.982
54313W        W19573  28.992  40.126   2.232
54314W        W19574  32.189  33.351  11.673
54315W        W19575  44.839  19.254  12.767
54316W        W19576  42.117  28.869   0.238
54317W        W19577  21.254  44.883  12.751
54318W        W19578   9.832   0.683   0.310
54319W        W19579  32.181   4.697  13.832
54320W        W19580  25.665  20.385  13.200
54321W        W19581  12.145   9.844  10.799
54322W        W19582  21.700  23.311  11.620
54323W        W19583  30.721  23.881  11.861
54324W        W19584   3.994  13.011   4.018
54325W        W19585  12.335  34.164   3.128
54326W        W19586  23.505  22.797  12.486
54327W        W19587  34.767  34.358  11.476
54328W        W19588  34.072  35.312  13.918
54329W        W19589   1.367   4.832   4.983
54330W        W19590  39.072  38.515   0.812
54331W        W19591   8.177   4.120  11.542
54332W        W19592  22.566   6.391  11.072
54333W        W19593  16.954   4.515  11.565
54334W        W19594  19.785  16.700  14.756
54335W        W19595   7.891  37.092   0.839
54336W        W19596   9.366  32.006  12.045
54337W        W19597  11.358  43.193  14.206
54338W        W19598  36.073  33.327   1.373
54339W        W19599  18.233  40.610  10.780
54340W        W19600   6.969  42.486   2.818
54341W        W19601  41.248  37.500  12.917
54342W        W19602  36.115  24.067  11.097
54343W        W19603  38.437  20.124  10.681
54344W        W19604   4.965  41.452  13.534
54345W        W19605  26.209  15.034  11.888
54346W        W19606   1.119  15.021   9.979
54347W        W19607   8.425   9.589   0.068
54348W        W19608   5.916  22.765   1.809
54349W        W19609  27.247  13.621   1.060
54350W        W19610  23.094  15.981  14.311
54351W        W19611  18.138   0.966  12.548
54352W        W19612  16.826  24.104   0.322
54353W        W19613   0.468  24.251   1.001
54354W        W19614  21.974  34.887  11.101
54355W        W19615  19.609  33.907   2.260
54356W        W19616  13.285  35.145   3.223
54357W        W19617  39.388  20.186   3.814
54358W        W19618  21.308  28.637  11.349
54359W        W19619  39.521  12.709   1.408
54360W        W19620  33.293  43.712   3.212
54361W        W19621  34.226  24.139   2.424
54362W        W19622  44.508  22.002   3.337
54363W        W19623  24.516  43.818   3.668
54364W        W19624  27.621  13.248  13.467
54365W        W19625  28.538  33.096  12.471
54366W        W19626  17.245  42.886   5.061
54367W        W19627  23.974  33.935   1.234
54368W        W19628  41.411  10.995  13.979
54369W        W19629  13.636   4.139   4.334
54370W        W19630   1.506  11.343   1.785
54371W        W19631  10.385   9.335  11.172
54372W        W19632   0.795  15.350   0.376
54373W        W19633  39.523  14.622   1.788
54374W        W19634  19.300  15.087   1.946
54375W        W19635  32.025  11.232   3.603
54376W        W19636   0.922   9.699  12.361
54377W        W19637  44.734  43.285   2.690
54378W        W19638  35.508  40.439  13.350
54379W        W19639  25.751  42.802  12.087
54380W        W19640  13.853  14.083   3.547
54381W        W19641  21.972  16.172   3.794
54382W        W19642  29.232   6.854  11.188
54383W        W19643  38.167  44.432   4.518
54384W        W19644  29.051  43.411   4.121
54385W        W19645   1.671  19.008   1.883
54386W        W19646  16.083  20.763   0.370
54387W        W19647  20.767  21.685   1.841
54388W        W19648   4.803  24.765   3.746
54389W        W19649  34.060   7.856   2.755
54390W        W19650  37.066   3.017  14.822
54391W        W19651   3.541  36.593   0.732
54392W        W19652  31.249  38.018  11.767
54393W        W19653  15.666  14.757   1.888
54394W        W19654   8.882   5.664  12.971
54395W        W19655  41.139   4.800  12.969
54396W        W19656  42.980  40.041   1.232
54397W        W19657  41.097  16.040   5.002
54398W        W19658  26.076  28.207   3.398
54399W        W19659   8.684   9.536  14.010
54400W        W19660  39.873  19.550   1.010
54401W        W19661  43.983   8.220   1.758
54402W        W19662  17.929   3.394  10.564
54403W        W19663   2.967  35.040  13.003
54404W        W19664  22.933  11.994  13.449
54405W        W19665  11.967  29.877   4.211
54406W        W19666  16.193   7.844   0.762
54407W        W19667  21.022   1.019   3.654
54408W        W19668  31.166   0.683   0.953
54409W        W19669  29.428  12.414  11.117
54410W        W19670  44.460   2.417   0.367
54411W        W19671  16.225   9.899   0.222
54412W        W19672  19.601  33.009  12.927
54413W        W19673   8.127   4.490  10.698
54414W        W19674  38.851   4.939  13.104
54415W        W19675  15.651  33.909   2.204
54416W        W19676  32.203  21.165   5.021
54417W        W19677  34.133  28.721  12.816
54418W        W19678  31.132  40.346  10.422
54419W        W19679  15.505  24.223  12.898
54420W        W19680  20.761  41.349  13.447
54421W        W19681  29.468   3.862   0.538
54422W        W19682  10.656  16.533   0.089
54423W        W19683  11.900   9.846  13.983
54424W        W19684  18.745  19.051   1.191
54425W        W19685  36.115  41.087   1.825
54426W        W19686  28.482  34.400  14.845
54427W        W19687  27.066  43.215  13.553
54428W        W19688  35.920   7.629  11.598
54429W        W19689  19.405  44.377   4.059
54430W        W19690  19.244  31.115   2.252
54431W        W19691   3.760  18.110  10.775
54432W        W19692  37.905   7.162   4.586
54433W        W19693  24.311  14.430   2.344
54434W        W19694  11.232  39.066   2.687
54435W        W19695   6.692  15.809   4.458
54436W        W19696  23.337   1.321   0.400
54437W        W19697  19.256  25.945  10.667
54438W        W19698  39.559  24.529  13.430
54439W        W19699   3.611   7.534   2.601
54440W        W19700  27.515   2.952   0.902
54441W        W19701   8.703  37.599   1.859
54442W        W19702  37.300  35.741  13.564
54443W        W19703  18.030  44.085   4.053
54444W        W19704  21.890  31.119   0.224
54445W        W19705   1.352  20.015  13.258
54446W        W19706   7.300  42.533  12.042
54447W        W19707  40.090  11.827  14.910
54448W        W19708  25.611  28.218   3.147
54449W        W19709   7.655  35.491  12.337
54450W        W19710   6.920  23.563  11.945
54451W        W19711  36.050  14.354  10.656
54452W        W19712  18.677  32.170  11.035
54453W        W19713  20.192  33.866  10.439
54454W        W19714  13.677  41.819  12.930
54455W        W19715  38.436   1.720   1.736
54456W        W19716  18.794   3.119   5.028
54457W        W19717  35.111  16.674   1.409
54458W        W19718  22.450  23.478  14.414
54459W        W19719  37.455  28.863  14.651
54460W        W19720  16.627  22.215   4.391
54461W        W19721   2.769  16.796   2.202
54462W        W19722  33.846  37.544  12.987
54463W        W19723  38.355  34.700   4.545
54464W        W19724  43.631  24.750  12.005
54465W        W19725   6.828  35.960  12.128
54466W        W19726   1.237  39.872   2.324
54467W        W19727  30.543  27.652   4.489
54468W        W19728  35.558  19.237   2.681
54469W        W19729   0.582   1.372   3.356
54470W        W19730  40.520  39.254  14.943
54471W        W19731   8.577  28.905   1.189
54472W        W19732  40.579  37.662  14.307
54473W        W19733  15.251   8.770   2.817
54474W        W19734  37.836  13.064   3.693
54475W        W19735  19.026  23.179  10.558
54476W        W19736   5.422  44.808  12.544
54477W        W19737  15.213  39.864  10.709
54478W        W19738  26.207  11.706   0.472
54479W        W19739  29.030   2.886   0.783
54480W        W19740  36.045  28.494   3.246
54481W        W19741  43.407   5.865  10.572
54482W        W19742  38.827  29.138  10.403
54483W        W19743  21.082  25.121  12.545
54484W        W19744   7.484  21.054   0.422
54485W        W19745   8.259  27.464  14.996
54486W        W19746  32.315  43.802   3.914
54487W        W19747  15.695  11.928  10.558
54488W        W19748  22.645  24.196   0.837
54489W        W19749  33.519  18.700   5.065
54490W        W19750  10.586  39.247   1.621
54491W        W19751  12.178   4.157   2.674
54492W        W19752  33.910   2.480   3.648
54493W        W19753  30.637  12.159  11.509
54494W        W19754   2.467  36.890  13.295
54495W        W19755  32.082  13.781   4.857
54496W        W19756  32.773  29.474   0.372
54497W        W19757  19.049  39.108   2.511
54498W        W19758  31.361  20.454   0.044
54499W        W19759  38.917  24.594  12.263
54500W        W19760  44.387  29.675  10.797
54501W        W19761  38.485  43.854  11.233
54502W        W19762  19.687  10.144   1.399
54503W        W19763   0.258  20.773   5.243
54504W        W19764  14.322  38.232  14.181
54505W        W19765   0.250  19.173  13.989
54506W        W19766  33.496  32.158  12.940
54507W        W19767   5.854  16.351  11.577
54508W        W19768   4.733  38.509   4.133
54509W        W19769   4.469  28.473  14.499
54510W        W19770  12.715   4.784  10.800
54511W        W19771  29.191  41.768  12.099
54512W        W19772  33.950  17.534   4.021
54513W        W19773  41.475  34.880  14.712
54514W        W19774   9.745  20.344  10.670
54515W        W19775  15.544  12.244  13.429
54516W        W19776   9.154  37.605   2.335
54517W        W19777  22.493  20.195   2.212
54518W        W19778  28.028  37.624   4.160
54519W        W19779  39.560   3.970   3.527
54520W        W19780  16.336  34.478  13.554
54521W        W19781  36.025  29.482   3.223
54522W        W19782   3.479  35.358   0.828
54523W        W19783  32.493  33.137   3.167
54524W        W19784  27.734   0.120  12.017
54525W        W19785  21.968  27.204   0.391
54526W        W19786  24.653  34.432   0.021
54527W        W19787   8.959  24.215  14.361
54528W        W19788   5.997   9.847  13.991
54529W        W19789  42.601  20.617  10.965
54530W        W19790  11.232  12.381   0.327
54531W        W19791  33.576  18.651  12.464
54532W        W19792  38.495  27.017   4.664
54533W        W19793   4.356  30.118  11.671
54534W        W19794  37.707  10.062  11.069
54535W        W19795  42.480  34.531  14.537
54536W        W19796  33.415   0.828  14.866
54537W        W19797  30.149  41.429  13.057
54538W        W19798   3.708  19.026  13.032
54539W        W19799  30.013  19.239  13.822
54540W        W19800  41.462  17.769  13.083
54541W        W19801  31.062  15.767  13.431
54542W        W19802   8.010   4.451   0.790
54543W        W19803  13.653  41.909   0.754
54544W        W19804  22.754   5.485   1.909
54545W        W19805  30.890  16.624  11.447
54546W        W19806  18.218  13.791  13.481
54547W        W19807   5.802  39.243   4.599
54548W        W19808   5.595  25.011   2.956
54549W        W19809  26.268  10.884   2.978
54550W        W19810   5.298  11.993  14.902
54551W        W19811  11.715   2.827   1.279
54552W        W19812  27.385   8.349  13.472
54553W        W19813  30.074  13.656   2.813
54554W        W19814  35.356  44.040   3.701
54555W        W19815  29.383  23.095   4.716
54556W        W19816  26.985  22.522  10.026
54557W        W19817  29.571   7.902  12.397
54558W        W19818  39.502  36.544   0.438
54559W        W19819  33.864  16.174   0.570
54560W        W19820   7.431  33.576   3.738
54561W        W19821  39.455   5.455   1.207
54562W        W19822  11.909  19.344   4.161
54563W        W19823   1.093   4.052  11.604
54564W        W19824  28.209  34.995  13.425
54565W        W19825  19.217  37.134   3.767
54566W        W19826  40.482   8.525   3.687
54567W        W19827  39.336   7.701  11.539
54568W        W19828  26.044  32.422  13.488
54569W        W19829   0.734   0.351  10.715
54570W        W19830  36.161  35.621   0.607
54571W        W19831  16.563  17.035  11.064
54572W        W19832   9.898  32.377  13.078
54573W        W19833  22.469  32.936  10.545
54574W        W19834  44.432   9.406  10.601
54575W        W19835  36.437  24.127  14.963
54576W        W19836  40.621  32.556   4.763
54577W        W19837  15.165  42.607  12.166
54578W        W19838  30.877  32.387  14.531
54579W        W19839  19.933  38.909  12.366
54580W        W19840  44.741  21.491   4.123
54581W        W19841   2.888  15.566  12.172
54582W        W19842   0.803  13.360  13.556
54583W        W19843  29.325   2.423   1.649
54584W        W19844  44.835  30.630   0.645
54585W        W19845  26.202   3.865  11.631
54586W        W19846  27.526  21.274  13.038
54587W        W19847  25.010  37.257   2.509
54588W        W19848  17.851  14.304   1.939
54589W        W19849  44.561  19.257   4.935
54590W        W19850  12.420  31.365  13.891
54591W        W19851  21.356  15.484  11.812
54592W        W19852  28.922  39.276  13.203
54593W        W19853   7.144   4.481   3.493
54594W        W19854  11.564  42.844  13.340
54595W        W19855  42.861  16.139   2.663
54596W        W19856  22.351  30.623  14.431
54597W        W19857  31.784  23.487   3.934
54598W        W19858  20.162  11.282   2.251
54599W        W19859  23.131   2.766   0.752
54600W        W19860  10.234  17.470   4.215
54601W        W19861  30.062  21.910   1.328
54602W        W19862   2.903   1.971  12.824
54603W        W19863  27.537  16.193   2.240
54604W        W19864  41.619  43.735  11.080
54605W        W19865   0.432  32.591  11.620
54606W        W19866   5.733  18.657   4.863
54607W        W19867  36.364  42.318  10.686
54608W        W19868   1.892  25.476   2.351
54609W        W19869   6.760  14.842   2.419
54610W        W19870   2.880   7.663   1.404
54611W        W19871  15.121  32.809   3.726
54612W        W19872  22.036  17.696  13.576
54613W        W19873  21.098  39.620  13.995
54614W        W19874  30.830  22.060  10.456
54615W        W19875  36.822  42.288   0.356
54616W        W19876  22.775  22.569   1.857
54617W        W19877   2.687  36.496  14.022
54618W        W19878  31.041  35.591  10.638
54619W        W19879  28.514  33.998  12.354
54620W        W19880  39.016  43.380  12.524
54621W        W19881  37.572   1.931   3.135
54622W        W19882  44.999  33.366  14.290
54623W        W19883  38.748  27.992  13.808
54624W        W19884  33.011  34.810   2.262
54625W        W19885  18.162  16.892  13.455
54626W        W19886   3.249   0.744  13.500
54627W        W19887  39.545  44.870   4.779
54628W        W19888  36.844  40.336   4.444
54629W        W19889  19.196   9.336  11.390
54630W        W19890   8.407   5.150  12.471
54631W        W19891  25.177  23.211  10.469
54632W        W19892  10.386  21.626  10.998
54633W        W19893  40.936  40.839  11.367
54634W        W19894  20.445  11.171  11.587
54635W        W19895  10.307  19.368   0.934
54636W        W19896  37.490  40.937   2.929
54637W        W19897  34.608  13.134  14.463
54638W        W19898   1.841  20.079   2.803
54639W        W19899  44.263   7.710  13.805
54640W        W19900  44.510   7.498  11.752
54641W        W19901  43.711   3.388  13.483
54642W        W19902  39.074   9.794   0.256
54643W        W19903   8.295   1.628  12.910
54644W        W19904  15.149  43.065   2.473
54645W        W19905  29.969  11.280   1.893
54646W        W19906   7.492  20.792  11.508
54647W        W19907  25.171  20.555  10.351
54648W        W19908   9.365  29.482  10.767
54649W        W19909   4.583   9.852   2.016
54650W        W19910  16.213  35.799   4.162
54651W        W19911  12.330  23.648  14.922
54652W        W19912  24.350  25.870   3.359
54653W        W19913  23.539  30.947  12.601
54654W        W19914  18.823  10.753  10.689
54655W        W19915   8.840  24.151  10.851
54656W        W19916   8.935  42.848   1.938
54657W        W19917  38.533  22.936  13.065
54658W        W19918  14.337   1.472   3.401
54659W        W19919  16.712  18.576   1.213
54660W        W19920   7.018  40.956  12.045
54661W        W19921   2.601  34.428   3.786
54662W        W19922  33.071  44.789  13.530
54663W        W19923   8.275  29.792   3.252
54664W        W19924  25.072  19.314  10.739
54665W        W19925  41.472  35.132   4.361
54666W        W19926  34.982   7.873   1.471
54667W        W19927  36.085   5.816   1.796
54668W        W19928  37.325  27.125  11.568
54669W        W19929  39.866   2.872  12.526
54670W        W19930   8.273  33.058   2.033
54671W        W19931  29.087  25.658   2.860
54672W        W19932   1.584   9.187   4.495
54673W        W19933  25.826  36.879   5.270
54674W        W19934  34.433  13.054  11.337
54675W        W19935  30.425  15.695   0.457
54676W        W19936   9.835  12.314  14.702
54677W        W19937  43.095  37.791   2.332
54678W        W19938  33.710  36.916   3.688
54679W        W19939   7.896  43.552  10.647
54680W        W19940  34.978  40.125  11.739
54681W        W19941  23.576  34.542   9.975
54682W        W19942  41.823  44.067  13.517
54683W        W19943   1.628  27.581  14.770
54684W        W19944  27.280   0.209   2.190
54685W        W19945  35.669   9.743  12.100
54686W        W19946  38.449  43.170   4.276
54687W        W19947  24.272  14.069  10.643
54688W        W19948   7.870   7.722   2.441
54689W        W19949  43.959   5.250  10.974
54690W        W19950  11.293  12.865   4.807
54691W        W19951  14.658  18.115  13.868
54692W        W19952  30.918   1.047  13.284
54693W        W19953  17.162   4.969   3.059
54694W        W19954  10.374   8.886   1.410
54695W        W19955  37.254  34.228  12.092
54696W        W19956  11.816  19.758   5.057
54697W        W19957  23.572  15.468  14.915
54698W        W19958  32.256  43.959   1.169
54699W        W19959   2.221  26.464   3.124
54700W        W19960   7.602  39.297   4.657
54701W        W19961  14.124  38.599  13.657
54702W        W19962   0.265   0.244   1.799
54703W        W19963  43.485  41.494   0.303
54704W        W19964  42.215  26.740   1.860
54705W        W19965   2.266  40.282  14.969
54706W        W19966  32.111  10.715  14.049
54707W        W19967  13.185  22.571  10.552
54708W        W19968  35.836  40.298   3.286
54709W        W19969  41.409   9.652   2.375
54710W        W19970   5.622  24.525   1.214
54711W        W19971   6.710  13.777   3.455
54712W        W19972   1.145   6.314   3.656
54713W        W19973  21.775  32.862   0.758
54714W        W19974  41.513  36.526   1.670
54715W        W19975  14.146  17.240  14.051
54716W        W19976   1.335  20.466   1.007
54717W        W19977   5.431  23.504   3.714
54718W        W19978  40.872  35.679  14.980
54719W        W19979  24.933   7.705  14.245
54720W        W19980   1.745  40.033   2.306
54721W        W19981  14.298  33.124   1.152
54722W        W19982  21.026  29.453  12.433
54723W        W19983   0.969  35.081   4.214
54724W        W19984  37.119  20.236  12.489
54725W        W19985   0.972  35.609   3.184
54726W        W19986   7.085  15.641   2.783
54727W        W19987   8.773  40.428   5.030
54728W        W19988   1.184  36.990  12.779
54729W        W19989  10.818  40.798   4.875
54730W        W19990   5.471  22.712   3.750
54731W        W19991  38.401  15.238  13.780
54732W        W19992  33.497  21.827   3.699
54733W        W19993  31.119  36.279   2.181
54734W        W19994  12.638  25.963   3.617
54735W        W19995  40.896  15.343  10.861
54736W        W19996   1.903   2.336  11.605
54737W        W19997  42.832   4.227  13.900
54738W        W19998  37.527  12.565  14.291
54739W        W19999  25.746  40.728  11.989
54740W        W20000  43.832  32.027   3.290
54741W        W20001  25.506   9.305   2.864
54742W        W20002  43.447  20.933  14.917
54743W        W20003   8.906  18.779   0.194
54744W        W20004  37.836  35.974  14.285
54745W        W20005  21.959  36.862   1.222
54746W        W20006  30.155  44.976  11.429
54747W        W20007   4.752   4.998  11.523
54748W        W20008   9.542  13.884   1.250
54749W        W20009  13.659  36.128  11.468
54750W        W20010  43.415  16.755   4.209
54751W        W20011  35.146  27.594   4.381
54752W        W20012  29.663  23.974  14.325
54753W        W20013   4.927   1.668  10.771
54754W        W20014  42.731  27.892  12.324
54755W        W20015  34.561   6.624  13.651
54756W        W20016  18.324   2.903  14.858
54757W        W20017  28.479  32.595  12.342
54758W        W20018   6.719  41.211   1.943
54759W        W20019   3.206   8.129   2.082
54760W        W20020  31.991  42.829   1.665
54761W        W20021   3.377  17.344  14.459
54762W        W20022  26.777   1.723   3.643
54763W        W20023  26.664  32.023  11.643
54764W        W20024  22.201   9.933  13.547
54765W        W20025  27.081  19.201  14.749
54766W        W20026  40.728  15.944  12.339
54767W        W20027  38.354  39.438  13.409
54768W        W20028  34.028  43.244  12.190
54769W        W20029  14.092  18.055   2.280
54770W        W20030  16.817   9.594  10.884
54771W        W20031  40.790  20.381   1.260
54772W        W20032  18.680  38.868  14.841
54773W        W20033   7.221   1.263   0.779
54774W        W20034  40.374  27.086   3.076
54775W        W20035   7.706  25.414  13.956
54776W        W20036  31.945   7.349  10.232
54777W        W20037  23.715  34.533  13.328
54778W        W20038  14.789  30.449  14.042
54779W        W20039  33.307  32.539  12.176
54780W        W20040   7.698  19.297   3.022
54781W        W20041  16.596  28.125   2.338
54782W        W20042  26.221   6.287  14.806
54783W        W20043  33.578   1.665   2.094
54784W        W20044  34.420  44.418  10.500
54785W        W20045  44.855  42.854   2.377
54786W        W20046  42.972  11.164  12.422
54787W        W20047  40.157   2.629  14.840
54788W        W20048  18.778  22.037  12.521
54789W        W20049  17.366  27.037   1.404
54790W        W20050  18.102  14.772   1.820
54791W        W20051  22.605  17.082  14.214
54792W        W20052   1.471   6.227   2.203
54793W        W20053   0.950  25.093   0.939
54794W        W20054   6.114  15.602   0.477
54795W        W20055   9.208  12.749   1.828
54796W        W20056  31.617  37.337   4.644
54797W        W20057  27.020  37.501   4.051
54798W        W20058  40.539  41.434  12.501
54799W        W20059  25.163  14.566  11.537
54800W        W20060  40.770  38.284   4.574
54801W        W20061  23.710  10.394   1.333
54802W        W20062  19.800   4.222   0.744
54803W        W20063  25.946  34.447  13.313
54804W        W20064  35.466  28.939  10.934
54805W        W20065   6.381   2.657   4.128
54806W        W20066  15.865  37.744   4.178
54807W        W20067   3.938  26.663   1.246
54808W        W20068  17.065  14.269  12.414
54809W        W20069  21.636  13.334  11.183
54810W        W20070  30.356  12.863  11.226
54811W        W20071  26.976   1.268   1.357
54812W        W20072  41.912  32.598   3.215
54813W        W20073  24.222  31.244   4.279
54814W        W20074  43.318   4.756   1.771
54815W        W20075  34.192  12.668  11.724
54816W        W20076   9.403  38.478   0.820
54817W        W20077   8.050  33.704   3.248
54818W        W20078  13.287  32.583  14.482
54819W        W20079  26.828  25.615  14.388
54820W        W20080  37.356   8.545   2.835
54821W        W20081  18.184   2.706   4.278
54822W        W20082  24.767  39.254  10.485
54823W        W20083  25.935  44.048   3.673
54824W        W20084  18.034  17.807  11.425
54825W        W20085  31.826  12.284  12.492
54826W        W20086  44.271  36.939   1.345
54827W        W20087  13.324  35.434  11.271
54828W        W20088  37.636  20.989  13.467
54829W        W20089   1.546   6.394   0.301
54830W        W20090  33.575  15.636   2.211
54831W        W20091  23.086  27.124   1.912
54832W        W20092  10.600  44.308  11.153
54833W        W20093  38.485  39.438  14.389
54834W        W20094  20.671  23.804  12.466
54835W        W20095   8.574  25.442   2.300
54836W        W20096   6.856  35.442  12.928
54837W        W20097  41.878  21.767  11.589
54838W        W20098  16.295  33.535   2.844
54839W        W20099  26.918  32.160   0.910
54840W        W20100  33.140  23.741   3.762
54841W        W20101  35.621   6.143   1.003
54842W        W20102  11.671  23.671   0.339
54843W        W20103   1.869  26.608  10.176
54844W        W20104  16.160  42.281  11.106
54845W        W20105  36.525  36.993  10.959
54846W        W20106  21.741  29.508   3.465
54847W        W20107   7.229  42.314   4.798
54848W        W20108  38.923  25.499   1.466
54849W        W20109   1.782  10.075   3.754
54850W        W20110  25.304  33.984  12.994
54851W        W20111  40.228  21.697   3.259
54852W        W20112  20.193  39.048   2.024
54853W        W20113  27.415  43.007  12.357
54854W        W20114  12.282  37.862  12.122
54855W        W20115   1.969   9.320  13.672
54856W        W20116  33.498  35.178   4.521
54857W        W20117  20.999   1.778   1.745
54858W        W20118  35.006  35.415  11.624
54859W        W20119   3.834  21.661   1.518
54860W        W20120   6.855  38.161  12.061
54861W        W20121   3.922  37.310  10.517
54862W        W20122  30.972   6.242   4.382
54863W        W20123   6.861  24.121  10.689
54864W        W20124  17.260  15.907  14.868
54865W        W20125  17.447  44.944  14.996
54866W        W20126  12.200  20.334   4.122
54867W        W20127   3.118  43.929   2.822
54868W        W20128  13.358  18.156   2.760
54869W        W20129  15.821   3.471   2.250
54870W        W20130  18.849  42.413  14.307
54871W        W20131   3.812  26.433   3.309
54872W        W20132  23.642   0.629   4.143
54873W        W20133   8.775  43.211   4.017
54874W        W20134   3.074  17.301   0.443
54875W        W20135  29.898   2.145  12.925
54876W        W20136  37.816  33.925   4.688
54877W        W20137   9.797  29.584   2.352
54878W        W20138  39.448  17.051   1.106
54879W        W20139   4.974  12.080   2.802
54880W        W20140  39.507  24.333   4.001
54881W        W20141   9.366  36.644   3.844
54882W        W20142  15.298  41.083  14.709
54883W        W20143  28.516  36.410   3.367
54884W        W20144   1.433  21.093  10.723
54885W        W20145  35.044  42.957   4.932
54886W        W20146  21.059   5.116   3.696
54887W        W20147  28.133  14.349  10.074
54888W        W20148  15.585   3.315  14.968
54889W        W20149  40.997  14.516   2.688
54890W        W20150  37.001  25.318  14.400
54891W        W20151  16.163  41.816  11.893
54892W        W20152   5.274  24.239  10.641
54893W        W20153  18.880  17.548   4.031
54894W        W20154  27.748   9.640  13.827
54895W        W20155  39.943  28.377   2.264
54896W        W20156  12.023  37.246  12.942
54897W        W20157  24.285  22.182  12.565
54898W        W20158  31.105  38.351  12.998
54899W        W20159  40.445  39.778  13.855
54900W        W20160  35.105  33.042  12.047
54901W        W20161  37.067  35.538   1.260
54902W        W20162  18.059  35.385   3.693
54903W        W20163   6.425  22.994  12.423
54904W        W20164  32.049   9.736  12.128
54905W        W20165   5.090  33.069  12.002
54906W        W20166  36.095  16.577   0.450
54907W        W20167   1.520  31.134   0.332
54908W        W20168  42.605  19.261  10.869
54909W        W20169  23.112  35.343  14.890
54910W        W20170   5.679  27.920  14.412
54911W        W20171  14.143  32.517   3.020
54912W        W20172  11.142  40.056   4.351
54913W        W20173  19.017  31.580   2.195
54914W        W20174   1.907  30.574  14.399
54915W        W20175  33.495  41.554   1.864
54916W        W20176   9.667  23.135   0.272
54917W        W20177  25.110  42.313   0.400
54918W        W20178  16.771  30.493  11.478
54919W        W20179  20.503  38.319  13.815
54920W        W20180  32.119  19.505   1.817
54921W        W20181  44.225  32.702   2.848
54922W        W20182  42.270  35.372   0.620
54923W        W20183  44.948  24.060  11.908
54924W        W20184   6.928  25.804  13.518
54925W        W20185  35.432  39.838  11.596
54926W        W20186  43.342  13.314   2.241
54927W        W20187   6.224  30.524   2.740
54928W        W20188  31.595  13.694  13.862
54929W        W20189   7.762  35.722   1.214
54930W        W20190   4.006  35.622  12.421
54931W        W20191   8.744  34.072   4.181
54932W        W20192  30.948  10.170  14.254
54933W        W20193  33.870  10.681   4.716
54934W        W20194  12.235  11.893  10.818
54935W        W20195  21.680   8.418  12.419
54936W        W20196   7.660  27.271   0.938
54937W        W20197   1.396  10.185   0.757
54938W        W20198  10.674  13.744   4.157
54939W        W20199  19.703  22.499  12.515
54940W        W20200  23.012  27.607  14.135
54941W        W20201  19.687  28.810  12.900
54942W        W20202   5.333  16.576   3.325
54943W        W20203  30.904  29.491   3.206
54944W        W20204  24.276   7.533   4.785
54945W        W20205  44.810   9.648  11.473
54946W        W20206  20.806   6.650  13.413
54947W        W20207  17.666  16.620   0.701
54948W        W20208  23.058  20.192  12.878
54949W        W20209  39.714  37.345   2.426
54950W        W20210  26.715  38.840  14.022
54951W        W20211  31.179  24.260  14.264
54952W        W20212  32.473  10.355   3.838
54953W        W20213  12.120  25.005  11.275
54954W        W20214  17.471  19.270  12.483
54955W        W20215  42.541  18.772  14.061
54956W        W20216  17.916   5.116  13.607
54957W        W20217  27.320   8.702  11.557
54958W        W20218  15.522  32.454  13.831
54959W        W20219   9.412  35.592  10.356
54960W        W20220  21.197  25.239   4.458
54961W        W20221  24.174   8.646  12.814
54962W        W20222  42.433   2.605   4.996
54963W        W20223  32.088   3.198  13.095
54964W        W20224  34.145  39.412   3.788
54965W        W20225  35.544  20.527   3.171
54966W        W20226   8.451  29.156  11.678
54967W        W20227  24.017  22.159  13.011
54968W        W20228  16.279  44.611  12.780
54969W        W20229   4.475  33.128  14.447
54970W        W20230  20.547  35.920   4.036
54971W        W20231  17.579  19.648   1.344
54972W        W20232   0.561   8.353  12.121
54973W        W20233  11.703   3.628  11.925
54974W        W20234  37.732   5.363  14.397
54975W        W20235  22.054  12.809   2.763
54976W        W20236   8.003  38.503  14.589
54977W        W20237  38.475  19.035  13.515
54978W        W20238  27.542  39.592   1.370
54979W        W20239  10.045  42.679   3.259
54980W        W20240  25.754   4.401   9.804
54981W        W20241  40.923   4.898   3.415
54982W        W20242  24.428  17.579   1.943
54983W        W20243  27.757  33.428   2.209
54984W        W20244  12.142   2.808  13.782
54985W        W20245  23.045  15.809  12.940
54986W        W20246  41.138  15.921  12.937
54987W        W20247  11.168  20.632  11.721
54988W        W20248  27.575  18.356  13.032
54989W        W20249  11.196  23.554  12.389
54990W        W20250  32.903  21.662   1.378
54991W        W20251  20.843  19.587   2.451
54992W        W20252  28.198   3.715   3.352
54993W        W20253  44.698  31.055   4.750
54994W        W20254  28.045  32.536  10.736
54995W        W20255  34.034  15.705  10.642
54996W        W20256  22.766   6.248   2.767
54997W        W20257   9.424  40.800  10.813
54998W        W20258  29.150   2.013  13.379
54999W        W20259   2.457  36.672  12.049
55000W        W20260  13.570  41.378  14.818
55001W        W20261   8.622  43.871  10.330
55002W        W20262  33.175   6.920  11.095
55003W        W20263  14.826  18.810  14.469
55004W        W20264  39.835  21.580   3.591
55005W        W20265   3.269   2.217   4.556
55006W        W20266  18.887  24.563   1.503
55007W        W20267  27.746  39.082  11.300
55008W        W20268  24.178   1.708   0.191
55009W        W20269   4.443   2.271  14.818
55010W        W20270  36.807  33.830  14.339
55011W        W20271  34.765  38.419   0.353
55012W        W20272  42.715  10.843  14.205
55013W        W20273  33.451  44.968  12.375
55014W        W20274  22.712  22.262  10.840
55015W        W20275  27.080   7.070   2.296
55016W        W20276  17.587  18.090   1.961
55017W        W20277  36.289  19.970  12.056
55018W        W20278  25.538  21.546   2.510
55019W        W20279  33.097  18.075  14.459
55020W        W20280  33.939   5.159   0.030
55021W        W20281  39.910  34.624  14.350
55022W        W20282  18.483  16.515   1.226
55023W        W20283  13.054  30.362   1.662
55024W        W20284  25.031  26.531   0.880
55025W        W20285   6.860   6.388   2.464
55026W        W20286  20.127   0.169  11.613
55027W        W20287  32.048  35.021   2.645
55028W        W20288  21.732  30.176  12.416
55029W        W20289  39.980   7.935   3.235
55030W        W20290  25.745  41.510   1.830
55031W        W20291  27.112   6.811  14.227
55032W        W20292   4.278   5.905  11.526
55033W        W20293   5.277  33.933  14.015
55034W        W20294  40.713  36.782  12.901
55035W        W20295  42.676  15.784   3.647
55036W        W20296  33.535  26.796   3.087
55037W        W20297   7.592  41.113   0.760
55038W        W20298  18.799  14.749  13.488
55039W        W20299  21.756  19.840   1.383
55040W        W20300   5.288  37.378  14.883
55041W        W20301  19.331   6.008  11.356
55042W        W20302  15.149   4.219  11.568
55043W        W20303  41.390  27.442   0.060
55044W        W20304  32.897   4.331  12.950
55045W        W20305  18.768  10.264   2.264
55046W        W20306   4.657  36.992   2.437
55047W        W20307  24.613  33.738  11.545
55048W        W20308  15.724   6.970   2.684
55049W        W20309   6.462  12.865   2.328
55050W        W20310  26.543   8.138   1.862
55051W        W20311  30.190  20.268   2.213
55052W        W20312  33.874  39.919   3.661
55053W        W20313  20.444  17.190  13.102
55054W        W20314  31.849   0.779  13.388
55055W        W20315  32.770  12.754  13.434
55056W        W20316  31.438  31.490  11.476
55057W        W20317  14.708   8.009  10.304
55058W        W20318   7.369   9.272  14.932
55059W        W20319  23.878   6.512   4.922
55060W        W20320   7.978  22.585   1.812
55061W        W20321  33.132  25.087   0.958
55062W        W20322  19.983  25.957   2.798
55063W        W20323  16.314  30.080  13.133
55064W        W20324  28.528  36.435  13.914
55065W        W20325  41.227  44.553   1.551
55066W        W20326  20.337  25.092   3.657
55067W        W20327  12.235  28.032   3.997
55068W        W20328  20.639  18.057  11.954
55069W        W20329   6.716  32.453   4.692
55070W        W20330  42.231  10.936  14.028
55071W        W20331  20.572  37.071   1.025
55072W        W20332  35.400  32.715   1.953
55073W        W20333  11.045   0.328  12.032
55074W        W20334   8.866   1.684   2.838
55075W        W20335  40.311  14.876  12.956
55076W        W20336  41.283  39.565  14.494
55077W        W20337  25.312  30.062   2.395
55078W        W20338  40.028  24.683   1.323
55079W        W20339  26.237  15.632  12.609
55080W        W20340  35.630  44.263  14.851
55081W        W20341  37.861  21.409  14.705
55082W        W20342   6.332  23.109  10.936
55083W        W20343  40.621  41.536   0.917
55084W        W20344   9.789  32.179   5.277
55085W        W20345  25.928  35.505   1.755
55086W        W20346  23.194  33.917  14.752
55087W        W20347   1.968   9.139   4.865
55088W        W20348   7.347  25.665  11.017
55089W        W20349   9.260  24.081   0.664
55090W        W20350  25.935  29.602   2.833
55091W        W20351  19.497  10.399  12.655
55092W        W20352   7.687  41.812  14.166
55093W        W20353  35.046  39.912  11.256
55094W        W20354  33.429   8.870   3.347
55095W        W20355  12.123  32.037   4.006
55096W        W20356  15.741   1.759  14.589
55097W        W20357  37.434  24.719   1.207
55098W        W20358  13.173  43.462   0.852
55099W        W20359  12.322  44.428  13.926
55100W        W20360  43.202  34.899   4.183
55101W        W20361  43.697  10.508  12.928
55102W        W20362  30.124  44.013   3.189
55103W        W20363  10.794  35.232  12.969
55104W        W20364  38.599  41.291  14.733
55105W        W20365  34.159  40.936   3.591
55106W        W20366  23.000  34.661   3.720
55107W        W20367  19.731  27.089  13.451
55108W        W20368  27.506   2.747   3.145
55109W        W20369   4.119   3.841  13.881
55110W        W20370   2.005  27.180   9.808
55111W        W20371  35.158  26.529  12.052
55112W        W20372  26.743  37.179  12.827
55113W        W20373  15.560  12.045   3.004
55114W        W20374  32.893  39.684   3.350
55115W        W20375  26.061  26.598   3.371
55116W        W20376  26.870  32.156  10.805
55117W        W20377  25.628  13.787  12.512
55118W        W20378  12.782   0.228   4.727
55119W        W20379  31.756  27.555  14.794
55120W        W20380   6.769  33.764   1.442
55121W        W20381  30.615  28.242  14.524
55122W        W20382  41.705  18.206  11.096
55123W        W20383   5.876   5.349  12.374
55124W        W20384   8.263  14.898   3.150
55125W        W20385  31.831  32.888  11.617
55126W        W20386  25.921  31.362   2.585
55127W        W20387  17.678  20.086  12.152
55128W        W20388   6.209  35.482  10.648
55129W        W20389   9.191  11.751   1.195
55130W        W20390  10.251  14.917  11.633
55131W        W20391  16.359  31.505  13.749
55132W        W20392  14.581  40.135   3.603
55133W        W20393  42.685  13.290   1.023
55134W        W20394  21.262  30.530  10.707
55135W        W20395  37.471  27.628  11.596
55136W        W20396  25.566  32.203  11.067
55137W        W20397  37.846  39.485   4.630
55138W        W20398  12.497  37.211  14.782
55139W        W20399  19.302  29.325  11.160
55140W        W20400   1.910   8.662  12.782
55141W        W20401  37.189  38.767  14.136
55142W        W20402  31.103  22.825  14.585
55143W        W20403  23.472  25.496   1.664
55144W        W20404  19.042   4.261  13.360
55145W        W20405   5.412  38.820   3.676
55146W        W20406   6.736  21.499  11.646
55147W        W20407   7.771  15.868   3.782
55148W        W20408  26.923  13.953  11.535
55149W        W20409  36.581  28.554   2.548
55150W        W20410  43.467  33.541   1.926
55151W        W20411  22.992  24.406  11.647
55152W        W20412  27.213  22.149  13.229
55153W        W20413   9.596  41.329  14.857
55154W        W20414  35.286  15.218  14.437
55155W        W20415  21.539  31.230   3.138
55156W        W20416  43.325  10.380   2.599
55157W        W20417   8.610  31.998   1.793
55158W        W20418  37.753  25.238   0.173
55159W        W20419  13.199   6.413   0.490
55160W        W20420  35.523   9.573  13.007
55161W        W20421  13.146  37.505   4.154
55162W        W20422   9.807  16.974  12.893
55163W        W20423  32.943  15.514  11.956
55164W        W20424  20.481  17.515   4.968
55165W        W20425  36.793  17.817  14.896
55166W        W20426   5.777  28.469   2.192
55167W        W20427   5.927  18.329   4.474
55168W        W20428  14.337  18.612   0.387
55169W        W20429  13.668  15.082   0.042
55170W        W20430  14.693  26.530  14.812
55171W        W20431  30.702   5.782   2.118
55172W        W20432  44.879  27.466   0.222
55173W        W20433  32.240  13.620   0.403
55174W        W20434  31.163  13.107  11.043
55175W        W20435   8.767  22.542   4.080
55176W        W20436  40.385  33.980   3.370
55177W        W20437   5.237  24.229  12.444
55178W        W20438  40.380  27.656   1.319
55179W        W20439  35.734  10.908   2.640
55180W        W20440   3.240  20.256  10.648
55181W        W20441  25.234  43.355  11.562
55182W        W20442  25.659   2.694   2.783
55183W        W20443  19.689  44.139   4.998
55184W        W20444  14.221  39.101   0.084
55185W        W20445  10.601  13.708   1.235
55186W        W20446   3.244  18.187   0.965
55187W        W20447   2.880   7.874  10.644
55188W        W20448  21.934  22.185  11.148
55189W        W20449   1.046  21.958   0.131
55190W        W20450  25.140  18.277  10.872
55191W        W20451  39.846   7.621   4.726
55192W        W20452  15.758  17.007   4.098
55193W        W20453  44.688  26.104   1.139
55194W        W20454  18.652  12.943   2.815
55195W        W20455  34.358   1.260   0.308
55196W        W20456  36.421   5.751  13.542
55197W        W20457  12.392  29.002  14.882
55198W        W20458  33.508   6.376  14.695
55199W        W20459  11.746  37.881  11.698
55200W        W20460  19.566  14.236   2.256
55201W        W20461  37.834  31.423   0.896
55202W        W20462  42.299  31.853   0.350
55203W        W20463  12.896  21.160  12.147
55204W        W20464   3.622  19.013   0.886
55205W        W20465  27.660  26.863   4.126
55206W        W20466   5.761  37.580  11.066
55207W        W20467  41.749   5.850   3.117
55208W        W20468  16.886  23.501   2.333
55209W        W20469  18.691   1.344   4.405
55210W        W20470   5.240  28.183   1.299
55211W        W20471  35.245  32.805  14.121
55212W        W20472  38.758   1.379   2.738
55213W        W20473  15.768   0.273  13.880
55214W        W20474  29.530   9.448  13.991
55215W        W20475  34.927   0.287   1.745
55216W        W20476   6.476  11.478   1.699
55217W        W20477   1.283  44.911   3.129
55218W        W20478  25.475  15.405  14.009
55219W        W20479   2.248  39.896  13.653
55220W        W20480  40.643  15.836  13.030
55221W        W20481  19.925  30.930   2.723
55222W        W20482  30.715  29.214   1.273
55223W        W20483   1.195  18.315  12.100
55224W        W20484  18.876   4.873  14.992
55225W        W20485   6.294  16.254   1.385
55226W        W20486  34.585  24.649  14.889
55227W        W20487  43.519   5.806  14.772
55228W        W20488   1.555  44.336   0.863
55229W        W20489  10.481  27.210   1.911
55230W        W20490  31.139   0.891   2.691
55231W        W20491  43.449   3.667  11.594
55232W        W20492  29.472   8.241  11.086
55233W        W20493  34.679  29.206   1.317
55234W        W20494  39.521  36.548   3.712
55235W        W20495  31.997  33.567   0.963
55236W        W20496  22.266   6.126  10.290
55237W        W20497   7.885  18.273   2.015
55238W        W20498  37.620   0.111  12.086
55239W        W20499  37.466  19.198  13.625
55240W        W20500  10.233  37.047   2.797
55241W        W20501  14.445  14.168  12.140
55242W        W20502  33.608  34.387  12.636
55243W        W20503  22.172  23.460   0.775
55244W        W20504  17.154  41.279   4.110
55245W        W20505  20.497   1.872  14.966
55246W        W20506  25.777  22.667   3.224
55247W        W20507  10.384  20.240  14.371
55248W        W20508   4.875  32.199   4.462
55249W        W20509   1.948  31.772  10.738
55250W        W20510  16.754   1.938  14.755
55251W        W20511  25.001   3.727  14.814
55252W        W20512   8.445   2.128  11.812
55253W        W20513   5.411  26.207   0.358
55254W        W20514  13.045  43.372  11.086
55255W        W20515  42.932  36.831  10.715
55256W        W20516   9.317   4.738   1.253
55257W        W20517  41.503   0.304   2.691
55258W        W20518  10.337  39.587   0.433
55259W        W20519   2.695  41.267  12.815
55260W        W20520  39.520   6.219   4.806
55261W        W20521  29.045  12.773  10.939
55262W        W20522  20.339  18.112  11.156
55263W        W20523   3.893  25.718  13.289
55264W        W20524  25.264  41.338   1.752
55265W        W20525  23.064  31.814   2.849
55266W        W20526  37.571  30.454  14.725
55267W        W20527   7.200  44.722   0.315
55268W        W20528  14.694  11.592   1.559
55269W        W20529  24.456  44.329   2.255
55270W        W20530  29.679  15.477   4.198
55271W        W20531  18.531  22.823   3.778
55272W        W20532  24.015  27.674   3.285
55273W        W20533  27.068  42.888   2.843
55274W        W20534   4.439  43.524   2.703
55275W        W20535  43.676  15.333   1.653
55276W        W20536  27.672   2.937  12.228
55277W        W20537   3.717   1.630  14.444
55278W        W20538  22.096  13.130  10.919
55279W        W20539  33.025  44.901   1.578
55280W        W20540   2.710  10.207   4.513
55281W        W20541  16.804  16.312  13.590
55282W        W20542  29.674  38.874  14.074
55283W        W20543  39.712   8.825  12.546
55284W        W20544  41.175  10.102  11.469
55285W        W20545  24.174   1.094   0.246
55286W        W20546  14.255  13.965   1.733
55287W        W20547   3.717  19.503  10.196
55288W        W20548  19.907   7.221  11.563
55289W        W20549  35.313  41.386   1.668
55290W        W20550  35.133  16.246  14.745
55291W        W20551  19.992   4.182   3.802
55292W        W20552  32.250  36.999   0.448
55293W        W20553  27.227  29.677   1.006
55294W        W20554  23.162  14.044   3.097
55295W        W20555   2.884  35.422  14.225
55296W        W20556  31.529  17.623   4.199
55297W        W20557   7.251   3.481  14.104
55298W        W20558  34.072  37.235   5.099
55299W        W20559  15.751  38.292  14.274
55300W        W20560   0.902  33.780  11.145
55301W        W20561  17.685   3.270  10.990
55302W        W20562  38.346  11.031  13.373
55303W        W20563  15.111  19.218  11.822
55304W        W20564   6.008  30.206  13.024
55305W        W20565  17.186  24.128  14.959
55306W        W20566  12.839  21.648   0.601
55307W        W20567  12.766  22.758  10.796
55308W        W20568   1.876  23.226   2.850
55309W        W20569   7.229  33.659  14.919
55310W        W20570  18.810   8.907   2.167
55311W        W20571  40.849  42.896   0.875
55312W        W20572  35.450  23.575   0.257
55313W        W20573   1.870  44.262   1.891
55314W        W20574   4.895  32.853   5.070
55315W        W20575  18.712  25.482  12.625
55316W        W20576   0.979  16.232  10.686
55317W        W20577  28.768   0.385  10.798
55318W        W20578  28.933  23.026  13.255
55319W        W20579  23.546  35.065  11.369
55320W        W20580  30.496  28.585   0.631
55321W        W20581  19.864  18.692  14.353
55322W        W20582  12.742  10.124   2.306
55323W        W20583  16.668  13.468  12.368
55324W        W20584   2.409  17.680  14.538
55325W        W20585  32.781  40.878   1.423
55326W        W20586  23.710  34.104  14.918
55327W        W20587  44.937  15.852   3.795
55328W        W20588  33.981   1.519  11.078
55329W        W20589  22.033  13.059  11.407
55330W        W20590  29.912   4.980  14.878
55331W        W20591  19.689  29.666   3.806
55332W        W20592  36.473  29.420  11.603
55333W        W20593   7.497  19.288   0.892
55334W        W20594  12.406  31.351  12.414
55335W        W20595  32.975  36.859  11.168
55336W        W20596  27.528   5.721   2.689
55337W        W20597  23.359   0.275   2.308
55338W        W20598  36.477  24.440  10.994
55339W        W20599  23.038  38.048  12.667
55340W        W20600  21.475   6.425   0.367
55341W        W20601   7.867  16.913  11.967
55342W        W20602  13.901   7.518  14.542
55343W        W20603  31.420  39.607   4.197
55344W        W20604  34.382  22.300   3.384
55345W        W20605  22.590  34.890  10.596
55346W        W20606  15.183  36.429   3.769
55347W        W20607  41.898   9.690  14.927
55348W        W20608  27.005   0.958   0.126
55349W        W20609  19.849  20.934   2.025
55350W        W20610  17.515  36.960  11.171
55351W        W20611  22.217  12.801  13.621
55352W        W20612  19.725  31.852   0.658
55353W        W20613   5.361  32.642  14.304
55354W        W20614  18.583  14.425   5.076
55355W        W20615  19.761  31.547  12.980
55356W        W20616  43.431  43.635  10.665
55357W        W20617  30.708  42.261  11.144
55358W        W20618  35.345   0.780  13.575
55359W        W20619  44.557  32.167  11.161
55360W        W20620  40.518  22.611  11.249
55361W        W20621  17.290  25.113   1.968
55362W        W20622  25.922  37.477   0.022
55363W        W20623  13.402   1.982  12.057
55364W        W20624  43.466  25.164   4.061
55365W        W20625   6.597   0.385  10.268
55366W        W20626  40.872  17.098   3.873
55367W        W20627  11.606   2.201   2.873
55368W        W20628  11.846  35.851   0.593
55369W        W20629   4.122  24.150  14.833
55370W        W20630  44.002   6.258  11.123
55371W        W20631  36.480  32.796  10.780
55372W        W20632   9.726   4.480   4.865
55373W        W20633   9.659  20.465  12.843
55374W        W20634  29.852  34.538  11.105
55375W        W20635   8.633  16.756   2.621
55376W        W20636  31.894   4.053   2.654
55377W        W20637  13.359  32.194  11.445
55378W        W20638  14.841  26.708   0.268
55379W        W20639  21.795  20.399   2.052
55380W        W20640  33.618  39.372   2.883
55381W        W20641  26.966  17.189  12.804
55382W        W20642  34.189  36.858   4.599
55383W        W20643   8.406  38.019   3.189
55384W        W20644  19.391  25.012   2.250
55385W        W20645  27.691  26.580  14.330
55386W        W20646   9.410  12.399  10.680
55387W        W20647  23.577  12.663   1.704
55388W        W20648   1.302   7.675  11.149
55389W        W20649  43.579  39.316  13.559
55390W        W20650  17.734  20.893   1.721
55391W        W20651   6.235  35.209  11.074
55392W        W20652  38.833  42.231   1.382
55393W        W20653   4.401  27.000   3.672
55394W        W20654  31.902  29.893  13.386
55395W        W20655  44.966  21.855  12.642
55396W        W20656  19.313  11.649   4.207
55397W        W20657  25.953   8.935  13.929
55398W        W20658  38.617   8.477  14.974
55399W        W20659  23.675  19.063   1.171
55400W        W20660   9.659   9.584  12.991
55401W        W20661   7.285  10.696   4.864
55402W        W20662  24.978   0.430   4.012
55403W        W20663   1.834   9.094   1.380
55404W        W20664  31.887  31.166   4.021
55405W        W20665  29.451  27.586  14.088
55406W        W20666  41.517  25.627   2.835
55407W        W20667   6.329   8.101   4.043
55408W        W20668  23.205  22.973  14.805
55409W        W20669  24.933  15.271  13.426
55410W        W20670   1.310   0.513  11.662
55411W        W20671  20.790  18.838  11.430
55412W        W20672   4.986  38.935   2.735
55413W        W20673  33.549  37.452  11.443
55414W        W20674  30.994  11.971   4.176
55415W        W20675  22.812  12.821   3.531
55416W        W20676  19.137  30.621   3.852
55417W        W20677  35.163  21.016   1.027
55418W        W20678  26.504  44.778  13.820
55419W        W20679  37.641  42.575   0.480
55420W        W20680  41.964   5.305  12.798
55421W        W20681  14.641  29.362  11.058
55422W        W20682  35.733  31.120   2.845
55423W        W20683  40.243   2.876  13.543
55424W        W20684  14.699  34.460  13.988
55425W        W20685  15.769  28.806   1.805
55426W        W20686  10.782  17.792  11.594
55427W        W20687  10.463   8.416  10.559
55428W        W20688  29.815  33.881   4.305
55429W        W20689  43.386   2.722   3.759
55430W        W20690   9.779  30.383  14.943
55431W        W20691   9.308  16.827  12.958
55432W        W20692  27.927  34.103   2.186
55433W        W20693  36.164  33.752  13.909
55434W        W20694  25.794  19.186   1.845
55435W        W20695  13.740  23.310   3.774
55436W        W20696  38.957  10.664  12.000
55437W        W20697   9.842  30.955   9.914
55438W        W20698  29.889  38.037   2.865
55439W        W20699  40.248  22.006   4.666
55440W        W20700  19.385  10.171  11.764
55441W        W20701  40.807  28.361  14.257
55442W        W20702  34.471   3.326   3.871
55443W        W20703  37.015  17.189   2.674
55444W        W20704  13.404  18.572   0.397
55445W        W20705   0.857  12.278   2.384
55446W        W20706   3.490   2.746   2.083
55447W        W20707  30.158  26.471  12.133
55448W        W20708  25.613  16.896   2.261
55449W        W20709  26.903  19.398   1.476
55450W        W20710  20.640  28.929  14.554
55451W        W20711  10.852  30.949  11.930
55452W        W20712  35.076  29.450   2.650
55453W        W20713  38.132  27.417   4.207
55454W        W20714  20.599  16.169  14.530
55455W        W20715  40.010   1.841  10.683
55456W        W20716  40.296  27.761  12.482
55457W        W20717   1.877  17.317   2.100
55458W        W20718  14.905   6.419  14.995
55459W        W20719  11.865  38.903   1.400
55460W        W20720  30.166  14.547   2.746
55461W        W20721  42.921  31.872  13.394
55462W        W20722  43.549   7.914  10.804
55463W        W20723  11.835  17.233  13.376
55464W        W20724  17.727  30.149   1.301
55465W        W20725  18.297  14.252   2.878
55466W        W20726   1.355   3.327  11.992
55467W        W20727  25.478  28.396  13.887
55468W        W20728   8.102  34.498   2.637
55469W        W20729  31.807  29.235  14.403
55470W        W20730   6.378  20.492   1.133
55471W        W20731  35.967  24.845   9.783
55472W        W20732  26.485  22.189  13.933
55473W        W20733   3.237  20.531  12.427
55474W        W20734  11.619   1.904   4.711
55475W        W20735  22.651  42.060   3.535
55476W        W20736  35.396   3.989   3.212
55477W        W20737  33.861   8.769  14.875
55478W        W20738  36.518   0.767  12.897
55479W        W20739  41.941  37.169   2.108
55480W        W20740   6.802  14.635   1.939
55481W        W20741  32.382   7.925  12.274
55482W        W20742  16.495   9.678  10.470
55483W        W20743  31.667  22.575   2.783
55484W        W20744  22.628  13.599  14.981
55485W        W20745  15.391  21.986  14.346
55486W        W20746  42.267  26.404  12.087
55487W        W20747  38.506  32.627  12.306
55488W        W20748  25.209  42.065  13.829
55489W        W20749  17.197   9.960   0.045
55490W        W20750  40.018  17.216   4.861
55491W        W20751  19.157  12.166   2.612
55492W        W20752  37.036  30.410   3.937
55493W        W20753  31.767  18.788  11.577
55494W        W20754   9.785  13.320   0.592
55495W        W20755  37.472  30.513  13.217
55496W        W20756   0.037  34.064  12.547
55497W        W20757  15.615   6.458  12.153
55498W        W20758  33.301  21.704  13.447
55499W        W20759  23.129  42.638   4.771
55500W        W20760  18.017  39.442  11.253
55501W        W20761  44.348   1.494  10.873
55502W        W20762  44.191  22.120   4.551
55503W        W20763   5.337  18.478   3.556
55504W        W20764  11.407  16.287   2.348
55505W        W20765  27.020  23.438  12.192
55506W        W20766  11.363  15.318  11.041
55507W        W20767  26.748  19.630   3.380
55508W        W20768  24.074  39.389   0.210
55509W        W20769  29.011  35.607   1.914
55510W        W20770  30.094  25.613  11.783
55511W        W20771  14.752   3.263  10.650
55512W        W20772  24.769  20.593   4.558
55513W        W20773  23.207   4.258  13.819
55514W        W20774   3.495  25.722   1.703
55515W        W20775  33.665  39.834   3.168
55516W        W20776  21.331  10.815  12.352
55517W        W20777  20.760   9.880  12.653
55518W        W20778   0.942  21.726  11.169
55519W        W20779  32.858  43.397   0.707
55520W        W20780  41.785  41.934   4.662
55521W        W20781  16.288  22.042  14.615
55522W        W20782  44.970   7.137  12.483
55523W        W20783  11.909  15.269   0.287
55524W        W20784   7.403  18.552  14.248
55525W        W20785  40.335  16.151  10.628
55526W        W20786  20.199  26.690  12.236
55527W        W20787  18.558   9.635  13.893
55528W        W20788  33.832   4.469  10.998
55529W        W20789  44.669   1.872  13.854
55530W        W20790  40.568  26.555  12.348
55531W        W20791   2.842   1.421  12.814
55532W        W20792  32.021  29.033   1.326
55533W        W20793   4.945  18.735   3.214
55534W        W20794  10.539  29.044   0.473
55535W        W20795  39.942   4.420   2.803
55536W        W20796  36.118  44.161   4.507
55537W        W20797  32.438   6.878  13.404
55538W        W20798  12.984   7.174  12.084
55539W        W20799  27.011   6.160   4.554
55540W        W20800  16.435  42.991  12.079
55541W        W20801  12.117  11.630   1.724
55542W        W20802  12.612  20.979   3.076
55543W        W20803  25.977  26.317  10.727
55544W        W20804  16.824  25.890   0.306
55545W        W20805   9.741   1.295   1.780
55546W        W20806  16.482   2.534   4.166
55547W        W20807   0.965  34.793  13.567
55548W        W20808  23.320  23.242   0.258
55549W        W20809   6.361  43.302  11.126
55550W        W20810  33.590  44.350   2.274
55551W        W20811  38.822   2.028   0.059
55552W        W20812  28.033  16.186   2.096
55553W        W20813  36.691  14.792  13.440
55554W        W20814  30.234  25.389   0.452
55555W        W20815  19.181   3.751  11.640
55556W        W20816  10.659   7.474   0.402
55557W        W20817   2.964   5.210   3.898
55558W        W20818  32.214  20.349   2.279
55559W        W20819   6.903   1.381  10.447
55560W        W20820  37.337  27.063  13.580
55561W        W20821  38.305  33.020   3.660
55562W        W20822  16.555  44.228   4.069
55563W        W20823  43.766  22.887   3.702
55564W        W20824  35.141   2.746  14.905
55565W        W20825  40.825  15.028  12.821
55566W        W20826   7.802  41.338   1.233
55567W        W20827  24.982  10.203   4.463
55568W        W20828  33.018  13.655   1.195
55569W        W20829  23.559  16.570  12.316
55570W        W20830   5.701   4.674  11.608
55571W        W20831   5.675  13.723   4.675
55572W        W20832  25.244   2.270  12.246
55573W        W20833   0.642  41.844   2.139
55574W        W20834  34.664  39.931   0.684
55575W        W20835  27.216   2.283   4.447
55576W        W20836  40.322   3.991  12.442
55577W        W20837  18.432   5.405  11.059
55578W        W20838  34.279  37.018  12.427
55579W        W20839  30.807  27.898   1.399
55580W        W20840  17.317  23.633   3.637
55581W        W20841  17.959   8.248  12.888
55582W        W20842   7.709   4.030   2.810
55583W        W20843   2.657  20.762  14.393
55584W        W20844  40.403   4.468  14.794
55585W        W20845  13.350  30.405   0.380
55586W        W20846  23.863   2.472   1.889
55587W        W20847   8.942  38.581   1.657
55588W        W20848  36.031  24.963  12.446
55589W        W20849  23.307  22.756   4.313
55590W        W20850  40.500  23.203   2.691
55591W        W20851  30.728   1.177   1.176
55592W        W20852  17.893  31.513   0.066
55593W        W20853   8.141  27.454   2.818
55594W        W20854  27.973  25.682   2.295
55595W        W20855  29.728  17.624   4.179
55596W        W20856  13.421  32.611   3.289
55597W        W20857  29.004  19.231  10.714
55598W        W20858   4.307  36.885   4.189
55599W        W20859  27.707  39.673  10.641
55600W        W20860  30.250  18.834   4.578
55601W        W20861  34.878  15.086  11.602
55602W        W20862  15.670  33.637   1.746
55603W        W20863  11.778  15.943  11.918
55604W        W20864  12.194  44.921  12.245
55605W        W20865  26.944   6.300  14.297
55606W        W20866  18.290  38.483   0.947
55607W        W20867  40.853  21.138   1.779
55608W        W20868  32.534   7.709   1.010
55609W        W20869  40.224  37.963   5.044
55610W        W20870  13.533  11.747  11.149
55611W        W20871  34.031  17.658   2.574
55612W        W20872  24.725  12.279  13.848
55613W        W20873  10.416  37.377  12.845
55614W        W20874  30.038  44.854   0.542
55615W        W20875   6.438  17.170   2.304
55616W        W20876   9.374  31.686   4.564
55617W        W20877   1.431  27.485   2.778
55618W        W20878  25.109  35.141   3.358
55619W        W20879   5.644  19.939   0.250
55620W        W20880  22.224  21.990  11.521
55621W        W20881  44.340  30.704  11.526
55622W        W20882  34.119  43.949   3.152
55623W        W20883  32.477  11.278   3.357
55624W        W20884  33.138   4.355  13.949
55625W        W20885  40.077  22.212   3.277
55626W        W20886  43.214  10.323   0.383
55627W        W20887  36.083   8.152   2.587
55628W        W20888  11.896  31.176   0.997
55629W        W20889   0.989  22.154   2.146
55630W        W20890  33.951  37.198  11.651
55631W        W20891  23.453  24.686  13.379
55632W        W20892  38.014  38.421   0.820
55633W        W20893   9.276  37.176   0.205
55634W        W20894  24.279  25.980  13.342
55635W        W20895  29.102   6.916   0.338
55636W        W20896  34.290  31.649  12.938
55637W        W20897  40.737  19.146  14.356
55638W        W20898  12.818  22.207  10.797
55639W        W20899  21.540  18.589   0.436
55640W        W20900  20.816  27.047   4.257
55641W        W20901  37.453   1.928   2.268
55642W        W20902   1.176  26.539  13.473
55643W        W20903   4.020   4.404   3.687
55644W        W20904   9.442  35.810   0.299
55645W        W20905   8.139  38.562   4.476
55646W        W20906  38.417   8.395   0.582
55647W        W20907  21.601  44.910  13.625
55648W        W20908  43.353  18.220   0.427
55649W        W20909  23.727   9.660   3.906
55650W        W20910  25.031  12.727  13.572
55651W        W20911  38.867  39.784  12.889
55652W        W20912  16.792   1.131   0.184
55653W        W20913  26.217   1.185   0.011
55654W        W20914  11.364  37.792  13.362
55655W        W20915  39.762  15.018   0.656
55656W        W20916   4.174   6.136   1.160
55657W        W20917  43.858  43.479   3.130
55658W        W20918  15.654   6.899   3.844
55659W        W20919   6.494  29.660  11.047
55660W        W20920  16.346  30.999   1.809
55661W        W20921   9.348  40.575   4.098
55662W        W20922  28.603  37.927   4.482
55663W        W20923  39.786  25.129  11.639
55664W        W20924  12.051  13.677  10.284
55665W        W20925  18.508  24.972   0.380
55666W        W20926  28.004  25.361  13.372
55667W        W20927  10.458  19.234   0.402
55668W        W20928  12.701  23.566   4.029
55669W        W20929  10.994  18.170   1.170
55670W        W20930  38.439  16.931   1.357
55671W        W20931   1.476   1.745   3.551
55672W        W20932   6.412  33.202  14.496
55673W        W20933  40.019   1.968   0.149
55674W        W20934  24.706  17.807   2.968
55675W        W20935   3.537  30.471   2.582
55676W        W20936   9.734  31.006  11.518
55677W        W20937  26.389  17.094  13.633
55678W        W20938  18.879  13.341  14.346
55679W        W20939   5.883  26.218  13.068
55680W        W20940  19.159  28.016  12.458
55681W        W20941  41.168   3.821   3.709
55682W        W20942  32.439  16.729  14.751
55683W        W20943  23.090  20.152  11.113
55684W        W20944  39.891  23.945   0.361
55685W        W20945  42.950  13.677  13.402
55686W        W20946  22.998  37.604  11.674
55687W        W20947  42.002  44.972   4.688
55688W        W20948  34.857  28.178  12.945
55689W        W20949  34.911  39.402   0.366
55690W        W20950  33.612  11.941   2.303
55691W        W20951  21.661  25.680   2.339
55692W        W20952  27.735  24.086   4.112
55693W        W20953  33.905  38.778  10.705
55694W        W20954  29.986  20.388   0.450
55695W        W20955   2.763  42.990   0.836
55696W        W20956  35.692  24.275   4.177
55697W        W20957  19.667  28.178   1.735
55698W        W20958   3.572  41.778   4.984
55699W        W20959  20.815  41.846   0.583
55700W        W20960  44.748  16.722   4.918
55701W        W20961  42.426  14.759   2.908
55702W        W20962   0.317  11.557   1.354
55703W        W20963   2.886  39.528   3.027
55704W        W20964   6.457  33.723  14.498
55705W        W20965  10.455   7.140  12.974
55706W        W20966  10.687  35.617  13.434
55707W        W20967  21.220  33.621   4.138
55708W        W20968   8.784  31.838  13.984
55709W        W20969  23.657   5.019   4.020
55710W        W20970  36.532  43.895   0.441
55711W        W20971  40.964  14.229   0.445
55712W        W20972  18.568  33.975   2.314
55713W        W20973  40.945  11.733   0.038
55714W        W20974   9.814  41.639  11.836
55715W        W20975  41.789  43.564   3.117
55716W        W20976  29.615  23.757  12.515
55717W        W20977  33.148  20.746   2.472
55718W        W20978  41.778  29.578   2.265
55719W        W20979  13.360  29.825  14.783
55720W        W20980  23.447  30.892   4.220
55721W        W20981   6.217  43.691  12.265
55722W        W20982  27.040   9.144  11.184
55723W        W20983  37.998  11.509   0.385
55724W        W20984  23.071  21.333  14.750
55725W        W20985   5.687  30.396   4.032
55726W        W20986   4.340  27.993   4.038
55727W        W20987  40.239  35.008   1.821
55728W        W20988  37.989  25.582  13.456
55729W        W20989  37.894  36.382   1.838
55730W        W20990   5.879   9.986  13.480
55731W        W20991  39.371   6.665  14.722
55732W        W20992  14.162  19.618  10.586
55733W        W20993   5.943   6.362  11.162
55734W        W20994  24.749  41.913  13.258
55735W        W20995  13.668  27.911   3.286
55736W        W20996  40.362  11.790   4.806
55737W        W20997  20.675   4.998  12.625
55738W        W20998  17.586  38.987  13.746
55739W        W20999  42.308  19.776   0.760
55740W        W21000   7.732  23.548   1.498
55741W        W21001   4.869  29.886   2.187
55742W        W21002  14.921  14.218  11.918
55743W        W21003  27.438  24.020   4.526
55744W        W21004  27.296  37.701  11.069
55745W        W21005  36.496  39.958  14.456
55746W        W21006  10.583  18.119  11.956
55747W        W21007  17.764   9.880   3.931
55748W        W21008  19.393  23.209   4.947
55749W        W21009  17.505  35.089   0.420
55750W        W21010  36.793  36.524   4.188
55751W        W21011  33.446  35.872   0.535
55752W        W21012  23.231  36.461   2.340
55753W        W21013  19.826  17.525   1.903
55754W        W21014  10.834  12.277  14.945
55755W        W21015   6.429  23.218   0.381
55756W        W21016   6.863  37.250  12.978
55757W        W21017  13.257  33.364  10.711
55758W        W21018  30.828   4.319  14.998
55759W        W21019  14.505  41.903  14.116
55760W        W21020   5.328   5.756  12.826
55761W        W21021  21.236  17.745  14.729
55762W        W21022  44.456  24.664   0.463
55763W        W21023  17.998  39.524  14.923
55764W        W21024  44.607  12.837  14.804
55765W        W21025  24.773  20.098   3.141
55766W        W21026   3.075  36.072   0.262
55767W        W21027  33.105  10.259  11.163
55768W        W21028  31.750  36.824   0.477
55769W        W21029  34.389   4.164  12.136
55770W        W21030   5.172  38.572  14.432
55771W        W21031   0.660  36.453  11.612
55772W        W21032  39.039  31.179  11.618
55773W        W21033   6.563  40.821   5.052
55774W        W21034   4.948   6.429  13.395
55775W        W21035  40.896  17.024   2.667
55776W        W21036  37.162   3.678   4.039
55777W        W21037  43.509  17.005   1.263
55778W        W21038   8.292  11.951   0.774
55779W        W21039  13.679   3.943  11.112
55780W        W21040   5.829  11.341   0.473
55781W        W21041  33.589  36.476   1.205
55782W        W21042   1.725  22.793  13.706
55783W        W21043  22.490  11.432  12.293
55784W        W21044  27.967  36.023  13.344
55785W        W21045   7.702   5.231   3.699
55786W        W21046   5.695  14.625   0.378
55787W        W21047   7.637  18.913  13.032
55788W        W21048  15.091  32.739   2.789
55789W        W21049   5.167  33.638   1.193
55790W        W21050  44.103   5.692   4.161
55791W        W21051  12.515  44.295  10.749
55792W        W21052  40.073  12.187   3.643
55793W        W21053  37.788  13.834  13.138
55794W        W21054  21.249  11.008  12.834
55795W        W21055   4.359  36.790  12.955
55796W        W21056  23.066  21.150  10.960
55797W        W21057  13.405  37.871  12.952
55798W        W21058  33.864  37.985   1.280
55799W        W21059  26.223  11.927   0.935
55800W        W21060  14.589  16.113  10.785
55801W        W21061   1.229  28.717  11.455
55802W        W21062   8.137  12.628  10.549
55803W        W21063  30.530  12.322  13.035
55804W        W21064  19.568  24.182  11.529
55805W        W21065  37.072  41.881   2.807
55806W        W21066   4.743  23.885  13.902
55807W        W21067  36.405  14.090   0.275
55808W        W21068  36.409   7.130  10.986
55809W        W21069  22.636   9.635  10.834
55810W        W21070  17.437  35.888  14.854
55811W        W21071  29.000  27.549   1.274
55812W        W21072  38.603  22.890  12.558
55813W        W21073   1.309  19.805  11.220
55814W        W21074  40.462  23.131  12.464
55815W        W21075  17.626  19.677  13.570
55816W        W21076   3.080  14.191  11.814
55817W        W21077  33.173  26.576  13.486
55818W        W21078  16.723  32.238   0.710
55819W        W21079  12.090   1.898   3.492
55820W        W21080   1.008  11.817   3.489
55821W        W21081  30.543  10.034  11.479
55822W        W21082   3.616  10.807   2.693
55823W        W21083  23.266   5.479   2.790
55824W        W21084  42.258  44.401   0.382
55825W        W21085  32.617  14.100  12.531
55826W        W21086   5.257  28.220   4.101
55827W        W21087  25.022  31.618  11.931
55828W        W21088  15.429  19.077  14.984
55829W        W21089  30.835  36.985   1.751
55830W        W21090  30.126   4.938  13.024
55831W        W21091  39.364   9.412  14.948
55832W        W21092  31.793  35.546   4.039
55833W        W21093  25.566   8.124   2.358
55834W        W21094  31.508  18.150   0.867
55835W        W21095   6.912  11.925   0.239
55836W        W21096   6.691  23.616   4.489
55837W        W21097   4.071   4.243   4.214
55838W        W21098   5.425   1.624   2.750
55839W        W21099   3.012  21.735   4.195
55840W        W21100  10.205  40.410   3.677
55841W        W21101  38.600  36.617   3.645
55842W        W21102  37.268   1.287  12.457
55843W        W21103  40.837   3.669   1.390
55844W        W21104  14.860  28.521   0.417
55845W        W21105  43.276  40.794   1.657
55846W        W21106  34.980  13.832   2.319
55847W        W21107  15.909  44.496   0.444
55848W        W21108  25.519   0.835  12.044
55849W        W21109  33.396  16.162   1.504
55850W        W21110  14.905   4.648   4.264
55851W        W21111   5.177  15.265  12.528
55852W        W21112  22.176  22.051   4.577
55853W        W21113  40.331  31.564  14.000
55854W        W21114  30.368  36.813   4.226
55855W        W21115  35.528  27.932   3.698
55856W        W21116  29.285  10.912   4.166
55857W        W21117   7.071  27.786   0.273
55858W        W21118  44.701   4.855   4.693
55859W        W21119  39.673  39.343   1.641
55860W        W21120  40.813   5.433  14.755
55861W        W21121  38.145   7.165   5.056
55862W        W21122  42.420  16.716   0.209
55863W        W21123  31.299  25.428   3.198
55864W        W21124  10.259  30.968  11.457
55865W        W21125  13.239  15.435  13.881
55866W        W21126  34.575   9.334   4.552
55867W        W21127  19.767   4.918   1.172
55868W        W21128  24.169   1.524  14.723
55869W        W21129  26.741  32.724   4.099
55870W        W21130  43.747  41.915  12.623
55871W        W21131  35.463  40.285   2.120
55872W        W21132  14.057  34.744  12.464
55873W        W21133   6.194   2.067  12.979
55874W        W21134  27.105   4.384  13.276
55875W        W21135  13.856  27.228  14.497
55876W        W21136  27.271   2.840   1.381
55877W        W21137  25.186  36.631   0.732
55878W        W21138  11.685  16.150   4.924
55879W        W21139  10.710  33.955  13.305
55880W        W21140  28.209  39.445   3.214
55881W        W21141  18.157  16.778   1.523
55882W        W21142  11.946  23.580  11.626
55883W        W21143  16.634   8.424  13.102
55884W        W21144   4.481   5.863   2.743
55885W        W21145  44.168  12.498  14.859
55886W        W21146  20.694  37.747   3.164
55887W        W21147   1.238   5.435  12.591
55888W        W21148   7.258   6.378  11.973
55889W        W21149  30.895  34.423   2.378
55890W        W21150   3.699  31.556   3.086
55891W        W21151   6.846  22.571  11.636
55892W        W21152  35.327  13.849   3.019
55893W        W21153  32.822  37.881  12.385
55894W        W21154  15.806  10.735   1.268
55895W        W21155  11.041  16.719  11.039
55896W        W21156  33.630  16.852  11.123
55897W        W21157  22.194  30.182   2.793
55898W        W21158  32.084  33.531  14.927
55899W        W21159   4.273  41.427  11.788
55900W        W21160  21.382  42.020  14.920
55901W        W21161   1.363  24.543  10.557
55902W        W21162  28.595  18.005   2.355
55903W        W21163  18.858  31.781  13.282
55904W        W21164  36.393  38.320   0.884
55905W        W21165   4.935  38.276   3.208
55906W        W21166  10.792  10.197  10.726
55907W        W21167  23.185   7.577   4.146
55908W        W21168   0.311  28.512  11.681
55909W        W21169  44.358  18.633  14.865
55910W        W21170  40.040  40.879   1.953
55911W        W21171   5.655  24.284  14.595
55912W        W21172  27.953  35.873   0.988
55913W        W21173  18.269  40.048  11.619
55914W        W21174  33.847  24.124  12.642
55915W        W21175  43.531  43.142   2.903
55916W        W21176  36.887  11.254   0.990
55917W        W21177  24.159  15.225   3.311
55918W        W21178   2.821  33.099  10.844
55919W        W21179   3.950  19.162   1.329
55920W        W21180   4.262  29.958  13.154
55921W        W21181  15.308   6.388   4.531
55922W        W21182  23.007  22.258  12.090
55923W        W21183  39.843   6.235  13.247
55924W        W21184  31.570  32.745  14.760
55925W        W21185   2.181  30.025  10.706
55926W        W21186  35.950   3.683  14.735
55927W        W21187  10.771  29.667  14.313
55928W        W21188   9.301  27.925   2.700
55929W        W21189  17.639  28.821   1.754
55930W        W21190  14.015  38.572  13.063
55931W        W21191   7.440   6.971   0.026
55932W        W21192  37.516  41.392   4.242
55933W        W21193   0.454   5.612   4.242
55934W        W21194  35.047   5.986  14.430
55935W        W21195  44.990  21.083  14.490
55936W        W21196   9.190  40.959   0.765
55937W        W21197  20.688  18.535  14.429
55938W        W21198  23.238  34.591  13.570
55939W        W21199  28.671   4.163   0.443
55940W        W21200  30.640  33.561  13.792
55941W        W21201  27.949  12.857   4.655
55942W        W21202   4.044  25.913   0.523
55943W        W21203  30.666  24.085  10.945
55944W        W21204  35.511   4.261   0.236
55945W        W21205  14.102   5.182  14.405
55946W        W21206  14.240  27.248   2.673
55947W        W21207  18.601   9.374   4.169
55948W        W21208  32.592  10.803   4.152
55949W        W21209  33.452  26.212  11.914
55950W        W21210  33.475  15.139   3.302
55951W        W21211  16.602  26.497  12.085
55952W        W21212  27.940  11.634   0.475
55953W        W21213   9.220  40.797  11.695
55954W        W21214  42.109  33.500   1.602
55955W        W21215   2.348  21.664  13.961
55956W        W21216  27.976  29.635  11.296
55957W        W21217   0.575   9.718   2.222
55958W        W21218  43.138  28.274   2.290
55959W        W21219  23.599   0.729   2.372
55960W        W21220  14.041  11.108   0.605
55961W        W21221  31.374  37.851  12.629
55962W        W21222  14.148  34.939   0.575
55963W        W21223  27.235  20.701  11.411
55964W        W21224  42.161  36.548  11.971
55965W        W21225  34.714  32.044   1.396
55966W        W21226  19.024  20.581   2.274
55967W        W21227  30.457  28.682   1.140
55968W        W21228   2.260  22.724   3.782
55969W        W21229  44.046  30.100  14.359
55970W        W21230  34.753  33.880   3.750
55971W        W21231   1.964  15.721  13.071
55972W        W21232  11.593   4.904  11.354
55973W        W21233  29.577  13.292   3.410
55974W        W21234   5.170  23.579   0.294
55975W        W21235  41.558   5.963   1.771
55976W        W21236  35.509  41.433  12.040
55977W        W21237  13.698  30.885   2.624
55978W        W21238   3.077  23.014  13.186
55979W        W21239   4.720  44.211  10.532
55980W        W21240  32.720  13.352  14.453
55981W        W21241  37.971   2.686  13.227
55982W        W21242   8.752  20.803   1.944
55983W        W21243  27.682  33.867   0.815
55984W        W21244   1.729  44.796   4.063
55985W        W21245  34.842   9.708  11.532
55986W        W21246  38.852  21.568   1.011
55987W        W21247  35.955  18.168   4.591
55988W        W21248  25.476  13.996   2.986
55989W        W21249   4.068  26.161  12.642
55990W        W21250   5.656  41.928  11.518
55991W        W21251  18.065  24.207  10.779
55992W        W21252  30.671  13.841   4.186
55993W        W21253  41.092  27.668  11.961
55994W        W21254  17.714   5.443   1.887
55995W        W21255  15.646   5.585  10.868
55996W        W21256  40.772  15.047   0.884
55997W        W21257  12.490  34.961   0.964
55998W        W21258  24.886  17.932   0.652
55999W        W21259  35.076  26.830   1.376
56000W        W21260   0.910  11.772   2.236
56001W        W21261  37.613  21.527   1.695
56002W        W21262  35.434   0.061   0.416
56003W        W21263  17.278  24.036   2.784
56004W        W21264  36.016   4.896   1.773
56005W        W21265  20.241  32.748   4.541
56006W        W21266  16.951   8.492  13.930
56007W        W21267  12.083  16.002  14.937
56008W        W21268  28.883  31.383  12.451
56009W        W21269  14.417  39.533   0.310
56010W        W21270  40.074  27.608   3.300
56011W        W21271  12.575  43.994  14.495
56012W        W21272  11.158   2.832  14.164
56013W        W21273   0.380   0.248  12.430
56014W        W21274  25.129  38.351  14.773
56015W        W21275  34.821  41.308   2.860
56016W        W21276   8.092  37.379   4.596
56017W        W21277  14.135  31.144  11.216
56018W        W21278   9.859  24.708   4.097
56019W        W21279   4.233   6.378  14.266
56020W        W21280  12.756  14.842   1.582
56021W        W21281  32.828  21.383  14.294
56022W        W21282  34.153   0.441  14.255
56023W        W21283  42.298  15.979  11.646
56024W        W21284  38.740   0.789  14.467
56025W        W21285  40.461  19.113   4.154
56026W        W21286  14.707  41.912  14.608
56027W        W21287   9.464  34.299  12.465
56028W        W21288  31.572  21.249   4.407
56029W        W21289  20.710  15.461   4.604
56030W        W21290   4.969  27.988   0.096
56031W        W21291  17.116  16.431   3.303
56032W        W21292   6.337  23.477   4.136
56033W        W21293  42.805  34.607   3.305
56034W        W21294  18.291  19.167   0.128
56035W        W21295  23.068   0.970   1.196
56036W        W21296  37.463  20.254  13.863
56037W        W21297  25.198  19.540  10.293
56038W        W21298   8.472  13.103   2.768
56039W        W21299  20.804  25.930  13.141
56040W        W21300  38.045   4.894   4.254
56041W        W21301  21.375  25.560   3.258
56042W        W21302  24.065  29.947  13.026
56043W        W21303  20.606  27.431   4.569
56044W        W21304  33.116  31.010  13.256
56045W        W21305  40.977  11.457   4.405
56046W        W21306   6.689  31.705  12.541
56047W        W21307  40.266  12.554  11.586
56048W        W21308  42.563  41.386  11.085
56049W        W21309  35.002   7.253  13.123
56050W        W21310  26.344   7.749   2.721
56051W        W21311  24.066  28.489   2.881
56052W        W21312   6.903  15.209  13.440
56053W        W21313   6.646   2.275  13.056
56054W        W21314  38.467  13.555  11.493
56055W        W21315  21.880  18.019   1.240
56056W        W21316  23.450  16.527   0.265
56057W        W21317   3.841  21.497  11.208
56058W        W21318   0.881  32.587   0.250
56059W        W21319  37.866   2.925   3.785
56060W        W21320  27.738  42.431   0.199
56061W        W21321  41.420  32.487   3.361
56062W        W21322  19.989  14.038   0.644
56063W        W21323  18.296  13.348   2.864
56064W        W21324  43.137   0.744  14.057
56065W        W21325  34.012  27.842  11.355
56066W        W21326  43.904  17.334  11.039
56067W        W21327  18.240  28.385  11.484
56068W        W21328  35.003  30.640   0.743
56069W        W21329  26.472  36.517   4.652
56070W        W21330  18.347  18.142  13.760
56071W        W21331   8.849   6.222   1.773
56072W        W21332  16.157  24.792  10.769
56073W        W21333   4.477  38.980   2.715
56074W        W21334  37.572   0.085   3.105
56075W        W21335  21.527  20.315  13.138
56076W        W21336  34.405  43.277  12.895
56077W        W21337  25.565  38.818  11.866
56078W        W21338  15.914  35.895   3.211
56079W        W21339  23.497   3.116   0.679
56080W        W21340   7.387  43.762   3.976
56081W        W21341  10.288  30.627   5.451
56082W        W21342  41.776  21.167   1.465
56083W        W21343  16.854   4.129  14.236
56084W        W21344   7.722  31.549  12.672
56085W        W21345   1.907   1.615  14.277
56086W        W21346  32.378   1.486   2.702
56087W        W21347  26.790  24.138   0.831
56088W        W21348  14.112  25.170   2.584
56089W        W21349   2.738   3.012  13.493
56090W        W21350  28.687   4.358  11.201
56091W        W21351  40.767  33.890   4.754
56092W        W21352  34.098  38.262   4.487
56093W        W21353   5.286  20.775   2.871
56094W        W21354  26.488  18.266  12.345
56095W        W21355  29.145  38.827  12.030
56096W        W21356   4.556  23.169   4.649
56097W        W21357  32.758  16.855  11.559
56098W        W21358  38.431  25.193  10.876
56099W        W21359   2.330   6.201  10.648
56100W        W21360  30.766  22.313  12.160
56101W        W21361  41.789  23.628  14.474
56102W        W21362   9.817  39.084  11.168
56103W        W21363  10.583   0.256   0.380
56104W        W21364   9.482  29.078  12.044
56105W        W21365   4.699   6.425  10.685
56106W        W21366  22.948  36.823  13.314
56107W        W21367  31.707   0.753   0.183
56108W        W21368   2.005   8.623  10.482
56109W        W21369  18.753  31.492   3.236
56110W        W21370  14.144  43.501   3.063
56111W        W21371  10.661   7.612   1.312
56112W        W21372  38.610  19.895  12.145
56113W        W21373  36.073  25.431  14.043
56114W        W21374  35.648  12.795  14.427
56115W        W21375  20.808  24.967  10.364
56116W        W21376  35.890  34.915  10.792
56117W        W21377   3.018  20.971   2.203
56118W        W21378  36.812  39.128  10.687
56119W        W21379  31.493   3.745   2.810
56120W        W21380  38.307   3.638  11.476
56121W        W21381   3.046  12.797  13.466
56122W        W21382  31.011   9.784   1.300
56123W        W21383  28.175  38.856  13.834
56124W        W21384  38.351  31.778   3.180
56125W        W21385  37.656  19.244  14.100
56126W        W21386   5.428   9.136   0.480
56127W        W21387   2.649  19.125   4.220
56128W        W21388  37.476  16.119  10.371
56129W        W21389  31.466   2.051  13.503
56130W        W21390  41.828   5.330   0.709
56131W        W21391  29.865   8.376   2.753
56132W        W21392  38.751  36.520   0.739
56133W        W21393  19.211  22.539   3.892
56134W        W21394  14.030  21.017  13.064
56135W        W21395   8.789  16.102  13.521
56136W        W21396  13.446  23.703   5.125
56137W        W21397  39.496  43.795  13.359
56138W        W21398  12.842  28.388  13.785
56139W        W21399  16.610  32.757  13.127
56140W        W21400  15.590   3.292   1.811
56141W        W21401  17.120   3.487  11.690
56142W        W21402  26.188  33.894  14.720
56143W        W21403  32.336  25.185  11.239
56144W        W21404  29.501   0.777  14.938
56145W        W21405   5.274  29.363  12.533
56146W        W21406  23.075  12.600  14.307
56147W        W21407  10.748  29.152  13.456
56148W        W21408  33.402   6.838   4.165
56149W        W21409   1.245  23.652   3.213
56150W        W21410   2.394  37.788   0.434
56151W        W21411  31.823   7.680  14.506
56152W        W21412  39.333  10.347   3.247
56153W        W21413  15.083  13.589   2.950
56154W        W21414  26.365  34.340  11.506
56155W        W21415  25.723  12.175   0.401
56156W        W21416  26.504   1.304   3.764
56157W        W21417  44.515  33.415  14.038
56158W        W21418  17.611  35.871   4.063
56159W        W21419  33.562  43.108   1.789
56160W        W21420  38.511  34.927   3.374
56161W        W21421  13.117  38.791  12.939
56162W        W21422  14.352  38.585  12.657
56163W        W21423  23.991  24.347   0.283
56164W        W21424  18.569  26.674   3.607
56165W        W21425  22.062  18.191  10.834
56166W        W21426   0.596  44.411   0.799
56167W        W21427  15.213  16.951  14.900
56168W        W21428  13.356   9.830   1.872
56169W        W21429  40.565  44.252   0.755
56170W        W21430   7.549  30.712  11.675
56171W        W21431  21.000  41.665  13.069
56172W        W21432  39.969  42.892  13.775
56173W        W21433  39.494   5.673  10.595
56174W        W21434  22.216   4.417   0.429
56175W        W21435  30.001   0.009   1.888
56176W        W21436  30.138  36.276   3.317
56177W        W21437  26.986  26.952   4.531
56178W        W21438  39.156  25.938   2.272
56179W        W21439   6.279   9.907   1.413
56180W        W21440  33.994   3.921   1.378
56181W        W21441  43.932   0.900   2.658
56182W        W21442   9.632   2.156   1.413
56183W        W21443  14.174  33.488  11.242
56184W        W21444  27.403  35.983   3.150
56185W        W21445   7.953   5.868  14.357
56186W        W21446   4.237  17.247  12.064
56187W        W21447  33.918   1.528   0.866
56188W        W21448  15.078  11.834   1.884
56189W        W21449  11.295  29.946  11.199
56190W        W21450  21.042  35.435   3.249
56191W        W21451   2.604  44.592  13.036
56192W        W21452  18.163  36.809  14.214
56193W        W21453  20.289   9.370   0.259
56194W        W21454  27.921  30.363  14.786
56195W        W21455   8.439  43.481   2.222
56196W        W21456  30.420   4.278  11.578
56197W        W21457  21.654  21.796  14.530
56198W        W21458  13.310   7.201  13.845
56199W        W21459  43.786  35.474   0.883
56200W        W21460  42.613  37.928  12.748
56201W        W21461  17.125  29.120  14.310
56202W        W21462   9.377   8.768   2.100
56203W        W21463  15.124  31.070   1.327
56204W        W21464   4.518   5.455  11.578
56205W        W21465  34.207  39.784   1.432
56206W        W21466  28.032  17.552   4.586
56207W        W21467  44.782  31.974  11.575
56208W        W21468  15.185  13.841  10.504
56209W        W21469   8.670  24.655  10.730
56210W        W21470  35.054  29.088   4.120
56211W        W21471  35.575  14.316  14.373
56212W        W21472   2.239  44.923  11.081
56213W        W21473   2.504   5.616   3.159
56214W        W21474  37.062  36.498  11.594
56215W        W21475   5.680  28.867  13.416
56216W        W21476   0.209  38.907  13.227
56217W        W21477  12.096  20.165  13.794
56218W        W21478  40.790  20.361  11.497
56219W        W21479   8.605  12.391  14.947
56220W        W21480  40.914  18.702   0.328
56221W        W21481   4.858  25.707   0.769
56222W        W21482  37.537  38.342  12.426
56223W        W21483  17.494  26.021  11.210
56224W        W21484  29.606  14.313   0.990
56225W        W21485  20.500  28.080  11.102
56226W        W21486  37.477  16.477  13.545
56227W        W21487  14.541   6.411  13.998
56228W        W21488  25.139  23.334  14.045
56229W        W21489  39.420  26.661  12.945
56230W        W21490  15.473  19.526  10.946
56231W        W21491  25.792  32.644  13.053
56232W        W21492  22.565  34.004   4.172
56233W        W21493  28.955  26.010   0.518
56234W        W21494  25.290  24.995  13.622
56235W        W21495  19.183   9.182   4.809
56236W        W21496  18.073  13.311   1.765
56237W        W21497  44.504  18.027   1.879
56238W        W21498  40.280   4.251   0.845
56239W        W21499   5.300   9.274  13.797
56240W        W21500  12.895  28.965  14.446
56241W        W21501  40.604  42.252   4.319
56242W        W21502  17.406  20.499   3.247
56243W        W21503  40.074  35.378   4.987
56244W        W21504  10.744   6.709  13.529
56245W        W21505   0.464  22.169   2.041
56246W        W21506  14.753  29.228  14.953
56247W        W21507  13.582  34.383   0.064
56248W        W21508  27.966  13.004   2.731
56249W        W21509  15.795  20.403  14.026
56250W        W21510  26.558  27.111  10.668
56251W        W21511  13.313   2.677  14.790
56252W        W21512  16.234  11.124  10.712
56253W        W21513  18.447  11.879   2.112
56254W        W21514   6.489  34.537  11.574
56255W        W21515   4.222  39.435  14.693
56256W        W21516   9.692  23.041  12.988
56257W        W21517  31.019  39.865  10.558
56258W        W21518  39.245  23.680   3.453
56259W        W21519  34.863  38.174  14.810
56260W        W21520  39.129  21.420   1.419
56261W        W21521  21.863  37.793  11.135
56262W        W21522  23.971  22.496  13.408
56263W        W21523  17.737   0.533   4.897
56264W        W21524  36.723  35.027   2.362
56265W        W21525   2.900  10.896  11.096
56266W        W21526  28.080  24.262   2.321
56267W        W21527  27.718  11.398   3.290
56268W        W21528  35.649  40.357  10.799
56269W        W21529  39.514   2.548   3.634
56270W        W21530  21.260  12.469   2.067
56271W        W21531  24.157  40.003   1.422
56272W        W21532   1.830  11.650   9.962
56273W        W21533  19.157  44.954  13.771
56274W        W21534  41.945   9.798   0.955
56275W        W21535  21.754   4.227   0.295
56276W        W21536  15.416   6.456  14.862
56277W        W21537  14.277  17.498   4.904
56278W        W21538  35.768  39.876   0.335
56279W        W21539  13.772   2.672   2.261
56280W        W21540  44.494  44.394  12.985
56281W        W21541  25.568  21.858   0.216
56282W        W21542   9.920  33.586  12.915
56283W        W21543  20.505  30.859  12.626
56284W        W21544  18.156   8.351   1.471
56285W        W21545  24.749  14.526   0.936
56286W        W21546  10.052  14.543  11.962
56287W        W21547  35.651  25.285  11.523
56288W        W21548   6.690  43.908   3.758
56289W        W21549  35.801  24.576   1.337
56290W        W21550  22.087  43.989  12.835
56291W        W21551   9.657   7.055  11.592
56292W        W21552  26.279  27.493  13.326
56293W        W21553  36.155  35.871   3.281
56294W        W21554  44.780  36.555   0.749
56295W        W21555  15.826  32.015   2.744
56296W        W21556  39.886  13.944  12.913
56297W        W21557  12.107  25.702   1.920
56298W        W21558  28.846  43.831  11.475
56299W        W21559   8.269  18.126   4.082
56300W        W21560  33.404  23.597  14.211
56301W        W21561   7.657  13.792   2.745
56302W        W21562  36.183  40.456   5.060
56303W        W21563  36.684  43.804  12.851
56304W        W21564  21.531  25.475   1.341
56305W        W21565  13.277  29.409   1.602
56306W        W21566  29.748  24.960   2.628
56307W        W21567   2.273  28.994   1.703
56308W        W21568  29.159  28.540  11.616
56309W        W21569  27.123  27.933   1.722
56310W        W21570  15.191   4.222  10.700
56311W        W21571  35.942  17.150   3.805
56312W        W21572  21.707   1.199   2.379
56313W        W21573  34.305  12.339   2.775
56314W        W21574  31.363  19.692   2.595
56315W        W21575  29.088  37.596   1.927
56316W        W21576  14.197  39.464  13.088
56317W        W21577  18.650  17.175   0.471
56318W        W21578  19.640  41.839   2.383
56319W        W21579  39.276  11.772  11.408
56320W        W21580   9.600  31.613  10.936
56321W        W21581  39.373  23.755  11.753
56322W        W21582  40.336  33.562   3.026
56323W        W21583  21.536  16.590  13.377
56324W        W21584  19.190  31.421   2.674
56325W        W21585  29.703  23.489   4.862
56326W        W21586  37.131   1.958  11.162
56327W        W21587  15.610  28.465   3.205
56328W        W21588  39.880  39.555   1.200
56329W        W21589  23.693  24.295   3.526
56330W        W21590  44.357   8.098   4.712
56331W        W21591  44.451  16.372  11.755
56332W        W21592  24.953  27.024  14.364
56333W        W21593  25.649  27.235   1.331
56334W        W21594  20.651  10.320  12.385
56335W        W21595  31.054  31.142  11.617
56336W        W21596  12.408  33.104   2.243
56337W        W21597   5.359   9.241   1.960
56338W        W21598  30.022  12.948  12.498
56339W        W21599   0.725  38.032   3.869
56340W        W21600  41.972  41.337   4.647
56341W        W21601   1.314  39.750   1.430
56342W        W21602  16.602  41.521   3.391
56343W        W21603  21.578  16.206  14.856
56344W        W21604  10.287  24.722  14.053
56345W        W21605  19.840  43.413  14.484
56346W        W21606  26.565   3.507   2.780
56347W        W21607  41.349  28.685   2.466
56348W        W21608  11.304  34.432  13.385
56349W        W21609  35.830  36.964  14.824
56350W        W21610  23.051  33.028  11.982
56351W        W21611  19.822  13.353   3.722
56352W        W21612  44.045  13.886   3.293
56353W        W21613  43.809  25.953   0.089
56354W        W21614  20.729  32.479   3.020
56355W        W21615  42.787   1.530  11.972
56356W        W21616  18.261  21.951   2.332
56357W        W21617   4.630  39.048  11.030
56358W        W21618  41.594  33.816  14.048
56359W        W21619  21.278  24.411   0.436
56360W        W21620  15.336  41.692   3.106
56361W        W21621  23.734  29.450  14.962
56362W        W21622  38.001   8.501  11.936
56363W        W21623  20.621  24.951   2.177
56364W        W21624   2.007   9.788  11.383
56365W        W21625  20.295  41.969  14.080
56366W        W21626  11.907  18.911   3.797
56367W        W21627  40.117  25.999   2.766
56368W        W21628  23.963  18.225   2.617
56369W        W21629  43.801  44.792   1.100
56370W        W21630   8.327  30.336  12.035
56371W        W21631  15.526  11.729  12.638
56372W        W21632  30.071  13.374   2.378
56373W        W21633  44.530   5.777  12.652
56374W        W21634  43.375  28.401   1.057
56375W        W21635   5.704  18.275  10.691
56376W        W21636  40.974  17.200  13.381
56377W        W21637   3.830  24.511   3.286
56378W        W21638  16.605   2.023  12.991
56379W        W21639  12.659  26.699   1.680
56380W        W21640  19.652  12.043  14.847
56381W        W21641   8.286  13.897  14.440
56382W        W21642   0.384  24.602  11.600
56383W        W21643  27.394  42.297   3.938
56384W        W21644  35.920  19.557  12.077
56385W        W21645  10.715  10.978   4.555
56386W        W21646  17.743  20.140   1.259
56387W        W21647  22.004   9.375   3.689
56388W        W21648   2.851  18.377   2.235
56389W        W21649   6.745  23.073   4.592
56390W        W21650  29.046   7.635   0.904
56391W        W21651  24.162   0.484   3.403
56392W        W21652  13.627   3.671   4.563
56393W        W21653  31.918   7.778   0.037
56394W        W21654  44.685  28.862  10.296
56395W        W21655   9.774   1.413   0.918
56396W        W21656  13.148  26.543  10.122
56397W        W21657   1.730  17.820   3.718
56398W        W21658  24.087  27.937  11.707
56399W        W21659  40.402   5.324  10.733
56400W        W21660  30.328   0.752  14.389
56401W        W21661  34.327  10.802  14.953
56402W        W21662  34.964  38.469   1.281
56403W        W21663  37.091  37.430  12.544
56404W        W21664   4.812   6.652   0.468
56405W        W21665  20.545  21.470   0.285
56406W        W21666  30.341   7.493  13.944
56407W        W21667  40.239  31.880   0.239
56408W        W21668   1.023  44.899  10.528
56409W        W21669  12.643  28.808  11.267
56410W        W21670   9.628  21.205  11.179
56411W        W21671  24.160  38.955  14.471
56412W        W21672  36.661  10.252   1.270
56413W        W21673  35.322  17.862   2.886
56414W        W21674  25.506   5.178  14.393
56415W        W21675  14.429  13.616   3.850
56416W        W21676  29.600  30.407   0.371
56417W        W21677   6.479  29.964  11.465
56418W        W21678   0.733  31.894   4.022
56419W        W21679  26.539  21.465  13.206
56420W        W21680  23.004   7.837  14.320
56421W        W21681  39.108  31.927   0.885
56422W        W21682  40.471  36.893   2.136
56423W        W21683  28.306  11.488  10.775
56424W        W21684  23.387  38.703   4.275
56425W        W21685  34.810  31.801   2.260
56426W        W21686  29.993  41.785   2.841
56427W        W21687   1.742  29.660   4.459
56428W        W21688  31.510   0.987  13.048
56429W        W21689  25.245   5.993   3.792
56430W        W21690   1.208  21.924   1.703
56431W        W21691  31.542  43.591   1.751
56432W        W21692  26.097  41.765   4.013
56433W        W21693  35.696  34.727  12.224
56434W        W21694   8.858  34.103  12.543
56435W        W21695   1.950  29.947   0.784
56436W        W21696  40.950  36.619  12.452
56437W        W21697  22.117  13.839   3.282
56438W        W21698  29.047  24.977   3.396
56439W        W21699  26.547  42.198   2.779
56440W        W21700   1.277  30.213  12.880
56441W        W21701  24.508  22.152   4.104
56442W        W21702  10.360  39.722  12.588
56443W        W21703   2.323   9.592  12.282
56444W        W21704  12.326  35.703  14.445
56445W        W21705   4.826  27.645   3.555
56446W        W21706  42.094   5.690  12.008
56447W        W21707  27.516  20.331  14.061
56448W        W21708  14.672  37.542  13.821
56449W        W21709  16.184  13.404  14.396
56450W        W21710   4.402  15.777   0.317
56451W        W21711  18.880  32.899   2.165
56452W        W21712   1.778  29.128   1.714
56453W        W21713  26.971  31.916   3.339
56454W        W21714   2.203  23.177  13.004
56455W        W21715  39.736   1.672  14.817
56456W        W21716  29.885  27.047  10.564
56457W        W21717  14.089  34.073   1.378
56458W        W21718  25.385  11.771  10.517
56459W        W21719  24.682  23.914  13.292
56460W        W21720  28.916  19.822   0.843
56461W        W21721  26.865  27.195   2.686
56462W        W21722  10.196  21.194  12.993
56463W        W21723  25.754  28.635   1.306
56464W        W21724  44.277  18.069  13.012
56465W        W21725   8.752  35.179   1.165
56466W        W21726  41.360   8.509  14.487
56467W        W21727  29.925  25.169   4.276
56468W        W21728  27.966  19.259   9.751
56469W        W21729  34.437  17.553   2.906
56470W        W21730  24.064  41.026  13.801
56471W        W21731  37.849  34.672  12.391
56472W        W21732  16.711  37.169   4.252
56473W        W21733  35.429  27.061  14.396
56474W        W21734  31.427  15.873  12.766
56475W        W21735   1.021  44.504  13.275
56476W        W21736  27.739  15.073  11.258
56477W        W21737  37.388   5.404  12.441
56478W        W21738  26.449  43.365   1.189
56479W        W21739  39.047  19.373  11.596
56480W        W21740  20.653  20.304   4.141
56481W        W21741  15.248   4.145   1.693
56482W        W21742  32.069  36.546  14.278
56483W        W21743  41.369   2.332   4.253
56484W        W21744  38.979  39.878   4.198
56485W        W21745  10.207   7.330   1.252
56486W        W21746  11.119  21.708  11.457
56487W        W21747  33.303  39.964   0.436
56488W        W21748  39.852  24.477   0.838
56489W        W21749  25.567  18.778  12.067
56490W        W21750  35.806   7.853  14.892
56491W        W21751  35.908   5.844  13.814
56492W        W21752   0.015  24.786   4.116
56493W        W21753  32.354  36.964  14.441
56494W        W21754   3.331   6.732  14.884
56495W        W21755  24.591  10.741   1.292
56496W        W21756  35.320  21.000  14.524
56497W        W21757  37.799  42.723   3.101
56498W        W21758   9.831  16.809   0.299
56499W        W21759  38.325   8.260  11.609
56500W        W21760   4.989   9.690  13.699
56501W        W21761  22.100   5.497  14.122
56502W        W21762  39.080  24.179  11.917
56503W        W21763   7.315   1.892   4.168
56504W        W21764  38.368  27.147   2.278
56505W        W21765   5.940  34.386   2.231
56506W        W21766  20.466  35.914   4.548
56507W        W21767   6.808   8.145   0.452
56508W        W21768  37.478   5.825   2.439
56509W        W21769  21.209  34.480  13.699
56510W        W21770  19.779  27.693  11.898
56511W        W21771  22.231  39.400   0.094
56512W        W21772  36.124  10.198   4.976
56513W        W21773   5.887   8.110  12.005
56514W        W21774  28.747  38.976   0.296
56515W        W21775   8.879  40.413   3.286
56516W        W21776  14.008  27.922   5.351
56517W        W21777  10.777  29.468   0.245
56518W        W21778  30.081  37.301   0.745
56519W        W21779  18.192   2.160  14.921
56520W        W21780  24.105  20.416  12.487
56521W        W21781  44.466   6.076  11.311
56522W        W21782  34.575  34.464   3.175
56523W        W21783  36.238  41.988   3.221
56524W        W21784   3.773  36.072  14.325
56525W        W21785  39.620  25.081  14.897
56526W        W21786  27.581  34.616  10.854
56527W        W21787  31.313  33.252   4.899
56528W        W21788  20.211  39.056  12.817
56529W        W21789  36.577  32.387  10.426
56530W        W21790  41.489  41.292   1.361
56531W        W21791  32.491  21.241  13.017
56532W        W21792   8.531   2.267   0.488
56533W        W21793  33.063   7.227   1.308
56534W        W21794   6.193  31.192   1.157
56535W        W21795  25.762  12.829   4.188
56536W        W21796   6.732  26.620   4.693
56537W        W21797  37.621  20.745  13.927
56538W        W21798  11.352  12.393  12.027
56539W        W21799   6.836  34.047   1.855
56540W        W21800  10.106  30.193  11.860
56541W        W21801  44.883  35.337  13.896
56542W        W21802  32.618  28.839  12.096
56543W        W21803  42.318  24.639  10.792
56544W        W21804   4.860   7.596   4.067
56545W        W21805  39.861  16.771   4.597
56546W        W21806  26.021  29.397   1.010
56547W        W21807  24.110   4.295  13.678
56548W        W21808  10.464  11.074  11.503
56549W        W21809  41.206  14.646  13.707
56550W        W21810  44.341  14.894  12.016
56551W        W21811   6.435  43.575  11.561
56552W        W21812  28.592   3.004   1.606
56553W        W21813  27.167   1.240  12.405
56554W        W21814  17.755  15.099  11.211
56555W        W21815  12.240  28.749   0.419
56556W        W21816  36.802  21.991   2.711
56557W        W21817  23.439  34.061  13.314
56558W        W21818  10.792   1.782   1.866
56559W        W21819  40.742  12.724  10.794
56560W        W21820  11.196  38.008   1.898
56561W        W21821   8.702  38.142   0.910
56562W        W21822  33.351  39.423   3.329
56563W        W21823  41.402  10.138  14.302
56564W        W21824  19.667  24.478   4.650
56565W        W21825   6.329  39.762  11.164
56566W        W21826   7.271  26.451  10.288
56567W        W21827  31.948   6.905   1.920
56568W        W21828  38.409  22.655   4.362
56569W        W21829  14.786   1.237   3.342
56570W        W21830  29.077  17.780   3.710
56571W        W21831   9.213  43.732   1.507
56572W        W21832  36.166  30.076   1.459
56573W        W21833  22.516  13.303   1.262
56574W        W21834  12.416   9.466  10.588
56575W        W21835  30.614  11.484  12.563
56576W        W21836  16.144  35.462   3.758
56577W        W21837  25.373  18.485   4.014
56578W        W21838  20.321  11.754   4.102
56579W        W21839  31.547  34.342   1.675
56580W        W21840  35.571  39.498   1.788
56581W        W21841  38.061  23.601  12.779
56582W        W21842  32.498   1.239  13.453
56583W        W21843   7.797   9.761  13.303
56584W        W21844  36.855  37.383  13.921
56585W        W21845   6.955  21.724  13.446
56586W        W21846   5.814  14.501   1.678
56587W        W21847   0.210   2.247   3.223
56588W        W21848   3.820  12.329  11.387
56589W        W21849  37.149   5.305   4.491
56590W        W21850   5.807  44.445  11.524
56591W        W21851  40.732  21.725  11.136
56592W        W21852  36.139  37.616  14.448
56593W        W21853  31.707  18.633   4.668
56594W        W21854  13.741  21.206  12.167
56595W        W21855  40.988  35.378   2.838
56596W        W21856   1.808  40.402  10.703
56597W        W21857  37.592  42.942  13.800
56598W        W21858  37.086  10.303   4.594
56599W        W21859  42.880  20.059  11.037
56600W        W21860  31.807   9.762   2.677
56601W        W21861  10.265  41.154  14.485
56602W        W21862   5.201  21.646  13.661
56603W        W21863  11.832  43.704   3.357
56604W        W21864  23.456   7.704  12.662
56605W        W21865  25.117  15.293   1.432
56606W        W21866  16.223  19.072  12.496
56607W        W21867  44.887  19.708   4.910
56608W        W21868   3.582  23.078  13.046
56609W        W21869   9.358  43.455  12.022
56610W        W21870  25.628  29.062   0.151
56611W        W21871  35.930   0.318   2.781
56612W        W21872   2.727   3.953  12.115
56613W        W21873  34.363  28.208  12.745
56614W        W21874  41.838   3.390   4.186
56615W        W21875  10.659  29.827   2.396
56616W        W21876  12.712  22.670  12.520
56617W        W21877   4.686  31.881   4.069
56618W        W21878   0.992  24.172   1.015
56619W        W21879  37.469   1.180  14.841
56620W        W21880  28.458  24.549  13.921
56621W        W21881  13.713   0.345   4.656
56622W        W21882   8.178  36.530   1.320
56623W        W21883  30.496  39.885   3.301
56624W        W21884  13.903  17.691  13.883
56625W        W21885   1.523  31.691   2.657
56626W        W21886  14.620  17.542  12.400
56627W        W21887  16.301  37.552  10.612
56628W        W21888  17.473  13.318  11.154
56629W        W21889   5.228  37.511   4.432
56630W        W21890  32.007   1.191  11.903
56631W        W21891  24.016   2.479  14.311
56632W        W21892  39.837  42.744   3.083
56633W        W21893   7.707  38.261   4.618
56634W        W21894   8.594  10.281  11.602
56635W        W21895  44.847  36.573   1.914
56636W        W21896  29.085  38.807  13.028
56637W        W21897  27.191  17.365  11.390
56638W        W21898  44.668  34.700  10.845
56639W        W21899  14.891  28.465  13.546
56640W        W21900  38.045  28.456  10.985
56641W        W21901  33.955  33.504   4.457
56642W        W21902  30.250  26.100  12.482
56643W        W21903  11.179  43.474  12.968
56644W        W21904   1.838  42.517   0.906
56645W        W21905  44.223  35.983  10.890
56646W        W21906  36.865  41.873  12.391
56647W        W21907  22.482  10.792  11.917
56648W        W21908   6.760  28.998  11.198
56649W        W21909  38.125  28.882   2.765
56650W        W21910  22.008   9.190  11.499
56651W        W21911  43.447  30.501  10.969
56652W        W21912   0.406  39.064   2.600
56653W        W21913  37.105   6.284  11.605
56654W        W21914  34.543  24.411   3.418
56655W        W21915  15.377  26.195   3.836
56656W        W21916  37.054  21.077   1.842
56657W        W21917  43.421  18.604   0.060
56658W        W21918   8.124   6.469   3.768
56659W        W21919  14.219   5.826  11.248
56660W        W21920  41.443  25.684  11.244
56661W        W21921   5.418  38.115  14.473
56662W        W21922  24.020  26.307   3.316
56663W        W21923  13.255  25.670  12.796
56664W        W21924  19.023  43.966   1.280
56665W        W21925  29.695  22.549   0.417
56666W        W21926   2.678  40.072   3.326
56667W        W21927   4.071  42.115  12.153
56668W        W21928  28.444  22.454  14.933
56669W        W21929  36.355  40.298   4.614
56670W        W21930   0.284  18.818   0.345
56671W        W21931  42.301   1.602   4.634
56672W        W21932   0.272  30.943   1.953
56673W        W21933  10.655  10.452   4.515
56674W        W21934  11.128  15.270   2.463
56675W        W21935  34.114  41.263  10.624
56676W        W21936  14.319  39.036   2.896
56677W        W21937  37.835   2.365   3.069
56678W        W21938   1.456  15.383   2.793
56679W        W21939   6.313   0.875   0.264
56680W        W21940   4.845  16.742  12.680
56681W        W21941  39.344  24.141   0.918
56682W        W21942  24.350  30.001  12.446
56683W        W21943  39.880   6.958   2.881
56684W        W21944   6.736   6.328  13.037
56685W        W21945  41.780   6.149   3.602
56686W        W21946  22.293  40.362  10.719
56687W        W21947  20.573  18.631  14.960
56688W        W21948   1.488   7.767  13.376
56689W        W21949  17.323  27.263  11.573
56690W        W21950  22.941  33.436  14.891
56691W        W21951  24.566   2.732   0.826
56692W        W21952   5.801  32.765   4.166
56693W        W21953  34.847  17.779   4.331
56694W        W21954  43.204  30.917   0.720
56695W        W21955  20.477  35.005   0.642
56696W        W21956   0.964  16.831  12.895
56697W        W21957  24.503  31.480   4.680
56698W        W21958  43.479   3.929  13.824
56699W        W21959  27.115  28.572  14.555
56700W        W21960  40.603  11.847   2.379
56701W        W21961   6.403  14.009   1.203
56702W        W21962   4.295  16.144   4.179
56703W        W21963  18.097  43.110   0.872
56704W        W21964   2.545  40.390  11.242
56705W        W21965  14.550  33.028  11.584
56706W        W21966  31.025  33.558   4.592
56707W        W21967  10.741  20.133   0.980
56708W        W21968   1.518  44.466  13.050
56709W        W21969  32.582  24.650   1.322
56710W        W21970  18.726  15.589  14.474
56711W        W21971  33.952  10.781  10.741
56712W        W21972  13.678  44.025   3.616
56713W        W21973  40.776   2.776  12.583
56714W        W21974   4.710   0.322  11.042
56715W        W21975  18.865   3.554  13.626
56716W        W21976  35.880  23.276  14.828
56717W        W21977  13.135  11.262  10.710
56718W        W21978  12.292  21.193  10.982
56719W        W21979  32.654   9.731   2.261
56720W        W21980  26.170  37.734  13.257
56721W        W21981  37.841  35.600  11.968
56722W        W21982  35.468  40.498   2.656
56723W        W21983  30.714  22.724   0.432
56724W        W21984  19.849  31.960  11.089
56725W        W21985   5.144  22.042   3.076
56726W        W21986   5.798  23.536   4.301
56727W        W21987  29.995  21.534   4.738
56728W        W21988  15.307  29.053  14.287
56729W        W21989  21.480   3.733   3.537
56730W        W21990  29.789  11.839   4.044
56731W        W21991  42.983  29.621   0.416
56732W        W21992   9.345  19.194  11.546
56733W        W21993  17.716  27.977   2.290
56734W        W21994   5.957   5.080  13.161
56735W        W21995  10.200  34.018   0.014
56736W        W21996   5.280  24.459  14.284
56737W        W21997  11.569  42.861   1.763
56738W        W21998  31.200  19.929   4.207
56739W        W21999  43.632  32.963   0.268
56740W        W22000   9.253  15.602   2.703
56741W        W22001  38.835  41.692   1.419
56742W        W22002  11.900  32.563  11.010
56743W        W22003  13.045  11.871  14.951
56744W        W22004  10.658  44.276  14.356
56745W        W22005  14.036  19.867   4.941
56746W        W22006  13.560  11.919  14.863
56747W        W22007   5.219  29.505  13.940
56748W        W22008  29.358   0.444   0.297
56749W        W22009  42.946  33.218   4.565
56750W        W22010   9.693   4.393   4.313
56751W        W22011  36.563  18.326   4.255
56752W        W22012  10.875  23.935  13.950
56753W        W22013  18.833  15.072   1.150
56754W        W22014  40.269   6.248  10.676
56755W        W22015  14.327  28.447   0.257
56756W        W22016  35.546  26.995   4.781
56757W        W22017  13.572  31.931  11.048
56758W        W22018   9.737   5.701  11.205
56759W        W22019  32.090  23.854   4.647
56760W        W22020  42.781  28.119  11.010
56761W        W22021  40.138  17.594   0.919
56762W        W22022  34.644   1.366   1.860
56763W        W22023  15.580  43.955   4.190
56764W        W22024  34.107  20.411   4.085
56765W        W22025  31.658   5.525   1.410
56766W        W22026  35.288  40.661  11.492
56767W        W22027  10.228  24.180  13.912
56768W        W22028   5.354   5.961   0.551
56769W        W22029  25.009   1.761  12.954
56770W        W22030   7.077  25.889   4.965
56771W        W22031  21.196  24.235   4.518
56772W        W22032  11.256  12.993  13.251
56773W        W22033   3.197   1.240  13.290
56774W        W22034   6.789  17.202  14.495
56775W        W22035  42.360  14.035   4.422
56776W        W22036  19.599  40.913  12.090
56777W        W22037  30.182  31.204  12.336
56778W        W22038  20.207  33.445  10.749
56779W        W22039   2.377  40.981  13.447
56780W        W22040  11.430  23.942  14.524
56781W        W22041  38.097  21.636   1.548
56782W        W22042  27.568  23.037   2.273
56783W        W22043  11.254  36.558  11.663
56784W        W22044  18.579  43.791  14.582
56785W        W22045  43.724  29.058   2.818
56786W        W22046  26.702  27.766   4.363
56787W        W22047  39.751   4.924  14.357
56788W        W22048  19.673   1.504  11.583
56789W        W22049  21.274  30.567   2.595
56790W        W22050  42.996  29.552  10.999
56791W        W22051   6.167  44.957   1.835
56792W        W22052  34.453  15.792  10.959
56793W        W22053  23.646  25.078  11.576
56794W        W22054   1.825  25.004  13.596
56795W        W22055   4.437  33.663  14.407
56796W        W22056  14.838   4.877   0.684
56797W        W22057  18.537  26.523   4.953
56798W        W22058  14.119   6.548   2.154
56799W        W22059  37.494  33.354   1.354
56800W        W22060   8.275  13.810   4.091
56801W        W22061   0.424   3.007  11.086
56802W        W22062  44.855   8.961  12.793
56803W        W22063  29.765  21.197   2.624
56804W        W22064  21.285  13.087  12.411
56805W        W22065  23.358  30.719   2.403
56806W        W22066  19.818  33.480  10.424
56807W        W22067   5.775  21.039  13.312
56808W        W22068  10.609  23.331  12.114
56809W        W22069  42.879  32.400   2.352
56810W        W22070   5.836  27.706   1.732
56811W        W22071  14.446  34.454   1.253
56812W        W22072  10.823  37.813  11.987
56813W        W22073  21.643  23.479   3.209
56814W        W22074   6.312   3.126  10.127
56815W        W22075  11.715   4.458   0.756
56816W        W22076   5.409  36.613   1.334
56817W        W22077  22.069  41.250  14.687
56818W        W22078  26.157   3.645  11.142
56819W        W22079  32.884  36.318   2.941
56820W        W22080  31.772  26.517   2.666
56821W        W22081  35.895  41.874   0.827
56822W        W22082  31.064   3.744  14.394
56823W        W22083  12.285  15.698   2.293
56824W        W22084  38.673  17.907   3.560
56825W        W22085   6.114   4.968  12.669
56826W        W22086  16.981  22.069   3.657
56827W        W22087  14.192  17.419  12.075
56828W        W22088  28.217  36.053  11.467
56829W        W22089   3.176   9.578  10.627
56830W        W22090  34.400  23.444   0.851
56831W        W22091  23.734  23.566   3.290
56832W        W22092  35.812  28.743  12.199
56833W        W22093  18.997  36.586   1.815
56834W        W22094   7.583  32.212   1.927
56835W        W22095  44.045  20.299  14.936
56836W        W22096  44.796  40.364   1.265
56837W        W22097  17.001   6.368  10.320
56838W        W22098  16.857   0.542   4.312
56839W        W22099  40.457  12.861  14.781
56840W        W22100  21.782   7.335  11.591
56841W        W22101  27.692  40.289  14.445
56842W        W22102  31.653  36.007   3.601
56843W        W22103  24.657  38.606  13.921
56844W        W22104  16.744  41.079  11.136
56845W        W22105  43.532  14.028   3.842
56846W        W22106  12.428   2.287  11.669
56847W        W22107  44.289  38.937  11.963
56848W        W22108  25.928   3.007  12.432
56849W        W22109  26.533   4.741   1.711
56850W        W22110   4.384   8.666   3.125
56851W        W22111  12.284   9.362  13.300
56852W        W22112  20.189  19.118   4.509
56853W        W22113  20.744  21.266   2.169
56854W        W22114  21.207  17.283   4.561
56855W        W22115  40.501  37.937  14.722
56856W        W22116  10.683  30.612  10.960
56857W        W22117  32.500  37.386  11.718
56858W        W22118  10.476   0.641  11.078
56859W        W22119  39.532   8.147   3.351
56860W        W22120  32.325  44.768   3.237
56861W        W22121  37.933  28.836  13.021
56862W        W22122  15.847  33.465   2.406
56863W        W22123  20.462  34.430   1.311
56864W        W22124  22.879  13.543  11.665
56865W        W22125   7.308  31.802  10.633
56866W        W22126  17.212  15.122   1.909
56867W        W22127  42.973  36.038   1.881
56868W        W22128  21.141  43.566   3.663
56869W        W22129   4.993  41.809   5.017
56870W        W22130  19.081   0.930  10.675
56871W        W22131  23.945  41.382   1.322
56872W        W22132  30.049  23.645   1.310
56873W        W22133  25.966  43.129   1.233
56874W        W22134   8.466  21.726   2.789
56875W        W22135  23.139  33.744   2.026
56876W        W22136   0.798  25.290   0.467
56877W        W22137  32.406   7.982  11.317
56878W        W22138  14.248  28.475   3.759
56879W        W22139  17.074  38.312   1.881
56880W        W22140  34.020  44.856   2.602
56881W        W22141  31.412  33.102   4.424
56882W        W22142  35.858  40.132   2.797
56883W        W22143  14.707  32.536  11.613
56884W        W22144  16.555   8.266  11.473
56885W        W22145  15.903   3.660  11.149
56886W        W22146  17.504  42.336  12.450
56887W        W22147  35.526   5.339   3.737
56888W        W22148   9.629   6.092   0.367
56889W        W22149  19.255  18.245  14.779
56890W        W22150   0.520  14.702   0.454
56891W        W22151   3.060   9.792   4.475
56892W        W22152  38.591  11.319  12.117
56893W        W22153   4.689  21.752  13.776
56894W        W22154  42.840   0.335   0.819
56895W        W22155  14.096  29.061   1.344
56896W        W22156  29.641  10.646  10.741
56897W        W22157  21.942  27.429  11.610
56898W        W22158   7.965  27.454   0.491
56899W        W22159  20.509  12.980   0.035
56900W        W22160  11.747   5.718  11.154
56901W        W22161   3.743  43.492   1.137
56902W        W22162  18.362  18.211   0.248
56903W        W22163  24.269  33.935  11.916
56904W        W22164  22.860  17.126  10.669
56905W        W22165  12.566  38.382   4.300
56906W        W22166  21.550  42.922  11.960
56907W        W22167  14.992  38.852  10.742
56908W        W22168   0.506  20.107   1.889
56909W        W22169  19.859  24.960   4.589
56910W        W22170  40.528  22.960   3.665
56911W        W22171   4.592  26.120   1.602
56912W        W22172   0.221  16.248   0.853
56913W        W22173  16.741  36.910   1.835
56914W        W22174  26.555   5.738   4.189
56915W        W22175  11.679   3.868   1.889
56916W        W22176  31.071  30.410  13.787
56917W        W22177  27.969  12.061  14.162
56918W        W22178   3.791   1.384   2.755
56919W        W22179  44.602   8.494   1.132
56920W        W22180  32.401  30.929  11.989
56921W        W22181  23.261   5.338  13.465
56922W        W22182   5.423  25.174  13.881
56923W        W22183   7.627  41.417   4.692
56924W        W22184   5.711  33.082   3.706
56925W        W22185   3.215   8.135   2.597
56926W        W22186  38.406  32.322   4.064
56927W        W22187  28.927  24.422  13.048
56928W        W22188   5.453  24.071   4.537
56929W        W22189  38.746  38.854  12.843
56930W        W22190   6.732  10.547  11.161
56931W        W22191  38.530  18.136  11.039
56932W        W22192  12.776  25.228  10.608
56933W        W22193   2.617   0.043  13.853
56934W        W22194  18.309  44.144   0.853
56935W        W22195  28.769  33.352   3.678
56936W        W22196  34.862  40.083   1.869
56937W        W22197  32.310  35.381   2.334
56938W        W22198   9.631  23.125  11.232
56939W        W22199   2.453  34.147   1.848
56940W        W22200   0.384  22.056  12.413
56941W        W22201  23.397  21.979   3.854
56942W        W22202  18.440  21.144  11.691
56943W        W22203  34.211   5.403   2.245
56944W        W22204  41.902  15.683   0.296
56945W        W22205  43.914  10.777   1.012
56946W        W22206  38.001   5.648   1.691
56947W        W22207  18.183  12.836  14.228
56948W        W22208  17.156   0.524   0.885
56949W        W22209   0.888   8.488  11.186
56950W        W22210  19.205   1.471   4.164
56951W        W22211  44.412  37.071  12.389
56952W        W22212  27.596  19.942   2.417
56953W        W22213  44.801  24.967  13.005
56954W        W22214  12.063  29.541  10.447
56955W        W22215  29.516  41.563   2.845
56956W        W22216  16.820  31.698   0.451
56957W        W22217  23.185  32.721   2.329
56958W        W22218   2.896  17.562  14.402
56959W        W22219  16.361   8.672   4.274
56960W        W22220   7.734   4.952  12.472
56961W        W22221  35.902  15.084   3.166
56962W        W22222  25.031   9.339   3.096
56963W        W22223  12.312  16.604  10.636
56964W        W22224  24.496  26.138  10.696
56965W        W22225   8.636  21.937   0.209
56966W        W22226  12.581  27.190   3.992
56967W        W22227  14.110   6.981  13.083
56968W        W22228   8.332  19.843   1.358
56969W        W22229  18.453  36.797   0.899
56970W        W22230  28.179  40.811  13.983
56971W        W22231   4.377   5.359   1.483
56972W        W22232  36.320  14.214   2.008
56973W        W22233  44.413  12.284   0.854
56974W        W22234  38.816  39.886   0.789
56975W        W22235  41.715  34.360  14.058
56976W        W22236  10.708  12.785  12.956
56977W        W22237  29.745  26.149  11.487
56978W        W22238  38.475  17.595   0.342
56979W        W22239  30.174  19.727  13.275
56980W        W22240  43.729  18.765   0.944
56981W        W22241  10.391  39.589   4.715
56982W        W22242   9.701  27.558  10.913
56983W        W22243  44.210  37.197   4.984
56984W        W22244  14.826   7.933   4.526
56985W        W22245   0.352   0.040   3.401
56986W        W22246  35.575  40.119   0.744
56987W        W22247  17.589  16.298   2.124
56988W        W22248   3.739  30.364   1.881
56989W        W22249  37.122  25.600   3.037
56990W        W22250  18.276  11.775   4.175
56991W        W22251  27.991   1.879   4.110
56992W        W22252   7.442   6.566   0.397
56993W        W22253  17.228   5.614  13.915
56994W        W22254  27.840  17.281   1.233
56995W        W22255  10.078  39.916  13.248
56996W        W22256   9.104  41.659  12.355
56997W        W22257  12.658   9.275   1.184
56998W        W22258  16.744  15.898   2.110
56999W        W22259  16.526  40.027   2.615
57000W        W22260  18.073  34.983  12.642
57001W        W22261  39.374  43.202   4.775
57002W        W22262   8.136  40.481   3.749
57003W        W22263  24.491  24.188   1.679
57004W        W22264   9.178  21.138   2.750
57005W        W22265  31.899  37.843  14.879
57006W        W22266  21.770  43.142   4.737
57007W        W22267  22.180  10.237  13.973
57008W        W22268  31.340   9.252  10.484
57009W        W22269  13.666  31.973   0.812
57010W        W22270  39.980  30.859  13.480
57011W        W22271  30.497  40.294   0.388
57012W        W22272  22.965  22.314   1.405
57013W        W22273  28.295   2.930   0.217
57014W        W22274  32.647   5.347  10.311
57015W        W22275   1.205  13.373  14.499
57016W        W22276  38.350  21.936  12.208
57017W        W22277  37.836  35.576  10.828
57018W        W22278  21.101  42.831   1.272
57019W        W22279  44.292  42.319  13.836
57020W        W22280  20.128   1.786   1.309
57021W        W22281  35.947  39.458  10.453
57022W        W22282  40.789  36.575   2.401
57023W        W22283   7.307  26.897   2.863
57024W        W22284  15.062  42.541   3.196
57025W        W22285   6.216  26.678   9.622
57026W        W22286  41.645  30.771   3.714
57027W        W22287  36.775   4.486  11.057
57028W        W22288  44.775  10.734  10.674
57029W        W22289  35.475   7.987   2.385
57030W        W22290   2.508  44.485  11.185
57031W        W22291   3.424   9.884   2.766
57032W        W22292   7.405  20.113   3.205
57033W        W22293  10.304  22.031   1.818
57034W        W22294  28.672   4.245  10.712
57035W        W22295  13.056  12.704  14.693
57036W        W22296   2.774  11.925  14.948
57037W        W22297  39.772  42.893   3.568
57038W        W22298  31.106  43.066  14.243
57039W        W22299  20.633  31.395  14.985
57040W        W22300  24.212  42.471  14.313
57041W        W22301  25.425  25.037   3.735
57042W        W22302  37.705  34.465  13.362
57043W        W22303  16.442  34.812   4.104
57044W        W22304   1.770  30.060  11.481
57045W        W22305  41.567  21.252  14.751
57046W        W22306  41.284   8.700   1.789
57047W        W22307  34.708  10.448  11.938
57048W        W22308  11.377   2.812  13.058
57049W        W22309  33.577  43.835   2.341
57050W        W22310  30.032  20.257  13.391
57051W        W22311  31.419   6.306   4.118
57052W        W22312  28.057  11.356   4.716
57053W        W22313  27.350   4.411   4.417
57054W        W22314  37.602  36.453   4.597
57055W        W22315   7.384  44.392  12.106
57056W        W22316  44.821  36.259  13.774
57057W        W22317  44.221   2.348  11.507
57058W        W22318  21.987  14.258   4.131
57059W        W22319   6.286  28.306   0.458
57060W        W22320  20.306  19.599   2.387
57061W        W22321  37.110  41.844  11.596
57062W        W22322  22.514  40.750  14.738
57063W        W22323   4.719  23.738  13.351
57064W        W22324  26.978  27.886   3.251
57065W        W22325  36.691   6.127   2.289
57066W        W22326  28.816  27.202   2.716
57067W        W22327  41.677   1.195  11.067
57068W        W22328  44.426  18.114  14.751
57069W        W22329  38.298  36.946   2.444
57070W        W22330  23.054   4.139   4.708
57071W        W22331  32.870  13.130  12.400
57072W        W22332  27.452  39.510  11.217
57073W        W22333   5.651  26.614  14.872
57074W        W22334  38.099  42.624   2.127
57075W        W22335  18.182   3.906   4.396
57076W        W22336  17.866   9.189  12.114
57077W        W22337  18.140  35.910   2.717
57078W        W22338  31.081  12.012   2.267
57079W        W22339  24.659  28.451  10.577
57080W        W22340   1.347  43.725  13.539
57081W        W22341   0.188  22.740   1.209
57082W        W22342  24.589  22.304   0.873
57083W        W22343  43.225  14.807   4.229
57084W        W22344  42.328   2.943  12.409
57085W        W22345   6.654  37.117   0.100
57086W        W22346  23.975   4.774  14.813
57087W        W22347  21.225  39.523   0.401
57088W        W22348  27.479  32.493  10.657
57089W        W22349  10.313  12.364  10.823
57090W        W22350  28.424   0.801   2.443
57091W        W22351   5.450  39.366  10.828
57092W        W22352  24.480   9.617  12.888
57093W        W22353  44.466   5.215  13.883
57094W        W22354  30.552  26.713  11.185
57095W        W22355  30.915  23.097   1.372
57096W        W22356  29.476  24.959   4.109
57097W        W22357   3.863  33.418   3.576
57098W        W22358  42.287  37.515   3.228
57099W        W22359   0.771  43.081  13.950
57100W        W22360  17.094  26.268  14.931
57101W        W22361  11.407  34.868   3.711
57102W        W22362  11.318  20.848  13.918
57103W        W22363  30.638  38.851  11.168
57104W        W22364  34.320  22.941   0.810
57105W        W22365  42.672  22.079   0.726
57106W        W22366  12.658  21.465   3.363
57107W        W22367  10.628  19.676   2.294
57108W        W22368  12.175   5.168  12.383
57109W        W22369   4.696   5.235  10.377
57110W        W22370  31.874  21.477  13.602
57111W        W22371  41.425  25.939   2.436
57112W        W22372  35.952  37.890   2.328
57113W        W22373  15.069   0.389   3.208
57114W        W22374   5.994  31.664  13.858
57115W        W22375  25.927   0.405   2.804
57116W        W22376  12.856   1.622   3.287
57117W        W22377   4.236  23.600  13.422
57118W        W22378  12.147  12.536  14.963
57119W        W22379  43.234  40.779  11.469
57120W        W22380  38.787  35.090  14.060
57121W        W22381  17.362  22.743   3.162
57122W        W22382  10.537  29.910   5.766
57123W        W22383  38.902  43.163   4.003
57124W        W22384  17.801  12.104   1.224
57125W        W22385  21.252   7.263   0.205
57126W        W22386   3.459  42.919  12.097
57127W        W22387  40.092  16.208   0.951
57128W        W22388  44.464   8.121   0.296
57129W        W22389  16.218  28.564   1.719
57130W        W22390  22.009  32.815  11.044
57131W        W22391  19.544   5.678  12.442
57132W        W22392  12.740   7.609  13.337
57133W        W22393   3.273  22.003   3.595
57134W        W22394   8.406  22.947  13.393
57135W        W22395  35.473  28.663   1.225
57136W        W22396  15.316  20.046   0.864
57137W        W22397  40.585   9.233   4.573
57138W        W22398  44.447  18.831   0.352
57139W        W22399   3.919  24.015  13.461
57140W        W22400  10.510  28.491   2.695
57141W        W22401  32.125  28.725  11.949
57142W        W22402  23.142   4.398  11.691
57143W        W22403  17.491  24.495  13.760
57144W        W22404   2.974  10.497   3.310
57145W        W22405  19.630  24.392   2.797
57146W        W22406  36.910  44.899  13.769
57147W        W22407  11.607  15.264   4.686
57148W        W22408  17.144  23.544   2.814
57149W        W22409  18.958  37.510   1.680
57150W        W22410  33.130  36.957   0.636
57151W        W22411  27.037  41.337  11.382
57152W        W22412  21.899   5.778   1.400
57153W        W22413  24.491  31.650   3.803
57154W        W22414  19.606  34.259  12.575
57155W        W22415  26.210  27.103  12.017
57156W        W22416  33.011   8.835   3.669
57157W        W22417  36.995  14.553  11.979
57158W        W22418  24.964  22.208   3.864
57159W        W22419  44.253   4.388  12.597
57160W        W22420  28.970  32.876   2.836
57161W        W22421  20.467  13.202  12.270
57162W        W22422  29.004  33.144   3.270
57163W        W22423  15.741  26.468  14.335
57164W        W22424   5.268  17.347   4.570
57165W        W22425  34.932  25.235   4.624
57166W        W22426  18.138  29.589   3.639
57167W        W22427  18.259  34.453   4.074
57168W        W22428  19.561  24.463  11.961
57169W        W22429  26.222  17.034  11.076
57170W        W22430  43.370  24.597   2.826
57171W        W22431  12.691   4.404  12.099
57172W        W22432  13.319   7.944   0.329
57173W        W22433  40.176  22.692  12.485
57174W        W22434  39.921  13.087   2.785
57175W        W22435  10.371  23.698   3.256
57176W        W22436  17.767  32.624  13.477
57177W        W22437   4.347   9.347  14.373
57178W        W22438  38.498  35.880  13.942
57179W        W22439  31.025  12.414   3.242
57180W        W22440  20.474   6.351   0.240
57181W        W22441  10.720  43.892  11.443
57182W        W22442  13.280  33.566  12.394
57183W        W22443  27.256  28.340  12.967
57184W        W22444  10.314  43.726   4.549
57185W        W22445  37.520  40.383  11.209
57186W        W22446  26.053  40.385   3.775
57187W        W22447  15.850  43.289  14.013
57188W        W22448  29.697  31.532   3.730
57189W        W22449  12.182   7.934   2.708
57190W        W22450   0.729  24.232   2.756
57191W        W22451  43.358  32.873   0.683
57192W        W22452  18.874  14.216  14.558
57193W        W22453  12.866   4.878  12.153
57194W        W22454  13.172  24.472  11.154
57195W        W22455  43.847  17.149   1.660
57196W        W22456  13.104   0.481   3.984
57197W        W22457  27.438  30.944   2.673
57198W        W22458  23.054   3.754   1.749
57199W        W22459  14.706  13.978  11.005
57200W        W22460  25.576  34.579  14.545
57201W        W22461  19.754  21.373   4.583
57202W        W22462   1.959  30.979   1.424
57203W        W22463   4.798   1.840  13.851
57204W        W22464  31.310   2.673   4.143
57205W        W22465  41.771   7.862  12.349
57206W        W22466  24.594   9.043   3.858
57207W        W22467  18.369  28.750   2.230
57208W        W22468  36.010  32.712  13.473
57209W        W22469   7.126  12.079  14.764
57210W        W22470  36.073  12.610  12.655
57211W        W22471  14.171  35.406  11.720
57212W        W22472  23.955  33.102   3.627
57213W        W22473  15.169   3.659   1.846
57214W        W22474   3.323  34.260   1.960
57215W        W22475   2.363  43.204   2.845
57216W        W22476   8.308  18.110   0.514
57217W        W22477   7.879   5.118  12.950
57218W        W22478  19.887   0.395   2.419
57219W        W22479  38.390  25.186  12.766
57220W        W22480  30.021  27.553   4.502
57221W        W22481  27.445   8.889   1.157
57222W        W22482  24.423  24.432   4.364
57223W        W22483  17.519  31.479   1.954
57224W        W22484   7.446  43.497   3.012
57225W        W22485  41.953  19.625  14.799
57226W        W22486  26.158   8.347   0.678
57227W        W22487  28.303  26.913  11.217
57228W        W22488  29.603  10.373   4.742
57229W        W22489   5.999   2.858  14.555
57230W        W22490   5.477  26.512   3.639
57231W        W22491   8.606   1.338   0.395
57232W        W22492   3.646   8.415   1.977
57233W        W22493  32.212  14.697   4.634
57234W        W22494  24.476  31.465  11.127
57235W        W22495  12.671   8.411   2.112
57236W        W22496  22.614  42.388  10.318
57237W        W22497  34.546  16.083  13.357
57238W        W22498  21.303   5.559   3.886
57239W        W22499  43.814   8.227   2.266
57240W        W22500   7.465   4.842   4.659
57241W        W22501  24.120   2.801   1.066
57242W        W22502  34.115  26.240   3.523
57243W        W22503   5.190  23.682   4.792
57244W        W22504  23.014   5.897  14.056
57245W        W22505  29.634   3.839  11.513
57246W        W22506  19.614  26.043   3.599
57247W        W22507  36.649   3.637   4.161
57248W        W22508  23.618  22.252   2.837
57249W        W22509  30.925  41.293  13.510
57250W        W22510  16.745  13.969  14.056
57251W        W22511  40.368  39.138   3.655
57252W        W22512  34.631  22.047  13.389
57253W        W22513  13.909  17.817   3.562
57254W        W22514   5.844  15.252   2.125
57255W        W22515  40.023  41.961  11.983
57256W        W22516  20.683   0.471  12.532
57257W        W22517  38.919  21.002   1.200
57258W        W22518   3.680  17.484  13.795
57259W        W22519  27.928  16.644   3.530
57260W        W22520  44.673  34.518  10.364
57261W        W22521  21.094  27.177   3.859
57262W        W22522  33.586   1.809   3.125
57263W        W22523   9.338  38.480  11.975
57264W        W22524  44.614  18.995   4.481
57265W        W22525  32.554  13.891   2.751
57266W        W22526   5.823  33.082   2.725
57267W        W22527  29.462  34.981   3.202
57268W        W22528   9.576  19.405   3.246
57269W        W22529  40.034  20.543  11.107
57270W        W22530  38.932  19.322  10.736
57271W        W22531  33.545  40.909   0.816
57272W        W22532   5.172  26.663   3.171
57273W        W22533  27.009  18.699   3.608
57274W        W22534  28.235  11.669  11.230
57275W        W22535  12.740  13.028   2.752
57276W        W22536  31.893  21.689  13.119
57277W        W22537  19.495   3.189   2.197
57278W        W22538  11.802  18.601  10.758
57279W        W22539  24.261  41.062   4.362
57280W        W22540  33.243  22.496   0.272
57281W        W22541  18.077  10.312   3.936
57282W        W22542  14.047  28.134  11.197
57283W        W22543   4.738  23.114   5.402
57284W        W22544  30.231  41.581  13.966
57285W        W22545  20.553  41.986   1.010
57286W        W22546  10.795   0.257   1.601
57287W        W22547  16.252  26.038  13.001
57288W        W22548  33.423  12.386   0.968
57289W        W22549  35.612  15.598   3.799
57290W        W22550  14.552  42.904  14.312
57291W        W22551  27.008  44.790   3.322
57292W        W22552  43.912  31.643  10.574
57293W        W22553   8.340  30.838   3.944
57294W        W22554  21.370  30.558   4.981
57295W        W22555  43.851  26.767   0.640
57296W        W22556  24.183   9.465  13.794
57297W        W22557  33.925  30.950  11.529
57298W        W22558  32.314  32.003   1.335
57299W        W22559  24.509  32.553  13.658
57300W        W22560  17.248  10.230   0.505
57301W        W22561  31.986  24.651  14.762
57302W        W22562  15.043  16.168   3.849
57303W        W22563  13.043   4.787   0.581
57304W        W22564  15.056  30.398   0.767
57305W        W22565  40.607  26.601  13.229
57306W        W22566  17.377  40.667   1.463
57307W        W22567  26.044  15.808  10.356
57308W        W22568  21.099  32.632   4.201
57309W        W22569  32.444   5.156   1.796
57310W        W22570   6.675   3.263  12.338
57311W        W22571  16.183   3.470  11.538
57312W        W22572   7.862   7.631   1.921
57313W        W22573  39.018   3.724   1.021
57314W        W22574  16.785  33.514   0.037
57315W        W22575  16.989  33.556   1.792
57316W        W22576  28.668  23.463  11.564
57317W        W22577  42.780   5.731  11.230
57318W        W22578  31.056  28.176  13.344
57319W        W22579   6.715  29.584   4.299
57320W        W22580  42.877   4.708  14.100
57321W        W22581  31.951  17.058   1.957
57322W        W22582  14.240  31.677  10.449
57323W        W22583   8.506  12.746   4.851
57324W        W22584  34.885  23.551  12.562
57325W        W22585   4.196  10.398  11.976
57326W        W22586  32.001  14.975   3.630
57327W        W22587   9.334  20.087   1.681
57328W        W22588  42.244  41.127  11.708
57329W        W22589  33.662  31.930   4.164
57330W        W22590  40.628  39.207   2.728
57331W        W22591  36.555  12.940  11.362
57332W        W22592  16.611  32.800   3.618
57333W        W22593  41.298   0.745   0.352
57334W        W22594  20.444  34.901  11.251
57335W        W22595   8.537  38.164  10.686
57336W        W22596  35.898  20.726   0.254
57337W        W22597  42.549  35.967  13.044
57338W        W22598  40.960  26.106   2.255
57339W        W22599   3.908  19.138  14.568
57340W        W22600  44.514  43.545   4.730
57341W        W22601  39.477  11.448  11.850
57342W        W22602   9.352   5.867  14.604
57343W        W22603  22.724  41.886  12.110
57344W        W22604  40.246  38.933  13.496
57345W        W22605  32.929  15.975   4.261
57346W        W22606  33.458  16.742   0.174
57347W        W22607   9.107  43.687   2.008
57348W        W22608  20.084  39.052  11.053
57349W        W22609  31.911  14.639   1.871
57350W        W22610  11.883  41.019  14.923
57351W        W22611  28.538  41.749   1.880
57352W        W22612  28.672  38.904   4.387
57353W        W22613  16.059  27.880  14.621
57354W        W22614  10.886  14.260   4.146
57355W        W22615  10.217   9.389  14.046
57356W        W22616  44.555  33.886  13.760
57357W        W22617  19.935  39.265  14.875
57358W        W22618  42.870  33.155  11.640
57359W        W22619   8.614  17.562  11.062
57360W        W22620  29.490  23.449  11.211
57361W        W22621  13.767  25.194   3.470
57362W        W22622  12.384  42.877  12.034
57363W        W22623  11.277  29.570  11.806
57364W        W22624   3.472  24.627   3.657
57365W        W22625  25.068  37.955  10.625
57366W        W22626  20.286  16.757   1.529
57367W        W22627   5.536  28.880   0.950
57368W        W22628  44.785  19.249  13.307
57369W        W22629  35.870   9.732   0.929
57370W        W22630  12.882  30.596  11.474
57371W        W22631  11.500  12.121   2.753
57372W        W22632  11.242  14.843  10.705
57373W        W22633  10.431  13.119  14.376
57374W        W22634  36.017  27.434   0.006
57375W        W22635  14.440  14.330   1.334
57376W        W22636  15.725  36.403  11.978
57377W        W22637  15.375  16.191   1.964
57378W        W22638   9.696  41.513   2.170
57379W        W22639  20.663  14.107   1.200
57380W        W22640  39.964  25.457  14.986
57381W        W22641  28.657  13.804  14.752
57382W        W22642  39.733  34.820  14.827
57383W        W22643   6.779   1.344   4.271
57384W        W22644   7.304  40.280  10.707
57385W        W22645  21.702  15.160   4.212
57386W        W22646  25.561  39.834   0.043
57387W        W22647  26.950  29.010   4.525
57388W        W22648  24.585  39.268   2.410
57389W        W22649  31.567  24.848   2.447
57390W        W22650  33.218  16.606   1.325
57391W        W22651   9.228  24.697  11.655
57392W        W22652   3.973  41.046   2.813
57393W        W22653   7.712  39.430   1.450
57394W        W22654  44.329  34.548  14.970
57395W        W22655  22.050  22.007   1.664
57396W        W22656  27.974   5.385  11.989
57397W        W22657  21.161  17.312  14.428
57398W        W22658  36.600  35.061  13.004
57399W        W22659  26.589  12.587   2.873
57400W        W22660  35.081  23.953   0.279
57401W        W22661  26.560   4.921  12.506
57402W        W22662  18.844  38.984   4.173
57403W        W22663  20.246   5.226   4.174
57404W        W22664  10.243  10.767   4.620
57405W        W22665   1.355   0.385   3.361
57406W        W22666  12.792  37.051  10.736
57407W        W22667  43.631  41.090  11.494
57408W        W22668   6.975  44.730  14.847
57409W        W22669  29.151  42.475   0.806
57410W        W22670  38.879  35.859  14.455
57411W        W22671   0.967  23.182  14.028
57412W        W22672  20.523  35.194  12.058
57413W        W22673  43.467  22.513  13.443
57414W        W22674  15.023  14.045  10.049
57415W        W22675   7.922  16.509  11.147
57416W        W22676  27.198  37.812   0.790
57417W        W22677  18.172  21.665   1.122
57418W        W22678  41.400  35.568  13.926
57419W        W22679  39.414   0.816   4.427
57420W        W22680   4.284  25.647  14.002
57421W        W22681   6.330  18.025   4.354
57422W        W22682  40.972   4.799  13.472
57423W        W22683  14.782  12.773   0.397
57424W        W22684  10.345  38.542   4.597
57425W        W22685  28.244  15.460  13.624
57426W        W22686  21.229  20.088  13.956
57427W        W22687   8.300   6.216  13.514
57428W        W22688  41.977  28.866   2.275
57429W        W22689   2.858  33.649  14.366
57430W        W22690  14.017  12.860   2.689
57431W        W22691   1.888  16.602   4.496
57432W        W22692   4.191  22.626   1.706
57433W        W22693  15.797  20.224  13.545
57434W        W22694  33.971  29.682  11.098
57435W        W22695  31.008  41.587  14.370
57436W        W22696  10.649  29.088  11.482
57437W        W22697  15.069   1.254   0.260
57438W        W22698  22.261  22.034   2.630
57439W        W22699  37.096  18.240   1.950
57440W        W22700  24.060   4.743   3.100
57441W        W22701  34.099  24.418  13.076
57442W        W22702   2.053  22.877  14.492
57443W        W22703   4.851  20.255  14.760
57444W        W22704  33.879  42.282  10.771
57445W        W22705  16.212  18.315  14.539
57446W        W22706   0.512  20.578   2.862
57447W        W22707  29.009  23.479   4.511
57448W        W22708  13.767  29.986   4.109
57449W        W22709   7.140  32.513   0.471
57450W        W22710   3.154  17.125   2.371
57451W        W22711  37.546  37.763  14.333
57452W        W22712  28.277  17.205   0.894
57453W        W22713  13.536  14.826  13.426
57454W        W22714  23.141  28.668  11.386
57455W        W22715  21.224  14.219   0.665
57456W        W22716  26.111   9.165  11.023
57457W        W22717  19.181  17.588  12.115
57458W        W22718   2.733  29.587   0.378
57459W        W22719  43.410  26.342   1.383
57460W        W22720  10.611  29.682   5.102
57461W        W22721  21.251  29.902  12.249
57462W        W22722  32.126   6.365  14.809
57463W        W22723  30.201  17.538   0.523
57464W        W22724  33.522  38.877  11.531
57465W        W22725   5.970   7.851  13.442
57466W        W22726   5.920  19.758   3.346
57467W        W22727  25.009  11.222  11.052
57468W        W22728  31.881  20.745   2.335
57469W        W22729  36.960  33.252   3.290
57470W        W22730  25.055   7.739   2.231
57471W        W22731  35.443  19.764  12.095
57472W        W22732  41.872  12.325  12.921
57473W        W22733  42.308  32.465   3.591
57474W        W22734  25.679   7.148  13.918
57475W        W22735  10.779  31.962   1.432
57476W        W22736  40.830  21.310   3.990
57477W        W22737  25.786   3.175  13.597
57478W        W22738  26.527  25.278   0.929
57479W        W22739  36.766  42.574  13.873
57480W        W22740  25.925  22.660  12.434
57481W        W22741  32.510  34.122   4.338
57482W        W22742  19.405   0.332   3.320
57483W        W22743  22.574  41.556   1.062
57484W        W22744  23.727  11.261   4.552
57485W        W22745  19.336   0.250  12.334
57486W        W22746  21.791   0.150   3.155
57487W        W22747  17.016  37.408   5.074
57488W        W22748  10.125   6.402  14.985
57489W        W22749  10.448   8.803  13.324
57490W        W22750  40.562  17.804  14.106
57491W        W22751  22.199  30.609  11.640
57492W        W22752  32.980  19.707  13.768
57493W        W22753  14.240  10.327   1.645
57494W        W22754   9.394  23.057  13.399
57495W        W22755  42.050   0.940   0.509
57496W        W22756  35.033  10.289  14.776
57497W        W22757  30.215   1.845  10.736
57498W        W22758  38.402  15.171   3.852
57499W        W22759  12.097  27.639  10.611
57500W        W22760  33.165   9.080   0.720
57501W        W22761  11.216   9.632   2.784
57502W        W22762  38.826  16.912   2.138
57503W        W22763  20.806  30.481   3.900
57504W        W22764  43.075  33.555   1.202
57505W        W22765   7.983  34.484  13.846
57506W        W22766  12.098   0.114   1.242
57507W        W22767  42.851  15.762  13.385
57508W        W22768  43.407  10.727   5.397
57509W        W22769   6.693  34.799   4.225
57510W        W22770  27.038  19.348  14.239
57511W        W22771  13.708  43.459   1.779
57512W        W22772  42.370  36.990   4.692
57513W        W22773  39.406   9.814   4.036
57514W        W22774   3.984   6.265   0.665
57515W        W22775  33.295  31.096  13.984
57516W        W22776  31.684   8.082   2.206
57517W        W22777  22.624  15.760   2.178
57518W        W22778  41.008  35.287   4.556
57519W        W22779  25.764  33.129   3.704
57520W        W22780  28.205   8.713  14.059
57521W        W22781  29.845  25.545   0.729
57522W        W22782  23.371   0.154   3.242
57523W        W22783  33.984  41.062  11.591
57524W        W22784  19.624  28.246  11.536
57525W        W22785  33.827  24.142  13.979
57526W        W22786  23.219  29.463  10.809
57527W        W22787   2.231  38.809   5.008
57528W        W22788  20.639  39.784  12.055
57529W        W22789   7.776  44.189  13.024
57530W        W22790  36.873   8.419  14.499
57531W        W22791   0.958  44.491   4.010
57532W        W22792   4.628  42.795  13.644
57533W        W22793  22.669  38.434   3.316
57534W        W22794  21.644   7.377   3.818
57535W        W22795  15.832  15.755   1.351
57536W        W22796  43.999  18.299   0.935
57537W        W22797  11.130  23.461   2.762
57538W        W22798  39.831  14.155  11.129
57539W        W22799  10.511   8.632   3.658
57540W        W22800  20.248   2.510  11.166
57541W        W22801  36.861  16.467   2.194
57542W        W22802  28.734  13.075   1.169
57543W        W22803   1.966   8.889   0.921
57544W        W22804  33.859  22.310  13.868
57545W        W22805  28.215   4.346   0.281
57546W        W22806  12.719  21.050  10.692
57547W        W22807   2.675  28.461   3.623
57548W        W22808  40.407  10.283   1.909
57549W        W22809  25.804  19.787  13.807
57550W        W22810  13.839   1.430   4.043
57551W        W22811   5.189  41.546   1.907
57552W        W22812   6.664  35.696  10.456
57553W        W22813   9.162  40.065   4.142
57554W        W22814  42.393  44.582  11.612
57555W        W22815  36.119   0.930   3.095
57556W        W22816  36.860  18.100   4.654
57557W        W22817   8.977  17.059  13.302
57558W        W22818  12.176  22.622   2.246
57559W        W22819  43.991  26.090  13.048
57560W        W22820  32.397   0.471   1.452
57561W        W22821  36.870   3.349  10.303
57562W        W22822  34.782  30.459  12.597
57563W        W22823  14.035   6.912   4.664
57564W        W22824  35.651  23.746  14.816
57565W        W22825  20.043  31.950  12.332
57566W        W22826  22.026  12.946   4.508
57567W        W22827  29.444   7.296  13.017
57568W        W22828  30.109  16.221  14.184
57569W        W22829  26.668   3.836   3.167
57570W        W22830   2.538   0.316   3.663
57571W        W22831  31.380  35.848  11.667
57572W        W22832  28.337  11.967   1.203
57573W        W22833  17.197   6.321  14.600
57574W        W22834   8.589   7.920  11.602
57575W        W22835   1.436  11.362  12.796
57576W        W22836  38.065  30.271   4.077
57577W        W22837  11.798  20.704   4.290
57578W        W22838  16.061  41.317   0.814
57579W        W22839  39.943   5.765  14.897
57580W        W22840  29.163  40.490   3.222
57581W        W22841  38.090  16.091  14.057
57582W        W22842  30.571   9.644   2.215
57583W        W22843  36.110  11.829   4.054
57584W        W22844  33.314  10.986   0.799
57585W        W22845  31.463  40.511   2.688
57586W        W22846  29.082   8.299  13.877
57587W        W22847  32.411  11.977  14.719
57588W        W22848  12.582   8.632  14.488
57589W        W22849   1.324  35.314  11.651
57590W        W22850   0.405  34.450  14.333
57591W        W22851  29.336  34.571   2.908
57592W        W22852   9.177  39.765   1.353
57593W        W22853  12.835   1.868  13.289
57594W        W22854  17.484  19.108   2.601
57595W        W22855  21.621  33.437   4.815
57596W        W22856  18.888   0.295   3.320
57597W        W22857  19.494  13.490   2.824
57598W        W22858   8.814  43.296  13.032
57599W        W22859  41.506  14.209   3.736
57600W        W22860  18.378  44.264  14.446
57601W        W22861   9.228  36.633  13.002
57602W        W22862  34.981  24.654  11.541
57603W        W22863  12.073   1.289   1.790
57604W        W22864  21.777  35.884   0.942
57605W        W22865   2.371   6.894   5.042
57606W        W22866   2.019   9.633   3.638
57607W        W22867   6.090  16.734   4.028
57608W        W22868  12.615  12.227   2.885
57609W        W22869  18.260   3.294  12.425
57610W        W22870   8.843  20.546  11.264
57611W        W22871  13.901  41.778  11.214
57612W        W22872  18.374  14.261   1.928
57613W        W22873  29.577  10.892   0.256
57614W        W22874  16.766  26.999   4.029
57615W        W22875  33.156  20.084  14.085
57616W        W22876  31.423  13.215   3.113
57617W        W22877  38.096  15.187  12.429
57618W        W22878  34.961  23.301   4.204
57619W        W22879   7.885   5.738   0.162
57620W        W22880   3.192   0.521  14.840
57621W        W22881   9.333  38.556   4.231
57622W        W22882   9.709   2.521  11.601
57623W        W22883  12.066   8.634  14.615
57624W        W22884   6.444  11.377  13.843
57625W        W22885  17.825  18.548  14.459
57626W        W22886   9.134  24.026  13.877
57627W        W22887   6.219  41.106   1.807
57628W        W22888  30.824  16.615  10.882
57629W        W22889  43.040  35.570   0.395
57630W        W22890  16.901  40.043   4.018
57631W        W22891  44.960  39.550  11.554
57632W        W22892   1.332  39.221   1.490
57633W        W22893  38.936   5.159   2.310
57634W        W22894  23.251  36.961  14.047
57635W        W22895  44.524   6.744  10.526
57636W        W22896  21.835  26.128   2.448
57637W        W22897   1.523  25.582  14.855
57638W        W22898  35.918  20.269  10.755
57639W        W22899  21.788  28.694  11.572
57640W        W22900  44.848  20.278   2.180
57641W        W22901  10.688  21.952  13.598
57642W        W22902  32.922  21.181   1.148
57643W        W22903  10.414   9.284   4.213
57644W        W22904   7.311  40.291   3.335
57645W        W22905  31.391  39.887   4.887
57646W        W22906  26.529   8.854  11.018
57647W        W22907  24.372  11.682  10.381
57648W        W22908  37.465  18.721  12.872
57649W        W22909  38.024  25.266   4.227
57650W        W22910  20.756  23.814   3.829
57651W        W22911  40.275  18.029   0.394
57652W        W22912  40.468  12.092  10.726
57653W        W22913  26.580  39.811   1.356
57654W        W22914  22.723  31.934   1.327
57655W        W22915   5.980  44.057   4.109
57656W        W22916  36.115  19.471   0.699
57657W        W22917  17.088   3.439   1.783
57658W        W22918  26.444  22.837   4.548
57659W        W22919  28.019  30.375  11.663
57660W        W22920  39.591  20.601   1.992
57661W        W22921  43.876  31.011   3.051
57662W        W22922  23.395   4.199  10.739
57663W        W22923  26.099  12.996  14.703
57664W        W22924   9.880  30.430  10.680
57665W        W22925   1.706  39.811   3.158
57666W        W22926  30.187   8.164  14.904
57667W        W22927  27.423   8.310  14.382
57668W        W22928   5.584  23.969   0.860
57669W        W22929   1.489  22.130   4.041
57670W        W22930  37.613   8.496   1.256
57671W        W22931   7.072  33.571   1.881
57672W        W22932  36.511   9.245   3.870
57673W        W22933   4.641  37.821   3.338
57674W        W22934  32.506   0.782  12.922
57675W        W22935  24.998  31.286  13.421
57676W        W22936  24.270  31.733  11.517
57677W        W22937  13.816  28.441   4.074
57678W        W22938   0.743  30.694   2.897
57679W        W22939   8.651  35.324  13.070
57680W        W22940  10.283  33.703   4.717
57681W        W22941  16.263  13.891  13.008
57682W        W22942  30.490  36.346  11.675
57683W        W22943  30.508  14.361   4.311
57684W        W22944  24.930  23.691  10.274
57685W        W22945  41.827  34.936   2.714
57686W        W22946  13.360  42.715  12.774
57687W        W22947   2.172  16.402   3.400
57688W        W22948   5.340   5.890   4.799
57689W        W22949  33.979  23.057  13.155
57690W        W22950   6.860  13.562  12.081
57691W        W22951  13.801  19.897   0.551
57692W        W22952   4.659   0.879  13.615
57693W        W22953  22.502  16.202  11.112
57694W        W22954  31.999   2.351  14.359
57695W        W22955  11.760   9.322   0.393
57696W        W22956  38.553  31.516  12.048
57697W        W22957  24.262  21.579  14.747
57698W        W22958   5.295  43.972   2.371
57699W        W22959   2.448  27.172   2.831
57700W        W22960  12.696  33.369   4.300
57701W        W22961  43.938  44.797   0.136
57702W        W22962  24.650   7.421  12.471
57703W        W22963  17.114  11.730   4.536
57704W        W22964  30.513  10.346  14.942
57705W        W22965  10.253  34.627   0.332
57706W        W22966  43.954  37.941  11.052
57707W        W22967  32.506  19.736   4.150
57708W        W22968  44.300  30.879  13.992
57709W        W22969  39.160  24.914   5.078
57710W        W22970   9.906  28.152  14.860
57711W        W22971  32.949  16.074  11.883
57712W        W22972  24.473  15.538   2.317
57713W        W22973   5.943   3.733  14.438
57714W        W22974  36.048   1.204  14.793
57715W        W22975   8.673  41.773  14.807
57716W        W22976  35.888  14.682   1.802
57717W        W22977   2.371  16.410  11.108
57718W        W22978  33.970  37.671  14.923
57719W        W22979   8.178  16.240   2.898
57720W        W22980  44.486  40.613  14.277
57721W        W22981  38.359  37.888   4.118
57722W        W22982  11.267  19.482  10.706
57723W        W22983  20.086  39.830  10.568
57724W        W22984  41.531   7.594   4.472
57725W        W22985  13.710  24.785   3.828
57726W        W22986  18.293  42.225   1.239
57727W        W22987  23.667  34.575  14.731
57728W        W22988  41.429  23.715  13.984
57729W        W22989  32.158  27.496   1.148
57730W        W22990  39.898  29.472   0.468
57731W        W22991   7.750   8.310   1.303
57732W        W22992   7.350  29.374  12.153
57733W        W22993  42.990  15.291   1.476
57734W        W22994  38.440   6.074  12.488
57735W        W22995   7.874  28.580  13.380
57736W        W22996  17.104  25.898   2.968
57737W        W22997  25.915  33.982   3.331
57738W        W22998  20.005   9.715   0.522
57739W        W22999  12.621  24.105   0.654
57740W        W23000  34.209  21.898   1.904
57741W        W23001  10.920   1.901  12.916
57742W        W23002  23.462   0.433   2.795
57743W        W23003  28.353  41.734  11.160
57744W        W23004  27.961   1.907   1.599
57745W        W23005  21.922  23.192  12.093
57746W        W23006  35.440   7.658  12.418
57747W        W23007  29.142  15.776   0.814
57748W        W23008  31.841  33.901  13.814
57749W        W23009  44.295  41.422  13.831
57750W        W23010  17.372  26.660  10.645
57751W        W23011   2.878  13.419  12.814
57752W        W23012  34.497  35.407  11.515
57753W        W23013  38.908   4.513  14.545
57754W        W23014  11.880  42.259   3.158
57755W        W23015   6.168  13.868   4.639
57756W        W23016  21.878   7.869   1.153
57757W        W23017  30.416   8.793   2.299
57758W        W23018   6.315  13.822   2.234
57759W        W23019  16.423  22.156   0.414
57760W        W23020  42.312   3.392  14.940
57761W        W23021   0.530  27.097  14.539
57762W        W23022  19.323   2.859  11.528
57763W        W23023  31.985  18.372  14.250
57764W        W23024  28.523  38.565   0.108
57765W        W23025  39.338  43.019   2.319
57766W        W23026  41.039  21.882  12.385
57767W        W23027  21.104   7.988  10.215
57768W        W23028   2.504   1.879  14.949
57769W        W23029   6.127  20.208  14.398
57770W        W23030  41.792  14.699  10.730
57771W        W23031  28.510   8.705   1.733
57772W        W23032  40.845  30.498   4.321
57773W        W23033  26.434  36.802  13.047
57774W        W23034  11.298  13.083  14.710
57775W        W23035   3.745  13.735   1.504
57776W        W23036  26.926   3.221  11.570
57777W        W23037  26.716   4.357   5.044
57778W        W23038   9.723  22.084   0.825
57779W        W23039  14.567   3.901   0.396
57780W        W23040  12.587  40.095  12.780
57781W        W23041  24.450   0.261   0.982
57782W        W23042   3.326  14.177   2.230
57783W        W23043   3.204  32.318   0.743
57784W        W23044  20.070   9.493  12.657
57785W        W23045  19.639  33.399   4.678
57786W        W23046  43.069  34.601   3.769
57787W        W23047  35.100  42.381  14.722
57788W        W23048  11.604  27.103  12.947
57789W        W23049  12.702  39.502  13.454
57790W        W23050  42.445   3.527  11.100
57791W        W23051  28.475  35.121   2.328
57792W        W23052   2.754  26.796  14.878
57793W        W23053   9.659  10.711   1.468
57794W        W23054  29.888   2.800   4.460
57795W        W23055  38.295   8.190   4.195
57796W        W23056  22.599   9.339   4.611
57797W        W23057  44.277  42.954  12.592
57798W        W23058  30.949  30.521   1.201
57799W        W23059  18.461  41.722   1.410
57800W        W23060  15.173   0.759   1.637
57801W        W23061   6.815  35.356   1.259
57802W        W23062  26.681   9.894  12.038
57803W        W23063   4.342   2.875   0.485
57804W        W23064  33.580  17.822  11.869
57805W        W23065  37.600  41.176  14.934
57806W        W23066  42.766  23.657   3.248
57807W        W23067   3.525  10.735   0.503
57808W        W23068  39.501  41.481  13.235
57809W        W23069  16.361   8.953   4.718
57810W        W23070  18.562   2.312  11.535
57811W        W23071  24.234  38.474  14.222
57812W        W23072  27.972  35.424  12.414
57813W        W23073  34.490  41.315   3.642
57814W        W23074   8.226  15.633   3.710
57815W        W23075   1.390  22.944   1.374
57816W        W23076  40.675   6.283  10.317
57817W        W23077  39.311  27.134   0.401
57818W        W23078  10.186  11.355   1.652
57819W        W23079   9.813  20.124   1.467
57820W        W23080  13.686   9.098   3.783
57821W        W23081   4.981  37.462   9.880
57822W        W23082  24.217  17.541  13.414
57823W        W23083  16.422  44.765  12.105
57824W        W23084   6.100  30.924  12.842
57825W        W23085  41.477  38.715  13.871
57826W        W23086  25.226  10.996  14.854
57827W        W23087  25.565  21.802  12.778
57828W        W23088  25.522  23.813   2.838
57829W        W23089  11.075  24.049  12.536
57830W        W23090  38.990  28.691  10.662
57831W        W23091  13.736  25.648   0.744
57832W        W23092  33.585  17.777   3.754
57833W        W23093   2.775  22.209   4.234
57834W        W23094  27.338   3.099  11.304
57835W        W23095  31.695  17.595  12.001
57836W        W23096  26.038  33.665  12.192
57837W        W23097  38.950  35.585  13.941
57838W        W23098  11.845  10.177   3.097
57839W        W23099  38.019  33.440   0.425
57840W        W23100  26.495  29.821  10.664
57841W        W23101   5.209  13.343  14.950
57842W        W23102   1.388   4.414   4.670
57843W        W23103  31.529   7.102  14.996
57844W        W23104  26.698  14.216   4.556
57845W        W23105  10.376  10.169  12.872
57846W        W23106  22.588  35.943  12.575
57847W        W23107  15.142  26.843  12.833
57848W        W23108  40.901  15.528   4.900
57849W        W23109   0.041   8.322   2.383
57850W        W23110   1.851  20.681   0.294
57851W        W23111  29.209  21.155  11.054
57852W        W23112  18.225   8.533   3.713
57853W        W23113  35.028  22.981   0.428
57854W        W23114  32.321  34.794   3.806
57855W        W23115  35.147  32.310   4.122
57856W        W23116   1.754  16.990  10.753
57857W        W23117   7.119  32.650   3.647
57858W        W23118  16.122  36.164  14.838
57859W        W23119  39.805   8.750   3.575
57860W        W23120  37.229   8.342  13.520
57861W        W23121  30.929   4.370  14.020
57862W        W23122  16.305  28.430  10.408
57863W        W23123   6.114  22.177  11.089
57864W        W23124   3.548  13.211  11.019
57865W        W23125  29.841  39.914   1.835
57866W        W23126  40.112  22.602  14.319
57867W        W23127  13.758  37.974   1.706
57868W        W23128   1.658   9.579   4.846
57869W        W23129  12.197  39.392  11.183
57870W        W23130  29.978  26.738   0.879
57871W        W23131  32.499  27.656  12.433
57872W        W23132  27.638   3.014  11.717
57873W        W23133  25.680   8.519   4.494
57874W        W23134  18.806   6.309   3.286
57875W        W23135  40.592  13.222   3.397
57876W        W23136  38.525   8.408  12.047
57877W        W23137  41.487  41.592   0.920
57878W        W23138  10.399  36.151  11.630
57879W        W23139   5.495   3.795  12.647
57880W        W23140  12.516   3.606  12.946
57881W        W23141   4.662  28.562  10.733
57882W        W23142  30.883   3.647  11.022
57883W        W23143  27.119  10.677  14.681
57884W        W23144  20.521  37.573   4.621
57885W        W23145  24.071  42.822  10.424
57886W        W23146   4.847  41.588   1.442
57887W        W23147  22.201  16.397  11.486
57888W        W23148   5.718  11.845  14.345
57889W        W23149  42.788  30.122  12.833
57890W        W23150   6.644  25.862   2.299
57891W        W23151  25.640  14.598  14.347
57892W        W23152  39.966  22.155   0.457
57893W        W23153  23.645  14.130   1.869
57894W        W23154   6.366   8.565   0.304
57895W        W23155  18.073   4.451  11.905
57896W        W23156  30.603  10.704  13.481
57897W        W23157  44.466  23.647   1.937
57898W        W23158  24.057  24.505   1.734
57899W        W23159   4.770  23.693  14.958
57900W        W23160  22.134   1.478  13.580
57901W        W23161  36.693  18.821  12.619
57902W        W23162  29.533  31.028  13.516
57903W        W23163  41.159  28.932  11.691
57904W        W23164  32.320  20.527  14.005
57905W        W23165   4.370  26.513   5.013
57906W        W23166  12.886   9.676   0.917
57907W        W23167  10.404  42.864  14.140
57908W        W23168   3.250  10.162   2.253
57909W        W23169   7.738  21.473   4.084
57910W        W23170  44.906  36.581  11.830
57911W        W23171  42.542  21.986   0.245
57912W        W23172   5.301  29.631   4.158
57913W        W23173  25.904  34.319   4.594
57914W        W23174   9.016  25.695   9.857
57915W        W23175  35.289  10.439   3.487
57916W        W23176  10.641  33.154   1.887
57917W        W23177  23.519  44.943   0.190
57918W        W23178   4.185  22.113  14.340
57919W        W23179   1.889  15.195  14.495
57920W        W23180  15.018  16.695   3.267
57921W        W23181  32.232   4.857   4.562
57922W        W23182  31.639   4.733  10.692
57923W        W23183  18.756  35.450  11.748
57924W        W23184  34.353  14.353  13.874
57925W        W23185  38.033  44.147  14.864
57926W        W23186   6.233  29.509  11.489
57927W        W23187  17.839   4.808  10.683
57928W        W23188  28.512  17.219   4.764
57929W        W23189  40.329  33.607  12.404
57930W        W23190   8.170  35.453   0.310
57931W        W23191  16.307  16.503  10.833
57932W        W23192  20.509  21.728  13.281
57933W        W23193  30.368  14.233  12.234
57934W        W23194  13.327  31.033   3.653
57935W        W23195  38.752  30.959   2.695
57936W        W23196  23.987  20.824  14.536
57937W        W23197  43.904  24.617  14.859
57938W        W23198  36.126  17.052   0.005
57939W        W23199  11.608  24.816   0.444
57940W        W23200  22.708  18.983  14.375
57941W        W23201  36.365  35.170  10.103
57942W        W23202  11.691  23.660  12.473
57943W        W23203  22.500  36.360   3.122
57944W        W23204  29.853   2.669   0.366
57945W        W23205  23.065   8.454   4.696
57946W        W23206   1.506   6.152   2.712
57947W        W23207   8.295  17.535   4.107
57948W        W23208   1.855  29.023  10.494
57949W        W23209  31.220  10.793  12.535
57950W        W23210  39.385  37.868  13.846
57951W        W23211  39.183  42.024   1.746
57952W        W23212   6.197   5.434  12.868
57953W        W23213  13.171   5.420   1.330
57954W        W23214  39.327  14.795   3.573
57955W        W23215  26.597  35.103   9.572
57956W        W23216   8.342  30.534  10.637
57957W        W23217  17.040  44.708   1.835
57958W        W23218  17.244  38.162  13.266
57959W        W23219   5.347  19.863  14.279
57960W        W23220  43.699  44.842  12.943
57961W        W23221  41.665  24.308   4.507
57962W        W23222  35.443  11.870  14.132
57963W        W23223  44.977  26.658   4.208
57964W        W23224   5.175  36.969   3.565
57965W        W23225  40.469  27.403  13.620
57966W        W23226  41.476  27.172  14.593
57967W        W23227  40.488  36.858   3.706
57968W        W23228   4.327  44.960  12.212
57969W        W23229  42.148   5.914  12.472
57970W        W23230  25.011  21.549   4.519
57971W        W23231   8.801  38.903  14.346
57972W        W23232   7.034  41.539   2.840
57973W        W23233   5.849  24.157  13.111
57974W        W23234  34.672  30.802   0.260
57975W        W23235  29.415  26.819   4.734
57976W        W23236  42.056  34.609   2.309
57977W        W23237  33.497  33.381   3.880
57978W        W23238  35.004   3.320  11.203
57979W        W23239  39.066  17.301   4.081
57980W        W23240  41.046   2.425   0.745
57981W        W23241   7.498  39.110   4.191
57982W        W23242  16.294  10.455  13.171
57983W        W23243   9.788  12.747  12.887
57984W        W23244  41.557  27.458  12.112
57985W        W23245  42.435  10.130   2.929
57986W        W23246  35.115  41.625   2.082
57987W        W23247  11.415  39.562   2.630
57988W        W23248  23.041  31.731   2.273
57989W        W23249  11.279  14.945   1.213
57990W        W23250  16.074   4.418  14.442
57991W        W23251   0.052  37.893  14.905
57992W        W23252  39.420  44.463  12.160
57993W        W23253  28.274  35.444  13.691
57994W        W23254  23.068  29.582   1.165
57995W        W23255  20.228  37.605   3.321
57996W        W23256   3.935  19.804   3.282
57997W        W23257  13.261  27.142   4.764
57998W        W23258  22.128  31.893  13.912
57999W        W23259  28.266  19.627  10.507
58000W        W23260  24.933   1.720   2.117
58001W        W23261   7.525  11.638  12.605
58002W        W23262  20.206  42.583  14.890
58003W        W23263  16.406  35.985   2.017
58004W        W23264  28.746  44.324  13.066
58005W        W23265  40.207  30.114  12.091
58006W        W23266  27.165  30.373   2.294
58007W        W23267   8.897  39.403   3.446
58008W        W23268  31.978  29.410   3.105
58009W        W23269  22.120  38.826   0.271
58010W        W23270  33.087  17.820  14.948
58011W        W23271   5.780  40.624   1.707
58012W        W23272  39.083   7.671   0.553
58013W        W23273  33.753  24.171   2.675
58014W        W23274   1.802  21.963  12.532
58015W        W23275  19.673  28.707  12.397
58016W        W23276  22.969  17.959   4.928
58017W        W23277  16.226  14.766  13.267
58018W        W23278  43.918   1.365  11.629
58019W        W23279  38.482  13.806   3.940
58020W        W23280   7.990   2.347   5.065
58021W        W23281  38.696  18.860   5.197
58022W        W23282  41.072  22.962   1.736
58023W        W23283  30.863  37.223   0.891
58024W        W23284  37.012  28.455   3.731
58025W        W23285  30.062  37.463  12.055
58026W        W23286  38.337  28.085   3.161
58027W        W23287  13.321  38.239  11.151
58028W        W23288  25.427  28.146   4.717
58029W        W23289   1.852  24.399   1.282
58030W        W23290  37.384  27.326   3.166
58031W        W23291  24.813   2.380  11.573
58032W        W23292  27.038  35.833  14.460
58033W        W23293  30.148  16.392  12.852
58034W        W23294  29.419  23.248  13.501
58035W        W23295  11.091  21.735   2.261
58036W        W23296  34.766  16.844   4.875
58037W        W23297  24.941  10.762   2.729
58038W        W23298  28.945  42.186  13.889
58039W        W23299  19.627  44.485  13.339
58040W        W23300  24.996  24.687   2.692
58041W        W23301  12.802  25.173  14.234
58042W        W23302  31.034  35.014  13.603
58043W        W23303   2.032   2.323  12.951
58044W        W23304   3.948  26.385   2.339
58045W        W23305  44.457  14.758  10.058
58046W        W23306  41.386  10.298  11.901
58047W        W23307   4.182  33.413  11.960
58048W        W23308  20.137  42.217  11.465
58049W        W23309  18.095  24.790   3.793
58050W        W23310   2.844  43.037  13.832
58051W        W23311  23.485   0.247  13.526
58052W        W23312   6.760  15.807   1.684
58053W        W23313  28.998  39.421   1.266
58054W        W23314  22.025   6.147   4.956
58055W        W23315  18.903  41.393  10.796
58056W        W23316  16.826  27.465  11.131
58057W        W23317   2.925  11.927  10.844
58058W        W23318  20.439  20.581   0.892
58059W        W23319  38.020   5.469   3.031
58060W        W23320  17.211   4.779  13.477
58061W        W23321   0.989  39.947  13.227
58062W        W23322  13.160  24.362  13.021
58063W        W23323  25.229  25.296   1.765
58064W        W23324  44.663   0.440   2.770
58065W        W23325   0.282  40.348   0.814
58066W        W23326  25.614  37.787   3.247
58067W        W23327  35.594  17.946  10.797
58068W        W23328   1.951  36.368  12.134
58069W        W23329  25.593   4.550   0.339
58070W        W23330  42.202  43.079   1.947
58071W        W23331  15.946  37.878  13.351
58072W        W23332  21.360   5.204   0.715
58073W        W23333  11.858   5.314  11.473
58074W        W23334  32.742   3.882  12.655
58075W        W23335  10.211  18.979   4.100
58076W        W23336   1.768  26.041  11.242
58077W        W23337  16.720  36.930  14.151
58078W        W23338   7.194  30.594   3.793
58079W        W23339   4.082  16.573  13.945
58080W        W23340  41.867   2.068  13.874
58081W        W23341   4.943  29.432   1.975
58082W        W23342  35.067  37.975  12.900
58083W        W23343  34.503  42.553   2.365
58084W        W23344   5.954  44.089   2.013
58085W        W23345   0.056  25.204   1.271
58086W        W23346  33.949   4.383  11.918
58087W        W23347  39.951  36.454   3.408
58088W        W23348  29.152  40.259  13.477
58089W        W23349  27.494   4.574  13.986
58090W        W23350  32.634   5.099   9.809
58091W        W23351   8.098  25.616  12.145
58092W        W23352  11.982  29.852  10.026
58093W        W23353  10.395   2.864   2.859
58094W        W23354  10.805  38.355   0.274
58095W        W23355   0.917   2.791  13.451
58096W        W23356  35.114  24.982  12.524
58097W        W23357  32.131  17.140  14.843
58098W        W23358  22.335  33.451  10.051
58099W        W23359  35.177  15.362  14.973
58100W        W23360  33.633   9.664   3.797
58101W        W23361  26.589  30.483   0.615
58102W        W23362   1.015   1.935   3.644
58103W        W23363  22.642   6.382   4.292
58104W        W23364  24.176  14.810   1.589
58105W        W23365  15.851  21.791   2.331
58106W        W23366   4.272  29.205  14.865
58107W        W23367   4.285  35.888   3.683
58108W        W23368  29.003   3.925   2.241
58109W        W23369   9.142   8.070   5.087
58110W        W23370  15.353   8.323   3.589
58111W        W23371  35.580  33.029  13.294
58112W        W23372  43.428   9.555   1.101
58113W        W23373  26.218  16.406   1.720
58114W        W23374  38.077  42.860   1.671
58115W        W23375  29.516   2.894   4.828
58116W        W23376  11.828  29.221  11.310
58117W        W23377  21.996  44.490   3.085
58118W        W23378  37.575  25.705  14.966
58119W        W23379  14.091  12.010   0.162
58120W        W23380   1.843  10.404   0.968
58121W        W23381   1.011  16.691   4.276
58122W        W23382  35.830  11.486   0.837
58123W        W23383  40.552  20.451  13.074
58124W        W23384  27.260  23.776  12.857
58125W        W23385  35.568  31.342  12.594
58126W        W23386  40.030  35.589  10.700
58127W        W23387  38.833  19.575   0.791
58128W        W23388  41.298  12.769   0.869
58129W        W23389  25.056  28.028   4.262
58130W        W23390  27.460  17.243  14.814
58131W        W23391  41.465   2.846   4.283
58132W        W23392  14.304  30.968   0.675
58133W        W23393  34.052  32.093  12.045
58134W        W23394  24.998  22.084  14.932
58135W        W23395   5.513  11.623   0.186
58136W        W23396   9.909  37.343  14.010
58137W        W23397  15.644  37.102  10.524
58138W        W23398  24.022   5.685   2.916
58139W        W23399  37.106   7.726   3.677
58140W        W23400  13.718   3.213  10.715
58141W        W23401  33.459  23.180   1.705
58142W        W23402  35.772   8.177   0.849
58143W        W23403  20.049  27.910   1.973
58144W        W23404  15.635  19.771   3.275
58145W        W23405  28.578  38.091  10.995
58146W        W23406   9.722   3.400   1.799
58147W        W23407  33.600  30.855   5.043
58148W        W23408  12.797  25.249   1.749
58149W        W23409  38.068   5.973   1.290
58150W        W23410  25.013  40.222  13.470
58151W        W23411  24.108  38.707  11.103
58152W        W23412  33.610  22.146  13.413
58153W        W23413  14.390  39.062  13.815
58154W        W23414  21.596   5.795   2.091
58155W        W23415   1.570  14.082   1.352
58156W        W23416  15.658  40.337  10.459
58157W        W23417  10.905  37.081   3.591
58158W        W23418  34.809  13.126  12.559
58159W        W23419  19.867  33.450   2.267
58160W        W23420  36.003  16.641   4.394
58161W        W23421  41.500  22.657  13.057
58162W        W23422  38.179  23.183  12.484
58163W        W23423  32.221  25.424   4.433
58164W        W23424   9.296  28.179   3.144
58165W        W23425  32.412   0.138   2.360
58166W        W23426  19.095  21.636  12.031
58167W        W23427  16.669  24.479  13.513
58168W        W23428  29.762  27.349  12.755
58169W        W23429  42.464  32.376  12.724
58170W        W23430  27.620   1.501  14.091
58171W        W23431  30.662   2.949  12.024
58172W        W23432  21.737  12.149   1.562
58173W        W23433  11.673  17.289  14.921
58174W        W23434   5.388  22.548   1.189
58175W        W23435  32.785  20.344   2.753
58176W        W23436   8.130  15.480  13.439
58177W        W23437  18.968   3.771   1.113
58178W        W23438  11.782  24.884   2.249
58179W        W23439   4.729   3.406   0.991
58180W        W23440   8.418  43.320  13.818
58181W        W23441  38.368  39.948  10.158
58182W        W23442  20.520  31.065  13.090
58183W        W23443   7.124  38.181  11.610
58184W        W23444  22.580  13.836   4.546
58185W        W23445  33.498  42.866   3.694
58186W        W23446  35.472   8.163  10.527
58187W        W23447   4.324  37.679  13.957
58188W        W23448  32.332  32.388  12.955
58189W        W23449  20.643  18.566   4.689
58190W        W23450  41.181  19.702  12.816
58191W        W23451  43.897  15.789   3.444
58192W        W23452  14.423  22.741   4.717
58193W        W23453  15.480   2.280   1.816
58194W        W23454  22.848   0.489  14.175
58195W        W23455  25.921  35.952  13.843
58196W        W23456  37.557  28.128  10.409
58197W        W23457  40.493   8.593  14.334
58198W        W23458  42.273  16.049   0.355
58199W        W23459  36.273  26.105  11.642
58200W        W23460  40.990   5.931   4.588
58201W        W23461  32.831  18.296  14.019
58202W        W23462   7.880  19.666   1.817
58203W        W23463   0.332  41.846  14.295
58204W        W23464   3.102  10.642   1.385
58205W        W23465   4.415   0.236   1.550
58206W        W23466  38.839  16.017  11.881
58207W        W23467  25.093  38.217  13.233
58208W        W23468  16.809  40.040  13.728
58209W        W23469  33.507  31.007   3.155
58210W        W23470  26.389  25.668  13.480
58211W        W23471  41.532  23.689   2.162
58212W        W23472   3.192   2.260  14.545
58213W        W23473   8.811  26.903   3.279
58214W        W23474  30.645  41.368   3.126
58215W        W23475   4.302  40.328  14.926
58216W        W23476  39.017   1.923  14.097
58217W        W23477  19.564  27.772  12.923
58218W        W23478  10.368   6.074   4.003
58219W        W23479  40.753   8.589   3.257
58220W        W23480   4.338  22.005  12.018
58221W        W23481  12.237  13.200  14.281
58222W        W23482  33.636   2.744   2.938
58223W        W23483  34.874  24.664  13.451
58224W        W23484   2.197  30.000  11.247
58225W        W23485  26.169  10.118   0.348
58226W        W23486  28.579  32.792  13.855
58227W        W23487  11.529  32.905  11.191
58228W        W23488  22.900   2.946   3.341
58229W        W23489  10.625  41.539  14.000
58230W        W23490  16.820   0.611   4.861
58231W        W23491  23.325  24.989  14.019
58232W        W23492  32.701  32.080   1.659
58233W        W23493  17.873  33.651  14.285
58234W        W23494  37.372  44.550   1.350
58235W        W23495  18.824  32.686   3.686
58236W        W23496  43.431  22.207   0.344
58237W        W23497   5.870  26.937   1.290
58238W        W23498  43.198  41.887   2.674
58239W        W23499  28.738  24.200   3.243
58240W        W23500  14.772  16.586  12.907
58241W        W23501   1.554  23.153  12.018
58242W        W23502  19.493  25.343   1.425
58243W        W23503  24.602  43.405   3.983
58244W        W23504  18.785   1.714  12.375
58245W        W23505  32.746  15.162   0.373
58246W        W23506  15.321  10.480  12.630
58247W        W23507  17.334  31.895   2.567
58248W        W23508   5.271  41.026   1.899
58249W        W23509  27.948  38.554  10.340
58250W        W23510  21.292  24.477  12.026
58251W        W23511   7.624  44.550   4.068
58252W        W23512   1.239  17.738  13.814
58253W        W23513   4.748  25.033   2.331
58254W        W23514  26.556  21.156   4.119
58255W        W23515  10.358  24.159   1.223
58256W        W23516   0.889  41.569  14.961
58257W        W23517  14.388  30.869   3.181
58258W        W23518  37.070  13.753  13.480
58259W        W23519  38.677  22.820  11.421
58260W        W23520  40.754  33.085  12.527
58261W        W23521  26.390  22.727  14.118
58262W        W23522   0.656  22.505   1.247
58263W        W23523  27.979  19.457  14.814
58264W        W23524  36.586  18.723   0.716
58265W        W23525  18.501   2.713  11.130
58266W        W23526   9.681  20.995  13.012
58267W        W23527  36.099  36.484  12.504
58268W        W23528  29.388   9.113   3.235
58269W        W23529  26.665  25.236  10.683
58270W        W23530  40.306  25.885   4.092
58271W        W23531  34.478   1.552   3.612
58272W        W23532   4.336  25.033  14.490
58273W        W23533  21.645  30.965  11.042
58274W        W23534  12.247  11.075   0.991
58275W        W23535  20.522  12.253   3.126
58276W        W23536  39.598  42.645  12.540
58277W        W23537  19.057  32.003  12.381
58278W        W23538  21.529  38.913  13.266
58279W        W23539  43.110  39.833  12.744
58280W        W23540  12.573  13.824  14.370
58281W        W23541  41.043   9.447   0.152
58282W        W23542   7.479  17.007  13.963
58283W        W23543  15.473   6.731   0.313
58284W        W23544  27.494  17.224  14.297
58285W        W23545   3.761  22.123   4.439
58286W        W23546  19.480  32.300  11.228
58287W        W23547  43.435   8.192   4.652
58288W        W23548  20.256  21.668  14.093
58289W        W23549  16.776   6.845   1.238
58290W        W23550  22.269   1.979  13.454
58291W        W23551   9.787  30.611  11.979
58292W        W23552  44.250  35.853   3.291
58293W        W23553  38.058  37.111   3.618
58294W        W23554   1.404  10.915   1.502
58295W        W23555  25.514  43.773   1.931
58296W        W23556  39.076  20.881  13.969
58297W        W23557  23.297  40.703   1.155
58298W        W23558   3.177   1.301  10.999
58299W        W23559  35.044   5.763  13.481
58300W        W23560   2.661   3.548  12.480
58301W        W23561  20.993  39.761   1.475
58302W        W23562  40.333  32.023   1.203
58303W        W23563  29.645   8.417   3.229
58304W        W23564  10.256  29.588   2.589
58305W        W23565   0.071   3.296  11.916
58306W        W23566   8.086  11.807   2.179
58307W        W23567  39.112  43.489   2.247
58308W        W23568  44.870  12.742   3.177
58309W        W23569  18.090   1.295   0.510
58310W        W23570   7.338   2.293  10.589
58311W        W23571  25.931  16.960   3.731
58312W        W23572  33.843  16.171   3.755
58313W        W23573  31.116  36.710   4.152
58314W        W23574  20.142  32.375   0.463
58315W        W23575  20.311  23.200  13.644
58316W        W23576  15.502   8.732  10.668
58317W        W23577  16.107  14.423   1.157
58318W        W23578  36.685  31.398   4.649
58319W        W23579   7.188   7.875  12.561
58320W        W23580   4.942  28.642  12.040
58321W        W23581  17.355  14.268   1.754
58322W        W23582  30.683  20.212  14.502
58323W        W23583   0.032  40.842   1.265
58324W        W23584   1.497   4.737  13.821
58325W        W23585  10.339  25.311  13.065
58326W        W23586  13.184  34.928   4.522
58327W        W23587  38.427  26.541   3.887
58328W        W23588  40.698  35.084  14.215
58329W        W23589  42.042  10.667   3.242
58330W        W23590   9.203   2.362  11.082
58331W        W23591  36.194   3.041  11.681
58332W        W23592  13.351   6.213  14.708
58333W        W23593  10.804  44.384   4.908
58334W        W23594  30.241  28.223  14.885
58335W        W23595  31.624  42.313   1.242
58336W        W23596  21.219  44.603   3.493
58337W        W23597  43.691  44.065   4.615
58338W        W23598  13.526  43.918  14.993
58339W        W23599  33.078  29.482   2.033
58340W        W23600   8.765   2.358  12.441
58341W        W23601   2.506   0.803  11.031
58342W        W23602  11.744   4.636  14.381
58343W        W23603  43.199  30.503   0.292
58344W        W23604  44.268  30.601  14.423
58345W        W23605  44.474  31.521   4.703
58346W        W23606  38.964  29.694  11.540
58347W        W23607  16.327  31.569   0.342
58348W        W23608   6.762  11.760   0.720
58349W        W23609  12.890   2.144   3.172
58350W        W23610  17.801  38.512  14.712
58351W        W23611  41.844  19.109  10.905
58352W        W23612  31.345  31.259   3.324
58353W        W23613  14.763  15.603  11.186
58354W        W23614  17.493  41.809   1.880
58355W        W23615  20.699  35.491  14.821
58356W        W23616  32.553  22.222   3.219
58357W        W23617  34.902  27.644  12.084
58358W        W23618  41.798  21.702  14.805
58359W        W23619   0.596   0.221  11.976
58360W        W23620  41.251  13.662   1.881
58361W        W23621   7.610  44.487  14.336
58362W        W23622  31.433   3.451   1.649
58363W        W23623   0.978  24.692  11.889
58364W        W23624  38.339  29.368   2.861
58365W        W23625   5.320  14.371   3.188
58366W        W23626  28.523  29.692   0.398
58367W        W23627   8.459   3.173   1.380
58368W        W23628  35.314  38.870   4.626
58369W        W23629  10.622  16.135   0.426
58370W        W23630  20.569  26.867  11.149
58371W        W23631  24.757  28.487  14.930
58372W        W23632   7.683  16.705   2.374
58373W        W23633  21.913  12.964   2.089
58374W        W23634  13.627  21.667  13.866
58375W        W23635  25.955  19.181  10.897
58376W        W23636  23.017  29.479   3.076
58377W        W23637  43.645  39.656   3.514
58378W        W23638  23.439  29.604   1.515
58379W        W23639  28.411  29.190  14.454
58380W        W23640  43.011   2.248  12.584
58381W        W23641   1.157  20.261  11.006
58382W        W23642  29.208  28.644  12.985
58383W        W23643   0.488  13.250  14.005
58384W        W23644  36.224  21.165   2.345
58385W        W23645   3.955  10.870   0.199
58386W        W23646  17.569  19.279   2.094
58387W        W23647  31.036  42.709   1.662
58388W        W23648  16.339  15.538   0.416
58389W        W23649  16.584  10.111  13.941
58390W        W23650  20.038  13.355  12.039
58391W        W23651   4.451  23.674  10.830
58392W        W23652  19.032  28.964   2.631
58393W        W23653  34.218  16.532   1.406
58394W        W23654  21.650  12.838  13.421
58395W        W23655  27.060   8.376   2.669
58396W        W23656   7.319  14.083  14.744
58397W        W23657   3.735   2.684  14.352
58398W        W23658  29.624  41.891  13.478
58399W        W23659   0.209  19.799  11.144
58400W        W23660  24.020   3.259  11.082
58401W        W23661  14.260  36.738   0.695
58402W        W23662  39.729  15.072   0.096
58403W        W23663   7.727  12.425   0.164
58404W        W23664  42.864  21.068  12.091
58405W        W23665  14.682  27.077   2.850
58406W        W23666  18.572  13.184   3.278
58407W        W23667  30.631   9.257   2.556
58408W        W23668  38.473  10.694  13.000
58409W        W23669  20.264  35.862  10.500
58410W        W23670  35.984  27.710  11.185
58411W        W23671  41.717  21.974   3.413
58412W        W23672  36.897  33.880  13.454
58413W        W23673   9.007  10.700  12.039
58414W        W23674  27.942  44.341  11.629
58415W        W23675  15.058  37.426   4.713
58416W        W23676  30.086   9.818   2.169
58417W        W23677  19.210  11.585   1.783
58418W        W23678  29.077  19.663  14.088
58419W        W23679  31.095   9.457   2.421
58420W        W23680   3.718  12.814  11.499
58421W        W23681  17.576   6.654  14.451
58422W        W23682   7.347   5.381   1.925
58423W        W23683  12.757   1.920  12.787
58424W        W23684  37.072  27.690   4.093
58425W        W23685  32.659   6.956   2.698
58426W        W23686   4.753  34.473   0.514
58427W        W23687  43.244   9.631  14.281
58428W        W23688  15.633   0.317   4.852
58429W        W23689  11.970  30.092  11.642
58430W        W23690  31.293  34.925   3.642
58431W        W23691  17.645   5.503   0.239
58432W        W23692   9.959  35.185   1.897
58433W        W23693  40.565  35.370  13.807
58434W        W23694  20.249  35.670  10.974
58435W        W23695  15.817  32.089  12.454
58436W        W23696   6.956  10.324   5.029
58437W        W23697   0.966   3.869   2.992
58438W        W23698   5.328  35.365   3.809
58439W        W23699  36.077  36.432  13.394
58440W        W23700  41.728  17.323  12.945
58441W        W23701  34.060  13.445   3.080
58442W        W23702  16.216   4.511  10.305
58443W        W23703  33.119   0.488  11.172
58444W        W23704  38.052  43.181   1.256
58445W        W23705   2.593  29.017  11.152
58446W        W23706   2.200   2.473  11.038
58447W        W23707  22.954   8.437  10.667
58448W        W23708   3.633  29.118   3.748
58449W        W23709  31.471  29.537  11.556
58450W        W23710  34.138   9.956  12.979
58451W        W23711   6.639  43.315   1.122
58452W        W23712  20.791  25.719   0.788
58453W        W23713   7.163  17.536  11.190
58454W        W23714  42.042   2.275  13.115
58455W        W23715  16.059  13.920  11.261
58456W        W23716   2.291  36.571   1.979
58457W        W23717  22.249  24.105  11.072
58458W        W23718  30.819  23.213   4.083
58459W        W23719   2.598  20.492   4.654
58460W        W23720  15.821  24.251   0.917
58461W        W23721  32.504  44.490  13.840
58462W        W23722  40.927  24.883  11.642
58463W        W23723  32.399  38.283   1.754
58464W        W23724  15.816  25.944  14.298
58465W        W23725   3.196  37.769   4.728
58466W        W23726  14.211  41.114  11.682
58467W        W23727  31.646  16.228   3.778
58468W        W23728   4.399  30.189  13.795
58469W        W23729  30.829   7.879  10.978
58470W        W23730  20.920   0.883   0.551
58471W        W23731  27.568  37.403   0.690
58472W        W23732  17.306   3.737  11.187
58473W        W23733  30.589   5.819   2.632
58474W        W23734  22.754  42.556   3.662
58475W        W23735  23.462  42.290  12.000
58476W        W23736  38.517  17.732   1.777
58477W        W23737  38.808  29.791   5.090
58478W        W23738  17.848  19.542   0.867
58479W        W23739   4.702   7.684  13.881
58480W        W23740   4.028  19.692   2.479
58481W        W23741  12.199   4.611   0.946
58482W        W23742  11.700   3.401   1.667
58483W        W23743   8.330  36.828   0.895
58484W        W23744  44.160  43.899   2.111
58485W        W23745   7.482  25.347   3.687
58486W        W23746  39.515  16.611   0.345
58487W        W23747  40.943  36.937  10.663
58488W        W23748   1.069  19.734  14.664
58489W        W23749  14.931  15.287   3.354
58490W        W23750   8.108  12.771   0.851
58491W        W23751  23.256  12.176   1.633
58492W        W23752  17.981   0.668   3.624
58493W        W23753  26.518  38.906   5.048
58494W        W23754  26.290   1.391   4.239
58495W        W23755   5.967  18.263   0.826
58496W        W23756   5.006  37.916   1.508
58497W        W23757  20.569  11.417   4.436
58498W        W23758  34.917  19.170   0.023
58499W        W23759  33.964  38.583  11.385
58500W        W23760  16.555   3.338   3.118
58501W        W23761  43.837  14.524   0.439
58502W        W23762  19.578  15.837   0.916
58503W        W23763  11.591   6.863   2.922
58504W        W23764  14.373  23.151   0.054
58505W        W23765  25.409  23.608   0.896
58506W        W23766  30.985  21.114  10.895
58507W        W23767  28.652  10.233   2.293
58508W        W23768  29.249  12.282  11.659
58509W        W23769   3.001   8.252   1.187
58510W        W23770  30.398  24.430  13.010
58511W        W23771  16.471  26.609   4.651
58512W        W23772  29.961  40.892   2.930
58513W        W23773  10.765  19.958  11.066
58514W        W23774  20.305   3.345  14.882
58515W        W23775  34.734  26.285   4.142
58516W        W23776  27.466  42.911  13.360
58517W        W23777   8.393  42.886  14.500
58518W        W23778  25.793  28.011  13.699
58519W        W23779  17.869  18.355  10.668
58520W        W23780  41.493  18.007  10.663
58521W        W23781   9.944  38.006  10.893
58522W        W23782  44.762  22.672  12.759
58523W        W23783  18.351  40.567  11.638
58524W        W23784  14.179  19.967   3.653
58525W        W23785  17.722  27.150  14.759
58526W        W23786  22.258  32.363  12.905
58527W        W23787  40.524   5.394  13.874
58528W        W23788  42.044  21.984  12.583
58529W        W23789   0.822  39.312   4.729
58530W        W23790  37.864  26.268   2.740
58531W        W23791  23.169  23.483   0.720
58532W        W23792   4.522  19.774   2.406
58533W        W23793  13.648   9.821   3.197
58534W        W23794  35.024  43.072  13.971
58535W        W23795  22.198  16.115  11.920
58536W        W23796  10.433   5.097   1.776
58537W        W23797  29.903  30.910   0.357
58538W        W23798   8.907   6.382  13.578
58539W        W23799  27.017  17.739   3.154
58540W        W23800   0.418  41.761  12.979
58541W        W23801   2.674  39.379  14.876
58542W        W23802  44.917  32.887   0.024
58543W        W23803  33.067  30.117  11.277
58544W        W23804  16.367  21.630   2.288
58545W        W23805  25.499  29.981  11.652
58546W        W23806  14.698  24.758   3.147
58547W        W23807  30.413  41.483   2.684
58548W        W23808   4.190  24.911   4.543
58549W        W23809   7.710  19.639  11.976
58550W        W23810   1.064  10.874   1.126
58551W        W23811  39.366  20.519  11.496
58552W        W23812  21.585  19.053   9.842
58553W        W23813  16.753  38.197  11.040
58554W        W23814  14.568  19.514   4.518
58555W        W23815  10.160  44.070   1.994
58556W        W23816  21.722   2.720   0.917
58557W        W23817  41.019  31.119  14.029
58558W        W23818  24.156   5.270  11.225
58559W        W23819  32.503  35.412  10.433
58560W        W23820  38.966   1.996  10.611
58561W        W23821  30.614  39.459   3.641
58562W        W23822   2.994  21.229   4.185
58563W        W23823  19.660  37.948   1.132
58564W        W23824  42.883  36.958   4.785
58565W        W23825  35.515   3.759   0.056
58566W        W23826   4.765  10.709   0.817
58567W        W23827  42.275   2.707   3.252
58568W        W23828   5.369  11.224   4.597
58569W        W23829   0.049  34.528   3.643
58570W        W23830  25.570  30.619  10.086
58571W        W23831  26.057  18.884   0.409
58572W        W23832  40.290  29.995   2.805
58573W        W23833  18.392   4.383  14.460
58574W        W23834   2.776   6.450   1.050
58575W        W23835   5.686  36.216   1.975
58576W        W23836  23.998  18.681   2.339
58577W        W23837  26.391  39.612   2.393
58578W        W23838  11.386  18.657  11.985
58579W        W23839  16.555  38.765  12.132
58580W        W23840  27.600  17.550   9.769
58581W        W23841  15.293  16.684   2.823
58582W        W23842  36.929  15.546  12.177
58583W        W23843  24.429  28.558  12.187
58584W        W23844  34.470  40.542  12.319
58585W        W23845  18.660  15.775  13.256
58586W        W23846   3.716  36.523   3.731
58587W        W23847  17.678  33.818   1.353
58588W        W23848  20.141   6.511  14.836
58589W        W23849  28.081   6.051   0.770
58590W        W23850  15.125  44.726   0.779
58591W        W23851  11.736   3.219   4.993
58592W        W23852  19.817  35.101   3.700
58593W        W23853   1.257  43.758   2.930
58594W        W23854   2.769  29.106   1.749
58595W        W23855  25.909  28.101   4.922
58596W        W23856  16.587   8.622   0.601
58597W        W23857  25.079  23.982  12.182
58598W        W23858  37.436  14.215  13.168
58599W        W23859  21.707  27.545  14.891
58600W        W23860  19.031  35.039  10.959
58601W        W23861  29.102  38.135   1.083
58602W        W23862  40.600   0.403   2.442
58603W        W23863  39.802  28.071   3.260
58604W        W23864  34.026  42.372   2.325
58605W        W23865  43.804  21.202  11.273
58606W        W23866  19.496  15.783  13.871
58607W        W23867  36.413  39.536   3.621
58608W        W23868  22.759  21.241   0.639
58609W        W23869  40.382  26.885  11.936
58610W        W23870   8.842  30.090   4.089
58611W        W23871  40.734   6.097  11.146
58612W        W23872  21.434  19.666   0.691
58613W        W23873   9.402   5.678   0.092
58614W        W23874   9.295   6.241  10.654
58615W        W23875  20.981   0.320  14.095
58616W        W23876  37.457  22.555  14.422
58617W        W23877  34.624  33.627  14.271
58618W        W23878   4.210  12.751   4.639
58619W        W23879  37.266  25.032  11.226
58620W        W23880  30.413  11.129   4.260
58621W        W23881  23.379  39.453  11.147
58622W        W23882  17.163  34.462   0.956
58623W        W23883  19.479   0.709   5.351
58624W        W23884   1.354  32.056   3.327
58625W        W23885   8.451  10.626  10.723
58626W        W23886  19.678  21.482  12.616
58627W        W23887  13.682  39.000   4.567
58628W        W23888  42.045   3.294   3.734
58629W        W23889  43.754  34.566  10.633
58630W        W23890  42.567  14.142  14.487
58631W        W23891   7.150  17.378   2.772
58632W        W23892  31.992  39.905   3.077
58633W        W23893  22.560  21.593  14.856
58634W        W23894  17.160  23.120  10.760
58635W        W23895  16.219   2.934   3.125
58636W        W23896  37.096   6.854  13.252
58637W        W23897  14.146  24.169   2.912
58638W        W23898  29.691  24.713   0.963
58639W        W23899   6.443  31.644   1.394
58640W        W23900   5.602  16.820  10.633
58641W        W23901   6.843  36.371  14.910
58642W        W23902   7.596  26.948   3.269
58643W        W23903   5.273   1.311  13.629
58644W        W23904  22.509   9.543  12.151
58645W        W23905  39.679  16.648   0.867
58646W        W23906  31.675  33.550   4.675
58647W        W23907  35.066   5.333  12.547
58648W        W23908  14.794  18.717   4.019
58649W        W23909  42.953   8.135   1.870
58650W        W23910  19.010   4.985   4.278
58651W        W23911  21.284  36.398  14.573
58652W        W23912   0.697  31.707  10.578
58653W        W23913  37.468  15.568  12.890
58654W        W23914  42.488  30.081   3.632
58655W        W23915  38.085   5.910   3.835
58656W        W23916  38.355  19.363   0.832
58657W        W23917  25.690  26.741   0.224
58658W        W23918   5.228  32.982  10.564
58659W        W23919  19.713  31.217   3.789
58660W        W23920  17.679  18.481   5.369
58661W        W23921  41.893  37.283   2.604
58662W        W23922  27.079  33.121  10.664
58663W        W23923  23.155  23.527  13.899
58664W        W23924  16.268  27.096  12.119
58665W        W23925   0.805  36.633  12.073
58666W        W23926  34.704  16.441   1.601
58667W        W23927  27.690  38.922   2.269
58668W        W23928  34.647   7.034   1.842
58669W        W23929   8.797   8.386  10.772
58670W        W23930  15.799  44.390  10.843
58671W        W23931  30.653  19.645  13.449
58672W        W23932  16.762  21.981   1.798
58673W        W23933  15.752   7.075   1.597
58674W        W23934  24.475   7.027   1.670
58675W        W23935  12.106  44.285   0.806
58676W        W23936  10.283  11.325   3.084
58677W        W23937   3.363  33.672  13.025
58678W        W23938   8.166  42.912  14.057
58679W        W23939   8.834   5.706  11.206
58680W        W23940  13.601  13.178   4.873
58681W        W23941   0.976  24.085   3.258
58682W        W23942   7.405  39.102   2.245
58683W        W23943   1.879  35.349  13.799
58684W        W23944  39.715  43.330  13.929
58685W        W23945   1.445  26.147  13.296
58686W        W23946   3.409  22.166   1.745
58687W        W23947  24.566  29.587   2.442
58688W        W23948  22.484  24.286  11.562
58689W        W23949   1.947  39.116   4.655
58690W        W23950  15.592  11.338   1.046
58691W        W23951  37.410   8.088   3.912
58692W        W23952  37.322  10.204   4.139
58693W        W23953  21.486  23.221  12.945
58694W        W23954   3.388  25.839  12.125
58695W        W23955  26.581  15.618   4.550
58696W        W23956  10.667  16.332  14.077
58697W        W23957  25.038  39.579  10.168
58698W        W23958  34.617  26.073   4.910
58699W        W23959  31.936   0.121   4.064
58700W        W23960   6.300  23.024   4.882
58701W        W23961  30.042  34.686  12.162
58702W        W23962  39.452  39.750   3.219
58703W        W23963  32.017  26.608   3.128
58704W        W23964  11.037   4.594  12.711
58705W        W23965  30.475  10.190   2.140
58706W        W23966  28.192  22.597   2.814
58707W        W23967  15.055  21.722  11.195
58708W        W23968   0.405  44.738   1.774
58709W        W23969  43.287   8.925  13.395
58710W        W23970  30.847  39.328  13.117
58711W        W23971   0.535  31.243  10.701
58712W        W23972  19.409  36.143   3.706
58713W        W23973  24.580  43.336  14.826
58714W        W23974  25.479  22.612   0.380
58715W        W23975  24.575   5.404  13.076
58716W        W23976   8.777   2.375   2.359
58717W        W23977   5.004  11.191  10.632
58718W        W23978  22.069  43.829  12.341
58719W        W23979  17.130  29.982   0.600
58720W        W23980   2.967   6.726  11.045
58721W        W23981  25.634  37.975  11.468
58722W        W23982  41.808  35.449   0.853
58723W        W23983  12.707  34.553  11.008
58724W        W23984   5.887  25.196  14.118
58725W        W23985  40.004   8.706   2.187
58726W        W23986  12.278   3.138  12.925
58727W        W23987  43.799  39.824   4.712
58728W        W23988  16.039  33.462   3.302
58729W        W23989  16.632  39.569  11.032
58730W        W23990  44.476   6.992  11.679
58731W        W23991  32.531   5.897   1.356
58732W        W23992   3.809  27.877   0.313
58733W        W23993   6.715  42.344   3.240
58734W        W23994  44.724  42.987   0.580
58735W        W23995  17.240  37.711   3.734
58736W        W23996  16.694   0.484  13.791
58737W        W23997  26.863  18.092   2.639
58738W        W23998  26.974  40.416   3.734
58739W        W23999  18.020  38.095  14.952
58740W        W24000  24.543  37.834   4.202
58741W        W24001  20.999  22.952   0.016
58742W        W24002   0.977   9.704  11.364
58743W        W24003  44.406  16.367  11.042
58744W        W24004   8.558  42.497   4.824
58745W        W24005  29.783  33.384  11.916
58746W        W24006   9.659   9.259   1.208
58747W        W24007  19.608   9.127   1.330
58748W        W24008  13.084  11.901  13.301
58749W        W24009  13.356  11.193  12.081
58750W        W24010  19.278  13.819   4.525
58751W        W24011  21.488  18.755  12.041
58752W        W24012   7.149  37.312  11.113
58753W        W24013  11.525  27.524   4.951
58754W        W24014  13.897  42.548   1.778
58755W        W24015  23.640  27.391  14.922
58756W        W24016   8.576  28.202  12.574
58757W        W24017   9.920  11.884  12.438
58758W        W24018   1.739  43.443  11.692
58759W        W24019  15.255   1.867  13.168
58760W        W24020  39.436  27.075   2.724
58761W        W24021  38.669  28.988  11.863
58762W        W24022  31.957   0.579   3.698
58763W        W24023   0.222   4.348  12.462
58764W        W24024  30.227  15.552  12.418
58765W        W24025  43.199  29.130   2.899
58766W        W24026  26.748  42.405   0.446
58767W        W24027  20.682  41.788   0.068
58768W        W24028  36.965  15.303  11.726
58769W        W24029  35.568  24.773  12.285
58770W        W24030  10.099   9.161  14.937
58771W        W24031  12.211   6.786   2.863
58772W        W24032  12.261   7.949   0.504
58773W        W24033  38.300  24.446   3.902
58774W        W24034  32.999  14.500  10.861
58775W        W24035  20.179  18.483   0.813
58776W        W24036   9.732  42.023   2.354
58777W        W24037  33.934  32.030   3.730
58778W        W24038  35.487  40.254   4.064
58779W        W24039   6.728   9.582  12.898
58780W        W24040  19.671  23.044   1.861
58781W        W24041  28.186  23.479   3.638
58782W        W24042  17.445  27.969  14.329
58783W        W24043   7.854  33.906  14.583
58784W        W24044   2.694  42.335   3.591
58785W        W24045  38.647  26.486  12.476
58786W        W24046  38.335  38.595   4.599
58787W        W24047  42.680  14.653  14.095
58788W        W24048  42.288  35.281  10.754
58789W        W24049  10.229   1.801  11.663
58790W        W24050  25.588  36.288   0.768
58791W        W24051  29.495  44.883  10.393
58792W        W24052  43.386  35.116   3.740
58793W        W24053   3.241  33.369  12.000
58794W        W24054  31.150  32.923   0.842
58795W        W24055  31.577  36.083  12.121
58796W        W24056  32.368  43.922   3.421
58797W        W24057  34.464  25.134  12.176
58798W        W24058  38.804  28.877   2.196
58799W        W24059  31.108  44.646  14.994
58800W        W24060   6.486  33.574   0.803
58801W        W24061  36.033   6.863  13.972
58802W        W24062  10.083  25.555   5.550
58803W        W24063   9.636  22.465   1.198
58804W        W24064  21.431  12.855   0.777
58805W        W24065   7.377   5.926   1.406
58806W        W24066  38.343  28.623  14.894
58807W        W24067   9.444  15.901   5.107
58808W        W24068   4.372   2.762  11.841
58809W        W24069  35.316  18.570  14.341
58810W        W24070  23.645  21.162   3.736
58811W        W24071  35.775   3.868   1.698
58812W        W24072  12.304  18.148   1.838
58813W        W24073  18.504  14.634   3.756
58814W        W24074  30.652  32.622  12.134
58815W        W24075  28.535  34.863   2.780
58816W        W24076  42.797  16.257   1.747
58817W        W24077  24.505  40.346  11.389
58818W        W24078  28.157  26.642   3.026
58819W        W24079   3.712   7.896  10.966
58820W        W24080   0.940   3.727  13.913
58821W        W24081   0.718  34.467  14.810
58822W        W24082   3.531   7.203  10.365
58823W        W24083  31.360  35.457   3.717
58824W        W24084  25.518  38.900  13.485
58825W        W24085   1.682  39.846   4.126
58826W        W24086   5.871   0.316   0.238
58827W        W24087   9.857   0.849  12.423
58828W        W24088  32.043  23.480  11.672
58829W        W24089   0.054   9.850   0.945
58830W        W24090  23.363  13.725  11.644
58831W        W24091  43.408  43.417  11.898
58832W        W24092  27.090   2.798   4.426
58833W        W24093  18.224  13.654   3.576
58834W        W24094  24.634  13.223  11.078
58835W        W24095  24.501  28.574   4.767
58836W        W24096   9.571  18.432  14.868
58837W        W24097  31.324   7.673   1.431
58838W        W24098   6.250  27.086   9.943
58839W        W24099   2.218   9.756  12.773
58840W        W24100  40.292  13.653   0.901
58841W        W24101  15.683  29.922   4.831
58842W        W24102  41.897  25.400   3.695
58843W        W24103  13.154  37.030  13.534
58844W        W24104  33.745  24.710  12.071
58845W        W24105  19.996  35.995   1.290
58846W        W24106   6.788  34.546   1.712
58847W        W24107  42.787  11.300   3.224
58848W        W24108  42.309  17.595   3.215
58849W        W24109   1.735  31.371   5.019
58850W        W24110  17.576  10.375   3.349
58851W        W24111  15.827   0.363  14.385
58852W        W24112  21.715  22.309   1.924
58853W        W24113  21.695   6.891   2.294
58854W        W24114   6.127  23.571  13.974
58855W        W24115  12.622  41.600   2.371
58856W        W24116  33.466  14.798  11.558
58857W        W24117   4.209  41.993   2.813
58858W        W24118  36.950   3.739  13.055
58859W        W24119  28.676  24.742  13.406
58860W        W24120  19.707   6.243  14.053
58861W        W24121  41.927  32.701   2.626
58862W        W24122  12.640  41.808  10.933
58863W        W24123  17.055  40.071   2.472
58864W        W24124  16.840   6.437  12.003
58865W        W24125  41.037  13.213   1.696
58866W        W24126  18.810  42.864  12.609
58867W        W24127  31.417  11.635  10.680
58868W        W24128  30.511  33.140  14.945
58869W        W24129  33.363   7.264   2.728
58870W        W24130   2.486  34.678   4.214
58871W        W24131  14.599  10.866  12.607
58872W        W24132  26.783   9.905  10.040
58873W        W24133  14.361  18.388  12.536
58874W        W24134  17.806  40.814  11.513
58875W        W24135  18.887   6.851  14.351
58876W        W24136  41.539  43.380   0.783
58877W        W24137  10.894  25.298  11.600
58878W        W24138   7.451  35.434   1.633
58879W        W24139  31.127  38.481  12.489
58880W        W24140  43.354  11.790   2.180
58881W        W24141   1.009  20.088  11.548
58882W        W24142   4.884  21.269   3.322
58883W        W24143  18.634  36.068   2.749
58884W        W24144  23.260   7.916   2.469
58885W        W24145  33.324  15.329   1.362
58886W        W24146  13.763   0.052   4.143
58887W        W24147  25.585  26.061  13.126
58888W        W24148  34.530   2.279   0.663
58889W        W24149   4.521  34.404  10.652
58890W        W24150  22.534   1.697  14.742
58891W        W24151  31.715   4.290  14.566
58892W        W24152  44.918  35.619  12.466
58893W        W24153   3.780  30.627  14.366
58894W        W24154  33.660   6.857  12.212
58895W        W24155   9.148   7.726  10.304
58896W        W24156  24.792   7.188   2.182
58897W        W24157   8.840   9.169   3.094
58898W        W24158  28.507   5.619   3.406
58899W        W24159  32.720  17.735   3.736
58900W        W24160  23.545  29.048  14.693
58901W        W24161   1.025  15.765   2.795
58902W        W24162   7.891  10.225   4.695
58903W        W24163  30.567  18.548   2.762
58904W        W24164  36.116  18.591   2.200
58905W        W24165  16.315  24.909   1.785
58906W        W24166  11.657  27.250   9.784
58907W        W24167  23.040  13.018  12.522
58908W        W24168  43.488  30.747  12.671
58909W        W24169   0.488  35.588   3.346
58910W        W24170  40.638   5.490   0.655
58911W        W24171  27.728  42.127   3.344
58912W        W24172  23.588  23.847   0.943
58913W        W24173  12.748  11.641   0.315
58914W        W24174  22.220   4.390  12.619
58915W        W24175  40.292  32.051  11.103
58916W        W24176   7.193   5.289   4.763
58917W        W24177  24.138  41.618  10.662
58918W        W24178  19.666  38.989   3.328
58919W        W24179  33.568  44.095  10.666
58920W        W24180  12.152  40.505   3.226
58921W        W24181  27.874   3.897   0.449
58922W        W24182  31.238   4.774  13.873
58923W        W24183  18.117  31.079  13.909
58924W        W24184  18.556   3.915  13.853
58925W        W24185  38.108   6.185   4.451
58926W        W24186  31.590  17.669  11.267
58927W        W24187  43.958   0.864  11.417
58928W        W24188  28.583  19.157   1.216
58929W        W24189  14.412  43.926  10.685
58930W        W24190   2.713  17.585  11.889
58931W        W24191  26.506  16.494   3.337
58932W        W24192  12.243  41.769   2.711
58933W        W24193  44.105  36.026  11.402
58934W        W24194  33.802  44.795   3.568
58935W        W24195  43.740  25.944   1.407
58936W        W24196  14.235  31.374   1.884
58937W        W24197  24.634  43.854   2.179
58938W        W24198   8.337  24.455   3.246
58939W        W24199  25.181  32.890  14.970
58940W        W24200  19.798  36.989  11.892
58941W        W24201   2.505  22.099   2.233
58942W        W24202  25.730   2.707  13.374
58943W        W24203  39.033  23.168   2.709
58944W        W24204  15.533  25.050  11.143
58945W        W24205   2.286  41.397  12.433
58946W        W24206  40.457  29.412   3.212
58947W        W24207  44.824  41.115  10.730
58948W        W24208  22.195  13.250  14.414
58949W        W24209  42.538  11.103  10.189
58950W        W24210  44.205  35.388   4.660
58951W        W24211  40.831  38.556   3.282
58952W        W24212  25.275  39.594   4.170
58953W        W24213  18.874  22.629   3.479
58954W        W24214   5.626  17.650  13.913
58955W        W24215  41.477  40.756   2.359
58956W        W24216  38.766  14.666   2.233
58957W        W24217  41.848  33.563   4.627
58958W        W24218  40.892  23.174  12.196
58959W        W24219  21.775  26.476   4.033
58960W        W24220  29.583  38.741   4.382
58961W        W24221  14.554  15.171   4.731
58962W        W24222  19.448  18.620  13.400
58963W        W24223  33.987  42.463   1.672
58964W        W24224  38.392  36.305  11.113
58965W        W24225  41.155  34.539  12.150
58966W        W24226  17.068  37.876   2.191
58967W        W24227  43.783   2.113  11.240
58968W        W24228  23.692  34.364  12.480
58969W        W24229   3.987   9.590  14.978
58970W        W24230  18.246  35.856   4.574
58971W        W24231   6.973  21.145   0.584
58972W        W24232  29.155   7.734   4.513
58973W        W24233  24.162   5.341  12.066
58974W        W24234  38.497  33.643   3.723
58975W        W24235   8.873  22.015  12.085
58976W        W24236  36.783  27.192   0.417
58977W        W24237  32.400  21.187   1.206
58978W        W24238  26.105  11.423   4.551
58979W        W24239  16.404  37.118   3.691
58980W        W24240   1.007  31.561   2.752
58981W        W24241  21.098  33.326  13.114
58982W        W24242   0.225  23.139  12.051
58983W        W24243  34.429  31.589  11.686
58984W        W24244  14.487  35.760  11.464
58985W        W24245  25.233   9.870   3.198
58986W        W24246   8.583  25.379   5.443
58987W        W24247  34.215  16.141   1.988
58988W        W24248   7.700  14.336   2.775
58989W        W24249   6.858   2.372  12.584
58990W        W24250  43.651  42.004  11.850
58991W        W24251   1.640  40.619  14.367
58992W        W24252  33.166  24.236   3.724
58993W        W24253   8.181  26.220  14.048
58994W        W24254  13.372  38.123  14.301
58995W        W24255  35.025  20.919   4.275
58996W        W24256   8.802   7.113   1.186
58997W        W24257  27.087  12.390   1.055
58998W        W24258  33.876  35.864  14.943
58999W        W24259   6.611  11.039  11.220
59000W        W24260   3.961  22.813  12.807
59001W        W24261  38.616  33.393  11.609
59002W        W24262  25.522  39.634  13.982
59003W        W24263  36.636  35.167  11.562
59004W        W24264  17.010  31.472  13.456
59005W        W24265  24.193  31.799   0.555
59006W        W24266  34.477  37.817  14.693
59007W        W24267  29.045  41.473   0.691
59008W        W24268  38.876  38.465   2.852
59009W        W24269  41.990  38.927   3.336
59010W        W24270  19.066  43.294  14.959
59011W        W24271  21.452   9.299  12.522
59012W        W24272  22.812  19.046   1.262
59013W        W24273   1.134  24.308   1.486
59014W        W24274  26.710  23.485   2.889
59015W        W24275   6.227  41.736  12.011
59016W        W24276   5.442  26.524  14.399
59017W        W24277  38.538  13.723   3.429
59018W        W24278  25.125  20.837   4.957
59019W        W24279  20.436   5.154  11.183
59020W        W24280  32.156   6.741  12.976
59021W        W24281  16.784  13.918   2.059
59022W        W24282  36.197  10.599  13.948
59023W        W24283   9.570  13.415   1.045
59024W        W24284   0.980  11.289  13.055
59025W        W24285  39.340  38.394  11.227
59026W        W24286  21.001  41.992   2.790
59027W        W24287  30.686  28.709  14.268
59028W        W24288  28.866  16.957  11.956
59029W        W24289  28.408  40.947  13.046
59030W        W24290  43.779   7.363   3.309
59031W        W24291  44.013  43.493  12.504
59032W        W24292   4.898  10.134   4.268
59033W        W24293  17.249  28.428   4.195
59034W        W24294  32.405  22.558  13.828
59035W        W24295   0.236  44.496  11.599
59036W        W24296  18.508  33.042  13.925
59037W        W24297   9.764  24.578  12.852
59038W        W24298  43.776  16.518   2.251
59039W        W24299  24.688  30.337  12.658
59040W        W24300   9.630  10.460  14.303
59041W        W24301  20.704  31.433   2.881
59042W        W24302   7.435  32.751  11.229
59043W        W24303  40.315  21.245  12.579
59044W        W24304   3.182  35.011   3.526
59045W        W24305  23.070  41.542  10.588
59046W        W24306  29.639  18.267   1.402
59047W        W24307  29.361  20.700   1.329
59048W        W24308  42.051  24.906   1.014
59049W        W24309  13.695  39.006  14.307
59050W        W24310   0.288   3.705   0.835
59051W        W24311   7.642  37.437  13.495
59052W        W24312   2.646  22.477  11.594
59053W        W24313  23.507  22.294  12.173
59054W        W24314  23.289  14.702   0.308
59055W        W24315  11.477  43.361   2.430
59056W        W24316   7.424  44.429  10.279
59057W        W24317  41.345   9.242  10.796
59058W        W24318  12.397  21.431   1.235
59059W        W24319  26.641  42.731  12.032
59060W        W24320  24.065  21.012   2.869
59061W        W24321  10.655  16.617   1.470
59062W        W24322  12.093  41.308  11.060
59063W        W24323  40.532  10.667   4.194
59064W        W24324  27.454  28.777  11.853
59065W        W24325   6.934  27.620  13.677
59066W        W24326  40.473  43.423   4.601
59067W        W24327  27.161  38.908  10.733
59068W        W24328  28.761  28.860  14.948
59069W        W24329  40.042  11.625  11.110
59070W        W24330   9.533  39.215  12.651
59071W        W24331   3.187   3.976  11.861
59072W        W24332  33.591  36.019  14.109
59073W        W24333   6.391  41.611  14.479
59074W        W24334  11.379  19.286  14.009
59075W        W24335  40.378  33.401   2.556
59076W        W24336   9.288   4.394  11.113
59077W        W24337  31.971  28.242  11.854
59078W        W24338  33.824  41.473   0.310
59079W        W24339  23.069  40.901   1.583
59080W        W24340  16.070  34.025  14.392
59081W        W24341  44.821  18.774  10.486
59082W        W24342  32.651   4.813   0.683
59083W        W24343  24.721  40.838   3.182
59084W        W24344  29.267  25.236  14.089
59085W        W24345  35.480  15.886  14.905
59086W        W24346   9.604   1.105   1.309
59087W        W24347  11.808  37.847  14.779
59088W        W24348  22.196  20.472  11.395
59089W        W24349  19.281   7.765  12.073
59090W        W24350  16.984   2.257   3.292
59091W        W24351  15.261  38.919  12.073
59092W        W24352  10.545   6.207  11.636
59093W        W24353  34.572  31.922  10.277
59094W        W24354  19.647  23.885   2.966
59095W        W24355  17.155  13.426  12.863
59096W        W24356  32.466  17.583   4.872
59097W        W24357  26.940  43.343   0.331
59098W        W24358   7.223  32.886   4.112
59099W        W24359  30.408  40.074  11.956
59100W        W24360  14.172  14.842  13.523
59101W        W24361  35.582   9.783   1.373
59102W        W24362  25.608   0.719   3.677
59103W        W24363  32.316   3.981  10.835
59104W        W24364  13.711  22.541  11.385
59105W        W24365  11.990  37.158  14.683
59106W        W24366  41.733  10.220  11.532
59107W        W24367  17.108   1.735   2.084
59108W        W24368  14.482  35.134  12.077
59109W        W24369  42.618  20.644   2.295
59110W        W24370  18.218  28.543  13.813
59111W        W24371  28.512  21.588  13.374
59112W        W24372  15.632  22.804  13.819
59113W        W24373  20.466  13.097  12.776
59114W        W24374  14.381  35.471  13.161
59115W        W24375   8.073  33.097  13.028
59116W        W24376  33.494   0.509  10.339
59117W        W24377  33.034  16.267   3.323
59118W        W24378   9.158   6.273   0.535
59119W        W24379  15.260  19.674   2.015
59120W        W24380  16.757  13.692   2.540
59121W        W24381  34.474  14.094   4.288
59122W        W24382  18.138  44.000  14.842
59123W        W24383  30.951  36.722   0.786
59124W        W24384  37.185  30.999  10.842
59125W        W24385  43.723  12.087  14.835
59126W        W24386  26.314  18.208   3.478
59127W        W24387  24.995   0.797   2.260
59128W        W24388   9.237  44.171   1.808
59129W        W24389  26.673  10.609  13.800
59130W        W24390  32.534   1.780   1.715
59131W        W24391  39.826  23.951   0.907
59132W        W24392  22.061  16.055   0.002
59133W        W24393  32.652  10.786   3.107
59134W        W24394  26.506   1.490   1.261
59135W        W24395  41.626   2.262  13.456
59136W        W24396  22.811  44.582   4.651
59137W        W24397  20.719   7.292   3.926
59138W        W24398   7.256  43.408  13.552
59139W        W24399  28.570  22.696   1.712
59140W        W24400  14.747  26.572  10.809
59141W        W24401   5.649   8.880   2.789
59142W        W24402  11.827  24.203  14.737
59143W        W24403  44.355   3.637   1.738
59144W        W24404  18.702  30.550   4.650
59145W        W24405  26.729   7.063   4.757
59146W        W24406  44.268  10.654  14.724
59147W        W24407  39.837   2.344  12.538
59148W        W24408  24.776  21.729   1.732
59149W        W24409  37.053  21.025   0.978
59150W        W24410  43.727   1.663  14.387
59151W        W24411  14.319   2.106  12.904
59152W        W24412   5.409   9.611   3.638
59153W        W24413  20.012  17.946  13.081
59154W        W24414  32.086   3.932  14.454
59155W        W24415  33.657  16.570   3.185
59156W        W24416  15.626  10.146  10.227
59157W        W24417  30.407   4.750  13.487
59158W        W24418  26.122  29.009   1.931
59159W        W24419  33.497  34.099  13.745
59160W        W24420  16.737   3.330   3.644
59161W        W24421   1.275  29.725  12.166
59162W        W24422  39.700  31.439   1.664
59163W        W24423  20.331  13.361   3.761
59164W        W24424  17.098  29.124   0.256
59165W        W24425  33.493  41.935  12.397
59166W        W24426  18.513  32.091  12.295
59167W        W24427  30.299   9.463   1.760
59168W        W24428  13.742  39.738   3.077
59169W        W24429   4.484   1.001  10.585
59170W        W24430  38.963  18.819  10.747
59171W        W24431  12.050   3.995  11.974
59172W        W24432  16.870  35.884   2.807
59173W        W24433  40.849  42.580  12.892
59174W        W24434  14.996  20.683  11.445
59175W        W24435  11.957  40.405  10.315
59176W        W24436   4.234  37.065   1.146
59177W        W24437  42.670   1.240  11.526
59178W        W24438  10.702   3.989   3.737
59179W        W24439  30.181   9.690  14.859
59180W        W24440   6.748  27.253  10.094
59181W        W24441   1.699  15.776   0.343
59182W        W24442  44.666  22.152  10.068
59183W        W24443  28.065  27.667  13.829
59184W        W24444  43.260  14.968   0.773
59185W        W24445   6.758  18.222   4.110
59186W        W24446  25.326  21.711  10.577
59187W        W24447  14.712  13.581  10.670
59188W        W24448  27.530  15.542  11.033
59189W        W24449  20.284   7.994  14.335
59190W        W24450  41.284   7.875   4.854
59191W        W24451   4.190  11.653   2.800
59192W        W24452  30.433  11.202   2.427
59193W        W24453  37.803  38.557   4.663
59194W        W24454  28.889  42.468  13.455
59195W        W24455  26.472   4.402  12.450
59196W        W24456  37.345  44.640   4.939
59197W        W24457  25.991  35.087  11.837
59198W        W24458   3.813  15.056  14.491
59199W        W24459  11.930  18.393   3.703
59200W        W24460   4.244   4.795  12.180
59201W        W24461   7.747  14.716  11.657
59202W        W24462  31.642  15.633   3.109
59203W        W24463  13.185  17.176  10.801
59204W        W24464  43.306  24.231  13.162
59205W        W24465   7.416  25.904   4.527
59206W        W24466  24.523  35.190  13.614
59207W        W24467  39.483  19.044  14.063
59208W        W24468   8.843   3.833   2.007
59209W        W24469   5.888  32.131  14.764
59210W        W24470  27.137   6.758   4.760
59211W        W24471  35.319  37.658   1.728
59212W        W24472  18.545  43.677   1.405
59213W        W24473  24.612   8.200   2.407
59214W        W24474   4.896  32.828   4.193
59215W        W24475   1.638  30.330  13.955
59216W        W24476  41.820  15.225   2.367
59217W        W24477  16.736  10.104  12.156
59218W        W24478  30.237  42.725   4.311
59219W        W24479  26.141   7.323  10.678
59220W        W24480  40.892  13.063  11.170
59221W        W24481  22.056   8.942  10.640
59222W        W24482   7.250  39.567   1.254
59223W        W24483  14.770  26.418   0.688
59224W        W24484  35.303  27.133  10.714
59225W        W24485  39.397  35.111  11.832
59226W        W24486   7.121   4.739   0.531
59227W        W24487  39.321  11.375  13.066
59228W        W24488  35.977  44.711   1.942
59229W        W24489  14.606   8.542  10.350
59230W        W24490  40.511  30.427   3.091
59231W        W24491  11.190  12.751   3.348
59232W        W24492  32.941   4.244  13.460
59233W        W24493  35.945  24.259  11.559
59234W        W24494   2.145  18.170  12.997
59235W        W24495  29.595  44.244   3.412
59236W        W24496  24.176  41.545   4.133
59237W        W24497  44.016  16.009  11.668
59238W        W24498   1.596  40.813  12.494
59239W        W24499  18.306  35.098  14.314
59240W        W24500   8.198  16.793   2.315
59241W        W24501  11.743  32.244  12.950
59242W        W24502   5.200  42.353   3.451
59243W        W24503  34.473  17.129   0.792
59244W        W24504  30.112  41.361   3.105
59245W        W24505   6.098   1.430   3.496
59246W        W24506  15.594  26.627  12.957
59247W        W24507  22.727  24.725  12.886
59248W        W24508   4.278  36.350   3.415
59249W        W24509   4.788  44.984   4.799
59250W        W24510   3.972   3.819  11.083
59251W        W24511  30.387  22.616   2.996
59252W        W24512   7.515  25.049   1.182
59253W        W24513  34.567  30.440   1.932
59254W        W24514  19.653  11.857  11.510
59255W        W24515   6.862  23.088  11.642
59256W        W24516  13.554  41.900  10.858
59257W        W24517  42.332  43.363   2.405
59258W        W24518   6.084  40.383  13.583
59259W        W24519  27.302   9.997   3.771
59260W        W24520  20.800  31.699   1.945
59261W        W24521  16.157  36.562   4.673
59262W        W24522  10.368  43.222  11.976
59263W        W24523  17.649  29.464  13.297
59264W        W24524  26.200   7.842   0.833
59265W        W24525  38.570  13.674  14.430
59266W        W24526  40.621  23.828   0.499
59267W        W24527  42.494  28.506   0.563
59268W        W24528   1.807  36.200   0.703
59269W        W24529  44.512  27.942   2.084
59270W        W24530  37.535  20.381  12.780
59271W        W24531  36.623   9.703   1.389
59272W        W24532   4.319  10.735  12.889
59273W        W24533  27.417  32.521   2.614
59274W        W24534  43.000   7.331   2.862
59275W        W24535  44.948  37.434   4.100
59276W        W24536   9.978  24.017   3.469
59277W        W24537   6.231  19.104  12.085
59278W        W24538  23.974  34.060  13.533
59279W        W24539  26.523  37.208  13.412
59280W        W24540  40.333  38.571   3.375
59281W        W24541  42.501  11.675  11.686
59282W        W24542  13.526  38.411   1.944
59283W        W24543  36.448   9.306   2.874
59284W        W24544   1.787  15.725   4.316
59285W        W24545  44.383  10.894   2.686
59286W        W24546  30.698  39.055   9.970
59287W        W24547  36.049  37.599   3.778
59288W        W24548  42.291   0.824   4.231
59289W        W24549  27.725   8.623   1.550
59290W        W24550  29.926   3.979  14.872
59291W        W24551  12.633   3.917   2.736
59292W        W24552  32.477  21.315   0.199
59293W        W24553  10.341   2.546  12.167
59294W        W24554   5.077   8.971   1.626
59295W        W24555   8.432  12.899  14.944
59296W        W24556   2.263   6.536  11.088
59297W        W24557  31.073  14.720   0.174
59298W        W24558  13.781  20.626  13.410
59299W        W24559  35.331  19.504   2.257
59300W        W24560  14.709  19.977  11.498
59301W        W24561  24.266   8.193   4.998
59302W        W24562   8.062  23.618  11.128
59303W        W24563   1.829   1.591   1.635
59304W        W24564  11.295  14.691   0.746
59305W        W24565  35.016  13.336  11.058
59306W        W24566  23.974  34.376  11.886
59307W        W24567  37.012   7.810  13.558
59308W        W24568  41.576   5.658   1.266
59309W        W24569  44.039  39.027  12.377
59310W        W24570  36.580  19.374  11.404
59311W        W24571  43.698  36.116  11.705
59312W        W24572   4.920  12.110   1.919
59313W        W24573  29.452  39.456   0.077
59314W        W24574  17.045  35.582   3.757
59315W        W24575  37.973  28.380   4.140
59316W        W24576  24.281  23.536  14.936
59317W        W24577  10.475   6.150   3.006
59318W        W24578   9.433  19.273   1.797
59319W        W24579  17.195  31.474  12.027
59320W        W24580  36.596   9.701   3.211
59321W        W24581   9.600  25.493  11.119
59322W        W24582  10.024   6.237  11.944
59323W        W24583  37.393   0.314  13.375
59324W        W24584  37.540  23.253  14.952
59325W        W24585  17.856  41.554   3.002
59326W        W24586  29.156  40.334  11.045
59327W        W24587  30.075  35.935  12.831
59328W        W24588  14.115  28.915   0.428
59329W        W24589   4.118  18.467   0.701
59330W        W24590  29.049  11.448   3.721
59331W        W24591  28.407   4.422  12.561
59332W        W24592   0.903  29.907  13.577
59333W        W24593  44.535  17.956   4.626
59334W        W24594  18.414  10.817   0.969
59335W        W24595   1.730  29.659   0.402
59336W        W24596  31.005  24.606   0.313
59337W        W24597  43.292   7.448   3.266
59338W        W24598  22.244  41.265  13.770
59339W        W24599  29.896  19.067   1.871
59340W        W24600  24.712  26.388   4.727
59341W        W24601  16.186  26.631  14.603
59342W        W24602  10.419  34.067   2.876
59343W        W24603   9.365  26.467  14.816
59344W        W24604  11.683  34.123   3.837
59345W        W24605  43.756   4.973  14.246
59346W        W24606   8.591  19.615  13.961
59347W        W24607  30.500   7.872   4.494
59348W        W24608  36.749  40.847  11.508
59349W        W24609  12.297  26.685   2.345
59350W        W24610  23.930  34.256   1.905
59351W        W24611  25.758  15.796  13.519
59352W        W24612   4.055   5.056  10.319
59353W        W24613  25.630  10.525  11.989
59354W        W24614  13.756  10.750  10.557
59355W        W24615  17.941  44.503  11.469
59356W        W24616  14.113  31.410  11.903
59357W        W24617   4.959  36.921  13.994
59358W        W24618  11.603  12.678  12.505
59359W        W24619  32.483  38.316  14.471
59360W        W24620  15.079  33.662   0.358
59361W        W24621  30.535  18.749   5.029
59362W        W24622  13.708  10.466  11.233
59363W        W24623  41.271  35.467   0.891
59364W        W24624  36.359  40.797  13.499
59365W        W24625   0.730  37.919  11.311
59366W        W24626  42.768  28.584  12.987
59367W        W24627  39.022  27.206  14.495
59368W        W24628  43.264   1.207   2.758
59369W        W24629  22.617  34.403   2.054
59370W        W24630   3.054  22.603   1.015
59371W        W24631  10.375  24.246   4.495
59372W        W24632  13.185  29.857  11.890
59373W        W24633  10.136   7.328  13.367
59374W        W24634  26.871   3.128  12.506
59375W        W24635  25.792  25.110   0.032
59376W        W24636  31.621   1.269   0.309
59377W        W24637  25.089  35.410   4.057
59378W        W24638  30.868  25.508   2.288
59379W        W24639  17.327  30.076   3.654
59380W        W24640  26.485  33.490  14.517
59381W        W24641  29.465  22.955  11.409
59382W        W24642  34.216  21.010  12.615
59383W        W24643  17.897   1.486  10.758
59384W        W24644   1.980  43.777  14.587
59385W        W24645   9.181  16.186  13.853
59386W        W24646  37.021   4.528   3.270
59387W        W24647  26.304  19.866   3.556
59388W        W24648  16.184  31.839   3.114
59389W        W24649  34.480  18.156  11.182
59390W        W24650  40.370  30.495   3.577
59391W        W24651   9.408   1.578   2.108
59392W        W24652  14.290  22.679   4.185
59393W        W24653   2.632  20.065   4.169
59394W        W24654  40.386  40.452  10.624
59395W        W24655   3.228  12.710  14.767
59396W        W24656  20.109  31.645   4.797
59397W        W24657  22.185  18.865   4.606
59398W        W24658  30.393  23.128   0.339
59399W        W24659  39.299   6.914  14.276
59400W        W24660  21.014  17.126  11.933
59401W        W24661   8.006  42.596   4.872
59402W        W24662  37.835  30.552  11.518
59403W        W24663  11.849   6.413   2.840
59404W        W24664  17.868  17.256   2.204
59405W        W24665  26.574  28.131   3.579
59406W        W24666  31.677  15.821  12.331
59407W        W24667   7.586  30.184  12.463
59408W        W24668  32.768  41.673   0.240
59409W        W24669  33.954  28.546  11.878
59410W        W24670  37.123   8.764  10.793
59411W        W24671  23.727  22.806   1.874
59412W        W24672  14.988  21.713   2.749
59413W        W24673  37.876  34.939  13.530
59414W        W24674   2.766   2.203   2.620
59415W        W24675  41.724  29.506   4.935
59416W        W24676  24.236  27.171   4.573
59417W        W24677  16.302  18.396   4.087
59418W        W24678  38.806  43.288   1.843
59419W        W24679   2.077  24.237   3.670
59420W        W24680  26.449  41.067  13.393
59421W        W24681  41.077  33.760   0.351
59422W        W24682   0.028   0.381   3.145
59423W        W24683  22.541  34.874   4.598
59424W        W24684  22.615  25.211   0.780
59425W        W24685  39.597   2.676   4.124
59426W        W24686  26.725  28.217  13.045
59427W        W24687  31.134  31.046   1.406
59428W        W24688  38.450  30.974   4.237
59429W        W24689  39.820  12.062   4.097
59430W        W24690  25.201  14.699   0.754
59431W        W24691  20.549  25.935   2.172
59432W        W24692  26.573  21.128   1.346
59433W        W24693  36.508  30.964   2.348
59434W        W24694   0.718  24.541   3.171
59435W        W24695  39.496   8.411   3.821
59436W        W24696  18.737  16.954  12.399
59437W        W24697  26.166  17.672  12.003
59438W        W24698  22.009  35.363  13.475
59439W        W24699  12.352  26.022   5.628
59440W        W24700  15.778   4.811  14.284
59441W        W24701  25.085  41.346   3.711
59442W        W24702  18.557   4.726   2.126
59443W        W24703   4.962  40.878  12.997
59444W        W24704  38.107  31.235  13.641
59445W        W24705  40.594  37.343   3.783
59446W        W24706   9.178  14.892  12.427
59447W        W24707  35.361  33.673   4.147
59448W        W24708  30.037   7.086   3.704
59449W        W24709   3.396  14.278   3.644
59450W        W24710  41.518  35.915   0.801
59451W        W24711   3.270  18.542   3.374
59452W        W24712  32.801   3.239   1.420
59453W        W24713  44.935   2.244  12.816
59454W        W24714  17.634   6.943  14.017
59455W        W24715  21.717  17.824  13.986
59456W        W24716  19.918  34.815   2.220
59457W        W24717  18.533  13.411   4.700
59458W        W24718  12.191   2.329  12.551
59459W        W24719   1.389  38.747  13.359
59460W        W24720   3.179  39.487   4.254
59461W        W24721  13.092  15.258  13.401
59462W        W24722  18.014  31.514   4.004
59463W        W24723   5.006  38.932  11.388
59464W        W24724  18.923  14.418  11.920
59465W        W24725  33.372  37.033  10.133
59466W        W24726   2.807  33.139  12.188
59467W        W24727  40.509  10.614  13.854
59468W        W24728  34.387   8.448   4.083
59469W        W24729  26.030  14.189   2.321
59470W        W24730  32.737  36.906   0.280
59471W        W24731  30.630  43.901   3.215
59472W        W24732   3.421  31.557  11.979
59473W        W24733   8.642  39.311   1.230
59474W        W24734  21.713  18.645  11.566
59475W        W24735   6.042   0.539  13.077
59476W        W24736   2.607  24.273   2.847
59477W        W24737   5.893   0.824  11.270
59478W        W24738  15.241  13.637   2.456
59479W        W24739   1.416  15.778   3.188
59480W        W24740  21.569  32.346  14.460
59481W        W24741  20.222  36.026   1.772
59482W        W24742  20.707   1.891  13.596
59483W        W24743  42.101   9.032  12.849
59484W        W24744  42.312  38.933   1.812
59485W        W24745  44.371  27.888  11.808
59486W        W24746   1.170  39.564   1.902
59487W        W24747  10.933  21.565   1.364
59488W        W24748   3.780   5.597  11.169
59489W        W24749  37.232  33.549  14.503
59490W        W24750  36.583  14.148  12.048
59491W        W24751  33.993  36.700  11.531
59492W        W24752   8.160  28.722  12.018
59493W        W24753  10.173  41.330  12.979
59494W        W24754  19.852  15.331  11.229
59495W        W24755   0.126  39.355  13.506
59496W        W24756   1.483  16.952  11.632
59497W        W24757   9.915  23.255   0.711
59498W        W24758  11.431   3.789  14.430
59499W        W24759  29.227  39.602  12.378
59500W        W24760  41.957  18.003   1.339
59501W        W24761  28.158  17.588  10.205
59502W        W24762  13.298  44.275   3.333
59503W        W24763  32.059  42.709  11.668
59504W        W24764   8.377  12.281   4.152
59505W        W24765  27.992  22.104   2.831
59506W        W24766  10.289  10.379   3.257
59507W        W24767  17.775  29.634   1.274
59508W        W24768  41.261  31.504  13.802
59509W        W24769  40.776   9.284   1.586
59510W        W24770  25.103   4.946   1.624
59511W        W24771  21.503  36.084   1.346
59512W        W24772  32.133   5.882   1.002
59513W        W24773  39.169  14.786  11.580
59514W        W24774  12.698  39.066   1.664
59515W        W24775  24.757  24.441   2.298
59516W        W24776  42.649  32.821  11.297
59517W        W24777  12.565  37.688   0.749
59518W        W24778   4.110  19.449   4.219
59519W        W24779  14.066  38.729  10.294
59520W        W24780  25.904  36.525  12.995
59521W        W24781  22.627  24.778  11.546
59522W        W24782  36.165  12.643   1.212
59523W        W24783  26.703  35.443  14.350
59524W        W24784  19.899  33.478  14.066
59525W        W24785   6.203  37.955   0.523
59526W        W24786  32.589  41.963  13.943
59527W        W24787  30.477  19.631   1.313
59528W        W24788  23.138   4.478   4.307
59529W        W24789  14.280  40.604  11.641
59530W        W24790  40.394  32.181  13.449
59531W        W24791   8.687  22.151  11.499
59532W        W24792  21.745  31.742   1.381
59533W        W24793  19.266  14.791  10.450
59534W        W24794  32.931  22.274   1.471
59535W        W24795   8.412  18.667   3.356
59536W        W24796  30.876   7.735   3.209
59537W        W24797  39.891  36.196   0.518
59538W        W24798  22.695   3.424   3.454
59539W        W24799  21.785  39.148  12.886
59540W        W24800   9.056  10.978   2.755
59541W        W24801   5.840  26.181   2.892
59542W        W24802  13.092  16.344   0.944
59543W        W24803  34.056   5.311  13.979
59544W        W24804  12.933  34.167   0.169
59545W        W24805  29.448   4.793   0.079
59546W        W24806   8.944   3.477   4.141
59547W        W24807  39.049  36.369   3.547
59548W        W24808  27.726  23.707   3.747
59549W        W24809  44.651  19.808  11.922
59550W        W24810  29.095  12.871   0.784
59551W        W24811  19.776  15.726   2.244
59552W        W24812  35.867  24.982   4.616
59553W        W24813  33.725  32.142  10.444
59554W        W24814  21.079  25.721   1.483
59555W        W24815  34.336   8.467  12.879
59556W        W24816  39.746   5.146   0.839
59557W        W24817  24.985  36.786  10.786
59558W        W24818  44.401  19.337   2.765
59559W        W24819  30.011  24.821   3.051
59560W        W24820  38.876  22.739   4.108
59561W        W24821  19.201  38.593   2.619
59562W        W24822  38.347  29.121   2.275
59563W        W24823  39.525  10.792   3.070
59564W        W24824  17.307  34.931  14.398
59565W        W24825   8.408  39.883   1.791
59566W        W24826  43.864  33.681  11.606
59567W        W24827   1.262  27.258  10.860
59568W        W24828   4.531   1.983  13.413
59569W        W24829  44.209  34.934   4.366
59570W        W24830  34.142  24.531   2.102
59571W        W24831   8.667  34.738   1.460
59572W        W24832  33.358   8.478  10.715
59573W        W24833  32.660  24.941   3.669
59574W        W24834   6.602  21.590   2.785
59575W        W24835   3.310  10.785   4.106
59576W        W24836  18.205  15.546   3.316
59577W        W24837   8.497  21.236  12.386
59578W        W24838   5.583  33.639  11.988
59579W        W24839  32.529  31.165   1.617
59580W        W24840  37.079  27.963  14.050
59581W        W24841   4.264   1.184   4.281
59582W        W24842  36.493  12.286  10.624
59583W        W24843  11.171   0.884  12.997
59584W        W24844  22.943  39.826  11.286
59585W        W24845   1.255  33.335  12.481
59586W        W24846   8.831  24.326   0.831
59587W        W24847  18.788  37.115  12.940
59588W        W24848  31.459  42.559  12.419
59589W        W24849  29.786  43.061  14.357
59590W        W24850  35.393   9.031   0.752
59591W        W24851   4.705  41.224  12.057
59592W        W24852   6.857  13.198   2.156
59593W        W24853  13.421  24.608  10.730
59594W        W24854  10.319   5.817  11.911
59595W        W24855   1.778  31.448   3.418
59596W        W24856  36.081   8.827  14.498
59597W        W24857   1.693  29.871  14.914
59598W        W24858  41.848   9.883  14.442
59599W        W24859  30.006  27.587  10.614
59600W        W24860  22.208   3.521   3.175
59601W        W24861  32.898  31.486  13.083
59602W        W24862  16.583  44.568  11.622
59603W        W24863  15.932  13.392   1.897
59604W        W24864  13.012  33.725   2.257
59605W        W24865  21.776  35.545   2.700
59606W        W24866   6.500  13.646  14.402
59607W        W24867  30.175  40.912  11.981
59608W        W24868  17.527  18.690  14.834
59609W        W24869  17.032   7.634  12.084
59610W        W24870  32.610   6.853   2.176
59611W        W24871  37.102  29.640   4.593
59612W        W24872   4.895  38.882  12.374
59613W        W24873  28.047  40.896  12.255
59614W        W24874  30.436  18.658   1.345
59615W        W24875  30.978  28.236   3.621
59616W        W24876  42.617  38.536   4.285
59617W        W24877   5.755  33.011  10.687
59618W        W24878  29.403  34.944  10.289
59619W        W24879  19.688  14.696  12.449
59620W        W24880  31.086  33.867  14.508
59621W        W24881  22.524  28.193  14.517
59622W        W24882   1.888   1.933  12.119
59623W        W24883  29.242  32.835  11.416
59624W        W24884  41.712  41.089   3.686
59625W        W24885  20.584  24.060   1.731
59626W        W24886  31.408  14.794  14.767
59627W        W24887  36.754  20.294   1.580
59628W        W24888   2.925  39.256   1.299
59629W        W24889  20.734  29.317  13.204
59630W        W24890  19.613  27.856  11.234
59631W        W24891  13.386   1.184  14.712
59632W        W24892  23.617  36.805   2.401
59633W        W24893  26.153  12.374  13.140
59634W        W24894  25.965   0.355  13.405
59635W        W24895  22.294   9.889   2.249
59636W        W24896  18.218   3.723   2.437
59637W        W24897  24.146   7.223  12.942
59638W        W24898  19.888  37.378   2.276
59639W        W24899  38.977   7.695  12.178
59640W        W24900  18.610  28.452  10.527
59641W        W24901  16.552   7.435  12.141
59642W        W24902  41.008   5.341  12.648
59643W        W24903  38.086   2.404  11.981
59644W        W24904  23.133   5.399   0.191
59645W        W24905   6.781   3.202   4.716
59646W        W24906  23.556  25.618   4.600
59647W        W24907  22.141  19.850  13.896
59648W        W24908  34.891  36.854  13.795
59649W        W24909  27.208  41.935   2.245
59650W        W24910  43.095  21.366   1.776
59651W        W24911  29.014  11.966   3.695
59652W        W24912  37.935  34.626   1.289
59653W        W24913  14.144  23.546   4.586
59654W        W24914   0.807  18.054   3.821
59655W        W24915  21.102  17.586   1.118
59656W        W24916  20.829   9.313  13.377
59657W        W24917  39.845   2.751   1.248
59658W        W24918   7.306  18.294  13.402
59659W        W24919  35.374   3.354   3.401
59660W        W24920  36.307  36.395   4.102
59661W        W24921  16.398   7.400  14.829
59662W        W24922  19.289  38.025   3.204
59663W        W24923  28.152  30.969  13.045
59664W        W24924   5.906  22.740  10.367
59665W        W24925  34.549   6.731   0.301
59666W        W24926  12.136  29.105  12.015
59667W        W24927  21.692  22.526  13.881
59668W        W24928  35.666   3.313  14.315
59669W        W24929   4.778  22.192   4.591
59670W        W24930   6.964  29.683  12.888
59671W        W24931   4.264   3.647   0.969
59672W        W24932  11.576  41.297   2.002
59673W        W24933   8.947  41.613   0.228
59674W        W24934   9.330  35.237  13.530
59675W        W24935   0.926  15.118   1.705
59676W        W24936  10.311   1.971   3.185
59677W        W24937  43.328  43.511   1.430
59678W        W24938  18.777   1.377   1.520
59679W        W24939  25.092  19.225   0.232
59680W        W24940  28.829  15.330  12.464
59681W        W24941  30.736  12.241   0.262
59682W        W24942  13.158  39.770   1.899
59683W        W24943  40.846   5.833  11.554
59684W        W24944   9.074  23.641   2.771
59685W        W24945  27.163  22.999   0.821
59686W        W24946  37.334   6.075   4.177
59687W        W24947  25.756  21.588   1.468
59688W        W24948   1.528  37.013   1.676
59689W        W24949  14.176  11.350  11.598
59690W        W24950   7.725  38.093  14.326
59691W        W24951   1.561  31.062   3.168
59692W        W24952   7.324   6.155  14.275
59693W        W24953  40.033  12.841   0.297
59694W        W24954  38.575  38.588   0.025
59695W        W24955  24.344  30.412  10.631
59696W        W24956  18.471   2.800   4.701
59697W        W24957  33.508   6.331   4.070
59698W        W24958  33.440  22.023   2.318
59699W        W24959  33.884  24.614  10.682
59700W        W24960  42.296  32.581  13.751
59701W        W24961  21.072   8.312   1.269
59702W        W24962  24.096  19.976   3.727
59703W        W24963  17.878   9.491  14.389
59704W        W24964  22.110  44.417   2.575
59705W        W24965   3.361  27.987  13.434
59706W        W24966  16.266  32.152   4.624
59707W        W24967  13.905  24.458   4.192
59708W        W24968   1.971  39.392  10.488
59709W        W24969  15.217  19.547   0.931
59710W        W24970  37.856  17.021  13.069
59711W        W24971   9.607   4.800  11.753
59712W        W24972  35.614  38.421  10.472
59713W        W24973  24.512  39.034   1.764
59714W        W24974  22.131  31.404   1.459
59715W        W24975  35.781  43.854  12.500
59716W        W24976  21.704  44.636   2.291
59717W        W24977  29.083  22.570   2.341
59718W        W24978  43.287  10.804  14.811
59719W        W24979  42.893   7.930   1.260
59720W        W24980  10.465  24.295  11.095
59721W        W24981  21.625  24.798  14.277
59722W        W24982   0.772  30.544  12.896
59723W        W24983  39.427  32.523  12.466
59724W        W24984  43.436  18.165  10.242
59725W        W24985  25.250  29.416   1.376
59726W        W24986  42.826  20.614   3.813
59727W        W24987   0.060  19.487  14.952
59728W        W24988  38.412  11.724  14.530
59729W        W24989  32.594  13.410   3.648
59730W        W24990  41.967   6.776  12.974
59731W        W24991  40.377  36.541  11.274
59732W        W24992  41.342  13.288  11.200
59733W        W24993  30.576  38.773   4.790
59734W        W24994  22.716   5.452  13.448
59735W        W24995  14.479  25.093  14.053
59736W        W24996  10.660  22.932  13.895
59737W        W24997  32.940  15.131  12.334
59738W        W24998  37.014  17.690   2.849
59739W        W24999  39.680  34.485   3.183
59740W        W25000  27.419  33.133   3.193
59741W        W25001  21.521  20.988   2.727
59742W        W25002   1.183  15.232   0.757
59743W        W25003  15.307  11.065  11.577
59744W        W25004  12.807   7.547  12.402
59745W        W25005  29.522   9.322  11.072
59746W        W25006   0.022  25.650   2.448
59747W        W25007   9.230   6.917   4.056
59748W        W25008  14.669  24.265   3.216
59749W        W25009  38.513  14.748   1.758
59750W        W25010  19.431  42.939  14.805
59751W        W25011  29.525  18.620  10.748
59752W        W25012  40.272  38.546  14.368
59753W        W25013  21.979   8.255   0.745
59754W        W25014  43.578  11.734   3.170
59755W        W25015  36.047  31.121  12.649
59756W        W25016  38.246  35.174   3.776
59757W        W25017   1.934  20.510  11.619
59758W        W25018  44.048   1.292   0.888
59759W        W25019   6.713   0.041   1.198
59760W        W25020  16.103  42.443   4.503
59761W        W25021  27.397  42.992  13.877
59762W        W25022  12.584  39.534   4.168
59763W        W25023  30.637  21.132  12.536
59764W        W25024  35.087   4.338  14.093
59765W        W25025   4.770  13.206   0.257
59766W        W25026  17.553  22.178  13.021
59767W        W25027  43.929  25.091  10.287
59768W        W25028  12.806  38.920  11.389
59769W        W25029  13.906   7.201   3.907
59770W        W25030  35.807  14.235  11.095
59771W        W25031  16.314  32.872  12.438
59772W        W25032  40.724  21.723   3.026
59773W        W25033   0.463  21.350  14.788
59774W        W25034  25.123  23.958  11.649
59775W        W25035  20.859   7.577   0.385
59776W        W25036  23.628  18.581  13.456
59777W        W25037  43.913  33.646   3.657
59778W        W25038  13.355  43.135  13.083
59779W        W25039  42.830  39.360  13.991
59780W        W25040   4.782  40.911   0.671
59781W        W25041  15.832  22.942  14.287
59782W        W25042  43.730  22.777   4.569
59783W        W25043   3.232  10.298   1.737
59784W        W25044  33.479  24.633   2.713
59785W        W25045  22.837  26.800  11.694
59786W        W25046  32.452  28.903   1.913
59787W        W25047   2.836  44.720   3.206
59788W        W25048  25.550  40.896   1.847
59789W        W25049  40.382   4.497   2.282
59790W        W25050  34.040   5.267   4.588
59791W        W25051   0.264   7.618   4.352
59792W        W25052  18.140  35.816   0.335
59793W        W25053   0.967  30.210  12.466
59794W        W25054  12.373  27.182   5.180
59795W        W25055  16.534  22.774   0.918
59796W        W25056  28.978  37.918  13.155
59797W        W25057   0.183  35.642  13.554
59798W        W25058  21.954  39.408   2.072
59799W        W25059   8.494  22.979  11.930
59800W        W25060  21.377  35.536  12.412
59801W        W25061  43.952  19.624   2.605
59802W        W25062   4.488  27.142   2.672
59803W        W25063   6.363  25.498   4.174
59804W        W25064   0.012  28.158  14.274
59805W        W25065  17.093  37.194  12.945
59806W        W25066  34.876  25.447  14.440
59807W        W25067  24.997  24.045   5.049
59808W        W25068  15.898  39.480  12.968
59809W        W25069  40.467  10.948  14.866
59810W        W25070  31.090  25.572   1.756
59811W        W25071  20.744   5.375  10.816
59812W        W25072  22.826  22.622  14.755
59813W        W25073   0.154  30.689  11.973
59814W        W25074  11.846  22.297   1.766
59815W        W25075  43.471  18.307   0.959
59816W        W25076  41.946  24.077   3.212
59817W        W25077  10.740  20.954   3.571
59818W        W25078  21.753  11.313  11.994
59819W        W25079  17.527  14.347  14.413
59820W        W25080  37.937   2.725   1.128
59821W        W25081  19.662   6.645  14.976
59822W        W25082   7.900  39.435  10.725
59823W        W25083  35.759  14.521   2.638
59824W        W25084   3.724  32.020   4.105
59825W        W25085  27.244   2.250  12.288
59826W        W25086   3.533  14.334   4.145
59827W        W25087  12.869   2.703  12.615
59828W        W25088  17.028  40.015  10.657
59829W        W25089  27.105  36.021   3.552
59830W        W25090  39.888  34.979  11.924
59831W        W25091  38.426  42.242   2.202
59832W        W25092   0.348  30.674  13.479
59833W        W25093  40.373   7.044   1.713
59834W        W25094  41.273  21.304  13.889
59835W        W25095   7.263  19.582  11.101
59836W        W25096  39.594  38.718  14.091
59837W        W25097  37.702  38.039  14.789
59838W        W25098  27.631   1.701   0.100
59839W        W25099  38.421  13.205  14.985
59840W        W25100  10.061  13.673   3.346
59841W        W25101   3.851  27.763  13.032
59842W        W25102   6.326   7.359  14.355
59843W        W25103  33.947  10.731   3.297
59844W        W25104  35.610  16.779   1.564
59845W        W25105  21.148  31.611   2.667
59846W        W25106  40.907   1.759   4.561
59847W        W25107   2.011  16.838  14.816
59848W        W25108  28.936  21.726  13.641
59849W        W25109  26.997  18.487   0.350
59850W        W25110   3.402  37.240  11.196
59851W        W25111   8.189  26.118   2.735
59852W        W25112   7.821   2.469   1.652
59853W        W25113  34.318  37.057  14.247
59854W        W25114  22.992  29.417   1.692
59855W        W25115  36.943  43.018   3.560
59856W        W25116  41.245  32.711  11.168
59857W        W25117  25.721  14.692   1.406
59858W        W25118  35.590  34.034   1.194
59859W        W25119  40.551   4.777  10.793
59860W        W25120   4.852  43.397  14.861
59861W        W25121  31.951  22.377  14.776
59862W        W25122  10.110  31.589  13.865
59863W        W25123  28.123  41.253  12.631
59864W        W25124   4.195  22.040  10.739
59865W        W25125  10.835  25.195  13.372
59866W        W25126  22.261  37.124  12.450
59867W        W25127   9.337   1.682  11.569
59868W        W25128   0.302  25.219   0.317
59869W        W25129  22.396  18.084   1.331
59870W        W25130  26.639  21.030  13.452
59871W        W25131   8.216  15.667   0.496
59872W        W25132  44.247  11.235  12.876
59873W        W25133  13.190   3.429  11.620
59874W        W25134  13.036  14.059  14.450
59875W        W25135  10.357  12.277   3.877
59876W        W25136  32.464   7.392  14.989
59877W        W25137  23.821  38.683  12.409
59878W        W25138  38.456  29.903  13.330
59879W        W25139   7.391  12.888   2.208
59880W        W25140  15.130  25.572  14.304
59881W        W25141   6.326   1.769  10.695
59882W        W25142  26.525  15.085   0.436
59883W        W25143  12.615  29.071  11.767
59884W        W25144  17.566   1.232  11.869
59885W        W25145  17.103   7.681   2.726
59886W        W25146   1.693   9.558   3.185
59887W        W25147  32.564  21.759  13.708
59888W        W25148   5.000  23.338   9.857
59889W        W25149  34.077  25.668   0.337
59890W        W25150  12.152  30.483  12.949
59891W        W25151   7.249   4.623  14.271
59892W        W25152  40.045   0.392   0.943
59893W        W25153  14.787   2.330  11.576
59894W        W25154  36.844  12.807   0.703
59895W        W25155  40.271  13.204  13.885
59896W        W25156  39.051  11.728   2.257
59897W        W25157  11.628  35.437  14.907
59898W        W25158  35.502  31.915   3.247
59899W        W25159   2.788  16.009   1.890
59900W        W25160  33.082  40.414  13.855
59901W        W25161  19.789  31.051  11.407
59902W        W25162  15.703   6.154   3.159
59903W        W25163  41.480  41.689  14.211
59904W        W25164   6.919   8.211  12.925
59905W        W25165   3.936  21.101   3.525
59906W        W25166  18.616  16.639   1.739
59907W        W25167  22.412  24.767   2.621
59908W        W25168   2.349   2.939  10.843
59909W        W25169   1.203   2.314  13.339
59910W        W25170  26.132  37.537  14.544
59911W        W25171  16.574  22.044   0.903
59912W        W25172  33.949   2.748   0.256
59913W        W25173   2.206  10.101   4.594
59914W        W25174   8.705   1.530  12.597
59915W        W25175  25.465  29.980  10.772
59916W        W25176  28.412  13.425  14.468
59917W        W25177  13.117  17.949  12.962
59918W        W25178  44.443  32.840  14.769
59919W        W25179   1.917  36.363  13.391
59920W        W25180  29.983  12.276  13.693
59921W        W25181  16.598   4.491  14.516
59922W        W25182  16.681  28.454  11.530
59923W        W25183  24.734  32.830   0.762
59924W        W25184  30.108  13.145  14.920
59925W        W25185  12.085  37.878  14.071
59926W        W25186  15.032   5.972   4.122
59927W        W25187  40.745  30.913   4.605
59928W        W25188  26.047  43.832  14.934
59929W        W25189   0.746  39.260   1.774
59930W        W25190  23.631  34.557  10.500
59931W        W25191  37.207   0.730  12.571
59932W        W25192  42.614   8.998   1.383
59933W        W25193  15.230  35.395   3.783
59934W        W25194   3.242   5.414  12.123
59935W        W25195   3.371   2.353   5.072
59936W        W25196  10.857   4.571   5.032
59937W        W25197   9.411  11.545   2.470
59938W        W25198  19.123  30.799  12.142
59939W        W25199  15.572  22.718   2.744
59940W        W25200   9.457  43.127  12.451
59941W        W25201  41.439  40.301  11.827
59942W        W25202   4.444   0.925   0.351
59943W        W25203  27.571  20.778   1.915
59944W        W25204  33.954  11.909   3.879
59945W        W25205  18.187  21.086  14.826
59946W        W25206  25.523  14.598   4.279
59947W        W25207   1.026  10.950   3.066
59948W        W25208  38.503  38.439   2.432
59949W        W25209  10.553   1.221  11.164
59950W        W25210  25.607  10.693  13.026
59951W        W25211  23.804   1.470   3.237
59952W        W25212  27.091  37.879  13.313
59953W        W25213  22.572  35.926  14.443
59954W        W25214  13.891   0.428  10.715
59955W        W25215  15.635  40.304   3.638
59956W        W25216  40.961  31.590   1.532
59957W        W25217   4.037  34.354   3.701
59958W        W25218  40.782  37.065   4.178
59959W        W25219  25.252  33.573  13.310
59960W        W25220  39.932  18.678   0.418
59961W        W25221  37.363  12.819   4.583
59962W        W25222  39.987   8.697   0.045
59963W        W25223   4.329  44.993  11.699
59964W        W25224  26.888  33.098   3.197
59965W        W25225  19.747  44.931  12.475
59966W        W25226  41.640  37.173  12.856
59967W        W25227  11.168  29.184   1.217
59968W        W25228  41.576  39.871   1.287
59969W        W25229  12.807  44.285  14.840
59970W        W25230  13.029  19.572   0.955
59971W        W25231   2.350  42.244   1.828
59972W        W25232  31.504  27.093  14.157
59973W        W25233   8.893  15.898  11.695
59974W        W25234  40.501  14.097   0.752
59975W        W25235  25.636  19.244   2.838
59976W        W25236  33.103  29.120  14.884
59977W        W25237   4.151  29.894  14.455
59978W        W25238   2.309  36.034   3.557
59979W        W25239   6.719  15.787   3.162
59980W        W25240  21.834  27.062   4.552
59981W        W25241  36.567  14.088   3.319
59982W        W25242  13.216  22.497  14.882
59983W        W25243  33.066  37.274   2.865
59984W        W25244  41.530   5.657   4.849
59985W        W25245   5.852  26.683   1.783
59986W        W25246  16.787  24.932  14.253
59987W        W25247  10.778  22.143  14.557
59988W        W25248   6.018  42.438   2.321
59989W        W25249  22.185   6.423   4.024
59990W        W25250   6.781  23.092   2.668
59991W        W25251  28.457   8.893  12.663
59992W        W25252   8.834  23.169   2.857
59993W        W25253   1.377   0.825   3.100
59994W        W25254  31.655  28.016  12.469
59995W        W25255  15.199  37.626  14.460
59996W        W25256  17.591  43.871  13.950
59997W        W25257  19.618   5.980   1.271
59998W        W25258   1.732  23.679  13.664
59999W        W25259  24.176  14.765   3.059
60000W        W25260  21.242  44.511  13.106
60001W        W25261  14.607   1.688   0.288
60002W        W25262  12.136  33.756  14.173
60003W        W25263  41.122  44.520  14.908
60004W        W25264  35.392  39.343   2.255
60005W        W25265  16.189  44.058  10.920
60006W        W25266  10.742  40.105  12.575
60007W        W25267  43.273  38.931  13.417
60008W        W25268  26.517  28.664  12.821
60009W        W25269  27.517  37.992   2.469
60010W        W25270  20.762   0.177   2.401
60011W        W25271  26.148  30.899   2.584
60012W        W25272   8.817  41.239   0.536
60013W        W25273   1.503  25.616   2.740
60014W        W25274  11.782  42.759  10.577
60015W        W25275  43.329  41.944  13.946
60016W        W25276  10.716  15.019   4.644
60017W        W25277   6.704  30.307   4.762
60018W        W25278  16.206   2.478   1.438
60019W        W25279  12.715   9.458  11.025
60020W        W25280  27.164  42.447   1.990
60021W        W25281  14.387  35.521  14.880
60022W        W25282  10.727  21.603   0.432
60023W        W25283  14.858  13.557   4.564
60024W        W25284  24.760   4.164  11.813
60025W        W25285   9.302  17.733   2.245
60026W        W25286  19.894  17.619   4.004
60027W        W25287   5.317   7.676  12.860
60028W        W25288  28.066  18.491   4.377
60029W        W25289  44.978  36.749   4.556
60030W        W25290  13.221  14.869   2.889
60031W        W25291  35.129  27.548   3.843
60032W        W25292  44.797  12.282   2.219
60033W        W25293   4.735  12.207  12.844
60034W        W25294  11.769   6.920   3.381
60035W        W25295   5.825   3.849  11.457
60036W        W25296  17.693  20.455   0.829
60037W        W25297  27.554  27.940   2.768
60038W        W25298   1.364  32.405   4.222
60039W        W25299   0.488  22.968   4.137
60040W        W25300   8.400  24.667   4.106
60041W        W25301  32.496  15.099   2.156
60042W        W25302   5.165  39.784  10.713
60043W        W25303  23.536  34.755  10.967
60044W        W25304  36.606  13.125  14.876
60045W        W25305   4.472  35.799  12.131
60046W        W25306  30.623  27.113   0.386
60047W        W25307  20.148  12.914  11.075
60048W        W25308  39.039  16.252  13.474
60049W        W25309  14.355  19.023   0.895
60050W        W25310  38.448  36.566   2.770
60051W        W25311   8.303  10.196   4.982
60052W        W25312   0.361  25.011  12.393
60053W        W25313  15.657  34.293  12.926
60054W        W25314   2.240  34.078   2.674
60055W        W25315   3.254   3.452  14.062
60056W        W25316   6.035  11.064   0.900
60057W        W25317  33.499  23.348  10.807
60058W        W25318   1.949  12.217   3.982
60059W        W25319  33.452   8.772  11.129
60060W        W25320  39.381  26.151  13.097
60061W        W25321  18.087  22.298   4.511
60062W        W25322  32.978  14.533  14.000
60063W        W25323  20.037  22.155  14.060
60064W        W25324   9.012  22.612   3.613
60065W        W25325   4.953  35.496  12.566
60066W        W25326   4.026  18.361   5.161
60067W        W25327  16.582  26.521   3.734
60068W        W25328  33.309  14.279   3.291
60069W        W25329  18.606  13.871   2.158
60070W        W25330   9.935  11.121   5.018
60071W        W25331  25.091  15.388  12.925
60072W        W25332  14.729  18.270  14.859
60073W        W25333   9.179   5.186   4.503
60074W        W25334   3.523  34.846   3.148
60075W        W25335  42.231  43.925  14.298
60076W        W25336  37.542  24.216  14.129
60077W        W25337  13.567  26.501  10.602
60078W        W25338  24.370  20.336   0.897
60079W        W25339  36.079  44.739   5.234
60080W        W25340  19.613  24.340  13.192
60081W        W25341  39.610  34.561   4.558
60082W        W25342   3.497  37.510  14.448
60083W        W25343  18.056  25.216   4.205
60084W        W25344  13.299   0.884   1.595
60085W        W25345   1.871  17.039  12.154
60086W        W25346  14.679   4.131  10.768
60087W        W25347  41.437   0.937   0.847
60088W        W25348  24.064  35.345  14.946
60089W        W25349   2.025  43.791   1.394
60090W        W25350  23.886   3.894  11.582
60091W        W25351  40.511  40.435  12.685
60092W        W25352  12.905   1.644  10.772
60093W        W25353  18.761  24.284   2.562
60094W        W25354  22.132  37.810   3.711
60095W        W25355  18.639   5.471  13.120
60096W        W25356   9.595  33.678  10.685
60097W        W25357  15.616  24.261  12.013
60098W        W25358  29.863  25.731   2.051
60099W        W25359  15.059   6.445  14.016
60100W        W25360   7.342  28.729  14.160
60101W        W25361  21.244  18.202  12.741
60102W        W25362   8.503  25.574   9.961
60103W        W25363  25.706  43.394   4.898
60104W        W25364   5.888  25.527  13.715
60105W        W25365  18.664  41.529   2.631
60106W        W25366  23.809  30.556  10.471
60107W        W25367  35.982  18.747   3.166
60108W        W25368  37.362  37.852   4.493
60109W        W25369   7.366  33.153  14.717
60110W        W25370  20.612  38.375   0.935
60111W        W25371  17.053  15.424   2.302
60112W        W25372   2.255  12.318  13.403
60113W        W25373  25.228  16.060   1.832
60114W        W25374  43.271  15.285  13.450
60115W        W25375  19.624   8.808   1.751
60116W        W25376  22.014  25.775  13.341
60117W        W25377  34.581   1.230  11.598
60118W        W25378  33.363  29.889  11.622
60119W        W25379  15.093  36.160  12.970
60120W        W25380  18.324  13.796   3.105
60121W        W25381  23.821  24.933  14.136
60122W        W25382  20.801  35.103  12.939
60123W        W25383  34.655  13.338   3.633
60124W        W25384  18.654   3.895  13.334
60125W        W25385   5.788   2.720  13.489
60126W        W25386  33.451  42.445   5.000
60127W        W25387  27.532  12.768   3.368
60128W        W25388  18.725  25.995  14.930
60129W        W25389  43.935  14.897   3.195
60130W        W25390  12.413  12.354   3.547
60131W        W25391  29.045  32.961  12.418
60132W        W25392  22.063   6.686  12.347
60133W        W25393  31.007  12.314   4.612
60134W        W25394  26.213  17.050   4.195
60135W        W25395   8.665  13.306  12.008
60136W        W25396   1.011  20.212   3.324
60137W        W25397  20.670  40.635   4.248
60138W        W25398   1.302  33.052  13.917
60139W        W25399  32.618  40.512  12.020
60140W        W25400   2.870  41.655   1.412
60141W        W25401  37.271  32.573   4.763
60142W        W25402  30.949  14.543   2.223
60143W        W25403   0.727  18.075  13.008
60144W        W25404  38.339  40.155   0.765
60145W        W25405   4.972  22.701  10.677
60146W        W25406   1.153  23.083  13.400
60147W        W25407   9.218  11.091   3.854
60148W        W25408   4.798  34.479   0.005
60149W        W25409  38.809  40.741  11.862
60150W        W25410  36.858   0.153  10.765
60151W        W25411  28.268   6.066  13.029
60152W        W25412  21.108  30.517   2.111
60153W        W25413  24.169  29.778  12.010
60154W        W25414  32.401  15.301   4.316
60155W        W25415  12.388  23.880  12.120
60156W        W25416  10.774  16.408  14.597
60157W        W25417   8.517   4.588   0.861
60158W        W25418  30.975   0.248   3.213
60159W        W25419  13.757  35.416  14.032
60160W        W25420  36.263   3.265   4.121
60161W        W25421   2.640  29.783  14.591
60162W        W25422  44.075   3.038  12.106
60163W        W25423  18.894  29.894  13.774
60164W        W25424  24.210  34.347   1.454
60165W        W25425  12.615  31.020  13.536
60166W        W25426  12.610  24.485   0.309
60167W        W25427   7.564   8.022   0.889
60168W        W25428  44.054  37.557  11.754
60169W        W25429  16.848  21.033   0.855
60170W        W25430   4.084   0.944   2.781
60171W        W25431  18.893  31.854   2.892
60172W        W25432  23.214  38.010   4.890
60173W        W25433   2.732  24.626   1.198
60174W        W25434   9.860  29.831   4.015
60175W        W25435  16.758  37.545  14.923
60176W        W25436  33.445  10.425   0.943
60177W        W25437   8.775   3.921  13.748
60178W        W25438  23.669  35.980  11.406
60179W        W25439   7.877  20.194  13.996
60180W        W25440  10.132   3.734   1.389
60181W        W25441  14.170   0.283  13.433
60182W        W25442   4.510   4.826  13.177
60183W        W25443  14.227  36.654  13.020
60184W        W25444   7.925  26.650   3.541
60185W        W25445  39.381  16.623  12.785
60186W        W25446  29.751   6.392   3.820
60187W        W25447  32.129   8.335  14.894
60188W        W25448  40.427  20.224  12.042
60189W        W25449  38.102  20.067  12.116
60190W        W25450   8.446  25.658   2.751
60191W        W25451  25.839   1.401  13.856
60192W        W25452  37.700   0.208  14.700
60193W        W25453  44.631   1.891   0.441
60194W        W25454  21.960  43.404   4.122
60195W        W25455  28.832  18.407  11.246
60196W        W25456  24.167  12.371   3.784
60197W        W25457  29.454  28.457  13.415
60198W        W25458  16.708  42.845  11.635
60199W        W25459  40.281  23.674   0.922
60200W        W25460  20.016  12.810   1.954
60201W        W25461  25.408  12.196  10.809
60202W        W25462  16.386  16.313   2.260
60203W        W25463  34.986  34.853   2.624
60204W        W25464   1.872  29.548  11.395
60205W        W25465  30.148  20.710  14.095
60206W        W25466  31.777  30.437  12.519
60207W        W25467   6.303  14.920   4.775
60208W        W25468  14.725  29.978   4.884
60209W        W25469  16.744   5.887   1.363
60210W        W25470  15.572  30.370  11.944
60211W        W25471  13.162  12.720   1.790
60212W        W25472   5.222  40.018   0.457
60213W        W25473  15.721  41.348   3.365
60214W        W25474  19.490  17.153  12.085
60215W        W25475   9.338   5.185  10.101
60216W        W25476  33.017  38.332   2.910
60217W        W25477  25.447  23.251  11.736
60218W        W25478   1.442  33.013   2.455
60219W        W25479  23.754  30.995  11.227
60220W        W25480  18.681   7.748  12.836
60221W        W25481  38.241  20.719   3.661
60222W        W25482   5.905  37.308   3.689
60223W        W25483  44.882   2.315  14.569
60224W        W25484  12.131  42.880  11.155
60225W        W25485  21.163   2.822  13.595
60226W        W25486  27.387  25.154  12.123
60227W        W25487  38.018  33.451   3.651
60228W        W25488  33.952   2.004  13.457
60229W        W25489  44.598  16.801  11.218
60230W        W25490  44.787   5.421  11.170
60231W        W25491  36.428   4.516   4.130
60232W        W25492  33.804   4.784   4.624
60233W        W25493  27.429   4.838   0.305
60234W        W25494   2.865  33.018  13.167
60235W        W25495  36.010   4.864   4.054
60236W        W25496  40.637  22.659  13.442
60237W        W25497   9.700  26.893   3.562
60238W        W25498  34.662  37.764   0.638
60239W        W25499  36.775  29.886  11.664
60240W        W25500  39.486  10.343   3.796
60241W        W25501  13.323  21.673   3.181
60242W        W25502  19.195  18.329   4.305
60243W        W25503   6.194   6.180  10.693
60244W        W25504  13.741  25.321   1.182
60245W        W25505  39.331  14.323   3.758
60246W        W25506   7.077  34.814   0.731
60247W        W25507  11.929   1.064   4.137
60248W        W25508  38.024  42.099  12.566
60249W        W25509   3.610   7.369   0.478
60250W        W25510   7.266  15.783   3.228
60251W        W25511  44.646   6.815   1.801
60252W        W25512  30.823  28.861  10.777
60253W        W25513  21.484  29.454  11.079
60254W        W25514  36.003  28.096   2.270
60255W        W25515  15.101  22.824   0.338
60256W        W25516  23.366   6.990   9.926
60257W        W25517   9.814  32.883   3.893
60258W        W25518  11.070   5.330  10.620
60259W        W25519  37.727  17.092  12.227
60260W        W25520  39.218  39.617  14.862
60261W        W25521  39.878   8.283  14.710
60262W        W25522  11.296  31.327   1.807
60263W        W25523   5.380  12.596   0.743
60264W        W25524   1.986  30.592   3.947
60265W        W25525  35.335  23.833   0.748
60266W        W25526  10.981  24.183  14.400
60267W        W25527  23.118  23.015  13.828
60268W        W25528  28.679   5.151  12.916
60269W        W25529  30.558  43.020  14.949
60270W        W25530  37.540   2.185   1.721
60271W        W25531   3.638  11.925   3.694
60272W        W25532  27.446  43.940  14.033
60273W        W25533   1.008  24.015   4.973
60274W        W25534  23.690  39.141  14.626
60275W        W25535  36.095  16.837   3.425
60276W        W25536  40.890  35.375  13.191
60277W        W25537  30.502  31.161   1.896
60278W        W25538  32.595  36.118   4.717
60279W        W25539  18.163  43.042  13.462
60280W        W25540   9.647  30.631  11.106
60281W        W25541  29.665  20.541  10.735
60282W        W25542  40.921   1.974   1.058
60283W        W25543  44.533  42.516  12.440
60284W        W25544  41.907  22.115  10.764
60285W        W25545  16.157  44.435  13.888
60286W        W25546   7.880  31.547   3.167
60287W        W25547   3.448  30.854   0.389
60288W        W25548  38.692  33.348   4.123
60289W        W25549   8.337  28.184  11.735
60290W        W25550   1.843  19.728  12.096
60291W        W25551  35.312  14.164   0.413
60292W        W25552  22.508  11.778  10.344
60293W        W25553  25.399   3.775   2.363
60294W        W25554  21.897  38.920  12.400
60295W        W25555  27.699   3.986  10.511
60296W        W25556   5.902  18.440   3.970
60297W        W25557   3.780  40.353  14.934
60298W        W25558  28.671  13.025  13.553
60299W        W25559  24.624  40.786   0.459
60300W        W25560  23.500  20.988  14.426
60301W        W25561  27.346  42.592  11.533
60302W        W25562  18.613  21.724   5.397
60303W        W25563  29.559  10.245   2.220
60304W        W25564  17.225  18.822  14.412
60305W        W25565  31.398  32.947   0.219
60306W        W25566   4.886   8.577   3.244
60307W        W25567  22.599   0.307  13.758
60308W        W25568  41.967  32.522  10.605
60309W        W25569  12.692  31.067   2.775
60310W        W25570  18.762  33.326   3.364
60311W        W25571  33.172  21.622   2.159
60312W        W25572   4.890  34.377   4.173
60313W        W25573   6.177  16.394   0.883
60314W        W25574  38.100  28.192  12.077
60315W        W25575  21.741  20.811   4.367
60316W        W25576  31.912  34.040   0.737
60317W        W25577  11.895  31.106  14.693
60318W        W25578  12.098   5.327  10.573
60319W        W25579  42.562  22.657  10.607
60320W        W25580  20.296  34.412  13.146
60321W        W25581   6.877  32.953  14.576
60322W        W25582   4.406  19.186  13.453
60323W        W25583  14.721  22.665  13.354
60324W        W25584  32.282  25.155  12.543
60325W        W25585  11.161  12.805   2.323
60326W        W25586  36.340  22.027   0.806
60327W        W25587  43.550  22.215   2.257
60328W        W25588  36.539  15.868   4.559
60329W        W25589  42.768  36.819  13.967
60330W        W25590  31.461  44.395   3.260
60331W        W25591  21.700  15.289   1.672
60332W        W25592  37.843  35.277  10.405
60333W        W25593  35.103  25.061   0.301
60334W        W25594  33.440  20.751   1.729
60335W        W25595  37.553  13.037   4.147
60336W        W25596  30.717  17.538  14.978
60337W        W25597  44.785  14.338  11.223
60338W        W25598  13.301  41.553   1.363
60339W        W25599  21.474   9.187  11.950
60340W        W25600  31.835  24.929  12.721
60341W        W25601  20.684  40.837   0.301
60342W        W25602  44.756   7.658   0.742
60343W        W25603   8.863  36.643  11.691
60344W        W25604   5.831  39.341   2.254
60345W        W25605  21.697  14.317  14.366
60346W        W25606  20.146  33.015  10.470
60347W        W25607  19.730  27.236  14.528
60348W        W25608  28.625  26.073   2.290
60349W        W25609  11.619  39.875   0.883
60350W        W25610  11.797  41.785   4.399
60351W        W25611  19.123  41.297  14.493
60352W        W25612  43.422  16.045   4.639
60353W        W25613  38.904  12.840  11.595
60354W        W25614  41.983  21.756   2.720
60355W        W25615  15.263  10.760  10.637
60356W        W25616  26.124  23.572  13.951
60357W        W25617  32.165   4.889   0.393
60358W        W25618  19.282   3.705   4.542
60359W        W25619  23.599  36.457  11.171
60360W        W25620   3.977  32.309   2.359
60361W        W25621  18.142  19.933  11.991
60362W        W25622   6.029  28.743   1.502
60363W        W25623  33.989  28.578   2.980
60364W        W25624  41.459   5.141  12.435
60365W        W25625  28.501   2.735  10.746
60366W        W25626  11.282  38.505   4.339
60367W        W25627  21.074   3.444  12.226
60368W        W25628   6.415  28.725  10.860
60369W        W25629   3.455  17.109   0.877
60370W        W25630   2.484  37.452  12.495
60371W        W25631   4.139  43.828   1.937
60372W        W25632  23.545   9.956  11.054
60373W        W25633   1.474  35.058  12.092
60374W        W25634  15.154  39.329  14.783
60375W        W25635  17.143  36.886  13.820
60376W        W25636  31.526   7.202   2.178
60377W        W25637  20.595   8.753   5.079
60378W        W25638  43.908  22.539  12.321
60379W        W25639  28.985   8.179  11.217
60380W        W25640  26.524  17.969   3.075
60381W        W25641  27.299  26.957  12.122
60382W        W25642  22.925  26.081   0.345
60383W        W25643  15.803  41.433   4.952
60384W        W25644   1.581  24.136   1.655
60385W        W25645  33.193  43.317   2.753
60386W        W25646  12.015  40.472  13.069
60387W        W25647  27.280   0.283   0.514
60388W        W25648  40.577   1.236   2.782
60389W        W25649  32.954  42.368  10.693
60390W        W25650  32.453  43.906   4.390
60391W        W25651  20.019  34.835  11.485
60392W        W25652  26.424  40.379   4.928
60393W        W25653  36.532  17.610  12.606
60394W        W25654   3.239   3.857  13.673
60395W        W25655  43.538   6.829   4.179
60396W        W25656  38.585  24.713   4.303
60397W        W25657  26.988   5.826  14.868
60398W        W25658  24.747  11.199   2.929
60399W        W25659   3.819  10.672  11.118
60400W        W25660   4.402  16.802   3.801
60401W        W25661  33.370  31.700   2.823
60402W        W25662  21.424  39.194  11.107
60403W        W25663   4.096  31.373   0.842
60404W        W25664   1.825  27.907  10.671
60405W        W25665  33.154  36.600   0.233
60406W        W25666  40.649  18.321   3.197
60407W        W25667   1.348  41.746  11.554
60408W        W25668  30.011   9.844  12.326
60409W        W25669  40.920  38.097   2.400
60410W        W25670  12.240  14.873  12.918
60411W        W25671  16.005  13.917   1.069
60412W        W25672  13.132  41.772   0.941
60413W        W25673   4.859  29.873   1.662
60414W        W25674   7.561  31.122  12.939
60415W        W25675   5.889  28.390  12.088
60416W        W25676  29.849  29.953   0.291
60417W        W25677   8.658  42.250   3.827
60418W        W25678  34.998  25.140   3.622
60419W        W25679   0.737  43.266   1.441
60420W        W25680  34.440   7.953  13.068
60421W        W25681  40.430  22.467   4.530
60422W        W25682  24.931  20.497   2.638
60423W        W25683  28.148  36.436  12.217
60424W        W25684  43.090   1.987   4.153
60425W        W25685   4.813  29.965   0.260
60426W        W25686  32.563  39.172   1.548
60427W        W25687   3.880  11.444   3.648
60428W        W25688  24.422   7.081   4.573
60429W        W25689  42.676  26.057  14.440
60430W        W25690  36.010   2.847   0.377
60431W        W25691  18.779  44.561  14.225
60432W        W25692  12.264  38.590   3.315
60433W        W25693  22.953  26.585  14.754
60434W        W25694  32.568   3.303   4.533
60435W        W25695  15.399  18.166  14.400
60436W        W25696  36.374  18.482  13.566
60437W        W25697  18.376   8.312  10.535
60438W        W25698   7.866  19.877  12.778
60439W        W25699   5.742  40.270   3.847
60440W        W25700  28.416   4.398   3.648
60441W        W25701  26.494  22.080   1.684
60442W        W25702  23.422  38.242  13.001
60443W        W25703   4.958  14.119   0.042
60444W        W25704  27.445  27.023   3.692
60445W        W25705  21.111  39.590  11.088
60446W        W25706  31.209   5.294   4.250
60447W        W25707  18.697  29.096   4.731
60448W        W25708  29.981  20.723  13.600
60449W        W25709  37.394  18.719   2.665
60450W        W25710  40.996   2.133  10.163
60451W        W25711  43.052  12.499   1.806
60452W        W25712   0.312  29.601   2.245
60453W        W25713  40.383  41.745   3.666
60454W        W25714  13.468  18.030  14.269
60455W        W25715  34.299  42.916   1.115
60456W        W25716  34.447  15.970  11.534
60457W        W25717   8.672  37.559   3.866
60458W        W25718  26.190  25.622   3.643
60459W        W25719   8.800  44.488   4.484
60460W        W25720   3.032   8.753   4.178
60461W        W25721  44.419  20.245  14.158
60462W        W25722  21.596  28.655  12.876
60463W        W25723   1.923  32.658  12.884
60464W        W25724  42.281  26.674  11.079
60465W        W25725  31.619   6.792   1.366
60466W        W25726  43.514  14.531   3.843
60467W        W25727  27.472  31.494   2.654
60468W        W25728  30.124   1.541   4.703
60469W        W25729  44.918   7.182   0.859
60470W        W25730  13.094  43.387   4.864
60471W        W25731  10.593   8.471  11.983
60472W        W25732  17.642  21.196  12.715
60473W        W25733   0.861   1.390  11.676
60474W        W25734  23.285  23.314  13.440
60475W        W25735  43.462  18.103   2.718
60476W        W25736  31.446   6.786   1.874
60477W        W25737   5.219   0.293   1.920
60478W        W25738  15.631  20.182  14.470
60479W        W25739   4.909  11.994  10.397
60480W        W25740  12.782  26.216  12.078
60481W        W25741  39.433  33.476   1.310
60482W        W25742  12.698  30.942  12.336
60483W        W25743   0.089  29.503  11.461
60484W        W25744  29.134  19.529  12.084
60485W        W25745   5.011  10.291   2.723
60486W        W25746  27.986   5.959   2.781
60487W        W25747  17.838  44.877  12.851
60488W        W25748  38.797  42.703   4.212
60489W        W25749   9.712  35.158   0.783
60490W        W25750  37.724  43.667  13.081
60491W        W25751  34.644   2.835  12.876
60492W        W25752  13.738  21.079   3.780
60493W        W25753  17.494  17.135  11.055
60494W        W25754  31.672  30.138  12.975
60495W        W25755  11.676  36.666   0.319
60496W        W25756  33.995   1.871   4.269
60497W        W25757  13.358   3.925  11.523
60498W        W25758   7.994   2.246   0.656
60499W        W25759   1.799  35.993  14.818
60500W        W25760  35.572   1.033  13.994
60501W        W25761  35.192  37.462   1.260
60502W        W25762  26.128   8.966   2.272
60503W        W25763  18.149  25.718  10.544
60504W        W25764  43.748   4.351   1.001
60505W        W25765  33.563  36.509   4.586
60506W        W25766  23.424   3.674  12.060
60507W        W25767  31.632  17.588  13.486
60508W        W25768  42.562  21.577   1.392
60509W        W25769  44.409   8.470   3.751
60510W        W25770  27.598   6.257   0.681
60511W        W25771  13.065  33.169   0.917
60512W        W25772  24.154  35.483  14.005
60513W        W25773  27.429  10.353  12.044
60514W        W25774  40.930  37.141  12.512
60515W        W25775   8.153  30.580   2.072
60516W        W25776   6.908  44.846   0.731
60517W        W25777  34.705  38.996  14.859
60518W        W25778  12.223  28.984  11.047
60519W        W25779  20.177  40.018   1.914
60520W        W25780  14.655   9.398   2.628
60521W        W25781  11.588  10.209  14.777
60522W        W25782   2.763  11.877  12.586
60523W        W25783   9.114  31.180   4.614
60524W        W25784  19.353  41.830  12.551
60525W        W25785  31.521  37.707   0.272
60526W        W25786   6.051  26.098  12.498
60527W        W25787  26.519  40.607   0.953
60528W        W25788  44.177   1.891   1.306
60529W        W25789  13.867  19.871   4.052
60530W        W25790  22.227  26.147   4.636
60531W        W25791  37.598   0.613  12.985
60532W        W25792  13.189   1.976  11.600
60533W        W25793  38.076  26.443  13.127
60534W        W25794   6.029  26.060  11.574
60535W        W25795  36.563  34.081  14.731
60536W        W25796  25.235  12.374  13.903
60537W        W25797  43.653  37.162   1.484
60538W        W25798  33.417   3.903  13.956
60539W        W25799  21.495  29.424   4.426
60540W        W25800  42.244  43.871  13.290
60541W        W25801  33.956  23.253  12.135
60542W        W25802  14.246  23.170   1.435
60543W        W25803  18.105  23.167  13.847
60544W        W25804  32.636  38.883  11.511
60545W        W25805   4.356  18.571  11.617
60546W        W25806  25.032  12.195  13.439
60547W        W25807  10.977   3.343  12.161
60548W        W25808  35.888   1.354  12.393
60549W        W25809  27.967   7.610   4.795
60550W        W25810  34.410  34.753   0.557
60551W        W25811  37.863  25.015  12.571
60552W        W25812   3.405   9.364   2.770
60553W        W25813  22.005  42.048   1.849
60554W        W25814  22.559  15.538   2.642
60555W        W25815  32.375  42.390  13.018
60556W        W25816  40.967  27.042   0.852
60557W        W25817  33.496   7.177  12.675
60558W        W25818   9.330  30.466  13.734
60559W        W25819  36.353  37.810  12.619
60560W        W25820  18.531  42.312   4.909
60561W        W25821   1.687   7.231  12.870
60562W        W25822   1.379  35.508   3.468
60563W        W25823  42.180  44.470   1.759
60564W        W25824  26.196  25.557   2.793
60565W        W25825  44.089  30.214  12.428
60566W        W25826  15.499  21.092  10.681
60567W        W25827  33.450  22.705   4.073
60568W        W25828  23.631   8.697   2.778
60569W        W25829  23.033   4.521  14.212
60570W        W25830  11.025  33.162  12.465
60571W        W25831  30.939  23.660   3.866
60572W        W25832  18.064  13.108   3.285
60573W        W25833  10.223  29.757   2.099
60574W        W25834  12.243   1.825  14.018
60575W        W25835  17.172  43.867  14.464
60576W        W25836   2.742   6.437  14.634
60577W        W25837  13.837  26.563   2.203
60578W        W25838   0.175   0.043  10.656
60579W        W25839  18.540   7.257  12.687
60580W        W25840   5.406  25.914   2.797
60581W        W25841  23.244  17.296  12.907
60582W        W25842  19.447  41.812   1.673
60583W        W25843   5.663   0.047   1.887
60584W        W25844   8.348  12.598   1.288
60585W        W25845  29.644  24.577   2.256
60586W        W25846  37.436  33.213  10.558
60587W        W25847  44.217   5.398   0.060
60588W        W25848   2.250  38.049  11.359
60589W        W25849  23.899  38.839   0.477
60590W        W25850   8.796   2.325   4.704
60591W        W25851  23.794  32.133  10.680
60592W        W25852   6.352  13.405  12.162
60593W        W25853  11.293  26.009   2.745
60594W        W25854  33.748  29.698   0.261
60595W        W25855  32.490  16.092  12.589
60596W        W25856  11.147  29.089  11.648
60597W        W25857   9.895  32.480  11.026
60598W        W25858   1.337   1.878  12.815
60599W        W25859  28.496   0.944   4.225
60600W        W25860  20.116  21.940  11.470
60601W        W25861  38.062  15.352   3.006
60602W        W25862  41.394  31.634   3.866
60603W        W25863  30.161  34.313   0.560
60604W        W25864  11.307  40.077   1.851
60605W        W25865   7.431  36.534  13.612
60606W        W25866  31.988  41.082  10.943
60607W        W25867  18.756  25.903  14.143
60608W        W25868   7.292  20.200   2.303
60609W        W25869  19.524   4.812  11.924
60610W        W25870   0.975   1.019  13.829
60611W        W25871  37.465  44.148  10.952
60612W        W25872   2.176  20.206   2.378
60613W        W25873  23.640  39.490   3.743
60614W        W25874   9.795  11.906  13.393
60615W        W25875  42.734  13.384  14.045
60616W        W25876  19.502  30.485   3.510
60617W        W25877  17.197  43.005   3.361
60618W        W25878  28.651  32.497   1.728
60619W        W25879  31.696  23.856   5.392
60620W        W25880   5.451  15.558  13.816
60621W        W25881  42.026   2.613   0.519
60622W        W25882  21.608   6.472  12.524
60623W        W25883  29.026  23.645   0.464
60624W        W25884  39.754   5.837   1.377
60625W        W25885  17.497  28.710   4.538
60626W        W25886   6.435  36.348   3.589
60627W        W25887  15.109  35.344   2.881
60628W        W25888  43.903   9.504   1.984
60629W        W25889  30.849   6.304  11.392
60630W        W25890   9.750  23.063  14.768
60631W        W25891  42.279  25.526  13.826
60632W        W25892   9.235   1.272   1.704
60633W        W25893  21.528  16.728  10.276
60634W        W25894  39.390  19.548  10.525
60635W        W25895  20.063  31.469  12.534
60636W        W25896   4.217   3.445   2.696
60637W        W25897  44.959  18.586  13.520
60638W        W25898  39.907  16.525  14.530
60639W        W25899  41.070   0.796   1.308
60640W        W25900  31.595  26.184  12.583
60641W        W25901   6.157  35.638   3.304
60642W        W25902  12.630  44.886   1.924
60643W        W25903  39.997  41.852   1.348
60644W        W25904   8.853  38.105   1.863
60645W        W25905   5.521  30.013  11.686
60646W        W25906  13.026   8.247  13.846
60647W        W25907  44.830  25.075   9.877
60648W        W25908  15.831  43.566   4.473
60649W        W25909   6.166  25.178   3.794
60650W        W25910  26.768   6.293   2.238
60651W        W25911  34.002   9.947  12.015
60652W        W25912   5.492  39.871   2.691
60653W        W25913  31.157  13.760  10.719
60654W        W25914  19.189  31.376   0.469
60655W        W25915  42.460  26.630   3.641
60656W        W25916  23.417  30.417   3.235
60657W        W25917  29.066  31.077  13.767
60658W        W25918  16.225  28.114   1.385
60659W        W25919  16.051   2.749   2.246
60660W        W25920  34.845  10.631   4.598
60661W        W25921  16.279   8.730  12.013
60662W        W25922  19.088  37.090  11.206
60663W        W25923   8.473   8.825   0.327
60664W        W25924  11.309  15.739   0.804
60665W        W25925  21.490  40.480  11.912
60666W        W25926   4.774  28.090  11.014
60667W        W25927   0.377  42.914   2.148
60668W        W25928  38.886  16.655  14.141
60669W        W25929  34.321  11.123   4.080
60670W        W25930  20.648  37.279  12.281
60671W        W25931   1.443   0.315   1.356
60672W        W25932  12.629  37.719  14.832
60673W        W25933   0.190  16.562  13.246
60674W        W25934  21.635  31.419   2.660
60675W        W25935  43.838  37.984   4.656
60676W        W25936   2.891  19.931   3.692
60677W        W25937   8.484  35.055  12.351
60678W        W25938  37.011  15.495   2.429
60679W        W25939  17.974  19.184   2.413
60680W        W25940  39.869  37.189   5.111
60681W        W25941  14.551  17.905  11.455
60682W        W25942  28.912  21.506   2.788
60683W        W25943   8.082  35.908  13.409
60684W        W25944  30.138  39.983   4.693
60685W        W25945  29.613  30.448  14.412
60686W        W25946  39.805  44.962   3.411
60687W        W25947  28.538  42.491   0.073
60688W        W25948  26.214  27.782   3.650
60689W        W25949  22.158  17.839  10.029
60690W        W25950  10.554  30.467   9.891
60691W        W25951  20.622  11.057   1.313
60692W        W25952  22.204  10.411   1.191
60693W        W25953   0.736   7.410  12.053
60694W        W25954  33.899  30.624  14.747
60695W        W25955   6.810  29.394   9.965
60696W        W25956   3.860  13.090   2.809
60697W        W25957  34.511  22.761  10.692
60698W        W25958  33.109  37.445   4.188
60699W        W25959  39.382  35.784   3.014
60700W        W25960   2.001  22.053   2.215
60701W        W25961  19.831  40.081   4.105
60702W        W25962   8.921  12.885  13.790
60703W        W25963  43.311  28.042  13.677
60704W        W25964  35.385  36.674   4.191
60705W        W25965  11.422  37.555   1.916
60706W        W25966   8.061  27.253  10.580
60707W        W25967   5.282  14.378  13.162
60708W        W25968  18.608  11.764  12.437
60709W        W25969   7.062  14.152  11.040
60710W        W25970  36.389  18.601   1.758
60711W        W25971   6.989   8.338  14.754
60712W        W25972  25.623   0.854   4.174
60713W        W25973  21.246  43.740  11.058
60714W        W25974   7.583  11.067  13.362
60715W        W25975  30.461  23.505  12.081
60716W        W25976  34.168   4.917   1.012
60717W        W25977  33.014  37.088  13.816
60718W        W25978  43.384  29.524  12.693
60719W        W25979   2.754  17.845   2.216
60720W        W25980  30.273  10.828  10.349
60721W        W25981  36.292  16.262  13.861
60722W        W25982  14.576   3.489   0.027
60723W        W25983  11.892  20.781  11.441
60724W        W25984  29.326   5.015   4.184
60725W        W25985  39.760  38.429  13.037
60726W        W25986  27.577  14.635  10.996
60727W        W25987   8.440  15.589  11.097
60728W        W25988  42.923   3.891   3.201
60729W        W25989  26.031   5.766   4.567
60730W        W25990   5.320  14.364   4.099
60731W        W25991   2.310  39.759   1.080
60732W        W25992  16.732   2.528   0.769
60733W        W25993  13.510   1.159  11.479
60734W        W25994  43.812  18.963   2.252
60735W        W25995  11.274  38.750   3.118
60736W        W25996  11.162  23.481   0.400
60737W        W25997  29.420  18.745   1.361
60738W        W25998   5.309  32.478   0.223
60739W        W25999   9.833  44.220   4.098
60740W        W26000  38.042  43.564   2.280
60741W        W26001  24.067  33.831  11.039
60742W        W26002  27.266  12.859  13.389
60743W        W26003  44.186  23.108  13.491
60744W        W26004  33.543  24.691  14.815
60745W        W26005  38.526  16.112  11.457
60746W        W26006  42.355  36.622   4.308
60747W        W26007  40.826  41.091   3.865
60748W        W26008  30.433   9.583   3.999
60749W        W26009  15.771   9.414   1.285
60750W        W26010  36.479  15.144   1.573
60751W        W26011   6.314   5.359  10.378
60752W        W26012  32.835  24.696  14.229
60753W        W26013  15.233  21.770   0.262
60754W        W26014  16.837  35.628   3.286
60755W        W26015   5.380  35.827   1.807
60756W        W26016   6.197  21.645   3.127
60757W        W26017  38.853   6.127  12.116
60758W        W26018  40.833  39.333  13.053
60759W        W26019  38.179  26.499   1.853
60760W        W26020  39.796  31.017  12.036
60761W        W26021  30.404  21.931   1.746
60762W        W26022  37.593  39.477  11.872
60763W        W26023  44.489  19.644  12.723
60764W        W26024  19.477   0.830   0.783
60765W        W26025  33.126  30.071   4.093
60766W        W26026  25.066   9.227  14.280
60767W        W26027   8.953  12.172  10.568
60768W        W26028   0.684  21.852   2.424
60769W        W26029  37.785  13.804  14.975
60770W        W26030  33.471  34.024  10.400
60771W        W26031  11.207  34.512   2.266
60772W        W26032  32.436  19.738  11.233
60773W        W26033  40.066  10.840   1.744
60774W        W26034  42.467  12.745  14.695
60775W        W26035   5.797  22.539   2.293
60776W        W26036  23.223  19.518  11.838
60777W        W26037  43.996  43.366   2.217
60778W        W26038  20.929  39.338   2.744
60779W        W26039  12.167  42.604   5.131
60780W        W26040  19.972  40.102   0.364
60781W        W26041  32.536   8.454   0.237
60782W        W26042  36.700  26.694  14.013
60783W        W26043  16.570  31.941  10.698
60784W        W26044  27.053  28.051   3.726
60785W        W26045  14.779  30.172  12.888
60786W        W26046  25.293  44.970  11.979
60787W        W26047  35.822  33.702  12.082
60788W        W26048  39.491  26.254   4.643
60789W        W26049  41.399  35.824  14.910
60790W        W26050  10.739  19.097   0.855
60791W        W26051  21.804  26.586  11.702
60792W        W26052   0.309   3.223  10.599
60793W        W26053  31.531  29.950   2.761
60794W        W26054  12.766  13.326   2.318
60795W        W26055   1.723  19.623   3.128
60796W        W26056  26.048  44.796  13.576
60797W        W26057   2.706  40.012   0.800
60798W        W26058  18.827  34.328  11.624
60799W        W26059  26.297  18.655  12.639
60800W        W26060   2.800   9.845   3.260
60801W        W26061   9.300  20.849   3.871
60802W        W26062   0.233   6.136  10.592
60803W        W26063  34.605  44.063   0.860
60804W        W26064  23.172   6.603  12.964
60805W        W26065  15.110  33.147  14.041
60806W        W26066  36.882   4.554   0.792
60807W        W26067  18.802  14.988  12.008
60808W        W26068  35.632   8.526   3.082
60809W        W26069  34.413  37.007  11.522
60810W        W26070  35.551   1.945  12.917
60811W        W26071  21.961  26.206  12.473
60812W        W26072   1.739  32.150  11.992
60813W        W26073  39.388  43.025   0.754
60814W        W26074   8.891  36.942  13.957
60815W        W26075  13.344   9.315   1.739
60816W        W26076   2.994   1.319  10.495
60817W        W26077  18.298  30.236  10.793
60818W        W26078  15.621  29.569  14.261
60819W        W26079  12.633  13.591   0.548
60820W        W26080  25.557  14.534  10.420
60821W        W26081  25.151   2.331   0.730
60822W        W26082  12.328  36.819  11.150
60823W        W26083   2.322   0.777   4.451
60824W        W26084  16.115  41.434   0.000
60825W        W26085  39.963  13.936  12.379
60826W        W26086  12.653   6.202   1.337
60827W        W26087  10.883  42.165   0.323
60828W        W26088  28.586  30.915   4.928
60829W        W26089  31.548  29.097   3.082
60830W        W26090  30.465   5.921   1.612
60831W        W26091  21.746  20.232  13.589
60832W        W26092  27.003   5.562  11.083
60833W        W26093  40.039   7.316   2.576
60834W        W26094  21.483   7.950  12.411
60835W        W26095  35.561   2.928  13.958
60836W        W26096  26.186  29.421  13.196
60837W        W26097  38.452  23.035   0.341
60838W        W26098  19.512  10.884   3.772
60839W        W26099  13.653  39.444   0.613
60840W        W26100  33.473  25.215  13.548
60841W        W26101  13.786  35.599   1.273
60842W        W26102  31.001  27.940  14.346
60843W        W26103  18.617  11.540  11.970
60844W        W26104  25.618  11.268   0.831
60845W        W26105  42.291  33.143  14.152
60846W        W26106  21.246  19.339  14.411
60847W        W26107  21.527  15.188   1.192
60848W        W26108  15.649  29.248  10.697
60849W        W26109  44.968   3.546  14.907
60850W        W26110  30.082  34.796   0.469
60851W        W26111   9.130  29.107  12.411
60852W        W26112   3.191  39.820  13.976
60853W        W26113  11.527  17.623  10.575
60854W        W26114  32.722   2.047   2.665
60855W        W26115  39.944  32.388  12.566
60856W        W26116   2.878  41.909   3.284
60857W        W26117  26.037  33.616  14.283
60858W        W26118  31.480  27.217   3.107
60859W        W26119   8.270  18.535   1.825
60860W        W26120  40.062  32.209   3.726
60861W        W26121   9.885  40.924  13.803
60862W        W26122  14.330   3.293   1.595
60863W        W26123  28.175  25.539   3.679
60864W        W26124  39.502  28.484  11.139
60865W        W26125  25.812  16.620  12.899
60866W        W26126   6.500  23.455  12.222
60867W        W26127  11.586   4.976  14.767
60868W        W26128  34.885  11.712  11.824
60869W        W26129  43.926  10.627   3.963
60870W        W26130  26.918  41.046  13.196
60871W        W26131   9.757   8.190  14.692
60872W        W26132  14.607   9.588   4.105
60873W        W26133  32.102   5.026  11.622
60874W        W26134  37.281   9.830   0.259
60875W        W26135   8.502  28.102   4.417
60876W        W26136  39.899  41.398  14.741
60877W        W26137   2.857  19.240   1.822
60878W        W26138  43.484  29.128   2.379
60879W        W26139  34.126  32.001   0.238
60880W        W26140  26.224  15.313  11.051
60881W        W26141  35.052  19.186   1.864
60882W        W26142  11.028   3.170   4.172
60883W        W26143  37.687  36.329  13.913
60884W        W26144  27.623   6.822   1.384
60885W        W26145  20.112  18.690  10.531
60886W        W26146  22.193  39.064  14.333
60887W        W26147   8.392  38.591  11.042
60888W        W26148  22.476  15.667   5.080
60889W        W26149  25.437  39.570   4.657
60890W        W26150  34.621  23.731   1.932
60891W        W26151  28.567  20.584  13.433
60892W        W26152  25.839  22.266  12.778
60893W        W26153  20.637  25.449   2.282
60894W        W26154  31.131  17.150   2.239
60895W        W26155  40.263   7.116  14.414
60896W        W26156  21.566  39.325  10.568
60897W        W26157   8.846   6.106   3.708
60898W        W26158  36.365   3.382  13.610
60899W        W26159  31.097  22.539   5.463
60900W        W26160  27.277   7.769  14.364
60901W        W26161  30.453   8.533  10.530
60902W        W26162  26.013  16.231   4.482
60903W        W26163  25.735  39.847   4.125
60904W        W26164   2.336  28.597  11.253
60905W        W26165  43.376  21.102   1.406
60906W        W26166  25.772  37.835   2.760
60907W        W26167   2.213  38.112   2.398
60908W        W26168  11.802  10.121  12.050
60909W        W26169  24.663   1.319  10.839
60910W        W26170  18.104  25.642  13.771
60911W        W26171   5.438  10.371  10.692
60912W        W26172  11.705  28.900  13.744
60913W        W26173  28.020  39.347  14.528
60914W        W26174   4.414  21.272  12.418
60915W        W26175  28.563  22.682  13.438
60916W        W26176  43.779  10.594   2.553
60917W        W26177  38.647  20.557  10.874
60918W        W26178   2.865  10.361  13.814
60919W        W26179  13.845  26.886  13.258
60920W        W26180  29.509  20.086  10.539
60921W        W26181  36.997   5.023  14.946
60922W        W26182   9.802   6.844   3.139
60923W        W26183  24.202  15.279   4.195
60924W        W26184  15.659  34.605  10.460
60925W        W26185  14.771   6.464   4.626
60926W        W26186  43.289  33.344  10.291
60927W        W26187  31.094  39.281  11.712
60928W        W26188  41.128  29.665  12.114
60929W        W26189  37.341  20.548  11.550
60930W        W26190  43.558   1.606  10.047
60931W        W26191   7.161  14.640   4.644
60932W        W26192  40.978   5.839   0.024
60933W        W26193  35.777  10.578  10.894
60934W        W26194  34.507  35.934  13.484
60935W        W26195  29.477  27.793   0.522
60936W        W26196   2.978  41.712  11.365
60937W        W26197  12.201  23.150   3.548
60938W        W26198   7.146  22.530   2.142
60939W        W26199  13.148  37.420  10.690
60940W        W26200  38.282  40.963   4.295
60941W        W26201   5.430  43.793   4.536
60942W        W26202  13.133  42.273   4.154
60943W        W26203   7.698  17.547  13.341
60944W        W26204  14.477   1.203  12.630
60945W        W26205  37.430  39.858  11.102
60946W        W26206  12.729  27.536   1.240
60947W        W26207  25.287  25.559   0.358
60948W        W26208  44.420  15.732   3.746
60949W        W26209   2.460  30.855  11.640
60950W        W26210  18.519   3.687  12.879
60951W        W26211  43.235  11.575  14.224
60952W        W26212  26.626  33.520   0.524
60953W        W26213  42.437  17.030  14.227
60954W        W26214  17.270   5.653  12.157
60955W        W26215  12.605  38.512  10.652
60956W        W26216  41.880  15.101   3.733
60957W        W26217   6.195   6.775   3.155
60958W        W26218  13.733  12.222  14.452
60959W        W26219  15.244  28.850   2.813
60960W        W26220  44.202  40.014   1.877
60961W        W26221  39.094  33.114   0.755
60962W        W26222  13.742  23.705  11.136
60963W        W26223  40.879   4.093   9.458
60964W        W26224  31.280   7.662   2.314
60965W        W26225   5.243  20.547  10.869
60966W        W26226  12.087  10.815   1.412
60967W        W26227  17.070   4.766  14.441
60968W        W26228   9.971  10.823   2.432
60969W        W26229  42.949   2.679  14.037
60970W        W26230   2.308  26.621  14.232
60971W        W26231  33.594  32.710   3.324
60972W        W26232   9.163  13.856  12.541
60973W        W26233   0.758  36.040  14.920
60974W        W26234   0.254   3.974   3.753
60975W        W26235  35.962  32.456   2.938
60976W        W26236  11.215   1.764   0.252
60977W        W26237  17.292  26.226  11.636
60978W        W26238  27.704  27.050  14.114
60979W        W26239  41.649  14.775   1.450
60980W        W26240  22.795   6.014  10.421
60981W        W26241  22.476  17.756  11.498
60982W        W26242   1.761  33.233   1.247
60983W        W26243   1.841  42.400  11.243
60984W        W26244  39.861  37.848  11.942
60985W        W26245  29.909  24.969   3.805
60986W        W26246  15.601   3.622   2.709
60987W        W26247  16.044   6.079  11.491
60988W        W26248  39.162  33.403  11.524
60989W        W26249  37.901  16.209  10.670
60990W        W26250  35.542  28.908   2.349
60991W        W26251  23.894  31.656   0.935
60992W        W26252  31.711  33.123  13.416
60993W        W26253   5.531  33.421   3.351
60994W        W26254  15.600   5.143   3.487
60995W        W26255   4.098  10.110   0.847
60996W        W26256  26.170  35.656   0.457
60997W        W26257  17.548  28.571  11.968
60998W        W26258  22.680  22.153   0.146
60999W        W26259   7.900  10.825  13.001
61000W        W26260  25.594  17.834   1.189
61001W        W26261  28.428  34.438  13.382
61002W        W26262   2.330  27.394   0.454
61003W        W26263  36.159  32.107  11.129
61004W        W26264   7.794  32.912   2.350
61005W        W26265  19.681  12.549   4.490
61006W        W26266   2.727  21.569  10.719
61007W        W26267   8.741  12.297   0.442
61008W        W26268   9.286   2.023  12.932
61009W        W26269  18.231  23.179   0.958
61010W        W26270  26.428   5.722   1.898
61011W        W26271  24.629  28.099  12.911
61012W        W26272  25.236   1.149  11.568
61013W        W26273   1.318  33.348  11.436
61014W        W26274  22.039  34.385  11.150
61015W        W26275  30.086  19.363  12.298
61016W        W26276  10.871   8.382   3.399
61017W        W26277   3.773  16.726   0.446
61018W        W26278  36.137  24.197   1.303
61019W        W26279  38.066   5.378  12.016
61020W        W26280   1.286   8.191  14.854
61021W        W26281   3.251  13.314  14.361
61022W        W26282  42.853  30.002   1.250
61023W        W26283  39.279  17.542   0.704
61024W        W26284  29.138  17.238  12.392
61025W        W26285  25.538  14.887  11.695
61026W        W26286   6.478  38.529   3.639
61027W        W26287  41.296  28.911   3.436
61028W        W26288  16.959  28.118  13.618
61029W        W26289  10.616  28.187  14.388
61030W        W26290  28.475  40.388   0.953
61031W        W26291  18.894   9.440  12.592
61032W        W26292  15.095  36.613   4.261
61033W        W26293  26.001  21.894   2.452
61034W        W26294  35.470  30.471   0.505
61035W        W26295  38.999   5.441  14.410
61036W        W26296   9.842  25.673   0.790
61037W        W26297  21.347  40.417   1.800
61038W        W26298   5.950   7.356   3.516
61039W        W26299  31.615   9.496  12.239
61040W        W26300  38.426  10.644   0.455
61041W        W26301  26.489  44.492  13.375
61042W        W26302   5.174  14.404  12.118
61043W        W26303  36.784  28.507  11.949
61044W        W26304  39.469  18.972   4.138
61045W        W26305   7.679  34.135   3.267
61046W        W26306  38.009   8.284   0.896
61047W        W26307   4.488  30.308   3.488
61048W        W26308  44.805  18.535   4.661
61049W        W26309  43.032  41.803   4.483
61050W        W26310  44.378  23.565   5.191
61051W        W26311  43.905  26.045  10.258
61052W        W26312   8.238  18.288  14.322
61053W        W26313  23.117  10.244   2.789
61054W        W26314  20.593   5.866   4.928
61055W        W26315  10.406   2.760  11.709
61056W        W26316  43.324  43.818  11.165
61057W        W26317  33.403  12.171   0.479
61058W        W26318  16.852  37.994   0.746
61059W        W26319  20.626  37.993   1.620
61060W        W26320  12.687  39.612   3.295
61061W        W26321  41.387  31.065  11.174
61062W        W26322  30.749  35.852  13.939
61063W        W26323  32.095   1.505   0.476
61064W        W26324  20.134  12.745   1.455
61065W        W26325  31.679  21.359  11.122
61066W        W26326  41.117  39.946  11.626
61067W        W26327  42.968   0.207   4.380
61068W        W26328  27.853   1.198   1.678
61069W        W26329  35.454  36.009   2.313
61070W        W26330  39.997  28.582   3.256
61071W        W26331  42.906   6.526   1.268
61072W        W26332   0.766  20.263  12.572
61073W        W26333  30.471  10.138  14.473
61074W        W26334  42.910  35.295  14.910
61075W        W26335  42.329  44.624  12.129
61076W        W26336   9.342  38.985  11.297
61077W        W26337  32.429  38.284  12.176
61078W        W26338  10.404  16.765  13.851
61079W        W26339  32.491  32.137  14.757
61080W        W26340  35.356  30.520   3.623
61081W        W26341  27.571  12.589   1.863
61082W        W26342   2.295  15.753   3.590
61083W        W26343  27.962  33.557  13.504
61084W        W26344  28.615   1.748   2.180
61085W        W26345  10.658  23.724  11.644
61086W        W26346  11.169  39.740   0.194
61087W        W26347  39.792  12.783  11.668
61088W        W26348  37.767   1.449   3.086
61089W        W26349  19.232  25.165  11.370
61090W        W26350   2.802  21.940  13.893
61091W        W26351  34.456   5.183  10.574
61092W        W26352  30.486  29.699   2.351
61093W        W26353  40.345  34.067  14.950
61094W        W26354  11.016  31.206  13.463
61095W        W26355  31.248   3.039   4.490
61096W        W26356  28.346  21.066  14.939
61097W        W26357  27.206  26.900   3.250
61098W        W26358   6.315   8.631  14.397
61099W        W26359   1.513  33.062   2.971
61100W        W26360   5.676  21.639   0.473
61101W        W26361  13.737   0.789   2.925
61102W        W26362   7.698  27.480   3.184
61103W        W26363  11.223  16.601  14.843
61104W        W26364  43.482   7.510   4.067
61105W        W26365  36.821  13.660   3.187
61106W        W26366  26.996  26.570  13.878
61107W        W26367   8.182   1.410  11.037
61108W        W26368  29.676  14.330  13.338
61109W        W26369  36.487  15.345   0.584
61110W        W26370  11.676  33.921  13.963
61111W        W26371  40.587  40.764   1.846
61112W        W26372  20.763  28.903   3.244
61113W        W26373  23.712  25.091   1.870
61114W        W26374   9.194  30.881   1.110
61115W        W26375  33.677  29.492  12.609
61116W        W26376  11.009  43.239  12.516
61117W        W26377   5.893  20.196  14.876
61118W        W26378   6.470  41.919   3.346
61119W        W26379  15.784  30.652  12.315
61120W        W26380   2.533  37.579   4.195
61121W        W26381   4.413  22.209   3.683
61122W        W26382  40.808   3.812  12.562
61123W        W26383  29.126  15.530  14.973
61124W        W26384  26.511  19.675  10.855
61125W        W26385  19.854  23.968  13.586
61126W        W26386  18.646   7.141   3.888
61127W        W26387  34.218  13.186   4.266
61128W        W26388  39.185   5.715  10.164
61129W        W26389  41.049  18.750  12.484
61130W        W26390  44.201  35.098  11.413
61131W        W26391  25.567   7.457   4.313
61132W        W26392   7.429  32.576  14.758
61133W        W26393  28.749  44.416   0.842
61134W        W26394  35.482   4.751   0.473
61135W        W26395  37.485  25.455  11.401
61136W        W26396  13.995  25.795  12.332
61137W        W26397  40.786  18.247  14.279
61138W        W26398   8.333  40.351   4.197
61139W        W26399   1.371   5.726   0.312
61140W        W26400  20.641  23.779  11.058
61141W        W26401  14.603   3.647  11.891
61142W        W26402   9.274  24.660   4.945
61143W        W26403  13.377  23.235   4.609
61144W        W26404  19.060   4.434   4.273
61145W        W26405   1.410  15.188  14.236
61146W        W26406  40.875  40.276  14.822
61147W        W26407  31.334   0.796  12.017
61148W        W26408  17.147   1.975   4.576
61149W        W26409  15.591  41.544  13.415
61150W        W26410  14.709  17.813  14.533
61151W        W26411  44.520  43.460  12.570
61152W        W26412  34.933   2.540   4.388
61153W        W26413   3.307  30.700   1.633
61154W        W26414   7.975  30.903  11.877
61155W        W26415  15.681  16.128  14.245
61156W        W26416   5.569  42.732  14.367
61157W        W26417   8.770  25.285   1.014
61158W        W26418  38.407  14.312  11.987
61159W        W26419  40.868  10.382  11.745
61160W        W26420  44.785   3.044  14.962
61161W        W26421  36.404  41.771  10.680
61162W        W26422  39.281  21.690  10.726
61163W        W26423  11.940  30.330   4.801
61164W        W26424   0.098  41.329   3.934
61165W        W26425  14.309  20.943   3.760
61166W        W26426  21.322  40.830   1.453
61167W        W26427  16.204   5.995   3.274
61168W        W26428  27.932   4.436  10.529
61169W        W26429   1.721  30.098   4.165
61170W        W26430  36.688  31.602  14.013
61171W        W26431   9.887   6.334  14.497
61172W        W26432  37.129   9.765   3.216
61173W        W26433  30.139  11.645   2.297
61174W        W26434   2.344  21.007  14.823
61175W        W26435  28.924   3.287   4.521
61176W        W26436  32.909  32.285   2.074
61177W        W26437  17.835  43.746   3.694
61178W        W26438  32.491   6.255   4.916
61179W        W26439  28.233   0.328  13.084
61180W        W26440  35.526  44.197   2.270
61181W        W26441  11.435   6.449  10.632
61182W        W26442  19.856  18.581  11.553
61183W        W26443  12.499  31.260   4.114
61184W        W26444  31.002   1.828   4.690
61185W        W26445  28.071  26.256   0.862
61186W        W26446  22.256  42.470   0.965
61187W        W26447   3.944   7.919  14.361
61188W        W26448  23.156   4.858   3.937
61189W        W26449  33.807  13.915   3.055
61190W        W26450  31.662  39.874  14.831
61191W        W26451  14.367  23.071  10.667
61192W        W26452  36.067  37.394  12.618
61193W        W26453  23.724  27.609   3.734
61194W        W26454  36.720  16.558  13.708
61195W        W26455  35.100  38.135   2.652
61196W        W26456  33.336  10.387   4.024
61197W        W26457  27.605  20.773   0.551
61198W        W26458  17.075  34.029   2.653
61199W        W26459  40.816   7.360   0.394
61200W        W26460   8.700  44.027   4.227
61201W        W26461  10.184   6.272   2.598
61202W        W26462   5.398   3.861   2.255
61203W        W26463  26.908  33.651  11.511
61204W        W26464  37.324  12.785  12.871
61205W        W26465  38.543  15.706  11.050
61206W        W26466  23.636  43.723  14.482
61207W        W26467  29.421   1.303  12.830
61208W        W26468   1.900  21.063  11.696
61209W        W26469  32.159   7.815  13.641
61210W        W26470  26.048   3.399   3.806
61211W        W26471  43.799  13.935  12.154
61212W        W26472  13.105   8.328  10.804
61213W        W26473  11.692  11.193  13.894
61214W        W26474   6.878  26.021  13.991
61215W        W26475  30.149  22.488  12.565
61216W        W26476  39.411  42.759   1.861
61217W        W26477  33.061  18.937   1.699
61218W        W26478  16.268  23.563   1.348
61219W        W26479  21.302  22.127   2.214
61220W        W26480  19.781  26.569  11.850
61221W        W26481  31.974  23.958   9.853
61222W        W26482  20.007  10.292  12.589
61223W        W26483  35.572  21.684   4.657
61224W        W26484  13.222  44.969   0.507
61225W        W26485  29.633  23.332   3.888
61226W        W26486  43.467   1.514  12.375
61227W        W26487   1.095   8.220   4.461
61228W        W26488  37.838  42.470  13.876
61229W        W26489   3.782  24.451   0.438
61230W        W26490   2.321  13.845  12.197
61231W        W26491  21.392   3.981   4.913
61232W        W26492   2.852  32.707  14.017
61233W        W26493  40.012  19.153   0.218
61234W        W26494  31.523   9.209  11.095
61235W        W26495  21.287  12.502  11.566
61236W        W26496  38.479  14.326  11.107
61237W        W26497  33.507  31.379   1.787
61238W        W26498  24.218  42.493   3.660
61239W        W26499  12.080  44.785   4.658
61240W        W26500   2.638  23.116  14.477
61241W        W26501  26.007  12.418   0.948
61242W        W26502   8.150  35.965   2.615
61243W        W26503   6.678  12.117  11.203
61244W        W26504  35.294  22.623   0.200
61245W        W26505  10.079   6.298   1.269
61246W        W26506  15.257  15.024   0.698
61247W        W26507  14.945  33.991  10.938
61248W        W26508  31.204  10.662   0.039
61249W        W26509   6.991  35.454   0.733
61250W        W26510  23.142   0.976   4.951
61251W        W26511  37.575  30.015   0.900
61252W        W26512   4.017  38.241  14.988
61253W        W26513  28.149  21.026  11.614
61254W        W26514  25.780  35.912  11.403
61255W        W26515  27.220   4.217  10.653
61256W        W26516   2.892  15.906   4.002
61257W        W26517   3.514   2.834   1.470
61258W        W26518  32.963  12.499  13.027
61259W        W26519  18.240  10.648  10.749
61260W        W26520  30.852  40.042  14.398
61261W        W26521  10.656  12.115  13.887
61262W        W26522   3.685  33.983  13.381
61263W        W26523  34.775  36.126   4.555
61264W        W26524   5.461  14.764  14.123
61265W        W26525  27.768  44.430   3.596
61266W        W26526  27.543  20.444   2.337
61267W        W26527   4.859  33.866   0.825
61268W        W26528  35.080  43.502   4.091
61269W        W26529  27.447   1.670  11.135
61270W        W26530  24.249   8.835  10.991
61271W        W26531  37.450   1.412   2.315
61272W        W26532  32.664  41.571  10.541
61273W        W26533   4.424   6.539   0.870
61274W        W26534  44.407  25.434  10.389
61275W        W26535   9.685  22.021   3.437
61276W        W26536  21.681  12.566   2.392
61277W        W26537  17.722  22.554  14.538
61278W        W26538  36.644   6.044  12.596
61279W        W26539  14.037  41.141  14.224
61280W        W26540  36.631   6.739   0.363
61281W        W26541  19.437  20.340   1.346
61282W        W26542  36.065  14.800  10.389
61283W        W26543  21.744  41.881   2.251
61284W        W26544  38.005  15.266   4.587
61285W        W26545   0.037  41.532  11.631
61286W        W26546  10.408  38.137  14.537
61287W        W26547  33.102  13.533  14.163
61288W        W26548  23.747   7.215   3.822
61289W        W26549  24.684  19.210   2.767
61290W        W26550  18.338  44.879  11.561
61291W        W26551  25.497  24.487   1.722
61292W        W26552   4.805  11.854   1.442
61293W        W26553  20.632  18.615   0.476
61294W        W26554   0.454  26.773   4.412
61295W        W26555  19.805  10.208   0.571
61296W        W26556  34.693  32.012   4.045
61297W        W26557   5.022  28.079  11.450
61298W        W26558  42.494  31.443  12.989
61299W        W26559  19.999   0.805  13.805
61300W        W26560  21.851  41.889  14.745
61301W        W26561   1.771  34.653   1.245
61302W        W26562  25.809  41.147   2.225
61303W        W26563  27.435  29.743   0.504
61304W        W26564   2.455   4.643   0.770
61305W        W26565  15.754  41.081  14.405
61306W        W26566  16.329  11.049  11.571
61307W        W26567   2.813   9.586  12.120
61308W        W26568  17.151  44.876   4.635
61309W        W26569  28.666  39.000  13.922
61310W        W26570  23.806   7.473   3.332
61311W        W26571  18.611   3.608   0.344
61312W        W26572  33.447  19.165   0.033
61313W        W26573  41.587  18.570   1.734
61314W        W26574  11.763  26.545  14.947
61315W        W26575  22.121  21.638  10.115
61316W        W26576  27.120  28.538   0.437
61317W        W26577  31.964   5.302   4.603
61318W        W26578  40.932  44.738   2.373
61319W        W26579  43.325  31.076   4.164
61320W        W26580  29.049  31.917  14.996
61321W        W26581  39.840  42.775  13.285
61322W        W26582  12.485  27.068   2.695
61323W        W26583  23.109  11.189  10.675
61324W        W26584  20.748  13.670  11.109
61325W        W26585  24.091  42.911   1.829
61326W        W26586  44.954  16.479   2.686
61327W        W26587   3.703  42.444  12.009
61328W        W26588   6.274  42.816   4.501
61329W        W26589  38.836   1.829   1.430
61330W        W26590  35.435  35.360   2.400
61331W        W26591   4.265   5.245   0.978
61332W        W26592  44.505   7.965   3.683
61333W        W26593  35.780  22.513   2.235
61334W        W26594  22.946  15.950   0.188
61335W        W26595  37.922   3.967  11.561
61336W        W26596  39.955  36.787   2.476
61337W        W26597  20.528  18.588   1.825
61338W        W26598  40.724  36.369   2.874
61339W        W26599  25.951   1.926  10.690
61340W        W26600  21.431  24.988  11.967
61341W        W26601  22.959  15.586   4.834
61342W        W26602  17.834  24.184  13.508
61343W        W26603  22.145   1.492   3.118
61344W        W26604  39.742  32.342  12.073
61345W        W26605   6.307  34.213  14.466
61346W        W26606  16.269  25.039  14.300
61347W        W26607  44.178   1.259   3.310
61348W        W26608  31.083  24.957   2.619
61349W        W26609  21.849   0.733  14.000
61350W        W26610  22.515   8.365   0.855
61351W        W26611  22.778   5.371  11.919
61352W        W26612  20.156  23.343   0.700
61353W        W26613  35.345  29.909   2.421
61354W        W26614   5.845   3.617   4.932
61355W        W26615  13.587  37.587  13.973
61356W        W26616  34.517  36.377  10.729
61357W        W26617   1.489  17.462   4.054
61358W        W26618  15.538  39.518  11.998
61359W        W26619  36.171  32.888  13.941
61360W        W26620  11.532  43.059   4.090
61361W        W26621  35.301  19.363   1.441
61362W        W26622  28.789   1.680  13.517
61363W        W26623  10.803   4.392  12.273
61364W        W26624   3.979   6.041   4.170
61365W        W26625  27.526  11.877   4.407
61366W        W26626  16.304   5.717  13.817
61367W        W26627   4.304  18.745   4.796
61368W        W26628  10.042  44.358   2.402
61369W        W26629  17.598  27.528   2.009
61370W        W26630   7.239  43.024  13.946
61371W        W26631  13.880  29.011   3.213
61372W        W26632  30.446  14.329  13.570
61373W        W26633   4.696  33.293  13.072
61374W        W26634  39.980  31.482   0.493
61375W        W26635  27.624  16.258   1.673
61376W        W26636  45.000  29.032   4.303
61377W        W26637  26.031  37.319  13.556
61378W        W26638  22.054  29.113   3.619
61379W        W26639  10.816  40.967  14.823
61380W        W26640  43.979  12.556   0.786
61381W        W26641  37.135   1.901  11.685
61382W        W26642  21.663  10.421  11.432
61383W        W26643   5.173  15.114  13.859
61384W        W26644   2.467  41.875   4.548
61385W        W26645  40.503  28.576   0.125
61386W        W26646  24.659  44.793   3.028
61387W        W26647  25.061   4.485   2.547
61388W        W26648  40.820  23.954  13.373
61389W        W26649   3.401   1.641   2.076
61390W        W26650  20.268  35.852  14.461
61391W        W26651   6.689  30.963  10.719
61392W        W26652   9.414  33.600   0.247
61393W        W26653  21.491  11.354  14.365
61394W        W26654  25.491   0.348   4.064
61395W        W26655  31.931  22.884  14.927
61396W        W26656  34.839  21.285   1.373
61397W        W26657  39.392  33.250   2.693
61398W        W26658  39.443  40.635   0.286
61399W        W26659  41.535  42.451  10.688
61400W        W26660  28.885  31.515   3.364
61401W        W26661  42.485  11.069  13.065
61402W        W26662  29.656  36.241  13.537
61403W        W26663  42.106  11.624   1.240
61404W        W26664  31.193  43.298   0.487
61405W        W26665   0.824  21.459  13.021
61406W        W26666  18.571   3.306   4.582
61407W        W26667  11.277   2.328   4.309
61408W        W26668  11.117  14.281   2.769
61409W        W26669   6.654  16.129  11.957
61410W        W26670   7.797  28.576  13.872
61411W        W26671  40.907  14.042   2.519
61412W        W26672  22.770  29.066  11.513
61413W        W26673  31.633  44.467  11.820
61414W        W26674  41.359  32.905   0.211
61415W        W26675  27.451  12.931  12.207
61416W        W26676  12.372  29.098   1.689
61417W        W26677  33.327  38.837  12.014
61418W        W26678   4.277  39.893  12.090
61419W        W26679  39.831   7.909  10.730
61420W        W26680  27.608  22.979   3.167
61421W        W26681  28.975  21.159   2.397
61422W        W26682  39.439  33.106  10.704
61423W        W26683   5.953   5.702  11.577
61424W        W26684   7.777  11.749   3.626
61425W        W26685  32.369   5.236   3.237
61426W        W26686  37.466  24.785  12.858
61427W        W26687  18.269   3.401   0.667
61428W        W26688  37.002  25.234   4.205
61429W        W26689  17.683  28.809   0.807
61430W        W26690  39.900  17.139   0.842
61431W        W26691   6.349  17.666  13.474
61432W        W26692   0.352  34.477  11.100
61433W        W26693  17.207  27.934  11.151
61434W        W26694  10.047   0.194   0.368
61435W        W26695  34.528  29.178   3.310
61436W        W26696   0.917  25.215  14.460
61437W        W26697  39.498  41.386   2.349
61438W        W26698  29.152  19.332   2.207
61439W        W26699  39.013  12.690  14.632
61440W        W26700  24.173   9.398  14.771
61441W        W26701   5.712  34.908   4.186
61442W        W26702  28.866   0.752  13.581
61443W        W26703  17.128  16.968   4.643
61444W        W26704  10.336  25.445   5.094
61445W        W26705  12.388  24.961   0.411
61446W        W26706  24.909   2.311   1.737
61447W        W26707  36.070   3.133   1.808
61448W        W26708  44.548   3.904   4.607
61449W        W26709  14.322  22.733  11.534
61450W        W26710  10.852  25.496   5.014
61451W        W26711  27.914  18.306  12.220
61452W        W26712  40.651   8.578  11.629
61453W        W26713  33.087  43.664  11.657
61454W        W26714   9.085  34.431   2.406
61455W        W26715  24.583  42.610   0.265
61456W        W26716   7.199  41.147  12.967
61457W        W26717  25.689   7.844   0.051
61458W        W26718  16.187  40.408  12.697
61459W        W26719  19.041   8.751   4.023
61460W        W26720  30.984   1.723   0.933
61461W        W26721  11.609  12.142  12.947
61462W        W26722  23.850   0.070   2.785
61463W        W26723  24.129  41.749   0.868
61464W        W26724   6.078   7.825   0.918
61465W        W26725   5.169  39.609   2.301
61466W        W26726   3.761  18.595  10.610
61467W        W26727  42.908  35.150  11.437
61468W        W26728  42.807  13.880  12.920
61469W        W26729  31.459   8.317  10.727
61470W        W26730  40.889  27.427  10.639
61471W        W26731  27.913   3.785   2.327
61472W        W26732  22.795  25.959   1.338
61473W        W26733  28.996   4.381  13.527
61474W        W26734   4.368  30.289   4.704
61475W        W26735   5.218  10.137   4.672
61476W        W26736   7.335  40.905  11.620
61477W        W26737  30.838  24.650   3.465
61478W        W26738  43.335  26.105  14.990
61479W        W26739   4.944  24.099   4.528
61480W        W26740  22.523  17.277   1.741
61481W        W26741  26.983  13.766   3.246
61482W        W26742  28.660  26.012  11.131
61483W        W26743  10.114  35.131   0.441
61484W        W26744  40.680  23.600  12.461
61485W        W26745   9.421  36.815  13.911
61486W        W26746   1.061   0.389   3.824
61487W        W26747   0.934  22.248  11.149
61488W        W26748  24.649  31.013   1.233
61489W        W26749  44.197  28.401  11.153
61490W        W26750  15.533  28.066   2.406
61491W        W26751  41.138  40.548  13.258
61492W        W26752  27.456   5.229  10.558
61493W        W26753  23.227  37.787   1.682
61494W        W26754  24.703  40.889   1.476
61495W        W26755  11.434  27.919  11.939
61496W        W26756  38.640  19.086  11.448
61497W        W26757   5.341  28.724   4.059
61498W        W26758  20.133  24.243   4.765
61499W        W26759  44.888  41.360   1.966
61500W        W26760  18.540   6.267   4.075
61501W        W26761  17.334  17.323   0.027
61502W        W26762  11.300  36.898   4.864
61503W        W26763  18.015  27.971  14.411
61504W        W26764  11.665  24.764   1.336
61505W        W26765  38.152  21.225   5.004
61506W        W26766   5.404  25.447   3.604
61507W        W26767  40.074  17.843   1.374
61508W        W26768  15.760  21.057   1.296
61509W        W26769  28.176  16.171   3.441
61510W        W26770  42.523  23.875  10.947
61511W        W26771  30.876  24.597  12.949
61512W        W26772  23.140  25.943  11.529
61513W        W26773  32.573  36.086   0.704
61514W        W26774  18.567  33.156  13.394
61515W        W26775  18.330  26.120  11.566
61516W        W26776  33.544  34.404  14.537
61517W        W26777  44.318  27.204   3.151
61518W        W26778  20.480  43.336  10.991
61519W        W26779  34.945  16.677  10.625
61520W        W26780   6.318  35.808  12.178
61521W        W26781  44.361   8.401   3.077
61522W        W26782  29.956  15.236  14.706
61523W        W26783   9.754   8.821   3.849
61524W        W26784  21.528  33.231  13.526
61525W        W26785   6.791  21.277   4.241
61526W        W26786  42.149   8.922   5.031
61527W        W26787  39.409   2.931   0.217
61528W        W26788  39.893  22.947   2.137
61529W        W26789  17.249  15.878  14.297
61530W        W26790  37.757  10.803   3.695
61531W        W26791  40.216  40.794  12.955
61532W        W26792  39.589  41.153   1.899
61533W        W26793  27.533   0.952  12.018
61534W        W26794  42.179   7.820   3.811
61535W        W26795  18.756   2.506  11.967
61536W        W26796  26.800   8.215  14.871
61537W        W26797   8.512  39.255   2.263
61538W        W26798  30.372  44.474  10.293
61539W        W26799  20.983  38.374  10.236
61540W        W26800  32.218  27.058   2.305
61541W        W26801  22.130  32.318  10.971
61542W        W26802  41.482   2.987  12.894
61543W        W26803  19.458  36.429   4.220
61544W        W26804  19.926   8.248  13.093
61545W        W26805  30.173  33.026  14.342
61546W        W26806  43.318  23.816  14.792
61547W        W26807  42.837   1.706   3.789
61548W        W26808  37.014  25.754   4.241
61549W        W26809   1.992  24.180   0.692
61550W        W26810   6.223  30.235   2.275
61551W        W26811  28.038  26.142  10.116
61552W        W26812  20.543  15.778   0.932
61553W        W26813   0.554   4.142   4.178
61554W        W26814   8.041  41.010   4.044
61555W        W26815  41.016  37.463   0.846
61556W        W26816  19.066  28.030   2.427
61557W        W26817  14.542  13.230  13.052
61558W        W26818  30.181  31.408  11.862
61559W        W26819  34.634  14.557  14.261
61560W        W26820  21.966  39.428   1.055
61561W        W26821  34.470  35.416  13.361
61562W        W26822   4.806  25.708  12.420
61563W        W26823   5.646  34.879   1.688
61564W        W26824   2.712  26.762   3.056
61565W        W26825  16.753  31.009  13.362
61566W        W26826   7.831  30.271  12.905
61567W        W26827  37.578   1.159  12.048
61568W        W26828   8.186  35.573  12.981
61569W        W26829   5.528   7.330  11.193
61570W        W26830  16.375   4.432  13.402
61571W        W26831  25.012  20.008  11.190
61572W        W26832  35.087   9.190   4.576
61573W        W26833  15.004  35.837  12.423
61574W        W26834  43.827  14.968  12.803
61575W        W26835  18.184  42.053  13.310
61576W        W26836  13.358  43.968   0.670
61577W        W26837  27.073  14.676  11.904
61578W        W26838  34.007   6.666  10.553
61579W        W26839   4.843  31.450  14.539
61580W        W26840  34.068  25.046  11.864
61581W        W26841   9.379  44.303   4.405
61582W        W26842  25.210  44.451  14.911
61583W        W26843   9.108  16.726   9.865
61584W        W26844   0.033  13.820   2.289
61585W        W26845  13.205  25.504   0.896
61586W        W26846   0.084   1.002   2.460
61587W        W26847  38.377  41.983   1.369
61588W        W26848  16.354  44.261   1.886
61589W        W26849   6.970   4.412  12.626
61590W        W26850   0.254  20.645   3.767
61591W        W26851  10.367  28.112   4.474
61592W        W26852  10.758  32.784  13.792
61593W        W26853  20.214  37.057  14.746
61594W        W26854  28.579  26.559  12.305
61595W        W26855   1.015  44.987  14.470
61596W        W26856  14.631   9.703   0.445
61597W        W26857  40.879  17.310   2.221
61598W        W26858  36.773  30.861   0.371
61599W        W26859  20.474   3.063   4.782
61600W        W26860   5.961  32.624   2.219
61601W        W26861  13.349  31.942   3.486
61602W        W26862  14.756  11.849  10.246
61603W        W26863   9.257   1.798   1.652
61604W        W26864  44.366   5.791  14.351
61605W        W26865  42.865  24.826   0.596
61606W        W26866  21.472  14.854  14.450
61607W        W26867  40.367  17.248  14.960
61608W        W26868  39.456  42.259   0.455
61609W        W26869  17.299  17.360   1.424
61610W        W26870   9.341  33.180   4.608
61611W        W26871  24.385  13.089  11.525
61612W        W26872  42.405   3.295  12.044
61613W        W26873  17.223  30.807  13.510
61614W        W26874  37.744  18.067   1.005
61615W        W26875  35.475  12.202  10.908
61616W        W26876  16.806  34.329   4.532
61617W        W26877  21.438  10.314   2.178
61618W        W26878  14.786  16.166   2.106
61619W        W26879  11.924  24.690  14.852
61620W        W26880  36.629  24.612  10.512
61621W        W26881   1.678  38.659  11.637
61622W        W26882  30.952  11.725  11.431
61623W        W26883   4.388  31.553   1.816
61624W        W26884  20.277  25.320   4.509
61625W        W26885  10.802   5.654   4.514
61626W        W26886  11.527   2.950  14.568
61627W        W26887  29.188   7.986  12.027
61628W        W26888  37.856  30.185   0.451
61629W        W26889  29.817  33.592   1.291
61630W        W26890  14.308  22.077   0.817
61631W        W26891  28.717  21.987  14.884
61632W        W26892   2.759  29.993   0.054
61633W        W26893  13.392  32.082   4.487
61634W        W26894  15.963  42.260  11.579
61635W        W26895  39.875  40.784  13.561
61636W        W26896  28.716  26.536  14.417
61637W        W26897  21.539   6.003   4.783
61638W        W26898  24.190  27.145  12.060
61639W        W26899  30.933  19.176   1.988
61640W        W26900  35.632  35.841   1.844
61641W        W26901  24.825  39.690  10.714
61642W        W26902  29.050  36.863   4.657
61643W        W26903  15.511  40.037   4.931
61644W        W26904   5.876  38.002  14.831
61645W        W26905  35.102  11.370  12.949
61646W        W26906  19.963  32.678  12.023
61647W        W26907  27.418   7.344  11.507
61648W        W26908  43.026  36.982  11.948
61649W        W26909  26.066  10.575   1.248
61650W        W26910  14.434  22.189   4.973
61651W        W26911  19.820  26.048  13.914
61652W        W26912  14.820  24.140  12.491
61653W        W26913   8.873  27.722  13.309
61654W        W26914  23.111  16.850   1.289
61655W        W26915  15.354  11.754  10.902
61656W        W26916   2.441  13.108   1.442
61657W        W26917  35.129  31.037  11.748
61658W        W26918  25.315  33.860  14.859
61659W        W26919  35.941  38.975   3.604
61660W        W26920  10.306  38.495  13.821
61661W        W26921  28.849  16.025   2.926
61662W        W26922  33.970  38.436  10.339
61663W        W26923   4.227  21.810   2.374
61664W        W26924  31.314  21.491   2.797
61665W        W26925  29.081  17.691   1.870
61666W        W26926  27.765  42.323  11.513
61667W        W26927   7.674  23.021   1.776
61668W        W26928  42.826  27.581  13.062
61669W        W26929   3.189  39.624  12.670
61670W        W26930  39.032   2.238   0.898
61671W        W26931  28.392  26.405  10.383
61672W        W26932  23.912  40.592   4.540
61673W        W26933   7.292   2.306   2.845
61674W        W26934  44.397   2.155   0.840
61675W        W26935   9.042  11.104   3.320
61676W        W26936  35.853  13.808   0.790
61677W        W26937  18.232   4.008  11.038
61678W        W26938  31.691   6.664  14.723
61679W        W26939  19.628  32.803  11.191
61680W        W26940   6.715  34.132  14.171
61681W        W26941  40.601  19.816   3.061
61682W        W26942   1.437  25.173  13.291
61683W        W26943   7.930  17.212  10.620
61684W        W26944  25.723  11.180   4.273
61685W        W26945   2.235  23.139  11.214
61686W        W26946  43.167  18.360   2.279
61687W        W26947  39.084  26.916   3.221
61688W        W26948   3.935  20.750  11.646
61689W        W26949   6.118  10.293  11.569
61690W        W26950   2.423  42.766   3.120
61691W        W26951   7.103   2.829   2.920
61692W        W26952   6.218  17.619  11.222
61693W        W26953  24.306   6.271   4.575
61694W        W26954   7.330   9.307  11.863
61695W        W26955   4.501  35.053  14.971
61696W        W26956  38.107  24.913  10.555
61697W        W26957   0.750  43.934   0.779
61698W        W26958  27.754   7.857  14.633
61699W        W26959  28.115  11.631  13.906
61700W        W26960  17.593   2.599  10.755
61701W        W26961   9.326  31.416   3.216
61702W        W26962  19.751  14.046  13.070
61703W        W26963  20.019  21.420  11.354
61704W        W26964  25.018  23.456   0.326
61705W        W26965  17.272  34.454   1.971
61706W        W26966   4.963  30.020   4.144
61707W        W26967  12.153  32.369  13.882
61708W        W26968  36.375   0.932  14.415
61709W        W26969   5.455  15.736   3.743
61710W        W26970  30.002  21.922   2.668
61711W        W26971  12.861   7.844  10.076
61712W        W26972  35.070  21.423   2.052
61713W        W26973  12.113   2.929   0.365
61714W        W26974   1.400  13.785  14.956
61715W        W26975  36.868  43.959  11.835
61716W        W26976  19.087  35.572   4.727
61717W        W26977  44.766  25.500  12.996
61718W        W26978  30.331  18.949  11.618
61719W        W26979  17.154  15.360  13.936
61720W        W26980  11.628  23.977  11.676
61721W        W26981  32.918  38.904  14.289
61722W        W26982  12.191  13.647   4.149
61723W        W26983  41.271  19.471   1.335
61724W        W26984   1.825  11.188   1.400
61725W        W26985  37.517  34.105   4.125
61726W        W26986  34.274  26.950  12.020
61727W        W26987  38.039  23.114  12.969
61728W        W26988  43.252  34.471  13.830
61729W        W26989  13.563  22.308   0.715
61730W        W26990  14.720  24.494   1.080
61731W        W26991  34.836  26.754   0.923
61732W        W26992  22.512  24.976   0.325
61733W        W26993  32.261  35.698  14.891
61734W        W26994  41.897  19.418   0.764
61735W        W26995  28.842   1.893   3.877
61736W        W26996  38.061  38.318   4.243
61737W        W26997   9.638  14.545  13.963
61738W        W26998  20.682  30.031   3.691
61739W        W26999  16.806  35.374   2.432
61740W        W27000  17.563  19.040   4.300
61741W        W27001  41.119  32.108  12.497
61742W        W27002  41.528  13.859  13.089
61743W        W27003  31.471  35.806  13.385
61744W        W27004  27.738  30.267   3.950
61745W        W27005  12.711  28.900  13.952
61746W        W27006  36.991   4.004   3.254
61747W        W27007  36.446  39.964   4.996
61748W        W27008  13.863  34.556  14.121
61749W        W27009   9.751   6.877   4.040
61750W        W27010   1.534  30.950  14.289
61751W        W27011  10.934  27.700   3.101
61752W        W27012  34.880  11.775   3.136
61753W        W27013  38.140  13.380   3.131
61754W        W27014  35.462  23.613   2.857
61755W        W27015  42.872  16.992   2.249
61756W        W27016   2.138  30.528   1.203
61757W        W27017   0.786   2.900   3.950
61758W        W27018  25.853  25.067  13.861
61759W        W27019  24.946  33.044  14.030
61760W        W27020   1.019  30.168   5.190
61761W        W27021  40.904  18.275   0.679
61762W        W27022  26.440  39.497   4.649
61763W        W27023  21.280  18.549   5.070
61764W        W27024   4.419  35.424   2.715
61765W        W27025  40.454  29.410  11.915
61766W        W27026  19.116   9.723   0.030
61767W        W27027  25.627  44.684   1.686
61768W        W27028  16.565  31.949  13.512
61769W        W27029  43.257   1.903   1.723
61770W        W27030  22.642   4.375  14.501
61771W        W27031   4.570  21.519   2.664
61772W        W27032  10.663   8.311   0.393
61773W        W27033  10.239  37.978   2.917
61774W        W27034  37.136  14.873   1.345
61775W        W27035  20.403  11.354   0.471
61776W        W27036  32.878  27.248   4.858
61777W        W27037  35.625  22.819  14.815
61778W        W27038  17.688  12.144   3.067
61779W        W27039  23.232  32.025  14.898
61780W        W27040  34.036  10.446   1.141
61781W        W27041  38.517   0.405  11.195
61782W        W27042   4.844   9.278  12.992
61783W        W27043   8.515  41.619   4.542
61784W        W27044  28.002  12.318   3.787
61785W        W27045   8.458  40.422  10.659
61786W        W27046  32.276   9.667  13.412
61787W        W27047  26.369  18.844  11.139
61788W        W27048  41.382  11.909   1.869
61789W        W27049  26.564  40.150   3.597
61790W        W27050  10.778  36.522   2.743
61791W        W27051  17.578   4.802  14.508
61792W        W27052  11.226  32.810  10.759
61793W        W27053  41.168   4.751   0.787
61794W        W27054   2.489  42.579  10.484
61795W        W27055  42.798  38.232  13.705
61796W        W27056  31.451  29.783  12.126
61797W        W27057  22.765  40.764   1.163
61798W        W27058  44.633  29.089   3.966
61799W        W27059  34.603  20.500  14.483
61800W        W27060  16.044  31.400   1.631
61801W        W27061  13.054  27.027  10.688
61802W        W27062  17.492   2.657   1.729
61803W        W27063  32.013  11.353   4.143
61804W        W27064  11.774   9.811   0.545
61805W        W27065  31.131   1.276   3.884
61806W        W27066   5.391   7.989   2.271
61807W        W27067   8.565   5.083   1.024
61808W        W27068  16.251  40.483  13.188
61809W        W27069   4.909  23.606   2.741
61810W        W27070  41.620   5.901  12.078
61811W        W27071   7.296  26.391   2.811
61812W        W27072  36.340  21.617   1.251
61813W        W27073  40.747  12.339  11.627
61814W        W27074  32.468  28.260  11.141
61815W        W27075  25.739   3.417  10.590
61816W        W27076  12.795  25.885  12.574
61817W        W27077  42.893  35.848   2.381
61818W        W27078  11.665   3.794   0.383
61819W        W27079  27.916  17.832  13.563
61820W        W27080  34.078   1.419   2.784
61821W        W27081  26.461  38.479   4.719
61822W        W27082   8.641   4.436  10.707
61823W        W27083   2.798  43.516   1.591
61824W        W27084  19.053  22.894   5.205
61825W        W27085   3.480  38.817   3.794
61826W        W27086  21.054   2.058   4.422
61827W        W27087   0.420   8.804  10.637
61828W        W27088  18.561  25.513   3.352
61829W        W27089  21.171  37.105  10.274
61830W        W27090   3.536   5.856  13.475
61831W        W27091  43.467  12.552  14.960
61832W        W27092   1.767  11.510  11.978
61833W        W27093  29.737   4.667  10.164
61834W        W27094  42.460  25.174   0.465
61835W        W27095  14.479   3.728   1.353
61836W        W27096  30.502   4.630   0.308
61837W        W27097  28.221   9.178  13.451
61838W        W27098   0.403   1.805  14.959
61839W        W27099  14.785  36.318   2.143
61840W        W27100  40.160   7.881   0.984
61841W        W27101  40.866  11.778  10.554
61842W        W27102  33.388  14.846   1.553
61843W        W27103  17.855  17.183  13.032
61844W        W27104  28.521  24.422   2.818
61845W        W27105  27.523  16.487  11.327
61846W        W27106  30.181  32.745  14.772
61847W        W27107  15.556  19.774   9.968
61848W        W27108  32.670   7.971   4.723
61849W        W27109  32.631   8.705   2.284
61850W        W27110   7.189  27.351  11.847
61851W        W27111  24.236   6.519   1.869
61852W        W27112  30.122   9.373  12.443
61853W        W27113   8.808  34.037   2.244
61854W        W27114  32.764  36.874   3.884
61855W        W27115  26.114  15.742   4.342
61856W        W27116  36.001  38.182   1.900
61857W        W27117  37.919  20.752   4.080
61858W        W27118   7.645   6.627  12.893
61859W        W27119  10.148  43.210  13.844
61860W        W27120  43.507  29.029   1.842
61861W        W27121  38.344  19.361  14.428
61862W        W27122  43.500   4.170  11.562
61863W        W27123  38.431  43.168  12.919
61864W        W27124   0.190  24.234   2.769
61865W        W27125   4.381  10.697   1.770
61866W        W27126   3.783  37.098  13.536
61867W        W27127  36.059  15.604   4.035
61868W        W27128  29.515  38.573  14.510
61869W        W27129  21.923  13.306   4.148
61870W        W27130   8.951   7.141   0.304
61871W        W27131  22.504  39.714  10.996
61872W        W27132   4.478  18.784  12.116
61873W        W27133   8.750  25.523   3.169
61874W        W27134  13.198   3.339  12.141
61875W        W27135  42.715  12.891  13.907
61876W        W27136  25.713  24.618  11.180
61877W        W27137  15.065   9.866  12.061
61878W        W27138   9.604  34.253  11.509
61879W        W27139  25.610  21.298   4.174
61880W        W27140   4.416  38.377   3.248
61881W        W27141   0.476  40.369  12.923
61882W        W27142  32.057  44.322  14.095
61883W        W27143  26.993  38.507  10.453
61884W        W27144  24.022  42.884  13.981
61885W        W27145  34.545  34.592  11.064
61886W        W27146  37.049  16.704   1.728
61887W        W27147  34.609  44.524   4.997
61888W        W27148  32.976  40.843  11.845
61889W        W27149  37.518  37.837  12.123
61890W        W27150  40.999   8.205  11.425
61891W        W27151  14.264  13.085  11.842
61892W        W27152  42.253  40.393   2.685
61893W        W27153  36.527   5.749  11.234
61894W        W27154  24.908  29.726   1.562
61895W        W27155  14.847  32.197  12.232
61896W        W27156  30.921  31.890   1.960
61897W        W27157   2.339  14.053   2.128
61898W        W27158   6.703  28.236   1.835
61899W        W27159   0.339  32.598   3.591
61900W        W27160  15.229  21.518  14.191
61901W        W27161  43.810  36.846   3.210
61902W        W27162  42.342  21.087   2.246
61903W        W27163  33.816   8.579   0.971
61904W        W27164  31.883  11.859  11.420
61905W        W27165  43.945  44.507  11.215
61906W        W27166  11.228  29.410  14.284
61907W        W27167  40.770  10.369   3.363
61908W        W27168  14.540   4.305   4.149
61909W        W27169  24.642  35.597   1.260
61910W        W27170   1.374  34.373  12.441
61911W        W27171  10.280  11.592  12.193
61912W        W27172   7.201   0.346   0.293
61913W        W27173  25.051  26.542  12.137
61914W        W27174  43.752  27.327  14.057
61915W        W27175  38.619  20.562  10.321
61916W        W27176   4.286  31.588  13.977
61917W        W27177   5.755  38.994  12.380
61918W        W27178  40.288  29.491   1.725
61919W        W27179  16.987  37.345  11.163
61920W        W27180  21.070  38.678   4.468
61921W        W27181   0.894  28.655   0.919
61922W        W27182  17.223  21.500   2.785
61923W        W27183  19.107  34.406   3.606
61924W        W27184   2.225  29.467   0.372
61925W        W27185  43.402  41.934  11.409
61926W        W27186  43.374  12.359  12.629
61927W        W27187  23.965   5.776  12.950
61928W        W27188  31.950   7.905  12.543
61929W        W27189  24.378  10.990   3.706
61930W        W27190   2.015  15.715  13.958
61931W        W27191  18.582   5.872  13.653
61932W        W27192  29.198  34.600   0.365
61933W        W27193   8.387   7.028  12.610
61934W        W27194  27.186  25.138  13.136
61935W        W27195  15.481  26.075  11.887
61936W        W27196   3.040  44.742  11.688
61937W        W27197  30.496  12.117  10.672
61938W        W27198   9.770  20.762  10.964
61939W        W27199  13.817  37.138  11.639
61940W        W27200   7.866   7.181   4.188
61941W        W27201  25.482  24.656  11.636
61942W        W27202  20.532  26.939   4.655
61943W        W27203   1.491   8.354   2.773
61944W        W27204  33.100  17.248   4.376
61945W        W27205  31.958   7.245  12.987
61946W        W27206  42.775   4.890  11.733
61947W        W27207  12.439  13.223  11.041
61948W        W27208  22.732  18.040  12.875
61949W        W27209  12.990  24.125   0.274
61950W        W27210   1.899  13.491   1.610
61951W        W27211  39.420  24.179  10.414
61952W        W27212  34.326   4.815   4.653
61953W        W27213  39.533   3.697   0.862
61954W        W27214  31.989  38.597   3.732
61955W        W27215  42.039  22.114  13.417
61956W        W27216  34.583  30.011  14.792
61957W        W27217  29.918   5.882   1.907
61958W        W27218  13.854  18.584   1.193
61959W        W27219  10.300  25.115   1.007
61960W        W27220  34.658  35.105  11.890
61961W        W27221  36.524  18.063  10.492
61962W        W27222  24.480  18.773  13.821
61963W        W27223   4.325   1.611  13.707
61964W        W27224  42.486  20.952   3.127
61965W        W27225  26.230  17.512   2.496
61966W        W27226  36.972  40.981   2.853
61967W        W27227  26.702  12.819  14.935
61968W        W27228  23.655  34.854   1.277
61969W        W27229  36.947   4.984  13.276
61970W        W27230  23.514   3.815  13.798
61971W        W27231  37.927  26.049   3.250
61972W        W27232  39.433  15.147   1.883
61973W        W27233  30.694   8.334  14.903
61974W        W27234  10.799  17.223  13.243
61975W        W27235  26.965  37.969  14.405
61976W        W27236   3.777   0.541   2.606
61977W        W27237  16.083   3.404  13.768
61978W        W27238  18.784  43.420   0.526
61979W        W27239  10.787  18.152   4.186
61980W        W27240  35.658  33.653   3.669
61981W        W27241   0.361  10.267  14.333
61982W        W27242  10.372  26.731   2.114
61983W        W27243  18.847  15.887  11.456
61984W        W27244   7.457  21.103   1.810
61985W        W27245  44.269  37.106  12.897
61986W        W27246  37.753  23.686   1.774
61987W        W27247  36.433   4.542   0.466
61988W        W27248   5.771  37.263   2.784
61989W        W27249  13.719  34.065  11.619
61990W        W27250  23.436  19.741   4.430
61991W        W27251  28.001  21.076   0.310
61992W        W27252   7.357  39.400  13.308
61993W        W27253  36.827  39.370  13.543
61994W        W27254  13.724  11.367   3.066
61995W        W27255  15.338   1.962   2.194
61996W        W27256  15.277  20.251  14.101
61997W        W27257  20.266  13.244   1.856
61998W        W27258  35.094  35.457  11.126
61999W        W27259   9.147  39.156  13.111
62000W        W27260   4.792   6.765   2.966
62001W        W27261   1.223  27.660   4.097
62002W        W27262  30.675   5.967  14.875
62003W        W27263   6.393  38.048   4.610
62004W        W27264  10.178  43.400   4.176
62005W        W27265  42.829  10.243   4.908
62006W        W27266  13.612   2.563  13.917
62007W        W27267  30.406  15.592   3.691
62008W        W27268  18.665  16.535  10.648
62009W        W27269  15.533  37.566  10.291
62010W        W27270  11.808  27.673  11.057
62011W        W27271  34.902  39.414   4.307
62012W        W27272   5.256   3.515   1.879
62013W        W27273   5.332  43.091   1.876
62014W        W27274   3.177  44.769   4.916
62015W        W27275  11.102  30.084   2.342
62016W        W27276  17.124  44.373   4.779
62017W        W27277  19.294   7.904  10.717
62018W        W27278  43.979  38.939  11.539
62019W        W27279   8.727  20.012   4.105
62020W        W27280  28.449  19.232  11.633
62021W        W27281  42.838  44.982   2.892
62022W        W27282  32.781   0.736  14.315
62023W        W27283  11.086  28.220   2.291
62024W        W27284  23.746   2.630   0.318
62025W        W27285   9.383  35.310  11.385
62026W        W27286  38.819  21.316   3.233
62027W        W27287  23.726   9.648  14.925
62028W        W27288  17.817  19.604  14.547
62029W        W27289   6.350  22.593  11.729
62030W        W27290   8.139  17.658  10.774
62031W        W27291  42.353  24.703   0.643
62032W        W27292  29.346  44.374  11.973
62033W        W27293   6.139   1.555  14.848
62034W        W27294  28.086  40.028   2.676
62035W        W27295   3.769  36.937  11.345
62036W        W27296   9.769  40.364  11.554
62037W        W27297  44.313  16.932  12.933
62038W        W27298  23.679   0.290  10.632
62039W        W27299   0.473  29.953   0.912
62040W        W27300  34.897   7.483   2.761
62041W        W27301   5.899  15.557   4.687
62042W        W27302  35.518  36.131   4.152
62043W        W27303  39.331  34.175   3.896
62044W        W27304  36.122  18.446  14.764
62045W        W27305  21.497  15.388  14.465
62046W        W27306  12.914  24.686   0.877
62047W        W27307   9.568   0.859  11.988
62048W        W27308  28.128   6.157  11.097
62049W        W27309   9.971  13.850  10.754
62050W        W27310  30.777  44.048  14.021
62051W        W27311  30.043  44.029   1.829
62052W        W27312  29.997  40.022   1.340
62053W        W27313  21.436   6.661  11.155
62054W        W27314  30.720   2.248  11.183
62055W        W27315  29.744  20.104  11.007
62056W        W27316  44.835  15.844  10.503
62057W        W27317  23.019  19.789   1.566
62058W        W27318  27.605  15.486  11.539
62059W        W27319  34.981   4.895   0.305
62060W        W27320   3.410   3.377   1.473
62061W        W27321  10.923  11.150   4.132
62062W        W27322  44.846  21.438  12.909
62063W        W27323  15.765  10.925  10.635
62064W        W27324   2.608  30.870  14.951
62065W        W27325  23.466  37.052   2.844
62066W        W27326  35.520   7.434   4.570
62067W        W27327  29.313   4.811  11.966
62068W        W27328  11.183  39.475  10.903
62069W        W27329  12.505  22.996  14.845
62070W        W27330  34.714  12.657   5.092
62071W        W27331   8.912   2.505   0.758
62072W        W27332   5.652  43.325   0.321
62073W        W27333  36.529  21.149  13.189
62074W        W27334  20.923  43.453   2.737
62075W        W27335  21.584  40.191  10.227
62076W        W27336  38.390  20.675  11.816
62077W        W27337  18.208  37.042   3.329
62078W        W27338  23.465   1.424   2.792
62079W        W27339  44.241  40.963  12.614
62080W        W27340   9.421  12.463  11.961
62081W        W27341  12.263  27.944   3.013
62082W        W27342  40.375  21.539   3.743
62083W        W27343  38.385  14.979  10.607
62084W        W27344  26.647   6.173   1.728
62085W        W27345   3.402   9.596   0.320
62086W        W27346  43.597  10.364  12.441
62087W        W27347  36.086  24.114   2.916
62088W        W27348  20.827   2.867  10.684
62089W        W27349  12.684   0.223  13.881
62090W        W27350  14.385  14.163   2.214
62091W        W27351  24.060  27.435  11.581
62092W        W27352  18.936  36.897   2.248
62093W        W27353  22.602  20.253   3.185
62094W        W27354  42.458  44.277  11.171
62095W        W27355  20.708   3.821  12.948
62096W        W27356  39.288  38.361  13.905
62097W        W27357  15.066  19.664  14.988
62098W        W27358  29.986  18.587  11.637
62099W        W27359  34.562  27.315   3.216
62100W        W27360  32.077  33.384  14.385
62101W        W27361  45.000  23.009  14.401
62102W        W27362  40.241  41.589   3.169
62103W        W27363  20.779  18.307   2.619
62104W        W27364  42.801   6.502  14.881
62105W        W27365  11.408   4.670  13.951
62106W        W27366  21.057  39.524  12.496
62107W        W27367  28.632   8.827  13.145
62108W        W27368  31.688  36.621  12.131
62109W        W27369   3.141  11.865   3.651
62110W        W27370  21.232  14.575  11.667
62111W        W27371   5.351  15.716   1.853
62112W        W27372  20.579  21.322  12.879
62113W        W27373  44.645  11.183   0.993
62114W        W27374  10.641   1.940   4.931
62115W        W27375   2.472  17.220  12.541
62116W        W27376  41.416  20.731   3.990
62117W        W27377  14.343   9.899  13.264
62118W        W27378  24.115  32.539  10.611
62119W        W27379  21.451  28.241   0.936
62120W        W27380   0.450  29.935  14.787
62121W        W27381  10.755   8.377   1.753
62122W        W27382  38.970  27.392  12.680
62123W        W27383  43.600   4.321   1.676
62124W        W27384  39.189  19.932  10.230
62125W        W27385   3.088  13.182   4.013
62126W        W27386   9.148  13.291   0.776
62127W        W27387   8.070  41.525  14.374
62128W        W27388  11.436  26.126   9.906
62129W        W27389  21.913  33.651   5.484
62130W        W27390  28.219  19.697   0.241
62131W        W27391  27.467  42.460  13.611
62132W        W27392  27.014  31.378   3.282
62133W        W27393  42.833  13.026   1.557
62134W        W27394  34.636  10.823   1.873
62135W        W27395  44.811  27.871   1.282
62136W        W27396  29.226  29.161  13.048
62137W        W27397  15.909   8.156   4.898
62138W        W27398  40.378  32.943   1.620
62139W        W27399  42.478   5.129  10.464
62140W        W27400  33.714  35.501   0.294
62141W        W27401  12.382  35.207   0.531
62142W        W27402  11.159  42.090   1.980
62143W        W27403  35.365  15.184   4.672
62144W        W27404  17.103  34.890  11.126
62145W        W27405   6.688  20.167  10.557
62146W        W27406  25.607  40.313   2.699
62147W        W27407   3.433  24.059   2.884
62148W        W27408   5.362  35.461   2.748
62149W        W27409  10.712  40.582   1.644
62150W        W27410  15.858   4.439   4.004
62151W        W27411  15.199  14.033  11.441
62152W        W27412  24.486  41.979  10.842
62153W        W27413   4.542   4.973  14.850
62154W        W27414  17.743   7.797  12.761
62155W        W27415  25.561  22.129  14.078
62156W        W27416  27.414  26.599   1.273
62157W        W27417  36.406  36.351  12.108
62158W        W27418  19.581  36.913   1.029
62159W        W27419   0.918   9.620  14.439
62160W        W27420   9.655  30.474   3.608
62161W        W27421  32.569  22.989   2.148
62162W        W27422  24.068  28.898  10.828
62163W        W27423  20.820  40.908   1.306
62164W        W27424  25.527  13.444   1.473
62165W        W27425   0.793  18.267   0.919
62166W        W27426  21.630   0.712   1.351
62167W        W27427   7.655  17.940   2.906
62168W        W27428   5.139  34.456  13.056
62169W        W27429  20.841  29.743   2.898
62170W        W27430  15.124  15.772   2.131
62171W        W27431  29.891  19.860  14.241
62172W        W27432  29.939  33.910  12.886
62173W        W27433  37.026   8.232   3.585
62174W        W27434  12.270  42.718   4.648
62175W        W27435  35.652  36.523   2.321
62176W        W27436  37.515  39.919   1.670
62177W        W27437  24.038  39.025  10.695
62178W        W27438  25.889  17.195   2.833
62179W        W27439  31.203  10.455   3.720
62180W        W27440   3.225  41.255  11.462
62181W        W27441  23.576  42.423  13.529
62182W        W27442  26.556  15.843   0.840
62183W        W27443  21.757   6.161   3.935
62184W        W27444  21.896   3.299   4.538
62185W        W27445   2.429  18.143   1.337
62186W        W27446  40.275  14.348   5.101
62187W        W27447   2.437  16.858  13.378
62188W        W27448  21.537  31.015   3.607
62189W        W27449  42.936  18.059   2.673
62190W        W27450  39.980   3.480  14.329
62191W        W27451   3.733   0.491  13.429
62192W        W27452  20.762  15.588  11.090
62193W        W27453  41.314  14.270  11.928
62194W        W27454  32.222   5.200   4.129
62195W        W27455  38.952  17.939  11.962
62196W        W27456  33.012  40.423   1.309
62197W        W27457  21.469  21.013   5.429
62198W        W27458  12.255  26.941   0.818
62199W        W27459   7.113  38.809  10.779
62200W        W27460  19.756  23.335   3.159
62201W        W27461  43.431   4.433   3.090
62202W        W27462   4.252   6.655  10.795
62203W        W27463  13.269  43.088   1.220
62204W        W27464   5.254  27.472  10.773
62205W        W27465  29.251   3.916  11.853
62206W        W27466  41.055  22.786  10.463
62207W        W27467  38.640   0.425  10.290
62208W        W27468  22.216  31.850   1.200
62209W        W27469  16.472  10.819  12.060
62210W        W27470   2.838   0.515   1.439
62211W        W27471   9.245  38.656  13.348
62212W        W27472  32.834  38.538  14.824
62213W        W27473  14.471  27.770   4.326
62214W        W27474  22.806  13.521  13.927
62215W        W27475  12.501  14.161  10.800
62216W        W27476   8.632   3.329  12.629
62217W        W27477  12.052  10.239   0.738
62218W        W27478  24.200  13.235  13.573
62219W        W27479   7.876   0.991  14.223
62220W        W27480  18.727  15.850   4.655
62221W        W27481  34.591  42.229  11.466
62222W        W27482   1.455  31.934  14.189
62223W        W27483  43.348   3.002  14.788
62224W        W27484   0.888  32.130  12.224
62225W        W27485  42.936  21.999   3.589
62226W        W27486  16.161  39.787   2.948
62227W        W27487  21.294  18.683   3.259
62228W        W27488  10.285   4.870   2.231
62229W        W27489  17.351  37.429   4.138
62230W        W27490  21.570  42.076  13.891
62231W        W27491  32.843  32.840  10.653
62232W        W27492  12.597  32.971  12.682
62233W        W27493  21.607  22.579   1.397
62234W        W27494  24.793  16.871   0.964
62235W        W27495  35.316   5.579  10.405
62236W        W27496  38.439  30.889   1.257
62237W        W27497   1.304   7.944  12.415
62238W        W27498  41.850  26.251  10.710
62239W        W27499  29.692  29.167   1.380
62240W        W27500  27.458  35.934  12.001
62241W        W27501   0.168   6.717   1.853
62242W        W27502   8.589   7.173  12.144
62243W        W27503  38.786  33.581  14.910
62244W        W27504  30.869   1.485   2.889
62245W        W27505  23.544  40.600  11.111
62246W        W27506  16.404  33.097  14.545
62247W        W27507  30.604  25.981   2.345
62248W        W27508  22.605  38.924  13.207
62249W        W27509  15.978  13.453   2.754
62250W        W27510  37.981  40.879   3.111
62251W        W27511  43.381  42.731  10.772
62252W        W27512   4.746  10.504  12.668
62253W        W27513  43.111  23.441   2.906
62254W        W27514  40.355  12.763  12.977
62255W        W27515   5.337  19.758  11.334
62256W        W27516  42.029  20.910  12.935
62257W        W27517  12.038  21.584   2.195
62258W        W27518  29.596  27.901  14.468
62259W        W27519  10.929   6.222  13.707
62260W        W27520  20.102  30.076   4.514
62261W        W27521   9.004  42.911  10.419
62262W        W27522  23.955   4.257   0.382
62263W        W27523  19.319  26.493   0.957
62264W        W27524  25.091  44.281   3.701
62265W        W27525  37.100   2.392   3.648
62266W        W27526   0.222  38.259  12.625
62267W        W27527  10.181  15.350   3.234
62268W        W27528  21.504  39.428  11.643
62269W        W27529  26.112   7.673  13.300
62270W        W27530   4.854  34.231  13.952
62271W        W27531   6.354  22.187   4.932
62272W        W27532  10.599  26.955   1.261
62273W        W27533  20.635  43.898   3.373
62274W        W27534  18.491  21.555   1.525
62275W        W27535  19.210  35.610   3.392
62276W        W27536  21.594  29.677   0.519
62277W        W27537  44.517  38.809  12.436
62278W        W27538   5.771  19.457  14.121
62279W        W27539  23.000   9.205  12.592
62280W        W27540  41.857  21.682  13.076
62281W        W27541  43.770   4.367  12.437
62282W        W27542  40.861  29.676  11.155
62283W        W27543   1.831  31.493  11.145
62284W        W27544  29.640  19.545   1.814
62285W        W27545   0.301  38.666   4.526
62286W        W27546  26.116  40.591   1.730
62287W        W27547  10.444  11.394   4.134
62288W        W27548  23.560   9.282   2.749
62289W        W27549  26.635   3.462  13.343
62290W        W27550  41.931  17.660  13.278
62291W        W27551  24.660   6.958   1.166
62292W        W27552  30.557  44.047  10.551
62293W        W27553  39.005  22.214  12.471
62294W        W27554  42.893  10.117   0.765
62295W        W27555  17.263  35.096   2.377
62296W        W27556  35.546  44.890   1.704
62297W        W27557  41.892  28.568   0.583
62298W        W27558  14.549  37.553   1.370
62299W        W27559  22.314  40.774  13.876
62300W        W27560   4.410  40.586   3.279
62301W        W27561  14.444   0.966  14.460
62302W        W27562  30.243  15.137  13.232
62303W        W27563  39.896  39.870   0.417
62304W        W27564  16.494  17.057   5.420
62305W        W27565  35.843  18.619   2.673
62306W        W27566  44.323  15.808  10.400
62307W        W27567  44.970  23.221  12.518
62308W        W27568  43.854  35.367  14.801
62309W        W27569  23.343   3.417   1.459
62310W        W27570   2.742   0.977   4.752
62311W        W27571  40.473  37.906  13.359
62312W        W27572  27.112  38.554   3.137
62313W        W27573  34.240  28.047   1.757
62314W        W27574   3.722  23.399   2.302
62315W        W27575  15.407  12.825   4.109
62316W        W27576  25.532  26.150  10.040
62317W        W27577   5.461   1.473  10.613
62318W        W27578  43.762  29.789  12.946
62319W        W27579  36.803  14.467  11.079
62320W        W27580   6.580  36.962  10.775
62321W        W27581  22.246  28.693   1.704
62322W        W27582  18.489  38.812   1.303
62323W        W27583  10.422  33.642  12.966
62324W        W27584  12.717  20.731  12.411
62325W        W27585  41.734  43.513   4.092
62326W        W27586  35.325  24.742   1.255
62327W        W27587  15.670  24.030   4.045
62328W        W27588   4.459   7.058   0.897
62329W        W27589  25.254  16.636   3.043
62330W        W27590  12.979  15.754  13.509
62331W        W27591   1.065  18.965   2.275
62332W        W27592  26.571  30.546  12.794
62333W        W27593  37.530  14.640   4.558
62334W        W27594   8.125   6.456  11.804
62335W        W27595  25.530  33.960   2.963
62336W        W27596   6.892  30.864   0.310
62337W        W27597   0.986  13.596  12.791
62338W        W27598  32.179   8.873  10.400
62339W        W27599  26.412  22.241   1.210
62340W        W27600  24.308  32.058   1.869
62341W        W27601  38.391  18.659   3.502
62342W        W27602  10.392  21.781  14.515
62343W        W27603  39.356  34.485  11.108
62344W        W27604  31.882  11.183  13.992
62345W        W27605  20.742  24.527   0.458
62346W        W27606  19.865  44.367   2.339
62347W        W27607  28.104   1.220   3.599
62348W        W27608  34.363  24.735  13.502
62349W        W27609   1.707  42.946  14.380
62350W        W27610  11.297  35.888   4.441
62351W        W27611  24.894  20.953  14.370
62352W        W27612  10.122  39.413   1.425
62353W        W27613   9.896  43.094   0.268
62354W        W27614  13.227  40.046   3.745
62355W        W27615  12.015   2.874  11.170
62356W        W27616  31.828  22.640  11.533
62357W        W27617  17.429  17.879  10.616
62358W        W27618  23.407  17.553   1.856
62359W        W27619  15.330   5.966   1.385
62360W        W27620   3.192  23.101  14.546
62361W        W27621  21.156  13.060  13.455
62362W        W27622  31.640   6.970  13.861
62363W        W27623  44.183  37.565  13.923
62364W        W27624  34.316   9.944  10.644
62365W        W27625  42.346  26.530   1.413
62366W        W27626  22.000  23.269   1.637
62367W        W27627   0.871  34.265  10.237
62368W        W27628   4.466  22.665   3.936
62369W        W27629   7.494  43.902  11.915
62370W        W27630   6.065  14.323   0.928
62371W        W27631   4.417  33.540   2.407
62372W        W27632   3.625  31.717   3.716
62373W        W27633   4.705   2.359  11.188
62374W        W27634  28.969   7.005  13.774
62375W        W27635   7.323  41.536   3.911
62376W        W27636  35.825  21.990  12.066
62377W        W27637  27.970  24.732  10.586
62378W        W27638  23.421   3.142   4.834
62379W        W27639  13.078  13.673  11.177
62380W        W27640  34.639  21.505   3.790
62381W        W27641  41.839   4.879  14.958
62382W        W27642  26.996  21.265   3.257
62383W        W27643   5.407  33.381  12.435
62384W        W27644  35.356  44.146  12.537
62385W        W27645  24.259  37.484   0.467
62386W        W27646  17.859  12.174  10.632
62387W        W27647  34.474  38.894  13.604
62388W        W27648  33.294  30.055   3.124
62389W        W27649  35.447  18.133  13.483
62390W        W27650  11.730   2.954  13.419
62391W        W27651   3.165  19.259   0.858
62392W        W27652  23.298  26.500   4.153
62393W        W27653  11.790  43.022  11.513
62394W        W27654  18.624   8.349   1.675
62395W        W27655  29.639   0.311  10.642
62396W        W27656  16.252  18.566   2.378
62397W        W27657  19.088  28.951   0.805
62398W        W27658  17.784  20.637   4.177
62399W        W27659  14.366  18.850  13.392
62400W        W27660  21.584  33.592  11.184
62401W        W27661  33.009  39.473  14.024
62402W        W27662   2.760  41.952   1.819
62403W        W27663   0.207  44.824  11.135
62404W        W27664  36.758   6.960  12.355
62405W        W27665  32.895  16.111  13.347
62406W        W27666  30.051  36.683  12.564
62407W        W27667   2.556  31.406  14.022
62408W        W27668   7.794  33.623   0.512
62409W        W27669   5.583  37.067   3.255
62410W        W27670  13.554  32.464  13.121
62411W        W27671  17.863  19.185   1.238
62412W        W27672   3.878   1.508   2.240
62413W        W27673  18.829  19.977   2.734
62414W        W27674  10.644  21.186   4.501
62415W        W27675  22.030  24.270   1.907
62416W        W27676  35.594  19.290  11.223
62417W        W27677  42.087  41.959  12.081
62418W        W27678   7.494   3.659  14.535
62419W        W27679  21.980  15.329   2.135
62420W        W27680  12.822  40.488  14.376
62421W        W27681  28.698  21.565   2.209
62422W        W27682   4.570  39.303  12.104
62423W        W27683   1.471   5.352   4.510
62424W        W27684  28.571  15.863   3.349
62425W        W27685  18.089   0.770   3.128
62426W        W27686  42.562  23.695   4.502
62427W        W27687  15.252  28.145  13.394
62428W        W27688  17.266  13.862  14.104
62429W        W27689   0.387  30.321   2.828
62430W        W27690  26.981  21.688  12.513
62431W        W27691   7.699   0.582   3.955
62432W        W27692  28.439  19.640   1.075
62433W        W27693   6.456  14.986  13.324
62434W        W27694  41.789  32.642   0.369
62435W        W27695  36.490  19.507   3.086
62436W        W27696  23.495   1.024  12.386
62437W        W27697  19.826   3.860  12.401
62438W        W27698  13.053   8.001  12.457
62439W        W27699  19.621  44.433  11.593
62440W        W27700  37.219   2.224  13.552
62441W        W27701   8.226  19.767  13.582
62442W        W27702  17.718  43.013  11.117
62443W        W27703  41.339  22.210   3.715
62444W        W27704   1.520  33.958  14.020
62445W        W27705  33.325  43.443  12.394
62446W        W27706  44.749   4.791  14.147
62447W        W27707  44.873   8.755   2.083
62448W        W27708  26.363  35.041  14.388
62449W        W27709   4.446  17.193  10.649
62450W        W27710  12.405   9.659  12.356
62451W        W27711  11.419  30.054   1.391
62452W        W27712  42.419  11.029   1.914
62453W        W27713   5.718  24.664  11.555
62454W        W27714   6.612  38.996  13.473
62455W        W27715  10.178  29.235  10.319
62456W        W27716  23.408   1.944  10.962
62457W        W27717  42.424   8.267  10.684
62458W        W27718   3.739   7.912  11.513
62459W        W27719   8.200  12.726  12.102
62460W        W27720   7.986  43.818  14.401
62461W        W27721   8.839  43.332   2.977
62462W        W27722   1.862  21.247   0.025
62463W        W27723  23.004   3.255  10.249
62464W        W27724  30.187  27.359  12.375
62465W        W27725   0.660  38.748   1.809
62466W        W27726   6.435   2.273  13.847
62467W        W27727  38.746  17.506   4.728
62468W        W27728  36.407  32.543   4.063
62469W        W27729  26.308   7.416  14.373
62470W        W27730  39.815   5.217   2.273
62471W        W27731  26.095  30.617   0.761
62472W        W27732  43.467  11.065   1.849
62473W        W27733  29.485  40.837  12.662
62474W        W27734  10.227  19.282   4.519
62475W        W27735  21.547  40.732  13.463
62476W        W27736   2.531   7.952   4.203
62477W        W27737   7.303  35.987   1.264
62478W        W27738  36.532  30.421   0.313
62479W        W27739  24.949  19.425   1.835
62480W        W27740  17.787  27.529  13.485
62481W        W27741  31.986   6.452  12.555
62482W        W27742   1.823  14.704  13.070
62483W        W27743  29.407   2.998  11.728
62484W        W27744  13.779  32.892   4.401
62485W        W27745  23.618  28.622   3.160
62486W        W27746  25.728   7.637  10.963
62487W        W27747  40.257   1.976  13.382
62488W        W27748  15.755   8.281   3.939
62489W        W27749  38.580  35.297   4.677
62490W        W27750   9.237  24.041  10.513
62491W        W27751  19.220   7.818   4.427
62492W        W27752   9.858  13.446   4.561
62493W        W27753  26.216  32.630  13.946
62494W        W27754  10.486   5.312  14.253
62495W        W27755   4.475   8.530  14.567
62496W        W27756  42.947   4.302   2.879
62497W        W27757  10.290   9.192   3.314
62498W        W27758  33.275  12.777   4.197
62499W        W27759  43.490   7.010   5.005
62500W        W27760   8.347  23.233   2.723
62501W        W27761  13.308  10.155   3.396
62502W        W27762  41.212   9.825   2.828
62503W        W27763  42.976  20.178   3.534
62504W        W27764  26.623  29.614  13.943
62505W        W27765  33.951  36.387   0.811
62506W        W27766  33.480  19.684   1.735
62507W        W27767   0.254  43.278  13.863
62508W        W27768  39.915  14.080  13.967
62509W        W27769  21.022  17.368   1.794
62510W        W27770  40.627  27.192  11.414
62511W        W27771  15.202   2.449  14.390
62512W        W27772   4.625   1.812   4.240
62513W        W27773  32.110  40.959   2.264
62514W        W27774  13.022  43.565   2.277
62515W        W27775  25.270  30.590   3.655
62516W        W27776   3.361  44.424  10.763
62517W        W27777  20.536   1.270   4.486
62518W        W27778  31.844  15.988   1.481
62519W        W27779   0.325  38.378  12.016
62520W        W27780  10.369  30.565  12.757
62521W        W27781  24.178  12.848   0.834
62522W        W27782  32.397  26.198  11.604
62523W        W27783  16.847  13.304   4.376
62524W        W27784  30.574   0.344   3.971
62525W        W27785  34.147  15.606  11.324
62526W        W27786  32.110   2.743  11.107
62527W        W27787   6.441  44.142   0.243
62528W        W27788  27.416  40.548  12.456
62529W        W27789  42.891  43.215   3.155
62530W        W27790  24.553  25.098  10.770
62531W        W27791   0.190  35.564  10.770
62532W        W27792  38.457   5.941  13.438
62533W        W27793  14.404  32.528  12.575
62534W        W27794   8.616  44.446  14.269
62535W        W27795  19.249  39.702   3.857
62536W        W27796  38.670  43.514  14.764
62537W        W27797  17.369  38.852  11.068
62538W        W27798  31.067  33.904   0.271
62539W        W27799  37.160  11.428  12.024
62540W        W27800  10.870   3.758   2.832
62541W        W27801  20.737  13.185  10.823
62542W        W27802  30.423  42.289  14.455
62543W        W27803  17.284  26.024  12.967
62544W        W27804   6.737  13.070  11.966
62545W        W27805  27.012  19.118  12.644
62546W        W27806  13.870  29.952  11.097
62547W        W27807  18.704  42.230  13.436
62548W        W27808  28.481  19.193  10.678
62549W        W27809  31.905  31.580  11.226
62550W        W27810  29.932  13.056  10.468
62551W        W27811  16.872  12.538   4.866
62552W        W27812  33.608  40.795   5.030
62553W        W27813   0.239  35.057   1.239
62554W        W27814  21.289  29.535  10.557
62555W        W27815  32.097  21.029  11.078
62556W        W27816  13.392   4.235  11.953
62557W        W27817  13.516  30.945   2.149
62558W        W27818  23.482   3.785  14.979
62559W        W27819  39.066  10.218   1.206
62560W        W27820  38.175  43.000  12.499
62561W        W27821   3.738   4.295  11.157
62562W        W27822  31.297  29.997  11.706
62563W        W27823   2.726  37.126   4.362
62564W        W27824  37.307  34.515  13.033
62565W        W27825  37.263  11.801   1.769
62566W        W27826  13.371  17.169  10.325
62567W        W27827   3.359  17.751   1.197
62568W        W27828  30.937  21.207  11.401
62569W        W27829   1.972  43.262  14.697
62570W        W27830  17.776   0.476  10.684
62571W        W27831  30.440  29.753   3.240
62572W        W27832  10.721  15.450   0.710
62573W        W27833  39.393  33.137  14.777
62574W        W27834  21.779  22.091   2.393
62575W        W27835  38.489   0.729  14.920
62576W        W27836  35.717  26.150  11.755
62577W        W27837  44.247   7.742   0.838
62578W        W27838  12.739  33.201  10.809
62579W        W27839  39.769  12.350  10.797
62580W        W27840  17.871  28.048   3.268
62581W        W27841   5.691  27.004  12.479
62582W        W27842   3.349  36.817  13.653
62583W        W27843  33.746  15.464  11.019
62584W        W27844   2.499  23.803   2.561
62585W        W27845  36.142   0.776   2.615
62586W        W27846   5.384  32.313   3.799
62587W        W27847  16.408  24.470   4.371
62588W        W27848  19.186  27.431  13.654
62589W        W27849  23.200   2.428  13.857
62590W        W27850  27.093  19.181   3.823
62591W        W27851  21.261   9.791   2.245
62592W        W27852  16.476   3.715  13.926
62593W        W27853  38.967   4.964   1.393
62594W        W27854  18.207  17.554   2.420
62595W        W27855  10.179   7.225   2.252
62596W        W27856  28.047  26.646   4.488
62597W        W27857  30.140   0.158   2.401
62598W        W27858  34.357   2.309   2.787
62599W        W27859  22.365  43.097  12.084
62600W        W27860  28.162  36.481  14.565
62601W        W27861  41.390  29.275  12.320
62602W        W27862  29.403  18.140  11.986
62603W        W27863  32.114   2.233  12.898
62604W        W27864  30.277   4.350   1.371
62605W        W27865  15.629   7.193   4.712
62606W        W27866  14.153  22.462  13.971
62607W        W27867   3.767  38.957   4.771
62608W        W27868  15.265  10.215   0.019
62609W        W27869  25.572  35.560  14.458
62610W        W27870  21.016  20.378   3.791
62611W        W27871  34.139  32.689   3.171
62612W        W27872   4.415  16.047  11.613
62613W        W27873  15.078  35.121   0.636
62614W        W27874   9.440  26.682  11.201
62615W        W27875  16.320  41.514   1.646
62616W        W27876  25.079  43.203   1.446
62617W        W27877  28.667  42.282   1.830
62618W        W27878  13.815   0.471   0.912
62619W        W27879  40.508   3.356  14.284
62620W        W27880  15.409   6.643   1.774
62621W        W27881  32.112   9.151   5.119
62622W        W27882  36.622  26.753   4.228
62623W        W27883  18.742  42.237  12.086
62624W        W27884  41.184  22.727  12.127
62625W        W27885  33.073  18.312   0.693
62626W        W27886  37.493  15.134   1.083
62627W        W27887  29.512  12.863  13.838
62628W        W27888  15.753   3.243  14.457
62629W        W27889  15.229  25.818  10.600
62630W        W27890  28.966  11.564   4.523
62631W        W27891  13.550  27.662   1.158
62632W        W27892  19.884   0.318  14.412
62633W        W27893  20.507  32.376   4.919
62634W        W27894   6.010  18.637   0.255
62635W        W27895  31.935  13.719   2.289
62636W        W27896  18.316  25.199   2.863
62637W        W27897  31.330  14.396  11.225
62638W        W27898  37.817  33.557   3.199
62639W        W27899   8.121  23.302  10.726
62640W        W27900  19.235  32.663   4.888
62641W        W27901  44.286  16.117   1.604
62642W        W27902  24.160  44.069   4.598
62643W        W27903  33.320   2.418  14.819
62644W        W27904  12.865  11.299   1.648
62645W        W27905   7.847  21.161  13.319
62646W        W27906  38.908  28.983   0.740
62647W        W27907  17.828  34.494   3.795
62648W        W27908  16.179  24.792  11.648
62649W        W27909  32.215  13.389  14.358
62650W        W27910  10.829  17.739   0.316
62651W        W27911  29.997  18.813  12.988
62652W        W27912  42.796   2.384   2.333
62653W        W27913  37.704  20.845   3.581
62654W        W27914  38.211  19.544  12.086
62655W        W27915  16.206  15.823  13.156
62656W        W27916  31.817  12.107  13.007
62657W        W27917  25.605  17.592  13.758
62658W        W27918  23.152  23.306   2.318
62659W        W27919  43.732  15.107   4.603
62660W        W27920  30.940  44.627  11.144
62661W        W27921   7.579  25.641  14.403
62662W        W27922   8.171  33.552   4.596
62663W        W27923  20.024  18.525   1.874
62664W        W27924  30.757  18.516   3.700
62665W        W27925  17.806  17.495   2.752
62666W        W27926  19.143  34.500   4.855
62667W        W27927   1.276  19.024   4.917
62668W        W27928  11.370  19.101  14.993
62669W        W27929  40.862  13.242  10.696
62670W        W27930   9.801  32.914   2.354
62671W        W27931  38.514  10.580  11.075
62672W        W27932  29.958  24.546   3.497
62673W        W27933  43.601  13.185   3.624
62674W        W27934  13.788  26.138   1.420
62675W        W27935  38.944   9.651  14.776
62676W        W27936  17.386  22.953  13.410
62677W        W27937  41.914  41.565   1.225
62678W        W27938  10.663  44.712   4.053
62679W        W27939  28.169  18.741  12.445
62680W        W27940  41.007  16.595  14.969
62681W        W27941   1.336   8.711  14.817
62682W        W27942  12.683  15.818  11.034
62683W        W27943  36.826   3.795   2.816
62684W        W27944   9.631  39.941   0.704
62685W        W27945  19.123   7.910  11.597
62686W        W27946   8.599  18.524  12.986
62687W        W27947   8.255  20.525   1.600
62688W        W27948  11.652  27.986   3.793
62689W        W27949  32.684  35.529   3.574
62690W        W27950  26.458   0.294   1.095
62691W        W27951  17.084  18.469   9.875
62692W        W27952  36.469   7.318   4.498
62693W        W27953  14.627  24.000   1.043
62694W        W27954  41.920  16.615  13.970
62695W        W27955  14.185  42.331   3.489
62696W        W27956  20.855  38.426  13.450
62697W        W27957  24.326   0.573  13.849
62698W        W27958  40.385  15.989  13.463
62699W        W27959   4.880  33.124   4.616
62700W        W27960   9.626  41.536  10.839
62701W        W27961  21.904  14.880   1.312
62702W        W27962  22.986  29.595  11.738
62703W        W27963   9.279   4.776   4.979
62704W        W27964  19.166  37.644   2.863
62705W        W27965   7.415  19.991   1.312
62706W        W27966   7.154  22.952   1.731
62707W        W27967   4.807  33.632   2.057
62708W        W27968   7.145  25.166   0.861
62709W        W27969  41.992  13.038   2.764
62710W        W27970  31.646  35.889   0.464
62711W        W27971  22.564  28.916  11.083
62712W        W27972   9.452  13.708  12.087
62713W        W27973  38.909  37.476   2.371
62714W        W27974  39.274  20.038  12.801
62715W        W27975  18.535  31.954   3.263
62716W        W27976  15.795  25.485   2.652
62717W        W27977   2.411  19.290  13.386
62718W        W27978  12.630  18.616  12.509
62719W        W27979  14.781  13.829   2.328
62720W        W27980  25.753  12.847   4.898
62721W        W27981  30.532   7.857  14.570
62722W        W27982  41.995  29.142  11.132
62723W        W27983  29.381   8.817  11.185
62724W        W27984  16.708   7.607  12.613
62725W        W27985   3.898  27.077  11.973
62726W        W27986   6.647  21.769   0.919
62727W        W27987  23.011  40.725  11.066
62728W        W27988  13.898  29.594   2.655
62729W        W27989   9.906   9.130  13.010
62730W        W27990   2.495  40.744   0.315
62731W        W27991  20.154  14.967  10.978
62732W        W27992  11.071  14.338  10.590
62733W        W27993  19.732   9.382   2.686
62734W        W27994  39.595  20.836  11.132
62735W        W27995  12.778  27.709   4.195
62736W        W27996  11.616  15.855  13.202
62737W        W27997  33.998  40.249   1.299
62738W        W27998  26.034  19.493  12.021
62739W        W27999   9.106  20.711  14.849
62740W        W28000  11.275   3.408  11.734
62741W        W28001  12.133  18.539   0.750
62742W        W28002  10.877  10.300   1.585
62743W        W28003  30.240  18.621   2.352
62744W        W28004  19.038  13.557   0.261
62745W        W28005  29.391  28.956  13.502
62746W        W28006  33.183   8.901   1.444
62747W        W28007  31.603   3.619   3.312
62748W        W28008  18.622  37.235   0.694
62749W        W28009  11.850  28.709  13.283
62750W        W28010   8.188  34.576  12.187
62751W        W28011  33.447  30.517  12.620
62752W        W28012  24.076  23.553  13.450
62753W        W28013  44.036   1.801   4.227
62754W        W28014   2.861  39.510  11.709
62755W        W28015  27.644  31.560  10.416
62756W        W28016  29.540  22.763  13.363
62757W        W28017  12.398   4.496  14.569
62758W        W28018  11.395  21.775  14.182
62759W        W28019  42.524  23.350  11.012
62760W        W28020  14.687  40.419  11.935
62761W        W28021  15.116  22.602  14.873
62762W        W28022   8.113   0.388  12.567
62763W        W28023  24.315  43.404   0.286
62764W        W28024  36.946  13.371   1.227
62765W        W28025   2.094   8.273  13.049
62766W        W28026   2.622   0.430  14.278
62767W        W28027  33.263  40.656   4.602
62768W        W28028   2.858  28.071   5.010
62769W        W28029   1.783  34.466  11.166
62770W        W28030   4.907  25.132  14.432
62771W        W28031  14.305  33.449  12.536
62772W        W28032  25.907  15.287  12.814
62773W        W28033  33.081  22.981   0.444
62774W        W28034  23.576  19.550   2.733
62775W        W28035   7.763   5.457   2.701
62776W        W28036  41.845  26.409   0.809
62777W        W28037  41.752  12.126  11.806
62778W        W28038  41.110  41.967   1.799
62779W        W28039  24.623  37.534   0.819
62780W        W28040  10.089  22.707  13.025
62781W        W28041  11.187   5.722   0.214
62782W        W28042  42.155  21.981  11.204
62783W        W28043  16.749  10.775  11.426
62784W        W28044  43.881   5.361  12.156
62785W        W28045  11.239   0.707   3.691
62786W        W28046  21.155  44.988  11.845
62787W        W28047  27.773  12.129  10.500
62788W        W28048  26.803  38.145   0.793
62789W        W28049  14.216  35.632   1.693
62790W        W28050   1.460   3.034   5.105
62791W        W28051  41.538  28.714  11.441
62792W        W28052  17.652   0.580   1.932
62793W        W28053  40.002  28.186  13.780
62794W        W28054  26.437  23.725   2.466
62795W        W28055  27.123  38.081   0.351
62796W        W28056   3.417  44.265   3.103
62797W        W28057  43.549  11.583   1.753
62798W        W28058  21.641  12.150   1.050
62799W        W28059  19.906  24.848   2.234
62800W        W28060  43.465  26.656  13.912
62801W        W28061  17.573  34.809  11.776
62802W        W28062  15.701  35.877  11.187
62803W        W28063   9.820  12.694  12.383
62804W        W28064  40.221  26.352   4.317
62805W        W28065  11.883  37.962   1.369
62806W        W28066  12.992  22.348  12.893
62807W        W28067   0.769  38.361   4.587
62808W        W28068  10.399  20.177   9.892
62809W        W28069  35.820  42.287  14.029
62810W        W28070   6.455  14.335  14.953
62811W        W28071  39.075  19.097  11.171
62812W        W28072   2.898   9.207  11.775
62813W        W28073  20.133   3.261   3.365
62814W        W28074  19.910   5.861   3.581
62815W        W28075  29.682  16.174  12.824
62816W        W28076  35.033   8.694  12.074
62817W        W28077  37.874  23.958   0.063
62818W        W28078  39.256  21.193   4.213
62819W        W28079  37.930   3.020   4.687
62820W        W28080  43.771   6.423  13.109
62821W        W28081  21.947  20.629  13.307
62822W        W28082   8.445  27.699  12.478
62823W        W28083  25.279   5.213   1.187
62824W        W28084  30.916   8.180  14.432
62825W        W28085  42.992  24.856  14.275
62826W        W28086  41.819  13.686   0.853
62827W        W28087  38.491  42.869   3.843
62828W        W28088  41.632   8.863  11.578
62829W        W28089   9.824  10.874  13.596
62830W        W28090  32.114  20.468   4.363
62831W        W28091   0.758  10.890   0.684
62832W        W28092  44.456  34.041   0.167
62833W        W28093   9.960  19.057  13.497
62834W        W28094  15.038  11.389   2.834
62835W        W28095  33.814  18.065   0.255
62836W        W28096  15.651   0.348   4.293
62837W        W28097  18.107  43.595  10.521
62838W        W28098  10.329  35.484   3.097
62839W        W28099  20.948  32.468   0.706
62840W        W28100  25.664  44.795   4.146
62841W        W28101  42.516  18.184   0.883
62842W        W28102   1.293  29.712  10.707
62843W        W28103  38.320  33.338  14.929
62844W        W28104  26.782  36.564   5.034
62845W        W28105  42.905  12.940  12.163
62846W        W28106  30.017   1.656  12.451
62847W        W28107  43.359  36.374  14.380
62848W        W28108  38.923   9.852  14.310
62849W        W28109  42.297  43.374  13.131
62850W        W28110  22.728  29.540   2.146
62851W        W28111   4.057   3.013  14.105
62852W        W28112  16.766  11.179   3.623
62853W        W28113  15.022  34.167   0.459
62854W        W28114  33.960  20.657  13.898
62855W        W28115   1.492  10.175  10.220
62856W        W28116   6.416  30.341  14.054
62857W        W28117  23.883  16.601  11.715
62858W        W28118  32.883  21.115   4.357
62859W        W28119  26.031  15.830   0.424
62860W        W28120  14.823  39.444   1.715
62861W        W28121  24.039  36.864   5.052
62862W        W28122   7.859   7.860  13.387
62863W        W28123  22.997  31.332   3.062
62864W        W28124  35.827   6.804  14.858
62865W        W28125  22.253  20.148   1.755
62866W        W28126  20.673  26.188   1.703
62867W        W28127  13.226  35.043   0.124
62868W        W28128  26.451   2.747  14.450
62869W        W28129  22.601  17.467   3.655
62870W        W28130  44.824   4.014  13.451
62871W        W28131  44.896  39.025  14.966
62872W        W28132  38.493  30.017   2.728
62873W        W28133  38.529  35.836   0.400
62874W        W28134  18.987   0.055  10.981
62875W        W28135  26.729  40.948   2.204
62876W        W28136  16.210   5.464  12.745
62877W        W28137  26.136   5.392   0.061
62878W        W28138  13.918  24.040   0.474
62879W        W28139  19.203  14.427  13.474
62880W        W28140   9.694  31.893  13.922
62881W        W28141  23.427  41.431   0.435
62882W        W28142  16.397   8.860  13.564
62883W        W28143   4.459  29.642  11.496
62884W        W28144  26.100  42.899  14.893
62885W        W28145  28.576  13.309  13.971
62886W        W28146  26.683  28.661   4.799
62887W        W28147  15.728   5.438   9.613
62888W        W28148  29.100  14.910   0.258
62889W        W28149  18.506  41.490  13.959
62890W        W28150   6.903  34.545  12.872
62891W        W28151  33.333  20.355  14.504
62892W        W28152  13.301  32.704  11.473
62893W        W28153  41.001   3.612  10.337
62894W        W28154   9.130  22.471   1.313
62895W        W28155  30.062  27.019  13.296
62896W        W28156  44.396  16.462  13.149
62897W        W28157  21.174  44.541   1.654
62898W        W28158  41.808  38.521   2.392
62899W        W28159  30.149  24.410   4.749
62900W        W28160  37.765  40.467   2.855
62901W        W28161  25.892  20.058   3.851
62902W        W28162  17.250  43.661   2.965
62903W        W28163  29.075  31.594   3.844
62904W        W28164  36.539  15.259  14.566
62905W        W28165   1.284  39.877  14.070
62906W        W28166   7.569  14.100   1.934
62907W        W28167   8.619  14.202  11.919
62908W        W28168  29.975  41.343  14.751
62909W        W28169  11.740  20.676   0.352
62910W        W28170  11.092  40.627  13.978
62911W        W28171  18.830  23.829   9.980
62912W        W28172  36.626   7.961  14.474
62913W        W28173  37.998  22.673  10.845
62914W        W28174  37.556  37.926  11.266
62915W        W28175  27.450  39.249   0.539
62916W        W28176   4.603  18.100   2.284
62917W        W28177  16.348  22.286  11.500
62918W        W28178  32.016   3.194  10.903
62919W        W28179  38.654  10.817   2.690
62920W        W28180  29.134  26.226  11.253
62921W        W28181  32.619  20.533  13.570
62922W        W28182  34.728  26.759  10.293
62923W        W28183  36.699   7.434  13.826
62924W        W28184  35.907  21.489  12.085
62925W        W28185  34.356  16.791  11.261
62926W        W28186  38.215  14.508  10.694
62927W        W28187  27.946  18.281   2.764
62928W        W28188   1.901  13.392  12.599
62929W        W28189  32.116  19.641  13.448
62930W        W28190  40.319  21.164   4.093
62931W        W28191  33.630  23.977   1.308
62932W        W28192  11.013  30.424   9.618
62933W        W28193   7.386  38.312  12.039
62934W        W28194  16.343  32.607  14.340
62935W        W28195  31.214  15.593   4.608
62936W        W28196  39.084   9.277  11.923
62937W        W28197   0.259  38.180   3.687
62938W        W28198  41.145  31.656   3.043
62939W        W28199  28.967  14.140  14.062
62940W        W28200  19.151  43.244   0.885
62941W        W28201  14.738  17.182  12.858
62942W        W28202  15.179   2.019   3.127
62943W        W28203   5.826   6.223   3.933
62944W        W28204  24.091  14.913  13.375
62945W        W28205  19.481  26.987   4.506
62946W        W28206  39.320  43.758   1.864
62947W        W28207   7.601  25.834   0.249
62948W        W28208   4.808  34.054  13.069
62949W        W28209  38.384  10.630   4.535
62950W        W28210  26.835   6.441   9.608
62951W        W28211   5.893   3.107   0.677
62952W        W28212   4.193  14.173   2.492
62953W        W28213  41.014   5.118  12.167
62954W        W28214  19.834  21.421  10.875
62955W        W28215  30.620  33.482   2.335
62956W        W28216  16.999  40.453  14.422
62957W        W28217  43.061  20.678  11.152
62958W        W28218  42.471  36.800   3.827
62959W        W28219  44.560  41.939   4.969
62960W        W28220  23.594   5.873   2.715
62961W        W28221  19.641  23.243  12.417
62962W        W28222  10.673  20.113  14.813
62963W        W28223  28.993   1.888   4.368
62964W        W28224  43.808  19.822  11.095
62965W        W28225   9.558  27.002  13.135
62966W        W28226   2.724  27.815  11.977
62967W        W28227  34.502   8.507   0.449
62968W        W28228   1.542  33.830   4.364
62969W        W28229   9.444  15.073  14.949
62970W        W28230  36.911   9.629   2.292
62971W        W28231  24.633  44.687  12.431
62972W        W28232  26.189  38.572   2.898
62973W        W28233  40.049  44.962  12.940
62974W        W28234  27.906  32.689  14.522
62975W        W28235  28.680  36.536   4.813
62976W        W28236  15.729  12.751   1.214
62977W        W28237  32.836  38.766   4.587
62978W        W28238  44.380  29.364  12.049
62979W        W28239  41.980  20.769   0.687
62980W        W28240  10.739  12.543  12.471
62981W        W28241  41.256  19.771  11.937
62982W        W28242  27.141  27.973   4.595
62983W        W28243   4.446  23.025  12.846
62984W        W28244  22.536  18.522  14.512
62985W        W28245  15.691   5.772  10.005
62986W        W28246  36.693   2.377   4.581
62987W        W28247  28.098  17.759  11.156
62988W        W28248  36.965   0.294   4.461
62989W        W28249  41.319  36.385  10.761
62990W        W28250   4.629   0.970   1.224
62991W        W28251   3.543   0.041   4.211
62992W        W28252   1.756  31.485   4.432
62993W        W28253  12.121  34.821   2.748
62994W        W28254  28.148  19.776   1.509
62995W        W28255  37.908  24.673   1.403
62996W        W28256  24.221  42.049  13.972
62997W        W28257   2.720  10.405  12.495
62998W        W28258  39.615   5.893  14.309
62999W        W28259  36.617   4.714  13.583
63000W        W28260  36.601  26.869   3.277
63001W        W28261  21.506  16.686  14.677
63002W        W28262   9.904  30.828   5.101
63003W        W28263  27.983   7.212  13.261
63004W        W28264   3.666   7.486   1.918
63005W        W28265  21.685   4.018  10.289
63006W        W28266   4.039  25.249  12.514
63007W        W28267  29.928  42.062   0.285
63008W        W28268   8.867   5.425  12.510
63009W        W28269   7.507  43.600   3.507
63010W        W28270  22.213   3.290  10.709
63011W        W28271  20.585  14.547  14.433
63012W        W28272  16.733  16.433   1.841
63013W        W28273  26.155  20.263  12.973
63014W        W28274  27.862  32.053   2.116
63015W        W28275  38.775  14.599  10.702
63016W        W28276  42.472  31.544  14.919
63017W        W28277   8.372  35.014   4.437
63018W        W28278   0.969  21.072  14.515
63019W        W28279  33.964  39.046   5.043
63020W        W28280   9.077  13.855   4.291
63021W        W28281  28.004   6.419   1.589
63022W        W28282   2.268  34.005   0.840
63023W        W28283  33.013  15.909  14.413
63024W        W28284  38.106  14.328   4.154
63025W        W28285  29.121   1.691   1.697
63026W        W28286  27.378  39.917  10.949
63027W        W28287  43.046   5.390  10.536
63028W        W28288   4.481  34.176  14.322
63029W        W28289  35.196  12.077  14.551
63030W        W28290  26.543  24.485   1.747
63031W        W28291  10.803  15.622   1.186
63032W        W28292  21.436  15.022   0.710
63033W        W28293  43.091   8.578   3.236
63034W        W28294  32.974  18.336  14.910
63035W        W28295  13.617  18.384   4.110
63036W        W28296  26.528  18.165  14.333
63037W        W28297   6.336   7.506   1.265
63038W        W28298  37.448  15.042  14.775
63039W        W28299  21.099   2.311   0.859
63040W        W28300  26.127  43.476  10.622
63041W        W28301   0.103  29.408   2.680
63042W        W28302  35.933  38.111  10.744
63043W        W28303   7.925  18.150  12.536
63044W        W28304  11.543  21.440   2.222
63045W        W28305  27.029   6.339   5.043
63046W        W28306  43.421  35.929   1.175
63047W        W28307  33.472  39.954  14.715
63048W        W28308   5.457  18.224   0.764
63049W        W28309   3.843  36.584   1.568
63050W        W28310   2.721  12.376  10.722
63051W        W28311  25.026  30.985  14.867
63052W        W28312  18.054  40.627   0.722
63053W        W28313   3.335  10.345   3.710
63054W        W28314   0.745  38.404   0.433
63055W        W28315  23.618  18.464  14.758
63056W        W28316  31.257  11.040   4.925
63057W        W28317  38.241  15.590  11.448
63058W        W28318   3.207  43.084  11.155
63059W        W28319  43.592   9.579  10.093
63060W        W28320   1.604  42.774   2.708
63061W        W28321  34.856  34.458  13.319
63062W        W28322  40.779  44.987   3.823
63063W        W28323  33.582   9.029   1.134
63064W        W28324  31.905  25.788   2.312
63065W        W28325  37.989  36.784   2.844
63066W        W28326   3.621  25.737   3.716
63067W        W28327  14.356  36.388   0.332
63068W        W28328  33.449  44.419   3.641
63069W        W28329  25.271  25.148   0.917
63070W        W28330   6.917  29.298   4.698
63071W        W28331  30.085  28.695  12.130
63072W        W28332  13.929  34.196   2.162
63073W        W28333  21.981  35.607   3.435
63074W        W28334  40.784  26.312  12.838
63075W        W28335  23.294  21.848  11.950
63076W        W28336   0.956  37.162   3.682
63077W        W28337  27.942  24.310   0.261
63078W        W28338  11.996  17.151   4.170
63079W        W28339   8.347  31.527   1.254
63080W        W28340   3.703  27.365  10.792
63081W        W28341   3.747  41.618  12.990
63082W        W28342  35.483  10.506  11.682
63083W        W28343  19.933  29.409   1.854
63084W        W28344  31.853  24.803  13.216
63085W        W28345  12.342  22.968   0.339
63086W        W28346  17.569  13.973   4.181
63087W        W28347   5.205  30.479   4.224
63088W        W28348  28.417   4.017   1.410
63089W        W28349   9.381   8.734  14.850
63090W        W28350  28.021  34.137   3.291
63091W        W28351  31.048  19.096  14.564
63092W        W28352   2.858  28.830  13.020
63093W        W28353  18.021  29.059  14.880
63094W        W28354  19.521  44.097  14.890
63095W        W28355  26.121  17.645   2.970
63096W        W28356  34.579  44.374  12.015
63097W        W28357  34.667  31.478  14.295
63098W        W28358  20.289  15.092   2.391
63099W        W28359  27.155   8.310  10.998
63100W        W28360  21.244  15.425   2.232
63101W        W28361  33.898   3.882  14.569
63102W        W28362  15.691  41.935  14.239
63103W        W28363  42.826  25.033   0.101
63104W        W28364  23.271  35.466   0.424
63105W        W28365   4.679  32.642   4.632
63106W        W28366  33.780  33.565   3.460
63107W        W28367   5.445  17.207   2.248
63108W        W28368  26.668  41.096   0.872
63109W        W28369   1.041  34.764   5.108
63110W        W28370  15.693  11.770   4.108
63111W        W28371  18.454  22.752   0.213
63112W        W28372  34.562  15.685   4.398
63113W        W28373   4.112   7.806   3.118
63114W        W28374  33.351  40.046  10.745
63115W        W28375  34.671  18.086  14.559
63116W        W28376  37.815  19.985   2.789
63117W        W28377  23.751   3.010   1.689
63118W        W28378  15.641  36.046   4.048
63119W        W28379  37.524   9.698  11.920
63120W        W28380   3.264  11.837  14.736
63121W        W28381  18.589  43.069  13.783
63122W        W28382  12.409  42.851   4.183
63123W        W28383  43.195  20.986   2.627
63124W        W28384  18.638  21.436  14.027
63125W        W28385  24.617   6.792   2.951
63126W        W28386  36.590  43.344   4.060
63127W        W28387  35.859   7.475  12.165
63128W        W28388  13.420   2.522   0.553
63129W        W28389  15.255  40.903  11.628
63130W        W28390   0.940   5.381  12.117
63131W        W28391  42.350  38.553   2.925
63132W        W28392  13.982   8.752  12.050
63133W        W28393   9.316  38.817  14.025
63134W        W28394  20.842  41.180  12.537
63135W        W28395  44.869  11.992   2.656
63136W        W28396  39.258  27.017  11.305
63137W        W28397  31.165  33.956   1.228
63138W        W28398  26.369  24.707   3.912
63139W        W28399  43.059  14.821   3.182
63140W        W28400  15.606  22.070   3.202
63141W        W28401  39.466   4.447  13.158
63142W        W28402   9.782  11.580  10.596
63143W        W28403  21.030   8.974   5.171
63144W        W28404  38.271   3.088   0.359
63145W        W28405  40.093  33.151   3.785
63146W        W28406  23.592   7.363  14.074
63147W        W28407   9.921  39.341  10.733
63148W        W28408   4.723  28.626   3.290
63149W        W28409  20.260  31.442  10.560
63150W        W28410   8.768  22.374   5.000
63151W        W28411  14.044  28.418  14.822
63152W        W28412  14.684  15.779   1.346
63153W        W28413   4.302  37.461   4.381
63154W        W28414  26.025   2.193  12.905
63155W        W28415   7.965  16.036   2.051
63156W        W28416   8.002  22.250  14.119
63157W        W28417  31.985  34.822  10.519
63158W        W28418   6.054  42.921  14.515
63159W        W28419  22.637  41.121   0.794
63160W        W28420  37.781  25.741   1.844
63161W        W28421  26.783   6.722  13.825
63162W        W28422  25.302  27.530  13.371
63163W        W28423  11.940   7.581  14.527
63164W        W28424  22.227   1.040   1.139
63165W        W28425  26.001  26.935   3.754
63166W        W28426  22.870  43.348   3.228
63167W        W28427  29.015  37.965   4.821
63168W        W28428  39.302  41.074   1.270
63169W        W28429  40.305  19.597   2.268
63170W        W28430  37.499  16.538  10.722
63171W        W28431  38.010   0.382  11.856
63172W        W28432   0.005  12.281  13.038
63173W        W28433  42.431  20.269   3.878
63174W        W28434   4.216  39.283  11.250
63175W        W28435  22.419   3.762  11.852
63176W        W28436  13.155   1.194   4.641
63177W        W28437  39.235  15.734   4.141
63178W        W28438   8.291  10.805   1.246
63179W        W28439  43.939  10.723   0.508
63180W        W28440  28.493  44.769   2.744
63181W        W28441  35.124  12.201   4.406
63182W        W28442   9.206   6.985  11.290
63183W        W28443  26.965   8.761  12.435
63184W        W28444  40.224   3.184  12.785
63185W        W28445  33.831  12.721   1.918
63186W        W28446  41.794  35.485  14.782
63187W        W28447  29.545  15.721  13.040
63188W        W28448  29.057  39.934  14.324
63189W        W28449  14.556  25.154  12.082
63190W        W28450  34.394   1.425  12.957
63191W        W28451  11.661  28.139   0.445
63192W        W28452  22.663   8.898  12.929
63193W        W28453  15.566   9.622  12.040
63194W        W28454  34.438  24.665  11.552
63195W        W28455   9.258  34.872   2.631
63196W        W28456  43.703   1.239  13.633
63197W        W28457  30.695   1.158   4.154
63198W        W28458  33.365  29.033  11.508
63199W        W28459  13.290  17.005  12.987
63200W        W28460  29.402  21.960   4.166
63201W        W28461  33.462  35.038   0.281
63202W        W28462   1.225  42.034  11.151
63203W        W28463   5.716  13.637   1.702
63204W        W28464  25.281  39.083   4.255
63205W        W28465  10.774  21.818  12.416
63206W        W28466   3.289  31.906  13.853
63207W        W28467  31.683  18.820  14.052
63208W        W28468  35.979  19.110   0.316
63209W        W28469  28.260  24.571   3.665
63210W        W28470   2.712  34.094  10.342
63211W        W28471  42.844  30.050  10.559
63212W        W28472  26.782  16.053   3.320
63213W        W28473   6.857  24.655   1.662
63214W        W28474  37.406   3.199   1.868
63215W        W28475  24.258  39.644   4.051
63216W        W28476  24.003  35.490   3.040
63217W        W28477   5.160  39.392  11.238
63218W        W28478  44.816  35.404  14.853
63219W        W28479   2.002  13.785   0.357
63220W        W28480  30.112  29.335  13.932
63221W        W28481  36.132   8.368   3.054
63222W        W28482  22.212   8.678  11.579
63223W        W28483  36.474  32.697   4.551
63224W        W28484   3.954  25.432   0.347
63225W        W28485   8.429   1.413   2.175
63226W        W28486  35.054   7.443  12.161
63227W        W28487  29.028  28.447  12.519
63228W        W28488   8.124   9.465  13.010
63229W        W28489   6.813  11.920  13.490
63230W        W28490  33.781  14.668  12.339
63231W        W28491   2.908  43.753  11.991
63232W        W28492  24.044  38.570   2.338
63233W        W28493  12.315  15.687   1.359
63234W        W28494  19.658  41.107  10.549
63235W        W28495   5.120   0.760   3.535
63236W        W28496   8.202  30.202  14.304
63237W        W28497  26.613   2.638   9.981
63238W        W28498  42.551  25.469   4.155
63239W        W28499   5.871  25.240  12.139
63240W        W28500  28.457  16.873   3.048
63241W        W28501  15.792  29.188   0.029
63242W        W28502  36.622  10.355  11.110
63243W        W28503  39.085  29.568   2.416
63244W        W28504  24.722  36.980  13.462
63245W        W28505  21.053  37.899   3.767
63246W        W28506  36.693  38.401  13.472
63247W        W28507  33.049   7.785   1.146
63248W        W28508  35.814   4.809   2.243
63249W        W28509   0.092  33.065   3.214
63250W        W28510  29.638  38.060  14.431
63251W        W28511  43.499  38.881   0.891
63252W        W28512  29.633  17.214  12.745
63253W        W28513  19.296  14.503   4.610
63254W        W28514  15.198  23.541   3.633
63255W        W28515  15.672  18.205   3.190
63256W        W28516   0.911  29.195   0.899
63257W        W28517  39.592   8.234   2.833
63258W        W28518  30.930  40.761  13.468
63259W        W28519  43.620   6.933   1.686
63260W        W28520  16.147  33.935   3.533
63261W        W28521  35.761   6.648   0.897
63262W        W28522  32.886   7.598   3.334
63263W        W28523  44.420  16.025  13.394
63264W        W28524  33.229   3.514  11.995
63265W        W28525  30.758  26.214  12.503
63266W        W28526  16.988  43.988  10.450
63267W        W28527   1.252  41.499  11.105
63268W        W28528  26.227  21.542   0.061
63269W        W28529   4.708  27.713  13.457
63270W        W28530  29.607  40.425   4.078
63271W        W28531  34.878  20.156  10.617
63272W        W28532  43.573  25.574  13.453
63273W        W28533  12.144   8.456   3.868
63274W        W28534  36.103  17.093  11.071
63275W        W28535  32.599  32.266  10.557
63276W        W28536  33.531  21.327  12.864
63277W        W28537  15.674  20.479   0.462
63278W        W28538   7.842  10.866  12.491
63279W        W28539  32.699  27.745  13.919
63280W        W28540  43.906   9.180   2.821
63281W        W28541  16.873  20.350  12.590
63282W        W28542  25.805  25.911   2.879
63283W        W28543  23.505  31.116  10.761
63284W        W28544  44.055  40.793  14.936
63285W        W28545  31.837  31.710   4.049
63286W        W28546  44.558  30.033  14.831
63287W        W28547  24.910  41.169  13.846
63288W        W28548  29.903  17.810  10.720
63289W        W28549  32.575  33.603   4.449
63290W        W28550  27.965  36.946  13.413
63291W        W28551  31.421  35.088  13.942
63292W        W28552   9.603  10.310  12.480
63293W        W28553  37.952   2.418   5.568
63294W        W28554  32.216  32.951   1.812
63295W        W28555   0.580  17.010   4.345
63296W        W28556  12.500   3.099  11.210
63297W        W28557  16.041  28.208   4.571
63298W        W28558  19.641   5.795   3.141
63299W        W28559  30.628  14.848   1.413
63300W        W28560  18.213  25.570  12.774
63301W        W28561   0.841  34.291  11.132
63302W        W28562  14.289  12.772   4.749
63303W        W28563  11.705  44.811  12.376
63304W        W28564  13.842  38.847   1.302
63305W        W28565  34.506  11.351  13.527
63306W        W28566  18.857  29.388  14.878
63307W        W28567   4.177  33.849  12.462
63308W        W28568  15.978  29.524  13.820
63309W        W28569   3.229  38.962   3.383
63310W        W28570   2.936  34.112   3.546
63311W        W28571  25.760  24.580   2.184
63312W        W28572  19.054   8.149   2.007
63313W        W28573  14.770   6.642   3.241
63314W        W28574  17.276  14.017   0.826
63315W        W28575  41.503   9.375   4.056
63316W        W28576  15.865  33.061  11.164
63317W        W28577  37.361   4.155   4.159
63318W        W28578  15.385  15.149  12.167
63319W        W28579  21.595  30.640   4.518
63320W        W28580  13.601  40.517  13.498
63321W        W28581  40.409  42.071   3.266
63322W        W28582   6.454  32.604  13.598
63323W        W28583  16.287   6.814   0.994
63324W        W28584   8.252  16.238  12.106
63325W        W28585  23.553   1.317  10.726
63326W        W28586  23.924   9.765  11.444
63327W        W28587  39.831  31.519  12.520
63328W        W28588  16.982  28.622   1.181
63329W        W28589  19.591  25.658  10.412
63330W        W28590  40.921  26.530   1.000
63331W        W28591  25.073  14.423   2.843
63332W        W28592  30.775  43.827   4.685
63333W        W28593  17.548  31.571  10.967
63334W        W28594  34.915  31.033  14.871
63335W        W28595  32.503  14.887  12.187
63336W        W28596   2.187  33.360  14.064
63337W        W28597  15.803  37.558  10.736
63338W        W28598  17.618  41.050  10.660
63339W        W28599  26.174  29.655  13.666
63340W        W28600  18.342  13.368   0.411
63341W        W28601  23.634  24.666  10.500
63342W        W28602  12.252  23.187  11.565
63343W        W28603  43.203  44.756  11.701
63344W        W28604  11.366  38.091  11.181
63345W        W28605  44.528  35.096   2.498
63346W        W28606  42.296  33.105  13.653
63347W        W28607  32.318  37.577   1.266
63348W        W28608  36.382   8.793   4.693
63349W        W28609  12.682  32.394   1.793
63350W        W28610  25.662  43.643   2.797
63351W        W28611   9.491  43.802   3.334
63352W        W28612  32.524  14.842   3.647
63353W        W28613   2.902  33.185   0.839
63354W        W28614  31.044  27.688  11.532
63355W        W28615  43.542  33.105  14.791
63356W        W28616  19.575  33.083  14.173
63357W        W28617  35.278   1.981   3.667
63358W        W28618  26.837  14.100   1.835
63359W        W28619  29.420  41.412   2.344
63360W        W28620  33.647  35.968   3.437
63361W        W28621  38.473  37.654   0.361
63362W        W28622   4.171  10.694   2.661
63363W        W28623  30.589  25.180   2.619
63364W        W28624  19.102   1.008   4.440
63365W        W28625   4.451  14.045  13.732
63366W        W28626   8.144   9.918   3.720
63367W        W28627  19.630  36.958  14.000
63368W        W28628   7.727   2.791  11.823
63369W        W28629  28.671  18.800   0.826
63370W        W28630  17.311   7.251   3.757
63371W        W28631   6.328   3.698   2.110
63372W        W28632  12.821  23.873   3.164
63373W        W28633  41.823  29.947  10.697
63374W        W28634  39.492  41.940   4.388
63375W        W28635  21.425   8.242  13.997
63376W        W28636  23.166  40.547  12.441
63377W        W28637  12.587  32.491  13.457
63378W        W28638   6.255  14.978   2.338
63379W        W28639  15.776  12.336  11.938
63380W        W28640   1.863  21.772   2.820
63381W        W28641  42.959  44.994   3.407
63382W        W28642  20.770  13.589   2.786
63383W        W28643  35.320  26.268   9.818
63384W        W28644  34.838  44.306  14.316
63385W        W28645   3.981  14.000   4.230
63386W        W28646  43.025  27.771   2.213
63387W        W28647  28.258  42.981  14.401
63388W        W28648   0.727  16.258  14.012
63389W        W28649  35.191  30.619   4.091
63390W        W28650   5.706  40.984   0.839
63391W        W28651  18.316  15.689  12.073
63392W        W28652  14.053  33.541   3.242
63393W        W28653  35.374   0.547   3.650
63394W        W28654   7.049  38.879   4.072
63395W        W28655  12.337  34.849  13.651
63396W        W28656  32.048  13.596  13.051
63397W        W28657  19.112  10.814   0.303
63398W        W28658  11.716  38.855   2.729
63399W        W28659  33.637  44.118   3.280
63400W        W28660   9.752  11.375  11.064
63401W        W28661  14.060   9.286  12.936
63402W        W28662   3.986  27.491  14.434
63403W        W28663  26.100  22.887  13.398
63404W        W28664  43.288  26.004  13.516
63405W        W28665  43.991  21.586   1.268
63406W        W28666  26.227  14.386  10.790
63407W        W28667  29.230  44.369  14.732
63408W        W28668  26.576  37.817   3.303
63409W        W28669  28.312  42.927  12.428
63410W        W28670  24.138  38.254   1.749
63411W        W28671   6.705   5.457   2.332
63412W        W28672  34.922  43.817  14.542
63413W        W28673  10.090  39.825   2.864
63414W        W28674   0.573   1.183   4.193
63415W        W28675  12.475  19.328   0.343
63416W        W28676  25.940  29.834  10.633
63417W        W28677   6.300  27.699   2.339
63418W        W28678   0.841  22.276   1.666
63419W        W28679  28.940   7.176   2.776
63420W        W28680   4.072   1.351   4.812
63421W        W28681  12.403  21.743  12.537
63422W        W28682   7.752  35.744  11.117
63423W        W28683  28.889  14.026   3.185
63424W        W28684  21.367  14.492   2.128
63425W        W28685  18.044  25.126   0.242
63426W        W28686  33.267  40.851  13.676
63427W        W28687  12.537  38.531  11.578
63428W        W28688   1.756  43.980  11.684
63429W        W28689  37.075  37.784   0.338
63430W        W28690  14.658  21.455  13.940
63431W        W28691  40.631   3.921   4.998
63432W        W28692   0.728  40.823  13.059
63433W        W28693  43.536   9.515  10.603
63434W        W28694  29.737   1.266  11.527
63435W        W28695  30.648  36.827   2.776
63436W        W28696   7.271  12.129   3.271
63437W        W28697  14.614  36.339  12.876
63438W        W28698   6.623  28.150  13.611
63439W        W28699  34.848   4.968  11.951
63440W        W28700   7.182  26.503  11.324
63441W        W28701  37.930  18.578  14.769
63442W        W28702  14.083   8.631   4.658
63443W        W28703  29.187  31.202   2.179
63444W        W28704  16.674  27.840   1.524
63445W        W28705  24.642  39.529   3.705
63446W        W28706   4.060  22.537   4.251
63447W        W28707  40.398  32.621   3.147
63448W        W28708  20.090  12.868  11.927
63449W        W28709  26.478  43.826   1.449
63450W        W28710  18.162  21.961   5.540
63451W        W28711  24.566  15.791   3.730
63452W        W28712  41.938   6.205  11.116
63453W        W28713   4.483  26.108   3.211
63454W        W28714  31.659   8.574   1.476
63455W        W28715  19.934  28.897   3.976
63456W        W28716  12.388  24.237  12.525
63457W        W28717  29.836  21.513   4.226
63458W        W28718  10.492  43.134  13.410
63459W        W28719  13.841  44.364  13.407
63460W        W28720  40.843  39.020   9.923
63461W        W28721  32.595  31.065  11.087
63462W        W28722   5.899   1.382   2.084
63463W        W28723   0.801  16.150   1.698
63464W        W28724   4.699   2.379  12.484
63465W        W28725  10.420   2.663  11.186
63466W        W28726  35.951  17.601   3.472
63467W        W28727  11.468  28.150  14.765
63468W        W28728  14.250  31.590  12.874
63469W        W28729  43.744  40.393   2.885
63470W        W28730  40.731  31.404  10.762
63471W        W28731   5.788  27.423   3.919
63472W        W28732  34.188   9.470  12.901
63473W        W28733  30.586  15.735  10.606
63474W        W28734  37.603  43.335   1.014
63475W        W28735  19.335  41.844  11.636
63476W        W28736  14.778  38.275  12.493
63477W        W28737  10.108  17.842  10.777
63478W        W28738   9.901  24.051   1.380
63479W        W28739   9.234   7.393   1.353
63480W        W28740  16.144  37.658   3.743
63481W        W28741  22.614  10.331   2.791
63482W        W28742  34.153  44.814  10.766
63483W        W28743   1.101   0.821   2.656
63484W        W28744  11.997  41.369  12.907
63485W        W28745   2.773  16.712  11.262
63486W        W28746  11.602   1.579   2.579
63487W        W28747  11.744  21.245   2.691
63488W        W28748  15.940  14.906  11.636
63489W        W28749  19.758   7.796   1.097
63490W        W28750  39.479  26.513  14.996
63491W        W28751  25.150  27.924   1.426
63492W        W28752  25.440  11.379  12.108
63493W        W28753  25.936  37.655   2.296
63494W        W28754   3.807   0.321   4.566
63495W        W28755  28.646  30.475  14.491
63496W        W28756  40.787  24.176  11.937
63497W        W28757  17.649  15.270  13.944
63498W        W28758   6.741  30.093   1.782
63499W        W28759  40.537  42.905  13.799
63500W        W28760   3.806  26.894   1.684
63501W        W28761   7.718  39.971  12.938
63502W        W28762  35.819  25.744   2.830
63503W        W28763  27.860   2.513  13.024
63504W        W28764  30.085  13.973  13.489
63505W        W28765  16.112  29.299  11.575
63506W        W28766  38.895   6.426   1.761
63507W        W28767  39.534  32.174  11.585
63508W        W28768  13.081  27.454  12.912
63509W        W28769  28.543   2.916   2.104
63510W        W28770  23.245  34.431  11.570
63511W        W28771  25.752   7.363  14.518
63512W        W28772  41.243  41.842  13.245
63513W        W28773  30.053  17.070   1.971
63514W        W28774  12.584   3.627  11.168
63515W        W28775   0.801   2.523   1.865
63516W        W28776  44.582   2.960   3.240
63517W        W28777  34.539   5.256   4.476
63518W        W28778  34.443   6.232   4.606
63519W        W28779  29.519  33.439  14.821
63520W        W28780  40.271  36.933   1.657
63521W        W28781  25.958  39.235  13.527
63522W        W28782  32.560  32.655  14.818
63523W        W28783  22.171   0.397   2.227
63524W        W28784  42.913   0.401   4.869
63525W        W28785  35.135  31.059  12.618
63526W        W28786  20.324  42.397   0.776
63527W        W28787  29.654  37.963   0.221
63528W        W28788  26.670   8.869  12.994
63529W        W28789  35.541   8.454   4.533
63530W        W28790  18.709   4.838  13.704
63531W        W28791  24.564  22.628  14.919
63532W        W28792   5.796  18.748   1.440
63533W        W28793  39.327  34.969  10.817
63534W        W28794   4.742  40.503   0.190
63535W        W28795  20.732  43.761  13.077
63536W        W28796  33.230   9.177   2.031
63537W        W28797  21.609  18.590  14.484
63538W        W28798  24.027  13.186  14.941
63539W        W28799  13.847  42.267  11.099
63540W        W28800   5.724  41.510  14.009
63541W        W28801  27.763   0.422   0.323
63542W        W28802  16.291  14.528   4.505
63543W        W28803  19.671  42.960  11.958
63544W        W28804  12.634   4.377   1.869
63545W        W28805  40.016  28.597  14.952
63546W        W28806   9.273  37.984  13.234
63547W        W28807   7.185  26.457   1.952
63548W        W28808  32.758  20.750   3.385
63549W        W28809  32.020  24.254  14.428
63550W        W28810  21.331  35.333   2.812
63551W        W28811   3.907  10.666   4.378
63552W        W28812  16.211  23.142   4.183
63553W        W28813  35.513   1.043  12.914
63554W        W28814  21.656  12.299   0.557
63555W        W28815  33.051   2.067  14.520
63556W        W28816  43.226   4.467   0.358
63557W        W28817  21.773  21.738  10.780
63558W        W28818  39.876  21.461   0.974
63559W        W28819  37.000   2.196   2.278
63560W        W28820  43.343  10.912  13.047
63561W        W28821   5.049   0.512  14.258
63562W        W28822  41.383  29.160  13.758
63563W        W28823  21.100   9.261   4.747
63564W        W28824  13.210  20.007   4.569
63565W        W28825  25.240  37.175  10.517
63566W        W28826   3.293  36.094  11.724
63567W        W28827  20.229   5.924   0.379
63568W        W28828  37.317  16.765  13.919
63569W        W28829  30.669  35.641   1.633
63570W        W28830  15.282  39.459  12.944
63571W        W28831  38.554  30.196  12.105
63572W        W28832   7.984   2.345  13.347
63573W        W28833  15.456  27.804   3.658
63574W        W28834  43.464  14.832  14.693
63575W        W28835  11.629  39.082   0.993
63576W        W28836  10.469  34.450   4.019
63577W        W28837  30.156   2.361   0.986
63578W        W28838  14.751  12.638  11.016
63579W        W28839   3.066  24.482   5.481
63580W        W28840  19.083  26.642  14.575
63581W        W28841   9.191   2.376   1.701
63582W        W28842  40.410  30.462  14.891
63583W        W28843   5.177   0.093  12.107
63584W        W28844  26.591  33.048  10.804
63585W        W28845   2.476  35.690  11.204
63586W        W28846   0.937  33.588   4.056
63587W        W28847  15.661  15.044  12.919
63588W        W28848  20.673  18.083  10.682
63589W        W28849  37.498  13.048   2.414
63590W        W28850   4.881  25.273   3.732
63591W        W28851   0.765  37.090  14.886
63592W        W28852   6.847  37.458   2.096
63593W        W28853  41.252  29.394  10.921
63594W        W28854   9.601  32.565   4.727
63595W        W28855  40.350  36.736   3.205
63596W        W28856  34.542   3.170   2.866
63597W        W28857   0.337  43.447   3.829
63598W        W28858  16.036  43.300  12.410
63599W        W28859   0.701  35.147   3.220
63600W        W28860  33.435  24.738   1.782
63601W        W28861  18.117  23.048   1.460
63602W        W28862  20.082  19.561   1.907
63603W        W28863   0.418  22.737   2.832
63604W        W28864  19.396  16.925   0.015
63605W        W28865  16.081  31.724  13.368
63606W        W28866   2.514  12.547  14.287
63607W        W28867   1.942  30.883  12.534
63608W        W28868  17.797  26.457  12.339
63609W        W28869  30.825   8.064  11.446
63610W        W28870  31.877   1.911  10.153
63611W        W28871  21.664   4.263  14.379
63612W        W28872   7.666   8.854  14.880
63613W        W28873   3.864  13.275   1.212
63614W        W28874   7.014   6.737   2.076
63615W        W28875  42.057  23.881   4.616
63616W        W28876   7.236  23.915   4.510
63617W        W28877  14.240  42.943  10.805
63618W        W28878  41.057  13.646   1.391
63619W        W28879  32.286  23.173   4.497
63620W        W28880  40.780  27.139   4.553
63621W        W28881  17.246   8.915  13.986
63622W        W28882   7.871  13.088   3.133
63623W        W28883  34.321   1.666  10.719
63624W        W28884   3.231  29.248   1.895
63625W        W28885  32.467  26.382   4.463
63626W        W28886   4.196   6.145  11.998
63627W        W28887  26.197  37.401   0.879
63628W        W28888  38.488  14.589  11.551
63629W        W28889  14.599  26.860   0.904
63630W        W28890  25.042   2.268   3.454
63631W        W28891  44.528  38.949   2.967
63632W        W28892   0.372  39.831  10.696
63633W        W28893   1.474  27.916  10.286
63634W        W28894   3.844  29.851   2.009
63635W        W28895   0.385  14.568   3.613
63636W        W28896  35.887   0.013   2.370
63637W        W28897  36.026  44.550   4.187
63638W        W28898  31.527  11.405   1.380
63639W        W28899  36.528  39.233   1.877
63640W        W28900  41.384  15.705  12.540
63641W        W28901  40.691  13.640  13.041
63642W        W28902  11.246  43.361   1.327
63643W        W28903  28.081  29.937   4.144
63644W        W28904  14.575  18.430  11.458
63645W        W28905  15.764   8.656   0.834
63646W        W28906  32.889  12.670  13.924
63647W        W28907  12.908  30.141   0.665
63648W        W28908  30.695  21.711  14.973
63649W        W28909   9.773  32.095   1.339
63650W        W28910  10.288  10.898  10.475
63651W        W28911  42.414  29.141   1.188
63652W        W28912  27.176  37.444  13.013
63653W        W28913   6.426  37.289  12.334
63654W        W28914  10.641   6.580   2.717
63655W        W28915  27.865  21.040   4.483
63656W        W28916  40.723   5.595  11.067
63657W        W28917  20.045  36.366   2.233
63658W        W28918  31.719  15.147  10.729
63659W        W28919  31.329  15.648   2.679
63660W        W28920  24.462  15.282   3.753
63661W        W28921  17.132  23.658  10.684
63662W        W28922  21.478  36.563   0.582
63663W        W28923  11.113  34.369  10.988
63664W        W28924  32.769  15.249   3.442
63665W        W28925  33.402  32.111   4.556
63666W        W28926  28.982  40.518   1.852
63667W        W28927  24.190  18.143   0.416
63668W        W28928  41.844  42.034  10.801
63669W        W28929  16.964  38.523   0.811
63670W        W28930   3.360  21.764   1.338
63671W        W28931  31.314  44.408   2.721
63672W        W28932   6.809  36.469   0.816
63673W        W28933  29.213   1.270  10.686
63674W        W28934   9.371  28.889  14.879
63675W        W28935   3.284  27.921  10.780
63676W        W28936  23.722  17.482  14.990
63677W        W28937  25.760  24.970   3.340
63678W        W28938   0.734   8.632   3.668
63679W        W28939   6.413   0.797   4.641
63680W        W28940  13.529  26.192   2.472
63681W        W28941  13.762   9.101  13.615
63682W        W28942  19.086  18.019   3.913
63683W        W28943  43.730   0.423   2.636
63684W        W28944  28.360  16.739   4.938
63685W        W28945   6.323  15.349  12.976
63686W        W28946   6.898   8.639  11.225
63687W        W28947  36.831   6.331  12.043
63688W        W28948  17.990  32.726   1.493
63689W        W28949  23.245  27.853  13.293
63690W        W28950  37.014  30.329  10.787
63691W        W28951  37.527  30.954   1.379
63692W        W28952  38.596  32.080   4.528
63693W        W28953  27.598   7.481  13.819
63694W        W28954  26.667  36.598  11.410
63695W        W28955   0.283   3.993  13.710
63696W        W28956  24.153   4.655   2.599
63697W        W28957  29.193  37.491  13.012
63698W        W28958  35.103  22.756   5.030
63699W        W28959  19.872  13.889   2.909
63700W        W28960  39.937  28.150   0.711
63701W        W28961  25.510  38.321   0.495
63702W        W28962  14.573  24.183  11.150
63703W        W28963  30.580  33.406   3.800
63704W        W28964   4.236   7.478  14.748
63705W        W28965  21.095  39.826  14.474
63706W        W28966  25.489  24.071  12.871
63707W        W28967  36.899   7.233   0.451
63708W        W28968  13.530  38.650  10.358
63709W        W28969   7.746  28.231  12.543
63710W        W28970  24.544  44.945  13.429
63711W        W28971  32.157  37.412  14.731
63712W        W28972  17.764  39.942   1.863
63713W        W28973   2.811  42.254   4.105
63714W        W28974  13.710  37.879  11.184
63715W        W28975  14.318  26.708  13.113
63716W        W28976  11.723  19.021   1.819
63717W        W28977  40.259  42.996   1.954
63718W        W28978  18.773  38.954  10.733
63719W        W28979   2.707  19.752  13.443
63720W        W28980  33.441  15.658  12.901
63721W        W28981  24.673  28.079   1.257
63722W        W28982  12.668  30.845  14.428
63723W        W28983  21.730   7.477  13.343
63724W        W28984  35.163  11.026   0.959
63725W        W28985  36.077  20.005  14.889
63726W        W28986  11.188   1.264   2.611
63727W        W28987  20.996  12.166  12.479
63728W        W28988  22.212  30.553   0.827
63729W        W28989  12.090  10.901  14.235
63730W        W28990  29.133   4.237  14.358
63731W        W28991  37.430  33.664  10.828
63732W        W28992  23.587  29.962  13.944
63733W        W28993   8.718  29.376   1.016
63734W        W28994   3.243  31.962   1.632
63735W        W28995  16.008   1.981  10.415
63736W        W28996  11.958   4.486  10.477
63737W        W28997  44.214  26.600   1.810
63738W        W28998  19.388   0.989   4.892
63739W        W28999  26.448  30.597  13.776
63740W        W29000  40.913   7.746  12.635
63741W        W29001   7.280   4.395  13.057
63742W        W29002  43.915  35.037   1.130
63743W        W29003  34.706  21.640  14.018
63744W        W29004  14.034   7.932  13.674
63745W        W29005  31.688  11.211  10.530
63746W        W29006   1.529  42.007   2.177
63747W        W29007  33.531  27.644   0.748
63748W        W29008  21.625  19.523  13.355
63749W        W29009  44.443  33.376   4.591
63750W        W29010  18.302  44.980   2.702
63751W        W29011   2.805  14.879   3.963
63752W        W29012  36.792  42.009   4.335
63753W        W29013  44.808  37.062   3.168
63754W        W29014  21.136  36.333   2.892
63755W        W29015   9.140  32.270   3.403
63756W        W29016  44.798  23.718   3.500
63757W        W29017  40.248  40.788  12.434
63758W        W29018  19.987  32.031   5.158
63759W        W29019   5.232  12.385  13.907
63760W        W29020  12.577  14.341  14.294
63761W        W29021  33.444  11.442   2.280
63762W        W29022  11.224  29.066   3.723
63763W        W29023  39.548  41.937  11.093
63764W        W29024   4.323  16.145   2.586
63765W        W29025   8.420  18.945   0.021
63766W        W29026  35.542  42.135  11.911
63767W        W29027  32.172   1.308  12.497
63768W        W29028  34.397  10.574  14.343
63769W        W29029  21.399  11.319   0.296
63770W        W29030  30.857  44.039  12.167
63771W        W29031  37.388  40.382   1.887
63772W        W29032  25.490  24.584   2.645
63773W        W29033   4.169   0.263  11.048
63774W        W29034  11.343   7.447  14.526
63775W        W29035  19.813   4.845  14.715
63776W        W29036  43.205   7.626  11.893
63777W        W29037   8.844  24.108   2.817
63778W        W29038  14.347   0.515  12.107
63779W        W29039  22.231  27.112  14.961
63780W        W29040   7.854  10.619  13.471
63781W        W29041  43.797  36.990  14.921
63782W        W29042  27.062  32.426   3.845
63783W        W29043  21.427  29.114  12.438
63784W        W29044  24.071   3.165   4.063
63785W        W29045   7.598  26.156  12.643
63786W        W29046  42.826  17.133   1.698
63787W        W29047  44.549  32.914   2.454
63788W        W29048   8.909  38.497  14.046
63789W        W29049  13.765  41.733   1.227
63790W        W29050  14.840  23.271   4.142
63791W        W29051  16.335  32.856  13.883
63792W        W29052  25.576  21.008   3.679
63793W        W29053  41.563  10.502   4.144
63794W        W29054   6.244  32.897   3.577
63795W        W29055  22.655  39.615   3.283
63796W        W29056  21.770  24.685   3.731
63797W        W29057  38.862   1.433  13.953
63798W        W29058  37.424  36.959   4.370
63799W        W29059  28.163   0.528   0.939
63800W        W29060  36.943  16.854  11.391
63801W        W29061  30.916  23.773  11.273
63802W        W29062  20.880  32.961   1.300
63803W        W29063  17.791  12.762   0.794
63804W        W29064  10.679  28.164  12.405
63805W        W29065  21.515   7.072   4.217
63806W        W29066  11.331  19.930  10.984
63807W        W29067  39.550  44.427   0.874
63808W        W29068  40.060  28.892   1.302
63809W        W29069  21.761   5.108  12.766
63810W        W29070   1.713  10.895   0.484
63811W        W29071  28.685  31.456   1.438
63812W        W29072   3.306   5.493   3.584
63813W        W29073  36.958   7.715   4.630
63814W        W29074  27.647  42.042   0.913
63815W        W29075  31.072  17.579   4.519
63816W        W29076   7.183  36.537   4.217
63817W        W29077   7.688  13.182   4.015
63818W        W29078  39.636  14.384   2.232
63819W        W29079  16.170  23.626   2.129
63820W        W29080  33.364  44.029  13.348
63821W        W29081  17.225  13.630   2.315
63822W        W29082  27.666  39.557  13.002
63823W        W29083  35.014   0.909  12.578
63824W        W29084   0.616  22.529  12.475
63825W        W29085  11.181   7.204   1.274
63826W        W29086  41.264   7.872  11.101
63827W        W29087  43.438  21.537  11.444
63828W        W29088  36.589   0.886   3.315
63829W        W29089   1.701  27.117  13.077
63830W        W29090  43.997  20.497  13.946
63831W        W29091  12.398  38.569  14.949
63832W        W29092   7.575  17.613   2.025
63833W        W29093   5.843  35.184   3.781
63834W        W29094  34.599  40.969  12.027
63835W        W29095  20.062   0.689   0.227
63836W        W29096  41.730   8.050  11.193
63837W        W29097  42.796  30.326   4.267
63838W        W29098  31.181  17.949   0.306
63839W        W29099   1.239  21.321  13.873
63840W        W29100  21.489  22.273  12.994
63841W        W29101  11.637  42.375  14.936
63842W        W29102   6.190  43.861   3.673
63843W        W29103  25.366  17.895   4.093
63844W        W29104  38.880  37.093   4.836
63845W        W29105  26.739  35.593  10.738
63846W        W29106   6.419  40.574   4.599
63847W        W29107   8.273  37.515   2.255
63848W        W29108  33.592  41.440   3.545
63849W        W29109  11.359  41.901  14.903
63850W        W29110   4.464   3.412   4.573
63851W        W29111  39.799  39.580  10.759
63852W        W29112   6.117   3.228   1.939
63853W        W29113  37.089  15.359   4.174
63854W        W29114   8.052  30.659   1.558
63855W        W29115   3.917  22.103   0.238
63856W        W29116  35.974  32.847   3.316
63857W        W29117  33.695  33.633   0.370
63858W        W29118  22.939  30.895   1.755
63859W        W29119  20.907  21.005  11.655
63860W        W29120  25.177   8.282  12.560
63861W        W29121  42.467  21.058  13.466
63862W        W29122  27.471  10.191  13.014
63863W        W29123  23.173   4.137  14.718
63864W        W29124  26.463   0.301  11.519
63865W        W29125  36.007  31.994   3.155
63866W        W29126  15.324  35.549  12.032
63867W        W29127  15.602  24.768  12.893
63868W        W29128   9.089  24.385   4.533
63869W        W29129  10.800  34.022  11.741
63870W        W29130   0.798   7.653   0.472
63871W        W29131  43.133  11.101  13.997
63872W        W29132  20.826  18.259  13.512
63873W        W29133   7.700  25.910   4.074
63874W        W29134   1.944  16.737  13.104
63875W        W29135  14.791  22.992  11.477
63876W        W29136  14.811  24.007  11.581
63877W        W29137  35.619   7.188   0.848
63878W        W29138   8.242   2.331  14.151
63879W        W29139  22.679  18.048  12.375
63880W        W29140  33.837   5.074   2.311
63881W        W29141  35.530  23.200   1.577
63882W        W29142  26.981  37.535  12.542
63883W        W29143  30.998  19.164   0.073
63884W        W29144   3.710  15.628   3.558
63885W        W29145  41.493   9.356  14.860
63886W        W29146  15.268  39.151  12.534
63887W        W29147  18.098  13.817   4.592
63888W        W29148   9.967  36.438  12.683
63889W        W29149   0.008  38.016   3.270
63890W        W29150   9.102  19.651  11.661
63891W        W29151  26.035  33.357   2.255
63892W        W29152  22.185   1.778   0.784
63893W        W29153  22.969   6.862   0.271
63894W        W29154  27.202  13.894   3.700
63895W        W29155  14.273  20.180   4.122
63896W        W29156  22.004  43.279  11.038
63897W        W29157  33.555  19.522   3.251
63898W        W29158   6.260   7.153   1.669
63899W        W29159  30.361  15.641  11.061
63900W        W29160  29.860  11.148  14.896
63901W        W29161  30.901   8.408  12.364
63902W        W29162  11.145  14.075  14.538
63903W        W29163  14.200  42.357   1.123
63904W        W29164  29.131  36.465   1.456
63905W        W29165  38.134  10.339   2.154
63906W        W29166  21.759  21.689   9.762
63907W        W29167  33.834  13.039  12.841
63908W        W29168   2.337  23.243   3.149
63909W        W29169  36.924  31.746   4.982
63910W        W29170   0.138  18.711   2.283
63911W        W29171   9.445  33.642   4.405
63912W        W29172  21.044  17.394   0.111
63913W        W29173  17.053  11.075  13.893
63914W        W29174  27.084  36.923  14.776
63915W        W29175   7.231  27.847  11.989
63916W        W29176  15.606  35.410   2.894
63917W        W29177  19.682  12.103  13.324
63918W        W29178  18.819  31.829  11.935
63919W        W29179  29.560  21.752   1.376
63920W        W29180  15.707   7.367   0.847
63921W        W29181   6.738   7.479   4.790
63922W        W29182   1.799  18.113  10.807
63923W        W29183  43.053   1.750  13.358
63924W        W29184  11.473  41.964  10.321
63925W        W29185  42.651  42.562   3.506
63926W        W29186  42.197  12.879  13.805
63927W        W29187  34.985  36.468   1.097
63928W        W29188  13.190   1.855   2.318
63929W        W29189   5.880  25.487  10.706
63930W        W29190   8.177  11.179  11.426
63931W        W29191  16.909   0.408  10.386
63932W        W29192   0.111  36.791   2.813
63933W        W29193  23.673   3.993  14.532
63934W        W29194  36.283   3.815  13.883
63935W        W29195  10.580  30.925   4.291
63936W        W29196  35.415  10.777  12.193
63937W        W29197  36.837  27.385   3.114
63938W        W29198   6.705  42.975   3.641
63939W        W29199  42.304  18.670   0.966
63940W        W29200   4.696  10.725   2.761
63941W        W29201  41.477  26.945  14.117
63942W        W29202   6.203   0.066  14.289
63943W        W29203   1.320  40.698  11.546
63944W        W29204  41.820  10.928  14.324
63945W        W29205  38.994  41.869   4.069
63946W        W29206  26.478   3.770  13.898
63947W        W29207  26.446  36.421   1.827
63948W        W29208  43.427  38.970  12.373
63949W        W29209  22.993   2.891   2.227
63950W        W29210   5.570  14.482   0.859
63951W        W29211  24.582  14.131   0.619
63952W        W29212  19.797  40.124  14.151
63953W        W29213  40.782  35.464   3.621
63954W        W29214  23.274   7.974   1.240
63955W        W29215  43.348  42.837  11.262
63956W        W29216  15.067   0.824  12.376
63957W        W29217   1.236   3.538  11.509
63958W        W29218  21.123  18.082  10.431
63959W        W29219  12.775  18.984   3.718
63960W        W29220   3.487  44.286  12.959
63961W        W29221  11.960   6.300  14.886
63962W        W29222  37.448  35.670  10.476
63963W        W29223  28.003  33.463   1.736
63964W        W29224  38.908   8.264   0.752
63965W        W29225  14.315  38.213   2.404
63966W        W29226  23.567  23.322  12.503
63967W        W29227  11.219  34.188   1.315
63968W        W29228  16.885   6.279  12.894
63969W        W29229  10.683  32.332  11.470
63970W        W29230  37.638  24.232   1.303
63971W        W29231  28.503   2.496   1.764
63972W        W29232  26.332  33.696   2.544
63973W        W29233  16.487  22.448   1.705
63974W        W29234  24.571  28.949  10.639
63975W        W29235   9.355  26.079   3.646
63976W        W29236   3.796  22.173  14.716
63977W        W29237  30.652   8.559  11.916
63978W        W29238  26.780  17.735   1.778
63979W        W29239   6.771  29.496  11.435
63980W        W29240  40.769  32.525  11.259
63981W        W29241  11.922  10.273   4.018
63982W        W29242  42.410   7.905   2.800
63983W        W29243  20.968  35.473  14.367
63984W        W29244  15.798  38.353  12.435
63985W        W29245  10.168  30.645  11.064
63986W        W29246   5.732  14.302   3.792
63987W        W29247   4.875  22.239  10.404
63988W        W29248   1.376  37.486  11.105
63989W        W29249   6.004  11.802   4.822
63990W        W29250  10.427  35.466  14.284
63991W        W29251  41.531   1.036   3.190
63992W        W29252  16.229  29.689   0.730
63993W        W29253  20.675  30.943   3.076
63994W        W29254  17.187  34.518  12.068
63995W        W29255  32.712  44.997  13.832
63996W        W29256  32.395  18.437   1.156
63997W        W29257  27.036  12.898   3.638
63998W        W29258  28.656  15.831  10.593
63999W        W29259  36.947  29.012  12.827
64000W        W29260  33.648  18.222   2.428
64001W        W29261  33.849  39.103  12.098
64002W        W29262  34.000   2.311  11.439
64003W        W29263  34.606   3.881   1.691
64004W        W29264   0.667  15.326  13.959
64005W        W29265  23.208  35.948   0.255
64006W        W29266  19.298  29.021   2.163
64007W        W29267  37.108  13.264   3.330
64008W        W29268  36.556  18.212  14.589
64009W        W29269  25.538  31.997   4.891
64010W        W29270   7.742  44.247  13.888
64011W        W29271   1.804  35.720  10.771
64012W        W29272  44.425   4.396   3.865
64013W        W29273  43.298   8.117   2.315
64014W        W29274  18.085  41.134   0.822
64015W        W29275  14.090   9.178  12.429
64016W        W29276   6.328   2.034   4.933
64017W        W29277  12.194   4.980  10.199
64018W        W29278   5.226  38.968   3.201
64019W        W29279  15.224  41.989  14.473
64020W        W29280  13.308  18.502  14.002
64021W        W29281  42.659  23.030  11.410
64022W        W29282   2.809  26.941  14.023
64023W        W29283  20.679  24.740  12.641
64024W        W29284  34.925  28.407  13.414
64025W        W29285  20.795  41.043  10.757
64026W        W29286  44.033   9.422   0.408
64027W        W29287  40.090   7.265   1.304
64028W        W29288  12.076  17.601  10.562
64029W        W29289  34.917  41.457  14.838
64030W        W29290  26.583  11.839   1.286
64031W        W29291  27.533  13.821   2.348
64032W        W29292  27.394  15.222   0.838
64033W        W29293  34.015  18.772   4.640
64034W        W29294  37.042   7.723  14.069
64035W        W29295   1.195  15.000   3.046
64036W        W29296   8.094   9.837  14.765
64037W        W29297  15.594  12.715   0.188
64038W        W29298  19.206  20.202  14.783
64039W        W29299  22.665  11.945  10.808
64040W        W29300  27.447   9.113   3.285
64041W        W29301  27.704  19.614   1.217
64042W        W29302  16.030   9.293  11.146
64043W        W29303  18.032  37.818   2.658
64044W        W29304   8.998  21.238   3.679
64045W        W29305  23.805  12.781   1.226
64046W        W29306   9.684   4.357  14.465
64047W        W29307  34.091   2.407  12.428
64048W        W29308  23.019  18.725  12.873
64049W        W29309  23.606  36.024  12.451
64050W        W29310   7.649  30.836  13.920
64051W        W29311  18.625  20.859  14.329
64052W        W29312  39.865  29.149  13.956
64053W        W29313  43.840  16.489  13.386
64054W        W29314   7.516  24.511  13.883
64055W        W29315   0.689  13.282  14.628
64056W        W29316  38.892  42.869  10.411
64057W        W29317  22.609  40.971   4.726
64058W        W29318  19.990  35.296   3.229
64059W        W29319  33.693  20.168  14.847
64060W        W29320  20.518  38.032   2.732
64061W        W29321  38.630  15.624   0.916
64062W        W29322  27.956  40.403  13.716
64063W        W29323  26.770  23.491  11.665
64064W        W29324   5.332  12.055  13.500
64065W        W29325  10.065   1.288   3.684
64066W        W29326  14.140  30.431  13.028
64067W        W29327  37.347  16.187   1.381
64068W        W29328  16.739  18.574   3.238
64069W        W29329   4.234  16.616   2.842
64070W        W29330  21.240  33.947   2.087
64071W        W29331  36.718  25.451  12.110
64072W        W29332  17.073  31.932  14.278
64073W        W29333  23.717   1.153  11.940
64074W        W29334  25.998  43.223   2.093
64075W        W29335  12.837  44.697   3.935
64076W        W29336   8.570  38.352  12.331
64077W        W29337  10.171   3.178  12.362
64078W        W29338  43.359  10.118  12.010
64079W        W29339  31.557  13.812   1.315
64080W        W29340  34.138  23.133   4.560
64081W        W29341  13.261  16.045  11.307
64082W        W29342  10.117  37.267   0.744
64083W        W29343   3.384  31.745  10.708
64084W        W29344  34.887   4.663  11.107
64085W        W29345  25.194  34.046   2.153
64086W        W29346  29.033  44.716  13.795
64087W        W29347   7.919  36.970   3.910
64088W        W29348  18.420  34.509   1.248
64089W        W29349  22.545  42.006  11.086
64090W        W29350  41.286  19.133  14.415
64091W        W29351  15.251   6.436  12.958
64092W        W29352  23.073   8.051   4.320
64093W        W29353  36.422   9.415   2.343
64094W        W29354   8.724  29.152   0.218
64095W        W29355  35.454   2.379   4.424
64096W        W29356  23.492  30.352   0.235
64097W        W29357   2.834  28.599   5.090
64098W        W29358  38.539  28.191  12.903
64099W        W29359  14.104  42.208   4.033
64100W        W29360  25.080  25.110  10.762
64101W        W29361  17.673  20.865   3.725
64102W        W29362   6.131  17.522  13.962
64103W        W29363  20.677  40.121   1.751
64104W        W29364  27.389   8.618   3.142
64105W        W29365   6.992  15.532  14.011
64106W        W29366  26.425   2.816  12.612
64107W        W29367  38.019  23.104   0.639
64108W        W29368  24.146  11.376  12.490
64109W        W29369   3.389  41.587  11.801
64110W        W29370  27.095  37.244   0.792
64111W        W29371   5.172   3.766   0.530
64112W        W29372  38.149   7.768   3.874
64113W        W29373  21.765  32.079   3.605
64114W        W29374  19.767  21.867  11.116
64115W        W29375  19.629   8.966   4.583
64116W        W29376   6.494  20.014  11.009
64117W        W29377  17.300   4.687  11.936
64118W        W29378  20.140  24.576   4.396
64119W        W29379  25.688  21.104  13.943
64120W        W29380  33.684  37.558   0.348
64121W        W29381  43.085  22.330   3.215
64122W        W29382  35.049  22.826  11.606
64123W        W29383   8.714  30.263   0.437
64124W        W29384  40.777  12.673   0.972
64125W        W29385  13.325  34.569   4.088
64126W        W29386  14.238  32.611  13.748
64127W        W29387   4.267  37.199  14.803
64128W        W29388   7.233  41.438   3.337
64129W        W29389  18.366  44.745  13.342
64130W        W29390  12.329   9.332  11.954
64131W        W29391  12.181  25.447   3.381
64132W        W29392  20.965   2.757  14.065
64133W        W29393  21.664  41.128  10.490
64134W        W29394  42.874  23.178  13.644
64135W        W29395  33.183  18.753  11.598
64136W        W29396  34.151  18.189   2.482
64137W        W29397  20.013   0.758  11.051
64138W        W29398  44.891  39.223   1.275
64139W        W29399  12.673  36.019   4.052
64140W        W29400  38.569   6.236  14.043
64141W        W29401  43.227   9.948  10.710
64142W        W29402  30.963  39.860   4.128
64143W        W29403  23.614  10.495   0.459
64144W        W29404  18.315  33.090   4.211
64145W        W29405  14.196  43.443   1.086
64146W        W29406  34.022  36.454  11.080
64147W        W29407  33.950   1.585   3.792
64148W        W29408  39.968  33.024   4.768
64149W        W29409   8.197   8.415   0.476
64150W        W29410  30.124   2.460   1.529
64151W        W29411  19.806  40.207  13.086
64152W        W29412  10.855  28.109   4.303
64153W        W29413  39.469  30.095  12.107
64154W        W29414   4.706   4.036  12.735
64155W        W29415  12.742  41.522   4.255
64156W        W29416   2.296  31.635  13.593
64157W        W29417  23.660  35.367   1.277
64158W        W29418  41.382  30.954   3.294
64159W        W29419   5.783   5.691  14.721
64160W        W29420  12.448  30.492  12.324
64161W        W29421  19.545   8.807  13.869
64162W        W29422  36.069  26.567  11.778
64163W        W29423   3.845  40.033   0.330
64164W        W29424   8.718   1.241   1.293
64165W        W29425   7.057  17.086  13.107
64166W        W29426  15.260  20.043   5.580
64167W        W29427  14.970  35.351   4.235
64168W        W29428   3.263  19.611   0.239
64169W        W29429  22.109  31.368  12.098
64170W        W29430  30.169  12.273   3.182
64171W        W29431  28.548   7.677   1.521
64172W        W29432  27.197  19.942  13.991
64173W        W29433  10.740  43.708   2.778
64174W        W29434  11.660  32.849  11.741
64175W        W29435  41.278   2.376  10.999
64176W        W29436  40.101  34.838  10.903
64177W        W29437  21.179  20.658  11.427
64178W        W29438  24.361  13.134   0.417
64179W        W29439   7.785   5.937   2.962
64180W        W29440  37.967  11.295  11.592
64181W        W29441   1.417  15.583  13.061
64182W        W29442  43.674   7.819   3.086
64183W        W29443  32.502  44.322   5.226
64184W        W29444  40.072  36.636  12.274
64185W        W29445   3.238  38.346  12.987
64186W        W29446  31.048  18.936   4.165
64187W        W29447  42.363  30.072   0.952
64188W        W29448  22.547  10.083  12.427
64189W        W29449   9.144  44.943   0.292
64190W        W29450  44.911  38.879   0.862
64191W        W29451   7.921  44.488  10.121
64192W        W29452  27.033  17.027  14.178
64193W        W29453  26.967   3.799   1.052
64194W        W29454   2.868  33.256   4.610
64195W        W29455  32.206  25.807  11.308
64196W        W29456  12.033   1.641   3.958
64197W        W29457  21.688   6.669  12.989
64198W        W29458  14.766   2.789   2.694
64199W        W29459  38.007  40.570   0.778
64200W        W29460   9.382  32.475  11.060
64201W        W29461  36.537  11.755   1.313
64202W        W29462  20.196  44.592   1.030
64203W        W29463  16.289  31.185  11.995
64204W        W29464  26.884  44.272   2.319
64205W        W29465  31.681  40.333   5.007
64206W        W29466   9.121  18.626  12.820
64207W        W29467  35.351  42.033  14.053
64208W        W29468  16.065  34.015  13.395
64209W        W29469  28.649  26.485   4.538
64210W        W29470   5.643  34.330  13.269
64211W        W29471  23.277  36.434  12.990
64212W        W29472   1.098  34.839  13.014
64213W        W29473  10.913  35.058   0.006
64214W        W29474  36.492  34.034  11.118
64215W        W29475  12.327  39.522  12.204
64216W        W29476   2.944  21.223  12.563
64217W        W29477  26.987   0.952  11.152
64218W        W29478  29.609  17.030   4.183
64219W        W29479  44.535   8.025  11.655
64220W        W29480  32.837  32.410  13.070
64221W        W29481  42.639  26.281  13.959
64222W        W29482  17.648  32.215   2.827
64223W        W29483  42.998  36.345   1.352
64224W        W29484  19.471  16.283  13.939
64225W        W29485  25.331  15.435   4.336
64226W        W29486  34.862  34.538   0.442
64227W        W29487  12.560  29.559  10.570
64228W        W29488  11.721  42.913   2.262
64229W        W29489  29.724  44.005   4.288
64230W        W29490  14.294  28.668  11.859
64231W        W29491  39.462   5.367  14.189
64232W        W29492  14.240  40.606   1.918
64233W        W29493   3.530  20.935  13.384
64234W        W29494  36.609  15.691  11.785
64235W        W29495   5.167  15.384  13.409
64236W        W29496  42.615  43.077   9.983
64237W        W29497  43.886  35.857  13.071
64238W        W29498  27.311  28.640   2.230
64239W        W29499  13.565  43.603  12.382
64240W        W29500  44.603   4.495  13.454
64241W        W29501  18.005  36.466  10.602
64242W        W29502  38.395   0.449   2.424
64243W        W29503  24.167   8.938  13.734
64244W        W29504   2.780  39.153  13.478
64245W        W29505   6.053  36.459  12.160
64246W        W29506  14.364  38.111  11.533
64247W        W29507  37.444  20.163   4.300
64248W        W29508  28.251   7.284   1.693
64249W        W29509  34.807  38.619   2.766
64250W        W29510  24.520   1.958  12.926
64251W        W29511  37.492   5.734  11.491
64252W        W29512  31.155   8.711  13.583
64253W        W29513   6.789  39.580   1.879
64254W        W29514   1.460  16.537  10.600
64255W        W29515  27.562  11.962  12.427
64256W        W29516  31.979  29.461  11.542
64257W        W29517  30.060  18.115   3.058
64258W        W29518  10.760  22.439  13.751
64259W        W29519   5.273  26.069   4.938
64260W        W29520   7.429  34.153   3.770
64261W        W29521  43.028  21.037  12.590
64262W        W29522  18.522  43.876   2.201
64263W        W29523   9.643   9.854  11.873
64264W        W29524  32.569  44.697  13.365
64265W        W29525  17.524  10.330   3.851
64266W        W29526   2.818  14.886  11.220
64267W        W29527   1.015   0.930  11.456
64268W        W29528  19.290  17.968   0.586
64269W        W29529  39.518  32.211   0.715
64270W        W29530  15.694  20.184  12.599
64271W        W29531   1.372  31.617   3.694
64272W        W29532  27.205  19.202  11.188
64273W        W29533  29.878  42.553  13.867
64274W        W29534  34.529   2.123  13.887
64275W        W29535  28.925  10.893   2.331
64276W        W29536  31.565  25.374   1.801
64277W        W29537  41.026  42.265  10.726
64278W        W29538  34.807  39.926   0.162
64279W        W29539   9.333  23.760  13.020
64280W        W29540  42.310  19.537   3.331
64281W        W29541  13.136  15.312   0.753
64282W        W29542  13.475  17.692  14.804
64283W        W29543  35.911  27.987   3.224
64284W        W29544  30.783  37.019   0.397
64285W        W29545   4.434  19.448  11.496
64286W        W29546  37.046  34.448  10.667
64287W        W29547  42.324  26.102  14.980
64288W        W29548  32.883  22.626  13.639
64289W        W29549  14.167  15.332   0.751
64290W        W29550   8.251  16.842   0.083
64291W        W29551   2.418  30.630  14.444
64292W        W29552  23.218  44.900   4.484
64293W        W29553  12.230  23.368  13.026
64294W        W29554  30.756  23.286  11.080
64295W        W29555  15.694  10.182   3.815
64296W        W29556  37.039  36.153  14.439
64297W        W29557  41.796  19.498  11.983
64298W        W29558  19.027   6.787  13.415
64299W        W29559  24.276  25.645   1.292
64300W        W29560   9.357   3.881  11.077
64301W        W29561   1.919   5.847  14.927
64302W        W29562  41.862  15.539   4.682
64303W        W29563  42.397   9.963   0.448
64304W        W29564  22.273   2.697   9.976
64305W        W29565  12.678  16.635  14.382
64306W        W29566   7.824  41.774  12.683
64307W        W29567  27.217   1.302  14.359
64308W        W29568  32.414  23.662   3.243
64309W        W29569   0.455  26.012   1.695
64310W        W29570  18.924   3.382   4.158
64311W        W29571  16.671  23.454  11.616
64312W        W29572  18.978  23.741  14.610
64313W        W29573   8.093  30.970   0.968
64314W        W29574  29.362   0.890  12.426
64315W        W29575  24.742  17.118   0.386
64316W        W29576  38.369  42.569  11.476
64317W        W29577   9.862  20.116  14.385
64318W        W29578  20.498   8.165   2.761
64319W        W29579   5.232  43.587   4.084
64320W        W29580  40.087  35.661   4.451
64321W        W29581  30.603  31.397   3.875
64322W        W29582  34.106  44.426   2.337
64323W        W29583  28.549  32.463   1.210
64324W        W29584  32.003  23.249   1.454
64325W        W29585  11.044  23.085  12.254
64326W        W29586   4.747  27.655  10.733
64327W        W29587  31.571  37.495   1.941
64328W        W29588   7.864  30.498   3.271
64329W        W29589  40.508   8.855   2.264
64330W        W29590  33.405  39.092   0.318
64331W        W29591  14.573  37.382   4.513
64332W        W29592   1.556   9.404   0.302
64333W        W29593  20.622  13.647  13.432
64334W        W29594   3.505   4.559   1.671
64335W        W29595  21.652  20.486   2.581
64336W        W29596  31.177  24.132   0.177
64337W        W29597   5.656  24.519   4.374
64338W        W29598  39.112  44.161  13.684
64339W        W29599  30.616  42.939   5.131
64340W        W29600  31.528  11.714  12.614
64341W        W29601  17.997  12.224  13.302
64342W        W29602   2.812  23.429   2.199
64343W        W29603  10.192  29.371   5.149
64344W        W29604   0.355   6.185  13.430
64345W        W29605  29.707  13.764   3.289
64346W        W29606  15.275  35.966  14.473
64347W        W29607   5.810  26.824   5.094
64348W        W29608  16.358  11.673  11.143
64349W        W29609  13.595  39.375  12.000
64350W        W29610  28.225  35.184  12.035
64351W        W29611  30.991  12.094  11.049
64352W        W29612  32.944  44.411   1.785
64353W        W29613  42.392  19.087  12.658
64354W        W29614  12.681   9.422  12.755
64355W        W29615   9.644  38.959  13.508
64356W        W29616  19.617  31.897  11.540
64357W        W29617  18.787  29.518   4.417
64358W        W29618   0.907  21.554   2.766
64359W        W29619   9.952  17.167  11.962
64360W        W29620  19.426  39.514   3.352
64361W        W29621  22.685  16.751  12.064
64362W        W29622   4.863  26.666  13.622
64363W        W29623  31.441   9.350   0.487
64364W        W29624  15.588  27.581   3.163
64365W        W29625  25.510  39.078   1.438
64366W        W29626  13.116  36.029  12.057
64367W        W29627  21.709  26.254  10.654
64368W        W29628  26.023  18.677  13.104
64369W        W29629  24.696  29.033  12.987
64370W        W29630  33.184   3.850  12.383
64371W        W29631  34.885   2.779   0.750
64372W        W29632  39.421  40.368  10.696
64373W        W29633  21.961  33.063   4.954
64374W        W29634  42.736  20.588  12.622
64375W        W29635  19.800  31.545  10.775
64376W        W29636  12.200   2.602   1.773
64377W        W29637   1.962  42.849  12.069
64378W        W29638   1.369  10.421   1.232
64379W        W29639   7.390   7.356  10.535
64380W        W29640   2.530  11.427   1.640
64381W        W29641  39.173  39.428   1.706
64382W        W29642   8.248  27.691  10.810
64383W        W29643  41.822  25.366   2.238
64384W        W29644   6.266  31.339  11.579
64385W        W29645  13.572  13.546   0.647
64386W        W29646  42.046  31.032  12.601
64387W        W29647   6.795   7.740   0.108
64388W        W29648  24.698  10.934   2.317
64389W        W29649   7.300  35.491   1.145
64390W        W29650  38.780  13.178  14.375
64391W        W29651  12.709   3.421  13.388
64392W        W29652  40.891  43.399  12.543
64393W        W29653  13.869  17.269   1.875
64394W        W29654  13.315  34.921  13.514
64395W        W29655  19.937  33.875  14.386
64396W        W29656  14.898  20.400   5.474
64397W        W29657   9.475  41.782  12.723
64398W        W29658   6.156  26.304  10.966
64399W        W29659   2.401  26.984   4.283
64400W        W29660  32.679  23.285   0.222
64401W        W29661   0.403   7.468  12.464
64402W        W29662  41.615  26.754  12.914
64403W        W29663  32.044  42.814   0.735
64404W        W29664  10.873  29.469   1.535
64405W        W29665  42.872  40.814  12.626
64406W        W29666  34.840  43.947  13.418
64407W        W29667  29.861  26.738   4.946
64408W        W29668  37.324  39.008   0.632
64409W        W29669  39.394   3.343   2.756
64410W        W29670  42.561   8.343  14.472
64411W        W29671  18.582   8.085   1.232
64412W        W29672  13.072  37.215  11.182
64413W        W29673   0.358  39.859   0.249
64414W        W29674  36.285  39.451  13.561
64415W        W29675  15.119  10.899  11.116
64416W        W29676  36.489  19.117  12.251
64417W        W29677  12.042   7.211   0.808
64418W        W29678   6.051  36.040   4.299
64419W        W29679  38.275  10.889  11.412
64420W        W29680  44.994  17.023  12.057
64421W        W29681  16.531   0.300   1.305
64422W        W29682  25.703  27.261   3.289
64423W        W29683  42.077   9.712   3.322
64424W        W29684  18.797  31.415   1.741
64425W        W29685  35.990  21.990   4.862
64426W        W29686   3.847  26.168  13.571
64427W        W29687  19.577  15.569  12.389
64428W        W29688  21.470  22.468  10.142
64429W        W29689  21.545  18.077   1.651
64430W        W29690  22.223  20.349  14.090
64431W        W29691  14.903   4.986   4.671
64432W        W29692   8.897  24.085   1.466
64433W        W29693   3.922  36.412   2.579
64434W        W29694   9.142  21.139   4.662
64435W        W29695  23.687   1.840  12.257
64436W        W29696   6.227  33.890  10.757
64437W        W29697  14.204  15.108  13.981
64438W        W29698  19.470   2.686  10.552
64439W        W29699  40.382   4.182   4.569
64440W        W29700   8.267  17.318   2.313
64441W        W29701  23.164  31.651  11.532
64442W        W29702  31.757   0.871  14.362
64443W        W29703   9.457  18.004  11.684
64444W        W29704  10.334  23.209  14.760
64445W        W29705  15.740   6.875   1.124
64446W        W29706   0.421  33.438   1.471
64447W        W29707  21.591  37.475  14.207
64448W        W29708  37.860  32.412   1.760
64449W        W29709  23.571   2.432   4.192
64450W        W29710   1.378  20.553   3.399
64451W        W29711  22.167  26.672   4.356
64452W        W29712  42.417  36.155  14.376
64453W        W29713  18.519  20.394   0.648
64454W        W29714  11.211  36.787  14.384
64455W        W29715   6.333  17.790   0.702
64456W        W29716   5.310  28.230   2.308
64457W        W29717  19.571  36.442  10.725
64458W        W29718  33.990  21.424  12.420
64459W        W29719  42.292  16.725  10.717
64460W        W29720  27.232  33.773  14.372
64461W        W29721   8.183  34.042  12.067
64462W        W29722  20.166  39.034  11.923
64463W        W29723   1.193   7.901  12.938
64464W        W29724  22.326  19.080  10.412
64465W        W29725   9.990   8.045   9.767
64466W        W29726  29.512  39.612  13.418
64467W        W29727  22.160  24.736  14.658
64468W        W29728  10.839  12.820  14.780
64469W        W29729   2.269  26.626  14.753
64470W        W29730  18.864  38.977  13.022
64471W        W29731  31.553  16.692   0.332
64472W        W29732  13.090  24.868   9.890
64473W        W29733  41.169  23.182   4.704
64474W        W29734   2.445  27.510   2.186
64475W        W29735  35.949  22.226   1.273
64476W        W29736  14.155   4.507   3.761
64477W        W29737  24.124   4.540   1.699
64478W        W29738  28.414  10.198  11.559
64479W        W29739  27.577  31.613   4.673
64480W        W29740   8.659   7.304   2.156
64481W        W29741  28.049  19.731  10.981
64482W        W29742  38.823   5.799  13.919
64483W        W29743  16.216  18.412   3.224
64484W        W29744  35.495  18.823  13.935
64485W        W29745  24.615  19.323   0.427
64486W        W29746   4.456   9.189   1.844
64487W        W29747   4.435   2.599   2.000
64488W        W29748  26.665  25.039   0.045
64489W        W29749  30.479  18.244   3.362
64490W        W29750  10.911  11.653   4.139
64491W        W29751  32.496   1.319  12.933
64492W        W29752  21.664  38.022  13.027
64493W        W29753   0.446  10.494  11.512
64494W        W29754  31.065  43.388  12.955
64495W        W29755  35.744  22.760   1.335
64496W        W29756  36.466  27.979  13.275
64497W        W29757  39.076  35.915   2.234
64498W        W29758  14.611  19.438   5.480
64499W        W29759  11.051   8.702  12.045
64500W        W29760   9.990  14.676  12.480
64501W        W29761  40.371  36.867  13.275
64502W        W29762   8.911   2.801   4.878
64503W        W29763  25.215   1.350  11.083
64504W        W29764  40.935   8.230  10.846
64505W        W29765  14.920  43.001   4.603
64506W        W29766  36.518  17.006   2.747
64507W        W29767   5.285  30.354  11.976
64508W        W29768  30.025  10.370  14.569
64509W        W29769   4.838  23.992  10.719
64510W        W29770  26.300   4.902   2.160
64511W        W29771  23.732  39.257  12.848
64512W        W29772  10.848  21.263   1.797
64513W        W29773  24.180   4.806   2.122
64514W        W29774  43.854  25.564  13.900
64515W        W29775  29.037  19.171   5.075
64516W        W29776   3.989  37.441   1.711
64517W        W29777  37.584   9.741   1.283
64518W        W29778   7.815  13.580  13.415
64519W        W29779  27.460  21.749   2.818
64520W        W29780   1.357  27.978   3.725
64521W        W29781  17.043  26.729   0.171
64522W        W29782  18.789   1.800  14.416
64523W        W29783  41.467  29.511   1.351
64524W        W29784  42.475  14.283  13.565
64525W        W29785   1.899  21.017  10.535
64526W        W29786  28.212  18.262  13.483
64527W        W29787   0.196   0.527  13.707
64528W        W29788  36.651  31.215   4.162
64529W        W29789   6.282  10.701   4.739
64530W        W29790  24.961  43.706  14.844
64531W        W29791  17.656  18.939   0.291
64532W        W29792  28.134  38.990   5.222
64533W        W29793   0.982  44.979  13.526
64534W        W29794   5.725  40.497  14.889
64535W        W29795  38.755  41.742   0.913
64536W        W29796   8.830  11.632   1.599
64537W        W29797  28.100  14.829  10.971
64538W        W29798   1.931  41.064   1.089
64539W        W29799   6.852  38.924  11.634
64540W        W29800  40.569   6.765  14.113
64541W        W29801   8.275  40.598   4.647
64542W        W29802  36.695  37.632   1.412
64543W        W29803  23.785  44.759   1.310
64544W        W29804   2.811  12.777  11.038
64545W        W29805  14.282  37.365   2.698
64546W        W29806   4.797   4.471   2.453
64547W        W29807  35.939  42.048  11.541
64548W        W29808  31.113  39.587  14.389
64549W        W29809  10.159  26.206  13.925
64550W        W29810  17.670  30.760  14.785
64551W        W29811  26.896  28.246   1.338
64552W        W29812  24.053  23.255  13.870
64553W        W29813  25.556  11.981  13.743
64554W        W29814  36.414  40.704   1.681
64555W        W29815  16.211  36.603   2.303
64556W        W29816  21.284  16.097   1.352
64557W        W29817  31.168   5.846   0.705
64558W        W29818   3.967   5.519  10.082
64559W        W29819  39.264   2.316  11.177
64560W        W29820  38.976  34.026  13.321
64561W        W29821  17.344  11.261  13.492
64562W        W29822  30.435  40.203   4.243
64563W        W29823   5.784   1.280  13.489
64564W        W29824  22.390  34.347  10.307
64565W        W29825  18.642   2.950  10.667
64566W        W29826   5.224  25.218   2.214
64567W        W29827  44.066  22.477  11.379
64568W        W29828  44.822  16.324  13.508
64569W        W29829   0.928  18.789   0.778
64570W        W29830  40.294   8.224   0.471
64571W        W29831  25.454  20.645  13.975
64572W        W29832  38.792  19.815   0.309
64573W        W29833  32.229  11.785   3.305
64574W        W29834  11.084  22.026   4.613
64575W        W29835   3.960  31.904   4.545
64576W        W29836  15.211  38.892   0.060
64577W        W29837  42.488   6.833  10.676
64578W        W29838  12.794  14.818  14.289
64579W        W29839  16.024  37.407  12.054
64580W        W29840   0.267   9.249  14.001
64581W        W29841   3.490  39.976  14.426
64582W        W29842  23.200   3.690  11.153
64583W        W29843  25.225  12.869   4.226
64584W        W29844  17.170  30.144  10.785
64585W        W29845  18.045   8.136  14.776
64586W        W29846  11.377  25.176   1.452
64587W        W29847   2.021  11.408   1.859
64588W        W29848  10.688  33.556  12.459
64589W        W29849  17.413  23.641   2.364
64590W        W29850  37.672   9.829   4.091
64591W        W29851  23.521   5.089   0.376
64592W        W29852  16.629  36.488   1.522
64593W        W29853  10.861  35.877   4.168
64594W        W29854   1.418  21.604  10.908
64595W        W29855   4.533  44.821   4.380
64596W        W29856  40.074  23.466   2.841
64597W        W29857  26.036  13.058  12.043
64598W        W29858  21.275   3.299   0.760
64599W        W29859   3.493  29.144  12.510
64600W        W29860  14.772  22.468  11.524
64601W        W29861  24.684  43.998   1.322
64602W        W29862  11.712  37.510   0.215
64603W        W29863   2.990  40.033   2.897
64604W        W29864  26.780  29.362  10.371
64605W        W29865  36.229  40.990  12.218
64606W        W29866  17.873  34.449  11.516
64607W        W29867  33.116  17.690   4.064
64608W        W29868  19.614  26.046   0.977
64609W        W29869  43.816  32.993   4.153
64610W        W29870  19.809   1.751   4.777
64611W        W29871  16.054  24.101  12.908
64612W        W29872  19.079  23.399  13.817
64613W        W29873  17.540  18.689   3.640
64614W        W29874  21.992   3.799   1.117
64615W        W29875  33.138  42.338  13.501
64616W        W29876  31.167  15.708   1.472
64617W        W29877  19.855  20.997   4.235
64618W        W29878  10.259  13.138  11.233
64619W        W29879   5.883  19.935   4.671
64620W        W29880  37.901   9.688   3.656
64621W        W29881  40.721  12.847   3.900
64622W        W29882  22.923  33.809  13.275
64623W        W29883  11.695   0.530   3.835
64624W        W29884   9.191  25.243   3.206
64625W        W29885   9.909  34.998  12.233
64626W        W29886  18.579   2.189  13.666
64627W        W29887  37.925  10.563   3.204
64628W        W29888   9.753  44.087  13.969
64629W        W29889   6.394  40.272   3.296
64630W        W29890  14.839   4.408  11.176
64631W        W29891   7.405  32.388  12.092
64632W        W29892  33.606   0.449   2.022
64633W        W29893  35.040   7.225   4.517
64634W        W29894   3.347  26.927   0.925
64635W        W29895  25.025  38.851  14.765
64636W        W29896  32.957  44.203  12.563
64637W        W29897  30.482   6.162   1.145
64638W        W29898  18.791   9.176   2.653
64639W        W29899   3.362   4.143   0.861
64640W        W29900  34.426   8.868   2.853
64641W        W29901  11.332  10.611  11.168
64642W        W29902  42.715  44.542  13.413
64643W        W29903  33.983  14.193   2.615
64644W        W29904  19.691  25.084   1.832
64645W        W29905  41.912   0.826   4.609
64646W        W29906  37.420  44.343  10.465
64647W        W29907   1.550  32.161  13.735
64648W        W29908  17.435  26.736  13.944
64649W        W29909   9.217  19.250   2.263
64650W        W29910  26.945  31.535  12.887
64651W        W29911   5.140  36.170   4.102
64652W        W29912  27.588   3.167   0.207
64653W        W29913  44.193  29.005  14.568
64654W        W29914  32.094   2.703  13.359
64655W        W29915  18.702  37.054   3.725
64656W        W29916  44.514   4.480  14.571
64657W        W29917  24.517  15.847   4.577
64658W        W29918  16.307  20.665  11.951
64659W        W29919   3.360  43.860   2.329
64660W        W29920  22.399  15.761   0.830
64661W        W29921  29.987  22.528  14.050
64662W        W29922  28.907  21.336   0.745
64663W        W29923  38.884   3.381  10.921
64664W        W29924  26.566  43.074  13.389
64665W        W29925   3.668  44.439   1.252
64666W        W29926  41.252  10.722  12.606
64667W        W29927  42.449  16.126   4.939
64668W        W29928   2.905  17.879   1.482
64669W        W29929  34.012  41.884  12.457
64670W        W29930  13.243  32.819  12.832
64671W        W29931  22.552  29.392   0.272
64672W        W29932  30.657  29.256   9.909
64673W        W29933  16.038  13.906   1.829
64674W        W29934  20.607  24.004  13.251
64675W        W29935  38.581  21.981  12.669
64676W        W29936  18.365  23.130   3.367
64677W        W29937  20.025  22.332  11.118
64678W        W29938  33.050   1.764   4.849
64679W        W29939  29.493   9.205  12.963
64680W        W29940  40.159  36.531   0.832
64681W        W29941  25.283  25.034   0.055
64682W        W29942   5.678  18.618  12.925
64683W        W29943  40.481  25.370  12.002
64684W        W29944   3.924   0.354   4.007
64685W        W29945  43.295  44.785   3.058
64686W        W29946  22.190  37.802  13.544
64687W        W29947  39.872  19.620   4.786
64688W        W29948  21.104  19.401   0.388
64689W        W29949  38.276  28.882   0.340
64690W        W29950  20.196  17.174   1.228
64691W        W29951   9.895  23.256  13.415
64692W        W29952   8.884  42.935   0.056
64693W        W29953   4.934  29.857  10.637
64694W        W29954   3.456  38.301   3.873
64695W        W29955  19.808  16.576   3.246
64696W        W29956   0.357  39.959   3.401
64697W        W29957  12.976   3.648   1.438
64698W        W29958   7.851  25.752  14.812
64699W        W29959   7.630  16.178   1.095
64700W        W29960   0.716  40.658  11.109
64701W        W29961  21.212  24.233  10.735
64702W        W29962   4.775   1.330  13.841
64703W        W29963  34.800  40.940   1.402
64704W        W29964  33.951  10.889   1.462
64705W        W29965   0.858  27.867   0.411
64706W        W29966  13.193   6.061  12.450
64707W        W29967  14.426  38.309   0.916
64708W        W29968  32.307  43.328   3.686
64709W        W29969  36.483   9.040   1.980
64710W        W29970  41.048  36.114   3.198
64711W        W29971  19.598  23.952   2.464
64712W        W29972  33.360  28.721   3.613
64713W        W29973   0.440  25.547   1.402
64714W        W29974  40.125   9.101   0.375
64715W        W29975  18.476   4.124   0.342
64716W        W29976  23.030  24.003   4.538
64717W        W29977  21.263  14.367   4.745
64718W        W29978   2.540  13.428   5.502
64719W        W29979  12.246  37.353   2.039
64720W        W29980  41.979  31.559   1.561
64721W        W29981   2.025  26.210  10.789
64722W        W29982  42.516   5.415   2.735
64723W        W29983  35.904  38.551   3.919
64724W        W29984  12.424  15.691  11.479
64725W        W29985  34.483  44.273  11.521
64726W        W29986  35.760  43.901  11.547
64727W        W29987  15.606  21.747   2.783
64728W        W29988   4.398  25.117   3.598
64729W        W29989  39.726  23.153   4.113
64730W        W29990   1.771  33.871  12.727
64731W        W29991   2.044  11.278  10.217
64732W        W29992  32.207  27.126  10.331
64733W        W29993  23.954  33.947  12.326
64734W        W29994  39.985  23.275   4.555
64735W        W29995  21.765   8.395  14.435
64736W        W29996  35.274  40.208   4.794
64737W        W29997  31.166  30.082  13.004
64738W        W29998  21.394  36.531  13.387
64739W        W29999  25.700  32.625   3.631
64740W        W30000  27.033   6.834   3.643
64741W        W30001  16.199  39.440   1.367
64742W        W30002  17.698  43.507   2.427
64743W        W30003  33.451   1.306  10.386
64744W        W30004  22.573  12.835   4.542
64745W        W30005  44.266   3.825   5.042
64746W        W30006  15.313  44.003  12.698
64747W        W30007   4.487  13.751   0.425
64748W        W30008  17.294  41.936   3.592
64749W        W30009  26.588  40.357   1.856
64750W        W30010  18.480  32.906   3.350
64751W        W30011  30.993  19.733   0.749
64752W        W30012  19.649  14.124   4.742
64753W        W30013  31.999  17.434  11.096
64754W        W30014  16.676  44.531  10.251
64755W        W30015  21.931  24.907   2.559
64756W        W30016  36.650  23.103  13.478
64757W        W30017  28.754  13.872  12.501
64758W        W30018  43.083  41.392   2.305
64759W        W30019  13.187  12.189  14.567
64760W        W30020   3.562  31.073  10.836
64761W        W30021  27.934  10.153   2.896
64762W        W30022   4.688  20.182   2.109
64763W        W30023   1.391   3.812   0.342
64764W        W30024  37.938  16.588  13.325
64765W        W30025  21.001  23.571  12.162
64766W        W30026   4.927  28.932   3.699
64767W        W30027  44.025  33.972  13.768
64768W        W30028   9.913  12.709   4.163
64769W        W30029  30.234   1.713  12.916
64770W        W30030   6.615  32.048   1.679
64771W        W30031   8.293   1.027   2.500
64772W        W30032  22.090   9.537  11.877
64773W        W30033  18.808  29.162   2.213
64774W        W30034  13.391  17.667  13.886
64775W        W30035  15.845  38.781  14.406
64776W        W30036  43.391   1.586   3.097
64777W        W30037   7.312   7.431  12.785
64778W        W30038  12.632  17.679  13.451
64779W        W30039   3.087  35.536  12.893
64780W        W30040  43.934  29.098  11.248
64781W        W30041  11.285  36.955   1.846
64782W        W30042  13.131  27.149  11.666
64783W        W30043   6.950  11.548  13.853
64784W        W30044  26.167  30.858  14.353
64785W        W30045  31.035  13.602  11.181
64786W        W30046  35.847  22.240  12.527
64787W        W30047  38.531  21.228  13.281
64788W        W30048  11.905  25.286   1.290
64789W        W30049  17.569  16.186  11.395
64790W        W30050   7.671  37.925   0.238
64791W        W30051  16.057  31.433   0.771
64792W        W30052  22.608   2.561   4.520
64793W        W30053  32.108  44.442  12.058
64794W        W30054  24.107  21.151   1.448
64795W        W30055  35.613  44.017  12.971
64796W        W30056  30.815   0.250  12.511
64797W        W30057   3.720  44.632  10.430
64798W        W30058  12.649  23.533  13.529
64799W        W30059  27.656   3.984  14.976
64800W        W30060  23.705  43.809  13.447
64801W        W30061   2.179  12.337  12.017
64802W        W30062  43.897  10.240  12.046
64803W        W30063   6.108  19.011  14.874
64804W        W30064  39.438  20.152  11.850
64805W        W30065   7.584  32.834  12.989
64806W        W30066  12.250  26.059  13.829
64807W        W30067  35.598  25.665  13.902
64808W        W30068  31.936   0.452   0.526
64809W        W30069  28.138  15.298  14.538
64810W        W30070   7.344   0.458   3.203
64811W        W30071  43.230  34.904   3.294
64812W        W30072   4.158  32.044  13.724
64813W        W30073  38.972  39.824  13.898
64814W        W30074  11.773  23.451   4.741
64815W        W30075  38.518  13.805   0.474
64816W        W30076  32.872  19.934  11.040
64817W        W30077   3.638  38.441   2.704
64818W        W30078  44.217  24.628  10.471
64819W        W30079  30.361  33.995  13.806
64820W        W30080  40.525  18.018   4.090
64821W        W30081  11.712  14.211   2.731
64822W        W30082  11.799  11.108   3.756
64823W        W30083  25.955  10.110   2.590
64824W        W30084  25.362  36.968   5.034
64825W        W30085  18.253  24.989  13.840
64826W        W30086  24.017  28.332  14.454
64827W        W30087  19.293  22.268   4.323
64828W        W30088  26.893   8.625  11.301
64829W        W30089   8.796  36.260  13.005
64830W        W30090  12.888  41.631   3.315
64831W        W30091   5.644   8.256  11.106
64832W        W30092  23.247  27.644   0.921
64833W        W30093  38.941   9.149  12.394
64834W        W30094   6.643  17.240   3.338
64835W        W30095   8.931  29.211  10.964
64836W        W30096  32.532   5.270   0.393
64837W        W30097  11.799  23.010  14.223
64838W        W30098  32.017  33.939  14.314
64839W        W30099  22.040  27.318  10.765
64840W        W30100  11.838  14.199   4.677
64841W        W30101   8.198  43.259   1.782
64842W        W30102   2.847   4.045   0.944
64843W        W30103  43.692  19.773   1.751
64844W        W30104  23.605  19.327  12.118
64845W        W30105  40.294  28.682   4.131
64846W        W30106  24.756  25.821  13.248
64847W        W30107  27.026  15.338  12.978
64848W        W30108   7.184  21.674   3.364
64849W        W30109  36.393  11.184   3.592
64850W        W30110  18.951   1.806  13.848
64851W        W30111  13.187  25.159  13.725
64852W        W30112  15.910  27.708  12.557
64853W        W30113  28.460  22.964   0.397
64854W        W30114   2.450  37.021   1.765
64855W        W30115   6.766   7.500  12.520
64856W        W30116   8.046  25.419  14.419
64857W        W30117  32.904  42.519   1.813
64858W        W30118   1.706  21.733   3.776
64859W        W30119  12.588  22.322  13.746
64860W        W30120  28.608   4.329  14.932
64861W        W30121  17.146  33.535  12.020
64862W        W30122  33.575   7.858   2.467
64863W        W30123  33.663  13.641  10.796
64864W        W30124  36.136  12.774   2.097
64865W        W30125  27.504  40.853   1.754
64866W        W30126  29.854   9.196   1.804
64867W        W30127  25.702  33.968   1.456
64868W        W30128  13.448   6.891   3.274
64869W        W30129  41.615  40.437  11.386
64870W        W30130  34.563  35.415  14.802
64871W        W30131  25.831  10.911  14.077
64872W        W30132  16.232   8.641  14.439
64873W        W30133  41.233  38.171   2.799
64874W        W30134  15.336   4.866   0.038
64875W        W30135  38.702  15.316  14.201
64876W        W30136  33.373  44.764  12.832
64877W        W30137  32.429  43.782  12.843
64878W        W30138  40.323  11.142   0.525
64879W        W30139  17.154  34.371  11.101
64880W        W30140  40.079  20.067  14.895
64881W        W30141  35.567  32.422  13.958
64882W        W30142  40.583  37.637   2.450
64883W        W30143   2.826  19.279   0.227
64884W        W30144  24.263  43.232  10.693
64885W        W30145  44.177  26.855  12.049
64886W        W30146  24.291  15.243   2.804
64887W        W30147  36.584   7.424   0.858
64888W        W30148  28.696  16.623  14.326
64889W        W30149  17.771  32.691  10.817
64890W        W30150   4.032  21.659   0.472
64891W        W30151   8.314  41.235  13.524
64892W        W30152   2.733  14.208  10.245
64893W        W30153  38.478   7.981  12.360
64894W        W30154  32.927  11.451   2.470
64895W        W30155  41.060  13.732   0.512
64896W        W30156  24.774  29.435  14.836
64897W        W30157  41.914  40.830  11.493
64898W        W30158  42.011  13.021  11.954
64899W        W30159  21.737  11.293   1.370
64900W        W30160  22.064   0.716   2.630
64901W        W30161  26.933  44.279   3.158
64902W        W30162   2.296  13.521  14.027
64903W        W30163  25.145  40.307   3.805
64904W        W30164  41.776  25.646  13.708
64905W        W30165  19.827  16.549   4.127
64906W        W30166   6.460   8.772  13.452
64907W        W30167   4.379  16.167   3.095
64908W        W30168   0.023  27.123  14.482
64909W        W30169  28.722   7.549  11.666
64910W        W30170  27.613  14.727   0.127
64911W        W30171  15.472  30.430  13.297
64912W        W30172  15.826  23.628   1.726
64913W        W30173  40.525  25.873   2.457
64914W        W30174  19.076   7.156   2.207
64915W        W30175  22.959  27.192  14.511
64916W        W30176  19.239  43.311   2.296
64917W        W30177  41.698   7.811   4.019
64918W        W30178   9.761  12.410   3.532
64919W        W30179   1.493   4.358  10.388
64920W        W30180  44.655   7.257  11.251
64921W        W30181  32.560  32.431  12.490
64922W        W30182  11.262  11.867   0.269
64923W        W30183  19.706  29.319   4.189
64924W        W30184  20.123  33.382   3.800
64925W        W30185   7.267   5.425   1.403
64926W        W30186   6.433  20.566   4.206
64927W        W30187   4.116  31.578   2.792
64928W        W30188   6.677  31.089  14.135
64929W        W30189  17.831  18.261  12.273
64930W        W30190  38.995  37.128  11.031
64931W        W30191  20.233   7.711   2.891
64932W        W30192  26.606  40.775  11.424
64933W        W30193   9.791  17.535   2.220
64934W        W30194  25.209  34.998   4.859
64935W        W30195  18.136  21.175  12.552
64936W        W30196  14.136  35.343   2.805
64937W        W30197  18.096  36.435  12.581
64938W        W30198  31.885  30.219   4.868
64939W        W30199   9.271   1.886   2.550
64940W        W30200  41.429  19.824  11.154
64941W        W30201  31.007  21.202   3.769
64942W        W30202  22.015  33.380   2.465
64943W        W30203  15.093  42.926  10.690
64944W        W30204  25.173  20.707   3.624
64945W        W30205   9.117  30.562   2.647
64946W        W30206  32.561  20.288   4.163
64947W        W30207   7.162  26.701   2.399
64948W        W30208   3.053   2.687   4.753
64949W        W30209  14.334  39.003   4.358
64950W        W30210  20.971   8.526  14.025
64951W        W30211  21.094  42.344  12.317
64952W        W30212   9.109  16.025   1.388
64953W        W30213  17.653  34.320  11.950
64954W        W30214   9.209  25.034  11.088
64955W        W30215  41.285  21.781  14.049
64956W        W30216  18.545  25.271   1.406
64957W        W30217  17.691  24.938  14.909
64958W        W30218  36.870  29.539   1.181
64959W        W30219  41.065  26.644   3.333
64960W        W30220  38.412   9.009   0.626
64961W        W30221  10.693   9.174  13.941
64962W        W30222   2.024  42.158   4.633
64963W        W30223   3.712   2.388  12.114
64964W        W30224  19.837  19.101  10.398
64965W        W30225  25.436  13.885  11.096
64966W        W30226  24.592  28.489   1.604
64967W        W30227  33.126  12.186  13.991
64968W        W30228  38.926   6.512  11.773
64969W        W30229  29.699   0.674  10.997
64970W        W30230  15.656   0.731  10.359
64971W        W30231  21.490  16.532  13.907
64972W        W30232  44.733   2.809  13.797
64973W        W30233  40.694   4.954   0.474
64974W        W30234  14.148  30.712  12.597
64975W        W30235  33.370  33.645   3.127
64976W        W30236  21.526  18.954   1.565
64977W        W30237   1.537  42.514  11.630
64978W        W30238  11.254  41.770  11.295
64979W        W30239   7.686  30.331   5.105
64980W        W30240  17.790  11.896   1.698
64981W        W30241  36.829  34.085  11.489
64982W        W30242  18.574  41.376  14.494
64983W        W30243   2.220  34.950  10.701
64984W        W30244  43.929  10.140   2.833
64985W        W30245   2.476  24.999   0.642
64986W        W30246  29.388  17.570  10.884
64987W        W30247  15.816   8.378   1.293
64988W        W30248  15.951  44.972   2.525
64989W        W30249   1.049   6.420  12.949
64990W        W30250  40.279   9.614  12.415
64991W        W30251   1.849  14.474  12.628
64992W        W30252  26.965   4.128   4.612
64993W        W30253  19.537   3.833   0.526
64994W        W30254  17.840  25.946   1.387
64995W        W30255  35.451   1.504  12.122
64996W        W30256  26.595   9.180  14.759
64997W        W30257  33.967  18.684   3.732
64998W        W30258  42.169   4.763  13.401
64999W        W30259   2.856   2.300   1.415
65000W        W30260   7.103  41.019  11.166
65001W        W30261  41.340  26.320   0.768
65002W        W30262  38.022  13.329  13.358
65003W        W30263  17.199  29.753  13.422
65004W        W30264   8.428  32.468  13.219
65005W        W30265   3.207  44.983  11.250
65006W        W30266  38.089  30.118  10.723
65007W        W30267  14.281  16.065   2.149
65008W        W30268  29.643   6.481  13.987
65009W        W30269  32.889  15.465   4.383
65010W        W30270   5.334  30.036   4.502
65011W        W30271  23.118  39.586  12.134
65012W        W30272  29.086  37.989  13.651
65013W        W30273  34.104   1.412  11.560
65014W        W30274  30.016   8.387  10.751
65015W        W30275   0.891   2.322  11.330
65016W        W30276  27.062   2.319   1.336
65017W        W30277  36.915  17.863  12.367
65018W        W30278  31.003  36.841  12.918
65019W        W30279  32.511   6.271  10.558
65020W        W30280  39.746   6.165  10.655
65021W        W30281  12.588  39.092  11.969
65022W        W30282   4.780  23.063   0.733
65023W        W30283  19.199  19.255  14.932
65024W        W30284  29.304   0.900   1.432
65025W        W30285   6.085   7.636   1.792
65026W        W30286  31.350  10.929   1.254
65027W        W30287  26.791   8.372   3.366
65028W        W30288  23.471  18.816   2.301
65029W        W30289   8.681  43.934  12.574
65030W        W30290   9.908   8.669   1.448
65031W        W30291  42.282  26.988  13.485
65032W        W30292  13.307   7.412   0.270
65033W        W30293  21.278   8.785  12.474
65034W        W30294  12.376  19.504   4.317
65035W        W30295  12.201  21.002  13.110
65036W        W30296  28.521  25.641  11.515
65037W        W30297  33.711  24.062  13.134
65038W        W30298   9.468  27.511   0.962
65039W        W30299  28.514   2.802   4.678
65040W        W30300  33.843  29.514   1.295
65041W        W30301  14.010  35.823  11.196
65042W        W30302  40.522  16.958  13.320
65043W        W30303  31.916  26.763  11.081
65044W        W30304   1.877  42.792   2.248
65045W        W30305  22.574  23.780   2.722
65046W        W30306   8.128  33.644  14.200
65047W        W30307  36.376  28.717   2.020
65048W        W30308  10.418  10.275  14.001
65049W        W30309  11.413  29.545   1.538
65050W        W30310   1.231  35.886   1.236
65051W        W30311  14.770  37.993   1.173
65052W        W30312  36.138  16.124   4.184
65053W        W30313   0.765  28.742   2.572
65054W        W30314  14.485  39.891  12.897
65055W        W30315  37.349  32.554   0.245
65056W        W30316  31.182  14.625  13.854
65057W        W30317   4.120  32.672  13.405
65058W        W30318  27.953   6.407   3.663
65059W        W30319   5.189  31.970   4.113
65060W        W30320  24.121  39.089   5.028
65061W        W30321  38.074  38.982   1.305
65062W        W30322  40.659  19.221   0.391
65063W        W30323  19.707   7.844   1.606
65064W        W30324   2.844  42.980   2.887
65065W        W30325  29.175  17.092  10.630
65066W        W30326  33.049  11.523  11.208
65067W        W30327   6.485   5.739  10.720
65068W        W30328  29.338   9.309   0.322
65069W        W30329   0.661   1.711   4.571
65070W        W30330  41.543  40.011   0.232
65071W        W30331  25.126   6.903   0.090
65072W        W30332  39.968  18.840   2.851
65073W        W30333  10.699   1.547  11.543
65074W        W30334   7.186  31.540   0.417
65075W        W30335   1.936  24.453   1.854
65076W        W30336   9.448  29.684  10.258
65077W        W30337   4.490   0.771  12.772
65078W        W30338  14.056  27.561   3.098
65079W        W30339  33.914  35.600   3.160
65080W        W30340   2.689   2.659  11.108
65081W        W30341  33.278  42.118   9.923
65082W        W30342  26.766  13.179  11.104
65083W        W30343  44.403  38.560   4.733
65084W        W30344  18.702  19.089  11.917
65085W        W30345  16.317  18.653   0.502
65086W        W30346  40.950  30.624   1.423
65087W        W30347  29.249  35.321   4.861
65088W        W30348  27.430   3.886   0.777
65089W        W30349  20.586  27.489   1.295
65090W        W30350  31.186  20.158   3.753
65091W        W30351  14.178  40.603   0.974
65092W        W30352  34.745   3.975  11.823
65093W        W30353  29.553  43.024  13.892
65094W        W30354  12.632  24.460   1.261
65095W        W30355  14.877   9.259   4.450
65096W        W30356  29.606   7.737   0.968
65097W        W30357  43.703   5.157  12.604
65098W        W30358  27.923  38.003  14.488
65099W        W30359   6.488  24.627  13.848
65100W        W30360  18.299  27.535  13.427
65101W        W30361  35.705  32.377   1.344
65102W        W30362  32.655  35.976  12.151
65103W        W30363   4.695  39.449  11.433
65104W        W30364  35.875  24.816  11.568
65105W        W30365  38.833  43.063   2.323
65106W        W30366  41.253  43.526  13.927
65107W        W30367  44.925  31.169  13.479
65108W        W30368  20.789  40.900  13.868
65109W        W30369   8.714  32.360  10.274
65110W        W30370   5.580  24.646   0.245
65111W        W30371  12.040  16.520  11.889
65112W        W30372   0.752  11.094   5.204
65113W        W30373  38.543  15.603   3.602
65114W        W30374  30.431  20.287   4.519
65115W        W30375  25.171   9.388  11.486
65116W        W30376  34.175   9.605   3.170
65117W        W30377   4.292   4.357   1.386
65118W        W30378  39.517  41.950  11.952
65119W        W30379  17.277  35.029  12.130
65120W        W30380  36.279  38.823  10.384
65121W        W30381  44.000   6.640   1.330
65122W        W30382  15.091  19.777  13.762
65123W        W30383  21.077  40.937  14.449
65124W        W30384  11.324   8.606  12.874
65125W        W30385  34.443  23.125  11.934
65126W        W30386  12.128  35.529   0.870
65127W        W30387  28.029  43.824  11.686
65128W        W30388  11.439   4.767  11.819
65129W        W30389  40.229  44.902  11.406
65130W        W30390  14.613  37.546   3.632
65131W        W30391   6.735   1.163   2.018
65132W        W30392  25.164   7.386   1.872
65133W        W30393  23.721  22.520   0.277
65134W        W30394  14.835  42.934   5.138
65135W        W30395  36.955  12.412   2.671
65136W        W30396  31.421   7.458   3.521
65137W        W30397   7.872  16.550   1.910
65138W        W30398  38.116   7.927  14.580
65139W        W30399  28.453  35.287   0.840
65140W        W30400  43.833   4.411   2.689
65141W        W30401   4.277  39.956   1.213
65142W        W30402   3.533  25.202   1.669
65143W        W30403  20.063  41.139  12.118
65144W        W30404  25.232  13.593   2.782
65145W        W30405   5.250   6.367   4.560
65146W        W30406   2.322  19.642   4.093
65147W        W30407  18.753  19.220  13.438
65148W        W30408  11.079  44.823   1.357
65149W        W30409  23.022  31.232  14.282
65150W        W30410  38.305  20.270  13.066
65151W        W30411  36.684  42.804  12.531
65152W        W30412   4.703   2.344   1.199
65153W        W30413  38.975  27.894  12.810
65154W        W30414  10.475   3.493   3.195
65155W        W30415  24.451  20.594  12.037
65156W        W30416   7.888  12.261  12.851
65157W        W30417  29.903  22.053  13.860
65158W        W30418  40.324  13.855  14.225
65159W        W30419   1.296  34.459  13.314
65160W        W30420  32.541  14.415   2.697
65161W        W30421   0.536  27.045   2.415
65162W        W30422   1.444   2.348   1.340
65163W        W30423  32.579  32.665   3.355
65164W        W30424  16.798  37.405  11.657
65165W        W30425  25.180  14.205   4.334
65166W        W30426  30.558  12.297  13.960
65167W        W30427  29.616  36.143   4.601
65168W        W30428  21.852  25.217  13.042
65169W        W30429   3.225  28.491   3.591
65170W        W30430  31.417  41.761   3.236
65171W        W30431   1.750  41.535   0.926
65172W        W30432  44.761  25.229   4.214
65173W        W30433   7.472  43.981   3.177
65174W        W30434   5.990   8.979   4.028
65175W        W30435  36.529  33.332  12.633
65176W        W30436  43.456  25.958   0.984
65177W        W30437  13.643   8.652   4.120
65178W        W30438   3.227  42.476  11.831
65179W        W30439  27.451  31.557   0.025
65180W        W30440  23.636  15.225  14.044
65181W        W30441  39.589  33.207   0.875
65182W        W30442  15.322  31.552   1.208
65183W        W30443  41.684  35.663   3.287
65184W        W30444   2.408  33.335   0.128
65185W        W30445   9.312  26.743   3.177
65186W        W30446  14.811   8.030   2.939
65187W        W30447  31.665  10.707   4.654
65188W        W30448  33.443   8.809   2.827
65189W        W30449  34.524  37.666  10.832
65190W        W30450  39.628  21.061  12.062
65191W        W30451   3.207  44.985  14.989
65192W        W30452  17.752   0.306  12.044
65193W        W30453   1.481   4.411   3.289
65194W        W30454  26.472  31.573  13.861
65195W        W30455  37.663  13.840   2.420
65196W        W30456  21.625  16.003   2.711
65197W        W30457  42.923  33.843  12.646
65198W        W30458   0.503  17.382   1.946
65199W        W30459   3.180  24.439  13.592
65200W        W30460  20.050  33.669   4.824
65201W        W30461  36.067  11.404   3.248
65202W        W30462  37.140   1.940   0.856
65203W        W30463   2.448  44.718   0.718
65204W        W30464  23.439  27.017  13.555
65205W        W30465  28.389  31.018  12.060
65206W        W30466   1.942   2.336   1.536
65207W        W30467  12.586  17.707  11.235
65208W        W30468  24.554  14.650  12.143
65209W        W30469  11.540  10.714  10.686
65210W        W30470   1.833  27.435   0.814
65211W        W30471  25.127  15.891  13.100
65212W        W30472  40.787  38.688  14.359
65213W        W30473  23.594   4.511   4.085
65214W        W30474  36.489  19.191   0.461
65215W        W30475  38.882   6.196   2.253
65216W        W30476  16.819  25.205  12.408
65217W        W30477  10.333  44.950  12.464
65218W        W30478  20.691  38.808  10.144
65219W        W30479  33.061   1.182  14.219
65220W        W30480  37.189  14.670  13.315
65221W        W30481  20.526  16.093  11.244
65222W        W30482  24.481  21.995   1.379
65223W        W30483  28.457   9.699  12.333
65224W        W30484  27.606  43.471   3.541
65225W        W30485   3.964  21.992  11.192
65226W        W30486  29.829  39.568   4.054
65227W        W30487  22.138  27.910  14.248
65228W        W30488  32.526  25.970   2.674
65229W        W30489  25.771   6.681   0.499
65230W        W30490  40.226  20.613  12.308
65231W        W30491  37.475   2.160  11.975
65232W        W30492  22.275  20.071   0.810
65233W        W30493  39.448  16.674   1.459
65234W        W30494  44.007  41.306  12.940
65235W        W30495  25.112  35.817   1.275
65236W        W30496  40.523  36.807   0.407
65237W        W30497   1.726   7.310  13.384
65238W        W30498  35.719  38.353  11.142
65239W        W30499  11.069  44.784  12.018
65240W        W30500   4.774  10.481   4.652
65241W        W30501  37.589  23.322  13.626
65242W        W30502  14.254   7.652  11.556
65243W        W30503  43.038  19.060   0.278
65244W        W30504  17.043  43.994   3.290
65245W        W30505  19.411  32.836   2.237
65246W        W30506   0.015  10.719  12.417
65247W        W30507  18.044  22.265  13.292
65248W        W30508  43.877   0.847   3.186
65249W        W30509  16.112  25.512   3.838
65250W        W30510  40.239  38.361  13.901
65251W        W30511   7.951  24.328   0.750
65252W        W30512  21.059  18.398   0.248
65253W        W30513  10.400  23.055   2.647
65254W        W30514  19.319  25.170  14.872
65255W        W30515  28.432  23.007   2.584
65256W        W30516  21.183  23.991   0.756
65257W        W30517   4.973  14.557   3.688
65258W        W30518  18.543  21.909   0.819
65259W        W30519  24.296  44.854   2.219
65260W        W30520   0.908  12.080  12.103
65261W        W30521  20.520  31.347   4.966
65262W        W30522  25.392  21.746  12.196
65263W        W30523  42.997  26.379  10.663
65264W        W30524  11.135  23.090  14.810
65265W        W30525   1.739  11.748  12.937
65266W        W30526  33.572  19.966   1.287
65267W        W30527  20.685  27.930   2.208
65268W        W30528  12.728  42.261  14.025
65269W        W30529  35.384  24.191  14.900
65270W        W30530  38.101   8.843   3.162
65271W        W30531  18.284  32.066   2.126
65272W        W30532  38.920  34.847   1.304
65273W        W30533  26.021   4.915  13.244
65274W        W30534  17.040   8.746   2.262
65275W        W30535   5.207  29.512  13.041
65276W        W30536  38.899  40.046  10.184
65277W        W30537  11.590  33.800   2.168
65278W        W30538  33.136   1.709  14.153
65279W        W30539  33.431  44.007  11.972
65280W        W30540  42.556   5.794  13.801
65281W        W30541   6.671   1.396  13.969
65282W        W30542  20.958  29.658  11.495
65283W        W30543  22.760   7.668   4.476
65284W        W30544   7.735  22.772  14.930
65285W        W30545  28.273  15.993   2.948
65286W        W30546  44.528  42.875   0.041
65287W        W30547   4.825   2.858  13.255
65288W        W30548  20.073  28.725  12.076
65289W        W30549  33.139  16.301   0.036
65290W        W30550   4.170   8.270   0.919
65291W        W30551  16.192  28.018   0.154
65292W        W30552  31.110   7.252   3.193
65293W        W30553  22.664  12.201   0.000
65294W        W30554  38.380  23.050   1.937
65295W        W30555  42.344  18.221  12.979
65296W        W30556   1.580   8.822   2.597
65297W        W30557  26.049  19.249  14.476
65298W        W30558  40.044  21.590  14.251
65299W        W30559  12.704  12.731  13.095
65300W        W30560  32.817  39.835   1.907
65301W        W30561  33.662  14.906  12.793
65302W        W30562  30.122  24.988  12.575
65303W        W30563  21.723   0.198   1.441
65304W        W30564  41.708  41.976   3.425
65305W        W30565  41.496  19.118   4.694
65306W        W30566   5.428  27.410   1.863
65307W        W30567  32.384   6.406   0.402
65308W        W30568  28.866  23.997  14.734
65309W        W30569  35.852  39.155  10.862
65310W        W30570  32.885   3.290  12.398
65311W        W30571  18.346  10.232  14.803
65312W        W30572  26.658  26.515   2.051
65313W        W30573  36.409  31.672   4.205
65314W        W30574   9.661  10.236  10.574
65315W        W30575  20.555   2.254  11.996
65316W        W30576  43.998  30.154   4.687
65317W        W30577  21.578  33.071  13.043
65318W        W30578  20.752  14.109  12.089
65319W        W30579  43.989  30.632  13.129
65320W        W30580   3.778  27.622   4.167
65321W        W30581  39.347  35.851  14.208
65322W        W30582  33.991  11.762  12.302
65323W        W30583  13.309   7.263  14.747
65324W        W30584   2.846  28.690  11.447
65325W        W30585  38.384   2.303   3.149
65326W        W30586  31.081  22.882  11.009
65327W        W30587   7.380  36.546   3.710
65328W        W30588  37.592  36.071   0.538
65329W        W30589  31.680  27.255   1.265
65330W        W30590  35.565  26.723  13.355
65331W        W30591  11.641  17.967   2.319
65332W        W30592  33.361   9.161  12.091
65333W        W30593  44.930   4.206   1.297
65334W        W30594  24.475   4.847   0.741
65335W        W30595  37.375  24.216  13.586
65336W        W30596  35.882  12.792   1.627
65337W        W30597  13.880  29.429  12.376
65338W        W30598  11.727   4.385   1.800
65339W        W30599  20.747   3.653  14.919
65340W        W30600   5.247   6.395   0.209
65341W        W30601  11.695  20.296  14.923
65342W        W30602  14.766  21.804  10.738
65343W        W30603  16.843  42.323   3.814
65344W        W30604   4.228  24.989  12.941
65345W        W30605   9.315  38.377  12.896
65346W        W30606  13.109   3.253   1.121
65347W        W30607  22.240  38.834   2.764
65348W        W30608  32.785  38.071   2.516
65349W        W30609  40.768   7.852  11.133
65350W        W30610   8.782  30.554  11.978
65351W        W30611  23.472   5.302   0.867
65352W        W30612  24.027  28.650  12.482
65353W        W30613  39.696   1.224   1.839
65354W        W30614  10.095  15.886  10.453
65355W        W30615  38.143  21.755  11.297
65356W        W30616   5.154  20.677   4.908
65357W        W30617  30.136  15.632   0.913
65358W        W30618  35.173  20.744  11.994
65359W        W30619  27.423  22.788  14.957
65360W        W30620  41.997  40.522   1.244
65361W        W30621   5.131  16.965   1.861
65362W        W30622  11.298  16.286   0.902
65363W        W30623  17.222   5.917   3.292
65364W        W30624  31.010  14.686  12.850
65365W        W30625  42.433  37.786  11.893
65366W        W30626  15.128   9.423  12.288
65367W        W30627  19.033  23.029   3.811
65368W        W30628  27.308  40.594   1.317
65369W        W30629  36.910  36.453  12.990
65370W        W30630  21.501   1.940   1.924
65371W        W30631  43.841  36.576   1.777
65372W        W30632  35.521  18.504  11.656
65373W        W30633  28.660   0.867   0.930
65374W        W30634  43.094  25.147   1.013
65375W        W30635  22.707  44.324  10.322
65376W        W30636   3.242  21.692   2.657
65377W        W30637  23.059  40.862   2.444
65378W        W30638   2.912  22.012   1.893
65379W        W30639  19.244  44.848  13.269
65380W        W30640  26.902  16.541   4.158
65381W        W30641  35.888  35.672   2.293
65382W        W30642  43.464  24.345  11.694
65383W        W30643  12.507  41.885  13.389
65384W        W30644  41.278  11.244  10.808
65385W        W30645  37.989  12.733   4.076
65386W        W30646  10.395   6.633  11.883
65387W        W30647  26.833  17.464  10.652
65388W        W30648  43.291  34.427   0.163
65389W        W30649   1.482   9.644   3.665
65390W        W30650  19.244  21.616   0.863
65391W        W30651   5.304  15.214   0.901
65392W        W30652   6.431  27.868  14.015
65393W        W30653  29.952  33.488   3.195
65394W        W30654  18.781  39.780  11.131
65395W        W30655   1.421  44.251   2.790
65396W        W30656  28.833  39.017   1.624
65397W        W30657  26.815  36.974  14.307
65398W        W30658  30.449  18.057  12.066
65399W        W30659  19.763  28.639   1.434
65400W        W30660  26.538   9.913   1.355
65401W        W30661   0.308   6.859  11.651
65402W        W30662   3.295  19.217  11.382
65403W        W30663  26.211  35.616   2.210
65404W        W30664  38.508  26.675  12.942
65405W        W30665  21.668  12.399  13.126
65406W        W30666  24.176  26.171  12.474
65407W        W30667  38.946  31.210   0.278
65408W        W30668   8.828  22.936   0.510
65409W        W30669  17.134  14.869  11.603
65410W        W30670  21.774   9.753  14.928
65411W        W30671  18.735  13.241  13.418
65412W        W30672   0.176  39.390   2.993
65413W        W30673  39.879  16.425   1.347
65414W        W30674  12.632  20.254  12.082
65415W        W30675  34.966   6.119  13.856
65416W        W30676   4.954  12.290   0.723
65417W        W30677   8.367   3.139  11.628
65418W        W30678  15.047  27.923  11.069
65419W        W30679  25.470  26.676  13.796
65420W        W30680   8.556  43.974   2.303
65421W        W30681  16.619  26.219  10.819
65422W        W30682   0.373   9.709   0.184
65423W        W30683  34.802  15.056  14.283
65424W        W30684  26.422  37.532  14.989
65425W        W30685  19.515  25.024  13.412
65426W        W30686  19.070  26.627  14.075
65427W        W30687  19.056   8.479  12.566
65428W        W30688   1.978  40.908  14.612
65429W        W30689  32.849  25.605  14.774
65430W        W30690  35.634  11.860   1.386
65431W        W30691  27.245  42.299   3.433
65432W        W30692  21.267   0.831  10.600
65433W        W30693  41.041  40.273   3.630
65434W        W30694   8.581  12.943   0.962
65435W        W30695   3.158   8.800   3.643
65436W        W30696  27.418  22.746   2.721
65437W        W30697  22.700   0.898   0.858
65438W        W30698   6.206  21.613  12.256
65439W        W30699  30.843  23.687   0.801
65440W        W30700   1.011   9.786   1.957
65441W        W30701  37.764  22.567   5.122
65442W        W30702  23.493   4.376  13.058
65443W        W30703  37.399  28.380  14.467
65444W        W30704  21.029  12.251   4.177
65445W        W30705  31.534   8.112   1.201
65446W        W30706  32.077  29.707   1.817
65447W        W30707  40.839  44.803   3.227
65448W        W30708  10.174  23.612   1.312
65449W        W30709   3.218  35.413  12.074
65450W        W30710  36.167  21.259  10.393
65451W        W30711  38.244  17.797   0.903
65452W        W30712   3.675  38.648   0.054
65453W        W30713  39.763  30.955   3.790
65454W        W30714  16.482  29.971  14.114
65455W        W30715  30.064  29.592   0.957
65456W        W30716  11.800   4.948   0.949
65457W        W30717   4.912  17.739   2.100
65458W        W30718  29.165  42.911  13.497
65459W        W30719  29.282  33.692   1.284
65460W        W30720  29.561   1.846   0.516
65461W        W30721  20.976   2.991   1.317
65462W        W30722  28.022  25.747  11.583
65463W        W30723   1.986  39.347   1.339
65464W        W30724  32.919  33.075   1.057
65465W        W30725   0.812   1.518  10.252
65466W        W30726  37.790  15.527  11.231
65467W        W30727  27.550  22.214  10.602
65468W        W30728  40.300   5.378  14.665
65469W        W30729  12.194  33.694   3.241
65470W        W30730  37.315  39.245   5.077
65471W        W30731  13.744  31.378   2.884
65472W        W30732  30.430  19.338   4.524
65473W        W30733  17.839   0.005  11.540
65474W        W30734  38.734  41.452   3.294
65475W        W30735  42.340  23.830   1.864
65476W        W30736  24.708  39.034   2.868
65477W        W30737  27.588  33.098  10.699
65478W        W30738  42.004  15.063   2.821
65479W        W30739   9.949  32.388  14.829
65480W        W30740  32.464  16.065  11.187
65481W        W30741  28.873  12.719   2.643
65482W        W30742  25.754  41.563   3.154
65483W        W30743  22.269   8.257  14.369
65484W        W30744  11.612  26.170   1.230
65485W        W30745  37.261  42.482  10.699
65486W        W30746   8.654  12.491  12.200
65487W        W30747  28.065  24.758   3.186
65488W        W30748  20.028  10.990   0.388
65489W        W30749  42.265  28.683  14.592
65490W        W30750  19.831  26.986  14.057
65491W        W30751  41.517  44.752  11.013
65492W        W30752   3.967  17.126   0.722
65493W        W30753  34.951  41.819   3.543
65494W        W30754  44.422  31.529   1.986
65495W        W30755  11.159   3.652   0.257
65496W        W30756  29.653  16.145  10.994
65497W        W30757  22.624  21.677   0.366
65498W        W30758  20.562  38.835   1.202
65499W        W30759  28.118  42.568  12.785
65500W        W30760  28.406  37.374  10.552
65501W        W30761   8.723  19.875  11.998
65502W        W30762  11.165   5.806   3.636
65503W        W30763  29.623  24.040   1.255
65504W        W30764  14.035  40.375   2.349
65505W        W30765  32.996  18.128   2.782
65506W        W30766  20.728  33.646  13.377
65507W        W30767  14.192   2.007   2.684
65508W        W30768  27.142  42.722  12.001
65509W        W30769  32.006  30.969  11.610
65510W        W30770  20.677  29.447   3.335
65511W        W30771  11.433   0.295  10.730
65512W        W30772  25.502  19.006  13.393
65513W        W30773  27.215  16.870  11.419
65514W        W30774  15.091   7.850  11.079
65515W        W30775  17.670   9.767   4.899
65516W        W30776  31.967   7.760   5.078
65517W        W30777  29.212  27.021  11.635
65518W        W30778  27.676  38.791   4.170
65519W        W30779  15.329  41.460  11.925
65520W        W30780  38.091  17.039  13.534
65521W        W30781   4.292  15.567  12.503
65522W        W30782   2.996  21.515  12.151
65523W        W30783  38.975  11.310   0.767
65524W        W30784  37.846  41.310   0.429
65525W        W30785  10.195  11.665  14.065
65526W        W30786  43.492  13.902  11.063
65527W        W30787   1.798   5.272  14.909
65528W        W30788   8.856  28.969  11.428
65529W        W30789  18.686  14.728  11.551
65530W        W30790  14.370  26.909  10.646
65531W        W30791   0.245  11.691  14.652
65532W        W30792  24.666  39.657  14.017
65533W        W30793  21.236  20.106   0.871
65534W        W30794  29.075   4.281  12.139
65535W        W30795   5.378  37.884  14.941
65536W        W30796   8.720  34.396  11.539
65537W        W30797  28.996  28.739  12.066
65538W        W30798  21.185  30.552   3.539
65539W        W30799  39.167  26.162   1.729
65540W        W30800  33.651  33.145   2.395
65541W        W30801  20.322  24.546   2.207
65542W        W30802  16.096  22.573  12.076
65543W        W30803  32.787  41.455  11.357
65544W        W30804  26.894  25.442   3.257
65545W        W30805  39.777  36.061  14.409
65546W        W30806  34.552  36.139   2.783
65547W        W30807  15.833  29.699   0.318
65548W        W30808   5.859   3.856   3.401
65549W        W30809  36.672  44.504  13.965
65550W        W30810  24.708  37.875  13.393
65551W        W30811  17.597  12.616  10.546
65552W        W30812  23.292  19.605   3.728
65553W        W30813  16.382  37.129   3.151
65554W        W30814  26.143  37.114   0.364
65555W        W30815  35.981  34.499   4.193
65556W        W30816  38.340  28.990   3.644
65557W        W30817   8.484  36.978  11.073
65558W        W30818  23.503  26.236   3.315
65559W        W30819  24.224  27.233  11.151
65560W        W30820  14.777  24.955   0.861
65561W        W30821  10.687  24.590  14.577
65562W        W30822  26.587  42.803   0.042
65563W        W30823  30.555  31.901   3.813
65564W        W30824   0.758  44.934  13.062
65565W        W30825   7.338   7.890   4.395
65566W        W30826  13.078  30.628   0.780
65567W        W30827  35.026  27.713   1.212
65568W        W30828   9.858   8.688   0.090
65569W        W30829  10.358  36.738  14.176
65570W        W30830  41.410  41.702  10.987
65571W        W30831  33.324   3.762  10.714
65572W        W30832   0.314   6.624  11.215
65573W        W30833  10.159  29.521   3.083
65574W        W30834  27.582   1.394  10.697
65575W        W30835  21.850  21.700  11.296
65576W        W30836  36.753  25.468  13.502
65577W        W30837  16.976   9.687  11.361
65578W        W30838   6.227  15.525  12.470
65579W        W30839  32.364  27.534  12.956
65580W        W30840   7.159  44.004   3.584
65581W        W30841   8.462  37.102   4.790
65582W        W30842  28.992  22.024   0.419
65583W        W30843  30.950   9.568  12.820
65584W        W30844  33.556   8.370   2.232
65585W        W30845  18.266  23.648  13.980
65586W        W30846  36.418  40.419   3.627
65587W        W30847   7.868  28.028  10.786
65588W        W30848  28.158  16.923   1.398
65589W        W30849  44.491   3.364   2.166
65590W        W30850   0.927  43.021  14.873
65591W        W30851  40.102  39.522  14.786
65592W        W30852  18.474   8.952   0.236
65593W        W30853  11.940   9.080   1.702
65594W        W30854  21.703  39.365   4.284
65595W        W30855  28.560  17.980  11.071
65596W        W30856  36.610   9.135  12.379
65597W        W30857  38.210  33.577   1.947
65598W        W30858  42.852  41.074   1.442
65599W        W30859  16.571  17.747  11.505
65600W        W30860  29.418  26.127   1.909
65601W        W30861  25.527   5.979  13.035
65602W        W30862  33.570  28.246   3.354
65603W        W30863  15.044  37.669   1.516
65604W        W30864  23.560   7.648  13.574
65605W        W30865  22.193   7.268   4.018
65606W        W30866  29.591  30.972  14.457
65607W        W30867  22.775   7.355  12.690
65608W        W30868  31.923  11.473   0.717
65609W        W30869   1.810  22.141  12.042
65610W        W30870   3.934  30.361  11.163
65611W        W30871  10.859  26.039  13.562
65612W        W30872   9.236  33.324  12.337
65613W        W30873  10.331  37.062   3.674
65614W        W30874  43.966  41.015  10.604
65615W        W30875  39.278  27.987  11.283
65616W        W30876  35.689  37.409   1.425
65617W        W30877   0.028   4.799   4.272
65618W        W30878  12.680  20.621  10.396
65619W        W30879  13.548  23.154  12.500
65620W        W30880  15.242  34.677   0.214
65621W        W30881  44.479  19.616  14.989
65622W        W30882   5.190  27.935  13.322
65623W        W30883  18.534  34.919   0.064
65624W        W30884  29.833  30.555  11.471
65625W        W30885   1.382   5.738   1.341
65626W        W30886  10.742  12.936  13.875
65627W        W30887   6.355  17.011  12.027
65628W        W30888  16.660  25.810   2.685
65629W        W30889  10.814  35.443  10.541
65630W        W30890  12.157  34.317  13.565
65631W        W30891  39.412   0.292  12.146
65632W        W30892  21.086   1.287   0.806
65633W        W30893   0.565   4.291   1.743
65634W        W30894  43.041  27.222   4.922
65635W        W30895  43.844  40.259   2.390
65636W        W30896  33.622  44.807  14.809
65637W        W30897   3.564  28.884   1.744
65638W        W30898  13.247   7.474  13.410
65639W        W30899  31.693  30.308   9.449
65640W        W30900  30.474  16.241  10.723
65641W        W30901   4.919   2.906  14.277
65642W        W30902  40.252  28.163   4.016
65643W        W30903  10.558  20.236   3.679
65644W        W30904  23.676  17.362  11.699
65645W        W30905   1.353   4.587   1.423
65646W        W30906  21.801  19.371   2.784
65647W        W30907  30.953  29.934   2.249
65648W        W30908  28.443  18.456  10.911
65649W        W30909  17.985  36.630   3.106
65650W        W30910  37.641  28.489  12.246
65651W        W30911  13.740  22.283   3.740
65652W        W30912   6.822  25.605  13.037
65653W        W30913  31.178   6.678   2.357
65654W        W30914  38.007  14.278  13.321
65655W        W30915  38.569  38.621  13.262
65656W        W30916  10.668  44.203   3.912
65657W        W30917  14.816  19.006   0.332
65658W        W30918  32.659   0.355   1.892
65659W        W30919   0.998  17.340   1.677
65660W        W30920  17.168   8.419  14.882
65661W        W30921  26.003  14.802  10.550
65662W        W30922  38.921  34.633   1.762
65663W        W30923  39.520  14.696   1.288
65664W        W30924  22.144  44.887   2.353
65665W        W30925  40.313  32.883  13.017
65666W        W30926  21.540  24.065   4.875
65667W        W30927  15.358   8.292  11.937
65668W        W30928  38.514  26.723   1.496
65669W        W30929  27.179  18.490  13.973
65670W        W30930  24.156  13.253  13.049
65671W        W30931   1.296  15.484  10.529
65672W        W30932  20.273   3.037  12.115
65673W        W30933   0.131  16.752  12.464
65674W        W30934   1.009  26.619   0.791
65675W        W30935  12.047  16.624   4.639
65676W        W30936  13.130  40.494   1.323
65677W        W30937  19.597  27.686  12.397
65678W        W30938  39.366  44.650   3.164
65679W        W30939  22.279  13.288   0.786
65680W        W30940  10.389  13.220   1.289
65681W        W30941   3.157  37.281  13.013
65682W        W30942   5.984  27.031  14.967
65683W        W30943   5.221  39.905  13.959
65684W        W30944  27.571  15.640   2.167
65685W        W30945   3.691   6.016   1.358
65686W        W30946  24.697   3.500  13.026
65687W        W30947  31.085  11.225   2.569
65688W        W30948  39.343  28.459   3.928
65689W        W30949  41.988   6.787  11.988
65690W        W30950   8.814  19.983   5.118
65691W        W30951  13.855  28.777  10.561
65692W        W30952  36.954  14.619  13.862
65693W        W30953  44.802  36.426   3.787
65694W        W30954   1.279  44.237  11.529
65695W        W30955  41.545  36.107  14.474
65696W        W30956  26.763  40.604  13.427
65697W        W30957  16.128  34.549   3.314
65698W        W30958  37.333  26.940   1.248
65699W        W30959  17.238   1.290   2.314
65700W        W30960  11.692  22.948   2.091
65701W        W30961  23.040  30.351  13.844
65702W        W30962  37.870  37.954  12.535
65703W        W30963  30.220  35.792  14.266
65704W        W30964  11.114  36.282   2.413
65705W        W30965   1.501  37.116  11.848
65706W        W30966  42.788  25.405  12.691
65707W        W30967  20.280  11.087  13.810
65708W        W30968  25.770  14.607   4.789
65709W        W30969  13.661  41.438   2.074
65710W        W30970  33.573   2.779   3.890
65711W        W30971  11.802  44.749   2.156
65712W        W30972  30.017  38.906   2.731
65713W        W30973  22.441  15.015   1.295
65714W        W30974  31.439   6.844   4.071
65715W        W30975  10.360   2.119  13.411
65716W        W30976  44.939  28.882  14.804
65717W        W30977  36.056   0.063   4.160
65718W        W30978  32.741   5.192  11.379
65719W        W30979   1.572   1.525  14.645
65720W        W30980  38.202  29.525  13.568
65721W        W30981  36.626  35.626   2.744
65722W        W30982  19.509   9.689  10.648
65723W        W30983  14.150  20.474   2.702
65724W        W30984  43.644  39.686  14.407
65725W        W30985  29.910  28.708   1.154
65726W        W30986  24.805  29.633  11.201
65727W        W30987   4.808  30.855   1.452
65728W        W30988  42.833  37.174   9.642
65729W        W30989  29.560  35.956  12.647
65730W        W30990  16.935   2.407  13.988
65731W        W30991  14.520  32.064   2.339
65732W        W30992  42.369  38.874   3.700
65733W        W30993   8.947  27.073   1.290
65734W        W30994   7.795  22.216  12.416
65735W        W30995  35.611   4.619   1.516
65736W        W30996  36.322  21.856  12.085
65737W        W30997  17.051   2.192   2.320
65738W        W30998  13.725  14.531  12.979
65739W        W30999  16.681   8.074  10.979
65740W        W31000   1.761   0.210   2.712
65741W        W31001  16.864  14.347   0.798
65742W        W31002  11.216  18.002  14.380
65743W        W31003  22.201  41.217   4.944
65744W        W31004  32.814   3.802  10.767
65745W        W31005  36.627  21.321   5.027
65746W        W31006  41.995  13.169   0.444
65747W        W31007  36.959  13.827   4.087
65748W        W31008  13.642  19.742   4.545
65749W        W31009  21.807  21.087  12.598
65750W        W31010  36.848  33.366   4.229
65751W        W31011  39.275   9.644  10.880
65752W        W31012  30.138  19.113   4.140
65753W        W31013  24.757  36.635   1.193
65754W        W31014  13.171  24.674   4.674
65755W        W31015   2.142   6.589   3.196
65756W        W31016   2.602  28.278  12.182
65757W        W31017  19.759  18.996  13.582
65758W        W31018  25.060  19.701   1.009
65759W        W31019  24.041  43.940  11.617
65760W        W31020  27.598  11.039  14.004
65761W        W31021  37.537   3.820  11.246
65762W        W31022  30.439   7.667  12.396
65763W        W31023  24.730   9.727   3.299
65764W        W31024  31.633  12.867  12.941
65765W        W31025   8.187   5.408   1.264
65766W        W31026   7.419  21.941  13.366
65767W        W31027   4.954  14.594  14.751
65768W        W31028   6.738  24.647  10.669
65769W        W31029  39.166  43.493  14.921
65770W        W31030  30.884  28.974   3.201
65771W        W31031   0.026  40.450   3.839
65772W        W31032  12.578  36.340  14.859
65773W        W31033  34.644  19.552   0.780
65774W        W31034  25.371  12.651  12.629
65775W        W31035   3.988  35.660   2.812
65776W        W31036  21.963   9.430   1.430
65777W        W31037   5.860  32.963   3.229
65778W        W31038  32.158  37.327   4.594
65779W        W31039  24.332  36.069  13.498
65780W        W31040  20.194   6.183   5.011
65781W        W31041  44.354  22.811   1.915
65782W        W31042  16.637   3.792   2.867
65783W        W31043  37.105  36.442   2.418
65784W        W31044  25.517   7.271  12.373
65785W        W31045  26.644  23.795  12.089
65786W        W31046  16.673   2.794  12.845
65787W        W31047  13.371  44.575   1.337
65788W        W31048  31.770  21.771  11.470
65789W        W31049   8.305  24.354   4.993
65790W        W31050  41.808  42.884  12.051
65791W        W31051  33.021  28.542   4.543
65792W        W31052  25.569   2.534   4.637
65793W        W31053  24.100  29.501   4.573
65794W        W31054   2.499   2.530   3.976
65795W        W31055  24.037   2.797  11.975
65796W        W31056  42.530  37.365  10.976
65797W        W31057  12.740  15.045  12.980
65798W        W31058  11.759   0.339  12.339
65799W        W31059   2.208  28.995  14.851
65800W        W31060   3.915  18.654   1.164
65801W        W31061   5.317  39.108   2.319
65802W        W31062  28.560  34.008   0.447
65803W        W31063  11.325  12.301   2.267
65804W        W31064  18.242  28.847  11.703
65805W        W31065  34.521   7.641   1.435
65806W        W31066  35.950  18.584  13.833
65807W        W31067   4.307  35.007  11.920
65808W        W31068  43.491  23.395   0.758
65809W        W31069   5.457  18.725   4.012
65810W        W31070  16.206   1.031  13.898
65811W        W31071  16.958  17.045  10.217
65812W        W31072  25.198  16.388  11.630
65813W        W31073  18.542   4.368  13.539
65814W        W31074  26.684  22.320  11.020
65815W        W31075  10.148  38.324   3.287
65816W        W31076  16.363  18.446  11.121
65817W        W31077  10.895  28.853   0.893
65818W        W31078  22.521   1.520  12.914
65819W        W31079   3.679  22.643  11.899
65820W        W31080  12.938  13.071  11.087
65821W        W31081  33.764  33.367   0.823
65822W        W31082  39.286  19.343   0.727
65823W        W31083  39.911   1.986   0.704
65824W        W31084  32.868  29.924   2.339
65825W        W31085   9.550  16.814  13.413
65826W        W31086  42.792  37.625   1.954
65827W        W31087  24.587  10.386  13.900
65828W        W31088  34.332  31.215   0.279
65829W        W31089  13.894  13.127   3.487
65830W        W31090   7.773  41.940  13.298
65831W        W31091  40.308  41.066   0.671
65832W        W31092  37.331  37.012   1.923
65833W        W31093  25.810  36.972   2.423
65834W        W31094  44.920  41.774   4.655
65835W        W31095  34.650   8.256  14.863
65836W        W31096  14.151  44.676   2.682
65837W        W31097  37.618  39.919   4.842
65838W        W31098  16.082  24.591  12.713
65839W        W31099  36.944  14.402   1.411
65840W        W31100   6.261  15.780  13.308
65841W        W31101  44.827   2.791  11.081
65842W        W31102  29.269  14.572   1.304
65843W        W31103  33.827  19.204   3.805
65844W        W31104  29.892   6.900  14.454
65845W        W31105   8.496  22.198  12.407
65846W        W31106  18.581  26.050   1.865
65847W        W31107   5.473  42.398   2.424
65848W        W31108  27.629  25.958   1.466
65849W        W31109  12.211   6.991   2.368
65850W        W31110  44.135   2.021   0.403
65851W        W31111   2.032  11.910   0.465
65852W        W31112  41.447  14.135   1.814
65853W        W31113   1.239  31.428   0.040
65854W        W31114   8.284  31.635  14.492
65855W        W31115  23.735   3.249   0.244
65856W        W31116  26.558   9.720  14.734
65857W        W31117  28.112  16.327   3.924
65858W        W31118  38.049  13.264   0.765
65859W        W31119   4.689  26.280  14.804
65860W        W31120  14.158  41.086  12.390
65861W        W31121  35.012  16.188   1.258
65862W        W31122  26.650  11.593   1.774
65863W        W31123  24.096  40.760  13.352
65864W        W31124  29.939  37.965  12.058
65865W        W31125   4.384  39.760  11.152
65866W        W31126  11.185  11.295   1.873
65867W        W31127   1.843  24.792  11.781
65868W        W31128  39.926  31.708   1.276
65869W        W31129  43.939   8.727  10.623
65870W        W31130   9.651  13.766  14.413
65871W        W31131  24.216  16.597  12.993
65872W        W31132   1.215  30.153   3.974
65873W        W31133   6.275  40.980  10.748
65874W        W31134  41.835  11.049   3.548
65875W        W31135  36.802  41.987   2.364
65876W        W31136  28.953  32.682   3.963
65877W        W31137  37.830   6.752   2.657
65878W        W31138  29.443  34.471   0.850
65879W        W31139  35.514  22.978  13.043
65880W        W31140  15.168  26.852   3.742
65881W        W31141   6.455  24.851  10.291
65882W        W31142  23.254  26.323  11.178
65883W        W31143  22.739  21.719   2.680
65884W        W31144  41.957   3.517   1.818
65885W        W31145   9.699  26.014   2.986
65886W        W31146  21.536  23.792  11.615
65887W        W31147  21.286  40.911  11.657
65888W        W31148  13.089  19.736  14.494
65889W        W31149  38.140  30.622  11.961
65890W        W31150  14.100  16.372  13.621
65891W        W31151   7.768  18.308  14.552
65892W        W31152  18.649  34.389   1.733
65893W        W31153  37.341   8.604  13.964
65894W        W31154  43.994   6.806  11.644
65895W        W31155  22.620  18.616   2.792
65896W        W31156  23.860   3.758   0.495
65897W        W31157  22.611   9.946   0.904
65898W        W31158  37.859  42.579  12.530
65899W        W31159  35.583  31.013  14.461
65900W        W31160  17.542  23.480  12.380
65901W        W31161  14.503   7.924  11.976
65902W        W31162  34.451  23.183   3.188
65903W        W31163  37.401  25.782   4.566
65904W        W31164  29.981   9.331  12.938
65905W        W31165  13.883  11.241  12.050
65906W        W31166  14.362   7.187   9.951
65907W        W31167  13.319  36.116   2.203
65908W        W31168  35.855   6.459   1.871
65909W        W31169  29.434  30.905   4.406
65910W        W31170   9.824  29.084  14.680
65911W        W31171  20.173  17.652  14.771
65912W        W31172  14.578  43.722   0.281
65913W        W31173   2.142   4.873  11.607
65914W        W31174   0.377  15.218  14.898
65915W        W31175  30.167  41.774   2.316
65916W        W31176   8.361  10.245   4.443
65917W        W31177   1.950  37.265  13.391
65918W        W31178  41.286  14.155  13.863
65919W        W31179  36.025  14.125   2.425
65920W        W31180  28.708  16.413  10.893
65921W        W31181  24.607  37.636  12.064
65922W        W31182  31.605   3.766  14.343
65923W        W31183  40.103  22.171  10.795
65924W        W31184  28.428  42.940  11.515
65925W        W31185  20.364  12.805   0.955
65926W        W31186  37.513  43.577   0.571
65927W        W31187   5.777  38.968   0.789
65928W        W31188  18.768  33.549   2.899
65929W        W31189  12.304   9.815   0.865
65930W        W31190   1.963  24.905  14.273
65931W        W31191  19.743  15.159   1.672
65932W        W31192  16.315   8.884  11.126
65933W        W31193  11.266  19.679   3.133
65934W        W31194  44.194   1.455   4.608
65935W        W31195  22.083  38.403  13.755
65936W        W31196  36.197  36.472   1.096
65937W        W31197   6.110   5.354  11.916
65938W        W31198  29.621   8.251  12.031
65939W        W31199   1.304  28.139   0.361
65940W        W31200   0.048  35.111   2.547
65941W        W31201  19.056  13.793   1.443
65942W        W31202  42.337   2.715   4.178
65943W        W31203  34.041   3.374   3.574
65944W        W31204  42.432   4.760  13.843
65945W        W31205  14.276  33.324   1.866
65946W        W31206   1.055  44.344  11.996
65947W        W31207  30.018  12.784   1.779
65948W        W31208  36.454   2.758   1.833
65949W        W31209  16.698  33.007  14.972
65950W        W31210   7.975  35.386   1.598
65951W        W31211  19.349   1.087  14.825
65952W        W31212  13.992  23.019   1.015
65953W        W31213  26.130  36.919  10.949
65954W        W31214   9.348   1.943   3.593
65955W        W31215   6.441  14.620  10.984
65956W        W31216  36.095  39.501   0.419
65957W        W31217  11.618   2.867  13.943
65958W        W31218   2.870   3.848  14.015
65959W        W31219  11.529  40.321  13.849
65960W        W31220  34.282  23.100  13.957
65961W        W31221   0.013   0.192  14.467
65962W        W31222  15.764  41.062  14.939
65963W        W31223  11.024  19.558   5.077
65964W        W31224  28.164   6.489  14.467
65965W        W31225  35.612  24.147  11.124
65966W        W31226  16.660   5.253  12.967
65967W        W31227   1.670  39.518   1.748
65968W        W31228  21.955   7.858  12.656
65969W        W31229   5.256   7.279  10.753
65970W        W31230   2.398  18.317   2.882
65971W        W31231   4.880  37.327   4.848
65972W        W31232  35.877  24.036   1.733
65973W        W31233  28.116  12.555   0.501
65974W        W31234  42.391  20.755   4.072
65975W        W31235   2.012  12.882   3.316
65976W        W31236  33.581  18.573  13.388
65977W        W31237   7.185  32.594   1.004
65978W        W31238   7.846  13.321   0.286
65979W        W31239  33.453   3.748  11.560
65980W        W31240  27.991  13.732   1.428
65981W        W31241  14.134  20.753  11.343
65982W        W31242  42.486  20.322  14.862
65983W        W31243  35.436   6.437   4.536
65984W        W31244  22.119  14.846   2.230
65985W        W31245  21.195  15.026   4.052
65986W        W31246  21.290  34.361   4.592
65987W        W31247  16.693  30.022  10.563
65988W        W31248   4.126  15.617  11.685
65989W        W31249  42.895  21.040   0.493
65990W        W31250  44.532  30.220   2.436
65991W        W31251  40.437  16.208   3.997
65992W        W31252   3.206   5.818  11.634
65993W        W31253  26.865  33.971   0.315
65994W        W31254  18.546   5.879   2.899
65995W        W31255  10.411  23.711  14.005
65996W        W31256  37.195  13.349  13.786
65997W        W31257  40.258  43.752  12.135
65998W        W31258  23.545   0.904   4.578
65999W        W31259  30.991   5.486   2.535
66000W        W31260   3.799  39.875   2.511
66001W        W31261  22.516  13.950  14.574
66002W        W31262  19.300  28.636  13.661
66003W        W31263  44.300  10.927  14.295
66004W        W31264  18.746  21.246  12.113
66005W        W31265  32.811  42.169   4.144
66006W        W31266   4.558  26.175  12.413
66007W        W31267   9.281   4.382   4.624
66008W        W31268  26.689  34.552  10.290
66009W        W31269  14.556  22.625   2.728
66010W        W31270  28.125  37.854   2.256
66011W        W31271  43.866  21.687  13.812
66012W        W31272  35.148   5.402   0.470
66013W        W31273  20.198  44.477   4.362
66014W        W31274  37.611   6.162   2.788
66015W        W31275   3.811  33.607   1.781
66016W        W31276  37.154  14.319   4.254
66017W        W31277  19.417  39.333  11.652
66018W        W31278   6.513  21.304   0.758
66019W        W31279  20.535  37.448  11.755
66020W        W31280  21.376   8.892   2.304
66021W        W31281   6.890  27.319   0.064
66022W        W31282  31.917  23.190  13.404
66023W        W31283  38.059  15.722  10.848
66024W        W31284  19.859   9.736  11.024
66025W        W31285  36.063  44.742   3.350
66026W        W31286  38.323  24.282  12.543
66027W        W31287  21.297   6.883  12.288
66028W        W31288  10.194  29.053  12.554
66029W        W31289  16.480  24.652   4.932
66030W        W31290  41.414  16.299  14.767
66031W        W31291  27.232  34.470   3.357
66032W        W31292  43.751  21.136   4.705
66033W        W31293  34.778   9.796   4.744
66034W        W31294   3.310  36.826  10.472
66035W        W31295  40.870  11.715   1.807
66036W        W31296  10.292  19.089  11.218
66037W        W31297  34.184   2.897  11.112
66038W        W31298  15.770  37.459   2.427
66039W        W31299   9.438  31.192  12.092
66040W        W31300  16.891  44.980  11.601
66041W        W31301  18.077  37.002  10.527
66042W        W31302   3.374  33.673  14.362
66043W        W31303   6.145  28.564   4.515
66044W        W31304  11.334  21.108   1.865
66045W        W31305  33.463  22.493   2.134
66046W        W31306  15.561  15.814   4.534
66047W        W31307   9.258   4.210   2.708
66048W        W31308  43.363  33.732   4.972
66049W        W31309  35.053  26.283   0.042
66050W        W31310  27.847  42.737  12.365
66051W        W31311   0.776  44.310   0.154
66052W        W31312  10.168   1.785   4.797
66053W        W31313  14.195   8.488   1.316
66054W        W31314  23.508  14.186   1.389
66055W        W31315  43.069  35.071   1.671
66056W        W31316  42.915  32.078  12.881
66057W        W31317  29.638  32.439  11.607
66058W        W31318  11.302  27.409  11.036
66059W        W31319   3.892  36.071   5.110
66060W        W31320   5.518  20.182  11.113
66061W        W31321   2.915  33.353   0.347
66062W        W31322  25.448  10.913  12.352
66063W        W31323   9.161  31.563  11.264
66064W        W31324  34.671  40.829   3.630
66065W        W31325  28.319  15.652  12.456
66066W        W31326  19.087  28.408  10.698
66067W        W31327   6.258   7.527   4.992
66068W        W31328   0.608  11.091  14.307
66069W        W31329  29.530  32.339   0.894
66070W        W31330  44.156  31.523   2.402
66071W        W31331  20.286   3.785  14.396
66072W        W31332  12.917  15.789  12.590
66073W        W31333  22.288   4.000  14.358
66074W        W31334  37.064  16.683  14.781
66075W        W31335  21.767  31.998  13.544
66076W        W31336  41.663  31.843   1.929
66077W        W31337  13.846   7.815  10.314
66078W        W31338  14.185  31.555   3.781
66079W        W31339  12.397  23.976   4.059
66080W        W31340  36.497  15.573  10.550
66081W        W31341   4.420  18.527  13.181
66082W        W31342  30.072  26.472  14.100
66083W        W31343  34.481  20.458  10.785
66084W        W31344  42.004  17.179   2.231
66085W        W31345  40.445  36.995  13.753
66086W        W31346  44.971  23.123   4.232
66087W        W31347  28.108  24.781   4.612
66088W        W31348  19.554  43.911   3.168
66089W        W31349   8.580  29.488  14.566
66090W        W31350  23.011  32.818  14.442
66091W        W31351  35.298  17.513  10.892
66092W        W31352  36.105  24.927   1.089
66093W        W31353  13.847  17.986   2.720
66094W        W31354   0.171   9.321  13.018
66095W        W31355  25.294  18.668  12.522
66096W        W31356  19.855  35.052   2.741
66097W        W31357  17.721  42.490  11.099
66098W        W31358  32.901  23.768  14.239
66099W        W31359  10.587  32.665   4.521
66100W        W31360  35.979   5.903   3.301
66101W        W31361  39.301  42.862   4.184
66102W        W31362  11.213   1.741  13.332
66103W        W31363  41.431  23.929  14.952
66104W        W31364  36.455  26.555  12.916
66105W        W31365  38.701   9.973  12.511
66106W        W31366  21.025  40.550   3.141
66107W        W31367  32.202  17.132   4.873
66108W        W31368  20.012   2.924   1.647
66109W        W31369  19.173  16.868  11.445
66110W        W31370  37.662  27.823   3.656
66111W        W31371  11.383   7.265  11.647
66112W        W31372  38.795  41.790  11.730
66113W        W31373  42.878  10.178   3.183
66114W        W31374  11.748  36.579  14.408
66115W        W31375  23.639  28.906  13.706
66116W        W31376  34.033  35.600   1.204
66117W        W31377  28.912  19.054   0.324
66118W        W31378  29.684  25.076  14.760
66119W        W31379  21.490  29.596  12.622
66120W        W31380  37.920  25.347  11.626
66121W        W31381   5.429  14.785   1.474
66122W        W31382   3.240  13.539   1.686
66123W        W31383  21.089   7.206  12.625
66124W        W31384  18.666  19.057   2.668
66125W        W31385   6.409  34.962  13.530
66126W        W31386  11.544  37.013  10.826
66127W        W31387  13.770  32.465  11.596
66128W        W31388   6.436   0.507   3.174
66129W        W31389  40.593  12.186   2.760
66130W        W31390  17.617  33.506   0.930
66131W        W31391  23.742  26.940  12.263
66132W        W31392  33.528  23.001  12.065
66133W        W31393   8.412  35.893   2.170
66134W        W31394  20.541  19.906  14.265
66135W        W31395  32.455  31.399  10.517
66136W        W31396  44.467   4.273  11.260
66137W        W31397  39.769   1.956  13.495
66138W        W31398  42.918   5.833   0.545
66139W        W31399  26.348   2.493  11.363
66140W        W31400  41.859  11.862   1.619
66141W        W31401  22.712  41.193   2.723
66142W        W31402  31.535  44.893   2.125
66143W        W31403  23.517  35.595  13.514
66144W        W31404  35.113  21.504  11.045
66145W        W31405  31.996  26.119   1.445
66146W        W31406  30.560   9.918   0.787
66147W        W31407  29.610  43.411   2.847
66148W        W31408   2.810  40.821  11.137
66149W        W31409  14.694  25.306   5.054
66150W        W31410  19.190  18.858   1.738
66151W        W31411  16.787  43.328  12.866
66152W        W31412   5.722  23.704  13.346
66153W        W31413  34.122  23.689  13.858
66154W        W31414   5.479  40.466   0.719
66155W        W31415  37.994  37.067  14.690
66156W        W31416  35.207   1.523   0.148
66157W        W31417  32.174  10.847   3.286
66158W        W31418  11.373  17.181   1.530
66159W        W31419   2.072  13.145   4.275
66160W        W31420   4.953  14.158  11.697
66161W        W31421  13.120  10.742  12.275
66162W        W31422  23.155  10.765   4.101
66163W        W31423  11.379  11.721  12.605
66164W        W31424  37.351   4.862  12.484
66165W        W31425  32.106   5.662  13.078
66166W        W31426  11.135  18.947  12.981
66167W        W31427  27.505  39.277  13.430
66168W        W31428  35.976   8.783   2.791
66169W        W31429  42.480   0.805   3.304
66170W        W31430  29.014   1.902  14.343
66171W        W31431  34.856  34.135  11.971
66172W        W31432  19.738   8.454   4.601
66173W        W31433   0.774  17.703  11.641
66174W        W31434   5.905  26.201   0.885
66175W        W31435  40.499  14.613   0.046
66176W        W31436  31.206  35.350  12.868
66177W        W31437  41.551  20.485   5.008
66178W        W31438   3.466   0.348   0.243
66179W        W31439  42.613   4.018   3.603
66180W        W31440  19.560  26.120   1.857
66181W        W31441  14.586   2.275   2.440
66182W        W31442  22.958  11.747  11.625
66183W        W31443   0.217  14.726   0.022
66184W        W31444  33.067  11.799   0.286
66185W        W31445  17.791  25.644   2.260
66186W        W31446  26.954  32.869  14.550
66187W        W31447  11.139   4.779   3.620
66188W        W31448   7.164  34.480  10.739
66189W        W31449  11.346  41.377  12.323
66190W        W31450  30.066  44.262   1.355
66191W        W31451  10.554  37.121   3.218
66192W        W31452  42.912  30.066   4.710
66193W        W31453   7.916   9.752  14.292
66194W        W31454   2.194  20.068  13.817
66195W        W31455   9.344   5.384   0.898
66196W        W31456  37.091  18.238   3.396
66197W        W31457  26.070   9.675  11.866
66198W        W31458  17.243   2.349  12.182
66199W        W31459  22.555  14.823  11.235
66200W        W31460  41.431  36.385  12.468
66201W        W31461  24.222  31.602   5.079
66202W        W31462   4.220  39.280   2.357
66203W        W31463  29.096  25.531   1.457
66204W        W31464   9.211  10.253  14.017
66205W        W31465   1.901  43.210   2.578
66206W        W31466  40.656  17.640   0.925
66207W        W31467  29.114   7.529  14.612
66208W        W31468  18.270  16.463   3.296
66209W        W31469  13.343  26.976   2.844
66210W        W31470  11.782  43.374  13.871
66211W        W31471  11.737  37.208   4.965
66212W        W31472  24.008  27.068  14.444
66213W        W31473  33.174  28.866   0.842
66214W        W31474  40.815  28.497  11.599
66215W        W31475  39.058   5.178  11.018
66216W        W31476  39.762   5.799  12.470
66217W        W31477  28.124   3.171  11.987
66218W        W31478   7.822  14.221   0.115
66219W        W31479  16.912  22.008   0.490
66220W        W31480  26.155  16.223  14.136
66221W        W31481  16.295  18.946  14.701
66222W        W31482  27.664   1.799   0.613
66223W        W31483   2.428  21.544  12.945
66224W        W31484   8.484   2.515   5.105
66225W        W31485  42.311  16.143   2.941
66226W        W31486  20.534  36.386  14.394
66227W        W31487   6.313  14.243  12.787
66228W        W31488   7.748  43.483  13.380
66229W        W31489  24.260   3.202  12.997
66230W        W31490   9.849   1.726  12.060
66231W        W31491  14.612  33.697  12.116
66232W        W31492  33.562  38.948   1.298
66233W        W31493  43.017  32.691   3.696
66234W        W31494  18.741  35.369   0.606
66235W        W31495   7.815   7.482  14.282
66236W        W31496  37.864  19.169  14.578
66237W        W31497  20.240   0.461   1.228
66238W        W31498  20.579  28.113  12.441
66239W        W31499   5.320  21.640   4.161
66240W        W31500  36.312  15.701   0.916
66241W        W31501  29.953  42.992  13.038
66242W        W31502  35.701  33.475   2.394
66243W        W31503  20.199  13.330  13.400
66244W        W31504   3.244  15.105  11.382
66245W        W31505  29.239  13.979  12.597
66246W        W31506  30.011  26.036  12.922
66247W        W31507  44.003   6.210  13.532
66248W        W31508   8.987  29.134   1.395
66249W        W31509  23.845  11.384   3.229
66250W        W31510  13.085  40.521  11.033
66251W        W31511  12.883  28.948  10.696
66252W        W31512  30.266  34.821  12.625
66253W        W31513  34.384  44.910  10.320
66254W        W31514  27.093  30.386   4.943
66255W        W31515  43.775   0.533  12.064
66256W        W31516   0.258  19.049  11.731
66257W        W31517  39.092   3.867  13.485
66258W        W31518  41.826  38.451   0.363
66259W        W31519  42.340  16.684   4.049
66260W        W31520  29.323   7.705  13.325
66261W        W31521  26.624  27.872  13.435
66262W        W31522  38.418  10.513  12.534
66263W        W31523  36.135  19.086   3.581
66264W        W31524  11.248  17.809   4.505
66265W        W31525  24.845  25.047   3.097
66266W        W31526  40.732  35.547   1.882
66267W        W31527  11.254  18.732   3.167
66268W        W31528  22.223  28.537  12.263
66269W        W31529  18.242  31.740   0.390
66270W        W31530  14.487  26.039  14.583
66271W        W31531  35.689  26.568  12.121
66272W        W31532  44.005  13.927   5.044
66273W        W31533  23.263  43.330  13.597
66274W        W31534  25.207  14.343  11.078
66275W        W31535  42.145  37.083   0.305
66276W        W31536  27.171  43.350  10.603
66277W        W31537  12.257  15.644   2.822
66278W        W31538   5.268  32.901  14.928
66279W        W31539  35.651   4.863   5.033
66280W        W31540  11.135  37.487   1.489
66281W        W31541  32.155   1.994   0.281
66282W        W31542  23.922  17.020  12.007
66283W        W31543  22.489  43.372   4.025
66284W        W31544  21.098  22.495  11.176
66285W        W31545  17.012  39.678  10.267
66286W        W31546   4.363   4.519  14.442
66287W        W31547   6.462   8.255   2.383
66288W        W31548   6.200  31.416  12.940
66289W        W31549  40.911  13.203   2.657
66290W        W31550  43.316  26.723  12.531
66291W        W31551  37.287  38.499   3.399
66292W        W31552  43.736  21.613  12.416
66293W        W31553  16.682   1.823   2.377
66294W        W31554  11.415  13.084   1.465
66295W        W31555  24.793   1.427  11.380
66296W        W31556  39.927  27.106   3.298
66297W        W31557   2.436  21.078   0.897
66298W        W31558   6.669   1.632  14.926
66299W        W31559  38.467  33.473  10.769
66300W        W31560   1.118  35.238  13.344
66301W        W31561  26.681  35.385   3.323
66302W        W31562  41.847  44.407  12.110
66303W        W31563  29.021  43.338   4.645
66304W        W31564  27.975   0.255  13.521
66305W        W31565  38.936  36.394  11.460
66306W        W31566  21.730  41.757  11.649
66307W        W31567   9.770   1.947   0.947
66308W        W31568  23.703  25.171   3.577
66309W        W31569  20.313  18.156  14.867
66310W        W31570   9.881  27.104  10.746
66311W        W31571   4.457  11.852   3.217
66312W        W31572  24.254  35.144   0.394
66313W        W31573   0.227  41.863   1.778
66314W        W31574  42.523  10.421  10.979
66315W        W31575   7.261  38.523   4.805
66316W        W31576   3.425   9.925  14.414
66317W        W31577   4.288  34.500  11.917
66318W        W31578   2.251  21.519  14.802
66319W        W31579  15.446  23.903   1.467
66320W        W31580  24.432  43.532  11.083
66321W        W31581   1.182  37.350   3.259
66322W        W31582  17.785  24.193  12.113
66323W        W31583  42.039  29.477  14.349
66324W        W31584  41.915  23.602   2.916
66325W        W31585  21.796  21.757   2.790
66326W        W31586  17.330  31.584  13.036
66327W        W31587  38.008  26.027   0.614
66328W        W31588  14.209   7.334   4.393
66329W        W31589  11.732   8.978   2.148
66330W        W31590  38.871  26.644   0.764
66331W        W31591  41.983  18.223   0.864
66332W        W31592  44.726  37.602  12.070
66333W        W31593  39.993  27.038  14.968
66334W        W31594   6.769  41.013  12.489
66335W        W31595  44.660   5.730  13.899
66336W        W31596  40.978   3.224   2.301
66337W        W31597   2.301  44.283   4.708
66338W        W31598  19.308   0.791  14.394
66339W        W31599  27.565   6.716  10.670
66340W        W31600  39.761  34.928  13.910
66341W        W31601  11.783  15.031   1.942
66342W        W31602  33.835  31.061  13.956
66343W        W31603  44.527  21.964   4.182
66344W        W31604  33.086  32.374  10.771
66345W        W31605  19.354  21.702   1.821
66346W        W31606  40.328  12.296   3.193
66347W        W31607  20.242  42.737  10.324
66348W        W31608  24.652  42.276   1.341
66349W        W31609  39.849  22.646   3.428
66350W        W31610  24.360   7.731   5.257
66351W        W31611  22.992   2.353  11.653
66352W        W31612  29.927  32.943  12.822
66353W        W31613  20.675  12.642   2.707
66354W        W31614  29.924  29.733  14.832
66355W        W31615  42.941  38.487  12.936
66356W        W31616  28.542  36.549   4.282
66357W        W31617  15.126  25.771  13.553
66358W        W31618  19.097   3.482   2.330
66359W        W31619  32.059  34.009   4.597
66360W        W31620   4.906   8.489  14.257
66361W        W31621  35.571  22.626  10.710
66362W        W31622  27.997  16.720  11.479
66363W        W31623   6.357   5.858  13.524
66364W        W31624  36.280  34.523  11.108
66365W        W31625  41.847  12.586   3.311
66366W        W31626  29.489   1.984  14.093
66367W        W31627  18.766  37.515   1.198
66368W        W31628   8.797  32.938   0.238
66369W        W31629  21.384   9.320   1.169
66370W        W31630   6.473  41.579  11.583
66371W        W31631   9.071  32.479  10.638
66372W        W31632   7.414  42.276   3.077
66373W        W31633  26.118  12.917   4.539
66374W        W31634  10.207  30.072   9.980
66375W        W31635  18.596  10.938   0.357
66376W        W31636  34.307  28.522  10.962
66377W        W31637  21.077  12.269  11.103
66378W        W31638  17.704  41.882  13.391
66379W        W31639   7.395  40.786  10.809
66380W        W31640  23.937  33.446  13.098
66381W        W31641  17.524  29.175  12.901
66382W        W31642  14.087  42.514   2.984
66383W        W31643  10.860   2.582  11.982
66384W        W31644  23.752  13.019  12.819
66385W        W31645  31.120  11.894   3.230
66386W        W31646  11.292  35.196   1.219
66387W        W31647  33.978  10.191   4.554
66388W        W31648  32.170  23.872   5.170
66389W        W31649  41.764  33.972   0.772
66390W        W31650  11.652  33.883   1.283
66391W        W31651   9.182  39.055   0.322
66392W        W31652   0.306  39.346  10.936
66393W        W31653   8.150  17.872   3.131
66394W        W31654  20.701  17.877   1.307
66395W        W31655  11.542  28.081  13.751
66396W        W31656  42.858  27.087  11.894
66397W        W31657  30.282  28.103  12.782
66398W        W31658  36.465  34.152   1.515
66399W        W31659   7.179   8.360  13.335
66400W        W31660  43.463  33.855   2.346
66401W        W31661  37.252  30.952  13.019
66402W        W31662  18.129  27.617   3.351
66403W        W31663  39.826  44.214  13.313
66404W        W31664  18.315   5.453  12.017
66405W        W31665  16.599  15.815  10.667
66406W        W31666  30.379   1.195   0.349
66407W        W31667  27.379  30.805   4.011
66408W        W31668  34.593  24.658   1.886
66409W        W31669   6.493   2.812  14.380
66410W        W31670  21.417  17.525   9.832
66411W        W31671  31.362  37.476   3.767
66412W        W31672  28.568  33.032  10.409
66413W        W31673  44.726   8.260  10.349
66414W        W31674  24.167  44.982   3.185
66415W        W31675  19.752   2.433   3.579
66416W        W31676  24.772  17.777   3.487
66417W        W31677   5.637  10.595  11.109
66418W        W31678   8.775  17.822  12.273
66419W        W31679  28.033  29.126   1.388
66420W        W31680  25.125  42.784   1.909
66421W        W31681   1.918  23.991   4.094
66422W        W31682   5.250  40.478  14.696
66423W        W31683  17.413  44.297  14.197
66424W        W31684   1.119  37.521  10.649
66425W        W31685  23.067  21.105   4.248
66426W        W31686   7.330  24.736  13.432
66427W        W31687  20.507  36.121   2.209
66428W        W31688  31.946   8.222  13.881
66429W        W31689  21.985  37.792   2.868
66430W        W31690   1.831  40.350   2.948
66431W        W31691  16.723   1.233  13.384
66432W        W31692  24.986  29.955  11.593
66433W        W31693   1.850  10.911  12.720
66434W        W31694  38.237  44.841   0.899
66435W        W31695  24.190   4.285  14.904
66436W        W31696  40.107  10.643   2.576
66437W        W31697  40.885  24.634   0.946
66438W        W31698  44.287  16.237   2.850
66439W        W31699  35.822  12.651  14.874
66440W        W31700   9.179   8.633  10.521
66441W        W31701   0.570   6.124   2.305
66442W        W31702  26.548  37.541   3.773
66443W        W31703  14.232  14.751   4.562
66444W        W31704  30.289  44.654   2.736
66445W        W31705  22.393   6.197  13.002
66446W        W31706  23.118  28.443   2.422
66447W        W31707  21.955   7.441   3.054
66448W        W31708  24.948  18.683  14.058
66449W        W31709  36.103  44.545  10.679
66450W        W31710   0.838  12.592   3.305
66451W        W31711  15.040  12.114  13.480
66452W        W31712  31.724  13.387  14.548
66453W        W31713  34.070   2.386   4.122
66454W        W31714  13.289  27.487  10.889
66455W        W31715  10.266  28.932   1.800
66456W        W31716  12.112  14.529  10.834
66457W        W31717  14.128  36.944   4.318
66458W        W31718  18.603  30.497  14.509
66459W        W31719  24.168  25.963  11.542
66460W        W31720  38.995  10.547  13.045
66461W        W31721  13.554  42.895  13.510
66462W        W31722  17.262   9.887   4.571
66463W        W31723  41.818  22.956   3.665
66464W        W31724  41.454  35.528  11.802
66465W        W31725   7.881  37.705   3.993
66466W        W31726  20.502  27.602  12.448
66467W        W31727  43.317  40.541  11.983
66468W        W31728  38.543  30.866   3.165
66469W        W31729  30.470  37.765  13.391
66470W        W31730  32.132  38.774   0.763
66471W        W31731   6.364  32.690  14.473
66472W        W31732   6.868  12.007   2.832
66473W        W31733  39.896  25.757   3.674
66474W        W31734  28.216  33.903   0.841
66475W        W31735  43.821  44.709  13.858
66476W        W31736  26.653  14.316   2.292
66477W        W31737  16.531   5.262   0.141
66478W        W31738   0.251  32.718   1.350
66479W        W31739  18.510   3.712   1.360
66480W        W31740  12.618   2.762  13.993
66481W        W31741   0.729   8.731  13.328
66482W        W31742  37.448  35.297   0.985
66483W        W31743  40.590  22.727   4.126
66484W        W31744  28.709  27.971   0.915
66485W        W31745  30.516  25.683   2.759
66486W        W31746  11.887  11.315   1.320
66487W        W31747  18.092  41.268   4.956
66488W        W31748  37.517  38.291   4.258
66489W        W31749  20.436  19.398  14.232
66490W        W31750  34.920  36.398  14.034
66491W        W31751  18.372  44.262  11.222
66492W        W31752   5.104  14.273   0.909
66493W        W31753  39.037  37.836   1.291
66494W        W31754   3.952  25.253   9.985
66495W        W31755  34.989   8.305  10.646
66496W        W31756  14.880   4.922   2.037
66497W        W31757  38.797  43.715  13.827
66498W        W31758   7.354  27.651   0.751
66499W        W31759  40.578   0.484   1.935
66500W        W31760  41.684  33.296  12.168
66501W        W31761   6.813   1.066  13.410
66502W        W31762  15.964   5.538   2.572
66503W        W31763   2.748  32.620  12.087
66504W        W31764  36.311  25.116  14.785
66505W        W31765  31.184  17.522  12.071
66506W        W31766  44.207  28.473  12.912
66507W        W31767  44.916   2.216  11.096
66508W        W31768  44.381  38.025   4.510
66509W        W31769  29.987  31.036   1.712
66510W        W31770   6.390   7.913  13.124
66511W        W31771  39.807  14.703   3.352
66512W        W31772  13.178  12.556  11.071
66513W        W31773  39.499  44.265   2.796
66514W        W31774  13.853  23.583  12.469
66515W        W31775   3.807  40.931   4.099
66516W        W31776  11.896   9.379  10.649
66517W        W31777  12.611  29.245  12.271
66518W        W31778  13.362  22.249   2.338
66519W        W31779   3.395  43.354   2.843
66520W        W31780  24.139  40.665  12.848
66521W        W31781  10.757  34.023  11.222
66522W        W31782  44.490  33.037  13.687
66523W        W31783  30.155  25.126   0.019
66524W        W31784  25.538  20.189   4.616
66525W        W31785   2.162  10.622   0.612
66526W        W31786   8.174  32.597   2.950
66527W        W31787  24.545  43.263   4.489
66528W        W31788  29.361   8.252  11.589
66529W        W31789  25.029   6.507  12.534
66530W        W31790   6.514  37.012  14.593
66531W        W31791  16.659   2.327   1.244
66532W        W31792  34.443  27.534   2.648
66533W        W31793  20.536  34.547  10.432
66534W        W31794   4.090   8.201   0.377
66535W        W31795  29.654  25.937   5.411
66536W        W31796  38.938  19.461  10.245
66537W        W31797  19.240  34.239  13.926
66538W        W31798   7.673  25.955   1.422
66539W        W31799  34.061  37.938   4.082
66540W        W31800  29.546  38.932  12.303
66541W        W31801  26.488  35.375  13.483
66542W        W31802  33.377   0.186  14.488
66543W        W31803  15.320  28.319   0.548
66544W        W31804   8.112  40.945  13.123
66545W        W31805  33.683  19.963  13.930
66546W        W31806  22.101  33.451   4.608
66547W        W31807  10.702  17.054   4.778
66548W        W31808   2.183  10.304  11.586
66549W        W31809  30.433   8.863  14.257
66550W        W31810  34.882  21.583   0.011
66551W        W31811  10.092  32.563   4.445
66552W        W31812   0.544   5.687  12.703
66553W        W31813  34.387  44.888   4.178
66554W        W31814  42.075   0.414  11.681
66555W        W31815   7.269  21.427   4.798
66556W        W31816  21.489  14.709  12.092
66557W        W31817  21.806  38.181   1.679
66558W        W31818   8.588  33.716   1.400
66559W        W31819  19.570  23.276  13.940
66560W        W31820  16.192  18.894   4.120
66561W        W31821   9.618  22.699   2.871
66562W        W31822  29.076  34.997   1.649
66563W        W31823  39.032   5.291  13.894
66564W        W31824  21.667  15.704   4.716
66565W        W31825  34.995  20.580  14.118
66566W        W31826  31.593  22.632  12.007
66567W        W31827  14.889  29.091   1.819
66568W        W31828   5.669  13.238  14.630
66569W        W31829  43.133  30.100  10.969
66570W        W31830  24.931  43.418  11.046
66571W        W31831  29.570  43.500   4.249
66572W        W31832   7.887   7.114  10.637
66573W        W31833  44.343  16.656   1.488
66574W        W31834   1.353  40.199  11.676
66575W        W31835  39.467   2.914  13.946
66576W        W31836  22.609  11.070   3.422
66577W        W31837  27.635  42.292   2.158
66578W        W31838   7.118  33.425  12.015
66579W        W31839  23.444  42.521  13.038
66580W        W31840  34.702  36.013  10.350
66581W        W31841  12.720   9.290   4.795
66582W        W31842  44.517  27.533   4.537
66583W        W31843   2.970  37.535  10.316
66584W        W31844  44.959  13.600   1.005
66585W        W31845  30.105   8.317  13.510
66586W        W31846  10.386  11.834  12.670
66587W        W31847  41.193  18.048   0.262
66588W        W31848   0.856  12.924   3.693
66589W        W31849  32.228  31.155  14.209
66590W        W31850   2.419  41.052   4.131
66591W        W31851  35.911  33.613   1.905
66592W        W31852  36.541  31.147   0.738
66593W        W31853  14.788  11.601   3.676
66594W        W31854  37.392  26.154   0.894
66595W        W31855  27.127   2.015   1.779
66596W        W31856  39.031  44.328   1.036
66597W        W31857   9.854  16.359   1.644
66598W        W31858  35.381   0.959   3.154
66599W        W31859  37.089   4.429   4.514
66600W        W31860   3.162  41.836  14.628
66601W        W31861  13.636  42.777   2.170
66602W        W31862  33.152  13.745  13.503
66603W        W31863  23.967   0.206   0.220
66604W        W31864  31.803  41.332  11.681
66605W        W31865  40.324  17.517   4.581
66606W        W31866  35.025  35.612  14.683
66607W        W31867   4.961  28.938  11.581
66608W        W31868  30.592  37.485  13.994
66609W        W31869  35.832   5.486  12.891
66610W        W31870   0.707  30.911  13.904
66611W        W31871  26.212  20.614  10.462
66612W        W31872  11.729  29.980   0.940
66613W        W31873  19.121  37.269  11.681
66614W        W31874  13.747   5.386   4.318
66615W        W31875  22.496  20.690   2.929
66616W        W31876   8.228   3.908  12.040
66617W        W31877  11.830  20.669   1.253
66618W        W31878  25.186  13.355  13.396
66619W        W31879   5.447  41.966  13.873
66620W        W31880   2.366   6.730  10.629
66621W        W31881   1.507   4.431   0.954
66622W        W31882   4.744  16.568  11.141
66623W        W31883  39.985   9.887   4.577
66624W        W31884  42.840   1.489   2.432
66625W        W31885  31.330   5.788  11.576
66626W        W31886  12.658  20.096   3.013
66627W        W31887  32.372  40.129   1.777
66628W        W31888  18.163  11.255  13.650
66629W        W31889  28.079   4.157  11.904
66630W        W31890  29.240   6.443  12.883
66631W        W31891  33.183  35.338  12.851
66632W        W31892  42.181  11.204  10.561
66633W        W31893   3.275  19.211  12.015
66634W        W31894  33.040  39.002   1.639
66635W        W31895   5.949  31.636   1.246
66636W        W31896  11.654  37.689  10.369
66637W        W31897   1.244  18.202   4.220
66638W        W31898   9.252  28.445  12.960
66639W        W31899  28.183  21.748   1.214
66640W        W31900  11.391  10.228  11.550
66641W        W31901  17.678   0.444   0.764
66642W        W31902  20.175  31.918  11.478
66643W        W31903  18.505  42.425   3.051
66644W        W31904  37.790  40.744   1.713
66645W        W31905  41.928  14.652   0.489
66646W        W31906   2.566  17.488   0.388
66647W        W31907  16.094  22.072   3.082
66648W        W31908  41.419  36.407  13.561
66649W        W31909  27.382  18.718   0.806
66650W        W31910   4.175  28.556  12.534
66651W        W31911  15.778  29.480   0.917
66652W        W31912   0.489  19.107   2.300
66653W        W31913  31.034  42.897   0.224
66654W        W31914  26.466   6.910  13.413
66655W        W31915   2.292  40.055   1.545
66656W        W31916  19.145  41.185   4.136
66657W        W31917   7.924  22.630   4.634
66658W        W31918  23.631  11.370  12.540
66659W        W31919   3.534   0.937   2.803
66660W        W31920  16.574  16.102   3.669
66661W        W31921  22.114   7.903   4.256
66662W        W31922  26.430  26.475   0.315
66663W        W31923  23.947  36.850   2.791
66664W        W31924   5.973  31.875  14.325
66665W        W31925  31.094  24.539   4.363
66666W        W31926   2.560  11.210  10.175
66667W        W31927  20.496  23.395   1.087
66668W        W31928  36.788  44.046   4.503
66669W        W31929  31.823  40.994   0.218
66670W        W31930  44.904   8.250   1.896
66671W        W31931  36.347   5.985  14.018
66672W        W31932  42.415  23.201  13.911
66673W        W31933  27.669  43.479   0.816
66674W        W31934  28.144  25.940   0.324
66675W        W31935  34.386  25.091   2.259
66676W        W31936  11.894  20.026  14.291
66677W        W31937  22.960  13.554   1.765
66678W        W31938   9.405  26.922   2.690
66679W        W31939   2.458  13.021   4.599
66680W        W31940   9.978  11.166  11.461
66681W        W31941   7.247   0.457  12.043
66682W        W31942  34.158  20.974   0.883
66683W        W31943   2.952  32.023  12.842
66684W        W31944  40.976  27.225   0.357
66685W        W31945  26.660   7.447   3.440
66686W        W31946  42.512  23.019  12.138
66687W        W31947  12.414  44.749  13.082
66688W        W31948  17.816  34.045   3.394
66689W        W31949  20.551  29.104  14.070
66690W        W31950  26.583  14.856  12.213
66691W        W31951  21.114  23.958  11.860
66692W        W31952   1.276   0.964  14.840
66693W        W31953  26.928  21.542  11.675
66694W        W31954   7.506  19.644  12.434
66695W        W31955  30.635   9.300   0.044
66696W        W31956  29.611   1.431   0.804
66697W        W31957  27.497  17.277   4.699
66698W        W31958  17.982  44.772   3.195
66699W        W31959   0.522  34.164  12.742
66700W        W31960  23.747  33.824   0.767
66701W        W31961  14.600  43.358   4.349
66702W        W31962  22.458  42.500   2.273
66703W        W31963  17.255  10.693   4.169
66704W        W31964  33.148  21.615  11.035
66705W        W31965  27.667  38.053  12.770
66706W        W31966  38.115   0.597   1.328
66707W        W31967   8.609   0.071   0.394
66708W        W31968  43.081  34.939  13.938
66709W        W31969   8.654   4.808  14.072
66710W        W31970  15.032  15.559   1.672
66711W        W31971  10.794  10.647   1.963
66712W        W31972  15.698  22.051   0.274
66713W        W31973  18.731  12.905   1.898
66714W        W31974  25.176  27.086   3.173
66715W        W31975  43.530   2.108  14.588
66716W        W31976  39.691   3.118  10.711
66717W        W31977  14.202   1.021   3.174
66718W        W31978   0.361  15.728   4.057
66719W        W31979   1.187  41.509  13.997
66720W        W31980  18.420  28.954  13.480
66721W        W31981   0.037  32.096  13.411
66722W        W31982   4.624  43.133  11.367
66723W        W31983  21.625   3.629   1.443
66724W        W31984  14.330  22.188   2.571
66725W        W31985  20.693  43.806  13.607
66726W        W31986  31.318  32.425  12.905
66727W        W31987  27.127  10.810  13.905
66728W        W31988  39.582  13.629  14.472
66729W        W31989   5.385  12.658   1.252
66730W        W31990   9.080   2.333   2.795
66731W        W31991  43.708  31.012   4.548
66732W        W31992  38.313  41.111  13.182
66733W        W31993  38.856  11.701  14.809
66734W        W31994  30.791  14.363   1.188
66735W        W31995  34.293  13.210   2.652
66736W        W31996  40.335  43.963  11.225
66737W        W31997   5.901  37.427  10.431
66738W        W31998   7.410  21.382   2.395
66739W        W31999   5.644  36.049   3.954
66740W        W32000  19.692  14.546  11.661
66741W        W32001   1.492   8.148   1.298
66742W        W32002  12.814  12.743  13.604
66743W        W32003  28.235  20.638   4.550
66744W        W32004  31.624  21.087   1.648
66745W        W32005  30.002  25.173  12.038
66746W        W32006  29.071  30.028   4.202
66747W        W32007   6.661  19.304  14.343
66748W        W32008  22.120  18.149  11.339
66749W        W32009   0.522  17.298   3.354
66750W        W32010   3.298  28.331   4.241
66751W        W32011  42.409  17.083   3.000
66752W        W32012  40.248  10.064  10.440
66753W        W32013  36.852  20.751  13.334
66754W        W32014   6.256  10.385  10.207
66755W        W32015   8.202   2.969   3.690
66756W        W32016  11.530  28.414  11.880
66757W        W32017   2.368  39.111   3.222
66758W        W32018  19.267  44.259   0.679
66759W        W32019  33.477  31.310   3.660
66760W        W32020  39.528  20.544   3.158
66761W        W32021  30.178   9.194  13.598
66762W        W32022  37.351  23.985   1.664
66763W        W32023  34.188   4.770   1.513
66764W        W32024  38.349  20.985  12.341
66765W        W32025  26.287  15.019  13.521
66766W        W32026  12.625  29.429   3.615
66767W        W32027  27.630  11.160  10.507
66768W        W32028  11.746  35.146   2.640
66769W        W32029  20.816  24.257  11.564
66770W        W32030  40.588  10.204  14.582
66771W        W32031  13.171  44.887  10.689
66772W        W32032  28.172  33.077  14.829
66773W        W32033  35.876   2.595  10.951
66774W        W32034  11.867  39.285  14.723
66775W        W32035  18.070   4.400  13.297
66776W        W32036   9.855  25.413   2.184
66777W        W32037   2.133  32.093   4.230
66778W        W32038  30.631  11.241  13.109
66779W        W32039   4.465  28.056   3.029
66780W        W32040  22.244  38.506   1.690
66781W        W32041   9.754  37.401  12.551
66782W        W32042   3.004  13.817  10.469
66783W        W32043  27.409  24.628   1.322
66784W        W32044  33.964  28.425   2.498
66785W        W32045  31.685  33.253  14.749
66786W        W32046  32.890   4.266  11.462
66787W        W32047  40.808  38.603   1.507
66788W        W32048  34.970  39.260   3.336
66789W        W32049   3.849  16.102   2.345
66790W        W32050  19.086   0.987   1.086
66791W        W32051  30.075  33.927  14.258
66792W        W32052  10.287  31.374   3.634
66793W        W32053   9.187  40.409  13.990
66794W        W32054   2.438   4.417  11.562
66795W        W32055  25.309  34.582   2.673
66796W        W32056  13.258  21.632   1.792
66797W        W32057  37.011   2.607   4.975
66798W        W32058  18.875  17.070  12.895
66799W        W32059   4.742  31.371   4.110
66800W        W32060  17.216  33.626  10.055
66801W        W32061  12.382  31.340   0.970
66802W        W32062   3.776  12.112  12.381
66803W        W32063   7.895  22.135  11.922
66804W        W32064  44.001  30.986   3.565
66805W        W32065  16.970  36.838   1.334
66806W        W32066  15.045  20.238   4.573
66807W        W32067  12.219  14.358  11.673
66808W        W32068  40.596  27.058  14.019
66809W        W32069   9.829  24.494  13.922
66810W        W32070  40.211   4.291  11.487
66811W        W32071   4.928   9.410   3.730
66812W        W32072  11.740  38.583   3.297
66813W        W32073  24.972  28.941  11.538
66814W        W32074  41.042  32.037   3.356
66815W        W32075  25.227  35.460  10.540
66816W        W32076  36.075  22.588  12.921
66817W        W32077  20.068  12.077   3.787
66818W        W32078  22.585  25.023  13.555
66819W        W32079  15.652  38.159   3.243
66820W        W32080   5.381  37.495   3.036
66821W        W32081  15.109  24.946  12.980
66822W        W32082  43.957  41.747   2.260
66823W        W32083  20.662  35.740  12.070
66824W        W32084  25.019  40.896   1.919
66825W        W32085   0.966  20.971  11.668
66826W        W32086  42.703  41.258   3.671
66827W        W32087   7.339   1.940   2.115
66828W        W32088  37.044   8.388  12.159
66829W        W32089   4.844  14.121  14.042
66830W        W32090  39.929  27.654  11.064
66831W        W32091  37.965   5.309   2.545
66832W        W32092  26.230  39.287   2.020
66833W        W32093   8.619   9.111   1.709
66834W        W32094  43.486  11.854  13.871
66835W        W32095  28.567  44.901  10.888
66836W        W32096   2.955  44.334  12.058
66837W        W32097  12.434  23.199   4.326
66838W        W32098  33.050  28.695   1.345
66839W        W32099   4.765  40.238  11.667
66840W        W32100  18.755  42.994   1.657
66841W        W32101   8.711  34.703  11.118
66842W        W32102  19.003  32.850  11.974
66843W        W32103  40.966  27.898   1.482
66844W        W32104  40.773   5.768  12.464
66845W        W32105  26.173  24.948  13.466
66846W        W32106  28.162   5.797   1.550
66847W        W32107   4.187  11.372   2.355
66848W        W32108  16.691  39.385  13.529
66849W        W32109  18.460  31.381  11.350
66850W        W32110  31.723  41.853   2.409
66851W        W32111   3.575   9.924   4.504
66852W        W32112  23.014  28.199   0.882
66853W        W32113  35.600  42.923   0.311
66854W        W32114  18.056   9.802  14.930
66855W        W32115   8.975  30.387  11.542
66856W        W32116  18.214  38.769   0.473
66857W        W32117   6.236  15.865   3.357
66858W        W32118  28.996  40.956   3.407
66859W        W32119   7.325   6.342  13.787
66860W        W32120  26.433   9.249  11.712
66861W        W32121   1.672   5.782  11.543
66862W        W32122  38.090  22.359  12.071
66863W        W32123  40.259  44.266  14.810
66864W        W32124   1.542  13.076   3.193
66865W        W32125  29.585  19.025   0.076
66866W        W32126  21.732  18.127  13.547
66867W        W32127  28.014   2.692   4.581
66868W        W32128  37.058  39.920   4.162
66869W        W32129  40.990   5.411  11.759
66870W        W32130  20.923  43.897  14.957
66871W        W32131  25.385   7.776  11.681
66872W        W32132  43.883  32.042  10.909
66873W        W32133  13.366  34.583   0.962
66874W        W32134  41.948  22.582  10.069
66875W        W32135  29.901   5.727  14.431
66876W        W32136  39.865  14.028   1.764
66877W        W32137  24.491  16.575   5.353
66878W        W32138   2.245   0.401  14.970
66879W        W32139   6.256  27.962   1.854
66880W        W32140  31.531  17.116   3.570
66881W        W32141   0.827  37.290   4.544
66882W        W32142  40.632  33.851  10.656
66883W        W32143  24.692  15.049   3.346
66884W        W32144  14.473  37.874  12.376
66885W        W32145  42.379  12.603  14.203
66886W        W32146   3.929  14.647  13.508
66887W        W32147  33.192  33.134  13.686
66888W        W32148  41.008  26.760  13.951
66889W        W32149  33.129  20.279   2.290
66890W        W32150  13.872  10.863   4.085
66891W        W32151   1.864  16.628  11.789
66892W        W32152   4.846  16.806   3.248
66893W        W32153  38.389  26.039  10.644
66894W        W32154  23.286   9.802  13.394
66895W        W32155  39.553   8.800  14.779
66896W        W32156  28.550  14.886   3.500
66897W        W32157   6.513  44.276  12.049
66898W        W32158  20.077  30.923  10.604
66899W        W32159  44.406   4.338   4.866
66900W        W32160  12.156  21.551   2.691
66901W        W32161  17.734   9.628   4.383
66902W        W32162  11.762  44.288   1.692
66903W        W32163  16.701  44.545  12.494
66904W        W32164  11.657  30.104   2.286
66905W        W32165  24.637  18.083   2.025
66906W        W32166  11.121  10.042  13.467
66907W        W32167  40.505  26.973   2.604
66908W        W32168  29.120   8.804   0.491
66909W        W32169  43.599  23.944  13.489
66910W        W32170  21.844  40.129  10.677
66911W        W32171   2.791  11.765  13.820
66912W        W32172  38.555   5.380  14.681
66913W        W32173  15.558  21.554  13.005
66914W        W32174  22.669  28.383  12.090
66915W        W32175  18.259  42.358   4.067
66916W        W32176  27.917   6.221  14.088
66917W        W32177  42.975  44.998  11.057
66918W        W32178   8.407  31.775   2.228
66919W        W32179  27.678  30.155  13.311
66920W        W32180  42.574  41.761   3.586
66921W        W32181   3.047  31.511   0.909
66922W        W32182  38.772  23.942  14.757
66923W        W32183  32.155   3.355   4.154
66924W        W32184  13.841  18.148   4.516
66925W        W32185  12.615  21.734  13.391
66926W        W32186  25.744  30.941  10.916
66927W        W32187  20.656   5.722  12.949
66928W        W32188  21.754  14.603   0.591
66929W        W32189  25.470  44.548  11.407
66930W        W32190   3.277  27.235  14.938
66931W        W32191   3.394  11.038  11.792
66932W        W32192   8.751   8.872   0.786
66933W        W32193  10.760  33.373   3.260
66934W        W32194  24.723  25.249   2.631
66935W        W32195  27.150  10.156  12.549
66936W        W32196  38.766   2.967   0.515
66937W        W32197  33.435  21.256  10.727
66938W        W32198  10.226  16.489   0.419
66939W        W32199  23.968  35.671   0.866
66940W        W32200  17.544   4.772   1.351
66941W        W32201  30.681  37.927  14.336
66942W        W32202  38.463  14.750   4.135
66943W        W32203  17.133  11.517  11.783
66944W        W32204   4.420   1.953   1.451
66945W        W32205  12.948  38.712  12.044
66946W        W32206  38.672   8.241   3.340
66947W        W32207  26.461   9.175   3.179
66948W        W32208  40.987  32.453   3.633
66949W        W32209   9.795  33.406   2.172
66950W        W32210  39.303   2.969  13.123
66951W        W32211  40.086  39.265  12.050
66952W        W32212  20.942  24.856  12.135
66953W        W32213  12.136   0.087   0.379
66954W        W32214   6.693  22.285  13.838
66955W        W32215   5.843   9.443   0.490
66956W        W32216  31.381  13.283  10.622
66957W        W32217   1.297  26.176   1.391
66958W        W32218  21.195   8.000   2.778
66959W        W32219  32.644  33.599   0.021
66960W        W32220  44.836  20.802   0.354
66961W        W32221   5.650  21.791  10.708
66962W        W32222  23.511  21.335  13.941
66963W        W32223  24.176  22.039  11.640
66964W        W32224  13.890   5.955   3.127
66965W        W32225  18.018   6.676  13.754
66966W        W32226   4.466  41.524  14.452
66967W        W32227  35.092  44.987   0.799
66968W        W32228   3.305  33.917   4.405
66969W        W32229  12.274   4.082   5.000
66970W        W32230   1.029  28.861  12.711
66971W        W32231   6.208  26.999  12.480
66972W        W32232   8.843  23.290   2.358
66973W        W32233  25.594   2.902   4.158
66974W        W32234  18.917  36.307   1.339
66975W        W32235   9.809   0.731   3.038
66976W        W32236   2.232  16.073   0.848
66977W        W32237  43.125  24.679  11.917
66978W        W32238  26.608   3.096  10.276
66979W        W32239  26.778  25.177  14.032
66980W        W32240  31.831  39.992  14.315
66981W        W32241  25.692  14.702  12.685
66982W        W32242  30.399  28.514   2.534
66983W        W32243  16.266   4.366   4.320
66984W        W32244  27.981  24.227  14.735
66985W        W32245  37.671   0.490   0.214
66986W        W32246  43.285  22.541   1.237
66987W        W32247  36.445  10.305   2.708
66988W        W32248   4.555  18.955  10.584
66989W        W32249   7.306  29.722  11.462
66990W        W32250  12.176  24.552  11.036
66991W        W32251  43.029  24.695  13.408
66992W        W32252  39.555  25.676  10.628
66993W        W32253   4.306  27.547   4.304
66994W        W32254  13.178  42.316   4.670
66995W        W32255   3.150  43.016   1.210
66996W        W32256  32.620  25.196   1.880
66997W        W32257   4.372  15.503   0.771
66998W        W32258   9.853  21.996  12.843
66999W        W32259   9.940  15.074  12.833
67000W        W32260  27.572  21.337  14.839
67001W        W32261   2.953   8.253   0.160
67002W        W32262  40.763  40.903  11.850
67003W        W32263  11.727   4.977   2.803
67004W        W32264  17.231  24.230   1.900
67005W        W32265  21.705  14.575  14.831
67006W        W32266   2.065  42.536  14.284
67007W        W32267  20.404  41.535   4.493
67008W        W32268  40.901  29.207  12.087
67009W        W32269  10.161  10.119   0.324
67010W        W32270  44.181  11.635  14.503
67011W        W32271  19.920  44.474  12.046
67012W        W32272   7.991  21.507  14.324
67013W        W32273  13.591   8.995  13.001
67014W        W32274   0.702   5.163  13.375
67015W        W32275   4.350  38.629  11.193
67016W        W32276  40.555  24.016  14.189
67017W        W32277  27.654   2.762  11.092
67018W        W32278  29.972  33.201  12.376
67019W        W32279  42.444  18.834  11.630
67020W        W32280  23.669  40.827  14.041
67021W        W32281  11.579  10.887   1.237
67022W        W32282  20.376  44.252   2.174
67023W        W32283   8.606  10.272  13.478
67024W        W32284  11.373   0.981  14.480
67025W        W32285  11.843  10.769   4.136
67026W        W32286  34.664  31.439  13.785
67027W        W32287   8.700  18.217  11.380
67028W        W32288  28.836  24.578   0.389
67029W        W32289  30.181  19.708   0.233
67030W        W32290  13.165   9.944   0.539
67031W        W32291  14.413  32.033  12.631
67032W        W32292   8.600  34.616  10.234
67033W        W32293  17.312  23.292  11.581
67034W        W32294   6.176  27.249   4.321
67035W        W32295  23.173  38.570   0.730
67036W        W32296   3.789  15.544  13.252
67037W        W32297  43.709   8.408  13.978
67038W        W32298  37.429  24.264  10.835
67039W        W32299  20.206  32.068  13.894
67040W        W32300  40.665  37.857   1.077
67041W        W32301  31.163  11.456  13.382
67042W        W32302  20.452  20.542  14.965
67043W        W32303  41.223  31.062   1.421
67044W        W32304  25.628  12.180  12.677
67045W        W32305  28.115  31.623   1.894
67046W        W32306  44.713   9.026  14.810
67047W        W32307  34.622  15.131   2.733
67048W        W32308  44.244  29.013   2.723
67049W        W32309  24.581  16.034   3.277
67050W        W32310  36.042  13.451   4.802
67051W        W32311  39.724  19.617  14.019
67052W        W32312   4.806  22.858  13.674
67053W        W32313  28.383  23.763  10.603
67054W        W32314  25.014  29.732   1.035
67055W        W32315  41.458   4.232  14.523
67056W        W32316  27.710  15.606  14.779
67057W        W32317   1.010  11.319   2.037
67058W        W32318   6.752  26.745  10.145
67059W        W32319  14.288  33.896  13.374
67060W        W32320  40.481  21.591   2.305
67061W        W32321  37.059  29.893   3.774
67062W        W32322   2.414  38.845   4.525
67063W        W32323  29.067   1.831   3.424
67064W        W32324  25.492  16.626   0.442
67065W        W32325   9.699  24.858  12.369
67066W        W32326  42.821   5.375   2.282
67067W        W32327   6.150  44.013  11.806
67068W        W32328  30.376  34.812  10.576
67069W        W32329   9.671   8.694   4.677
67070W        W32330  21.159   2.457  11.479
67071W        W32331  39.811   3.453   3.062
67072W        W32332  25.012   2.027  11.238
67073W        W32333  36.684  32.692   1.380
67074W        W32334  11.404   9.069  13.109
67075W        W32335  29.560  33.421  10.094
67076W        W32336  24.945   4.645  13.929
67077W        W32337  10.546  42.262  11.659
67078W        W32338  14.784  15.782   3.349
67079W        W32339   1.746  30.099   1.243
67080W        W32340   8.363  36.566  12.477
67081W        W32341   3.773  30.626  12.556
67082W        W32342  23.186   3.691   4.458
67083W        W32343  21.191   7.452   4.069
67084W        W32344  32.819  42.178  14.904
67085W        W32345  40.644   1.768   5.499
67086W        W32346  42.535  37.144   2.927
67087W        W32347  29.631  23.884   4.065
67088W        W32348  40.720   7.488  11.892
67089W        W32349  42.896  31.081  11.292
67090W        W32350  32.548  38.437   2.222
67091W        W32351  22.473   2.379  10.342
67092W        W32352  33.537  17.113  14.764
67093W        W32353   3.063  19.679  12.058
67094W        W32354  19.253  43.071  12.723
67095W        W32355  29.682  16.382  11.920
67096W        W32356  19.307  10.598  11.507
67097W        W32357  29.126  22.054   1.411
67098W        W32358  41.956  18.310   4.333
67099W        W32359  26.350   3.695  12.090
67100W        W32360  15.460  33.152   2.818
67101W        W32361   3.377  26.424  13.416
67102W        W32362  32.622  42.873   4.179
67103W        W32363  43.331  38.047   4.586
67104W        W32364   7.383  24.252  11.528
67105W        W32365  30.440  31.137   5.210
67106W        W32366  28.719  43.190  11.171
67107W        W32367   8.028  17.395  12.013
67108W        W32368   9.262  10.668  11.207
67109W        W32369  29.130  35.457   1.415
67110W        W32370   0.747   2.880   1.432
67111W        W32371  18.985   2.710   4.773
67112W        W32372   3.837  30.130   2.872
67113W        W32373   6.882  31.896  12.047
67114W        W32374   0.945  35.494   2.681
67115W        W32375  39.722  27.959  13.426
67116W        W32376  28.265  18.527   0.663
67117W        W32377   8.891  37.575  14.998
67118W        W32378  10.337  21.237   3.644
67119W        W32379  13.417  17.064   1.161
67120W        W32380  43.820  31.809  14.033
67121W        W32381  19.543  34.160   2.752
67122W        W32382  21.025  20.157   2.166
67123W        W32383  32.587  25.601  13.435
67124W        W32384  32.938  40.844  10.545
67125W        W32385   4.247   4.313  11.148
67126W        W32386  31.905  14.190  10.527
67127W        W32387  36.065  25.913  13.866
67128W        W32388   7.445   0.859  10.609
67129W        W32389  21.117  33.865  11.155
67130W        W32390  33.554  36.977   0.956
67131W        W32391   5.278  40.836  12.528
67132W        W32392  14.921  37.498   0.996
67133W        W32393  37.519   4.969   1.950
67134W        W32394  22.182  13.457  12.824
67135W        W32395  11.650  25.429   3.124
67136W        W32396   9.128   9.161  14.672
67137W        W32397  35.144  37.350  14.398
67138W        W32398  18.846  23.654  11.031
67139W        W32399  25.133  22.000  11.454
67140W        W32400  19.174  25.219  12.884
67141W        W32401  20.635  41.140  14.298
67142W        W32402   5.225   4.532  13.240
67143W        W32403   4.122   1.015  14.935
67144W        W32404  44.953  21.513   1.816
67145W        W32405  12.017   2.903  14.278
67146W        W32406   7.162  16.637   2.259
67147W        W32407   0.432  35.824  14.342
67148W        W32408   7.757  20.627   1.761
67149W        W32409  42.029  35.649   0.236
67150W        W32410  44.555   8.322   2.599
67151W        W32411  20.123  36.737   0.778
67152W        W32412  13.886  27.100   4.341
67153W        W32413  26.079  24.574  13.955
67154W        W32414  25.983  35.352   2.607
67155W        W32415  27.070  33.328   3.660
67156W        W32416  15.510  17.576  11.689
67157W        W32417  16.191  29.753  12.312
67158W        W32418  30.006  39.770  12.134
67159W        W32419  44.782  18.434  10.867
67160W        W32420  22.239  21.074   2.140
67161W        W32421  18.407  28.076   3.341
67162W        W32422  43.849   1.775   2.641
67163W        W32423  39.846  26.583   2.314
67164W        W32424  26.279  27.628  12.647
67165W        W32425   5.113  28.459   3.621
67166W        W32426  24.049  34.843  11.093
67167W        W32427  25.286   3.369  10.981
67168W        W32428  32.213   5.389  10.642
67169W        W32429  15.015  17.639  13.003
67170W        W32430  10.176  20.208  10.401
67171W        W32431   3.155   8.291   0.667
67172W        W32432   0.394  32.033  10.294
67173W        W32433   8.881  27.985   1.485
67174W        W32434  43.772  16.329  11.985
67175W        W32435  25.280  19.001  10.331
67176W        W32436  11.390  25.610  14.839
67177W        W32437  33.485  33.972  14.893
67178W        W32438  30.844  27.214   4.183
67179W        W32439  44.357  26.579  13.447
67180W        W32440  14.795   4.212   4.589
67181W        W32441  28.335  42.919   1.299
67182W        W32442  36.009  16.131  13.057
67183W        W32443  17.645  22.110  13.543
67184W        W32444  22.657  39.446  11.437
67185W        W32445  33.265  26.972   5.082
67186W        W32446  26.770  21.340   0.901
67187W        W32447  22.567  33.542  12.962
67188W        W32448  35.342  43.602  10.698
67189W        W32449  41.690   8.214  13.364
67190W        W32450  13.283  21.535   0.861
67191W        W32451  14.740  11.240  10.994
67192W        W32452  23.543  33.332  11.985
67193W        W32453   7.214  20.791   0.886
67194W        W32454   6.492   6.722   1.959
67195W        W32455  39.338   2.825  12.090
67196W        W32456  22.113  34.198   9.891
67197W        W32457  22.740  24.514   0.402
67198W        W32458  37.306  15.782   2.766
67199W        W32459  11.571  30.480   3.614
67200W        W32460  30.223   6.089   3.572
67201W        W32461   8.322  42.402  14.294
67202W        W32462  16.071  12.761   3.295
67203W        W32463   4.845  29.218  14.170
67204W        W32464  18.380  30.056   3.714
67205W        W32465  44.273  10.618   5.080
67206W        W32466  35.782  34.636  12.983
67207W        W32467   0.306  35.364   0.569
67208W        W32468  17.449  17.888   4.623
67209W        W32469   8.831   7.783   2.304
67210W        W32470  15.211   7.692  12.732
67211W        W32471   9.301   2.484   4.773
67212W        W32472   4.964  35.418   1.791
67213W        W32473   2.413  13.223   3.194
67214W        W32474  30.985  21.171   4.610
67215W        W32475  42.641  37.581   1.462
67216W        W32476  23.224  43.292  11.689
67217W        W32477   5.304  35.964   2.696
67218W        W32478   7.795  42.156   2.715
67219W        W32479  42.444   7.887  13.411
67220W        W32480   4.880  31.959  12.744
67221W        W32481  39.542  11.659   4.325
67222W        W32482  25.094  28.874  14.984
67223W        W32483  33.465  22.105   1.365
67224W        W32484   0.787  23.710   1.822
67225W        W32485  26.392  31.236  14.930
67226W        W32486   7.674  14.790   4.661
67227W        W32487  21.561   4.229   3.997
67228W        W32488  20.856  34.101   3.567
67229W        W32489  24.229   9.390  12.531
67230W        W32490  10.926  38.964  11.608
67231W        W32491  30.117  31.846   4.682
67232W        W32492  29.698  32.996  14.573
67233W        W32493  40.755  30.894   0.990
67234W        W32494  36.939  30.649  13.978
67235W        W32495   9.641  38.910   4.665
67236W        W32496  31.129  22.818   2.324
67237W        W32497  34.533   6.233  10.738
67238W        W32498  21.597  12.589   3.638
67239W        W32499  11.364  37.950   1.403
67240W        W32500  19.281   2.355   1.846
67241W        W32501  30.056  33.814   4.787
67242W        W32502  19.283  31.478   3.672
67243W        W32503  26.471  29.836  14.450
67244W        W32504  39.068  30.426  12.616
67245W        W32505  38.875   3.784  14.312
67246W        W32506  42.758  19.212   4.215
67247W        W32507  32.669  30.504   2.824
67248W        W32508  20.644  31.765  10.774
67249W        W32509  23.613  38.509   0.983
67250W        W32510  22.782  13.301   4.489
67251W        W32511  38.062  16.145   4.415
67252W        W32512  35.696  27.399   9.916
67253W        W32513   1.572  13.694   3.587
67254W        W32514   5.418  39.817  11.156
67255W        W32515  16.164  21.775   0.696
67256W        W32516  36.802  25.518   1.906
67257W        W32517  31.964  22.770   4.535
67258W        W32518  16.949  13.102  11.141
67259W        W32519  39.122  22.712  12.581
67260W        W32520  14.853  33.322   4.844
67261W        W32521  29.642  11.041  12.425
67262W        W32522  16.913  43.643   0.460
67263W        W32523  36.023  30.192   0.953
67264W        W32524  17.813  28.683  11.428
67265W        W32525  28.080  22.012   4.625
67266W        W32526   5.045  31.963   4.935
67267W        W32527  26.532  39.293   1.239
67268W        W32528  12.666  18.227   4.160
67269W        W32529  34.623  38.879   3.216
67270W        W32530  44.365   0.998   3.711
67271W        W32531  15.792  38.791   1.287
67272W        W32532   9.797  33.821  11.837
67273W        W32533  20.912  38.107  12.025
67274W        W32534  26.381  33.157   3.201
67275W        W32535  34.756   2.040   3.686
67276W        W32536  34.181  26.014  10.258
67277W        W32537   2.463   5.241   4.914
67278W        W32538  36.296  10.398  10.697
67279W        W32539   7.771   6.870  13.338
67280W        W32540  43.810  41.309  14.949
67281W        W32541  21.606  23.611   4.086
67282W        W32542  33.088   8.750  11.898
67283W        W32543  16.839  34.485   2.750
67284W        W32544  13.095  16.801  11.126
67285W        W32545   3.011  25.577  13.435
67286W        W32546  22.510  42.075   1.754
67287W        W32547  10.010  22.126  14.008
67288W        W32548  37.679  29.071  12.039
67289W        W32549  20.130  32.182   2.842
67290W        W32550  31.973  17.509   5.192
67291W        W32551   8.379  42.563   2.952
67292W        W32552  30.266  39.359  10.868
67293W        W32553  14.118  34.334   2.606
67294W        W32554   6.348  16.122   3.789
67295W        W32555  33.636  28.965  13.528
67296W        W32556  30.445  44.463  11.198
67297W        W32557  16.691  18.042  11.095
67298W        W32558  24.457  35.569   3.286
67299W        W32559  21.470  23.814  14.540
67300W        W32560  35.101  23.804  12.147
67301W        W32561  13.160  31.320   2.207
67302W        W32562  39.457  15.198   2.411
67303W        W32563  40.103  33.398   0.174
67304W        W32564   9.874   2.877  13.059
67305W        W32565  11.889  34.519  14.504
67306W        W32566  14.301   8.168  11.567
67307W        W32567   8.711  23.256  10.586
67308W        W32568   9.321  31.703   3.673
67309W        W32569  21.030  42.982  14.840
67310W        W32570  24.591  21.112  14.786
67311W        W32571  19.613  19.004  11.337
67312W        W32572  38.923  13.813  13.456
67313W        W32573  16.523   1.453  12.960
67314W        W32574  24.339  11.244   3.269
67315W        W32575  30.859  19.553   3.656
67316W        W32576  27.186  25.400  10.734
67317W        W32577  16.553  24.750  12.518
67318W        W32578   0.207  27.513  10.845
67319W        W32579  12.697  27.974  11.461
67320W        W32580  21.891  36.029   2.217
67321W        W32581   3.106  26.311  10.782
67322W        W32582  44.456  28.741   0.443
67323W        W32583   6.427   6.328  14.262
67324W        W32584   2.098  23.378  14.494
67325W        W32585   5.740  23.110   3.568
67326W        W32586  12.173  11.031  11.744
67327W        W32587   1.622  22.625  14.631
67328W        W32588  20.040  44.702   0.529
67329W        W32589  42.328   0.700   2.822
67330W        W32590  10.740   4.384  11.134
67331W        W32591  31.598  19.225   4.126
67332W        W32592   0.868   6.772   3.668
67333W        W32593  41.487  36.670   4.132
67334W        W32594  36.574  40.670  10.311
67335W        W32595  33.728  36.970  12.122
67336W        W32596   0.719  19.768  11.263
67337W        W32597  21.666  42.987   4.248
67338W        W32598  12.138   4.860  12.903
67339W        W32599  22.566   6.173  13.979
67340W        W32600   6.814   2.659  10.496
67341W        W32601  16.216  14.228  13.396
67342W        W32602  29.240  43.141   2.104
67343W        W32603   9.970  41.089   3.822
67344W        W32604  19.339   2.571   2.338
67345W        W32605  40.048  18.706   1.488
67346W        W32606  31.550  24.319   5.525
67347W        W32607   2.342  38.956  14.292
67348W        W32608  31.133  20.255   1.367
67349W        W32609  44.891   4.316  12.051
67350W        W32610  30.084  34.149   0.080
67351W        W32611  41.524  18.917   3.713
67352W        W32612  16.247  14.736  14.573
67353W        W32613  17.717   7.899  13.261
67354W        W32614  10.768  14.792  10.932
67355W        W32615  35.257  22.856  13.475
67356W        W32616   2.010  31.268  13.841
67357W        W32617   7.678  15.628   1.888
67358W        W32618   4.158  38.386   1.310
67359W        W32619  35.515  44.332  13.367
67360W        W32620  12.240  19.756  11.475
67361W        W32621  12.317  13.672   0.948
67362W        W32622  13.181  26.709   1.845
67363W        W32623  24.175  19.801   1.143
67364W        W32624   1.435  11.543   3.602
67365W        W32625  39.925  17.998  11.044
67366W        W32626  16.503  16.098  11.074
67367W        W32627  23.092  31.454  12.084
67368W        W32628   3.866  36.468  14.760
67369W        W32629  33.179  43.361   0.290
67370W        W32630  15.129  30.607  12.897
67371W        W32631   2.910  41.777  11.881
67372W        W32632  13.154  16.268  10.479
67373W        W32633   4.420  35.325  10.848
67374W        W32634  16.366   5.329  10.636
67375W        W32635  22.750  34.509  14.364
67376W        W32636  36.530   4.465  14.037
67377W        W32637  29.163  26.609  12.234
67378W        W32638  34.353  14.674   1.828
67379W        W32639  36.663  40.103   2.255
67380W        W32640   4.465  27.576  12.537
67381W        W32641  18.886  11.634   2.205
67382W        W32642  15.112  41.635  12.940
67383W        W32643  44.774  37.909  14.464
67384W        W32644  43.792  11.244   1.263
67385W        W32645  32.388  20.626  10.880
67386W        W32646  13.370  26.184   0.273
67387W        W32647  27.151  42.309  10.691
67388W        W32648   6.308  26.944   1.668
67389W        W32649  28.058  25.599  10.243
67390W        W32650  26.488   1.293   4.717
67391W        W32651  13.822  29.542  12.874
67392W        W32652  12.737  39.112  13.084
67393W        W32653  36.746  33.318  14.370
67394W        W32654  11.942  44.729  11.792
67395W        W32655  27.893  27.794   2.197
67396W        W32656  44.993  26.215  14.292
67397W        W32657  15.095  32.943   4.617
67398W        W32658  21.493  22.199  12.043
67399W        W32659  25.007  17.160  13.942
67400W        W32660   2.374   5.610  14.746
67401W        W32661   6.826  31.086  11.731
67402W        W32662  41.765  21.530   3.144
67403W        W32663  41.015  11.184   3.631
67404W        W32664  25.593  43.453   2.311
67405W        W32665   3.543  40.964   1.005
67406W        W32666   8.094  29.196   2.462
67407W        W32667   5.171   6.190  10.761
67408W        W32668  27.309  25.898  10.805
67409W        W32669  22.242  17.532   3.268
67410W        W32670  14.868  13.179   3.748
67411W        W32671  13.028  31.339   1.298
67412W        W32672  13.614  24.661  12.931
67413W        W32673  36.367  25.886  13.445
67414W        W32674  34.305  16.201   4.554
67415W        W32675   1.725  11.835   1.850
67416W        W32676  41.704   8.344   0.762
67417W        W32677   6.907  21.193  13.379
67418W        W32678  26.784  29.507   2.336
67419W        W32679   2.774   1.359  11.433
67420W        W32680  20.686  11.807   2.453
67421W        W32681  16.351  26.885  11.612
67422W        W32682  26.074  25.970  12.561
67423W        W32683   4.221  16.283  13.077
67424W        W32684  36.415  37.646  13.968
67425W        W32685  28.035  44.488  13.923
67426W        W32686  41.891   3.001   1.967
67427W        W32687  12.555  19.572   1.843
67428W        W32688  42.460  24.167  14.516
67429W        W32689   9.311  43.559   4.653
67430W        W32690  15.229   5.242  10.736
67431W        W32691  35.541  24.001  13.081
67432W        W32692  24.271  30.333  14.881
67433W        W32693  20.297   5.377  13.983
67434W        W32694  39.671  14.261  12.112
67435W        W32695  32.476  27.030  13.110
67436W        W32696  15.010  32.016   2.250
67437W        W32697   0.924  17.988  10.147
67438W        W32698  41.448   4.205  12.242
67439W        W32699  20.604  32.461  13.712
67440W        W32700  20.165  26.769   0.114
67441W        W32701  29.068  43.474   3.066
67442W        W32702  33.745  17.377   1.361
67443W        W32703  13.902   7.471   9.899
67444W        W32704  10.360  28.507   5.416
67445W        W32705  12.881  44.285  12.479
67446W        W32706  24.766  43.125   0.263
67447W        W32707  10.684  21.432  11.966
67448W        W32708  29.155  20.268   2.269
67449W        W32709  28.996  27.933  12.525
67450W        W32710   3.814  25.040   2.097
67451W        W32711  17.698  15.899   0.206
67452W        W32712  30.566   9.397   4.484
67453W        W32713  34.352  12.692   1.916
67454W        W32714  15.362   9.160  11.899
67455W        W32715   5.896  28.246  11.336
67456W        W32716  18.817  39.271   0.828
67457W        W32717  22.661  28.668   2.172
67458W        W32718  13.097  12.047  11.082
67459W        W32719  11.803  15.789   1.282
67460W        W32720  35.972  33.419  10.705
67461W        W32721  22.395  11.177   4.450
67462W        W32722  37.167   4.060   1.634
67463W        W32723  44.946  29.679   1.788
67464W        W32724   9.401  17.033   0.498
67465W        W32725  24.247  28.936   3.073
67466W        W32726  23.172   3.208  14.250
67467W        W32727  18.338   1.311   0.048
67468W        W32728  34.977  33.756  14.720
67469W        W32729  42.824  42.457   2.039
67470W        W32730   6.357  27.624   0.901
67471W        W32731  35.382  23.650  14.368
67472W        W32732  34.837  13.085   2.544
67473W        W32733  26.552   8.073   9.966
67474W        W32734   8.864  12.080  13.623
67475W        W32735  17.248  14.214   2.862
67476W        W32736  37.926  32.499   4.189
67477W        W32737  43.957   2.927  13.522
67478W        W32738   6.514  32.498   1.362
67479W        W32739  40.532  32.661  13.428
67480W        W32740  44.980  36.134  12.438
67481W        W32741   9.429  20.984  13.491
67482W        W32742  29.840  39.051  13.630
67483W        W32743  40.823   1.527  13.969
67484W        W32744  31.858  20.629   0.014
67485W        W32745  11.489   3.780   1.395
67486W        W32746  18.791  37.471  14.727
67487W        W32747  36.573  39.977   3.389
67488W        W32748  40.366  15.703  12.614
67489W        W32749  25.694  13.645   3.735
67490W        W32750  22.104  26.523  12.097
67491W        W32751  27.619  16.720  14.537
67492W        W32752   5.829   0.116  13.308
67493W        W32753  19.859  20.963  11.107
67494W        W32754  43.281  22.549  14.989
67495W        W32755  19.751   8.326  14.991
67496W        W32756  22.807   0.913  10.752
67497W        W32757  11.353  29.032  14.953
67498W        W32758   8.219  40.932  11.742
67499W        W32759  17.896   1.480  11.561
67500W        W32760  41.684  42.252   3.851
67501W        W32761  14.295  19.276   2.967
67502W        W32762  22.997   0.864   1.687
67503W        W32763  36.198   8.386  10.942
67504W        W32764  30.510  15.300   1.051
67505W        W32765  43.004   3.822   0.632
67506W        W32766  18.541  34.014   1.376
67507W        W32767   1.358  26.969  12.669
67508W        W32768  38.508  12.203  14.332
67509W        W32769  38.860  11.218   2.378
67510W        W32770  29.937  13.467  13.426
67511W        W32771  10.952  31.052  11.058
67512W        W32772  43.980  22.011  11.624
67513W        W32773  26.285  24.972  14.219
67514W        W32774   6.785  37.527   3.680
67515W        W32775  16.728  28.261   0.215
67516W        W32776  38.811  11.172  14.873
67517W        W32777   3.339  10.318   0.219
67518W        W32778  36.334  43.719   3.789
67519W        W32779   4.685  20.655   4.711
67520W        W32780  15.104   3.026   4.072
67521W        W32781  37.016  14.986   2.383
67522W        W32782  38.406  17.771   3.116
67523W        W32783  18.163  19.579   4.479
67524W        W32784   9.181   9.847   0.726
67525W        W32785   9.196  35.748  14.761
67526W        W32786  19.520  15.606  13.395
67527W        W32787  18.965  29.724   1.603
67528W        W32788  25.645   3.012   1.395
67529W        W32789   7.451  31.975  12.901
67530W        W32790  16.245  18.740  14.233
67531W        W32791  28.123  23.434   0.063
67532W        W32792   6.674  32.390   3.651
67533W        W32793   0.694  18.002  14.443
67534W        W32794  14.539  20.541   1.447
67535W        W32795   1.353  35.470   0.452
67536W        W32796  36.825  20.684  11.587
67537W        W32797  14.037   4.031   1.440
67538W        W32798  37.827   8.104  11.655
67539W        W32799  44.431  20.007  13.694
67540W        W32800   4.746  20.907   4.268
67541W        W32801  37.589   5.371  12.907
67542W        W32802  30.481  37.310  10.935
67543W        W32803  38.058  40.284  12.470
67544W        W32804  29.463  10.457   4.249
67545W        W32805   9.879   7.893   2.403
67546W        W32806  20.277  18.385  14.160
67547W        W32807  10.299  12.898  11.690
67548W        W32808   8.133  19.718   0.356
67549W        W32809   3.324  42.041  11.574
67550W        W32810  19.874  43.629  13.626
67551W        W32811  26.853  20.052   0.296
67552W        W32812  20.534  43.737   4.674
67553W        W32813  11.393  21.566  14.712
67554W        W32814  14.227   6.788   5.557
67555W        W32815  26.211   8.833   1.716
67556W        W32816  22.800  43.797   1.212
67557W        W32817  14.252   4.360   0.477
67558W        W32818  24.269  44.566   1.801
67559W        W32819  42.947   1.526  14.607
67560W        W32820  37.347  42.529  11.592
67561W        W32821  28.414   6.426  13.368
67562W        W32822  41.031  26.288   0.356
67563W        W32823   9.678   6.234  14.016
67564W        W32824  28.505  20.357  13.938
67565W        W32825   2.416  23.977   4.312
67566W        W32826  11.222  13.280  11.505
67567W        W32827  23.035  13.043   0.012
67568W        W32828  12.329  15.586   0.310
67569W        W32829  41.308  14.909  12.980
67570W        W32830  35.809   1.833   1.327
67571W        W32831  41.562   4.756   3.136
67572W        W32832   2.179  41.689   2.632
67573W        W32833   0.174  31.660  10.727
67574W        W32834   2.161  38.935   9.828
67575W        W32835  26.051  23.143   4.083
67576W        W32836  40.979  20.026   3.370
67577W        W32837  23.447   9.392   2.008
67578W        W32838  34.437  16.662  10.771
67579W        W32839   9.514  14.252   5.023
67580W        W32840  12.597   4.200   3.739
67581W        W32841  17.770   6.971  12.196
67582W        W32842  44.752  43.953  10.904
67583W        W32843   4.112  23.050   2.788
67584W        W32844  27.954  36.497  13.074
67585W        W32845  27.440   6.352   1.448
67586W        W32846  35.486  15.548  13.259
67587W        W32847  16.048  10.558  11.959
67588W        W32848  16.794  31.047   3.686
67589W        W32849  40.475  32.845   1.131
67590W        W32850  15.708  40.799  10.693
67591W        W32851  15.677   2.956   0.911
67592W        W32852  25.499  23.665   3.711
67593W        W32853  17.753  27.920  11.197
67594W        W32854  38.673  27.055  11.238
67595W        W32855  36.450  37.373  11.273
67596W        W32856  26.147  43.980  10.530
67597W        W32857   9.849  33.181   3.486
67598W        W32858  15.640   8.371   2.443
67599W        W32859  10.576  18.566   1.847
67600W        W32860  21.189   3.259  13.254
67601W        W32861  14.152  13.077   2.215
67602W        W32862  33.478  41.708   1.361
67603W        W32863   9.699   4.888  14.457
67604W        W32864  35.582   8.638  14.547
67605W        W32865  11.319  28.562   0.466
67606W        W32866   8.717  16.617   0.150
67607W        W32867   0.755   5.211  12.557
67608W        W32868  23.596  34.245  14.231
67609W        W32869  32.723   8.830  12.988
67610W        W32870  42.350  41.762  13.406
67611W        W32871  20.263  24.279  13.574
67612W        W32872  25.540  19.863   1.143
67613W        W32873  22.486  43.854  14.934
67614W        W32874  11.238  35.699   1.277
67615W        W32875  24.092  16.130   4.527
67616W        W32876  15.858  35.423   4.172
67617W        W32877   7.188  29.474   4.102
67618W        W32878  43.198  39.947  10.560
67619W        W32879   2.489   6.129   0.728
67620W        W32880  18.985   7.997  12.429
67621W        W32881  30.008   0.864   0.594
67622W        W32882  29.470   3.744   3.752
67623W        W32883  38.835  10.354   3.361
67624W        W32884   1.245  20.135   4.204
67625W        W32885   4.076  32.428  11.914
67626W        W32886  19.053   1.040  13.019
67627W        W32887  11.994   4.398   5.312
67628W        W32888   8.119  11.792  12.161
67629W        W32889  42.938  30.500  13.993
67630W        W32890  29.686  23.734  11.670
67631W        W32891   3.524  12.189  12.819
67632W        W32892  43.288   3.072   4.140
67633W        W32893  39.776  31.625   0.028
67634W        W32894   9.714  11.786  13.907
67635W        W32895  11.027   3.859   1.197
67636W        W32896  30.654  41.483  13.055
67637W        W32897  32.859  36.008   4.286
67638W        W32898  28.009  40.897   0.040
67639W        W32899  27.955  26.685   3.495
67640W        W32900   6.176  24.097   1.945
67641W        W32901   3.780  20.222  10.693
67642W        W32902   2.617   4.802   5.133
67643W        W32903  32.577  15.855  14.028
67644W        W32904  26.104  39.448   0.381
67645W        W32905  29.081  17.947  11.126
67646W        W32906  20.626  31.257  10.870
67647W        W32907  28.292  21.178  12.531
67648W        W32908   8.193  20.676  11.894
67649W        W32909  33.923  33.484  13.072
67650W        W32910   1.317  32.164   4.659
67651W        W32911  38.202  22.706  11.304
67652W        W32912  40.106  33.904  10.696
67653W        W32913   7.179  38.977  14.388
67654W        W32914  34.134  41.062  14.004
67655W        W32915   4.197  33.898   1.601
67656W        W32916  10.209  37.736  12.132
67657W        W32917  43.705  42.837   0.404
67658W        W32918   1.765   2.153  11.128
67659W        W32919  18.386   2.238  13.191
67660W        W32920  12.569   5.369  12.024
67661W        W32921  31.070  26.420   0.827
67662W        W32922  14.367  44.780   3.539
67663W        W32923  32.429   4.565   2.699
67664W        W32924  28.301  19.250   2.550
67665W        W32925  29.579  36.973   2.321
67666W        W32926  42.476  11.073  10.981
67667W        W32927  23.285  18.690   0.076
67668W        W32928  20.079   7.886  13.430
67669W        W32929  33.667  30.279  13.025
67670W        W32930  28.099  42.260  10.657
67671W        W32931   7.167  33.377   3.319
67672W        W32932  27.259   8.498   0.086
67673W        W32933  19.701  18.728   1.470
67674W        W32934  42.255  36.132   0.246
67675W        W32935  24.633  28.961  11.945
67676W        W32936  40.699  16.988  13.868
67677W        W32937  20.960  42.073   1.906
67678W        W32938   3.616   6.770  13.564
67679W        W32939  28.645  26.504  11.291
67680W        W32940  21.408  39.476   2.912
67681W        W32941  41.064  26.908  11.498
67682W        W32942  40.563  39.537  12.614
67683W        W32943   1.678   2.820  13.974
67684W        W32944  27.732  14.730   3.750
67685W        W32945  41.038  12.768   1.401
67686W        W32946  29.891   1.819  13.778
67687W        W32947  17.629   0.465  11.520
67688W        W32948  33.173  24.258  12.081
67689W        W32949  34.736  20.831  12.933
67690W        W32950  10.355  21.341   0.079
67691W        W32951  36.888  14.299  14.292
67692W        W32952  20.605   4.263  14.434
67693W        W32953  16.380  37.178  14.925
67694W        W32954  25.019  26.994   2.665
67695W        W32955   6.010   8.149  12.841
67696W        W32956   5.912  41.010   1.379
67697W        W32957  41.175  33.944  14.373
67698W        W32958   6.855  25.912  12.051
67699W        W32959  36.821  17.792   3.340
67700W        W32960  41.552  38.751  14.416
67701W        W32961  26.268  27.964  13.069
67702W        W32962  21.986  31.427  14.804
67703W        W32963  35.271   0.442   3.161
67704W        W32964   1.339  19.564   1.113
67705W        W32965   9.651  39.332   0.109
67706W        W32966  36.063  31.092   1.464
67707W        W32967   8.441   9.299  10.514
67708W        W32968  20.086  36.415   0.364
67709W        W32969   5.703  13.234   2.096
67710W        W32970  15.341  10.581  11.462
67711W        W32971  17.674  18.321   4.405
67712W        W32972   2.075  27.238  11.231
67713W        W32973  16.075  26.636  12.015
67714W        W32974   1.882  15.274  11.615
67715W        W32975  30.516   9.807  13.542
67716W        W32976  13.956   3.520   1.337
67717W        W32977  24.231  28.439  11.692
67718W        W32978  34.654  16.457  11.574
67719W        W32979   8.640  17.787   3.310
67720W        W32980  34.983  28.738  13.031
67721W        W32981  10.428  29.623  13.905
67722W        W32982  15.880  16.628   0.936
67723W        W32983  20.114  30.621   4.551
67724W        W32984  35.676  24.718  13.564
67725W        W32985  26.956  21.793  13.984
67726W        W32986  34.261  36.821  10.760
67727W        W32987  23.548  22.495   2.339
67728W        W32988  43.398   8.906  11.525
67729W        W32989  24.348  28.137  10.223
67730W        W32990  21.424  37.090   4.525
67731W        W32991   6.834  15.413   4.809
67732W        W32992  29.868  32.207  13.997
67733W        W32993   7.669  24.508  14.406
67734W        W32994  22.130  22.899  10.760
67735W        W32995   2.277   6.776   2.008
67736W        W32996  26.324   5.717   3.737
67737W        W32997  19.933  44.933  10.744
67738W        W32998  19.693  36.912  12.403
67739W        W32999  25.632   3.809   2.825
67740W        W33000  38.984  31.749  14.600
67741W        W33001   9.708   1.332  12.463
67742W        W33002   4.347  34.549   4.404
67743W        W33003   9.126  25.820   4.059
67744W        W33004  36.050  25.737  12.939
67745W        W33005   6.143   9.561  11.984
67746W        W33006  10.226  22.272   0.849
67747W        W33007  44.147  12.976  13.926
67748W        W33008   4.923  40.797   3.169
67749W        W33009  14.147   6.161  14.246
67750W        W33010  34.371  43.982  10.183
67751W        W33011  38.676  12.827  12.427
67752W        W33012  37.179  42.703   0.262
67753W        W33013  36.356  23.070   3.952
67754W        W33014  15.606  19.893  13.887
67755W        W33015   3.220   2.805  14.851
67756W        W33016  25.468  32.445   1.180
67757W        W33017   4.709  16.162  13.272
67758W        W33018  36.897  17.183   3.640
67759W        W33019  20.245  26.015  14.884
67760W        W33020  25.252  18.750   4.455
67761W        W33021  25.218  31.560   3.363
67762W        W33022  28.617  29.939   3.621
67763W        W33023  12.699  11.221  10.450
67764W        W33024  35.118  32.415  11.583
67765W        W33025  16.322  32.090  11.129
67766W        W33026  23.168  24.253   0.258
67767W        W33027  14.972  21.026  12.225
67768W        W33028  19.225  44.004  12.557
67769W        W33029  34.211  30.432   1.400
67770W        W33030  25.017  44.293  11.278
67771W        W33031  30.407  22.954   3.377
67772W        W33032  31.574  43.317  13.012
67773W        W33033  13.883  22.401  13.525
67774W        W33034   3.715  35.924  11.502
67775W        W33035  31.526  18.222  11.258
67776W        W33036  17.335  14.331  11.111
67777W        W33037   4.921  32.800   3.209
67778W        W33038  44.643  10.572   2.150
67779W        W33039   0.752  31.248  11.704
67780W        W33040  10.375  29.001   4.138
67781W        W33041  44.207  23.983   2.847
67782W        W33042  15.314  24.193   1.022
67783W        W33043  12.094  41.285   0.299
67784W        W33044  27.066  12.896  10.787
67785W        W33045  34.137   1.102   4.950
67786W        W33046  18.781  16.603  12.034
67787W        W33047  27.206   7.618  11.888
67788W        W33048   3.524  18.143  10.321
67789W        W33049  44.541  26.396  14.921
67790W        W33050  12.632  18.699  11.499
67791W        W33051  21.325   9.292  13.540
67792W        W33052  10.290  44.055   3.561
67793W        W33053  39.504  31.600  14.513
67794W        W33054  20.475  18.694   3.658
67795W        W33055  28.070  36.615   1.680
67796W        W33056  42.946  42.511  14.538
67797W        W33057  18.024  11.885  14.420
67798W        W33058  27.435   8.086  12.027
67799W        W33059  22.429   7.278   3.140
67800W        W33060  41.535  43.193   4.883
67801W        W33061  23.131  24.197   4.069
67802W        W33062   9.400  16.645  13.877
67803W        W33063  40.374  33.531  10.943
67804W        W33064   6.152  13.333  13.786
67805W        W33065   3.482  14.544   1.779
67806W        W33066  24.051  32.845   4.079
67807W        W33067   2.385  40.314  11.731
67808W        W33068   6.499   0.900  13.778
67809W        W33069   2.799  27.607   3.308
67810W        W33070  14.800   5.156   4.164
67811W        W33071  41.400  32.553   0.714
67812W        W33072   9.220   1.102   2.256
67813W        W33073  26.507   8.702  13.491
67814W        W33074  32.541  44.439   4.596
67815W        W33075   7.647  38.750   3.141
67816W        W33076  19.375  29.330  14.899
67817W        W33077  21.718  17.777  14.930
67818W        W33078  10.669   7.101   1.347
67819W        W33079  15.972  17.018   1.889
67820W        W33080  27.238  17.488   1.846
67821W        W33081  15.586  33.644   4.199
67822W        W33082  14.774  21.538  11.572
67823W        W33083  36.507  37.934   3.868
67824W        W33084  20.714  34.647  13.849
67825W        W33085  32.381  17.284   1.759
67826W        W33086  35.355   9.993   0.953
67827W        W33087  34.982  13.959   4.135
67828W        W33088  39.736  12.106  12.613
67829W        W33089  24.110  10.685   1.491
67830W        W33090   1.461   3.531   4.267
67831W        W33091  35.689  29.978   1.323
67832W        W33092  13.660  40.406  12.165
67833W        W33093   9.857  16.908   3.905
67834W        W33094  25.734  13.773   0.663
67835W        W33095  32.894  15.010  11.818
67836W        W33096  36.315  42.911   4.113
67837W        W33097  28.033   7.185  13.791
67838W        W33098   3.374  26.766   2.614
67839W        W33099  34.317  20.327  12.073
67840W        W33100  28.596   1.210  13.450
67841W        W33101  36.423   4.568   1.368
67842W        W33102   4.753  27.956  14.515
67843W        W33103   5.789  32.456   3.163
67844W        W33104  20.021   7.886   0.661
67845W        W33105  13.616  34.301  11.163
67846W        W33106  42.357  39.886   2.495
67847W        W33107  18.102   7.897  14.099
67848W        W33108  39.928  24.106  14.851
67849W        W33109  25.458   8.854  14.104
67850W        W33110   6.313  23.972   4.306
67851W        W33111  18.786  24.261  11.211
67852W        W33112   1.246  23.217   0.772
67853W        W33113  27.235  19.675  11.388
67854W        W33114  35.931   2.829   4.113
67855W        W33115  35.041   1.437  12.423
67856W        W33116  32.310   1.556  14.874
67857W        W33117  29.361  26.214  11.901
67858W        W33118  17.558  25.963   2.668
67859W        W33119  34.428  33.492   2.753
67860W        W33120  19.360  23.532  11.549
67861W        W33121   4.054   4.805  14.809
67862W        W33122  11.223  36.964  12.609
67863W        W33123   3.754  11.594  10.701
67864W        W33124  18.161  44.763   0.379
67865W        W33125  26.931  40.431  10.656
67866W        W33126  21.236  17.236  11.505
67867W        W33127   5.474   3.752   0.937
67868W        W33128  27.021  11.138   4.051
67869W        W33129  11.656   5.629   3.523
67870W        W33130  35.643  18.216  11.239
67871W        W33131  37.100   3.947   9.820
67872W        W33132  23.484  20.461   3.062
67873W        W33133  35.158  44.163   0.343
67874W        W33134  28.767  33.525   0.365
67875W        W33135  23.738  39.621  14.417
67876W        W33136  44.881   4.725  12.392
67877W        W33137  21.758  23.523  13.769
67878W        W33138  33.012  27.061   3.880
67879W        W33139   9.563  31.157   1.477
67880W        W33140  29.652  38.444   0.002
67881W        W33141  43.611   0.965  14.069
67882W        W33142  21.993  30.965  14.252
67883W        W33143  30.362  39.631  13.886
67884W        W33144  36.361  40.341   2.626
67885W        W33145  38.347  31.605   3.660
67886W        W33146  36.329  43.275   4.507
67887W        W33147  21.017   3.794   3.795
67888W        W33148  12.099  10.823  13.719
67889W        W33149  16.822  26.371  13.385
67890W        W33150   7.195  37.508   2.898
67891W        W33151  31.595  15.389  12.050
67892W        W33152  10.882   2.062  11.982
67893W        W33153  39.513  37.113   3.733
67894W        W33154  16.067   8.654   1.671
67895W        W33155  25.794   8.157  14.640
67896W        W33156   9.497  12.313   1.909
67897W        W33157  22.040  33.149  13.403
67898W        W33158   3.840  21.963   2.049
67899W        W33159   5.844   3.259  14.242
67900W        W33160  42.472  24.772   2.711
67901W        W33161  10.629   6.426   0.384
67902W        W33162  39.805  33.472  10.802
67903W        W33163  11.560   1.278   1.653
67904W        W33164  42.293   4.273  12.092
67905W        W33165   1.050  28.949   3.988
67906W        W33166  25.895  39.984   3.083
67907W        W33167  41.803  41.828  11.284
67908W        W33168   4.201  20.952  14.678
67909W        W33169   5.361  23.918  14.361
67910W        W33170  24.200  22.277  14.352
67911W        W33171  33.833  29.654  13.873
67912W        W33172  26.190  13.153   2.324
67913W        W33173  39.049   5.482  11.437
67914W        W33174  38.514  10.192  14.295
67915W        W33175  13.247   2.420  11.069
67916W        W33176  31.365  16.847  11.634
67917W        W33177  13.773  11.626   0.323
67918W        W33178  27.061  18.055  12.627
67919W        W33179  36.182  39.358   2.788
67920W        W33180  14.161   7.794  12.371
67921W        W33181  23.767  41.037   0.535
67922W        W33182   0.389   3.975  14.221
67923W        W33183  20.536   4.941  11.642
67924W        W33184  44.765   8.333   4.494
67925W        W33185  11.473  37.526   2.698
67926W        W33186  16.563  31.614  11.127
67927W        W33187  36.538  10.663   3.180
67928W        W33188   4.132  32.642   0.908
67929W        W33189  16.018   8.635  13.831
67930W        W33190  37.493  12.526   2.390
67931W        W33191  16.203  32.558  12.856
67932W        W33192  42.078  31.992  10.619
67933W        W33193  38.954  23.629   2.964
67934W        W33194  26.078  42.465  13.942
67935W        W33195  38.949  40.237   3.774
67936W        W33196  25.765  20.849   0.329
67937W        W33197  34.501  44.320  13.339
67938W        W33198  11.682  39.914   4.387
67939W        W33199  33.304  21.053   4.050
67940W        W33200  25.190  29.883  12.077
67941W        W33201  35.662  20.288   0.006
67942W        W33202  28.109  22.395  10.144
67943W        W33203  26.511  25.532  14.831
67944W        W33204  43.474  27.884  11.781
67945W        W33205  19.304  11.209  14.058
67946W        W33206  13.157  18.123   0.249
67947W        W33207  19.737  10.748  13.844
67948W        W33208  30.695  39.983  11.545
67949W        W33209  14.384  16.650  11.567
67950W        W33210  28.695   7.903  14.507
67951W        W33211  33.938  28.938   2.575
67952W        W33212  37.402  40.098   2.800
67953W        W33213  29.539   8.597   1.281
67954W        W33214  24.166  38.794   3.696
67955W        W33215  43.437  29.698  10.777
67956W        W33216   6.608  13.745  12.510
67957W        W33217   6.200  19.570  10.790
67958W        W33218   1.950  27.553  12.926
67959W        W33219   2.339  23.803  10.695
67960W        W33220   1.297   3.690   1.619
67961W        W33221  43.833  34.006   4.788
67962W        W33222  30.644  24.332   4.538
67963W        W33223  35.985  37.259  10.995
67964W        W33224  34.778   6.424  14.223
67965W        W33225  19.267  27.552   2.339
67966W        W33226  35.614  15.105  12.558
67967W        W33227  29.964  12.938  13.489
67968W        W33228  21.241  17.772  10.817
67969W        W33229   7.760  12.764  12.991
67970W        W33230  27.045  24.219   4.225
67971W        W33231   6.734  29.238  12.100
67972W        W33232  10.429  18.253   4.575
67973W        W33233  15.675  23.313  13.967
67974W        W33234   3.490   6.788   4.252
67975W        W33235  39.044  37.382  10.590
67976W        W33236  32.578  22.210  13.468
67977W        W33237  38.549  17.708  11.653
67978W        W33238  35.358  42.965   4.478
67979W        W33239  36.517  16.301  11.025
67980W        W33240   3.869  18.307  14.760
67981W        W33241  17.490   6.467  10.505
67982W        W33242  41.706  33.918   3.679
67983W        W33243   5.952  13.241   3.624
67984W        W33244  31.128  44.667   4.766
67985W        W33245  15.998  41.227   1.325
67986W        W33246  41.241  44.748  11.484
67987W        W33247   7.886  38.798  11.120
67988W        W33248  20.580   3.337   3.102
67989W        W33249  29.833  33.669  13.867
67990W        W33250   7.170  23.410   4.635
67991W        W33251  28.130  40.543  11.221
67992W        W33252  29.772  14.324   0.111
67993W        W33253   2.876   9.004  11.303
67994W        W33254   9.870  26.599  13.102
67995W        W33255   7.713   3.417  12.468
67996W        W33256  24.696   1.382  13.858
67997W        W33257  29.044  44.585  12.323
67998W        W33258  10.797  21.905   3.956
67999W        W33259  10.357  13.931  12.485
68000W        W33260   0.716  31.286   0.784
68001W        W33261  32.401  13.727  11.379
68002W        W33262  33.782   7.749   3.416
68003W        W33263  43.831  13.646   3.686
68004W        W33264  31.582   2.273  10.651
68005W        W33265  28.823   4.974   4.175
68006W        W33266  35.035  29.625   3.188
68007W        W33267  17.052   2.924  13.982
68008W        W33268  27.969  34.350   2.801
68009W        W33269  11.859  34.838   5.032
68010W        W33270  10.890  42.534  14.046
68011W        W33271  30.672   2.399  13.808
68012W        W33272  28.894  17.713  10.726
68013W        W33273  22.300  30.084  12.415
68014W        W33274  44.842  15.834   4.321
68015W        W33275  37.424  17.853  12.522
68016W        W33276  31.419  26.705  12.393
68017W        W33277   8.553  43.388  12.344
68018W        W33278   1.842  32.270  10.676
68019W        W33279  18.784  10.694  14.886
68020W        W33280   6.401   0.250   2.630
68021W        W33281  43.302  27.973   0.798
68022W        W33282  39.917  22.659  10.707
68023W        W33283  21.199   9.532   0.750
68024W        W33284  16.646  25.651   0.926
68025W        W33285   4.619  10.541   0.049
68026W        W33286   4.954  31.521  11.476
68027W        W33287  33.873   2.902   3.359
68028W        W33288  35.466   2.000  11.916
68029W        W33289   9.782  23.337  10.698
68030W        W33290  15.778  31.327  14.436
68031W        W33291  11.991   3.135  10.350
68032W        W33292  20.622  31.554   1.486
68033W        W33293   6.243   1.058  14.779
68034W        W33294  35.040  23.528   1.108
68035W        W33295  15.673  22.745   4.496
68036W        W33296  24.467  23.810   2.848
68037W        W33297  19.518  26.985  11.671
68038W        W33298  31.516  35.209   3.289
68039W        W33299  16.117   0.325   0.726
68040W        W33300   2.207  22.652  11.404
68041W        W33301  12.524  33.637   2.158
68042W        W33302  10.293  18.691  10.899
68043W        W33303  25.543  16.247  14.276
68044W        W33304  13.094  15.824  10.736
68045W        W33305  43.304  13.148   0.766
68046W        W33306  19.215  27.955  10.393
68047W        W33307   2.846  25.213  12.801
68048W        W33308   0.934  18.695   4.681
68049W        W33309  38.846  38.603  11.153
68050W        W33310   4.470  42.768  14.143
68051W        W33311  15.238  14.680  12.984
68052W        W33312  23.220  32.270   3.277
68053W        W33313  40.248  39.523  14.273
68054W        W33314  12.613  19.074  12.947
68055W        W33315  24.566   4.331  12.843
68056W        W33316   5.238  10.674   1.381
68057W        W33317   4.398  30.571   3.051
68058W        W33318  12.474  32.068  14.190
68059W        W33319  22.482  25.954   1.727
68060W        W33320   3.305  10.116   3.224
68061W        W33321  12.277   2.036  12.107
68062W        W33322  22.878  21.927   3.872
68063W        W33323  16.782  11.948  14.963
68064W        W33324  21.363  19.988  12.601
68065W        W33325  22.632   2.648   0.898
68066W        W33326  38.002  21.017  11.961
68067W        W33327   2.501   6.881  14.375
68068W        W33328   4.686  14.965   3.834
68069W        W33329   5.689  44.066  14.975
68070W        W33330  23.291   9.135  13.989
68071W        W33331  15.985  25.128  13.835
68072W        W33332  36.576   3.716  11.524
68073W        W33333   0.350  16.138  11.315
68074W        W33334   3.913  32.478  13.863
68075W        W33335  36.888   0.238  13.402
68076W        W33336  14.709  29.417   2.856
68077W        W33337  22.055  20.246   0.361
68078W        W33338  23.133   3.231   4.163
68079W        W33339  24.786  24.503  11.026
68080W        W33340  13.856  33.577  11.638
68081W        W33341  15.234  21.874  12.745
68082W        W33342  41.506  22.590  12.544
68083W        W33343  41.520  26.642  14.527
68084W        W33344  36.192  44.609  13.856
68085W        W33345  44.452   4.048  12.240
68086W        W33346  26.935  26.710   2.859
68087W        W33347  20.160  12.319  10.994
68088W        W33348  20.940  44.954   1.461
68089W        W33349   9.207  15.199   3.240
68090W        W33350  12.600  12.840  12.101
68091W        W33351  14.998  15.192  11.010
68092W        W33352  26.395  20.265   1.541
68093W        W33353  30.445  23.113  12.401
68094W        W33354   0.787   3.587   0.664
68095W        W33355  11.043  17.583  10.824
68096W        W33356  13.552  40.574   2.408
68097W        W33357  32.953  11.220   3.116
68098W        W33358   7.774   8.545   0.846
68099W        W33359  39.854  26.381  12.917
68100W        W33360  25.975  11.769   3.187
68101W        W33361  10.432  14.724   0.978
68102W        W33362  39.379  29.738   2.812
68103W        W33363  28.882   8.208   4.499
68104W        W33364  14.157  43.622  11.097
68105W        W33365  36.571   5.014  12.569
68106W        W33366  12.856   0.778   1.843
68107W        W33367  32.122  37.434  12.087
68108W        W33368  28.608  30.367   2.287
68109W        W33369  31.699  13.328   1.450
68110W        W33370   4.177  26.762   2.064
68111W        W33371  25.767   3.970   4.174
68112W        W33372  13.303  32.950   0.268
68113W        W33373  18.347  28.032   2.837
68114W        W33374   6.233  19.015   1.341
68115W        W33375  40.629  29.017   2.571
68116W        W33376  38.684  31.730   1.698
68117W        W33377   2.032  24.741   3.726
68118W        W33378  38.604  41.462  12.346
68119W        W33379  43.815  11.875   3.713
68120W        W33380  30.962  37.100  10.734
68121W        W33381  41.951  42.238   2.986
68122W        W33382  16.734   6.646  11.550
68123W        W33383  44.642  12.679  11.716
68124W        W33384  36.091  33.457  12.432
68125W        W33385   7.846  24.063   1.404
68126W        W33386  11.713   5.183   1.419
68127W        W33387  15.309   5.719  12.525
68128W        W33388  12.741  33.122  14.009
68129W        W33389  27.959   8.481   2.562
68130W        W33390  19.496  21.063  10.715
68131W        W33391   8.184  22.475  14.823
68132W        W33392  44.796  16.057   1.709
68133W        W33393  37.085  40.847  12.472
68134W        W33394  41.341  18.130  11.892
68135W        W33395  21.472  17.377  11.094
68136W        W33396   4.393  18.650  12.635
68137W        W33397   6.137  21.169  14.422
68138W        W33398  24.609  26.426  12.387
68139W        W33399  42.301   9.595  12.946
68140W        W33400  24.275  26.132   4.748
68141W        W33401  17.565  28.163   4.553
68142W        W33402  39.258  33.621   0.828
68143W        W33403  26.492  42.244  12.905
68144W        W33404  31.575  31.848  12.564
68145W        W33405   7.795  26.375  11.264
68146W        W33406  28.023  28.988   2.895
68147W        W33407  28.431  12.967   4.816
68148W        W33408  43.651  27.227   2.717
68149W        W33409   2.861  40.597   2.125
68150W        W33410  37.724   4.369   0.475
68151W        W33411  18.607  16.111  11.870
68152W        W33412   9.743  33.647   2.618
68153W        W33413  19.191  17.273   3.722
68154W        W33414  42.165  19.825   3.748
68155W        W33415  32.046  37.481   0.242
68156W        W33416  21.107   6.473   2.356
68157W        W33417  37.934  16.217   4.947
68158W        W33418  15.395  25.933   0.048
68159W        W33419  14.675   3.015   0.254
68160W        W33420  15.204   3.381  13.225
68161W        W33421  30.507   7.865  10.575
68162W        W33422  17.014   7.867  12.947
68163W        W33423  38.556  44.060  13.028
68164W        W33424  17.574  40.906  14.942
68165W        W33425  35.446  34.939   3.451
68166W        W33426  22.968  29.539  11.252
68167W        W33427   3.982  11.415   0.983
68168W        W33428  28.074  41.703   0.775
68169W        W33429  10.393  40.921   3.590
68170W        W33430  40.758  34.869  11.363
68171W        W33431   9.218   6.712  12.809
68172W        W33432   3.605  13.333   0.763
68173W        W33433  26.494  24.670   4.405
68174W        W33434  40.428  44.130  10.666
68175W        W33435  30.617  41.532  10.676
68176W        W33436  25.722   9.805  14.323
68177W        W33437   0.507  16.740  14.049
68178W        W33438   9.704  28.466  11.113
68179W        W33439  20.810  19.909  13.412
68180W        W33440   4.339   1.840   0.071
68181W        W33441   5.155  18.271   3.119
68182W        W33442  41.941  24.499   1.960
68183W        W33443   6.612  23.822  11.065
68184W        W33444  31.353  20.817  11.137
68185W        W33445  26.474  16.738  11.614
68186W        W33446  20.100  31.869   4.340
68187W        W33447  33.461  27.811   0.257
68188W        W33448  31.621  19.682  13.560
68189W        W33449   3.833  17.756   1.519
68190W        W33450  25.090  12.381   1.830
68191W        W33451  20.624  25.531   0.337
68192W        W33452  20.565  24.009  14.440
68193W        W33453  30.555   2.351  11.653
68194W        W33454  18.296  41.510   1.869
68195W        W33455  11.907   4.904  13.941
68196W        W33456  17.272  13.094   2.225
68197W        W33457  37.320  35.316  11.523
68198W        W33458  13.285   3.424   2.352
68199W        W33459   9.444   4.514  14.009
68200W        W33460  38.129  33.814   0.062
68201W        W33461   7.736  36.829   3.029
68202W        W33462  33.715  16.058   3.242
68203W        W33463  36.374  13.772   2.289
68204W        W33464  20.937  42.561  11.850
68205W        W33465  41.394   2.036   0.829
68206W        W33466   5.405   7.114   1.269
68207W        W33467  30.137  12.098  12.257
68208W        W33468  40.832  40.023   4.671
68209W        W33469  13.588  27.472   4.532
68210W        W33470  28.400   6.660  14.956
68211W        W33471  22.739  21.136   0.110
68212W        W33472   3.437  44.532  12.047
68213W        W33473  42.017  44.323   0.997
68214W        W33474  17.072  17.497   4.635
68215W        W33475  30.900   1.456  12.961
68216W        W33476   4.753  22.682   0.391
68217W        W33477  32.179  10.626   1.329
68218W        W33478  18.416  39.413   2.380
68219W        W33479  26.955  10.103   1.054
68220W        W33480  23.566  19.070  11.676
68221W        W33481  12.172  28.170  10.678
68222W        W33482  21.985   3.538   4.089
68223W        W33483  40.890  15.555  14.875
68224W        W33484  33.623   4.000  11.091
68225W        W33485  24.423  37.130  12.115
68226W        W33486  29.183  44.531   3.630
68227W        W33487  40.303  41.873  12.984
68228W        W33488  21.923   1.439  12.757
68229W        W33489  20.934  44.555   4.779
68230W        W33490  32.796  29.511  12.904
68231W        W33491  12.562  18.086  13.783
68232W        W33492  31.907  19.115   4.547
68233W        W33493   1.062  39.072  12.051
68234W        W33494   8.185   9.802   4.681
68235W        W33495   1.504  31.086  13.766
68236W        W33496   0.971  13.391  14.040
68237W        W33497  22.004  21.651  13.303
68238W        W33498  33.007  31.370  14.490
68239W        W33499  41.364  19.677   3.246
68240W        W33500  13.417  43.008   3.377
68241W        W33501  42.762  42.031   1.720
68242W        W33502  28.991  32.493  14.095
68243W        W33503  19.020   6.024   2.708
68244W        W33504  37.112  28.423  11.057
68245W        W33505  16.861  18.019   0.465
68246W        W33506  29.421  22.490   0.879
68247W        W33507  35.610   5.648   1.359
68248W        W33508  21.109  19.316   4.710
68249W        W33509  42.012  30.449   3.536
68250W        W33510  24.583   0.213  12.412
68251W        W33511   4.006  10.123  11.322
68252W        W33512  25.227  25.060  13.095
68253W        W33513  21.500   6.611   2.716
68254W        W33514  18.724   5.681   1.273
68255W        W33515  25.775  18.189  13.077
68256W        W33516   2.288   5.464   1.648
68257W        W33517  19.057  24.604  13.942
68258W        W33518  14.365  42.028  11.819
68259W        W33519  16.599  31.489   3.880
68260W        W33520  36.928  20.582   0.260
68261W        W33521  25.480   7.630   3.419
68262W        W33522  30.005   0.474   1.573
68263W        W33523  32.510  22.530  12.445
68264W        W33524  44.739   0.286   1.896
68265W        W33525  30.353   8.500   2.737
68266W        W33526   6.578  38.964  12.132
68267W        W33527  15.379  41.744   4.983
68268W        W33528  26.762  31.912  12.588
68269W        W33529   7.890  37.914  14.768
68270W        W33530  29.569  23.471   2.135
68271W        W33531   5.690  16.534  13.106
68272W        W33532   0.911   2.776  14.364
68273W        W33533   8.582   7.934   5.254
68274W        W33534  29.444  26.984  12.480
68275W        W33535  13.293   3.285   4.482
68276W        W33536  41.975  28.704  12.333
68277W        W33537  44.844  23.528  12.027
68278W        W33538  23.056   9.337   2.923
68279W        W33539  44.244  15.186   4.628
68280W        W33540  36.532  12.251  13.102
68281W        W33541  44.991  31.138   3.324
68282W        W33542  42.121  27.978   2.497
68283W        W33543   1.705   6.886  13.707
68284W        W33544  20.965  11.522  14.853
68285W        W33545  29.816  14.255  11.463
68286W        W33546  18.341  20.015   0.304
68287W        W33547   2.141  19.100   2.425
68288W        W33548  36.073  26.109  12.113
68289W        W33549  30.496  44.947  10.428
68290W        W33550  21.727  21.451   3.201
68291W        W33551   1.450  33.097   4.763
68292W        W33552   7.263   9.728   4.760
68293W        W33553   4.512   1.317  12.428
68294W        W33554  38.109  25.555  11.151
68295W        W33555  43.098  26.006  10.306
68296W        W33556   4.741  25.971  11.985
68297W        W33557  15.338  25.134   0.937
68298W        W33558  14.383  41.881  13.522
68299W        W33559  23.656  10.792  14.614
68300W        W33560  16.119  14.047  12.539
68301W        W33561  28.546  28.709  14.515
68302W        W33562  13.819   3.048  12.586
68303W        W33563  32.835   3.594   3.567
68304W        W33564  20.642  16.538   0.272
68305W        W33565  23.074  23.003   1.642
68306W        W33566  39.915  28.917   3.754
68307W        W33567  14.795  39.908   0.397
68308W        W33568  12.726  34.377  13.157
68309W        W33569  11.655  36.153   2.613
68310W        W33570  36.207  32.834   0.028
68311W        W33571  33.007  11.122  11.879
68312W        W33572  31.398  16.090  14.665
68313W        W33573  39.039  41.097  11.042
68314W        W33574  28.935   7.429  12.863
68315W        W33575  42.415   2.717  11.488
68316W        W33576  14.234   5.433  13.060
68317W        W33577  25.031  33.051   2.991
68318W        W33578  39.823  21.974  11.216
68319W        W33579  13.317   2.916  12.408
68320W        W33580  35.542  28.228   2.880
68321W        W33581  26.954   2.585  13.159
68322W        W33582   5.429   0.726  11.052
68323W        W33583  10.826  29.550  11.522
68324W        W33584  36.653  32.087   4.024
68325W        W33585  13.467  31.071   4.167
68326W        W33586   3.635   3.883  11.475
68327W        W33587  27.520  11.662  14.687
68328W        W33588   6.654   4.857  12.577
68329W        W33589   5.006  19.993  13.903
68330W        W33590  22.409  20.307   3.683
68331W        W33591  20.374  43.521  11.989
68332W        W33592   2.763   3.329  12.010
68333W        W33593  41.303  35.326  14.964
68334W        W33594  37.858   8.367   2.900
68335W        W33595  32.632  17.208  14.789
68336W        W33596  42.802  19.049  14.425
68337W        W33597  39.765   5.818  11.038
68338W        W33598  18.837   8.562   1.216
68339W        W33599   6.766   4.651   1.341
68340W        W33600  33.625   8.183   3.643
68341W        W33601  37.863  18.578   3.631
68342W        W33602  42.186   6.594   1.808
68343W        W33603   9.436  25.178  14.475
68344W        W33604  11.743  12.119  13.850
68345W        W33605   5.143   1.339  14.994
68346W        W33606   2.209  13.692  13.539
68347W        W33607   0.376  21.707   0.654
68348W        W33608   7.451  27.664   3.650
68349W        W33609   9.129  42.847  11.170
68350W        W33610   9.207  18.779  14.769
68351W        W33611  33.733  12.879  14.259
68352W        W33612  33.354   0.006  11.699
68353W        W33613   7.635  42.984  11.309
68354W        W33614  21.076   7.836   3.714
68355W        W33615  31.348  43.036  11.187
68356W        W33616   8.940   9.548  14.966
68357W        W33617   5.302   2.701   2.621
68358W        W33618  29.101   3.081   0.306
68359W        W33619  42.790  26.909  13.446
68360W        W33620   3.265   5.573  13.848
68361W        W33621  16.801  29.617   4.546
68362W        W33622   6.463   7.240   2.122
68363W        W33623  37.656   8.132  14.907
68364W        W33624  32.596  10.802  13.886
68365W        W33625   6.653  14.496   4.709
68366W        W33626  23.264  43.357   3.586
68367W        W33627  43.100   5.353  11.388
68368W        W33628  35.064  36.574   4.591
68369W        W33629   9.809  35.847  12.851
68370W        W33630  38.955  24.108   0.228
68371W        W33631  11.121  17.556  13.484
68372W        W33632  29.982   1.855   0.192
68373W        W33633  12.187  39.917   0.867
68374W        W33634   9.158  13.012  12.856
68375W        W33635  21.576  34.699   0.433
68376W        W33636   7.475  20.340   0.792
68377W        W33637  29.221  13.617   3.136
68378W        W33638  22.209  44.402  10.513
68379W        W33639  38.042  21.030   0.049
68380W        W33640  30.895  26.702  12.409
68381W        W33641  42.380  38.530  13.792
68382W        W33642  11.162   6.073  14.163
68383W        W33643  20.023  22.543   2.367
68384W        W33644  40.026  25.711   2.181
68385W        W33645  12.409  13.445  13.278
68386W        W33646  42.848  39.138   1.837
68387W        W33647  37.523  31.398   2.197
68388W        W33648  41.969  40.792  13.535
68389W        W33649  18.697  42.788  12.120
68390W        W33650  41.556  10.264  14.800
68391W        W33651   9.597  25.989  12.960
68392W        W33652   6.934  35.951   0.879
68393W        W33653  44.043   9.131   2.319
68394W        W33654   0.540   1.795  10.613
68395W        W33655  25.623   5.536   3.198
68396W        W33656  18.116  25.564   1.161
68397W        W33657  35.767   4.296   2.864
68398W        W33658  11.060  30.357   3.530
68399W        W33659  22.047  33.140   0.299
68400W        W33660  11.209  34.814  14.349
68401W        W33661  34.887  16.156   3.732
68402W        W33662  17.808   1.895  12.368
68403W        W33663  22.241  11.381   3.635
68404W        W33664  16.670  32.451   4.785
68405W        W33665   8.433  44.748   1.829
68406W        W33666  13.351  23.048  10.652
68407W        W33667  12.362  19.136  14.867
68408W        W33668  35.627  19.965   2.301
68409W        W33669  31.226   9.732  14.370
68410W        W33670  10.363  42.434   0.416
68411W        W33671   2.441  42.158   0.440
68412W        W33672   3.434   4.075  13.242
68413W        W33673  44.392   7.092   0.486
68414W        W33674  16.060   1.095   4.302
68415W        W33675  39.046   6.691   3.724
68416W        W33676  27.728   4.833   3.158
68417W        W33677   6.226  43.191   0.014
68418W        W33678   6.884  10.541  14.968
68419W        W33679  32.588  16.313   3.552
68420W        W33680  44.682  31.338   2.398
68421W        W33681   8.619  38.900   3.230
68422W        W33682  35.555  23.077   0.263
68423W        W33683   9.822  29.290   2.781
68424W        W33684  26.670  41.529  10.594
68425W        W33685  18.571  41.182   1.206
68426W        W33686  15.883  36.974  14.788
68427W        W33687  11.807   6.896   4.118
68428W        W33688  44.432   5.275  10.355
68429W        W33689  29.560  10.228   0.765
68430W        W33690  36.930  19.185  11.971
68431W        W33691  38.790  18.597  13.290
68432W        W33692  20.621  20.565  12.765
68433W        W33693  11.334  34.989   2.377
68434W        W33694  16.292  29.478   0.212
68435W        W33695   9.575  24.561   4.506
68436W        W33696  26.481  34.990   4.501
68437W        W33697  24.842  12.812   0.043
68438W        W33698  31.079   4.630  11.978
68439W        W33699  33.079  42.887   3.387
68440W        W33700  33.656  27.112   1.648
68441W        W33701  19.676  15.970  13.067
68442W        W33702  29.553  14.688   0.430
68443W        W33703  14.288  40.094  11.576
68444W        W33704  41.911  23.228   0.312
68445W        W33705  33.044  38.764  10.593
68446W        W33706  43.899  14.742  14.973
68447W        W33707  23.735  40.008   0.256
68448W        W33708  27.145  41.788  13.610
68449W        W33709   6.418  40.563   3.704
68450W        W33710  40.831   5.129   0.971
68451W        W33711  37.975  43.435   3.603
68452W        W33712  12.741  32.666   1.326
68453W        W33713  16.738  19.219  13.349
68454W        W33714  44.635  19.521   3.208
68455W        W33715  25.430  38.396  12.587
68456W        W33716  40.550   6.929   0.488
68457W        W33717   7.717   8.211   2.450
68458W        W33718  28.743  39.843  10.561
68459W        W33719   2.268  14.274  14.198
68460W        W33720   8.713  16.790   1.706
68461W        W33721  10.825   3.660   4.134
68462W        W33722   9.334  23.202  14.276
68463W        W33723  37.305  18.268  13.904
68464W        W33724  38.568  34.664  14.276
68465W        W33725   1.191   3.431  10.494
68466W        W33726  27.548  30.351   1.866
68467W        W33727   1.828  31.879  12.443
68468W        W33728  19.908   8.831  11.289
68469W        W33729  22.991  21.298   1.483
68470W        W33730  21.466   9.194  11.414
68471W        W33731   0.752  36.095  11.061
68472W        W33732  29.661  10.126  11.463
68473W        W33733  26.934  42.369   2.450
68474W        W33734   3.146   6.512   3.704
68475W        W33735  23.231   8.843  10.869
68476W        W33736  32.803  11.101  11.392
68477W        W33737  10.377  17.735   3.311
68478W        W33738   5.130  37.035   2.710
68479W        W33739  41.900  37.894  10.678
68480W        W33740  28.653  32.868   3.572
68481W        W33741  33.564  23.258   3.160
68482W        W33742  25.063  19.417  12.181
68483W        W33743  23.050   9.862   1.182
68484W        W33744  21.557  36.047  13.332
68485W        W33745  41.436   1.939  11.721
68486W        W33746  38.266  31.946  12.070
68487W        W33747  36.056  10.808   0.355
68488W        W33748  44.479  39.857   2.896
68489W        W33749  42.049  13.295   3.735
68490W        W33750   7.320  23.939  13.095
68491W        W33751  14.080  17.918  11.190
68492W        W33752  34.831   8.772  10.744
68493W        W33753  19.362  18.267  11.607
68494W        W33754   9.286  22.482  12.554
68495W        W33755  16.703  30.244  11.021
68496W        W33756   2.152  33.638   2.367
68497W        W33757  30.142   5.566   2.722
68498W        W33758  34.060   3.767  12.272
68499W        W33759  42.847  13.924  12.071
68500W        W33760  35.928   4.442   0.469
68501W        W33761   5.445  33.419  10.718
68502W        W33762   2.506   1.680  11.125
68503W        W33763   0.062  14.747   4.910
68504W        W33764  28.108  37.126   5.060
68505W        W33765  39.236  31.165  10.802
68506W        W33766  12.674  31.512   4.521
68507W        W33767   8.439  16.329   4.157
68508W        W33768  21.370  34.151   1.614
68509W        W33769  21.596  44.745  12.031
68510W        W33770  14.078  20.439  14.720
68511W        W33771  20.061  32.245   4.702
68512W        W33772   7.663  17.564  10.990
68513W        W33773   8.120  10.849   4.254
68514W        W33774   6.236  28.468   1.880
68515W        W33775  11.932  32.193  11.729
68516W        W33776  21.793  26.059   4.369
68517W        W33777  31.800  21.615   2.872
68518W        W33778  13.291  33.419  13.357
68519W        W33779   2.085  26.617   4.912
68520W        W33780  17.746  13.703  13.969
68521W        W33781  33.774   5.146  11.627
68522W        W33782  31.097  39.718   2.456
68523W        W33783  43.506  14.921  14.184
68524W        W33784  34.687  24.195   2.162
68525W        W33785  33.575  36.124  12.235
68526W        W33786  42.552   1.309   3.355
68527W        W33787  42.915   1.414  12.941
68528W        W33788  22.120  39.828  12.440
68529W        W33789  12.147  16.172   1.338
68530W        W33790   4.465  40.528   0.879
68531W        W33791  24.793   6.129  13.865
68532W        W33792  26.988  16.439   2.639
68533W        W33793  40.860  33.593  11.092
68534W        W33794  28.813  22.980   2.193
68535W        W33795  28.963  30.561   4.072
68536W        W33796  32.410   0.272   0.512
68537W        W33797  20.642   6.698  12.920
68538W        W33798  15.093  12.630  13.550
68539W        W33799  18.740   8.919   4.923
68540W        W33800  26.461  16.125   0.396
68541W        W33801  40.303  17.103   1.981
68542W        W33802  12.862   9.916  12.354
68543W        W33803   8.471  18.679   0.477
68544W        W33804  26.710   9.421   1.375
68545W        W33805  17.667  27.681   2.923
68546W        W33806  40.005  29.111   4.264
68547W        W33807  33.373  26.690   1.843
68548W        W33808   4.330  24.156   3.374
68549W        W33809  40.822  37.501  12.092
68550W        W33810   0.970   6.987  10.337
68551W        W33811  38.160  18.713  13.939
68552W        W33812  33.734   4.998   1.340
68553W        W33813   6.306  44.890   4.879
68554W        W33814  16.779   7.622   4.900
68555W        W33815  28.626  26.712   3.198
68556W        W33816  10.101  34.833   4.173
68557W        W33817  18.128  29.259   2.801
68558W        W33818   4.378  36.063   0.830
68559W        W33819  20.500  34.480   4.102
68560W        W33820  10.390  23.721  14.950
68561W        W33821  33.461  13.729  14.488
68562W        W33822   5.385  27.697   1.434
68563W        W33823  33.194  29.665   3.726
68564W        W33824  23.034  35.145   2.180
68565W        W33825  44.463  24.310  11.207
68566W        W33826  10.330  41.913   1.203
68567W        W33827  13.087  35.981   3.183
68568W        W33828  31.376  23.713   3.134
68569W        W33829  10.452   2.783  12.617
68570W        W33830  41.970  14.135   1.742
68571W        W33831  34.093  33.926   1.360
68572W        W33832   7.146  26.651   9.830
68573W        W33833  28.261  27.979   3.647
68574W        W33834  38.030  19.612   4.982
68575W        W33835   0.444   3.513   1.511
68576W        W33836  20.517  11.159  12.443
68577W        W33837  27.679  13.750   3.625
68578W        W33838   2.244  29.647  12.362
68579W        W33839   2.215  28.880  13.984
68580W        W33840  31.221   4.028   3.985
68581W        W33841  22.940  27.573   1.345
68582W        W33842   7.417  17.715   0.533
68583W        W33843  37.411  11.633   1.303
68584W        W33844  32.592  43.486  11.585
68585W        W33845  18.647  37.753   2.837
68586W        W33846  32.225  41.479   4.105
68587W        W33847   7.682  20.723   4.839
68588W        W33848  41.227  35.944   4.544
68589W        W33849  34.219  42.697  13.057
68590W        W33850  40.965  30.444  13.459
68591W        W33851   6.027   9.345   4.392
68592W        W33852  23.564  22.603   4.751
68593W        W33853  32.933  10.329   1.787
68594W        W33854  18.343  28.811  12.892
68595W        W33855   6.297  36.526  14.376
68596W        W33856  28.378  32.902  14.373
68597W        W33857  23.427  10.204   0.915
68598W        W33858  11.960  31.542  14.091
68599W        W33859   5.681  42.307   1.939
68600W        W33860  39.317  16.022  12.101
68601W        W33861  19.079  40.820  14.988
68602W        W33862   2.746  38.627  14.360
68603W        W33863   0.989   4.547  13.396
68604W        W33864   3.749  33.137  15.000
68605W        W33865  25.222  18.999   2.601
68606W        W33866  30.629  18.760  10.979
68607W        W33867   6.857  32.055   2.748
68608W        W33868  35.383   0.954   2.342
68609W        W33869  20.122  19.017  11.441
68610W        W33870  19.277  12.349  11.968
68611W        W33871  13.740  23.181  12.005
68612W        W33872   0.858  26.809  12.781
68613W        W33873   5.565  16.746   1.356
68614W        W33874  24.211  20.092   0.048
68615W        W33875   1.219  44.954   4.097
68616W        W33876   4.353  37.403   2.449
68617W        W33877  15.279  33.567  14.447
68618W        W33878  13.077  23.470  14.212
68619W        W33879  29.590  44.981   0.303
68620W        W33880  23.783  19.101  14.183
68621W        W33881   2.620   2.225   3.579
68622W        W33882   5.385  33.541  10.213
68623W        W33883  33.644  25.960  14.482
68624W        W33884  24.582  12.883  14.511
68625W        W33885  36.171  11.206  12.116
68626W        W33886   4.744  11.623  10.753
68627W        W33887  38.795  18.146  11.497
68628W        W33888  32.841  37.308  12.897
68629W        W33889  31.888  27.747  13.079
68630W        W33890  39.445  38.033   3.992
68631W        W33891  18.062  18.051   4.628
68632W        W33892  30.968   9.916  12.447
68633W        W33893  18.764   1.467   3.226
68634W        W33894  21.298  32.594  11.536
68635W        W33895  26.470  19.134  12.627
68636W        W33896  18.996  36.739   4.041
68637W        W33897   4.638   5.340   4.340
68638W        W33898   9.020  29.458   4.923
68639W        W33899   8.367  43.052   2.809
68640W        W33900  24.520  20.810   0.708
68641W        W33901  26.299   3.167   1.368
68642W        W33902  31.635   6.266   3.083
68643W        W33903  23.988  20.576   0.037
68644W        W33904   2.814  13.627   3.206
68645W        W33905  11.194  15.621   4.020
68646W        W33906  31.644  36.646   4.168
68647W        W33907  36.483  26.396  13.419
68648W        W33908  29.663  22.034  12.888
68649W        W33909  29.981   3.934  13.141
68650W        W33910  44.368  15.592  12.555
68651W        W33911  35.328  28.884   4.519
68652W        W33912  40.526  28.636  14.590
68653W        W33913  19.211  11.357  13.573
68654W        W33914   7.240  27.159  12.542
68655W        W33915  15.628  26.126   2.230
68656W        W33916  14.016  39.896  13.960
68657W        W33917  28.602  41.799   1.338
68658W        W33918   2.688  26.293  14.930
68659W        W33919  44.838  17.660   3.439
68660W        W33920   8.789  42.765  13.016
68661W        W33921   1.312  22.591  11.016
68662W        W33922  27.103   5.506   2.507
68663W        W33923  32.056   4.418   2.314
68664W        W33924   7.700  19.382  12.832
68665W        W33925   0.559  27.223   3.466
68666W        W33926  26.057   6.217   2.230
68667W        W33927  16.454  26.054  11.278
68668W        W33928  36.917   4.537  14.791
68669W        W33929  11.139  13.973   1.876
68670W        W33930  19.503  39.142   0.284
68671W        W33931  11.815  27.197  13.423
68672W        W33932  16.185  24.538   0.046
68673W        W33933  12.289  44.251  14.854
68674W        W33934  26.539   5.354  10.947
68675W        W33935  38.563  27.702   4.190
68676W        W33936  18.926   9.445   0.918
68677W        W33937   1.783   2.663  14.467
68678W        W33938  11.617  29.036  14.243
68679W        W33939   0.080  18.080  11.100
68680W        W33940  25.509  26.157  11.623
68681W        W33941  29.648   9.224   2.327
68682W        W33942  19.136  29.434   0.361
68683W        W33943   0.813   9.240  12.562
68684W        W33944  16.281   7.903  14.910
68685W        W33945  32.575  31.623   1.915
68686W        W33946  30.936   2.830  12.444
68687W        W33947  24.697  43.451  13.517
68688W        W33948  12.602  37.429  12.411
68689W        W33949  44.308  37.162  14.864
68690W        W33950   3.207  11.554  11.726
68691W        W33951  18.577  22.308   4.612
68692W        W33952  41.256  24.451  14.896
68693W        W33953  13.993  17.242   2.760
68694W        W33954  33.089  13.116   3.835
68695W        W33955   2.627  14.914  12.948
68696W        W33956   0.340  18.267   1.250
68697W        W33957  27.152  19.476   3.090
68698W        W33958  30.154   8.111   0.808
68699W        W33959  39.900  24.598  11.961
68700W        W33960   7.518   7.395  11.423
68701W        W33961  16.659  34.568  11.056
68702W        W33962  20.450   4.085   1.839
68703W        W33963  17.722  22.243   4.848
68704W        W33964  20.085  31.477   0.707
68705W        W33965  35.344  23.599   4.611
68706W        W33966  30.316   0.870   3.241
68707W        W33967  14.949  21.802   5.624
68708W        W33968  28.089  37.498   1.889
68709W        W33969  21.548  24.993   4.149
68710W        W33970  43.474  38.651  13.034
68711W        W33971  42.956   9.261  14.538
68712W        W33972  10.131  12.114  13.802
68713W        W33973  43.553  13.628  13.832
68714W        W33974  28.561  44.637   4.030
68715W        W33975  15.698  33.912   3.307
68716W        W33976  13.466  32.004  12.377
68717W        W33977  15.177  14.599  11.189
68718W        W33978  32.022   6.356   2.693
68719W        W33979  11.619  22.736  13.818
68720W        W33980  35.370  39.335  11.697
68721W        W33981  15.235  36.121   0.496
68722W        W33982  27.106  31.512   1.413
68723W        W33983  35.502  19.258  12.118
68724W        W33984  39.702  31.582   3.148
68725W        W33985   1.703  20.535  14.369
68726W        W33986  35.829  23.103   0.927
68727W        W33987  27.040  39.921  11.904
68728W        W33988  24.314  30.395  13.015
68729W        W33989   6.251  20.554  12.678
68730W        W33990  34.576  33.434   3.261
68731W        W33991  40.061   2.255  10.336
68732W        W33992  14.233  18.812   2.698
68733W        W33993   5.987  20.202  12.353
68734W        W33994  33.430   2.577   0.320
68735W        W33995  44.522  28.092  14.098
68736W        W33996   8.161  14.856   4.082
68737W        W33997  32.099   6.186  12.977
68738W        W33998   4.274  31.221   3.805
68739W        W33999  37.801  29.355   1.351
68740W        W34000  30.589  28.703   4.188
68741W        W34001  21.260  33.977   2.618
68742W        W34002   0.285  17.533   0.059
68743W        W34003  26.705  13.622   1.044
68744W        W34004  41.930  30.308   1.222
68745W        W34005  35.051  20.999  13.316
68746W        W34006  24.187  26.585   1.491
68747W        W34007  21.558   1.679  10.435
68748W        W34008  27.561  19.173   0.994
68749W        W34009   4.665  38.429   1.275
68750W        W34010  22.114  30.607   4.366
68751W        W34011  30.634   2.922  14.382
68752W        W34012  12.720  19.035  13.998
68753W        W34013  19.088  16.915  13.338
68754W        W34014  19.136  42.007  14.471
68755W        W34015   6.748   7.768  11.648
68756W        W34016   3.883  15.715  11.235
68757W        W34017   9.670  18.952   1.462
68758W        W34018  44.380  15.919  13.919
68759W        W34019   7.916  28.048  13.924
68760W        W34020  33.672  16.640   4.057
68761W        W34021  25.095  40.312  10.870
68762W        W34022  32.295  31.065  12.473
68763W        W34023  13.294   5.685  13.104
68764W        W34024  24.904  36.030  12.590
68765W        W34025  16.611  32.848  10.698
68766W        W34026   0.766  15.383   3.546
68767W        W34027  13.326  32.714  13.977
68768W        W34028   7.719  24.423  12.988
68769W        W34029  17.080  23.260   3.351
68770W        W34030  26.493  19.176  13.471
68771W        W34031  21.659  14.260   5.086
68772W        W34032   9.272  29.927  12.973
68773W        W34033  14.235  33.736   4.758
68774W        W34034  20.973  20.937   2.727
68775W        W34035  22.180  41.520  14.217
68776W        W34036   9.270  18.319  14.451
68777W        W34037   7.268  12.297   4.609
68778W        W34038   4.945  16.995   1.242
68779W        W34039  15.111  30.771  11.183
68780W        W34040   5.803  31.410   4.550
68781W        W34041  16.886  31.122  14.755
68782W        W34042  15.555  17.055  12.432
68783W        W34043   4.488  12.257   2.867
68784W        W34044  17.661  13.043  12.516
68785W        W34045  23.596  32.445   0.914
68786W        W34046   4.234  38.487   4.227
68787W        W34047  27.393  34.041   0.389
68788W        W34048  38.488  25.303   1.286
68789W        W34049  32.129  13.249  14.847
68790W        W34050  31.815   5.881   3.378
68791W        W34051  22.453  28.546   4.565
68792W        W34052  19.252  23.074   0.404
68793W        W34053  21.123  12.162   1.266
68794W        W34054  32.787  27.800  12.865
68795W        W34055  25.819   3.751  11.956
68796W        W34056  29.504  28.444   4.873
68797W        W34057  36.579   9.380  12.812
68798W        W34058  40.539   3.960  13.917
68799W        W34059  35.916  24.180  14.916
68800W        W34060  10.797  37.028  14.159
68801W        W34061   1.995  18.070   1.654
68802W        W34062  10.389  42.413  13.862
68803W        W34063  10.041   3.788   0.504
68804W        W34064  39.273  37.087   2.332
68805W        W34065  38.357   0.733   1.746
68806W        W34066  22.039  26.281   3.446
68807W        W34067  23.196  10.963  11.924
68808W        W34068  38.312  12.092   1.720
68809W        W34069  40.976  15.828  10.726
68810W        W34070  15.550  41.059   1.699
68811W        W34071  29.432   2.364  13.034
68812W        W34072  19.334  29.965   1.318
68813W        W34073  41.504  39.197  14.140
68814W        W34074  26.272  32.650  12.880
68815W        W34075  22.616  21.706   5.189
68816W        W34076   3.937  42.530   1.921
68817W        W34077  23.755  13.017   3.546
68818W        W34078  40.026   3.688  14.779
68819W        W34079  15.739   4.873   1.974
68820W        W34080  12.781  20.912   5.273
68821W        W34081  20.101   9.346  11.266
68822W        W34082   0.387  19.309   3.856
68823W        W34083  15.117  35.437   1.854
68824W        W34084   2.919   5.621   4.277
68825W        W34085  40.124  39.418   2.842
68826W        W34086  32.899   7.159  10.704
68827W        W34087  29.541  16.234   4.799
68828W        W34088  28.165  10.688   0.581
68829W        W34089   2.497  36.955  13.806
68830W        W34090   0.360   1.971  12.032
68831W        W34091  44.782  31.601   3.177
68832W        W34092  12.435  14.281   0.253
68833W        W34093  24.985  33.557   2.145
68834W        W34094  19.138  34.115   3.164
68835W        W34095  29.478  41.067  11.463
68836W        W34096   9.900  25.936  11.119
68837W        W34097   3.845  21.383   5.438
68838W        W34098  24.410   8.104   3.547
68839W        W34099  17.346  41.753  14.979
68840W        W34100  12.896  22.722  13.578
68841W        W34101  32.479  41.450   2.884
68842W        W34102  10.344  12.853  13.463
68843W        W34103  34.886  12.643  13.365
68844W        W34104  40.660  35.786   3.202
68845W        W34105   2.879  31.532  12.071
68846W        W34106  24.726  20.519   1.230
68847W        W34107  18.515  15.980   1.390
68848W        W34108  43.878  30.251  10.244
68849W        W34109  25.249  14.129  13.823
68850W        W34110   6.528  10.920   3.365
68851W        W34111  25.452  24.280  12.391
68852W        W34112   6.737  31.327   0.485
68853W        W34113  22.703  29.022   4.583
68854W        W34114  44.392  41.753  14.814
68855W        W34115  19.032   2.934  12.002
68856W        W34116  12.147  28.246   0.292
68857W        W34117   1.960  42.862  10.478
68858W        W34118  37.854   9.661  10.733
68859W        W34119   9.458  26.630   1.873
68860W        W34120  40.916  13.802   4.231
68861W        W34121  33.235   0.425   0.329
68862W        W34122   6.278  30.091  11.924
68863W        W34123  28.015  41.593  13.546
68864W        W34124  44.231  35.386  12.152
68865W        W34125  28.956  21.195  14.411
68866W        W34126  28.161  30.448   4.196
68867W        W34127  24.033  20.300  14.571
68868W        W34128  33.660   4.957   2.831
68869W        W34129   0.802  31.510   3.262
68870W        W34130  19.249  41.304   1.671
68871W        W34131  40.963  33.457  14.384
68872W        W34132  31.325  36.319  12.509
68873W        W34133  22.026   0.178  11.177
68874W        W34134  43.702  39.865   1.734
68875W        W34135  34.678  42.647  13.319
68876W        W34136  28.075  19.155  13.406
68877W        W34137  34.841  18.121   3.734
68878W        W34138  22.127  33.210   4.129
68879W        W34139  33.482   0.711   0.830
68880W        W34140  42.981   6.582  14.352
68881W        W34141  39.835  18.073   4.469
68882W        W34142  20.599  15.976   0.157
68883W        W34143  14.022  37.419  14.914
68884W        W34144  38.852  28.552   1.039
68885W        W34145  23.489  25.343   3.156
68886W        W34146   1.843   7.778   1.999
68887W        W34147  11.066  10.172  11.155
68888W        W34148  34.486  16.984  13.081
68889W        W34149  17.079  43.889   2.025
68890W        W34150  19.726  25.517  11.683
68891W        W34151  40.799   7.099  11.583
68892W        W34152  32.311   1.538  13.852
68893W        W34153  10.348  11.236  14.334
68894W        W34154  18.293  39.963  14.378
68895W        W34155  12.910  27.271   2.979
68896W        W34156  28.669  25.421  10.062
68897W        W34157  13.838  12.956  13.570
68898W        W34158   1.974  41.301   4.265
68899W        W34159  32.391   2.915   0.416
68900W        W34160  25.923  19.833   0.167
68901W        W34161   5.320  41.552   4.141
68902W        W34162   4.395  39.317   0.498
68903W        W34163  20.470  14.216  12.533
68904W        W34164  34.712  41.937  11.907
68905W        W34165  20.388  23.428   3.252
68906W        W34166   4.473   5.880  14.356
68907W        W34167  38.987  12.507  12.923
68908W        W34168  10.118  32.528  10.564
68909W        W34169   8.895  12.286   3.686
68910W        W34170  24.806  34.507   2.817
68911W        W34171   4.757  30.196   3.026
68912W        W34172  44.688   4.631   0.040
68913W        W34173  23.524   6.097   1.355
68914W        W34174  16.160  25.355  11.624
68915W        W34175  33.436  21.215  11.611
68916W        W34176  14.162  11.414  14.341
68917W        W34177  12.862   0.299  10.747
68918W        W34178  35.760  19.702   2.774
68919W        W34179  28.130   5.115   2.402
68920W        W34180  10.668   3.819  14.892
68921W        W34181  20.252   1.698  13.393
68922W        W34182   4.817  34.051  12.119
68923W        W34183   6.729   4.631  10.713
68924W        W34184  13.272  19.148   3.128
68925W        W34185  38.185   1.820   0.688
68926W        W34186   6.274  15.923   4.740
68927W        W34187  12.606  17.238   3.293
68928W        W34188  27.927   6.494  11.475
68929W        W34189  39.106   6.661  12.225
68930W        W34190  39.365   2.449   4.945
68931W        W34191  13.368   3.655  14.250
68932W        W34192  25.967  12.115   3.892
68933W        W34193  23.539  41.429   2.313
68934W        W34194  13.398   8.756   2.643
68935W        W34195  42.329  28.960  10.746
68936W        W34196   9.356  29.588   0.621
68937W        W34197  11.720  20.204   4.450
68938W        W34198  15.913  14.374   1.629
68939W        W34199   8.431  24.677  10.284
68940W        W34200  27.701  25.093  14.506
68941W        W34201   5.771  34.372   1.730
68942W        W34202  23.196  42.803  13.400
68943W        W34203   2.905   9.858  13.621
68944W        W34204  24.537  20.779   2.826
68945W        W34205  18.453  38.194   1.943
68946W        W34206  25.802  23.897   1.755
68947W        W34207  33.063   0.534  13.922
68948W        W34208  43.903  25.836   0.562
68949W        W34209  25.605  32.309   2.673
68950W        W34210  42.878  17.357  12.369
68951W        W34211  40.954  13.138  14.464
68952W        W34212  11.598  18.494  12.442
68953W        W34213  34.007   9.672   0.782
68954W        W34214  29.970   0.234  12.375
68955W        W34215  32.087  20.988  13.796
68956W        W34216  12.654  29.206  13.534
68957W        W34217  24.569  23.130   0.107
68958W        W34218  23.550   6.372  14.557
68959W        W34219   9.941  38.807  12.507
68960W        W34220  17.217  18.248   5.541
68961W        W34221  39.807  15.873   1.224
68962W        W34222  43.980  43.794  12.907
68963W        W34223  18.900  28.161   4.236
68964W        W34224   2.635  41.977  11.077
68965W        W34225  16.657   0.689  12.024
68966W        W34226  33.548  30.008  11.106
68967W        W34227  30.233   3.896  12.228
68968W        W34228  28.754  22.971   1.291
68969W        W34229  26.892  19.661  14.920
68970W        W34230  40.746  14.560  11.244
68971W        W34231  19.618  25.590   1.889
68972W        W34232   2.120  28.519  12.167
68973W        W34233  39.022  33.816   2.986
68974W        W34234   9.756  39.859  11.609
68975W        W34235  33.434  15.281   0.484
68976W        W34236   7.315  22.770  11.581
68977W        W34237   6.679  31.101  14.669
68978W        W34238  24.927  15.650  10.953
68979W        W34239  43.755  44.935   2.803
68980W        W34240  36.948  36.995  11.762
68981W        W34241  19.706  14.791  11.191
68982W        W34242   4.226  22.953  14.497
68983W        W34243  22.479  36.960  13.058
68984W        W34244   3.790  14.151  13.362
68985W        W34245   7.754  11.128   2.721
68986W        W34246   7.085  36.096  13.532
68987W        W34247  25.650  21.897   2.878
68988W        W34248  31.899  34.183   2.184
68989W        W34249  18.805  39.792   0.995
68990W        W34250  10.617  42.622  13.427
68991W        W34251  27.029   4.092  11.129
68992W        W34252  15.732  14.678  12.068
68993W        W34253  41.982  27.954   4.712
68994W        W34254  26.451  25.982  14.266
68995W        W34255  27.527  10.387  11.037
68996W        W34256  12.085  17.018   3.305
68997W        W34257  36.306  18.635  12.259
68998W        W34258   6.167  17.143   1.837
68999W        W34259  16.325  30.096   2.745
69000W        W34260   3.497   0.934  11.524
69001W        W34261  12.251  38.938  12.963
69002W        W34262  14.716   2.721  12.790
69003W        W34263  25.727   1.938   0.246
69004W        W34264  11.263  16.136  14.586
69005W        W34265  24.062  19.489   0.740
69006W        W34266  41.536  29.416  14.198
69007W        W34267  11.265  13.140   4.129
69008W        W34268  15.871  11.412   2.538
69009W        W34269  40.292   4.864  11.633
69010W        W34270  16.840   6.730   0.304
69011W        W34271   7.987  15.964  14.830
69012W        W34272  41.045  42.999  13.933
69013W        W34273  28.206  36.899   1.186
69014W        W34274  21.063  24.264   1.789
69015W        W34275  37.632  38.252  13.450
69016W        W34276  20.255  39.573   1.232
69017W        W34277  24.927   6.596  11.187
69018W        W34278  29.034   3.657   0.351
69019W        W34279  39.897  40.570  10.819
69020W        W34280  12.399  21.003   0.913
69021W        W34281  19.144   4.165  14.865
69022W        W34282  25.019  33.902   1.201
69023W        W34283  30.004  39.434  13.335
69024W        W34284   4.405  19.163  14.649
69025W        W34285  26.675   9.866   3.722
69026W        W34286  17.055   8.245  12.336
69027W        W34287  39.570  19.062   3.078
69028W        W34288  31.381  24.055  14.718
69029W        W34289  25.644  16.707  13.588
69030W        W34290  27.959  20.727   2.364
69031W        W34291  16.696  13.142   1.350
69032W        W34292  31.135  32.977   3.165
69033W        W34293  19.751  28.276  12.907
69034W        W34294  10.951  24.021   4.456
69035W        W34295   5.225  40.882  10.954
69036W        W34296   3.411  31.043  11.357
69037W        W34297  19.197   0.264   1.827
69038W        W34298  30.190  21.259  12.821
69039W        W34299   2.676  27.776  11.445
69040W        W34300   7.615   4.850   0.684
69041W        W34301  43.014  22.683  13.658
69042W        W34302  16.834  12.160  12.964
69043W        W34303  26.173  41.995   4.887
69044W        W34304   2.977  34.891  13.521
69045W        W34305  20.097  21.145   1.573
69046W        W34306  23.906   8.537   1.154
69047W        W34307  20.129  23.590   2.844
69048W        W34308   7.782  10.062  10.279
69049W        W34309  11.308   6.023  11.928
69050W        W34310  19.188  11.923   3.431
69051W        W34311   5.901  20.772   3.616
69052W        W34312  34.615  38.878   2.320
69053W        W34313  20.300  32.402  13.288
69054W        W34314  24.000   0.382  11.090
69055W        W34315   0.883  26.993   3.092
69056W        W34316  34.879  22.494   0.517
69057W        W34317  16.788  43.961   2.839
69058W        W34318  29.147  16.254   0.594
69059W        W34319  24.955  44.110  13.956
69060W        W34320  32.455  44.976   4.679
69061W        W34321   5.490  11.098  13.075
69062W        W34322   5.785  12.193  11.896
69063W        W34323   5.259  40.412   3.705
69064W        W34324  13.733  37.919   1.182
69065W        W34325  23.772  39.963   2.744
69066W        W34326  33.099  25.002  12.430
69067W        W34327  35.069  35.655   1.244
69068W        W34328  12.883  10.075  11.462
69069W        W34329  14.630  25.104   3.546
69070W        W34330   5.144  21.877   2.277
69071W        W34331  13.617  30.473   3.388
69072W        W34332   5.726  16.831  14.580
69073W        W34333  28.022  39.028   1.892
69074W        W34334  24.257  31.016  11.126
69075W        W34335  19.791  30.925   3.382
69076W        W34336  17.819  41.910   0.481
69077W        W34337  40.363   0.574  12.565
69078W        W34338  19.093  22.060  12.924
69079W        W34339   2.558  44.903  10.563
69080W        W34340   6.416  24.471  13.025
69081W        W34341  28.282  33.875  11.780
69082W        W34342  25.066   2.711  12.020
69083W        W34343   4.516  23.400  10.386
69084W        W34344  13.857  38.371  11.168
69085W        W34345  15.843   1.659   1.415
69086W        W34346   1.733  38.210  10.735
69087W        W34347  25.705  28.173  14.709
69088W        W34348   0.701   8.001  13.109
69089W        W34349   5.181  36.914  14.677
69090W        W34350  23.467  19.620  12.518
69091W        W34351  19.826  30.048   0.298
69092W        W34352  12.747   4.035  13.075
69093W        W34353  44.818  36.508  14.747
69094W        W34354  30.079  31.588  13.147
69095W        W34355   7.504  27.779   4.532
69096W        W34356  18.789  20.536  12.446
69097W        W34357  34.044  18.657  10.654
69098W        W34358  17.775  10.855   3.195
69099W        W34359   7.658  27.562  10.705
69100W        W34360  33.092  16.508  13.598
69101W        W34361  20.310  44.212   2.676
69102W        W34362  40.103   1.268   1.464
69103W        W34363  21.091  37.263  14.382
69104W        W34364  14.772   7.345  12.168
69105W        W34365  38.669  22.056   3.584
69106W        W34366   5.974  12.842   2.431
69107W        W34367  18.233   7.909  12.578
69108W        W34368  18.001  36.845   0.440
69109W        W34369  41.268  30.503   2.369
69110W        W34370  18.806  39.947   1.848
69111W        W34371  10.896  12.168  14.372
69112W        W34372  23.036  41.251  13.639
69113W        W34373  15.249  12.057   2.318
69114W        W34374   1.972  27.130   4.528
69115W        W34375  14.353   1.853   2.212
69116W        W34376  23.758  23.492  15.000
69117W        W34377  19.391   1.228  12.667
69118W        W34378   8.562  25.509  14.450
69119W        W34379   8.985  24.844  13.561
69120W        W34380  14.947   8.406   4.417
69121W        W34381   2.773  44.805   0.277
69122W        W34382  36.484  20.224  12.497
69123W        W34383  36.267   2.990  13.929
69124W        W34384  32.638  31.614  13.571
69125W        W34385  13.726   6.385   1.848
69126W        W34386  13.360  29.117  10.580
69127W        W34387  26.352  24.244  12.996
69128W        W34388  35.507   0.863   0.841
69129W        W34389  25.177  21.213  14.004
69130W        W34390  27.698  36.320  14.807
69131W        W34391   9.451  42.425   1.210
69132W        W34392  19.080  15.532  12.529
69133W        W34393  36.138  24.561   5.161
69134W        W34394  39.334  30.846   4.806
69135W        W34395   0.295  16.628   0.534
69136W        W34396  43.255  29.133   3.756
69137W        W34397  41.050  42.746  11.604
69138W        W34398  44.244  30.110  12.903
69139W        W34399  25.918  14.209  12.450
69140W        W34400  38.156  22.139   2.112
69141W        W34401  17.786  39.904   3.783
69142W        W34402  23.129  23.165  14.325
69143W        W34403  11.842  28.186  11.054
69144W        W34404  29.674   4.322  14.321
69145W        W34405  25.533  10.743   0.378
69146W        W34406  43.541  34.220   1.282
69147W        W34407  35.333   0.546   5.296
69148W        W34408  36.621  29.577   4.771
69149W        W34409  40.898  18.067   2.792
69150W        W34410  17.143  35.070   3.704
69151W        W34411  12.207  24.937   4.271
69152W        W34412  22.043  40.802  14.993
69153W        W34413  15.628  27.490   5.217
69154W        W34414  23.690  40.074  14.728
69155W        W34415   7.679  41.786  14.837
69156W        W34416  29.733  14.401  10.953
69157W        W34417   6.276   1.204  11.549
69158W        W34418   8.804  36.606   0.855
69159W        W34419   5.490  19.625   4.511
69160W        W34420  18.562  31.143  10.900
69161W        W34421  40.986   2.895  11.145
69162W        W34422   3.333  41.004  14.290
69163W        W34423  43.981  15.244  13.280
69164W        W34424  23.737  20.010   2.960
69165W        W34425  32.475  18.510   2.205
69166W        W34426  22.747  43.788  14.492
69167W        W34427  40.041  39.531  12.499
69168W        W34428  41.954   7.842  11.877
69169W        W34429  40.890  44.241   2.304
69170W        W34430  29.417   1.870   3.813
69171W        W34431  13.466  16.380   1.822
69172W        W34432  11.893  23.938  12.105
69173W        W34433   0.448  12.938   3.346
69174W        W34434  28.640  34.295   3.757
69175W        W34435  22.978  29.190   4.087
69176W        W34436  44.040   4.169   1.395
69177W        W34437   2.397  26.148  13.483
69178W        W34438  22.005  14.186  13.737
69179W        W34439   3.277  35.970   1.521
69180W        W34440  14.639   3.774   4.261
69181W        W34441  43.688   3.773   0.383
69182W        W34442   8.324  37.330   0.233
69183W        W34443  26.070  20.796   9.975
69184W        W34444  15.209  22.122   9.663
69185W        W34445  10.975  31.384   0.898
69186W        W34446  40.462   8.679   0.275
69187W        W34447  19.139   7.717  13.307
69188W        W34448  43.727  17.114  12.375
69189W        W34449  18.454   8.467  14.789
69190W        W34450  42.543  13.789  13.786
69191W        W34451  43.713  35.560   4.603
69192W        W34452   4.879  37.677   5.224
69193W        W34453  36.913  39.322  12.464
69194W        W34454  27.104  33.161   1.889
69195W        W34455  21.940  20.719  13.825
69196W        W34456  42.992  21.495  10.701
69197W        W34457   6.609  34.819  14.902
69198W        W34458  29.160   5.398  12.970
69199W        W34459  17.086  28.888  14.789
69200W        W34460   5.907  28.447  13.210
69201W        W34461  37.141  38.393  13.751
69202W        W34462  32.669  29.443   2.340
69203W        W34463  27.618  20.673   2.803
69204W        W34464  34.133  17.019   1.203
69205W        W34465  29.190  21.674  11.064
69206W        W34466  10.095  33.326  13.466
69207W        W34467  32.921  11.807  11.623
69208W        W34468  14.749  37.401  12.457
69209W        W34469  14.772  43.727   1.237
69210W        W34470  34.045  14.444   4.437
69211W        W34471  43.026   8.233   4.126
69212W        W34472   4.705   2.413  14.367
69213W        W34473   1.466  39.547  10.685
69214W        W34474  32.449   3.554   5.025
69215W        W34475  11.799  32.237   3.218
69216W        W34476  34.871   3.084  13.287
69217W        W34477  32.859  12.064   2.665
69218W        W34478  33.903  39.909   2.713
69219W        W34479   6.307   1.386   0.808
69220W        W34480   3.365  24.023   1.199
69221W        W34481   8.395   7.753  13.533
69222W        W34482  40.006  16.980   2.710
69223W        W34483  44.821   4.933  13.314
69224W        W34484  19.727  44.567  14.856
69225W        W34485  11.930   5.660   3.999
69226W        W34486  30.775   8.720  10.891
69227W        W34487   9.838  19.640   2.795
69228W        W34488  21.247   9.227   3.207
69229W        W34489  27.600  41.555   0.675
69230W        W34490  23.906  22.730  10.018
69231W        W34491  13.758  31.517  13.048
69232W        W34492  37.408   8.567   3.724
69233W        W34493  34.382  35.552  12.006
69234W        W34494  19.747  37.953   0.638
69235W        W34495  19.283  39.352   2.895
69236W        W34496  24.535  42.016   1.880
69237W        W34497  29.488   8.033   2.749
69238W        W34498  24.016   8.858  13.256
69239W        W34499   3.282  27.231   4.795
69240W        W34500  29.485  12.944   0.374
69241W        W34501  43.730  23.016   0.484
69242W        W34502   2.234   2.051  11.316
69243W        W34503  22.988  17.948   4.197
69244W        W34504  16.278   8.485   3.252
69245W        W34505  39.425  10.890  13.105
69246W        W34506  22.417   5.798  14.833
69247W        W34507   7.969  39.884  14.727
69248W        W34508  20.695  10.351   0.368
69249W        W34509  43.222  38.006  14.424
69250W        W34510  27.541  10.964   4.128
69251W        W34511  23.293  41.467   3.285
69252W        W34512  21.048   4.741   1.583
69253W        W34513  43.237  37.553  14.123
69254W        W34514  28.241  25.696   1.224
69255W        W34515  44.865  41.712   1.072
69256W        W34516   0.130  21.157   4.914
69257W        W34517   6.562  15.871   2.677
69258W        W34518  42.402   8.242  13.892
69259W        W34519  17.136  16.214   2.817
69260W        W34520   9.421  11.542  11.679
69261W        W34521   1.077  12.779   5.161
69262W        W34522  25.109   3.985   2.734
69263W        W34523  13.762  30.043  10.593
69264W        W34524  24.645   6.404   3.272
69265W        W34525  43.236  29.040  13.576
69266W        W34526  13.151  25.858  12.004
69267W        W34527   9.840  12.836   3.173
69268W        W34528  26.712  27.583   4.851
69269W        W34529  29.446  33.309  12.320
69270W        W34530  31.041  12.697  14.477
69271W        W34531  12.636   0.043  14.402
69272W        W34532  35.393  31.062   3.744
69273W        W34533   2.182  36.607  14.073
69274W        W34534  42.072  39.732  13.509
69275W        W34535  27.280  40.899  10.699
69276W        W34536   6.322   3.135  12.892
69277W        W34537  40.864   4.130   0.220
69278W        W34538  25.992  42.023   1.971
69279W        W34539  38.920   7.876  10.742
69280W        W34540  22.855   9.545   3.652
69281W        W34541  19.811  15.864   1.404
69282W        W34542  30.652   2.285   0.195
69283W        W34543  28.897  11.770   0.134
69284W        W34544  22.371  15.187  12.048
69285W        W34545  16.133  39.486   4.543
69286W        W34546  27.104  24.552   4.609
69287W        W34547   5.361  32.301  11.602
69288W        W34548  29.906   0.437   0.275
69289W        W34549   4.543  23.004  10.719
69290W        W34550  19.436  36.668   3.765
69291W        W34551   9.104   6.303  14.924
69292W        W34552  34.840  38.974  12.451
69293W        W34553   0.789  28.663  14.992
69294W        W34554   2.878  35.471   4.124
69295W        W34555  19.093   1.901  14.859
69296W        W34556  39.927  44.460   4.075
69297W        W34557  39.320  14.791   0.801
69298W        W34558  16.132  33.069   1.471
69299W        W34559  40.547  13.051   0.269
69300W        W34560  31.493  33.429   3.722
69301W        W34561  35.205  43.748  12.198
69302W        W34562  20.274  31.523  13.004
69303W        W34563  13.227  31.057  12.399
69304W        W34564  31.942  43.614   3.461
69305W        W34565   0.405  28.553   2.266
69306W        W34566   5.666   0.940  13.050
69307W        W34567   2.870  16.859  13.101
69308W        W34568  34.445  23.919   0.695
69309W        W34569  29.156  23.975  10.789
69310W        W34570  35.457  19.770   4.065
69311W        W34571   9.732  35.762  14.866
69312W        W34572   2.066  27.530  13.819
69313W        W34573  18.766  36.374   0.816
69314W        W34574   5.299  34.060   4.089
69315W        W34575   3.809  39.089  14.655
69316W        W34576  13.742  21.990   3.125
69317W        W34577  16.080  27.617   0.430
69318W        W34578  25.918   7.688   4.631
69319W        W34579  35.876  20.046  12.922
69320W        W34580  39.786  33.717  12.171
69321W        W34581   3.729  16.717  11.626
69322W        W34582  36.338   8.237   2.131
69323W        W34583  39.031  40.755  13.798
69324W        W34584  39.474   3.312  12.165
69325W        W34585  44.907  31.628  13.040
69326W        W34586  38.721  39.759   3.758
69327W        W34587  39.384  15.296   0.893
69328W        W34588  17.715  24.953  10.688
69329W        W34589   5.978   2.456  14.979
69330W        W34590   6.648  32.127  11.615
69331W        W34591   3.299  21.082   5.255
69332W        W34592  18.660  18.670  12.239
69333W        W34593   2.987  12.322   4.035
69334W        W34594   7.318  28.562   3.863
69335W        W34595  25.233  36.323  13.977
69336W        W34596  23.089   1.866  10.545
69337W        W34597   8.421   2.739  14.481
69338W        W34598   9.706  34.931  14.343
69339W        W34599   2.203  29.578  10.973
69340W        W34600  25.810  39.888  11.650
69341W        W34601  36.647  23.531  13.850
69342W        W34602   6.211  35.070  14.639
69343W        W34603  26.981   3.629   4.601
69344W        W34604  33.542   7.344   2.250
69345W        W34605  32.648  32.782   0.723
69346W        W34606   3.715  20.633   3.318
69347W        W34607  22.988   8.445   2.904
69348W        W34608  31.041  42.459   4.522
69349W        W34609  38.924  29.029  12.312
69350W        W34610  34.425   9.363   0.896
69351W        W34611  26.592  22.685   2.406
69352W        W34612  13.392  20.203   0.417
69353W        W34613  18.027   5.440  14.868
69354W        W34614  32.561   3.937   3.814
69355W        W34615   1.247  18.915   2.890
69356W        W34616  30.042  36.130  11.456
69357W        W34617  21.191  44.371  12.608
69358W        W34618  39.074  34.566   0.882
69359W        W34619   1.469  32.919  14.470
69360W        W34620  37.116  19.395  13.966
69361W        W34621  33.435  12.386  12.100
69362W        W34622  36.574  25.743  14.785
69363W        W34623  14.130  13.432   1.820
69364W        W34624   7.777   4.677  14.344
69365W        W34625  26.141  40.256  13.779
69366W        W34626   4.175  13.215   4.888
69367W        W34627   3.807  16.062  13.322
69368W        W34628  42.920   7.618   0.300
69369W        W34629  27.695  30.600   4.367
69370W        W34630  39.548   0.039  13.439
69371W        W34631  13.543  27.646  13.779
69372W        W34632  43.777  23.955   0.426
69373W        W34633  31.629  21.057  11.514
69374W        W34634  14.132  30.670   2.757
69375W        W34635  32.496  37.806  12.001
69376W        W34636  13.694  35.435  12.681
69377W        W34637  23.175  16.647   2.326
69378W        W34638   8.967  44.386   0.312
69379W        W34639  38.949  27.468  11.230
69380W        W34640  29.064  15.803  13.312
69381W        W34641  32.332   9.828   1.794
69382W        W34642  12.793  21.269  13.519
69383W        W34643  42.552  35.895   0.759
69384W        W34644  29.493  12.178  10.668
69385W        W34645  25.717  44.153   2.882
69386W        W34646  26.812   8.519   9.879
69387W        W34647  11.822  23.837   5.091
69388W        W34648  23.676   6.935  12.932
69389W        W34649  17.642  16.212  11.908
69390W        W34650  20.960  30.359  12.045
69391W        W34651   8.762  38.096  13.176
69392W        W34652  32.419  34.900   0.037
69393W        W34653   9.439   2.455  12.037
69394W        W34654   5.262  43.739  14.363
69395W        W34655  25.633  27.560  14.391
69396W        W34656  14.560  20.339   2.369
69397W        W34657  25.497  22.232   3.261
69398W        W34658  18.021  24.593  12.981
69399W        W34659  28.016   5.646   3.171
69400W        W34660  15.706  16.287   1.302
69401W        W34661  13.687  27.661  11.581
69402W        W34662  25.330  14.313   4.801
69403W        W34663   6.278  37.522   0.229
69404W        W34664   1.254   8.695   4.336
69405W        W34665  37.039  41.266  11.641
69406W        W34666  29.399  17.691  12.680
69407W        W34667   4.720   3.429   2.539
69408W        W34668  18.324  32.577  11.514
69409W        W34669   9.599  34.482   2.287
69410W        W34670   3.685  44.513  12.525
69411W        W34671  15.743  33.599  13.579
69412W        W34672  17.581  32.338  12.011
69413W        W34673  11.146  15.285  10.448
69414W        W34674  37.802   2.848  14.031
69415W        W34675   4.873  16.115   1.194
69416W        W34676  34.629  41.358  14.406
69417W        W34677   8.274  16.274  13.587
69418W        W34678  31.909  31.955  13.937
69419W        W34679  43.474  20.531   2.638
69420W        W34680  25.984   1.478  10.435
69421W        W34681  27.958  11.701   2.951
69422W        W34682   7.801  42.416  13.538
69423W        W34683  28.538  15.255  14.935
69424W        W34684  26.589  30.436   3.736
69425W        W34685   4.662  12.687  13.097
69426W        W34686  44.298  43.363  13.791
69427W        W34687  35.513  43.545   3.791
69428W        W34688  15.056  43.931   3.080
69429W        W34689  40.994  37.433   0.249
69430W        W34690  32.406  41.853  11.614
69431W        W34691  33.085  36.026   3.334
69432W        W34692  21.420   6.699   1.875
69433W        W34693  37.289  41.260  14.452
69434W        W34694   7.903  20.032  12.313
69435W        W34695  33.446  25.464   0.706
69436W        W34696  40.040   4.788  12.106
69437W        W34697  41.485  35.511   4.742
69438W        W34698  22.152  10.271   3.912
69439W        W34699   4.738  24.229   3.693
69440W        W34700   8.833  13.061   3.235
69441W        W34701  28.645  12.792  14.013
69442W        W34702   7.222  18.404   2.660
69443W        W34703  13.664  28.499  12.048
69444W        W34704  30.651  32.835   3.767
69445W        W34705   5.323  44.051  13.962
69446W        W34706  23.187   3.280   3.621
69447W        W34707  38.560   6.184  11.600
69448W        W34708  33.331  40.332  12.947
69449W        W34709  38.010  39.792  10.519
69450W        W34710  26.845   1.786  14.747
69451W        W34711  33.058   2.749   3.844
69452W        W34712  10.620  17.230   2.154
69453W        W34713  12.436  29.990  10.257
69454W        W34714  40.967  25.532  11.116
69455W        W34715  13.420   3.968   3.720
69456W        W34716  36.500  17.334   4.662
69457W        W34717  12.308  43.778   2.131
69458W        W34718  25.946  22.676  10.627
69459W        W34719  11.279   2.676  11.601
69460W        W34720  18.751  43.475   2.414
69461W        W34721  28.761  14.567   2.013
69462W        W34722  24.935  41.295   2.279
69463W        W34723  17.158  41.356  11.198
69464W        W34724  27.895  25.644   4.112
69465W        W34725  31.910   4.684   1.884
69466W        W34726   6.134  42.340   4.590
69467W        W34727  39.117  39.011   1.189
69468W        W34728  13.629   6.408   1.327
69469W        W34729  19.363  25.537   3.654
69470W        W34730  42.328  10.116  14.402
69471W        W34731   1.030  31.097   3.061
69472W        W34732  20.918  39.046  12.437
69473W        W34733   5.737  16.026   2.591
69474W        W34734  44.420   7.817  14.319
69475W        W34735  36.558   6.651  11.112
69476W        W34736   4.380  11.402  11.096
69477W        W34737   9.559  36.021  11.820
69478W        W34738  17.373   8.044   1.834
69479W        W34739  13.743  19.806  12.843
69480W        W34740   1.955  11.221   3.806
69481W        W34741  41.857  42.946   0.837
69482W        W34742  25.492  14.283   0.623
69483W        W34743   4.936  10.002  12.574
69484W        W34744  28.531  16.585  12.784
69485W        W34745   8.244  13.329  13.511
69486W        W34746  43.006  10.311  14.901
69487W        W34747   5.026  34.920  14.241
69488W        W34748  25.268  35.038   0.398
69489W        W34749   7.442  13.333  14.344
69490W        W34750   0.401  12.658   0.235
69491W        W34751   9.078  26.570   0.241
69492W        W34752  14.593  36.199   3.063
69493W        W34753  42.840   1.984  11.706
69494W        W34754  31.161  30.493  14.310
69495W        W34755  39.837  37.471   3.390
69496W        W34756  37.581  16.978  13.501
69497W        W34757  11.860  41.941  14.743
69498W        W34758  24.556  37.975   3.226
69499W        W34759  36.315  36.456  11.621
69500W        W34760  36.392  27.522  11.496
69501W        W34761   3.134  27.588  13.836
69502W        W34762  42.536  34.382  12.027
69503W        W34763  18.383   7.526  11.894
69504W        W34764   1.414   3.032  12.677
69505W        W34765  24.050   7.326  13.846
69506W        W34766  18.229  15.070  14.973
69507W        W34767   1.328  39.242  12.482
69508W        W34768  30.068  19.232  10.635
69509W        W34769  29.740  41.260   3.846
69510W        W34770  44.298   9.139  11.140
69511W        W34771  26.081   9.611   2.625
69512W        W34772  28.701  27.736   3.347
69513W        W34773  42.546  10.185   3.933
69514W        W34774  16.662  14.823  13.571
69515W        W34775   6.228  18.549   2.685
69516W        W34776  18.240  28.112  10.675
69517W        W34777  42.510   9.199  14.296
69518W        W34778  11.417  21.710   1.260
69519W        W34779  35.631  39.438  12.333
69520W        W34780  39.587  11.772   2.243
69521W        W34781  13.344  30.392   1.213
69522W        W34782  36.733   4.481   3.694
69523W        W34783  14.730  21.826   4.266
69524W        W34784  13.573  32.396  12.067
69525W        W34785  15.227  23.969   4.862
69526W        W34786  19.545  24.463   2.117
69527W        W34787  20.289  37.688   4.163
69528W        W34788  24.738  41.374  13.389
69529W        W34789   6.427  16.297  10.787
69530W        W34790  19.799  27.012  12.502
69531W        W34791  39.064  18.998   4.857
69532W        W34792   2.990  25.976   1.779
69533W        W34793  41.448  21.003   4.774
69534W        W34794  12.706   3.442  12.105
69535W        W34795  13.316   0.412   0.796
69536W        W34796  18.723  43.903  12.488
69537W        W34797  31.045  27.680   2.758
69538W        W34798  34.870  25.419  12.463
69539W        W34799   0.537  40.964   1.351
69540W        W34800  41.508  10.951   1.806
69541W        W34801  13.908   4.806   0.454
69542W        W34802  43.058  19.310   3.803
69543W        W34803  33.990   6.839  14.378
69544W        W34804  24.503  12.706  13.649
69545W        W34805  44.370  21.708  10.144
69546W        W34806  20.759  34.685   2.322
69547W        W34807  43.505   3.951  13.167
69548W        W34808  24.945   3.941   0.272
69549W        W34809  41.707  23.697   4.292
69550W        W34810  29.359   6.649   1.676
69551W        W34811  42.422  17.192  11.539
69552W        W34812  32.160  22.998  11.649
69553W        W34813  21.018  44.108  13.342
69554W        W34814  13.631  40.283   2.810
69555W        W34815  24.652  41.522  11.969
69556W        W34816  14.202  11.885   5.231
69557W        W34817  11.164  33.342   1.592
69558W        W34818  23.477  29.493  14.359
69559W        W34819  23.027  36.256   2.762
69560W        W34820  17.573  17.675  11.585
69561W        W34821  38.896  38.785  14.503
69562W        W34822  42.236  11.189  13.570
69563W        W34823  31.538  42.921   0.374
69564W        W34824   6.356   3.370   0.619
69565W        W34825   9.375  38.955  11.785
69566W        W34826  16.856   6.927   3.776
69567W        W34827   1.822  27.575   4.749
69568W        W34828  36.547   5.631   1.359
69569W        W34829  20.370   0.455   2.258
69570W        W34830  34.376  28.020   3.795
69571W        W34831  28.509  17.089   3.876
69572W        W34832   9.848  14.342   2.405
69573W        W34833  24.715  16.257   2.823
69574W        W34834  39.737   9.807  11.250
69575W        W34835  44.249  32.918   4.432
69576W        W34836  36.904  16.142   3.629
69577W        W34837   7.861   1.882   3.338
69578W        W34838  16.670  41.966  10.591
69579W        W34839  19.987   8.829  13.440
69580W        W34840  11.153  35.139   3.363
69581W        W34841  12.772  36.268  11.084
69582W        W34842  38.942  22.330  11.575
69583W        W34843  29.627   5.216  12.784
69584W        W34844   7.323  10.815   0.057
69585W        W34845  15.836   0.471   2.629
69586W        W34846  20.138  42.726  12.111
69587W        W34847  37.576   3.468   1.227
69588W        W34848  39.342   5.484   2.117
69589W        W34849   2.004   1.201  12.478
69590W        W34850   6.925  41.244  11.609
69591W        W34851  15.500  12.212  14.955
69592W        W34852  31.199  21.557  11.022
69593W        W34853  42.118  32.717  11.356
69594W        W34854  39.017  44.769  12.412
69595W        W34855  44.774  25.958  14.681
69596W        W34856  44.445  19.588   4.555
69597W        W34857  14.873  16.462  11.542
69598W        W34858  11.783  20.466   3.389
69599W        W34859  25.124  22.458   2.271
69600W        W34860  13.096  26.660  13.414
69601W        W34861  11.478  18.451   2.388
69602W        W34862  31.057  42.969  14.730
69603W        W34863   4.602  16.161   4.608
69604W        W34864   9.682  24.567  14.561
69605W        W34865   1.689  24.132  13.025
69606W        W34866  25.709  32.766   4.127
69607W        W34867  33.827  39.800  10.641
69608W        W34868  23.981   5.463   0.651
69609W        W34869  14.037   3.791  13.418
69610W        W34870  12.610  29.734   0.935
69611W        W34871  30.148   0.658   2.731
69612W        W34872   4.168  12.882  12.867
69613W        W34873  19.674  11.076  13.434
69614W        W34874  24.194  30.689  11.904
69615W        W34875  26.122  39.649  10.884
69616W        W34876  38.326  26.622  14.041
69617W        W34877  15.322   3.052   1.403
69618W        W34878  21.655  24.771   0.329
69619W        W34879  33.433  14.702   3.040
69620W        W34880  27.407  24.687   0.404
69621W        W34881  15.075  12.285   4.265
69622W        W34882  44.052  26.603  11.406
69623W        W34883  12.051   5.430  11.948
69624W        W34884  20.007  17.488  14.298
69625W        W34885   9.849  12.156   2.638
69626W        W34886   7.675  21.260  12.827
69627W        W34887  43.093  29.004  10.263
69628W        W34888  35.110  25.665   2.228
69629W        W34889  15.254   5.896   3.189
69630W        W34890  39.798  36.310  12.557
69631W        W34891  19.111   2.284   4.518
69632W        W34892   1.338  39.510  12.033
69633W        W34893  14.718   0.294  12.782
69634W        W34894  16.903   0.996   4.535
69635W        W34895  33.011  27.553  12.476
69636W        W34896  37.194   3.615   4.901
69637W        W34897  20.553  11.051   3.556
69638W        W34898  32.154  12.285  11.585
69639W        W34899  32.601  23.571   3.764
69640W        W34900  16.273  42.835  13.452
69641W        W34901   3.778  29.577  12.488
69642W        W34902   4.960   6.693  13.879
69643W        W34903   8.861  33.088   4.297
69644W        W34904  35.480  12.355  13.894
69645W        W34905  38.738  43.580  12.933
69646W        W34906   0.576  32.208   0.009
69647W        W34907  14.768  23.143  10.209
69648W        W34908  15.238  35.816   1.495
69649W        W34909  18.001  41.407  11.378
69650W        W34910  12.357  22.282  11.580
69651W        W34911  25.548  28.600  12.978
69652W        W34912  32.727   5.775  13.810
69653W        W34913   5.365  23.467  13.024
69654W        W34914   2.486   2.512   2.331
69655W        W34915   7.675  14.970  11.036
69656W        W34916  20.135  11.213   2.758
69657W        W34917  22.650   4.610  13.100
69658W        W34918  38.825  44.708   3.283
69659W        W34919   9.319   3.779  12.919
69660W        W34920   3.879  10.295  10.325
69661W        W34921  44.638  29.921  11.181
69662W        W34922   9.896  23.599  13.030
69663W        W34923  38.060   3.960  10.232
69664W        W34924  15.805  29.450   4.603
69665W        W34925  42.911   0.207   1.916
69666W        W34926  28.941   3.793   0.835
69667W        W34927  43.885   7.687   4.335
69668W        W34928   7.020  15.735  14.943
69669W        W34929   5.056  23.127   4.852
69670W        W34930   1.968  32.525  14.278
69671W        W34931   8.329  40.567   0.552
69672W        W34932  32.799   4.891   4.537
69673W        W34933   4.707  18.748  14.543
69674W        W34934  31.090  33.855   2.210
69675W        W34935  43.990  17.890  14.914
69676W        W34936  38.904   5.904  14.833
69677W        W34937   4.436  16.172   3.663
69678W        W34938   7.472  12.780   3.089
69679W        W34939  15.773  22.223   4.475
69680W        W34940  15.319  27.162  14.412
69681W        W34941  14.745  17.693  11.038
69682W        W34942  20.794  14.600   2.628
69683W        W34943  38.786  35.766  10.734
69684W        W34944  25.411  28.711  11.212
69685W        W34945  42.743  33.097   2.865
69686W        W34946  23.295  40.938  11.882
69687W        W34947  29.027  36.016  14.839
69688W        W34948  13.385  36.082  14.564
69689W        W34949  32.815  15.329  11.445
69690W        W34950  43.096  15.368  10.205
69691W        W34951  34.929  19.166   3.731
69692W        W34952  31.632  30.255  12.037
69693W        W34953  10.637  18.725   3.827
69694W        W34954  14.373  20.827  12.650
69695W        W34955   5.720  12.981   0.636
69696W        W34956  21.249  35.923  14.104
69697W        W34957   1.160  24.079   1.955
69698W        W34958  37.967  41.441   3.953
69699W        W34959  44.507  38.101   3.180
69700W        W34960  17.325  12.817  11.293
69701W        W34961  10.665  25.623   1.672
69702W        W34962  40.045  42.793   2.616
69703W        W34963   9.115   5.281   0.396
69704W        W34964  16.317  16.506  12.300
69705W        W34965  13.666  33.615   0.788
69706W        W34966  27.889  17.423   0.041
69707W        W34967  34.250  44.046   1.240
69708W        W34968   0.346   2.514  12.918
69709W        W34969  37.572   5.903   1.450
69710W        W34970  13.807  41.800   2.403
69711W        W34971  28.432   3.405  11.634
69712W        W34972  41.427  30.983   0.432
69713W        W34973  25.205  29.921   4.166
69714W        W34974  19.226  29.736  10.850
69715W        W34975  30.311  30.619   1.778
69716W        W34976  44.708   2.462   3.162
69717W        W34977   2.014   6.958  10.968
69718W        W34978   9.765  29.295  13.418
69719W        W34979  13.742  40.817  13.920
69720W        W34980  42.442  38.130  10.537
69721W        W34981  23.584  37.552   4.200
69722W        W34982  32.850  25.101   2.348
69723W        W34983  42.884   4.627  12.603
69724W        W34984  17.992  20.665   1.297
69725W        W34985   2.436   9.558  13.614
69726W        W34986  42.977  18.426   3.500
69727W        W34987   3.788  39.529  14.366
69728W        W34988  22.971  30.962   2.663
69729W        W34989  19.016  20.527  14.371
69730W        W34990  43.854  11.712   1.053
69731W        W34991  17.091  44.124   0.499
69732W        W34992  14.164   5.218   0.772
69733W        W34993   2.857  29.935  10.281
69734W        W34994  34.803  38.999   1.835
69735W        W34995   4.887   6.142   0.515
69736W        W34996  12.465  27.520  11.417
69737W        W34997  11.202  42.843   1.375
69738W        W34998   1.354  14.171   3.738
69739W        W34999   5.386   5.399   4.115
69740W        W35000  33.908  41.870  13.472
69741W        W35001   7.223  19.046   1.323
69742W        W35002  31.657  29.513   0.112
69743W        W35003  13.825   5.279   3.820
69744W        W35004   4.432   9.263   3.700
69745W        W35005  21.127  37.946  10.589
69746W        W35006  40.425  17.176   2.472
69747W        W35007  12.562  30.725  11.853
69748W        W35008  23.603   7.135  13.573
69749W        W35009  13.939   8.862  14.050
69750W        W35010  18.772   3.401   0.791
69751W        W35011  13.651  15.539   5.342
69752W        W35012  44.706  28.421   2.193
69753W        W35013  27.596  24.519   3.262
69754W        W35014  42.990  29.667  11.878
69755W        W35015  41.598  11.383  14.248
69756W        W35016  16.853  21.565  13.358
69757W        W35017  31.313   2.662   3.110
69758W        W35018  31.549  23.848  12.790
69759W        W35019  43.985  14.647   9.818
69760W        W35020  16.429  23.563  12.082
69761W        W35021  12.863  14.974   2.542
69762W        W35022  34.483   1.520   5.006
69763W        W35023  39.476  26.546   1.932
69764W        W35024  38.690  40.310  13.887
69765W        W35025  14.268  41.109   1.868
69766W        W35026  30.522  25.094   0.794
69767W        W35027  25.202  20.174  14.809
69768W        W35028  33.734   8.690  12.970
69769W        W35029  17.086  30.303  13.535
69770W        W35030   0.305   2.723   1.200
69771W        W35031  15.600  28.975   4.557
69772W        W35032  35.056  38.613  14.991
69773W        W35033   6.719  33.473   2.716
69774W        W35034  43.863  32.059  11.410
69775W        W35035  35.289   7.960   0.007
69776W        W35036  32.065  16.170  12.304
69777W        W35037  27.423  37.672   2.904
69778W        W35038  21.871  14.292   3.339
69779W        W35039  22.464  39.045  12.323
69780W        W35040  35.301  23.195   2.558
69781W        W35041  40.303   4.917  12.533
69782W        W35042  38.906  26.200  10.706
69783W        W35043   8.943  21.773  14.827
69784W        W35044  29.928  30.680  14.831
69785W        W35045  11.467  26.254   5.108
69786W        W35046  23.039   2.704  12.035
69787W        W35047  41.546   9.103   1.013
69788W        W35048  35.346  42.294   1.691
69789W        W35049   4.812  16.566   1.978
69790W        W35050   6.592  40.944  11.193
69791W        W35051  42.960  41.359   0.334
69792W        W35052  38.385  44.569  11.560
69793W        W35053  40.368  21.187   3.197
69794W        W35054   4.431  28.460  12.055
69795W        W35055   9.752   2.642  13.920
69796W        W35056  14.309  22.330  11.204
69797W        W35057  10.353  13.832   0.788
69798W        W35058  38.415  19.043  12.407
69799W        W35059  15.411  35.684   3.293
69800W        W35060  17.484  32.224  13.576
69801W        W35061  37.316  40.866  12.955
69802W        W35062   0.379  17.207  13.731
69803W        W35063  35.432  10.007  11.719
69804W        W35064   7.486  41.762   2.947
69805W        W35065   2.750  38.511  10.722
69806W        W35066   9.826  25.042  11.041
69807W        W35067  28.025  34.498  10.088
69808W        W35068  34.922   2.521   3.870
69809W        W35069  26.596   7.438  10.453
69810W        W35070   8.590  35.324  14.478
69811W        W35071  25.028   3.715   0.910
69812W        W35072  29.526  26.761   4.150
69813W        W35073   6.863   3.592  14.957
69814W        W35074   8.817   7.349  11.108
69815W        W35075  29.112  38.087  11.110
69816W        W35076  24.638  29.726  14.388
69817W        W35077   3.427  16.296  10.647
69818W        W35078   9.621  11.204   4.184
69819W        W35079   1.429  25.242  14.325
69820W        W35080  36.297   6.180  10.989
69821W        W35081  23.219  37.955  12.190
69822W        W35082  29.350  12.306  14.355
69823W        W35083  21.860  19.716  11.452
69824W        W35084  39.550  31.936   1.833
69825W        W35085   8.674  11.702  10.494
69826W        W35086   7.980  20.579  14.355
69827W        W35087  10.209  37.930   0.499
69828W        W35088  13.838  20.721  12.395
69829W        W35089   1.433   3.512  14.403
69830W        W35090  32.102   5.934   0.475
69831W        W35091   0.360   4.045   0.357
69832W        W35092  10.527  43.683   3.236
69833W        W35093  23.466  16.355   3.609
69834W        W35094  33.583  43.291  11.404
69835W        W35095  27.487   9.193   2.762
69836W        W35096   1.234  10.462  13.257
69837W        W35097  22.126  26.789   2.864
69838W        W35098  43.768  11.199  13.290
69839W        W35099  30.370  23.400  14.396
69840W        W35100  43.859  15.411  11.967
69841W        W35101  31.958  22.076   0.485
69842W        W35102  44.359  33.975  13.300
69843W        W35103  17.950  24.031  11.660
69844W        W35104   5.476  18.954   1.897
69845W        W35105   6.515  32.918  14.999
69846W        W35106   4.854  15.234   4.791
69847W        W35107  33.403  41.893  13.365
69848W        W35108  33.360  17.071   4.901
69849W        W35109  13.346  25.588  11.609
69850W        W35110   9.438  44.952   2.839
69851W        W35111  30.439  41.520  13.510
69852W        W35112  35.110  37.509   3.748
69853W        W35113  22.773  19.820   0.322
69854W        W35114  43.521  27.086   1.849
69855W        W35115   3.946  15.110  11.869
69856W        W35116  16.818  36.815   3.877
69857W        W35117  34.053  44.842   0.181
69858W        W35118   9.989   4.230  10.647
69859W        W35119  23.628   1.171   1.396
69860W        W35120  39.803   0.786  10.768
69861W        W35121  29.663  37.509  11.600
69862W        W35122  42.148  39.119  12.867
69863W        W35123  13.119  19.364   3.597
69864W        W35124  39.460  34.011   3.230
69865W        W35125  12.809   8.778   1.300
69866W        W35126  29.865  18.293  10.489
69867W        W35127   6.932   5.436  11.569
69868W        W35128  32.556  40.430  13.361
69869W        W35129  31.955  34.759  13.159
69870W        W35130  24.909  17.647   2.140
69871W        W35131  14.447  44.986   0.428
69872W        W35132  29.576  43.907   0.671
69873W        W35133   2.943  40.300  13.925
69874W        W35134  25.547  22.044  11.821
69875W        W35135   1.175  23.718   0.865
69876W        W35136  15.086   5.207   1.004
69877W        W35137  35.762  39.832  13.809
69878W        W35138  44.300  33.967  11.915
69879W        W35139  42.990   3.779   1.151
69880W        W35140   8.383  37.080  13.849
69881W        W35141  25.704  36.388  12.126
69882W        W35142   2.352  10.188   2.210
69883W        W35143   8.210  28.406   0.411
69884W        W35144   5.736  25.764   5.009
69885W        W35145  23.584  39.525   0.445
69886W        W35146  25.088  44.870  13.558
69887W        W35147  41.973   3.521  13.992
69888W        W35148   4.679   6.259  12.065
69889W        W35149  14.429   1.326  10.618
69890W        W35150  21.079  34.386  11.082
69891W        W35151  22.245  37.168  10.331
69892W        W35152  34.097   8.590  12.014
69893W        W35153  29.170  12.928   2.277
69894W        W35154  25.815  24.695   3.791
69895W        W35155  21.228  10.148  10.614
69896W        W35156  32.269  19.784  12.958
69897W        W35157  44.586  44.906  14.357
69898W        W35158  25.246  22.658   3.216
69899W        W35159  42.148  17.724  14.518
69900W        W35160  22.595   8.052   4.110
69901W        W35161   7.180  20.072   1.782
69902W        W35162  11.424  15.289  14.878
69903W        W35163  15.823   0.960   0.091
69904W        W35164  26.932  10.350  12.048
69905W        W35165  34.347  26.095  11.864
69906W        W35166  11.221  26.174   2.191
69907W        W35167   7.287  25.091   2.258
69908W        W35168  41.729  25.927   1.616
69909W        W35169   4.358  29.226  13.918
69910W        W35170  13.781  24.184  14.503
69911W        W35171  39.834  39.707  12.055
69912W        W35172  17.483  16.343   0.043
69913W        W35173  28.205   5.819  12.161
69914W        W35174  17.396  11.612   1.902
69915W        W35175   4.209  44.749  13.201
69916W        W35176  40.244   7.771   4.081
69917W        W35177  17.403  41.503  10.521
69918W        W35178  26.188  10.826   3.509
69919W        W35179  26.009  18.103  12.511
69920W        W35180   5.989  26.643   3.555
69921W        W35181   2.295  16.179  10.661
69922W        W35182   7.715  26.630   1.921
69923W        W35183  31.134  26.051  13.485
69924W        W35184  13.376  33.672  11.472
69925W        W35185   5.945   2.774  10.002
69926W        W35186  22.525  36.895   2.991
69927W        W35187  33.278  40.919   3.262
69928W        W35188  42.528  37.856   0.852
69929W        W35189  25.277  28.147  13.068
69930W        W35190  13.736   8.664  11.602
69931W        W35191   9.103  19.109  11.073
69932W        W35192  43.767  31.221   2.202
69933W        W35193  19.527   4.485  10.009
69934W        W35194  23.048  12.199  14.632
69935W        W35195  25.008  17.599  10.736
69936W        W35196  20.480  22.745  10.349
69937W        W35197  38.066  13.894   0.710
69938W        W35198  44.242  40.429   0.654
69939W        W35199  20.764  36.381   4.161
69940W        W35200  22.778  20.225   1.752
69941W        W35201   9.728   4.351   1.700
69942W        W35202  38.664  35.452  12.443
69943W        W35203  15.865  10.418   0.841
69944W        W35204   4.462  15.690   4.760
69945W        W35205  42.528  34.950  11.155
69946W        W35206  11.519  16.612  12.398
69947W        W35207  12.854  29.502   4.547
69948W        W35208  24.684  24.163  11.869
69949W        W35209  36.881  34.401  13.661
69950W        W35210   7.658  32.367  14.338
69951W        W35211   3.476  36.925  13.169
69952W        W35212  32.120  27.987  12.296
69953W        W35213  35.913  37.499   3.274
69954W        W35214  13.776   5.675   2.328
69955W        W35215  37.288  36.363   0.828
69956W        W35216  38.919   2.398   3.078
69957W        W35217  34.887  21.852  11.337
69958W        W35218  16.790  38.062   4.577
69959W        W35219  13.828  12.128  12.027
69960W        W35220  18.016  38.925   4.584
69961W        W35221  17.369  17.775   2.771
69962W        W35222  38.384  43.970   2.334
69963W        W35223  24.313  15.782  13.852
69964W        W35224  29.135  19.533   1.731
69965W        W35225  13.320  35.532  10.760
69966W        W35226  39.423  43.990  14.958
69967W        W35227   9.866  39.612  11.173
69968W        W35228  25.543   5.615   2.616
69969W        W35229  25.764  14.738   2.383
69970W        W35230  29.150   2.829  13.047
69971W        W35231  15.019  42.601   4.111
69972W        W35232  18.257  12.921   0.663
69973W        W35233  17.139  17.765  11.053
69974W        W35234  40.525  31.602  11.195
69975W        W35235   9.845  14.168  13.104
69976W        W35236  32.600  37.205  14.858
69977W        W35237  30.546  36.071  13.019
69978W        W35238   7.893  32.507  11.332
69979W        W35239  39.874  10.791  13.332
69980W        W35240  13.105  15.562  11.199
69981W        W35241  24.192  10.203   1.264
69982W        W35242   6.858  35.180  12.144
69983W        W35243  16.898  29.102  10.621
69984W        W35244  22.247  28.667   3.427
69985W        W35245  26.203  31.861  14.332
69986W        W35246  43.330  22.705  12.951
69987W        W35247  28.060  23.254   2.260
69988W        W35248  15.896  12.488  14.739
69989W        W35249  42.759  14.425  12.066
69990W        W35250  13.277   7.745   1.694
69991W        W35251   2.364   2.739   2.789
69992W        W35252  18.488  20.478   2.151
69993W        W35253  22.270  25.990  13.784
69994W        W35254  21.693  36.843   1.870
69995W        W35255   9.349  28.871  11.609
69996W        W35256  30.140  34.146  11.860
69997W        W35257  13.755  36.573   3.132
69998W        W35258   9.424  39.080   4.187
69999W        W35259   1.449  16.433  11.516
70000W        W35260  32.734  36.472  12.591
70001W        W35261  11.308   4.926   2.237
70002W        W35262  31.245  31.997   1.267
70003W        W35263  33.961  35.052   3.264
70004W        W35264  34.996  27.770  11.580
70005W        W35265  27.167   6.166   0.217
70006W        W35266  17.172   0.809  14.996
70007W        W35267   2.315   6.857  12.987
70008W        W35268   3.450  30.586   0.892
70009W        W35269  28.806  38.621   3.422
70010W        W35270   5.359  19.021  11.010
70011W        W35271  35.874   7.060   2.157
70012W        W35272  32.689   7.963   3.670
70013W        W35273  11.100  18.446  11.087
70014W        W35274   3.529  25.106  12.596
70015W        W35275   9.396  41.610   2.608
70016W        W35276  15.750  12.770  11.248
70017W        W35277   5.816  44.259  14.184
70018W        W35278  13.226  28.108  12.216
70019W        W35279  19.943   8.347  14.479
70020W        W35280  40.426  23.950   3.647
70021W        W35281  18.777  42.271  14.809
70022W        W35282  29.192  30.113  12.842
70023W        W35283   1.961  37.861  13.412
70024W        W35284  18.560  29.797   0.786
70025W        W35285  14.192  23.498   3.551
70026W        W35286  22.208  22.313   0.324
70027W        W35287  24.456  11.435  10.818
70028W        W35288   5.634  15.178  14.843
70029W        W35289  23.092   7.877  13.431
70030W        W35290  19.545  18.222   3.688
70031W        W35291  35.116  11.949  10.194
70032W        W35292   4.607  34.317   0.979
70033W        W35293  38.032  25.698   0.212
70034W        W35294  33.998  27.085  13.422
70035W        W35295  15.214  16.322  10.603
70036W        W35296  18.273   1.270   2.313
70037W        W35297   3.902  14.179  14.484
70038W        W35298  17.135  25.561   1.156
70039W        W35299  39.142  39.243   2.570
70040W        W35300  21.286   6.760  13.300
70041W        W35301  31.966  25.109  15.000
70042W        W35302  43.187  10.223   4.513
70043W        W35303  40.237  24.514  14.843
70044W        W35304  14.499  24.073  13.323
70045W        W35305  37.596  33.841  12.098
70046W        W35306   2.900  16.555   4.494
70047W        W35307  25.649   1.625  13.383
70048W        W35308  18.968   8.168  12.963
70049W        W35309   3.973  40.637  11.178
70050W        W35310  17.259  17.410  10.677
70051W        W35311  35.882  31.152   3.714
70052W        W35312  34.385  30.576  11.241
70053W        W35313  24.150  42.933   2.854
70054W        W35314   1.887  42.743  14.814
70055W        W35315  31.800  27.514  14.036
70056W        W35316  42.348  39.294  13.635
70057W        W35317   8.937  17.471   2.974
70058W        W35318  17.647  34.560   0.790
70059W        W35319   8.696  18.254   3.534
70060W        W35320   0.230  28.968   3.813
70061W        W35321  29.399  23.644  12.076
70062W        W35322  26.692  39.424  11.523
70063W        W35323   1.708  10.581  13.097
70064W        W35324  10.060  32.555   4.974
70065W        W35325  14.928   8.097   1.642
70066W        W35326  28.516  44.713  10.386
70067W        W35327   3.880   2.713   0.253
70068W        W35328  25.723  21.239  11.159
70069W        W35329  17.229  43.299  14.682
70070W        W35330   5.388  11.247  13.618
70071W        W35331  39.353  10.721   0.361
70072W        W35332  44.895   1.919   0.901
70073W        W35333  11.535  44.587  12.945
70074W        W35334  36.467  21.873   3.661
70075W        W35335  21.557  23.584   0.271
70076W        W35336  25.638  36.838   1.392
70077W        W35337  14.120  27.938   1.369
70078W        W35338  10.747   6.979   3.065
70079W        W35339  21.281  31.130   0.827
70080W        W35340  43.502  17.270  11.939
70081W        W35341  19.242  43.739   1.690
70082W        W35342   8.889  24.718  14.993
70083W        W35343  10.943  34.528  12.594
70084W        W35344  35.352  43.716   2.256
70085W        W35345  33.110   7.729   3.815
70086W        W35346   9.090  26.898  14.798
70087W        W35347  29.898  29.154  12.254
70088W        W35348  20.806  29.856  11.952
70089W        W35349  30.781  32.095  12.150
70090W        W35350   0.263   5.628  11.243
70091W        W35351  20.822  23.961   4.318
70092W        W35352  37.760  31.984   0.868
70093W        W35353  32.033  15.077  12.133
70094W        W35354  17.258  28.055  12.084
70095W        W35355  25.306   2.309  11.729
70096W        W35356  16.641  30.120   4.498
70097W        W35357  34.521  20.137  11.599
70098W        W35358  42.095   4.734  11.986
70099W        W35359  22.015  39.004   1.744
70100W        W35360   1.306  15.214  14.738
70101W        W35361  44.357  13.725   3.657
70102W        W35362   4.888   1.585  13.379
70103W        W35363   9.166  23.398   1.445
70104W        W35364  27.114  14.966   4.531
70105W        W35365  31.612  23.066   3.648
70106W        W35366   5.913  33.587   3.658
70107W        W35367  41.441  37.799  14.264
70108W        W35368  27.502  16.644   1.960
70109W        W35369  36.055   7.869   3.787
70110W        W35370  34.617  16.252   4.143
70111W        W35371  15.580  24.917  10.155
70112W        W35372  44.373  12.824  12.608
70113W        W35373   3.404  21.011   1.853
70114W        W35374  33.716   7.485   4.478
70115W        W35375  39.089  44.788   5.014
70116W        W35376  43.313  10.476   4.954
70117W        W35377   0.937   8.309  12.566
70118W        W35378  27.352  36.052  12.501
70119W        W35379  33.983  44.953  12.536
70120W        W35380  22.468  17.827   1.798
70121W        W35381   9.402  24.961  10.635
70122W        W35382  28.641   9.580  14.165
70123W        W35383  19.520  13.085  11.352
70124W        W35384  24.984  14.115  14.297
70125W        W35385  33.754  33.491  12.577
70126W        W35386  29.293  36.688  11.931
70127W        W35387  36.483   2.028  12.638
70128W        W35388  13.859   4.553  11.961
70129W        W35389  39.632  36.522  13.005
70130W        W35390   9.096  39.906  14.043
70131W        W35391  31.398  15.265   3.443
70132W        W35392   8.786  23.008   3.366
70133W        W35393   5.046  21.111   4.620
70134W        W35394  38.039  30.070  12.087
70135W        W35395  12.567  34.137  10.697
70136W        W35396  13.808  22.907  13.346
70137W        W35397  40.534  24.519  14.436
70138W        W35398   1.911  29.334  13.775
70139W        W35399  13.773  39.848   4.534
70140W        W35400  44.915  28.196  11.596
70141W        W35401  40.367  35.937   2.773
70142W        W35402  13.550  12.089   0.366
70143W        W35403   1.909   5.446   3.719
70144W        W35404  27.557  19.166   2.917
70145W        W35405  29.979   0.233  11.854
70146W        W35406   2.670  14.903  10.736
70147W        W35407  25.561  21.544   4.615
70148W        W35408  13.958   7.880  12.847
70149W        W35409  30.896  14.526  11.536
70150W        W35410  16.199  41.603   2.135
70151W        W35411  22.244  20.962  10.628
70152W        W35412  14.545   1.461   4.700
70153W        W35413   6.426   1.856   3.730
70154W        W35414  23.273  40.590   2.829
70155W        W35415  13.724  28.470  12.571
70156W        W35416  29.230  25.773   5.177
70157W        W35417  16.090   7.738  12.180
70158W        W35418   0.937  39.435   1.259
70159W        W35419  44.810  37.962  13.038
70160W        W35420   4.517   8.313  13.018
70161W        W35421  30.771  13.175   3.743
70162W        W35422  31.398   5.573   3.300
70163W        W35423  33.055  36.770   1.114
70164W        W35424  20.670  33.627   2.362
70165W        W35425  13.568  30.524  10.657
70166W        W35426  20.825  43.961   3.843
70167W        W35427  39.444  20.721   4.101
70168W        W35428  23.748  13.170   1.850
70169W        W35429  28.903  17.287  13.966
70170W        W35430  25.260   5.491  13.439
70171W        W35431  35.572   5.176  14.654
70172W        W35432   7.286  39.840   3.612
70173W        W35433  11.068  14.594  13.476
70174W        W35434  41.701  14.354  11.126
70175W        W35435  27.089   4.517   3.651
70176W        W35436  30.886   4.603   2.671
70177W        W35437  38.392  36.860  13.034
70178W        W35438   1.274  27.631  11.288
70179W        W35439  19.615  16.379   3.683
70180W        W35440  32.633  37.176   1.222
70181W        W35441  10.836  39.875   1.704
70182W        W35442  43.308  38.476  11.212
70183W        W35443  21.537  30.716   3.172
70184W        W35444  28.740  12.704   2.118
70185W        W35445  20.525  14.573   1.637
70186W        W35446  32.365  15.171  14.531
70187W        W35447  41.893  24.802   4.547
70188W        W35448  44.490  41.403  12.826
70189W        W35449  28.057  37.767   1.238
70190W        W35450  42.382  18.105   1.806
70191W        W35451  13.226  26.143  12.467
70192W        W35452  23.297  32.502   3.790
70193W        W35453  38.798  40.159   5.042
70194W        W35454  43.904   7.302   1.924
70195W        W35455  27.883  21.484  11.507
70196W        W35456  15.674   9.644  11.106
70197W        W35457  29.482  24.763   3.618
70198W        W35458  35.336  28.104  10.713
70199W        W35459  24.575  16.397   4.474
70200W        W35460  31.020   3.607   2.609
70201W        W35461  23.121  16.739   2.849
70202W        W35462  28.945  15.262   3.850
70203W        W35463  14.751  32.113   1.227
70204W        W35464  29.632  11.920  10.236
70205W        W35465  40.428   7.064  11.245
70206W        W35466  35.870  12.827  10.943
70207W        W35467  40.377   8.264   3.221
70208W        W35468   4.270  30.376  14.357
70209W        W35469   6.860  16.258  12.408
70210W        W35470  24.544  24.688   1.925
70211W        W35471   0.819  23.072   2.952
70212W        W35472  39.806  10.347   2.937
70213W        W35473  22.555  22.474   2.369
70214W        W35474  34.757   5.487  11.963
70215W        W35475   5.373  21.609  12.835
70216W        W35476  36.634  14.176  13.844
70217W        W35477   4.517  12.640  12.559
70218W        W35478  42.241  28.040  11.130
70219W        W35479  26.552  15.385  12.112
70220W        W35480  24.213   5.857  12.005
70221W        W35481  34.974   8.950  13.936
70222W        W35482   2.772  13.897   3.682
70223W        W35483  28.459  12.239   0.746
70224W        W35484  44.135   4.323  13.538
70225W        W35485  29.160  18.797   2.209
70226W        W35486   8.940  27.567   1.183
70227W        W35487  21.735   8.814   1.882
70228W        W35488  14.254  37.066  10.814
70229W        W35489  27.098  17.640   4.576
70230W        W35490   1.061   5.746  13.358
70231W        W35491  14.607  36.821   0.294
70232W        W35492   9.312   2.380   3.257
70233W        W35493  24.891  12.718  14.099
70234W        W35494  17.817  27.293   1.608
70235W        W35495  34.562  44.255   3.235
70236W        W35496  21.542  13.035  14.871
70237W        W35497  15.079  10.089  12.836
70238W        W35498  24.402   3.786  11.702
70239W        W35499   8.737  16.753   0.651
70240W        W35500  38.362  19.147  11.034
70241W        W35501  20.794  41.530   2.683
70242W        W35502  32.451  43.423  12.460
70243W        W35503  36.268  29.137   1.746
70244W        W35504  28.131  37.521  14.416
70245W        W35505  22.199  26.164  10.766
70246W        W35506  16.061  32.875  10.717
70247W        W35507  10.848   1.653   4.000
70248W        W35508  12.268  35.673   0.374
70249W        W35509  42.728   7.400  14.882
70250W        W35510  31.528  17.886  10.808
70251W        W35511   1.190   4.128  13.150
70252W        W35512   2.608  26.404   1.281
70253W        W35513  28.598  30.906   2.289
70254W        W35514   2.484  15.478   3.192
70255W        W35515  20.932   4.220   1.682
70256W        W35516  15.688   7.950  14.316
70257W        W35517  40.427  16.203   3.503
70258W        W35518  21.958  15.549  14.911
70259W        W35519  32.217  24.258   1.419
70260W        W35520  12.238  21.121  14.107
70261W        W35521  44.219   3.680   2.660
70262W        W35522  25.659  31.761   1.723
70263W        W35523  35.117  14.278   0.880
70264W        W35524  33.816  21.626  13.372
70265W        W35525  29.169   7.466  12.026
70266W        W35526  42.876  27.703  10.664
70267W        W35527  11.790   8.078  14.612
70268W        W35528   0.885  22.000  11.612
70269W        W35529  33.065  31.820   1.941
70270W        W35530   1.261  28.116   1.811
70271W        W35531  21.550  27.403  11.943
70272W        W35532   0.372  40.562   4.665
70273W        W35533  26.377  29.911  13.201
70274W        W35534  10.168  27.895  14.447
70275W        W35535  10.593  38.912  13.886
70276W        W35536   0.471  28.118   3.284
70277W        W35537  11.711  35.900  13.360
70278W        W35538  40.064   3.710  13.868
70279W        W35539  22.268  21.303   0.270
70280W        W35540  24.502  38.752   4.900
70281W        W35541   6.126  11.535   4.349
70282W        W35542  35.722  29.964  10.712
70283W        W35543   6.322  29.487  13.586
70284W        W35544   2.944  11.110  12.971
70285W        W35545  32.298  15.098  11.434
70286W        W35546  28.794  12.158   3.258
70287W        W35547  13.639  39.090  11.222
70288W        W35548  21.657  36.053  14.384
70289W        W35549  12.225   3.187  13.430
70290W        W35550  39.097  42.233  11.909
70291W        W35551  37.532  28.740   2.092
70292W        W35552  36.472  18.164  12.427
70293W        W35553  16.974  27.141  13.366
70294W        W35554  18.296  42.550  13.432
70295W        W35555  25.893  41.639   2.341
70296W        W35556  18.519  39.313  13.963
70297W        W35557  16.617  34.316   4.045
70298W        W35558  41.108  19.571   1.816
70299W        W35559  33.021   7.327  13.022
70300W        W35560   0.275  32.209   1.440
70301W        W35561   7.006  44.340   2.857
70302W        W35562  14.249  22.691  12.612
70303W        W35563  15.331  25.760  13.060
70304W        W35564  22.059  12.836   1.607
70305W        W35565   5.247  28.029  14.673
70306W        W35566  37.225  33.843   2.693
70307W        W35567  29.463  21.739  13.292
70308W        W35568  24.572  22.079   5.296
70309W        W35569  31.367  17.361  14.451
70310W        W35570  13.756  15.261  14.571
70311W        W35571  10.111  44.323  11.026
70312W        W35572  12.143  42.399  14.758
70313W        W35573  38.220  34.120   2.042
70314W        W35574  22.448  18.827   0.338
70315W        W35575  24.091  13.504  11.587
70316W        W35576  16.154   5.713   3.713
70317W        W35577  26.378   5.584  11.713
70318W        W35578  11.395  44.803  13.870
70319W        W35579  30.128   7.651  14.848
70320W        W35580  39.920  25.526   4.151
70321W        W35581  15.881  15.815  12.006
70322W        W35582  33.609   2.232  10.618
70323W        W35583  42.433  31.141   4.125
70324W        W35584  31.089   2.729   2.634
70325W        W35585   6.731   8.889   0.833
70326W        W35586  29.892  41.545   0.231
70327W        W35587   2.686  35.661  13.311
70328W        W35588  40.912   0.023  14.929
70329W        W35589   0.380  19.445   2.696
70330W        W35590  23.144   5.711  11.703
70331W        W35591  21.282   0.290   3.207
70332W        W35592  36.097  24.894   1.628
70333W        W35593  23.386  16.678   4.142
70334W        W35594   6.335   7.312  12.332
70335W        W35595  40.877  32.835  10.813
70336W        W35596  29.956  25.813   1.171
70337W        W35597  29.581   0.259  13.096
70338W        W35598  11.680  38.685  12.117
70339W        W35599  21.689  18.525   1.870
70340W        W35600  38.546   7.840  14.920
70341W        W35601   7.588   4.287  13.477
70342W        W35602  10.462  12.334  13.455
70343W        W35603   1.013   3.239   2.382
70344W        W35604  36.053  12.295   3.308
70345W        W35605  22.199  24.800  13.818
70346W        W35606   2.862  31.718   3.721
70347W        W35607   5.427   2.462   3.104
70348W        W35608   7.678   8.883   4.702
70349W        W35609  23.522   0.894   1.873
70350W        W35610  24.925   0.047   0.456
70351W        W35611  21.777  18.490   3.405
70352W        W35612   2.200  18.346  12.105
70353W        W35613  21.593  12.267  11.217
70354W        W35614  22.675   5.667   0.263
70355W        W35615  22.722  28.923   0.418
70356W        W35616  20.722  27.232   1.759
70357W        W35617   1.650  31.937   4.143
70358W        W35618  18.335  25.701   0.719
70359W        W35619  21.608  28.274  12.500
70360W        W35620   2.822  40.107  13.464
70361W        W35621   9.378  15.653   1.144
70362W        W35622  22.754  44.302  14.984
70363W        W35623  30.960  11.259  14.907
70364W        W35624   2.986  42.959  11.672
70365W        W35625  42.507   9.224  14.817
70366W        W35626  10.229  23.265   2.210
70367W        W35627  20.227  31.143  14.800
70368W        W35628  22.970  26.085   4.132
70369W        W35629   4.639   2.337   4.416
70370W        W35630  15.021  44.238  10.240
70371W        W35631  42.049  33.470  10.475
70372W        W35632  29.341  14.520   4.130
70373W        W35633  38.298  15.757   2.660
70374W        W35634  29.745   3.423  14.280
70375W        W35635   3.745  36.166  12.829
70376W        W35636  37.509  17.175   1.001
70377W        W35637  22.148  40.363  12.451
70378W        W35638  43.047  25.964   1.357
70379W        W35639  31.093  37.306  13.928
70380W        W35640  29.216  16.098  11.910
70381W        W35641   7.646  37.009  12.071
70382W        W35642  30.312  39.715   4.173
70383W        W35643  12.710  12.283  13.345
70384W        W35644  26.998  24.565  13.848
70385W        W35645  12.252  19.810   2.178
70386W        W35646   5.318  18.727  11.548
70387W        W35647  38.440  37.864   4.610
70388W        W35648  38.649   9.377  11.632
70389W        W35649  12.861   7.847  12.907
70390W        W35650  25.957   0.731  12.669
70391W        W35651  11.184  42.334   3.694
70392W        W35652  24.674  34.613  13.064
70393W        W35653  31.148  35.777  14.308
70394W        W35654  23.171  43.818   2.328
70395W        W35655  20.195  37.908  13.620
70396W        W35656  21.294  13.059  10.774
70397W        W35657  24.601  10.416  12.503
70398W        W35658  19.611   3.279   4.521
70399W        W35659  23.716  39.058  11.093
70400W        W35660  40.876   6.486  13.819
70401W        W35661  41.841  39.299  12.498
70402W        W35662  25.763  12.403  13.987
70403W        W35663  29.864  11.216   0.802
70404W        W35664   1.912   6.243  11.544
70405W        W35665   2.966  10.790  11.591
70406W        W35666  44.247  42.246   0.751
70407W        W35667   5.344  24.610   4.998
70408W        W35668   3.215  24.953  13.554
70409W        W35669  44.095   4.692   1.181
70410W        W35670   0.285  41.740   3.297
70411W        W35671   6.881  37.421  12.508
70412W        W35672   1.965  29.609   1.403
70413W        W35673  12.699   2.328  13.539
70414W        W35674  22.088  42.520  10.561
70415W        W35675   7.716   2.643  10.752
70416W        W35676  30.383  31.506  12.685
70417W        W35677   6.117  33.893   4.512
70418W        W35678   6.398  35.338  11.901
70419W        W35679  26.952  36.142   2.275
70420W        W35680   9.708  30.917  14.842
70421W        W35681  26.828  41.317   2.718
70422W        W35682  34.150   9.307   2.740
70423W        W35683  37.007  25.100   2.883
70424W        W35684  44.519  18.575  13.249
70425W        W35685  24.741  25.150   0.892
70426W        W35686   7.472   6.635  11.089
70427W        W35687  13.317  12.187  12.564
70428W        W35688  38.911  14.594   4.378
70429W        W35689  28.903  11.110   1.403
70430W        W35690  20.774   1.981  14.516
70431W        W35691  28.491  40.756  11.581
70432W        W35692   9.097  35.363  14.397
70433W        W35693  27.508  12.131   1.657
70434W        W35694  16.562  21.650   0.363
70435W        W35695  23.080   5.750  13.200
70436W        W35696   9.917  29.428   0.984
70437W        W35697  27.446  15.129  13.249
70438W        W35698  16.468  44.021  10.494
70439W        W35699   6.429  43.118   1.943
70440W        W35700  43.722  37.520  12.150
70441W        W35701  10.306  37.278   4.136
70442W        W35702  36.662  14.202   2.413
70443W        W35703  32.988  35.792   1.238
70444W        W35704  15.203  12.535   0.486
70445W        W35705  36.924   4.763   1.312
70446W        W35706  30.668  36.568   2.053
70447W        W35707   6.945  36.826   4.915
70448W        W35708  23.945  24.550   2.795
70449W        W35709  13.543  43.975   1.690
70450W        W35710  29.433  35.089  10.797
70451W        W35711  39.197  26.626   2.810
70452W        W35712   8.663   5.229   4.507
70453W        W35713  25.185  24.153  14.519
70454W        W35714  11.209   5.929  14.683
70455W        W35715  26.022   2.494  12.436
70456W        W35716   0.417   6.156  12.524
70457W        W35717   1.312   9.376  12.486
70458W        W35718   8.926  22.796   2.233
70459W        W35719  26.412  19.493   0.804
70460W        W35720  16.283   5.662   1.292
70461W        W35721  27.545  31.906  11.371
70462W        W35722  39.186  22.838  11.503
70463W        W35723  22.547  41.244  11.668
70464W        W35724  29.200   1.619   5.071
70465W        W35725  19.714  39.580   4.129
70466W        W35726   3.453   0.394  13.852
70467W        W35727  13.097  38.545  14.380
70468W        W35728  18.107  16.656  12.996
70469W        W35729   1.060  36.964  13.258
70470W        W35730  41.336  21.815  11.517
70471W        W35731  41.072  22.722   5.050
70472W        W35732  39.864  42.960  14.278
70473W        W35733   0.454  21.880  11.022
70474W        W35734   9.505   4.444  13.062
70475W        W35735   9.910  24.989  14.327
70476W        W35736  30.431  36.813   3.249
70477W        W35737  27.895  41.447   3.683
70478W        W35738   9.797   5.832  14.329
70479W        W35739  43.736   0.904  14.977
70480W        W35740   8.616  11.990  12.379
70481W        W35741  31.488   5.969   0.288
70482W        W35742   9.972  43.572  12.634
70483W        W35743  14.196  37.642   0.368
70484W        W35744   9.637   3.541   0.757
70485W        W35745   8.931  19.980  13.823
70486W        W35746  25.268  17.390   4.082
70487W        W35747  25.721  43.397  12.847
70488W        W35748  32.367   9.073   3.179
70489W        W35749  20.453  12.159  11.492
70490W        W35750  34.623  42.023   1.485
70491W        W35751   5.149  24.617  13.346
70492W        W35752   5.473   1.179   1.819
70493W        W35753  23.765  23.539  11.774
70494W        W35754  29.570  29.166   2.354
70495W        W35755   5.311   1.200  10.093
70496W        W35756   4.828  21.703  12.893
70497W        W35757  11.814  25.088   1.759
70498W        W35758  36.327   5.279  10.548
70499W        W35759   7.389  39.814   1.707
70500W        W35760  30.962  11.590  10.931
70501W        W35761  39.429  28.880  13.862
70502W        W35762  12.593   0.528   3.919
70503W        W35763  15.064   3.941  11.126
70504W        W35764  43.542  34.532  14.738
70505W        W35765  39.922   7.849  13.055
70506W        W35766  23.737  27.453   1.836
70507W        W35767  17.279   3.674   2.205
70508W        W35768  35.128   4.862  13.317
70509W        W35769  34.843  13.100   1.213
70510W        W35770  15.561  19.557   0.113
70511W        W35771   8.782  26.247   0.707
70512W        W35772  13.087  19.068   1.128
70513W        W35773  29.848   4.437   3.608
70514W        W35774  20.647  30.925   4.108
70515W        W35775  13.703  25.390   1.754
70516W        W35776  17.063  28.183   4.677
70517W        W35777  25.993   6.248   0.290
70518W        W35778   2.063  36.033   0.263
70519W        W35779   7.864  42.403   1.221
70520W        W35780  38.593  24.775  13.652
70521W        W35781   1.362  40.099   0.070
70522W        W35782  39.242   7.577   4.133
70523W        W35783  16.917  16.350   2.330
70524W        W35784  11.103   1.849  11.013
70525W        W35785  36.753  40.630  13.840
70526W        W35786  19.161  19.543  14.059
70527W        W35787  36.991   8.115  11.678
70528W        W35788   8.225  26.372  14.671
70529W        W35789  13.445  19.357  14.469
70530W        W35790  10.977  35.115   3.846
70531W        W35791  28.413   8.872  11.226
70532W        W35792  13.800   2.919   0.803
70533W        W35793  39.617  18.292   3.461
70534W        W35794  32.712  35.819  13.644
70535W        W35795   2.903  10.149   2.863
70536W        W35796  31.402  34.179   0.731
70537W        W35797  31.695  11.716  13.407
70538W        W35798  20.563   2.921  11.146
70539W        W35799  10.662  35.423   1.257
70540W        W35800  35.184  17.726  13.369
70541W        W35801  13.249  33.855   3.783
70542W        W35802  43.768  36.486   2.828
70543W        W35803   3.298  43.474   1.399
70544W        W35804  30.021  34.809  13.084
70545W        W35805  38.453  39.368   3.987
70546W        W35806   7.709   0.454   1.513
70547W        W35807   4.587   0.762  11.825
70548W        W35808  24.559  36.917  13.960
70549W        W35809  31.199   6.802  14.757
70550W        W35810  15.293  33.903  14.890
70551W        W35811  38.077  43.952  14.391
70552W        W35812  24.592  15.107   0.127
70553W        W35813  17.507  27.105  13.419
70554W        W35814  21.526   5.676   2.586
70555W        W35815  27.390   8.804  13.746
70556W        W35816  13.550  31.361   0.034
70557W        W35817  44.016  11.466   3.995
70558W        W35818  37.416  31.794  10.241
70559W        W35819  25.557  41.535  11.624
70560W        W35820  35.901  23.687  13.454
70561W        W35821  16.760  22.046  13.168
70562W        W35822  44.716  21.569   3.163
70563W        W35823  16.738  37.078   0.475
70564W        W35824  37.789   1.834   2.675
70565W        W35825  11.149  24.096   0.746
70566W        W35826  27.690  36.517  13.525
70567W        W35827  17.367  22.610  10.840
70568W        W35828  42.155  34.134  14.262
70569W        W35829   1.580  33.782   1.307
70570W        W35830  11.517  22.771  11.201
70571W        W35831   9.527  24.492   2.242
70572W        W35832   7.742  24.075   2.751
70573W        W35833  13.114  35.448   2.838
70574W        W35834  15.346  42.519   2.722
70575W        W35835  43.966  28.566   2.751
70576W        W35836  40.743  15.255  13.546
70577W        W35837  24.213  28.737   0.796
70578W        W35838  35.877   8.793  11.650
70579W        W35839  33.412  36.553  11.964
70580W        W35840  43.113  37.325   1.456
70581W        W35841  14.599  28.001  13.543
70582W        W35842  39.033  35.296  11.505
70583W        W35843  40.657  28.155  12.507
70584W        W35844   1.473   2.253   2.303
70585W        W35845  44.516  37.618   2.428
70586W        W35846  31.491  24.259   4.161
70587W        W35847  23.505   6.738   3.639
70588W        W35848  29.013  11.818  12.456
70589W        W35849  33.599  35.508  13.843
70590W        W35850   2.460  33.906   1.370
70591W        W35851  44.176  41.646  12.531
70592W        W35852   2.706  30.897  10.638
70593W        W35853  19.112  42.221   0.766
70594W        W35854  19.283  36.491  12.516
70595W        W35855  14.619  42.277  13.786
70596W        W35856  30.000  44.638   1.016
70597W        W35857  15.705  21.843  11.617
70598W        W35858   0.549  41.945  11.983
70599W        W35859   6.884  16.602  11.165
70600W        W35860  17.247   7.855   3.621
70601W        W35861  19.496  29.214  13.997
70602W        W35862  13.719  10.205   1.885
70603W        W35863  38.894   0.341   2.503
70604W        W35864  37.880  44.201   3.223
70605W        W35865  25.489  20.682   1.757
70606W        W35866   4.333  31.434  13.078
70607W        W35867  28.527   2.508   3.442
70608W        W35868  18.043  28.900  14.352
70609W        W35869  37.709  29.280   4.136
70610W        W35870  17.249  44.430   2.232
70611W        W35871   6.910  22.623   4.891
70612W        W35872  18.328  34.949   1.489
70613W        W35873  11.592  38.153  13.016
70614W        W35874   6.666  40.620   1.103
70615W        W35875   8.258  39.495  12.089
70616W        W35876  34.494   3.686  13.964
70617W        W35877   0.190  39.182   4.449
70618W        W35878  25.078  26.081  14.294
70619W        W35879   6.807  21.790  14.680
70620W        W35880  44.851  37.069  12.050
70621W        W35881   3.696  10.023  14.951
70622W        W35882  36.507   2.310  13.086
70623W        W35883   3.085  43.336  12.711
70624W        W35884  12.687   5.643   0.440
70625W        W35885  14.334  23.061   3.850
70626W        W35886  36.701   5.654  14.381
70627W        W35887   1.134  10.626  11.022
70628W        W35888  12.727  23.264  10.783
70629W        W35889  11.843   6.858   1.988
70630W        W35890  13.219  19.469  14.941
70631W        W35891   6.411   2.374  14.731
70632W        W35892  10.740  37.305   0.518
70633W        W35893  14.032  16.076  10.671
70634W        W35894  27.641   8.202   3.297
70635W        W35895  37.595  23.091   3.883
70636W        W35896  38.908  44.219   4.106
70637W        W35897  32.560  40.429  13.869
70638W        W35898  24.810   9.111   2.132
70639W        W35899  10.636  40.861   0.665
70640W        W35900  39.837  15.962  11.488
70641W        W35901  12.200  19.436   3.106
70642W        W35902  35.458  22.144   2.083
70643W        W35903  36.847   5.385  13.617
70644W        W35904  15.297  38.095  11.949
70645W        W35905  38.776   7.208  14.282
70646W        W35906  37.354  41.504   0.819
70647W        W35907  23.926  10.295   0.824
70648W        W35908  31.850  20.356   2.684
70649W        W35909  16.794  18.483   0.703
70650W        W35910   2.765  44.890   1.179
70651W        W35911  34.365  19.361  13.423
70652W        W35912   9.897  16.816  13.825
70653W        W35913  43.419  20.692  10.635
70654W        W35914   3.418  33.732   2.117
70655W        W35915   3.969  12.856  14.449
70656W        W35916  29.693  13.331  11.695
70657W        W35917  23.264   6.684  14.872
70658W        W35918   3.328  23.090   1.086
70659W        W35919  28.161  38.225  12.648
70660W        W35920   8.717  41.427   3.315
70661W        W35921  10.151   6.771   2.724
70662W        W35922   7.789  42.285  14.922
70663W        W35923   8.200  27.586  14.490
70664W        W35924  36.623   7.819  12.887
70665W        W35925  28.853  31.586  11.642
70666W        W35926   0.027  20.858  11.182
70667W        W35927  24.616  26.654  11.377
70668W        W35928  34.656  41.876  14.217
70669W        W35929  44.847   2.517   0.048
70670W        W35930  18.075   8.468   2.846
70671W        W35931  19.473  15.514   4.149
70672W        W35932  29.245  38.823  10.031
70673W        W35933  32.043   1.057   4.337
70674W        W35934  23.522  11.351   0.758
70675W        W35935   9.370  31.669   0.758
70676W        W35936  39.481  27.098  14.289
70677W        W35937   2.550  36.861   0.273
70678W        W35938  26.413  10.254   4.633
70679W        W35939  15.310  27.922   0.191
70680W        W35940  44.816  31.451   1.254
70681W        W35941  20.748  18.292  11.525
70682W        W35942   4.874  40.498  11.205
70683W        W35943   2.657  40.816  11.631
70684W        W35944  16.194  30.159  11.131
70685W        W35945   5.701  26.017  13.559
70686W        W35946   2.041  39.118   0.825
70687W        W35947   3.959  41.431   4.200
70688W        W35948  12.194  28.867   3.533
70689W        W35949  11.739   0.461  11.122
70690W        W35950  32.208  36.499  13.393
70691W        W35951  33.168  14.848   0.384
70692W        W35952  23.087   3.690   4.973
70693W        W35953  28.848  15.898  11.059
70694W        W35954  43.863  14.373   3.111
70695W        W35955  42.036  12.491   2.810
70696W        W35956  17.790  29.141   4.491
70697W        W35957   7.642  29.433   2.523
70698W        W35958   2.801  10.192   3.661
70699W        W35959  31.839  20.052   0.935
70700W        W35960  33.463  35.220   4.017
70701W        W35961  17.028  17.221   4.189
70702W        W35962  26.713   8.197   0.999
70703W        W35963  30.063  38.218  14.781
70704W        W35964  16.296  14.131   2.203
70705W        W35965  21.691  18.489   2.894
70706W        W35966  20.779  13.805  13.899
70707W        W35967  25.609  39.036   3.860
70708W        W35968   1.243  23.081   1.869
70709W        W35969   4.370  28.940   3.030
70710W        W35970  28.324   7.986   0.184
70711W        W35971  17.290   5.948  11.734
70712W        W35972  30.920  32.113  13.978
70713W        W35973  21.923  22.884  14.877
70714W        W35974  42.666  13.119   0.020
70715W        W35975   1.576  33.012   0.810
70716W        W35976  22.148   1.215   2.665
70717W        W35977  36.289  14.338   3.677
70718W        W35978   6.924  25.590   3.705
70719W        W35979  40.380  26.620  10.621
70720W        W35980  22.574  40.064  12.356
70721W        W35981  26.563   6.682   0.986
70722W        W35982  22.249  34.971  12.345
70723W        W35983  30.964  44.785  13.884
70724W        W35984   8.949  41.419  11.475
70725W        W35985  16.392  19.369   3.406
70726W        W35986  40.219   9.948   3.594
70727W        W35987   2.866   9.218   3.619
70728W        W35988  10.746  37.010   4.074
70729W        W35989  17.226   9.716   2.085
70730W        W35990  30.595  43.087   4.202
70731W        W35991  42.315  37.136   4.193
70732W        W35992   0.770  21.752   3.711
70733W        W35993  37.032  26.064   3.247
70734W        W35994  22.830  12.962  11.700
70735W        W35995  37.030  16.523  11.010
70736W        W35996  38.325  22.281   2.675
70737W        W35997  19.347  37.504   3.338
70738W        W35998  11.217  23.555   2.240
70739W        W35999  27.225  13.877  12.893
70740W        W36000  20.099  26.695   2.364
70741W        W36001   7.775  26.134  13.525
70742W        W36002  41.190  31.045  14.797
70743W        W36003  29.426  28.955   4.746
70744W        W36004  12.800   5.650  11.097
70745W        W36005  16.602  21.623  12.917
70746W        W36006  10.516  11.589  11.549
70747W        W36007  10.562   7.891   0.108
70748W        W36008  40.374   8.881   1.741
70749W        W36009  26.647   8.937  10.508
70750W        W36010  25.703  42.278   0.819
70751W        W36011  22.142  39.347  10.445
70752W        W36012   7.137  43.976  12.851
70753W        W36013  43.774  43.031  11.980
70754W        W36014   9.700   7.875   0.466
70755W        W36015   7.198  43.215  11.188
70756W        W36016  23.933  33.513   2.794
70757W        W36017  12.245  30.821  10.744
70758W        W36018  18.270   4.669  12.901
70759W        W36019  27.733  21.198   2.851
70760W        W36020   3.690  30.110   1.025
70761W        W36021  15.075  19.698  10.207
70762W        W36022  16.747  20.024   2.733
70763W        W36023  14.217  43.437   3.564
70764W        W36024   9.708  24.668  13.365
70765W        W36025  14.785  10.586  14.316
70766W        W36026  43.532   8.015   4.104
70767W        W36027  34.294  31.498   2.954
70768W        W36028   7.886  20.836   2.864
70769W        W36029  31.381   3.409  12.557
70770W        W36030  21.219  14.209   3.403
70771W        W36031  40.065  12.395   4.447
70772W        W36032  21.230   1.907  13.631
70773W        W36033  41.441  21.955  14.508
70774W        W36034  32.379  23.822  11.859
70775W        W36035  32.518  41.313   2.380
70776W        W36036  40.445   1.103  12.421
70777W        W36037  24.410  11.872  12.556
70778W        W36038  18.716  25.971   0.487
70779W        W36039  39.896  10.299  13.469
70780W        W36040  18.804  19.092   0.237
70781W        W36041  31.120  23.253   3.124
70782W        W36042   6.591   2.671   4.900
70783W        W36043  12.070  10.240   3.538
70784W        W36044  12.440  13.549  13.934
70785W        W36045  28.016  10.264   0.866
70786W        W36046  30.422  18.313  14.415
70787W        W36047   3.706   1.813  11.603
70788W        W36048  16.243  30.381  13.790
70789W        W36049   3.871   0.394  10.254
70790W        W36050   3.961  31.815   1.723
70791W        W36051   9.915   2.930   1.681
70792W        W36052  11.173  13.356   4.590
70793W        W36053   6.264  14.397   5.072
70794W        W36054   3.344  23.594   0.903
70795W        W36055   6.013  30.709   2.281
70796W        W36056   8.142  31.618  13.412
70797W        W36057   5.265  36.123   0.703
70798W        W36058   8.731  19.575   2.211
70799W        W36059  42.935  43.173   0.787
70800W        W36060  15.117   1.217   1.827
70801W        W36061   0.725  28.199   2.591
70802W        W36062  41.075  18.112   4.208
70803W        W36063  24.528  36.095  12.219
70804W        W36064  25.975  24.506  11.663
70805W        W36065  31.353   1.788   3.190
70806W        W36066   4.848   9.992  14.528
70807W        W36067  36.134  31.121   4.160
70808W        W36068  28.513  44.115   4.109
70809W        W36069  24.716  10.177  10.655
70810W        W36070   6.650  24.091   2.864
70811W        W36071  34.390  31.044   1.191
70812W        W36072   0.007  35.830  14.018
70813W        W36073  18.775  43.070   5.098
70814W        W36074  15.068   8.789  13.856
70815W        W36075  15.729  25.247   3.594
70816W        W36076  24.435   8.456  11.256
70817W        W36077   2.444  17.021   5.059
70818W        W36078   1.002  11.082  12.590
70819W        W36079  12.188  36.083  13.614
70820W        W36080  33.386  35.899  10.479
70821W        W36081  41.871  41.760  14.941
70822W        W36082  29.693  44.231  13.412
70823W        W36083  36.350  25.086  12.067
70824W        W36084  40.510  10.308   3.819
70825W        W36085  29.048  23.604   1.908
70826W        W36086  34.577  40.824   0.079
70827W        W36087  13.171  21.132  11.279
70828W        W36088  39.270  36.457  12.620
70829W        W36089  37.461  11.914   3.308
70830W        W36090   5.738  30.512   1.113
70831W        W36091  29.478   7.146   2.379
70832W        W36092  17.761  38.833  10.536
70833W        W36093   1.042  42.204   2.167
70834W        W36094   0.560  17.875   0.318
70835W        W36095   9.343  35.851  13.660
70836W        W36096  26.554  24.016   1.268
70837W        W36097  42.957  43.428  12.142
70838W        W36098  36.578   1.779  14.893
70839W        W36099  15.139  36.104   4.278
70840W        W36100  10.285   0.440  14.959
70841W        W36101  12.666  36.112   1.720
70842W        W36102  13.819  36.935  14.885
70843W        W36103  40.560   2.227   4.168
70844W        W36104   8.325  15.696   4.561
70845W        W36105   3.829  44.158  10.626
70846W        W36106  32.575  31.939   4.165
70847W        W36107  33.445   8.897  13.367
70848W        W36108  20.508   0.030   1.730
70849W        W36109  35.571  36.503  13.359
70850W        W36110  30.537  29.578  12.467
70851W        W36111  43.978   3.447   2.241
70852W        W36112   7.639  30.328   3.907
70853W        W36113  42.364  40.610  11.664
70854W        W36114  20.252   4.676   3.684
70855W        W36115  23.193  27.755  10.877
70856W        W36116  14.740  22.423  10.709
70857W        W36117  32.057  24.762  11.191
70858W        W36118  43.803  20.076  12.689
70859W        W36119  40.069  36.029  13.496
70860W        W36120   8.266  33.861  11.084
70861W        W36121  28.736   2.951  14.904
70862W        W36122  42.889  38.149  11.109
70863W        W36123  36.204  37.472   1.347
70864W        W36124   6.175  20.245  11.844
70865W        W36125   8.424   8.666  13.597
70866W        W36126  36.161  34.964   2.700
70867W        W36127  24.292  29.695  11.108
70868W        W36128  13.913  32.109  10.695
70869W        W36129  42.569  21.326  14.694
70870W        W36130  12.241  27.602  13.262
70871W        W36131  30.016   4.720  12.519
70872W        W36132  16.529  31.493  13.257
70873W        W36133  22.024  16.727   0.999
70874W        W36134  30.233  14.704   4.662
70875W        W36135   8.181  27.253   1.739
70876W        W36136  43.690   9.052   1.951
70877W        W36137   9.709  11.704  12.898
70878W        W36138  17.796  31.004   3.846
70879W        W36139  21.567  41.502  14.920
70880W        W36140  40.860   6.343   1.311
70881W        W36141  20.277  15.586  14.264
70882W        W36142  26.685  12.554  10.679
70883W        W36143   6.362  10.175   4.052
70884W        W36144  20.542  20.657  13.637
70885W        W36145  36.846  43.331  13.027
70886W        W36146  43.020  37.888  14.915
70887W        W36147  25.992   8.777   3.758
70888W        W36148  19.315  31.970  13.425
70889W        W36149  26.987  37.404  13.499
70890W        W36150   9.585  34.534  12.894
70891W        W36151  18.596  27.158   3.428
70892W        W36152  39.896  16.887  11.262
70893W        W36153  40.967  41.457  13.027
70894W        W36154  10.918   6.349   1.760
70895W        W36155  19.068  37.906  14.927
70896W        W36156  30.653  12.356   2.011
70897W        W36157  30.420   1.069  11.889
70898W        W36158  27.668  25.671  14.717
70899W        W36159  10.627  43.956  13.962
70900W        W36160  41.447  43.698   4.708
70901W        W36161  33.412  21.311   3.589
70902W        W36162  30.431  44.897   4.176
70903W        W36163  18.679  17.512  13.078
70904W        W36164   4.231   1.387   0.292
70905W        W36165   5.632  23.313  14.941
70906W        W36166  44.584   6.778   0.916
70907W        W36167  26.164  26.567   1.929
70908W        W36168  33.501  10.937   3.173
70909W        W36169  12.865  10.791  10.711
70910W        W36170   2.799  42.904  14.329
70911W        W36171  35.367  11.841   1.818
70912W        W36172   0.741  43.378  11.855
70913W        W36173  12.816  34.070   3.631
70914W        W36174  43.759  14.316  11.208
70915W        W36175  18.527  23.643   3.337
70916W        W36176   3.757  17.823  14.555
70917W        W36177  24.655  19.215   0.965
70918W        W36178  15.650  21.405   4.096
70919W        W36179  36.746  17.369   2.229
70920W        W36180   5.552   6.104  14.436
70921W        W36181  19.262  40.646  11.182
70922W        W36182  21.673  29.452   1.995
70923W        W36183   1.554   9.102  13.447
70924W        W36184  43.297  19.842   3.258
70925W        W36185   6.217   2.273  11.621
70926W        W36186  31.550   7.969   2.679
70927W        W36187  41.799   8.563  11.195
70928W        W36188  20.766  41.025   0.799
70929W        W36189  27.448  37.092   1.398
70930W        W36190  33.438  40.738   4.121
70931W        W36191  34.977  23.414   0.164
70932W        W36192  15.303  30.137  12.840
70933W        W36193  39.325  26.949  13.386
70934W        W36194   3.001  15.681  13.952
70935W        W36195  21.481  28.009  14.761
70936W        W36196   5.219  30.065  13.411
70937W        W36197  40.301  38.645   3.873
70938W        W36198  29.428  12.800   3.579
70939W        W36199  16.253  36.879   0.345
70940W        W36200  42.829  15.333   3.284
70941W        W36201  38.269  24.572  13.990
70942W        W36202  31.892   2.844   0.472
70943W        W36203  39.202   2.989   3.866
70944W        W36204  17.130  38.889   4.142
70945W        W36205  33.151  23.037   3.341
70946W        W36206   6.214  41.914   0.465
70947W        W36207   6.381  35.808  11.662
70948W        W36208  20.078  38.644  13.805
70949W        W36209  13.239  17.398   3.619
70950W        W36210  25.501   0.054  11.501
70951W        W36211  26.176  13.875   4.551
70952W        W36212  30.907  32.116   0.393
70953W        W36213  19.528   0.874   2.240
70954W        W36214  25.965   3.781  12.882
70955W        W36215   0.232   0.791  14.976
70956W        W36216  22.010   8.894  14.383
70957W        W36217   1.263  29.074  13.735
70958W        W36218   5.958  44.952  11.701
70959W        W36219  25.021  12.212   0.890
70960W        W36220  44.455  26.740  13.926
70961W        W36221   0.053  29.096   3.132
70962W        W36222  24.724   9.456   4.730
70963W        W36223  10.111  41.576   3.733
70964W        W36224  43.842  42.540  11.030
70965W        W36225  14.304  38.158   0.401
70966W        W36226  16.193  43.951   0.964
70967W        W36227  42.261  15.464  12.474
70968W        W36228  43.830  32.437   1.368
70969W        W36229  22.768  20.954  14.550
70970W        W36230  25.902  41.902   4.470
70971W        W36231  16.330  13.874  14.830
70972W        W36232  21.455  26.197  12.565
70973W        W36233  40.537  34.714   0.851
70974W        W36234   7.017  41.433  13.369
70975W        W36235  17.625   9.217   3.188
70976W        W36236  23.939  43.270   0.630
70977W        W36237   1.062  43.539  14.831
70978W        W36238  40.294  14.057  11.491
70979W        W36239   3.195  29.382   3.731
70980W        W36240  41.029   3.314   3.649
70981W        W36241  25.208  21.834   4.146
70982W        W36242  30.580  24.670  12.535
70983W        W36243  37.706  24.485  11.905
70984W        W36244  13.606  30.491  14.774
70985W        W36245   7.779   1.902   9.772
70986W        W36246   6.758  21.770  12.515
70987W        W36247  43.575  30.161   3.120
70988W        W36248  40.390  12.732   0.646
70989W        W36249  14.559   3.704  11.014
70990W        W36250  29.542  15.432   5.144
70991W        W36251  21.268  37.575   0.343
70992W        W36252  29.381  44.778  11.424
70993W        W36253  20.239   0.509   0.717
70994W        W36254  24.697  28.201   0.363
70995W        W36255  23.632  34.104   4.240
70996W        W36256  20.256  24.615   3.432
70997W        W36257   1.687  22.192   2.589
70998W        W36258  38.383  44.565   0.503
70999W        W36259  25.562  10.638  14.458
71000W        W36260  21.531  26.201   3.664
71001W        W36261  27.001  30.219   1.294
71002W        W36262  44.999   0.515   0.377
71003W        W36263  34.412   2.926   2.364
71004W        W36264   8.212  15.422   3.244
71005W        W36265  25.937  40.246  10.854
71006W        W36266  36.619  32.324  10.948
71007W        W36267  29.075   0.060  11.052
71008W        W36268  30.645  16.403   1.059
71009W        W36269   8.323   1.804   0.405
71010W        W36270  36.374  18.765   3.936
71011W        W36271   3.882  17.005  13.749
71012W        W36272  19.199  20.623  10.686
71013W        W36273  14.793  23.293  12.944
71014W        W36274  37.869  28.991  11.551
71015W        W36275   2.829  36.007  14.215
71016W        W36276   6.951  14.422  14.973
71017W        W36277  21.323  40.282  10.678
71018W        W36278   2.100  10.232  10.194
71019W        W36279  20.641  27.639   2.686
71020W        W36280  32.643  30.388   0.277
71021W        W36281  39.452  20.575  10.697
71022W        W36282  33.375  25.743  14.870
71023W        W36283  42.486   3.533   3.688
71024W        W36284  42.689   6.149   3.377
71025W        W36285  17.299  32.987  14.565
71026W        W36286  23.354  20.226   2.623
71027W        W36287  30.933   4.368   3.644
71028W        W36288  26.147  39.347   5.059
71029W        W36289  15.971   9.163  12.901
71030W        W36290  32.755  14.299  14.431
71031W        W36291  19.251  29.586   4.138
71032W        W36292   8.673  23.454   0.459
71033W        W36293  29.027  22.215  14.514
71034W        W36294  31.515  19.711   2.110
71035W        W36295   7.683  12.242  11.456
71036W        W36296  41.084  34.815   4.275
71037W        W36297   8.310  24.757   1.719
71038W        W36298  36.775  20.123   0.087
71039W        W36299  22.148  20.595   2.376
71040W        W36300   0.173   7.205  14.793
71041W        W36301  14.832   8.367   9.917
71042W        W36302  21.216  36.852   3.716
71043W        W36303  25.007  17.311  11.970
71044W        W36304  43.090   7.658  11.160
71045W        W36305  11.702  16.777  14.808
71046W        W36306  18.523  17.761  11.575
71047W        W36307  43.236   3.964   0.189
71048W        W36308  33.589   0.991  11.642
71049W        W36309  12.748  39.595  11.936
71050W        W36310  42.367   0.416  13.122
71051W        W36311  16.063  18.662  11.570
71052W        W36312  19.608   0.931  10.778
71053W        W36313  29.794   1.486   4.305
71054W        W36314  43.348  15.357  13.979
71055W        W36315  27.581  17.707   4.432
71056W        W36316  12.250  20.149  11.147
71057W        W36317  39.627   3.045   3.584
71058W        W36318  21.146  15.740   4.669
71059W        W36319   9.566  39.485  13.645
71060W        W36320  32.653  17.353   1.281
71061W        W36321   2.698  17.028   4.571
71062W        W36322  36.040  41.302   3.497
71063W        W36323  31.632  32.458   2.404
71064W        W36324  35.163  25.123  13.360
71065W        W36325  37.505   4.474   2.304
71066W        W36326  11.835  11.927   4.117
71067W        W36327  12.470  44.709  11.867
71068W        W36328  26.211  10.857  13.700
71069W        W36329  37.914  10.257   3.870
71070W        W36330  34.401  14.859  13.910
71071W        W36331  43.295  37.957   0.354
71072W        W36332  14.888  17.051   0.769
71073W        W36333  32.915  22.823   1.476
71074W        W36334  17.900  24.444   4.175
71075W        W36335  17.610  23.068   1.405
71076W        W36336  30.354  44.875  13.085
71077W        W36337  28.560  21.407  10.270
71078W        W36338  15.615  14.306  12.463
71079W        W36339  29.432  38.703  13.620
71080W        W36340  36.495  11.294  14.728
71081W        W36341  20.005  33.499  11.661
71082W        W36342  30.896   0.873  10.607
71083W        W36343  14.829  39.823  13.558
71084W        W36344  25.054  14.732   3.652
71085W        W36345   0.928   5.946   4.090
71086W        W36346   9.179  30.888  12.492
71087W        W36347   5.445  33.480   3.885
71088W        W36348  22.616  27.461   4.591
71089W        W36349  44.436   1.239   4.174
71090W        W36350  31.973  27.194  12.933
71091W        W36351   3.430  20.310   2.564
71092W        W36352  24.039  18.990   1.932
71093W        W36353  42.385  32.595   4.551
71094W        W36354   5.890   1.271   3.026
71095W        W36355   3.905  44.346   1.741
71096W        W36356  31.262  22.402  12.976
71097W        W36357  33.536  39.315  14.708
71098W        W36358  14.280  25.572   0.375
71099W        W36359  42.319  22.443   4.521
71100W        W36360   7.523  44.199  12.578
71101W        W36361   8.851  40.251  10.965
71102W        W36362  35.831  43.795  10.250
71103W        W36363   7.740  40.232  13.906
71104W        W36364   6.678   2.002   3.085
71105W        W36365  11.221  30.530   0.200
71106W        W36366  38.012  13.269  10.527
71107W        W36367  28.401  24.923   2.793
71108W        W36368   2.851  36.516  14.994
71109W        W36369  42.064  17.841   4.560
71110W        W36370  43.831  26.304   0.898
71111W        W36371  37.218  31.887  12.860
71112W        W36372  38.363  26.625   1.004
71113W        W36373  39.317  27.658   0.481
71114W        W36374  20.761  41.865   4.286
71115W        W36375  43.767  34.157   3.836
71116W        W36376  12.046  36.506  11.598
71117W        W36377  13.883  44.864   3.690
71118W        W36378  23.668  14.719  13.642
71119W        W36379  35.571  39.379   0.247
71120W        W36380  38.128  18.315   1.824
71121W        W36381   2.512  38.434  11.157
71122W        W36382  21.214  22.865   4.917
71123W        W36383  30.588  31.365   3.370
71124W        W36384  29.405  26.876  14.581
71125W        W36385  44.994  22.428   0.817
71126W        W36386  44.247  26.581  10.933
71127W        W36387  40.759  44.804  13.753
71128W        W36388  31.855  40.014  12.913
71129W        W36389   6.383  16.911   0.821
71130W        W36390  37.389  33.381  12.646
71131W        W36391  41.501  33.568   0.602
71132W        W36392   6.305  24.941   1.939
71133W        W36393   3.973  28.088   1.693
71134W        W36394   9.156  11.613   3.797
71135W        W36395  24.696   2.300   4.191
71136W        W36396  34.012  11.405   3.761
71137W        W36397  16.018  37.310  10.254
71138W        W36398   1.764  31.579   0.126
71139W        W36399  18.716  27.648   4.731
71140W        W36400  20.742  36.237  13.831
71141W        W36401   0.723  18.540   0.358
71142W        W36402  14.614  33.048   0.709
71143W        W36403  28.772   1.296   1.683
71144W        W36404  33.864   1.167   0.471
71145W        W36405   1.635  37.675  10.699
71146W        W36406  31.073   4.442  12.988
71147W        W36407  42.831  18.097  14.006
71148W        W36408  37.533   1.675   1.836
71149W        W36409  40.316  17.600   3.195
71150W        W36410   2.260  11.760   3.188
71151W        W36411   0.492  30.595   4.263
71152W        W36412  39.579   6.523  12.349
71153W        W36413  38.373  14.929   4.790
71154W        W36414  15.622   5.244  10.093
71155W        W36415  23.466  32.904  10.234
71156W        W36416   3.163  39.875  11.420
71157W        W36417  39.153  29.432   0.529
71158W        W36418  27.547   8.211  10.678
71159W        W36419   4.760  43.787  12.053
71160W        W36420   0.443  16.787  12.865
71161W        W36421  11.743   6.299   0.406
71162W        W36422  13.331   9.468   2.239
71163W        W36423  38.515  35.093   4.215
71164W        W36424  42.310   4.774  14.362
71165W        W36425  40.051  42.508   0.009
71166W        W36426  34.144  19.619   3.673
71167W        W36427   2.976  36.926  13.987
71168W        W36428   2.844  39.002   3.055
71169W        W36429  16.242   5.978   4.632
71170W        W36430   7.550  17.615  14.600
71171W        W36431   6.613  39.263   3.311
71172W        W36432  26.463  20.631   2.909
71173W        W36433  38.268  24.176   2.329
71174W        W36434  16.427   2.072   3.603
71175W        W36435   9.450  38.541   0.308
71176W        W36436  10.151  40.256  14.000
71177W        W36437  17.552  30.552   3.696
71178W        W36438  34.010   2.018   0.804
71179W        W36439   9.776  29.975  14.527
71180W        W36440  11.715  33.757   4.687
71181W        W36441   8.432   7.341   3.544
71182W        W36442  39.959  28.730  12.028
71183W        W36443  24.757  43.089  10.608
71184W        W36444  29.023  29.050   3.933
71185W        W36445  27.974   4.754   0.068
71186W        W36446   8.838  10.108   3.220
71187W        W36447   4.347  15.216   4.582
71188W        W36448  44.033  33.927   3.242
71189W        W36449  24.523  30.878  11.551
71190W        W36450  34.503   8.362  10.849
71191W        W36451   7.211  22.756   1.231
71192W        W36452  31.344  35.802  12.488
71193W        W36453   9.532  27.529   9.903
71194W        W36454  41.758  35.989  12.544
71195W        W36455  27.120  26.444   0.871
71196W        W36456  25.087   4.262  12.957
71197W        W36457  39.582  14.220  12.626
71198W        W36458  39.526  31.923   4.087
71199W        W36459   1.851  13.533  14.857
71200W        W36460  27.475  10.254   0.860
71201W        W36461  33.860  12.868   3.378
71202W        W36462  38.161  35.371  11.201
71203W        W36463   7.566  35.185  11.927
71204W        W36464  38.724  10.897  12.389
71205W        W36465  13.169   6.688  14.479
71206W        W36466   0.734  33.952  13.178
71207W        W36467  36.419   8.810   3.583
71208W        W36468  19.733  37.468  13.838
71209W        W36469  27.025  12.375  13.068
71210W        W36470   3.600  19.288  14.974
71211W        W36471  13.262  32.852   1.290
71212W        W36472  43.872   2.583  13.075
71213W        W36473   3.676  16.241   1.440
71214W        W36474  41.597  37.914  12.491
71215W        W36475  36.943  28.179  13.125
71216W        W36476  43.929  25.231   0.707
71217W        W36477  33.527  23.298  12.489
71218W        W36478   3.286  21.182   1.338
71219W        W36479  16.297   4.849  11.160
71220W        W36480  34.977  15.892   4.150
71221W        W36481  25.201  18.224  13.917
71222W        W36482  39.663   4.537  13.627
71223W        W36483  43.590  19.620  12.531
71224W        W36484  12.673  18.732   4.161
71225W        W36485   5.739  35.023  12.887
71226W        W36486   8.293   7.360  14.100
71227W        W36487  17.049  10.733   3.710
71228W        W36488  30.258  18.517   0.443
71229W        W36489  26.202  30.065  11.003
71230W        W36490  40.584  33.351  12.918
71231W        W36491  36.324  44.451   1.309
71232W        W36492  24.014  12.726   0.343
71233W        W36493   4.005  36.186   1.206
71234W        W36494  31.146  14.797   3.222
71235W        W36495  15.419   1.365   1.387
71236W        W36496  43.507  29.532   2.725
71237W        W36497  31.563  16.556  12.018
71238W        W36498  34.830   8.613   1.957
71239W        W36499  24.638  25.452   3.666
71240W        W36500  13.422  15.772  12.503
71241W        W36501  44.966  41.533  12.941
71242W        W36502   0.059  17.162   3.601
71243W        W36503  40.688   8.659   5.093
71244W        W36504  25.769  11.675   0.212
71245W        W36505  28.006   0.788  10.773
71246W        W36506  17.820  44.452  13.142
71247W        W36507  39.157  39.084  14.883
71248W        W36508  25.944   1.744   4.134
71249W        W36509  41.399  43.427  13.436
71250W        W36510  29.040  34.898  11.456
71251W        W36511  14.646   0.271  11.779
71252W        W36512   7.268  16.285   4.414
71253W        W36513  25.958  10.504  13.374
71254W        W36514  34.349  27.484  11.249
71255W        W36515  42.858  13.323   4.378
71256W        W36516  39.065  32.892  11.024
71257W        W36517  18.920  30.329  14.991
71258W        W36518  42.235  34.998  14.448
71259W        W36519   8.625  40.888   3.304
71260W        W36520  10.829  10.128   4.017
71261W        W36521  41.152  12.712  12.464
71262W        W36522  29.650   4.907   3.622
71263W        W36523  30.626  10.888  11.090
71264W        W36524  16.740   9.449   2.730
71265W        W36525  42.287  20.241  11.741
71266W        W36526  16.651  28.556   2.603
71267W        W36527   7.681  15.728   0.763
71268W        W36528  11.897  36.354   0.681
71269W        W36529   7.483   5.303   4.298
71270W        W36530  23.092  21.239  14.239
71271W        W36531  20.119  18.607   4.652
71272W        W36532   2.762  22.189   0.893
71273W        W36533  15.687  32.717   0.088
71274W        W36534  43.081  30.421   2.960
71275W        W36535  42.012  22.038   0.172
71276W        W36536  17.058  28.009   0.609
71277W        W36537   5.885   8.301   1.454
71278W        W36538   6.793  11.364  12.861
71279W        W36539   1.124  24.278   4.527
71280W        W36540  18.859  15.296   2.140
71281W        W36541  37.566  12.719   1.401
71282W        W36542  40.196  25.129  13.925
71283W        W36543  11.130  10.217   4.444
71284W        W36544  22.570  33.779  12.037
71285W        W36545  39.360  10.217   0.279
71286W        W36546   6.321   5.546  14.955
71287W        W36547   3.723  35.743   1.318
71288W        W36548  22.679  24.015   1.347
71289W        W36549   9.118   9.117   2.449
71290W        W36550  43.624  38.404  12.201
71291W        W36551   4.913  35.163   2.687
71292W        W36552  36.820  30.878   1.850
71293W        W36553   6.180  14.707  11.900
71294W        W36554  27.675  28.646   4.117
71295W        W36555  26.501  13.645  14.581
71296W        W36556  12.745   1.131   3.348
71297W        W36557  42.231  14.386  11.243
71298W        W36558   5.692  10.716   3.755
71299W        W36559  19.556  37.907  14.733
71300W        W36560  19.253  38.857  10.539
71301W        W36561  44.270   0.745  12.905
71302W        W36562  20.516  12.224   4.041
71303W        W36563  17.987  37.281  14.825
71304W        W36564  10.775  15.126  11.917
71305W        W36565  38.918  18.255  10.076
71306W        W36566  20.638  39.567   4.186
71307W        W36567  15.466  29.165   3.645
71308W        W36568  12.864  29.537   1.344
71309W        W36569  24.685  12.608   3.112
71310W        W36570  22.127   2.486  11.315
71311W        W36571  18.414  16.159   2.393
71312W        W36572  23.171  24.459   3.603
71313W        W36573  40.788  12.335  12.495
71314W        W36574  24.684  24.887   4.474
71315W        W36575  31.180   4.847  12.462
71316W        W36576   3.914  42.943   2.909
71317W        W36577  42.976  29.085   2.444
71318W        W36578  44.119  41.432   3.737
71319W        W36579  17.508   8.241   0.977
71320W        W36580  13.842  34.589   3.311
71321W        W36581  34.205  10.765   2.841
71322W        W36582  25.919  12.791  12.507
71323W        W36583  38.945  30.614  13.075
71324W        W36584  18.615   3.847   3.650
71325W        W36585  14.100  20.683   1.174
71326W        W36586   9.086  28.698  12.057
71327W        W36587  29.624  36.474   2.709
71328W        W36588   2.726  10.207   1.478
71329W        W36589  24.652  31.705  14.733
71330W        W36590  43.388   0.434   9.646
71331W        W36591   6.968  38.645  12.050
71332W        W36592  16.275  36.369  10.680
71333W        W36593  34.571  24.150   1.652
71334W        W36594   8.553   3.208  13.385
71335W        W36595   6.542  30.367  10.093
71336W        W36596  12.374  34.863   3.837
71337W        W36597   4.513   6.139  13.396
71338W        W36598  20.748  35.961  10.672
71339W        W36599   8.164  13.260  12.123
71340W        W36600  23.211   3.189  11.169
71341W        W36601  27.081  19.791  14.472
71342W        W36602  15.228   6.861   9.434
71343W        W36603  17.536  16.138   3.455
71344W        W36604  36.626  36.435   3.703
71345W        W36605  37.928  40.103   4.063
71346W        W36606  28.508  33.763   4.591
71347W        W36607  41.408  29.002  14.764
71348W        W36608   8.328   6.788  10.667
71349W        W36609  13.861  42.889   2.629
71350W        W36610  42.580  15.585   4.101
71351W        W36611  15.508  10.719   4.612
71352W        W36612  41.016  23.658   2.134
71353W        W36613   0.010  21.645  11.789
71354W        W36614  34.287   9.423  10.659
71355W        W36615  36.339  44.030   2.297
71356W        W36616  24.500  29.149   2.680
71357W        W36617  19.201  33.358  13.818
71358W        W36618  20.044  16.028   4.202
71359W        W36619  18.197   5.243  14.025
71360W        W36620  29.463  17.144  14.316
71361W        W36621  11.239   2.287  11.267
71362W        W36622  14.686  40.958   0.483
71363W        W36623  19.693  32.641   0.374
71364W        W36624  29.176  37.115  11.103
71365W        W36625  29.183  18.737  12.038
71366W        W36626  40.570  16.116   5.309
71367W        W36627   4.396  15.245   0.311
71368W        W36628  30.915  43.459   2.635
71369W        W36629   3.303  12.426  11.481
71370W        W36630   6.415  24.834  11.059
71371W        W36631  38.633   0.243  14.899
71372W        W36632  42.010  18.281  12.593
71373W        W36633  42.703  44.079   0.474
71374W        W36634   7.830  19.260  14.041
71375W        W36635   0.967   6.468   2.292
71376W        W36636   9.742  36.397  10.581
71377W        W36637   8.272  17.463   0.947
71378W        W36638  17.537  13.793   1.874
71379W        W36639  30.696  31.892  12.622
71380W        W36640  30.032  12.222   4.682
71381W        W36641   2.377  10.456  12.034
71382W        W36642  20.384  20.861   4.559
71383W        W36643  17.145   9.733  14.409
71384W        W36644  31.322   1.269   1.824
71385W        W36645  37.022   5.004   1.776
71386W        W36646  13.669   5.094  12.266
71387W        W36647   2.960   3.219   1.295
71388W        W36648   5.411   5.950   2.862
71389W        W36649  38.589  34.354   0.660
71390W        W36650  44.521  13.877   5.039
71391W        W36651  44.270   8.600  13.400
71392W        W36652  24.806   7.622   9.760
71393W        W36653  30.603  21.274   0.245
71394W        W36654  21.198  39.359  12.978
71395W        W36655   1.229  42.906  13.802
71396W        W36656   5.092  15.168  14.833
71397W        W36657  21.043  13.011  11.615
71398W        W36658  11.792  19.668   4.549
71399W        W36659  16.130  25.633   0.756
71400W        W36660  40.580   9.196   1.104
71401W        W36661  11.355  40.392  13.334
71402W        W36662  40.587  34.352   2.121
71403W        W36663  27.488  18.607   1.716
71404W        W36664  31.929  37.764   4.551
71405W        W36665  15.264  12.615   3.156
71406W        W36666  38.481  15.205   2.744
71407W        W36667  35.996   4.256   1.449
71408W        W36668  25.956  34.020   4.192
71409W        W36669  41.913  28.390  12.784
71410W        W36670  30.471  41.503  11.575
71411W        W36671   8.821  33.178  13.318
71412W        W36672   0.011   5.240   1.426
71413W        W36673   3.295   3.293   0.025
71414W        W36674  30.914   1.650   1.827
71415W        W36675  13.145  26.106  11.484
71416W        W36676  27.965  28.372  11.028
71417W        W36677  41.578   8.186   2.299
71418W        W36678  44.472   5.876   0.810
71419W        W36679  13.278  41.045  14.054
71420W        W36680  22.528  35.881   0.534
71421W        W36681  38.501   9.239  12.092
71422W        W36682   8.771   6.690  11.970
71423W        W36683  43.790  23.983   2.302
71424W        W36684  22.149  34.521   4.601
71425W        W36685   0.354   3.705   5.031
71426W        W36686  27.670  39.043   3.555
71427W        W36687  20.600  32.368   4.389
71428W        W36688  16.991  20.723   2.216
71429W        W36689  19.784  10.362   4.581
71430W        W36690  33.469  31.420  13.208
71431W        W36691  43.347  29.808   1.354
71432W        W36692   3.745  24.662  10.780
71433W        W36693   3.464  20.106   1.820
71434W        W36694   5.166  22.067  14.349
71435W        W36695  21.005   1.032  11.919
71436W        W36696  28.567   5.916  13.438
71437W        W36697  30.954  30.952  13.028
71438W        W36698   8.391   5.848  10.641
71439W        W36699  13.782   2.918  14.769
71440W        W36700  36.896  31.277  10.509
71441W        W36701  42.465  27.042   4.262
71442W        W36702  44.000  29.390   4.110
71443W        W36703  40.994   7.418   2.121
71444W        W36704  29.940  26.235  10.259
71445W        W36705  26.226   7.525   3.185
71446W        W36706  11.595   6.009   2.704
71447W        W36707   4.300  21.091   4.896
71448W        W36708  10.423  32.589   4.027
71449W        W36709  24.225  32.960   1.961
71450W        W36710  44.349  35.596  13.022
71451W        W36711  43.753   4.832  14.744
71452W        W36712  22.427  15.711  12.143
71453W        W36713  29.202   5.703  12.491
71454W        W36714  23.157  37.004   2.215
71455W        W36715  19.995  37.897   0.085
71456W        W36716   0.735  17.100  10.638
71457W        W36717  11.612  30.410  12.031
71458W        W36718   4.221   8.930   1.435
71459W        W36719  39.789  42.352   1.330
71460W        W36720  44.331   9.701   2.179
71461W        W36721  33.541  28.507   1.318
71462W        W36722  19.093  38.641  13.996
71463W        W36723  26.318  22.662   3.295
71464W        W36724  43.384  22.308  10.791
71465W        W36725  12.721  29.790   4.125
71466W        W36726   9.796  27.094  11.267
71467W        W36727  20.509  33.694   3.679
71468W        W36728  41.725  44.371   5.105
71469W        W36729  24.455  21.114   2.435
71470W        W36730  10.592  44.925  12.918
71471W        W36731   0.560   0.760  11.182
71472W        W36732  20.318  19.221   2.741
71473W        W36733   9.711   7.626   9.645
71474W        W36734   5.721  44.256   2.436
71475W        W36735  30.315  43.799   3.600
71476W        W36736   4.736  22.006  13.335
71477W        W36737  26.015  27.471   2.687
71478W        W36738  25.004  16.705  14.612
71479W        W36739  24.505  27.622  12.866
71480W        W36740  25.420  22.650  12.482
71481W        W36741   4.404  38.779   3.622
71482W        W36742  35.452  11.484   0.482
71483W        W36743  32.727  24.121   1.315
71484W        W36744  21.830  28.437   3.213
71485W        W36745  35.408  15.636   1.831
71486W        W36746  42.104  40.458  11.188
71487W        W36747  17.294  17.523  12.548
71488W        W36748   8.516  41.024   2.759
71489W        W36749  39.488  10.396  11.259
71490W        W36750  10.656  31.831   2.345
71491W        W36751  15.122  25.475   4.516
71492W        W36752   1.506  27.072  12.165
71493W        W36753  43.424  15.027   1.283
71494W        W36754  30.984   1.927  12.408
71495W        W36755  17.756   3.530  13.599
71496W        W36756  26.689  43.025   4.184
71497W        W36757  28.928  24.326  13.925
71498W        W36758  19.112   5.964  12.360
71499W        W36759  11.950   2.220  14.946
71500W        W36760  28.102  13.146  13.278
71501W        W36761  20.002  17.053   1.807
71502W        W36762  17.488   4.713  10.308
71503W        W36763  40.368  40.080  10.982
71504W        W36764  25.099   6.185   0.802
71505W        W36765  27.138  24.926  14.792
71506W        W36766   8.457  22.174   1.036
71507W        W36767  44.992   8.678  11.504
71508W        W36768  37.108  10.805   0.788
71509W        W36769   2.698   4.910  13.414
71510W        W36770   2.162  34.271  11.496
71511W        W36771  25.546  21.294   3.259
71512W        W36772  11.494  13.177   2.131
71513W        W36773  39.823  18.104  11.566
71514W        W36774  20.075   1.814  11.550
71515W        W36775  34.408  27.932   0.852
71516W        W36776  35.980  37.610  10.609
71517W        W36777   8.822  21.720   1.836
71518W        W36778   1.963  11.798  10.504
71519W        W36779  31.882  25.727  14.348
71520W        W36780  37.620  20.247  12.286
71521W        W36781  42.073  32.238   2.750
71522W        W36782   0.301  37.939  10.914
71523W        W36783  12.289  41.341   4.413
71524W        W36784   2.744  35.100   0.056
71525W        W36785  44.880  31.119  12.926
71526W        W36786  13.887   6.329  13.080
71527W        W36787  11.688  22.270  12.488
71528W        W36788  36.861  37.031  14.730
71529W        W36789  16.647  19.341  12.410
71530W        W36790  19.215  18.631  12.338
71531W        W36791  30.555  10.066   4.128
71532W        W36792   8.756  23.643   3.729
71533W        W36793  22.977  34.072  14.224
71534W        W36794  15.921  16.258  13.288
71535W        W36795  30.100   4.719   2.820
71536W        W36796   7.607   0.375   4.424
71537W        W36797  37.658  33.588   4.035
71538W        W36798   4.718  12.330  13.734
71539W        W36799  37.379   4.006  13.229
71540W        W36800  28.479  28.989  12.033
71541W        W36801  35.139  16.331  10.956
71542W        W36802   5.826  14.961   0.774
71543W        W36803  32.073  20.276  10.688
71544W        W36804  23.676   4.747   2.753
71545W        W36805  28.357  36.823  13.076
71546W        W36806   1.737   9.642  12.937
71547W        W36807   1.004  29.716   1.745
71548W        W36808  27.189   6.874  12.895
71549W        W36809  13.103  18.527  14.950
71550W        W36810  36.554  32.029   0.193
71551W        W36811  29.101  10.818  10.830
71552W        W36812  33.065  42.217   4.617
71553W        W36813  25.992  22.550   1.143
71554W        W36814  39.501   5.981   0.533
71555W        W36815   2.663  36.536  11.566
71556W        W36816  24.498  12.841  12.370
71557W        W36817  17.588  44.592   4.617
71558W        W36818  13.249  32.208  14.077
71559W        W36819  10.827  26.177   2.559
71560W        W36820  14.183  44.409  11.490
71561W        W36821   1.322  43.501   3.767
71562W        W36822  16.230  29.117   2.686
71563W        W36823  11.727  14.736  12.908
71564W        W36824  38.010  20.316  12.617
71565W        W36825  27.755  23.076  10.672
71566W        W36826  12.916  19.701   4.030
71567W        W36827  22.535  31.812   0.326
71568W        W36828  28.068   3.040  10.948
71569W        W36829   9.150  16.621   1.417
71570W        W36830   9.631  24.360  10.776
71571W        W36831  42.778  12.299   3.098
71572W        W36832   7.147  40.919   2.673
71573W        W36833  43.223  30.969  10.903
71574W        W36834  28.088   7.845   1.296
71575W        W36835   8.790  26.375   2.288
71576W        W36836  26.558  42.002  13.366
71577W        W36837  21.773  11.059   0.078
71578W        W36838  41.987  21.035   3.915
71579W        W36839   5.698  13.305  12.563
71580W        W36840  15.129  27.061  11.175
71581W        W36841  21.519  39.975   2.739
71582W        W36842  11.304  24.985  11.171
71583W        W36843  22.456  17.212  12.327
71584W        W36844  16.603  34.403   1.319
71585W        W36845  28.488  39.579  13.385
71586W        W36846   4.004  37.918  11.676
71587W        W36847  41.910  15.940   0.798
71588W        W36848  29.350  31.602  12.563
71589W        W36849  13.449  23.816   0.615
71590W        W36850  43.492  35.996   2.831
71591W        W36851  18.258  42.849  10.508
71592W        W36852  17.164   3.939  12.951
71593W        W36853  16.182  42.301   0.015
71594W        W36854   7.547  28.494  12.085
71595W        W36855  37.878   7.905   3.192
71596W        W36856   4.398  13.240  10.856
71597W        W36857  35.557  34.869   0.843
71598W        W36858  33.426  22.516  11.243
71599W        W36859   7.684   6.184   4.486
71600W        W36860  39.531  22.338   3.706
71601W        W36861   2.988  17.234  11.598
71602W        W36862  36.847  12.951   4.567
71603W        W36863  27.231   3.185   2.228
71604W        W36864  33.557  28.364   0.028
71605W        W36865  19.048  31.051  10.712
71606W        W36866   9.197  21.312  14.854
71607W        W36867   4.341   4.251   2.292
71608W        W36868  36.904   4.251   1.215
71609W        W36869  15.659  10.862   0.325
71610W        W36870  37.201  23.282  10.787
71611W        W36871  43.237  16.079  14.993
71612W        W36872  29.467  29.695   3.121
71613W        W36873  31.301   8.922   1.396
71614W        W36874  38.810   7.035  12.565
71615W        W36875  11.308  18.067  12.482
71616W        W36876  19.232  41.304  11.627
71617W        W36877  18.939  17.811  14.896
71618W        W36878  17.948  10.685  14.059
71619W        W36879  30.592  34.056   0.170
71620W        W36880  18.542  44.184   1.326
71621W        W36881   4.206   9.428  11.922
71622W        W36882  40.262  17.039   3.853
71623W        W36883  22.225  15.710  13.826
71624W        W36884  36.097  27.014   4.932
71625W        W36885  42.527  13.155   0.548
71626W        W36886  10.632  30.961  14.824
71627W        W36887  40.582  34.564  14.901
71628W        W36888  17.548  17.972  12.569
71629W        W36889  17.642   9.254   0.687
71630W        W36890   4.296   5.128  13.566
71631W        W36891   1.541  17.574   1.768
71632W        W36892  41.039  36.389  11.207
71633W        W36893  17.042   0.865   3.348
71634W        W36894  17.469   9.558  13.315
71635W        W36895  41.527  41.485   2.071
71636W        W36896  21.508  18.789   4.291
71637W        W36897  11.237  20.564   2.116
71638W        W36898  26.790   7.218  14.459
71639W        W36899  15.293  19.012   3.304
71640W        W36900  26.914  23.547  11.050
71641W        W36901   4.989  31.567  10.120
71642W        W36902  40.614   7.408  12.945
71643W        W36903  34.885   9.092  12.359
71644W        W36904  16.120  42.124   2.278
71645W        W36905  14.557  21.971  13.833
71646W        W36906  44.680  14.509  12.151
71647W        W36907  33.972  32.891   4.087
71648W        W36908  28.682  39.011   1.146
71649W        W36909  34.666  24.138   4.267
71650W        W36910  28.627  34.490  10.618
71651W        W36911  44.023  39.971  13.208
71652W        W36912  38.629   3.844  11.108
71653W        W36913  22.222  34.101   1.925
71654W        W36914  35.633   9.293  10.583
71655W        W36915  43.772  31.396   2.699
71656W        W36916  31.095  12.202  14.844
71657W        W36917  18.403  23.149  11.511
71658W        W36918   0.108  11.228  14.400
71659W        W36919   1.891  21.754  11.123
71660W        W36920  42.503  43.606  11.957
71661W        W36921  24.166  19.046   1.005
71662W        W36922  17.572  11.136   4.192
71663W        W36923  16.263  24.026  11.202
71664W        W36924  40.309  44.877   0.666
71665W        W36925  15.368  17.585  12.612
71666W        W36926   2.295  37.387  13.053
71667W        W36927  31.232  26.675  14.958
71668W        W36928  34.313  31.806  14.599
71669W        W36929   3.855  44.436  13.929
71670W        W36930  30.101  42.886  10.728
71671W        W36931  19.226  29.256   3.032
71672W        W36932  18.054  44.115  10.532
71673W        W36933   5.782  33.051   1.295
71674W        W36934  23.300   2.743  11.526
71675W        W36935   5.267  41.301  11.238
71676W        W36936   6.363  23.870   4.860
71677W        W36937  23.878  37.128   4.175
71678W        W36938  40.077   1.662  13.867
71679W        W36939  15.848   7.243  14.236
71680W        W36940   5.672  44.719   1.484
71681W        W36941  44.732  31.709  11.017
71682W        W36942  14.292  29.139  11.645
71683W        W36943  29.022  10.082   3.396
71684W        W36944  10.621   1.846   2.767
71685W        W36945   9.983  36.423   1.591
71686W        W36946  44.415  15.041   3.353
71687W        W36947  22.580  28.729  14.515
71688W        W36948  39.339  44.451  14.052
71689W        W36949  18.189   2.311  14.021
71690W        W36950   4.306  24.253   2.339
71691W        W36951  16.132  36.158  11.133
71692W        W36952  23.155   2.805  10.027
71693W        W36953  36.271  23.817  11.688
71694W        W36954  26.531  43.834   4.711
71695W        W36955   6.140  30.049   1.011
71696W        W36956  40.619  33.116   3.069
71697W        W36957  14.695   7.364  11.666
71698W        W36958  44.272  17.699  11.123
71699W        W36959   6.112   7.745  14.051
71700W        W36960  35.363   8.117   0.515
71701W        W36961  11.171  33.601   4.035
71702W        W36962  19.306  38.308   1.315
71703W        W36963  32.156   7.273   2.237
71704W        W36964   1.478  18.163  14.789
71705W        W36965  35.004  20.024  12.976
71706W        W36966  42.166  17.496  11.211
71707W        W36967   3.299  22.571  13.284
71708W        W36968  19.525  24.785  12.940
71709W        W36969  22.033  15.627   2.853
71710W        W36970  16.712   3.681   4.719
71711W        W36971  31.161  25.909  12.501
71712W        W36972  23.211  32.703   1.210
71713W        W36973   1.440   2.775  13.466
71714W        W36974  11.645   7.706   1.666
71715W        W36975  14.356  34.948  13.310
71716W        W36976  18.322  22.648  11.521
71717W        W36977  33.459   2.193  13.505
71718W        W36978  38.447  23.224  14.866
71719W        W36979  41.785   3.551   0.455
71720W        W36980  25.046  20.187  12.629
71721W        W36981   2.469   5.447  11.358
71722W        W36982  26.510   6.798  14.855
71723W        W36983   8.818  23.811   2.333
71724W        W36984   9.726  29.125   5.067
71725W        W36985   0.539  20.282   0.382
71726W        W36986  15.170   7.120  11.660
71727W        W36987  32.087  18.967   1.870
71728W        W36988  33.040  21.802  11.503
71729W        W36989  19.269  18.689   3.209
71730W        W36990  38.050  28.712  11.995
71731W        W36991  16.510  34.035  13.128
71732W        W36992  28.909  10.540   4.167
71733W        W36993  20.469  38.755  14.128
71734W        W36994   2.425  13.614   3.940
71735W        W36995  26.256  14.801   4.923
71736W        W36996  17.851  30.900  13.414
71737W        W36997  14.044   6.527  13.913
71738W        W36998  30.148  22.957  12.800
71739W        W36999   3.174  39.495  13.500
71740W        W37000  25.777  41.372  13.793
71741W        W37001  44.338  38.985  14.406
71742W        W37002   5.608  31.002  10.450
71743W        W37003  12.712  24.184  14.369
71744W        W37004  15.260  13.553   0.591
71745W        W37005  36.405  33.698   1.768
71746W        W37006  25.207   4.692   1.177
71747W        W37007  34.033  30.249   0.439
71748W        W37008   5.180  32.835   2.568
71749W        W37009  16.232   5.899  13.055
71750W        W37010  39.262   4.876  13.431
71751W        W37011  34.441  18.500   0.834
71752W        W37012  44.328  42.791  13.071
71753W        W37013  35.132  37.559   4.780
71754W        W37014  28.072  34.457  10.615
71755W        W37015   5.596  29.064  10.322
71756W        W37016  33.190  12.379  11.581
71757W        W37017  36.100  13.339   0.770
71758W        W37018  38.205   9.175   4.471
71759W        W37019  28.576   9.264   3.908
71760W        W37020  30.617  27.125  12.584
71761W        W37021  22.678   6.873   0.725
71762W        W37022   0.792  20.491  14.825
71763W        W37023  10.660  25.808  12.493
71764W        W37024  37.306  14.564  12.812
71765W        W37025   1.462  18.230  11.543
71766W        W37026   9.289  33.834  12.396
71767W        W37027  39.699  15.469  11.489
71768W        W37028  25.558  26.479   0.688
71769W        W37029   0.312  36.520  13.119
71770W        W37030  18.289  10.101   0.304
71771W        W37031  41.866  24.935  12.948
71772W        W37032   1.933  25.742   3.650
71773W        W37033  16.493  13.514  13.989
71774W        W37034  36.540  34.909  12.008
71775W        W37035  29.518  42.003  11.743
71776W        W37036  15.340  43.976   2.658
71777W        W37037  20.556  10.594  11.093
71778W        W37038   0.294  27.576  14.425
71779W        W37039  28.536  28.732   1.691
71780W        W37040   2.134  40.247   5.138
71781W        W37041  11.772  24.246   1.231
71782W        W37042   0.469  33.145   0.733
71783W        W37043  34.141   3.894  11.782
71784W        W37044  36.901  10.830   1.931
71785W        W37045   7.368  29.232  14.296
71786W        W37046  43.511  17.017   3.668
71787W        W37047  40.508  20.294   1.831
71788W        W37048  35.980   1.076   0.824
71789W        W37049  15.815  15.157   4.137
71790W        W37050  41.756   8.735   3.263
71791W        W37051  14.823  12.651   3.639
71792W        W37052  27.096   0.721   2.237
71793W        W37053  34.922  29.642  14.660
71794W        W37054  19.542  26.632  10.292
71795W        W37055  15.161  44.443   2.901
71796W        W37056  25.220   8.398  13.939
71797W        W37057  17.150  25.509   1.664
71798W        W37058  14.983  44.972   2.735
71799W        W37059  14.629  39.208  14.823
71800W        W37060  30.649   1.422   4.771
71801W        W37061  10.847   8.804   0.307
71802W        W37062  39.787  44.261  14.239
71803W        W37063  17.574  10.581   1.323
71804W        W37064  42.368   6.717   4.014
71805W        W37065  27.398   1.390   1.786
71806W        W37066  44.413  28.411  11.636
71807W        W37067   5.971  35.008  13.815
71808W        W37068  14.669   4.396  11.657
71809W        W37069  28.728  38.383  11.418
71810W        W37070  27.149  11.508  13.397
71811W        W37071   6.670   3.329   2.316
71812W        W37072  44.322  36.326  13.458
71813W        W37073  24.679  12.701  13.166
71814W        W37074  19.981  26.070  13.391
71815W        W37075  34.602  32.801   2.368
71816W        W37076  37.179  10.094  11.908
71817W        W37077  29.063  36.076  12.526
71818W        W37078  38.008  35.740   0.479
71819W        W37079  15.789  24.006  11.614
71820W        W37080   8.014  19.486   0.849
71821W        W37081   5.975  31.255   4.084
71822W        W37082  37.898   2.191   2.283
71823W        W37083  27.277  35.289  12.036
71824W        W37084  15.332   7.973  12.331
71825W        W37085  31.154   9.292   0.036
71826W        W37086   7.846  15.289  13.822
71827W        W37087   2.736  29.177   9.283
71828W        W37088  19.075  15.221  10.720
71829W        W37089  28.207  36.234  12.688
71830W        W37090   0.991  17.203   4.093
71831W        W37091  14.694  13.512  11.233
71832W        W37092  29.102  36.894  14.610
71833W        W37093   8.101  26.193  12.662
71834W        W37094   6.349   3.827   2.619
71835W        W37095  10.182  26.040   0.957
71836W        W37096  26.690  30.645   5.119
71837W        W37097  35.150  18.828  11.429
71838W        W37098  29.591  26.489   3.193
71839W        W37099  13.286  20.469   0.897
71840W        W37100  12.802  33.950   1.828
71841W        W37101  14.960  16.000   0.904
71842W        W37102  38.050  16.827   1.729
71843W        W37103  18.723   4.372  14.053
71844W        W37104   5.192  36.630   0.862
71845W        W37105   9.635  26.506   2.849
71846W        W37106  30.399   6.946  12.617
71847W        W37107  43.445  25.758   2.711
71848W        W37108  10.194   7.731   1.565
71849W        W37109  32.961  42.514   0.283
71850W        W37110  43.344  15.249   3.281
71851W        W37111  19.860  18.644  12.845
71852W        W37112  12.951  43.893   4.251
71853W        W37113  39.401  29.519  14.588
71854W        W37114  43.533   3.306  10.649
71855W        W37115   8.804  29.993  12.775
71856W        W37116  25.115  40.386   1.759
71857W        W37117  17.701  32.662  14.504
71858W        W37118  44.212  14.159  11.528
71859W        W37119  43.414  12.686  12.192
71860W        W37120  38.915  36.780  12.883
71861W        W37121  11.197  29.494   2.928
71862W        W37122  14.656  29.908  13.310
71863W        W37123  26.158   7.484   4.204
71864W        W37124   2.407  29.958  11.722
71865W        W37125  37.198   1.916  13.972
71866W        W37126   8.438  34.482   4.307
71867W        W37127  20.798  28.907   0.040
71868W        W37128   5.217  24.769  11.557
71869W        W37129  42.933  34.666   4.913
71870W        W37130   0.990  33.668  12.016
71871W        W37131  40.333  13.564  11.588
71872W        W37132  25.648  35.801   3.250
71873W        W37133  31.402  15.297  14.551
71874W        W37134  20.923  26.011   0.367
71875W        W37135  41.058  11.855   4.076
71876W        W37136   8.358   1.142  12.658
71877W        W37137  33.965  31.904  11.130
71878W        W37138  32.938   2.221  11.479
71879W        W37139  27.042  36.950   4.077
71880W        W37140  20.986   6.341   0.192
71881W        W37141  27.036  19.989   0.802
71882W        W37142  41.943  20.234  12.429
71883W        W37143   6.904   1.455   3.780
71884W        W37144   2.742  21.558   2.889
71885W        W37145  35.510  13.125  14.834
71886W        W37146  23.037  12.654   1.694
71887W        W37147  30.248  32.887  11.198
71888W        W37148  10.004  10.445  14.941
71889W        W37149  38.878   8.642   3.634
71890W        W37150  20.868  17.431   2.824
71891W        W37151  11.611  25.489  12.611
71892W        W37152   2.410  34.671   1.868
71893W        W37153  33.989  16.462  11.140
71894W        W37154  37.986  30.795   4.007
71895W        W37155   9.958  20.289   2.437
71896W        W37156   7.797   2.721  14.885
71897W        W37157  28.468   3.413   1.934
71898W        W37158  18.819  14.503  11.109
71899W        W37159  16.568  10.760  14.782
71900W        W37160  25.140  42.891   2.829
71901W        W37161  15.011  44.859  14.434
71902W        W37162  36.336  29.551   1.253
71903W        W37163  20.075  24.088  13.140
71904W        W37164  22.268  26.337  14.267
71905W        W37165  13.434  29.186  12.888
71906W        W37166   0.343  33.915  12.154
71907W        W37167  18.651  14.126   1.280
71908W        W37168  19.456  44.192  11.997
71909W        W37169   3.762   8.609   0.261
71910W        W37170  44.032  27.085   1.750
71911W        W37171  25.843   6.444  12.227
71912W        W37172  33.823  15.213   2.322
71913W        W37173  36.997  25.455  11.513
71914W        W37174  28.269  28.173  13.836
71915W        W37175  25.967   9.426   3.176
71916W        W37176   4.505  27.440  11.181
71917W        W37177  13.690  37.016  13.055
71918W        W37178  44.650  28.121   4.002
71919W        W37179  26.411  34.423   0.017
71920W        W37180   1.696   6.750  12.682
71921W        W37181   8.963  43.962  13.383
71922W        W37182  31.625  33.417  11.111
71923W        W37183  26.502  15.896  12.252
71924W        W37184   2.311  11.238   3.241
71925W        W37185  21.251  44.530  10.987
71926W        W37186  41.583  28.146   0.518
71927W        W37187  18.370  34.526  11.513
71928W        W37188   6.948  36.553   2.294
71929W        W37189  21.278   7.645  12.953
71930W        W37190  27.391   3.307  12.508
71931W        W37191  25.941  42.704   0.661
71932W        W37192  26.648  30.649  14.245
71933W        W37193  31.422   3.634   2.282
71934W        W37194  21.392   5.958   4.264
71935W        W37195  15.202  14.668  12.098
71936W        W37196   4.205  33.097  10.814
71937W        W37197  26.055  23.110   3.207
71938W        W37198  25.533  14.939  10.743
71939W        W37199  29.349  18.388  11.161
71940W        W37200  33.986  32.367  10.913
71941W        W37201  40.130  42.526   0.955
71942W        W37202  43.848  11.586  12.438
71943W        W37203   6.773  35.621   4.524
71944W        W37204   3.498  30.189  12.438
71945W        W37205  27.497  16.687  11.835
71946W        W37206  24.029  39.283   1.889
71947W        W37207  37.428  37.054  12.689
71948W        W37208  22.489  43.786  11.526
71949W        W37209  22.683  42.870   3.166
71950W        W37210  31.058  25.254  14.576
71951W        W37211  19.762  18.806   0.959
71952W        W37212   9.455   4.190  10.665
71953W        W37213  35.003  35.401  13.143
71954W        W37214  17.274   9.316  10.693
71955W        W37215  12.117  22.185   3.727
71956W        W37216  31.611  33.755  14.592
71957W        W37217   0.785  43.473   4.124
71958W        W37218   6.736  33.750   2.272
71959W        W37219  30.937   4.097   2.704
71960W        W37220  38.482  43.386   3.772
71961W        W37221  44.449  11.040   0.026
71962W        W37222  13.674  33.384  11.145
71963W        W37223  34.556  27.751  12.510
71964W        W37224  35.023  10.736   4.132
71965W        W37225   8.634  44.786   3.186
71966W        W37226  33.868   9.734   2.785
71967W        W37227  39.706   0.925   2.669
71968W        W37228  37.615  37.570   2.382
71969W        W37229  12.165  24.178   2.296
71970W        W37230  21.338   7.780   0.317
71971W        W37231  27.235   6.856  11.557
71972W        W37232   3.271  14.747   4.376
71973W        W37233   9.895  40.390   0.960
71974W        W37234  20.615  20.126   0.266
71975W        W37235  21.463   4.101   2.728
71976W        W37236  39.322  25.219   3.820
71977W        W37237  33.179   7.910   4.787
71978W        W37238   3.975   7.309   0.932
71979W        W37239  17.161  27.505  11.995
71980W        W37240  24.565  31.581  13.319
71981W        W37241  21.805  38.079   0.823
71982W        W37242   7.182  36.830  13.000
71983W        W37243  14.665  18.068   1.424
71984W        W37244  37.976  31.643   2.348
71985W        W37245   0.765  42.005   0.808
71986W        W37246  12.720  37.308  13.761
71987W        W37247  14.735  20.124  13.592
71988W        W37248   9.858   7.323  14.783
71989W        W37249  27.434  14.049   0.811
71990W        W37250  37.184  18.842  12.456
71991W        W37251  22.678   3.762  12.774
71992W        W37252  44.867  40.475   4.857
71993W        W37253  39.288  35.950  10.726
71994W        W37254  39.981   9.289  13.455
71995W        W37255  11.029   5.309   9.848
71996W        W37256   9.748  28.891   1.813
71997W        W37257   7.918  23.111  13.334
71998W        W37258  36.028  30.408  14.010
71999W        W37259   4.451  10.980  11.440
72000W        W37260  30.486  38.651  12.038
72001W        W37261  16.776   6.400  13.818
72002W        W37262  14.689  16.300   1.246
72003W        W37263  28.291  27.260   2.773
72004W        W37264  21.494  43.272  11.118
72005W        W37265  36.879  42.475   4.772
72006W        W37266  25.143  13.934  12.596
72007W        W37267  35.701  35.098  11.861
72008W        W37268  43.692  26.981  12.165
72009W        W37269  25.158  32.080   4.183
72010W        W37270  44.032  17.330   3.688
72011W        W37271   7.340  19.777   0.751
72012W        W37272   6.895  20.040   1.241
72013W        W37273  14.512  33.005  12.488
72014W        W37274  21.132   4.893  13.338
72015W        W37275  33.502  27.781  11.183
72016W        W37276  28.116  21.909   1.709
72017W        W37277  25.225  42.372  14.278
72018W        W37278  39.100  33.795  12.864
72019W        W37279  18.813  23.212  13.434
72020W        W37280  10.130  36.396   2.108
72021W        W37281   3.723  13.861   3.757
72022W        W37282  25.124  20.269  10.779
72023W        W37283  36.232  37.094  10.535
72024W        W37284  33.830  27.680  12.136
72025W        W37285  23.089  39.389   1.857
72026W        W37286  26.531  16.374  12.457
72027W        W37287  26.638  18.917   3.898
72028W        W37288  20.543  18.009  14.443
72029W        W37289  43.272   4.494   4.334
72030W        W37290  37.639  33.151  11.023
72031W        W37291  16.800   8.261   2.186
72032W        W37292  32.845  12.379   2.212
72033W        W37293  25.479  25.149  11.881
72034W        W37294  39.088  19.814   3.177
72035W        W37295   9.863  44.638   2.790
72036W        W37296  16.147  15.277   2.753
72037W        W37297  22.638  11.604   5.035
72038W        W37298   1.817  24.506   2.927
72039W        W37299  12.654  34.865   1.484
72040W        W37300  22.275   8.413   4.315
72041W        W37301   4.700  34.011  11.619
72042W        W37302   7.801   9.849  12.799
72043W        W37303  35.430   3.953   2.668
72044W        W37304  38.061  37.608   2.112
72045W        W37305  30.028   9.473  11.003
72046W        W37306  16.881   8.730  13.421
72047W        W37307  20.717  26.623   2.646
72048W        W37308  15.161  34.888   3.747
72049W        W37309  19.605   7.942  10.282
72050W        W37310  31.858  24.275   5.092
72051W        W37311  39.038  33.264  12.899
72052W        W37312   5.792  15.069  12.014
72053W        W37313  36.282  30.619  14.902
72054W        W37314  35.784   7.311   1.698
72055W        W37315  28.913   8.863   1.425
72056W        W37316  31.973  29.501   4.318
72057W        W37317  41.521  10.785  13.536
72058W        W37318   6.913   7.193   1.857
72059W        W37319   7.266  33.844   2.315
72060W        W37320   1.274  30.717   3.388
72061W        W37321  17.648  34.884  13.455
72062W        W37322   5.844  37.997  11.672
72063W        W37323  42.471  16.121  13.439
72064W        W37324  42.250   7.731  13.867
72065W        W37325   0.296  39.080   9.875
72066W        W37326  41.821  38.548   3.804
72067W        W37327  10.168  44.856   1.008
72068W        W37328  29.170  27.725   2.644
72069W        W37329   2.042  40.766   0.092
72070W        W37330  24.560   7.667   2.349
72071W        W37331   2.761   0.602   0.918
72072W        W37332  18.183  12.844   1.184
72073W        W37333  17.581   7.581   2.522
72074W        W37334  27.200  26.885  12.972
72075W        W37335  41.637  21.246  12.935
72076W        W37336  13.791  15.848  11.249
72077W        W37337   0.774  19.989   2.347
72078W        W37338  44.819  42.813   3.777
72079W        W37339  21.146  38.070   0.294
72080W        W37340  12.584  19.565  12.797
72081W        W37341  38.547   5.782   0.415
72082W        W37342  24.671  26.897   4.738
72083W        W37343  15.564  43.609   0.470
72084W        W37344  39.294  44.317  14.548
72085W        W37345   9.326  10.283   1.522
72086W        W37346  19.547   7.862   2.115
72087W        W37347  22.800  32.909   1.465
72088W        W37348  36.327  27.910  11.898
72089W        W37349  38.391  39.888  14.635
72090W        W37350  27.141  36.878   5.166
72091W        W37351  44.869  39.759  13.793
72092W        W37352  17.204   6.285   2.949
72093W        W37353  29.921  21.748   1.806
72094W        W37354  20.597  37.866   2.130
72095W        W37355  11.744  42.517  12.971
72096W        W37356   9.865  19.640   0.793
72097W        W37357  43.988   9.776   3.749
72098W        W37358  10.022  16.135   3.564
72099W        W37359   7.937  30.145   4.382
72100W        W37360   5.705  28.382  12.579
72101W        W37361  39.479   8.128  12.941
72102W        W37362  43.449  31.400  13.995
72103W        W37363  11.775  39.934   2.742
72104W        W37364   6.797   8.825   1.849
72105W        W37365   6.135   0.958   3.766
72106W        W37366  19.205  40.803  11.652
72107W        W37367   6.749  17.728   2.798
72108W        W37368  44.870  39.394   4.806
72109W        W37369  21.081  32.492   1.195
72110W        W37370  16.221  40.418   4.405
72111W        W37371  22.922  12.262  12.134
72112W        W37372   7.698   1.533  11.629
72113W        W37373   1.951  14.567   1.734
72114W        W37374  31.340   6.431   0.091
72115W        W37375  14.834  26.812  14.391
72116W        W37376  13.336  10.958   2.253
72117W        W37377  14.328  21.304   2.444
72118W        W37378  10.110   8.933   0.974
72119W        W37379  35.393  33.947   0.719
72120W        W37380  40.398   4.427   1.344
72121W        W37381  11.220  37.982   2.782
72122W        W37382  36.794  41.174  11.110
72123W        W37383  31.002  37.126   3.764
72124W        W37384  43.818  28.186  14.913
72125W        W37385  22.479  13.139  13.949
72126W        W37386  12.523  21.810  11.676
72127W        W37387  26.369  40.364  11.650
72128W        W37388  39.084  29.615  13.806
72129W        W37389  40.859  29.519   4.658
72130W        W37390  34.808  13.535  10.638
72131W        W37391  15.853  26.484  13.389
72132W        W37392  13.138   2.748  13.920
72133W        W37393   3.266   7.944   3.823
72134W        W37394  43.431  25.060   2.145
72135W        W37395  18.694   9.806   3.434
72136W        W37396  13.325   5.648  10.968
72137W        W37397   1.340  29.690   4.125
72138W        W37398  13.573  15.878   1.787
72139W        W37399  37.606   6.233  11.570
72140W        W37400   2.774  38.310   2.937
72141W        W37401  37.184  10.113  11.025
72142W        W37402   7.375  42.923   4.219
72143W        W37403   4.318   5.282  12.035
72144W        W37404  41.852  27.041   2.988
72145W        W37405   3.290  35.401  13.885
72146W        W37406  16.417  32.998   0.430
72147W        W37407   8.226   3.367  12.959
72148W        W37408  13.180  37.856   2.887
72149W        W37409  33.049   8.672   4.163
72150W        W37410  28.987  22.050  14.031
72151W        W37411  44.979  32.893  12.848
72152W        W37412   4.942  37.289  10.761
72153W        W37413   8.900  10.652   2.381
72154W        W37414  35.961  40.636   2.830
72155W        W37415   7.337  31.638   3.751
72156W        W37416  34.986   1.007   9.796
72157W        W37417  31.672  11.335  11.038
72158W        W37418   3.923  23.028  12.116
72159W        W37419  17.699  16.607   1.714
72160W        W37420  30.405   4.203   4.884
72161W        W37421  41.410  30.233  13.709
72162W        W37422   2.416  32.667  14.534
72163W        W37423  11.289  20.601   1.283
72164W        W37424  21.674  18.327   4.185
72165W        W37425   4.309  28.952   4.487
72166W        W37426  43.293  15.299  14.519
72167W        W37427   3.353  19.956  12.959
72168W        W37428  20.596  29.397   0.005
72169W        W37429  27.958  16.283  14.299
72170W        W37430  22.745   3.736  14.251
72171W        W37431  34.859  17.170  12.765
72172W        W37432  17.642  29.326   1.697
72173W        W37433  13.534  34.554  14.569
72174W        W37434  31.683   3.042   4.773
72175W        W37435  42.444  18.554   0.485
72176W        W37436   1.838  27.564  14.305
72177W        W37437  19.619  35.682  14.287
72178W        W37438  38.080  36.292  11.511
72179W        W37439  32.977  14.241   1.900
72180W        W37440  29.115   9.178   4.606
72181W        W37441   3.206   0.550   0.657
72182W        W37442  10.844  11.614  12.759
72183W        W37443   2.629  27.445  13.803
72184W        W37444  44.412  32.683  13.281
72185W        W37445  21.138   4.550   2.047
72186W        W37446  30.552  10.839   3.576
72187W        W37447  15.073  30.860   2.868
72188W        W37448  35.028  12.165  10.648
72189W        W37449  17.235  43.359   1.227
72190W        W37450   6.939  16.301  11.574
72191W        W37451  16.866  23.243  11.189
72192W        W37452   2.212  23.667  11.161
72193W        W37453  43.305  26.232   4.914
72194W        W37454  24.455  10.245   3.186
72195W        W37455  41.334  34.044   4.052
72196W        W37456  41.352  10.810   3.731
72197W        W37457   3.534  20.130   3.243
72198W        W37458  33.893   8.830   1.833
72199W        W37459   9.080  12.778   0.884
72200W        W37460  33.714  34.985  12.002
72201W        W37461   1.548  23.501   4.560
72202W        W37462  38.510  25.163   0.784
72203W        W37463   1.473  40.044   2.754
72204W        W37464  16.773  28.607  13.708
72205W        W37465  34.492   3.153  13.947
72206W        W37466  33.060   8.771  14.288
72207W        W37467  37.529  12.133  13.056
72208W        W37468  12.127  43.373   0.974
72209W        W37469  29.205  29.739   3.601
72210W        W37470  37.820  33.654  12.715
72211W        W37471   0.821  21.256   3.632
72212W        W37472   4.133  12.231   4.690
72213W        W37473  18.309  11.920   1.619
72214W        W37474  14.847  44.798  13.941
72215W        W37475  17.322  20.266   0.518
72216W        W37476  43.119   8.448  12.572
72217W        W37477   4.315  12.925  11.530
72218W        W37478   2.318  16.648  11.549
72219W        W37479  41.618   8.181   1.259
72220W        W37480  41.452  33.541   1.105
72221W        W37481  26.363  22.574   4.964
72222W        W37482  30.050  15.316  14.211
72223W        W37483  23.965   6.916   1.737
72224W        W37484  20.291  15.084   4.166
72225W        W37485  40.956  30.168   3.195
72226W        W37486  16.282  29.506   3.239
72227W        W37487   8.009  34.978  13.677
72228W        W37488  40.774   3.414   3.202
72229W        W37489   0.660  24.083   1.450
72230W        W37490  11.109   7.220   0.522
72231W        W37491   9.565  25.684  14.419
72232W        W37492  44.928   0.865   2.950
72233W        W37493  15.560  38.426   4.630
72234W        W37494  37.313  12.460   3.322
72235W        W37495  16.769   0.179  13.402
72236W        W37496  43.854   3.855   0.890
72237W        W37497  27.990  16.384   4.858
72238W        W37498  15.521   8.162  12.896
72239W        W37499  16.748   6.084  14.830
72240W        W37500  10.393  10.317   1.802
72241W        W37501  28.708   8.270   0.873
72242W        W37502  14.152  16.258   3.387
72243W        W37503  35.819  31.438  13.068
72244W        W37504  10.878   4.990  10.286
72245W        W37505   8.756   1.210   2.646
72246W        W37506  27.590  11.422  13.662
72247W        W37507  36.986  44.850   4.181
72248W        W37508  14.874  22.567   3.300
72249W        W37509  38.435  11.688   1.419
72250W        W37510  24.177  18.491  13.469
72251W        W37511  29.460  17.351   9.843
72252W        W37512   9.864  15.320  11.034
72253W        W37513   2.138  42.748   2.689
72254W        W37514  22.103  34.979   0.745
72255W        W37515  19.635  34.899   3.179
72256W        W37516   8.499   2.938  12.173
72257W        W37517  31.739   3.345  11.321
72258W        W37518  22.174  31.557  14.329
72259W        W37519  36.346  22.536  11.612
72260W        W37520  27.539  25.508   1.706
72261W        W37521   5.608  25.552   4.553
72262W        W37522  14.868  34.564   4.870
72263W        W37523  25.680   8.536   0.842
72264W        W37524  26.084  21.548  13.546
72265W        W37525  32.793  11.005  13.086
72266W        W37526  30.593  31.600   2.204
72267W        W37527  16.078  24.609  14.554
72268W        W37528  25.575  12.711   0.799
72269W        W37529  25.866  44.320  10.213
72270W        W37530  15.260  10.400   2.689
72271W        W37531  33.113  14.783  13.546
72272W        W37532  12.217   3.620   2.716
72273W        W37533  36.574  19.760   4.045
72274W        W37534  10.355   6.656   3.178
72275W        W37535  23.412  40.452  11.998
72276W        W37536  32.893   9.786   0.413
72277W        W37537  18.959  33.458  12.465
72278W        W37538  15.284   5.637   3.651
72279W        W37539  27.968  34.072   0.415
72280W        W37540  15.465  31.961   4.618
72281W        W37541   7.793  24.952  11.439
72282W        W37542   3.436  40.472   1.275
72283W        W37543  35.050   2.253   1.516
72284W        W37544  14.178  34.592   4.643
72285W        W37545  22.089  18.179   2.750
72286W        W37546  10.640  15.149   3.323
72287W        W37547  15.677  42.948  14.667
72288W        W37548  40.678  29.635   2.794
72289W        W37549  37.807  43.822  12.069
72290W        W37550  35.491  19.331   4.876
72291W        W37551  17.308  18.978  13.379
72292W        W37552   2.863  31.011   2.690
72293W        W37553  18.322  40.976   0.334
72294W        W37554  16.262  41.566  14.066
72295W        W37555   5.641  23.354  12.573
72296W        W37556   2.231  22.386  10.774
72297W        W37557  24.479  28.423   2.100
72298W        W37558  44.506  17.756  11.593
72299W        W37559  41.228  19.661   4.143
72300W        W37560  12.821  36.527   0.286
72301W        W37561  38.921   3.505   2.852
72302W        W37562  35.116  39.558   3.736
72303W        W37563  30.068   6.225  11.082
72304W        W37564  22.356  13.750   2.850
72305W        W37565  39.910  25.206   4.557
72306W        W37566  41.474  11.355   3.749
72307W        W37567  25.831  36.503   5.620
72308W        W37568  21.338  12.574  12.427
72309W        W37569  20.817  32.101  10.082
72310W        W37570  25.770   5.766   5.052
72311W        W37571   1.273  25.060  12.816
72312W        W37572   8.906  26.650   1.862
72313W        W37573  29.078  20.505  14.107
72314W        W37574  39.813  31.803  11.382
72315W        W37575  30.701  42.050  12.409
72316W        W37576  44.691   6.677  12.436
72317W        W37577   6.674  32.851   3.887
72318W        W37578  14.262  40.019   4.567
72319W        W37579  40.693  21.145   4.461
72320W        W37580   7.684  25.936  10.654
72321W        W37581  12.740  32.051  10.715
72322W        W37582  37.985  27.554  14.067
72323W        W37583  15.298  34.662   3.307
72324W        W37584  41.319  41.022   1.926
72325W        W37585  23.037  37.890  14.986
72326W        W37586  20.386  32.518  14.206
72327W        W37587  39.595  24.471   3.090
72328W        W37588  43.966  43.536   4.570
72329W        W37589  44.236  36.483   3.781
72330W        W37590  22.963  29.430  14.353
72331W        W37591  32.631  35.427   1.303
72332W        W37592  24.596  26.722   2.863
72333W        W37593   3.844  16.658  11.149
72334W        W37594   0.979   4.802   2.716
72335W        W37595   7.860  29.208   2.926
72336W        W37596  11.782  25.478   3.995
72337W        W37597  13.473  22.337  12.604
72338W        W37598  27.675  28.473  11.479
72339W        W37599  40.843   6.419   4.782
72340W        W37600  27.547  10.244  11.538
72341W        W37601  34.417   5.030  14.237
72342W        W37602  36.069  19.769   3.200
72343W        W37603   4.904  34.465  14.478
72344W        W37604  33.854  35.483  12.065
72345W        W37605  30.946  17.646  11.587
72346W        W37606   8.634   5.231   2.419
72347W        W37607  11.353   6.413   2.988
72348W        W37608  13.023  18.253   2.363
72349W        W37609  29.288  33.672   4.372
72350W        W37610   7.812   5.336  13.413
72351W        W37611  35.469  14.834   3.328
72352W        W37612  44.972  28.697   0.814
72353W        W37613   7.858  37.386   3.585
72354W        W37614   7.306   8.864   4.346
72355W        W37615  16.201  10.444   5.097
72356W        W37616  17.748  35.114  13.015
72357W        W37617  18.513  24.301   4.495
72358W        W37618  31.897  20.018   4.532
72359W        W37619  20.435  39.858   0.408
72360W        W37620  28.241   4.364  13.784
72361W        W37621  25.617  11.083   1.768
72362W        W37622  20.423   0.288   4.866
72363W        W37623  35.528  20.036  11.569
72364W        W37624  26.168  15.492   2.769
72365W        W37625  26.230   9.851   0.846
72366W        W37626  10.627  36.630   3.706
72367W        W37627  34.355  22.497  11.119
72368W        W37628  15.715  38.059  12.872
72369W        W37629  33.055   2.006   4.351
72370W        W37630   1.363  23.074  14.720
72371W        W37631   1.231  15.643   0.443
72372W        W37632   1.869  42.404   2.983
72373W        W37633  30.469  18.066  13.947
72374W        W37634  12.971  31.511   4.010
72375W        W37635  44.978  33.663   1.282
72376W        W37636  10.100  26.016   0.034
72377W        W37637  26.137  21.213   0.433
72378W        W37638  20.148  26.623   4.524
72379W        W37639  11.852  40.882   3.780
72380W        W37640  23.181  41.768   3.752
72381W        W37641   6.472  20.477   3.320
72382W        W37642  24.499  33.881  12.374
72383W        W37643  27.187  24.665  12.391
72384W        W37644  27.887  36.856  12.063
72385W        W37645   1.048  35.880   0.352
72386W        W37646  38.467  38.495  11.483
72387W        W37647  15.785  34.357   4.819
72388W        W37648  16.138  30.979   1.330
72389W        W37649  10.460  32.116  14.388
72390W        W37650   5.603   7.129   0.003
72391W        W37651  39.697  29.910   1.282
72392W        W37652  24.769   6.483   0.114
72393W        W37653   6.034  43.053   4.946
72394W        W37654  31.621  25.778  13.396
72395W        W37655  16.858  35.112   3.229
72396W        W37656  36.410   9.907   2.194
72397W        W37657   3.336  37.377   1.290
72398W        W37658  21.028  24.482   2.740
72399W        W37659   6.632  36.645   0.349
72400W        W37660  37.275  13.352  14.391
72401W        W37661  14.853  26.929   4.199
72402W        W37662  32.568  13.220  11.593
72403W        W37663  15.050  16.792  11.203
72404W        W37664  30.558  14.266   0.734
72405W        W37665  10.385  34.589   4.579
72406W        W37666  14.313  17.746  14.845
72407W        W37667  25.069  43.839   4.666
72408W        W37668  43.407  43.674   3.766
72409W        W37669  34.424  44.510   4.520
72410W        W37670  17.121  10.787  13.432
72411W        W37671  31.048  24.808  14.850
72412W        W37672  41.534  18.183  12.772
72413W        W37673  22.324  23.213   1.213
72414W        W37674  28.550  31.170  10.385
72415W        W37675  20.748  44.665  11.947
72416W        W37676  34.869  15.950  11.218
72417W        W37677   1.307  41.234  11.588
72418W        W37678   0.464  23.129   3.335
72419W        W37679  38.979  11.805  10.786
72420W        W37680  37.176   5.452  13.208
72421W        W37681  37.548  22.383   0.314
72422W        W37682  13.934   9.169  14.495
72423W        W37683  36.907  28.371   1.250
72424W        W37684  20.576  42.807   2.403
72425W        W37685  40.791  11.224  10.685
72426W        W37686   7.827  39.871   1.185
72427W        W37687   5.399   0.401   3.770
72428W        W37688   8.751  18.281   2.595
72429W        W37689  40.970   0.979  13.940
72430W        W37690  38.302  22.158   0.934
72431W        W37691   8.065   5.607   3.695
72432W        W37692  17.701   3.393  14.083
72433W        W37693  31.033   7.914  14.865
72434W        W37694  43.884  10.871  10.020
72435W        W37695  31.452  13.608  14.959
72436W        W37696   9.615  16.802   1.731
72437W        W37697  44.375  32.628  11.289
72438W        W37698  28.644  42.557   0.575
72439W        W37699  33.985   3.985   4.892
72440W        W37700  37.434   6.825  12.881
72441W        W37701  36.723  38.961  14.376
72442W        W37702  26.385   6.689   4.124
72443W        W37703  36.741  24.953   4.589
72444W        W37704  42.763   1.701  13.853
72445W        W37705  28.454  21.105  14.438
72446W        W37706  41.300   7.112  14.519
72447W        W37707  36.505  24.534   4.789
72448W        W37708  32.273  32.113   1.935
72449W        W37709   2.672  21.957  11.565
72450W        W37710   4.731  41.199   4.933
72451W        W37711  30.879  27.056  14.939
72452W        W37712  23.705  30.386   0.731
72453W        W37713  33.388  33.594  13.884
72454W        W37714  19.548  23.358  12.972
72455W        W37715  21.256  20.695   5.056
72456W        W37716   7.127  12.513  11.959
72457W        W37717  36.347  18.569   2.830
72458W        W37718  37.546   3.945   2.158
72459W        W37719   9.539  12.566   5.014
72460W        W37720  32.146  36.919  12.061
72461W        W37721   8.723  22.390  11.060
72462W        W37722  20.796   0.750   2.349
72463W        W37723  19.991   6.791  13.930
72464W        W37724  41.904  25.951  12.868
72465W        W37725  34.412  40.351  14.889
72466W        W37726  32.036   8.251  12.050
72467W        W37727  42.708   4.339   0.387
72468W        W37728   4.631   6.474   2.341
72469W        W37729  41.951  17.219   3.186
72470W        W37730  32.422  25.648  13.950
72471W        W37731  10.415  40.972   1.114
72472W        W37732  43.523  44.233  14.597
72473W        W37733   0.365  39.915  13.884
72474W        W37734   6.432  10.098  11.177
72475W        W37735   8.957  40.999  10.709
72476W        W37736  35.881   5.046  14.262
72477W        W37737  11.270  15.393  13.026
72478W        W37738  30.140   1.960  13.353
72479W        W37739  30.499  20.976   3.708
72480W        W37740  35.076  11.289   3.069
72481W        W37741  25.681  38.139  12.974
72482W        W37742  12.363  11.355  12.484
72483W        W37743   5.789   2.692   0.392
72484W        W37744  34.366  38.834  14.460
72485W        W37745  22.498   2.143   0.989
72486W        W37746  22.908  32.338  14.602
72487W        W37747  15.358   1.870   1.514
72488W        W37748  29.984  39.367  12.837
72489W        W37749  32.330   0.709   0.219
72490W        W37750  14.568  39.055   2.447
72491W        W37751  11.468  22.179  13.831
72492W        W37752   1.396  44.532   3.733
72493W        W37753  21.586  41.395   2.312
72494W        W37754   0.726  37.803   4.565
72495W        W37755   6.436  27.990   4.525
72496W        W37756  32.425  30.128   0.677
72497W        W37757  26.195  14.165  13.726
72498W        W37758  37.528  16.861   1.915
72499W        W37759  16.075   1.519   4.599
72500W        W37760  14.229  21.205   0.313
72501W        W37761  11.614  18.507   1.899
72502W        W37762  43.854   6.816  14.477
72503W        W37763  44.369  34.293  14.513
72504W        W37764  17.266  12.182   3.379
72505W        W37765  13.843  33.318   4.106
72506W        W37766  20.707  35.335   3.746
72507W        W37767  42.924   4.298  13.041
72508W        W37768  19.648  26.463   4.528
72509W        W37769  39.609  24.207  11.809
72510W        W37770   3.708  17.892   2.028
72511W        W37771  26.075  42.486   4.640
72512W        W37772   1.673  19.500   0.606
72513W        W37773  43.992   0.746  13.776
72514W        W37774   6.418  38.421  14.321
72515W        W37775   4.321  19.555  14.332
72516W        W37776  35.942  12.409   0.785
72517W        W37777  32.415  42.486  10.558
72518W        W37778  13.617   2.032  12.515
72519W        W37779  32.971   1.552  12.873
72520W        W37780  18.638  22.883  10.304
72521W        W37781  33.732  15.329  12.032
72522W        W37782  29.865  22.201   2.219
72523W        W37783  19.545   1.335   4.553
72524W        W37784   6.283   6.266   1.709
72525W        W37785   7.112  33.401  13.767
72526W        W37786  23.043   2.837   2.866
72527W        W37787  29.900  29.656  13.540
72528W        W37788  26.636  37.054   2.888
72529W        W37789  14.134  27.659   1.790
72530W        W37790  40.596  33.659   0.138
72531W        W37791  39.266  10.067  12.407
72532W        W37792  21.644   3.512   1.942
72533W        W37793  32.467   7.552   0.493
72534W        W37794  37.436  43.075   0.532
72535W        W37795  14.712  12.983  13.497
72536W        W37796  31.055  17.998  12.869
72537W        W37797   6.914  16.642  12.050
72538W        W37798  15.785  36.379   1.001
72539W        W37799   9.883  24.778  10.600
72540W        W37800  22.621   3.951  12.301
72541W        W37801  38.052  28.816   1.976
72542W        W37802  10.203  42.523  11.367
72543W        W37803   8.612  30.429  14.103
72544W        W37804  42.383  20.889   4.792
72545W        W37805  44.505  12.311  12.610
72546W        W37806   7.153  26.036   1.649
72547W        W37807  29.620  25.503  14.441
72548W        W37808  37.012  26.220  11.126
72549W        W37809   4.805  41.044  11.192
72550W        W37810  38.586  27.450  10.437
72551W        W37811  38.650  43.762   1.759
72552W        W37812  13.571  35.338  14.504
72553W        W37813  27.751  23.600  11.400
72554W        W37814  36.053   4.957  14.737
72555W        W37815  12.184  17.089  10.556
72556W        W37816  31.378   6.937  13.409
72557W        W37817  29.617  28.638  13.880
72558W        W37818   9.182   0.948  13.791
72559W        W37819  30.625  32.536   2.811
72560W        W37820   8.367  41.059   0.411
72561W        W37821  12.348  17.126   3.757
72562W        W37822  30.347  27.029   3.657
72563W        W37823  32.163   0.318  12.189
72564W        W37824  11.806   9.221   3.984
72565W        W37825  18.386  19.097  13.766
72566W        W37826  11.113  43.275   4.515
72567W        W37827  18.661  15.094   3.131
72568W        W37828  36.040  38.108   3.672
72569W        W37829   4.725  15.194   2.371
72570W        W37830   9.408  13.403  12.543
72571W        W37831  36.976  36.078  11.923
72572W        W37832  38.941   5.677   3.162
72573W        W37833  11.157  22.282  12.449
72574W        W37834   0.781  22.278   3.710
72575W        W37835  22.749  43.438   1.831
72576W        W37836   7.924   4.269  14.001
72577W        W37837  29.639  10.137  10.596
72578W        W37838  14.478  11.603   4.423
72579W        W37839  25.087  40.484   2.285
72580W        W37840  24.217  27.890   1.069
72581W        W37841  32.174   5.834  12.588
72582W        W37842  11.662  38.362  10.465
72583W        W37843  14.689   1.500   2.713
72584W        W37844  13.241  38.333  14.820
72585W        W37845  10.752  39.856   3.390
72586W        W37846  37.293  42.410  12.995
72587W        W37847  20.654  39.008   1.809
72588W        W37848  31.822   9.267   2.281
72589W        W37849  18.513  30.787   1.060
72590W        W37850  37.923  41.543  11.212
72591W        W37851   9.556  21.127   2.390
72592W        W37852  11.720  14.844   4.395
72593W        W37853  34.008  19.782   0.135
72594W        W37854  25.072  14.062   0.882
72595W        W37855  14.246  42.479  13.490
72596W        W37856  20.490  22.017  12.391
72597W        W37857   8.304   0.526   2.361
72598W        W37858   6.564  27.532   4.733
72599W        W37859  34.304  39.933   0.291
72600W        W37860  22.683   7.052  11.723
72601W        W37861  35.780  28.052   4.152
72602W        W37862  40.920  29.200   3.697
72603W        W37863  15.041  39.916  13.094
72604W        W37864   0.255   5.303  12.476
72605W        W37865  34.458  19.978   0.375
72606W        W37866   5.370  38.071  10.449
72607W        W37867  36.915   0.737   2.630
72608W        W37868  19.576  18.005   4.157
72609W        W37869  41.208  18.731   0.779
72610W        W37870  30.484   0.881   0.817
72611W        W37871   3.889  15.320   0.930
72612W        W37872   8.241  16.508  12.546
72613W        W37873  11.394  33.629  11.745
72614W        W37874  15.542   2.689  13.105
72615W        W37875  17.625  43.095  12.884
72616W        W37876  44.544  41.885  13.041
72617W        W37877  28.440   0.310   2.720
72618W        W37878   1.968  44.167   2.787
72619W        W37879  39.946   9.714   2.214
72620W        W37880  18.596   4.741   4.149
72621W        W37881  11.566  35.020  10.749
72622W        W37882  10.089  27.081  13.130
72623W        W37883  15.503  28.280  12.967
72624W        W37884  21.997  19.317   4.705
72625W        W37885  18.607  13.140   0.961
72626W        W37886  24.021   9.773   0.766
72627W        W37887   9.427  23.524  14.889
72628W        W37888  33.817  44.314  14.420
72629W        W37889   9.076  42.795  13.733
72630W        W37890   8.393  24.715  12.552
72631W        W37891  15.649  17.264   0.092
72632W        W37892  44.345  42.040   0.268
72633W        W37893  38.076  27.940  12.863
72634W        W37894  10.654  30.129   4.839
72635W        W37895  39.450  11.346   0.991
72636W        W37896  14.283   9.577  11.588
72637W        W37897   4.785   1.089  10.045
72638W        W37898  41.412  18.218   0.861
72639W        W37899  22.815  17.168  14.678
72640W        W37900  44.593  32.704  10.564
72641W        W37901  16.182   5.673  11.232
72642W        W37902  27.642  38.595  12.072
72643W        W37903  40.422   6.929   2.454
72644W        W37904  22.108  30.556  12.519
72645W        W37905   8.809  31.117   1.699
72646W        W37906   6.145  21.296   1.237
72647W        W37907  37.036  10.621   3.292
72648W        W37908  10.194  42.591  14.541
72649W        W37909  17.461   1.097   3.694
72650W        W37910  10.706  19.984  12.158
72651W        W37911  24.003   1.893  11.812
72652W        W37912   3.210  27.646  12.015
72653W        W37913  20.844  13.496  11.589
72654W        W37914  25.304  31.886  11.555
72655W        W37915   7.368  13.536  11.901
72656W        W37916  42.342  24.731  12.975
72657W        W37917  13.807  20.707  14.326
72658W        W37918  22.043  18.122   1.736
72659W        W37919   5.190  26.940   1.881
72660W        W37920  11.270  41.032   3.246
72661W        W37921  21.644   9.607   2.814
72662W        W37922  29.498  12.898  11.204
72663W        W37923  16.723   6.059   0.862
72664W        W37924   6.164  23.278  12.751
72665W        W37925   0.273   6.711  12.490
72666W        W37926  25.467  24.500   4.139
72667W        W37927  32.870  43.614   2.269
72668W        W37928  15.772   4.380  10.592
72669W        W37929   4.178  21.252  14.248
72670W        W37930  41.777   1.771   4.598
72671W        W37931  44.786  10.614   3.581
72672W        W37932  30.094   1.007   4.105
72673W        W37933  41.278  42.884  13.463
72674W        W37934   3.962  16.863  12.567
72675W        W37935  19.708   2.307  12.189
72676W        W37936  14.159  26.659  12.085
72677W        W37937   3.990  11.155  10.606
72678W        W37938   2.750  17.804   3.618
72679W        W37939  32.889  39.065  13.282
72680W        W37940  25.935  36.371   1.736
72681W        W37941   4.987  36.378  12.480
72682W        W37942  14.226  13.692   2.251
72683W        W37943  30.323   6.472  14.851
72684W        W37944  27.602   0.801  12.881
72685W        W37945  33.737  19.708  11.909
72686W        W37946   4.262  40.063   4.195
72687W        W37947   7.937  12.262  11.938
72688W        W37948  11.259  39.331   1.272
72689W        W37949  11.246   6.822   3.304
72690W        W37950  14.235  22.284   2.079
72691W        W37951  27.409  25.550   3.168
72692W        W37952  33.184   6.931   4.622
72693W        W37953  18.477  23.744  14.461
72694W        W37954   1.775  41.794   4.336
72695W        W37955  29.393  37.471   1.315
72696W        W37956  13.108  10.349   9.858
72697W        W37957  28.229  10.277   4.638
72698W        W37958   8.766  28.974   0.703
72699W        W37959   1.516   8.866   3.103
72700W        W37960  11.104   6.207   1.269
72701W        W37961  29.803  40.307  13.280
72702W        W37962  23.666   8.094   0.009
72703W        W37963  22.292  42.194   4.668
72704W        W37964   7.806  40.351   2.416
72705W        W37965  29.133  25.037  13.627
72706W        W37966  23.709  12.450  11.606
72707W        W37967  22.136  41.516  13.322
72708W        W37968   5.375  30.515   3.508
72709W        W37969  39.539  19.127   3.625
72710W        W37970   9.179  34.888   1.422
72711W        W37971   3.140  23.052   2.882
72712W        W37972   9.379  11.940   2.857
72713W        W37973  25.021  30.764  13.890
72714W        W37974  32.434  40.636   3.204
72715W        W37975   4.154  23.163  14.960
72716W        W37976   0.944  41.466   1.889
72717W        W37977  17.095  13.757  12.453
72718W        W37978  44.273  31.773  10.214
72719W        W37979  13.207  25.181   4.637
72720W        W37980  37.311   4.932   3.175
72721W        W37981  27.880  12.293  12.702
72722W        W37982  19.496  10.675  11.980
72723W        W37983   4.169  38.956  13.721
72724W        W37984  22.137  32.359   2.457
72725W        W37985  29.053  34.020  14.412
72726W        W37986  21.734  18.464   2.378
72727W        W37987  18.832  18.758   4.427
72728W        W37988  13.219  19.077   1.636
72729W        W37989  40.020  35.315   0.272
72730W        W37990  25.698  19.644  12.413
72731W        W37991  24.095  34.043   2.642
72732W        W37992   4.687  36.510   3.752
72733W        W37993  37.894  30.230  14.367
72734W        W37994  28.096  15.063   1.364
72735W        W37995  23.452  12.731  12.466
72736W        W37996   1.065  30.875  14.453
72737W        W37997  15.661  43.381  15.000
72738W        W37998  37.069  36.901   1.439
72739W        W37999  44.221  16.807  11.624
72740W        W38000  28.044  18.299  11.193
72741W        W38001  37.863  42.351   4.774
72742W        W38002  33.498  35.801   1.402
72743W        W38003  32.675   3.762   1.386
72744W        W38004  10.170  38.852  14.186
72745W        W38005  20.575  32.302   3.878
72746W        W38006  21.498  37.460  11.940
72747W        W38007  44.397   6.988   1.363
72748W        W38008  41.480  10.053   0.667
72749W        W38009   0.398  23.970   4.332
72750W        W38010  19.269   1.729  12.572
72751W        W38011  18.519  10.646  11.954
72752W        W38012   9.316  35.779   1.792
72753W        W38013  39.973  20.242   3.082
72754W        W38014   1.445  11.112   2.240
72755W        W38015  20.766   6.136   3.677
72756W        W38016  32.597  26.692   2.297
72757W        W38017  25.518   0.448  12.439
72758W        W38018  10.158  17.316   0.886
72759W        W38019  26.232   8.963  14.395
72760W        W38020  25.527  31.698  11.127
72761W        W38021  13.167  24.175   3.434
72762W        W38022  20.240   7.794   1.620
72763W        W38023   5.793  12.316   2.165
72764W        W38024   5.294  10.827  11.454
72765W        W38025  34.430   0.963  12.027
72766W        W38026  39.388  14.691  12.033
72767W        W38027   2.340   7.801   1.694
72768W        W38028  22.044  44.711   3.825
72769W        W38029  40.556   2.407   0.918
72770W        W38030  15.236  43.806   3.538
72771W        W38031   6.432  12.883   4.609
72772W        W38032  22.161  34.939   2.733
72773W        W38033  37.296   8.867   4.127
72774W        W38034  31.945  18.855   0.303
72775W        W38035  24.184  22.586   1.186
72776W        W38036  39.189   1.978   4.023
72777W        W38037  36.622  25.475   2.871
72778W        W38038  22.643   9.812  11.297
72779W        W38039  25.530  27.972  10.634
72780W        W38040  37.997  28.488  10.462
72781W        W38041   1.228   7.130   1.303
72782W        W38042  26.318  19.884   0.500
72783W        W38043  18.576   5.001  11.848
72784W        W38044  24.129  43.841   2.309
72785W        W38045  39.146  26.560  12.484
72786W        W38046   7.708  18.659   4.585
72787W        W38047  25.096  21.226   3.545
72788W        W38048  32.002  39.717  13.314
72789W        W38049  31.202  20.147  14.623
72790W        W38050   4.697   6.315  14.513
72791W        W38051  19.979   2.704   3.202
72792W        W38052  18.130  26.194   3.406
72793W        W38053  41.473  21.844  12.046
72794W        W38054  26.577  19.209  14.458
72795W        W38055  37.890  38.690   3.106
72796W        W38056  23.630  33.130   4.216
72797W        W38057  13.588  16.979  14.934
72798W        W38058  18.205  37.874   3.152
72799W        W38059  41.219  31.843  10.882
72800W        W38060  43.935  32.509  13.398
72801W        W38061  42.093  44.413  14.879
72802W        W38062  33.567  19.022  13.638
72803W        W38063  33.865  44.029   1.579
72804W        W38064  24.533  15.764  11.921
72805W        W38065  24.693   8.495  11.686
72806W        W38066  31.559  32.228   0.946
72807W        W38067  30.555  37.012   2.305
72808W        W38068  18.674   7.678  14.253
72809W        W38069  12.919  27.611  12.255
72810W        W38070   9.826  42.207  12.663
72811W        W38071  14.135  37.888  13.309
72812W        W38072  17.165  42.863   0.940
72813W        W38073  11.722  44.015  12.156
72814W        W38074  23.668  10.229  10.626
72815W        W38075  33.679  40.392  14.536
72816W        W38076  27.203   9.762  12.927
72817W        W38077  41.480  35.970  12.109
72818W        W38078  25.103  25.902   1.441
72819W        W38079  38.338  20.967  10.088
72820W        W38080  13.105  33.887   4.596
72821W        W38081  30.503  44.551   1.237
72822W        W38082   4.333   5.422  14.033
72823W        W38083  19.955  43.609   1.201
72824W        W38084  27.264  42.802   2.353
72825W        W38085  19.285  32.565   1.777
72826W        W38086  41.316  40.731  11.010
72827W        W38087  16.198  17.220   1.422
72828W        W38088  25.937  35.314   3.684
72829W        W38089  30.025  13.135   0.785
72830W        W38090  42.815   8.823  13.260
72831W        W38091  23.238  42.212   4.491
72832W        W38092   6.323  28.394  14.945
72833W        W38093  10.119   5.948  11.465
72834W        W38094  16.021  31.387  12.385
72835W        W38095  33.655  44.175  11.170
72836W        W38096  18.101  42.858  11.886
72837W        W38097  26.273  26.071   2.716
72838W        W38098   9.862  43.787  10.387
72839W        W38099  18.683  22.013   1.313
72840W        W38100   2.442  19.533  11.327
72841W        W38101   1.521  32.969  12.754
72842W        W38102   0.298  18.410   4.538
72843W        W38103   9.777  38.599  13.863
72844W        W38104  13.148  38.510  10.703
72845W        W38105  11.764  44.206  14.817
72846W        W38106   5.770  31.970   0.666
72847W        W38107  23.185  43.961  14.260
72848W        W38108   4.355   7.209  13.311
72849W        W38109   0.360  23.289  12.915
72850W        W38110  24.482  34.304   1.952
72851W        W38111  26.140  40.824  11.649
72852W        W38112  24.255   0.463   1.873
72853W        W38113  41.380  44.954   3.281
72854W        W38114  26.469  11.120  12.940
72855W        W38115  38.941  33.313   1.202
72856W        W38116  15.126  37.167   1.386
72857W        W38117  31.373  28.368   2.150
72858W        W38118  20.132  44.318  14.177
72859W        W38119  12.390   9.821   3.456
72860W        W38120   3.439  24.673  10.358
72861W        W38121   2.199   6.657  12.502
72862W        W38122  25.452  19.155  11.052
72863W        W38123   9.372   7.266   0.011
72864W        W38124  34.088  28.230   3.368
72865W        W38125  29.257  24.130  12.137
72866W        W38126  36.768  15.103  13.863
72867W        W38127   9.198  38.004  14.684
72868W        W38128  10.640   2.294   1.705
72869W        W38129  12.316  32.060   2.629
72870W        W38130  33.310  12.742   1.929
72871W        W38131  22.754   3.110   5.589
72872W        W38132  12.827  19.302  11.920
72873W        W38133  23.805  43.761   1.470
72874W        W38134  36.335  24.141   4.428
72875W        W38135  28.597  11.011   0.964
72876W        W38136  11.669   5.683  12.170
72877W        W38137   3.729  28.959  13.386
72878W        W38138  40.055  33.196  14.383
72879W        W38139  23.065  19.166  11.515
72880W        W38140   7.123   2.491  13.113
72881W        W38141  44.081  25.561   5.926
72882W        W38142  13.671  42.571   4.544
72883W        W38143   8.136  25.178  12.425
72884W        W38144  33.015  31.336  12.545
72885W        W38145  20.529  22.563   2.236
72886W        W38146  25.127   5.951  11.915
72887W        W38147   2.273  27.295   1.071
72888W        W38148   2.283  38.308   0.515
72889W        W38149  22.614  30.338   1.249
72890W        W38150   2.345  20.000   4.610
72891W        W38151  19.700  14.159  13.564
72892W        W38152  18.100  22.811  10.289
72893W        W38153   4.615   6.963   3.426
72894W        W38154  27.591  10.778  14.871
72895W        W38155  31.509  20.729  14.497
72896W        W38156  44.799  34.803  14.876
72897W        W38157  10.287  25.491   2.798
72898W        W38158  34.335  12.259  12.803
72899W        W38159  34.084  19.282  11.990
72900W        W38160  23.561  42.931   4.144
72901W        W38161  28.859  11.771   1.386
72902W        W38162   7.435  11.371   3.693
72903W        W38163  21.461  44.031   4.565
72904W        W38164   2.763  21.246   1.251
72905W        W38165  19.727  35.861  14.779
72906W        W38166   6.038  32.930  14.798
72907W        W38167  23.091  33.551  12.127
72908W        W38168   2.665  36.067   2.910
72909W        W38169  10.873  20.591   3.882
72910W        W38170  15.160  22.236  13.926
72911W        W38171  13.095  29.376  13.254
72912W        W38172  15.250  37.853   2.946
72913W        W38173  13.574  17.651  11.605
72914W        W38174   5.337  25.673   1.276
72915W        W38175  25.339  25.261   3.237
72916W        W38176  27.521  37.754  14.260
72917W        W38177  27.978  44.873  12.942
72918W        W38178  32.140  10.875  12.339
72919W        W38179  14.116  39.288  12.032
72920W        W38180   2.658  21.131  12.119
72921W        W38181  40.197   3.954  14.336
72922W        W38182   5.421  23.954  12.872
72923W        W38183  38.137  18.204   2.698
72924W        W38184  28.944  29.499   4.173
72925W        W38185  34.402   6.007   2.697
72926W        W38186  14.822   9.431   0.860
72927W        W38187  22.101  25.127  10.737
72928W        W38188  20.792  17.588  10.656
72929W        W38189   7.649  11.851  13.045
72930W        W38190  20.112  21.396  13.139
72931W        W38191   0.466   0.244   2.327
72932W        W38192  20.021  33.789   3.477
72933W        W38193  27.007  29.828  10.808
72934W        W38194  13.623  14.744   0.434
72935W        W38195  20.167  25.491   4.013
72936W        W38196  17.987  24.555   1.293
72937W        W38197  26.601  34.703  10.757
72938W        W38198  22.412  19.057  13.953
72939W        W38199  22.956   1.455  11.575
72940W        W38200  21.635  41.534   3.744
72941W        W38201  43.683  21.005   3.733
72942W        W38202  10.781  17.672   2.368
72943W        W38203   7.047  25.526   2.363
72944W        W38204   5.736  33.572   2.883
72945W        W38205   3.818  32.066  10.674
72946W        W38206  21.655  15.201  12.114
72947W        W38207   2.214  42.857  12.531
72948W        W38208  21.292  30.576  12.992
72949W        W38209  35.322  34.383  13.074
72950W        W38210  23.063  12.354   2.105
72951W        W38211  25.729   6.821   2.204
72952W        W38212  34.342  22.560   0.464
72953W        W38213  43.532  15.528   3.714
72954W        W38214  17.971  23.467   3.241
72955W        W38215  12.754  30.471   2.233
72956W        W38216  37.060  35.936   0.545
72957W        W38217   3.806   8.705   4.398
72958W        W38218   8.840  27.930   3.272
72959W        W38219  23.449  35.562  11.183
72960W        W38220   7.010  19.782   4.436
72961W        W38221   1.510   0.649   0.906
72962W        W38222  34.633  18.350   1.460
72963W        W38223   1.367  34.795   0.454
72964W        W38224  32.044  12.632  12.108
72965W        W38225   4.001  12.789   3.214
72966W        W38226  12.445   1.332   1.036
72967W        W38227   3.797   5.843  10.714
72968W        W38228  40.875  13.797   0.037
72969W        W38229  12.208  34.387  10.966
72970W        W38230   7.405  27.631  13.428
72971W        W38231  21.569  24.931  13.398
72972W        W38232  25.124  19.341   4.463
72973W        W38233   8.787   3.400   1.734
72974W        W38234  28.932  27.077   4.095
72975W        W38235  21.150  13.613  13.433
72976W        W38236  17.147  25.025  14.601
72977W        W38237  42.313   0.259  14.856
72978W        W38238  10.856  12.459   0.815
72979W        W38239  25.771  39.959  12.992
72980W        W38240  43.502   6.873  11.536
72981W        W38241  41.089  15.585   2.233
72982W        W38242  20.993  20.638  14.980
72983W        W38243  28.027   4.862   5.090
72984W        W38244   0.438  12.019   2.283
72985W        W38245   8.847  23.462   4.227
72986W        W38246   2.661  14.708   3.475
72987W        W38247  29.243   5.325   1.511
72988W        W38248  34.463   7.392  13.754
72989W        W38249  15.608  34.160   1.686
72990W        W38250  41.524  43.076  12.462
72991W        W38251  37.073  35.314   3.788
72992W        W38252  31.648  19.553   1.644
72993W        W38253  14.565  31.019  13.434
72994W        W38254  40.189  35.567   0.728
72995W        W38255  18.130  13.080  12.956
72996W        W38256  39.990   8.899  14.447
72997W        W38257  40.455   2.233  14.985
72998W        W38258   0.784  43.843  12.133
72999W        W38259  30.010   4.556  11.172
73000W        W38260   3.027  26.514  13.819
73001W        W38261  19.208  35.527  10.963
73002W        W38262   7.200  17.867   0.052
73003W        W38263   9.884  28.999   4.297
73004W        W38264  25.567  15.897  10.533
73005W        W38265  26.087  22.777  12.890
73006W        W38266  28.908  14.955   4.270
73007W        W38267  21.682  28.540   0.259
73008W        W38268  23.479   1.303   3.657
73009W        W38269  10.324  17.770  12.225
73010W        W38270  33.031  39.529  13.494
73011W        W38271  41.017  35.891  13.157
73012W        W38272   4.859  29.385   1.475
73013W        W38273  14.662  36.706   3.073
73014W        W38274   1.369  32.630  13.566
73015W        W38275  31.097  14.829   4.146
73016W        W38276  43.349  38.588  13.851
73017W        W38277  30.622   2.324   4.352
73018W        W38278  13.723  13.616  12.925
73019W        W38279  27.485   7.400  12.386
73020W        W38280  43.929  40.928  11.113
73021W        W38281  38.925   3.464  14.722
73022W        W38282  28.947  16.315   0.074
73023W        W38283   7.822   2.886  13.768
73024W        W38284  35.067  40.245   0.551
73025W        W38285  37.118   7.710   0.383
73026W        W38286  35.156   3.708  11.953
73027W        W38287  24.679  17.105   5.026
73028W        W38288  26.963   5.193  11.859
73029W        W38289  18.599   1.922   0.390
73030W        W38290  22.088  37.808   1.346
73031W        W38291  36.278   1.347  12.054
73032W        W38292  28.240  30.573  10.265
73033W        W38293  42.509  16.725   1.878
73034W        W38294   2.707   9.628   1.855
73035W        W38295  24.642  42.954   2.659
73036W        W38296  43.974  40.519  10.787
73037W        W38297   3.243  21.228   0.252
73038W        W38298  19.502  34.094  11.122
73039W        W38299  38.369  22.709  14.856
73040W        W38300  12.811  41.464   2.836
73041W        W38301  23.206  20.990  12.211
73042W        W38302  12.619  25.202   4.136
73043W        W38303  41.305   3.416   0.665
73044W        W38304  14.852  24.466   2.739
73045W        W38305  26.446  28.265   1.603
73046W        W38306  12.939  37.212  10.232
73047W        W38307  12.284  18.983  13.371
73048W        W38308   4.873   5.797   1.429
73049W        W38309  34.006   4.689   1.985
73050W        W38310  18.755  35.542  11.230
73051W        W38311   2.022  16.541   0.746
73052W        W38312  10.110  19.236   1.407
73053W        W38313  20.336  21.734   4.076
73054W        W38314  27.497  12.656  12.963
73055W        W38315  44.488  21.227  12.040
73056W        W38316  39.249  10.875   2.149
73057W        W38317   4.654  34.540  12.898
73058W        W38318   0.262  38.850   4.039
73059W        W38319  20.600  39.980   2.239
73060W        W38320  28.689  24.452  14.880
73061W        W38321  27.418   7.566   0.012
73062W        W38322  32.541  42.884   1.620
73063W        W38323  11.562  20.663   1.728
73064W        W38324  33.423   2.477  13.090
73065W        W38325  14.230   1.316  13.521
73066W        W38326  27.796   0.154   2.293
73067W        W38327  25.602  15.014   0.314
73068W        W38328  34.246  29.859   0.153
73069W        W38329  43.503   7.602  14.225
73070W        W38330  26.019  24.377   1.795
73071W        W38331  34.450  10.631   4.018
73072W        W38332  15.223  23.572  13.350
73073W        W38333   1.292   0.598  13.978
73074W        W38334  27.445  21.114  12.125
73075W        W38335  24.499  40.892  14.100
73076W        W38336  35.021  33.151  13.131
73077W        W38337   3.876  33.440   0.424
73078W        W38338  19.718  35.613   3.549
73079W        W38339   6.362  34.193  11.162
73080W        W38340  42.498   2.935   1.315
73081W        W38341  12.746   0.896  12.368
73082W        W38342  27.735   6.164   2.400
73083W        W38343  14.215   4.220   0.987
73084W        W38344  34.418  20.034   4.521
73085W        W38345  14.267  37.419  12.293
73086W        W38346  32.016  36.995  14.049
73087W        W38347   6.369  16.826   3.153
73088W        W38348  14.648  33.382  14.044
73089W        W38349  13.299  21.162  13.633
73090W        W38350  13.654  24.071  12.327
73091W        W38351  41.358  20.991  14.302
73092W        W38352  12.298  36.514   0.356
73093W        W38353  34.146  35.632  12.964
73094W        W38354   9.445  39.835   3.699
73095W        W38355   8.291  12.101   0.276
73096W        W38356   7.349  35.224   3.630
73097W        W38357   6.225  42.289  11.131
73098W        W38358  23.321  24.108  11.333
73099W        W38359  26.741   7.363   1.383
73100W        W38360  11.483  31.560   0.845
73101W        W38361  21.796  30.193  13.267
73102W        W38362  41.577   6.694  11.687
73103W        W38363  32.995  18.410  11.261
73104W        W38364  13.837  10.931  11.035
73105W        W38365  31.279  42.021  14.322
73106W        W38366  30.985   9.740  10.706
73107W        W38367  26.538  40.433   4.445
73108W        W38368  33.833  44.819  13.098
73109W        W38369  13.352  33.778  13.991
73110W        W38370   8.840   5.205  10.272
73111W        W38371  37.687  20.501   0.766
73112W        W38372  13.746  32.422   2.698
73113W        W38373  26.018  32.485  14.877
73114W        W38374  19.232  33.088   4.572
73115W        W38375  26.478  14.005  10.554
73116W        W38376  30.417  21.836  10.757
73117W        W38377  30.519  25.058  11.656
73118W        W38378  15.990  20.281  11.747
73119W        W38379  29.477  20.681  13.350
73120W        W38380   5.831  30.973  11.470
73121W        W38381   6.808  36.582  14.373
73122W        W38382   3.046  33.159   3.858
73123W        W38383  11.302  16.618  11.475
73124W        W38384  35.874  34.009   0.459
73125W        W38385  26.537  11.011   0.398
73126W        W38386  18.719   9.348  11.623
73127W        W38387  32.550   7.923  11.795
73128W        W38388  43.799   6.076   0.100
73129W        W38389  33.322   1.798  10.588
73130W        W38390  39.689  13.262  14.834
73131W        W38391  37.627  43.129  14.284
73132W        W38392  43.090  24.522  12.411
73133W        W38393  43.708  41.097   3.559
73134W        W38394   1.234  21.471   3.908
73135W        W38395  19.535   5.490   3.581
73136W        W38396  15.319  41.759  11.307
73137W        W38397  23.328   8.469   4.229
73138W        W38398   0.246  32.422  12.884
73139W        W38399  28.215  27.677   3.138
73140W        W38400  27.639  19.008   1.996
73141W        W38401  39.298  33.641  13.498
73142W        W38402  37.124  26.275  11.879
73143W        W38403  26.033   5.307   1.435
73144W        W38404   4.728  25.231   2.816
73145W        W38405  33.566  40.423   0.552
73146W        W38406  34.442  34.902   3.419
73147W        W38407  18.668  15.113  14.674
73148W        W38408   2.194  39.780  11.177
73149W        W38409  15.420  17.043   1.919
73150W        W38410  27.991  32.638  11.245
73151W        W38411  34.671  44.453   4.060
73152W        W38412  24.380   0.077   0.502
73153W        W38413  34.943  15.179  10.783
73154W        W38414  40.968  14.295  14.394
73155W        W38415  39.334   6.220   1.459
73156W        W38416   3.758   0.547   2.083
73157W        W38417  28.946  26.379  13.505
73158W        W38418  44.864   8.752   2.612
73159W        W38419  30.473  29.510   4.977
73160W        W38420   8.191  18.795   1.318
73161W        W38421  39.658  44.443   2.306
73162W        W38422  24.564   4.462   2.235
73163W        W38423   0.408   5.280  12.968
73164W        W38424  40.886  37.040  13.453
73165W        W38425  16.616  12.778  10.742
73166W        W38426  22.818   9.855   0.004
73167W        W38427  33.683   0.746  12.888
73168W        W38428  11.855  13.051  13.973
73169W        W38429  15.613  11.691   3.555
73170W        W38430   8.228  19.526  12.875
73171W        W38431  43.329  29.195  10.703
73172W        W38432  43.176  14.537   1.207
73173W        W38433  14.717  40.505  14.521
73174W        W38434  40.285  35.320   3.565
73175W        W38435  11.643  32.076   0.810
73176W        W38436  29.006  37.608  14.471
73177W        W38437  25.226  20.395  13.504
73178W        W38438  18.235  14.824  10.651
73179W        W38439   7.774   3.882  14.895
73180W        W38440  11.342   3.805   3.033
73181W        W38441  19.077  34.355  12.062
73182W        W38442  24.493  29.223  14.425
73183W        W38443   8.175  41.059  11.250
73184W        W38444  30.980  32.946  11.897
73185W        W38445  30.468   9.522  10.699
73186W        W38446   3.131  28.621  10.579
73187W        W38447  23.193   1.996   1.256
73188W        W38448  16.494  13.577   0.248
73189W        W38449   5.433  19.215   0.972
73190W        W38450  23.809  11.251  13.425
73191W        W38451  12.158  15.857  11.074
73192W        W38452   1.175  11.453  14.363
73193W        W38453  21.456  20.544  13.921
73194W        W38454  19.531  22.053   1.022
73195W        W38455  11.800  34.510  10.594
73196W        W38456  19.814  18.122  11.334
73197W        W38457  43.294   9.935  11.532
73198W        W38458  32.596  27.563  14.410
73199W        W38459  14.665  18.166  11.890
73200W        W38460  38.796  20.538   1.587
73201W        W38461  39.699  29.442   3.946
73202W        W38462  18.650  13.574  10.730
73203W        W38463  26.077  16.194   3.064
73204W        W38464  19.786  26.608   0.789
73205W        W38465  13.810  32.570   2.188
73206W        W38466   0.313  43.413   2.762
73207W        W38467  13.168  41.032  10.975
73208W        W38468   2.446  18.681   2.407
73209W        W38469  34.911   7.292   1.443
73210W        W38470  28.941  41.702  10.551
73211W        W38471  30.422  26.612  12.549
73212W        W38472  37.151   2.964  11.953
73213W        W38473   7.309  13.333  13.485
73214W        W38474  16.092  17.915   3.105
73215W        W38475  39.350  23.784  12.719
73216W        W38476  40.482  43.555  14.298
73217W        W38477  44.413   4.962   0.811
73218W        W38478  16.006   5.269  13.734
73219W        W38479   3.359  35.949  13.973
73220W        W38480  30.227  23.393  13.071
73221W        W38481  15.430  39.015   1.558
73222W        W38482  44.693  23.069  13.523
73223W        W38483  10.828  38.256   1.645
73224W        W38484  20.555   6.207  14.752
73225W        W38485  39.890  39.784  12.976
73226W        W38486   1.615  43.470  14.359
73227W        W38487   4.642   7.348   2.676
73228W        W38488  12.687  12.907   4.083
73229W        W38489  32.152  11.088  11.617
73230W        W38490  24.988   4.457   0.311
73231W        W38491  43.816   3.396  14.816
73232W        W38492  41.818   5.412   4.352
73233W        W38493  25.499   1.680  10.593
73234W        W38494  17.032  28.519  11.965
73235W        W38495  10.662  22.216   4.356
73236W        W38496  33.208  38.908  14.743
73237W        W38497  19.743  12.225   1.360
73238W        W38498  38.765  22.088  12.008
73239W        W38499  10.134  31.641   4.091
73240W        W38500   9.705  14.080  13.608
73241W        W38501  25.938   8.495   2.246
73242W        W38502  14.717  38.983   1.954
73243W        W38503  22.664  27.209   0.939
73244W        W38504  18.083  20.288   2.516
73245W        W38505   7.496  44.432  13.457
73246W        W38506  27.960  23.263   4.635
73247W        W38507  11.407  28.356   4.550
73248W        W38508  37.082  33.986  13.914
73249W        W38509  31.696   4.836  12.423
73250W        W38510  19.600  42.441  11.950
73251W        W38511  18.731  21.202  13.047
73252W        W38512  17.090  32.775  12.908
73253W        W38513  29.645  31.549   0.451
73254W        W38514  21.147  18.589  12.401
73255W        W38515  11.371   1.354  10.759
73256W        W38516  20.523  40.985   1.722
73257W        W38517  33.125  13.395  14.818
73258W        W38518  26.114   5.923  11.405
73259W        W38519  32.855  17.282   2.381
73260W        W38520  29.625  22.630  10.595
73261W        W38521   2.373  33.194  12.477
73262W        W38522  11.575  21.606  13.483
73263W        W38523   1.458  10.445   0.274
73264W        W38524  41.828  34.986   3.596
73265W        W38525  15.302   5.273  11.665
73266W        W38526   6.178   4.890  11.688
73267W        W38527  27.195  27.072  13.466
73268W        W38528   9.693  13.384   3.587
73269W        W38529   8.753   7.843   9.974
73270W        W38530   5.021   2.288  11.602
73271W        W38531  21.419   1.015   0.466
73272W        W38532  32.645  35.599   4.552
73273W        W38533  13.182  42.022  12.749
73274W        W38534   6.864  30.873  12.224
73275W        W38535  20.755  21.923   0.114
73276W        W38536   2.719  10.645  12.945
73277W        W38537  30.155  34.422  14.035
73278W        W38538  25.711  42.702   1.123
73279W        W38539  23.947  43.269   1.148
73280W        W38540   6.760  30.879   4.616
73281W        W38541  36.885  24.962  12.128
73282W        W38542  27.938  35.425   2.810
73283W        W38543   7.712  37.284   4.262
73284W        W38544  28.925  29.111   0.411
73285W        W38545  20.961   8.210   1.794
73286W        W38546  41.716  33.201   1.774
73287W        W38547   4.911  33.911  13.551
73288W        W38548   3.364  23.570  14.687
73289W        W38549  42.503  27.133   0.337
73290W        W38550  11.349  38.417   0.414
73291W        W38551  27.199  16.008   1.819
73292W        W38552  19.509  38.795   1.249
73293W        W38553  13.851  28.943  14.964
73294W        W38554  16.089   3.902   4.132
73295W        W38555  10.601  21.997   4.833
73296W        W38556  43.936  16.246  11.210
73297W        W38557  10.869  21.432  14.931
73298W        W38558   6.405  41.609   1.851
73299W        W38559   9.471  41.703   0.224
73300W        W38560   3.481  28.177  11.195
73301W        W38561  44.904   6.405   2.683
73302W        W38562  42.927   6.302  12.100
73303W        W38563  24.630  27.523  11.422
73304W        W38564   1.831  44.967   0.325
73305W        W38565   5.244  36.037   4.623
73306W        W38566  13.830  26.067  10.585
73307W        W38567  30.579   5.393   2.951
73308W        W38568  35.739   8.470  12.479
73309W        W38569  15.230  39.455   3.275
73310W        W38570   2.483  24.650  13.014
73311W        W38571  34.349  32.468  12.996
73312W        W38572  28.985  17.215  13.461
73313W        W38573  11.839  38.545   5.103
73314W        W38574  23.476  14.368  12.694
73315W        W38575  35.879  14.616  11.463
73316W        W38576   5.143  36.351  13.750
73317W        W38577  32.263  28.479   4.976
73318W        W38578  26.544   7.040   0.337
73319W        W38579  37.808  31.380  14.981
73320W        W38580   9.392  44.991  14.787
73321W        W38581   0.292  32.247   5.218
73322W        W38582  34.516  26.507   3.700
73323W        W38583   9.133  39.886   2.413
73324W        W38584  20.320  27.115   4.174
73325W        W38585  36.390  30.283  14.537
73326W        W38586   1.961  33.566   0.272
73327W        W38587  24.750  13.644   0.763
73328W        W38588  37.041  41.084  13.845
73329W        W38589   3.726  34.424  11.069
73330W        W38590  14.210   9.121   3.645
73331W        W38591  34.339  14.290   4.855
73332W        W38592  21.099  30.941   3.850
73333W        W38593  10.121  22.708  11.017
73334W        W38594  41.948  33.036  10.751
73335W        W38595  10.400  29.460   4.692
73336W        W38596   4.702  41.817  11.425
73337W        W38597  35.971  43.652   4.554
73338W        W38598  24.984  22.185   3.354
73339W        W38599  39.524  17.154   2.841
73340W        W38600  38.507  44.000  12.524
73341W        W38601   7.445   2.315  13.492
73342W        W38602  25.783  36.852   4.764
73343W        W38603  34.671   5.654  12.461
73344W        W38604   7.828  17.127   0.687
73345W        W38605   9.861  19.100   2.900
73346W        W38606   3.802  27.225  13.570
73347W        W38607  34.634   9.341   2.928
73348W        W38608   3.305  10.621  13.795
73349W        W38609   7.801  28.235   2.657
73350W        W38610  23.648   9.672   2.402
73351W        W38611  18.382  31.888   2.702
73352W        W38612  31.033  22.223  11.688
73353W        W38613  21.195  24.634   1.437
73354W        W38614  28.250  35.505  14.535
73355W        W38615   9.407  42.062   1.550
73356W        W38616  39.969  33.765   2.562
73357W        W38617  24.550  30.098   1.741
73358W        W38618  32.585  10.809   3.622
73359W        W38619   7.565  43.324   1.103
73360W        W38620   9.071   0.990  11.994
73361W        W38621   1.194  15.620  14.426
73362W        W38622  30.989  26.977  13.975
73363W        W38623   3.477  41.131  10.377
73364W        W38624  23.353  11.148   4.899
73365W        W38625  18.209  24.967  11.579
73366W        W38626  22.634  18.576  14.019
73367W        W38627  24.585  26.500  13.954
73368W        W38628   2.821  34.666   4.766
73369W        W38629  40.609  39.050  11.721
73370W        W38630  34.555  21.669   0.934
73371W        W38631  44.754  43.085  13.827
73372W        W38632   9.099  33.620  14.218
73373W        W38633   4.313  42.618   3.109
73374W        W38634  42.233  12.710  11.624
73375W        W38635  41.818  36.079  11.702
73376W        W38636  29.651  11.678  10.705
73377W        W38637  14.286  27.059  13.506
73378W        W38638  30.912  29.760   2.726
73379W        W38639  17.303   6.684   3.682
73380W        W38640  25.614   9.463  12.154
73381W        W38641  29.139   1.636   0.920
73382W        W38642  14.634  42.802  13.792
73383W        W38643  16.543  15.630  13.910
73384W        W38644  17.649  41.868   4.473
73385W        W38645  18.126  40.028  14.872
73386W        W38646  17.909  17.682  14.864
73387W        W38647  42.971  28.364  13.443
73388W        W38648  10.733  28.582   3.172
73389W        W38649  30.855  12.821   4.545
73390W        W38650  13.000  16.711   3.321
73391W        W38651  27.185   1.471  12.890
73392W        W38652   3.443  11.621   3.300
73393W        W38653   6.923   2.048   1.651
73394W        W38654  39.680  41.770   1.794
73395W        W38655   8.267  11.633  13.504
73396W        W38656  23.627  16.385   1.758
73397W        W38657  29.579  32.818  12.391
73398W        W38658  12.550  42.057   1.764
73399W        W38659  14.395  28.720  11.324
73400W        W38660   9.162  30.679   3.666
73401W        W38661  16.683  23.043   0.493
73402W        W38662   1.328   4.781  11.964
73403W        W38663   9.129  20.454   1.984
73404W        W38664  38.209  30.126  12.913
73405W        W38665  14.474   8.803  12.968
73406W        W38666  15.274  29.949   3.800
73407W        W38667  24.261  39.479   1.459
73408W        W38668   6.392   9.218  10.742
73409W        W38669  16.034  41.857   2.744
73410W        W38670  37.602  18.209   3.414
73411W        W38671  16.107  18.139  14.064
73412W        W38672  44.261  35.513   3.739
73413W        W38673  39.070  39.287  13.755
73414W        W38674  18.600  39.607   0.510
73415W        W38675   9.706  37.059   0.979
73416W        W38676  20.236  26.226  12.512
73417W        W38677   2.439  24.457  14.993
73418W        W38678  30.910  20.494  13.330
73419W        W38679  31.679  12.194   3.848
73420W        W38680  26.937  23.053   4.489
73421W        W38681   6.452  37.535  12.791
73422W        W38682   5.878  42.070  14.791
73423W        W38683  41.599  31.287   2.944
73424W        W38684  38.957  17.170   0.968
73425W        W38685  44.697   3.696  12.596
73426W        W38686   7.936  41.795   0.313
73427W        W38687  15.768  13.638  12.026
73428W        W38688  23.273  41.932  10.920
73429W        W38689  14.355  28.251   2.616
73430W        W38690  21.466  36.070   0.418
73431W        W38691  44.975   3.202   2.305
73432W        W38692   7.450   2.674  12.760
73433W        W38693   2.640  21.434   3.868
73434W        W38694   2.918  35.456   3.614
73435W        W38695  28.956  20.846  12.061
73436W        W38696   6.450  28.925  12.822
73437W        W38697  12.350  38.914   1.231
73438W        W38698  44.736   8.307   5.415
73439W        W38699  32.035  35.374   0.920
73440W        W38700  20.100   8.784   0.097
73441W        W38701  12.879  40.937  14.985
73442W        W38702  21.305  32.000   5.061
73443W        W38703  40.536   0.437   3.716
73444W        W38704  26.950  17.497   1.346
73445W        W38705  40.188  15.557  11.698
73446W        W38706   2.244  33.368   9.835
73447W        W38707  25.011   0.406  13.487
73448W        W38708   3.384  28.026  13.971
73449W        W38709  11.660   9.340  11.118
73450W        W38710  33.902   0.702  12.048
73451W        W38711  44.189  17.587  12.884
73452W        W38712  40.787  36.055   3.641
73453W        W38713  28.001  33.992  10.823
73454W        W38714  32.943  37.624  13.829
73455W        W38715  25.907  13.093   2.763
73456W        W38716  10.256  40.761   2.641
73457W        W38717   0.068  12.296  10.056
73458W        W38718  43.567  40.531   0.317
73459W        W38719  18.834  15.566   3.315
73460W        W38720  12.195   8.737  14.131
73461W        W38721   3.436  10.649  11.454
73462W        W38722  18.818  31.714   3.696
73463W        W38723  43.882  38.035   2.754
73464W        W38724  21.603  24.936  12.457
73465W        W38725  19.004  10.386  13.465
73466W        W38726   8.030  22.068  10.718
73467W        W38727   7.155  37.035   2.293
73468W        W38728   9.818  18.524   1.216
73469W        W38729  28.028  11.025  11.584
73470W        W38730  30.129  30.623  13.500
73471W        W38731   4.467  37.321  12.996
73472W        W38732  26.950  42.055  14.004
73473W        W38733  11.616  27.085  12.049
73474W        W38734  42.752  35.330   1.351
73475W        W38735  28.705   7.302   1.200
73476W        W38736  43.741  20.739  14.324
73477W        W38737  37.331  27.822   3.236
73478W        W38738   3.418  17.610   0.700
73479W        W38739  39.143  22.576   0.279
73480W        W38740  44.372  27.088  12.491
73481W        W38741  41.790  35.671  11.381
73482W        W38742  14.848  29.021   2.503
73483W        W38743  13.497  31.072  11.231
73484W        W38744  34.680  13.041   4.104
73485W        W38745  33.614   1.518  12.521
73486W        W38746  39.291  34.162  10.672
73487W        W38747  26.520  24.720  12.890
73488W        W38748  37.491  43.212   9.863
73489W        W38749  18.580   9.755  14.903
73490W        W38750  43.633  26.173   4.349
73491W        W38751   4.233  27.974  14.468
73492W        W38752  33.566  29.946   1.829
73493W        W38753   4.991  24.007  12.053
73494W        W38754  24.487  41.117   2.811
73495W        W38755  36.518  14.143   1.528
73496W        W38756  38.327   9.727  10.929
73497W        W38757  25.920   8.719   5.197
73498W        W38758  40.446  34.646  14.368
73499W        W38759  25.242   1.250   1.407
73500W        W38760  43.755  30.806   4.070
73501W        W38761   5.995  38.770  11.987
73502W        W38762  22.082  44.207   3.908
73503W        W38763  15.733  12.272   1.000
73504W        W38764   7.625  22.775   0.807
73505W        W38765  15.517  35.021  12.425
73506W        W38766  26.068  16.961  14.770
73507W        W38767  38.744  12.131   2.397
73508W        W38768  21.014  26.164  13.579
73509W        W38769  16.096   5.834  10.765
73510W        W38770  34.179  43.053   0.237
73511W        W38771  15.878  23.570   4.148
73512W        W38772  42.102  42.391   3.487
73513W        W38773  25.993  24.661   2.637
73514W        W38774  12.898   4.479   0.197
73515W        W38775  24.482  33.452  14.904
73516W        W38776  10.344  13.410  11.691
73517W        W38777   3.733  36.473  10.655
73518W        W38778  33.769  28.432  12.569
73519W        W38779  37.694  22.614  11.306
73520W        W38780  31.389  24.744  12.933
73521W        W38781  17.497  19.511   0.449
73522W        W38782   8.896  42.835   4.989
73523W        W38783   7.485  25.567   1.032
73524W        W38784  39.272  38.297  12.888
73525W        W38785  33.468  18.623   2.125
73526W        W38786  32.580  16.402   0.122
73527W        W38787  13.222  41.686  13.134
73528W        W38788  34.801  13.774  14.733
73529W        W38789  33.168  43.712  10.698
73530W        W38790   5.730  17.574   3.646
73531W        W38791  10.714  12.062  10.641
73532W        W38792  44.429  28.472  14.464
73533W        W38793  22.082  26.190  11.550
73534W        W38794  19.653  38.360  14.486
73535W        W38795   0.783  31.233  14.864
73536W        W38796  44.582  15.058   4.280
73537W        W38797  31.759  39.760   0.334
73538W        W38798  43.464  27.615   1.146
73539W        W38799  43.944  25.425   3.330
73540W        W38800  24.953  14.893  13.052
73541W        W38801   8.389   5.539  12.813
73542W        W38802  25.049   9.800   3.694
73543W        W38803  18.605  32.484  10.623
73544W        W38804  19.726  31.990  13.726
73545W        W38805  23.905  40.807   1.772
73546W        W38806  12.772   2.235   0.952
73547W        W38807   2.563  29.860   3.858
73548W        W38808  36.042  23.965   2.227
73549W        W38809  18.536  18.281  11.126
73550W        W38810  27.091   2.673  11.450
73551W        W38811  39.617  35.080  14.364
73552W        W38812  44.339   4.246   0.031
73553W        W38813  13.253  13.913  13.601
73554W        W38814  23.771   7.375   0.474
73555W        W38815  19.414  33.624  14.259
73556W        W38816   6.502  12.512   4.250
73557W        W38817  25.698  12.572  13.021
73558W        W38818  14.177   7.937   0.429
73559W        W38819  35.509   0.456  10.769
73560W        W38820  28.170  28.546  11.843
73561W        W38821   7.438  38.873  14.841
73562W        W38822  24.149  22.806   0.227
73563W        W38823  20.211  12.848  14.491
73564W        W38824  36.895   9.840   3.696
73565W        W38825  15.608  42.757   2.221
73566W        W38826  16.890   3.315  12.116
73567W        W38827   8.484  11.509  12.490
73568W        W38828   1.975  27.290   3.586
73569W        W38829  16.539  16.084  12.725
73570W        W38830  17.597  25.206  14.457
73571W        W38831  22.920  32.888   3.677
73572W        W38832   7.579   6.331  14.954
73573W        W38833   8.553   1.618  11.354
73574W        W38834   8.887  15.231  13.806
73575W        W38835  13.834  16.551  10.805
73576W        W38836  30.167  19.403  11.806
73577W        W38837  34.253  26.989   3.775
73578W        W38838  17.659  12.195   2.529
73579W        W38839  28.818  34.480  14.453
73580W        W38840  36.036  33.856   1.425
73581W        W38841   2.900  12.068   0.429
73582W        W38842  11.244   4.153  13.003
73583W        W38843  24.189  32.146  13.541
73584W        W38844  41.497  28.465   3.704
73585W        W38845  12.321  29.149   3.116
73586W        W38846  11.748  44.755   0.316
73587W        W38847  44.438  21.160   2.378
73588W        W38848  26.618  38.596  14.814
73589W        W38849  12.623  14.610  12.027
73590W        W38850  20.886  36.606   0.313
73591W        W38851  25.525  42.057  11.627
73592W        W38852  31.093   2.254  10.415
73593W        W38853  12.586  43.821   0.009
73594W        W38854   0.405  17.663  13.112
73595W        W38855  14.834  10.157  13.292
73596W        W38856   1.761   9.377   0.957
73597W        W38857  39.265  11.203   4.296
73598W        W38858   1.433  36.090   2.178
73599W        W38859  11.219  38.976   4.117
73600W        W38860  28.938  20.559   0.382
73601W        W38861  24.974  16.312   1.374
73602W        W38862  44.905  16.246  10.893
73603W        W38863  10.452  39.326   4.261
73604W        W38864  22.504   2.265   1.821
73605W        W38865   6.166   8.314   4.501
73606W        W38866  42.026   1.280  11.458
73607W        W38867  36.421  32.599   3.153
73608W        W38868  35.621  19.811  14.031
73609W        W38869  34.586  41.524   0.737
73610W        W38870  30.788  16.377   1.882
73611W        W38871   5.755  35.988   2.424
73612W        W38872  16.711  29.041  14.009
73613W        W38873  34.916  29.185  14.938
73614W        W38874  17.017  25.001   2.402
73615W        W38875  26.533  15.228  14.934
73616W        W38876   9.437  30.384   2.221
73617W        W38877  39.978  44.522   2.697
73618W        W38878  35.824  22.131   0.757
73619W        W38879   0.807  36.329   0.384
73620W        W38880  31.105  11.052  13.016
73621W        W38881  39.430  41.902  13.609
73622W        W38882  29.394  38.309   1.948
73623W        W38883  15.232  29.919  14.417
73624W        W38884   3.067  15.505   0.617
73625W        W38885  40.994  13.745  10.812
73626W        W38886   5.757  35.159  12.406
73627W        W38887  32.014   2.373   3.092
73628W        W38888   1.148  13.731   1.421
73629W        W38889  16.128   7.692   4.304
73630W        W38890  25.631  30.597   4.569
73631W        W38891  23.594  14.970  13.165
73632W        W38892  17.292  14.181  13.291
73633W        W38893  26.754  28.639  12.354
73634W        W38894  22.819   2.676   1.740
73635W        W38895  33.445  35.431   1.768
73636W        W38896   0.714   5.946  11.387
73637W        W38897   1.334  44.230  13.609
73638W        W38898   3.832  32.072  11.651
73639W        W38899   3.189   8.381  13.467
73640W        W38900  22.749  31.464   2.625
73641W        W38901  23.280  42.516   0.684
73642W        W38902  21.037  11.775  11.193
73643W        W38903  44.283   7.971  10.344
73644W        W38904   1.799  26.387  14.709
73645W        W38905  43.662  34.341  12.773
73646W        W38906  23.434   3.003   3.248
73647W        W38907   7.217  21.693  11.607
73648W        W38908  37.452  15.127   3.417
73649W        W38909  24.537  10.253  14.781
73650W        W38910  39.071  39.262  12.898
73651W        W38911  19.717   6.725   0.938
73652W        W38912  37.128   8.344  12.718
73653W        W38913  29.962  14.399  14.298
73654W        W38914  27.425   6.247   2.807
73655W        W38915  36.627  10.659  13.578
73656W        W38916  19.716  37.528   0.338
73657W        W38917   6.555  19.323   3.703
73658W        W38918  12.208  41.448  13.357
73659W        W38919  39.972  17.575  12.998
73660W        W38920  40.308  34.113  14.374
73661W        W38921  18.498  35.706  14.679
73662W        W38922  23.160  30.371   2.777
73663W        W38923  23.104   4.520  13.401
73664W        W38924  15.728  42.736   3.139
73665W        W38925   7.659  15.822  12.845
73666W        W38926   2.889  13.640   4.184
73667W        W38927  19.075   2.783   2.738
73668W        W38928  38.350  38.020  11.679
73669W        W38929  42.245  44.871   4.251
73670W        W38930  36.051  17.770   0.347
73671W        W38931  32.055   1.774   0.934
73672W        W38932  32.531  35.450  12.329
73673W        W38933  44.417  11.565  13.630
73674W        W38934  40.235  24.012   2.682
73675W        W38935  27.455  42.074  13.948
73676W        W38936  28.164  38.336  13.884
73677W        W38937  30.869  26.670   2.789
73678W        W38938  29.562   7.293  13.517
73679W        W38939  16.746  16.603   1.335
73680W        W38940  17.780   2.814   1.333
73681W        W38941  39.410  25.907   3.354
73682W        W38942  27.400  34.564  13.419
73683W        W38943  34.704   5.263  11.481
73684W        W38944  33.762  44.855   2.151
73685W        W38945   5.195   6.308  12.051
73686W        W38946  30.148  39.183  14.029
73687W        W38947  44.467  10.428  14.301
73688W        W38948  22.174  38.573  11.538
73689W        W38949  28.134  18.299  14.027
73690W        W38950   6.768  37.562   2.615
73691W        W38951   6.145  27.742   4.160
73692W        W38952  16.671   9.170  13.239
73693W        W38953   2.714  16.277   0.866
73694W        W38954   2.192  32.550   2.430
73695W        W38955  29.023   5.213   3.742
73696W        W38956  25.856  25.463  11.745
73697W        W38957  24.120   9.848   3.647
73698W        W38958  25.660  18.065   0.375
73699W        W38959  31.012  39.811   3.573
73700W        W38960  38.436  12.622   1.367
73701W        W38961  14.557   3.637   2.800
73702W        W38962  19.196   4.966  11.257
73703W        W38963  17.131  10.390   4.582
73704W        W38964  36.530  34.152   3.169
73705W        W38965  27.217  27.057  14.002
73706W        W38966   4.832  19.467  12.586
73707W        W38967  20.711  35.800   3.037
73708W        W38968  35.991  23.461   4.509
73709W        W38969  16.332  28.684  14.031
73710W        W38970  24.211  44.263   1.380
73711W        W38971   9.771  39.032   1.463
73712W        W38972  17.080  38.337   4.955
73713W        W38973  22.196  30.136  14.364
73714W        W38974   4.247  37.609   0.846
73715W        W38975  30.041  30.118   1.149
73716W        W38976  29.755  36.526   3.626
73717W        W38977  44.811  32.969   1.494
73718W        W38978  30.470  17.984   3.829
73719W        W38979   5.453  24.518  11.097
73720W        W38980  44.474   0.841   4.940
73721W        W38981  16.678  12.216   2.692
73722W        W38982  30.053  24.947  13.509
73723W        W38983  13.566  42.716  14.478
73724W        W38984  32.692  16.701   4.111
73725W        W38985  38.898  43.367   0.374
73726W        W38986  32.485   7.376  12.973
73727W        W38987  37.208  12.194   0.461
73728W        W38988  25.044  12.883  11.124
73729W        W38989  16.890  25.179   0.923
73730W        W38990  23.100   6.223  11.651
73731W        W38991  41.234  25.021   4.111
73732W        W38992  34.070   3.805   3.260
73733W        W38993  39.656  42.157   2.598
73734W        W38994   7.906  12.566   2.974
73735W        W38995   8.157  43.767   1.895
73736W        W38996  43.936  35.071   3.747
73737W        W38997  38.571  20.715  13.157
73738W        W38998   9.292   2.195  11.589
73739W        W38999  27.804  33.567  10.564
73740W        W39000  30.398  41.305   4.569
73741W        W39001  14.277  32.535  14.497
73742W        W39002  14.821  16.349  12.453
73743W        W39003  42.414   3.504   2.134
73744W        W39004  21.715  18.031  12.611
73745W        W39005  23.904  35.657   1.697
73746W        W39006  35.043  17.039  12.308
73747W        W39007  29.228  32.064   9.891
73748W        W39008   6.428  23.714   3.692
73749W        W39009   5.247   1.662  12.834
73750W        W39010  40.769  14.565   3.181
73751W        W39011  10.984  33.452  12.016
73752W        W39012  42.849  16.751  14.410
73753W        W39013  21.696  29.916  11.970
73754W        W39014   9.763  25.877  12.439
73755W        W39015  41.956   8.289   4.660
73756W        W39016   4.536  31.644   0.843
73757W        W39017  37.827  21.618   2.597
73758W        W39018  39.891  28.165  11.089
73759W        W39019   1.887  32.286   2.104
73760W        W39020   9.763  10.891  14.985
73761W        W39021  29.112  23.103  11.057
73762W        W39022  17.760  38.463   4.738
73763W        W39023  29.990  41.993   0.832
73764W        W39024  25.593  24.378   1.232
73765W        W39025  21.755  18.090   9.812
73766W        W39026  36.025  21.273   3.325
73767W        W39027   0.285  20.161   4.515
73768W        W39028  19.122  31.548  11.580
73769W        W39029   3.878  28.162   4.256
73770W        W39030   0.293  26.139  13.836
73771W        W39031  29.609  36.505   0.280
73772W        W39032  24.752  40.029  13.050
73773W        W39033  16.160  30.570  14.849
73774W        W39034  11.169  21.597  11.954
73775W        W39035   3.344  15.560  14.995
73776W        W39036  33.005  44.940  12.087
73777W        W39037  13.248  11.660   0.380
73778W        W39038   7.749  14.823  12.963
73779W        W39039   5.625  29.500  10.016
73780W        W39040  42.177   5.466   3.128
73781W        W39041  24.050  17.321  12.386
73782W        W39042   4.381  44.606  10.598
73783W        W39043  32.542  10.123  13.412
73784W        W39044  13.115   5.165  11.037
73785W        W39045  25.283   2.959  13.283
73786W        W39046  44.714  44.409  11.671
73787W        W39047   1.450   7.944   3.086
73788W        W39048  42.266   6.487  14.886
73789W        W39049  36.090   2.155  10.126
73790W        W39050  27.918  12.638   4.188
73791W        W39051  37.393  16.859   4.539
73792W        W39052  21.478   4.919  12.146
73793W        W39053  41.668   3.948   3.649
73794W        W39054  44.450  25.179  12.695
73795W        W39055  23.567   2.756  10.748
73796W        W39056  41.167  37.474  11.324
73797W        W39057  35.593  13.626   4.495
73798W        W39058   0.219  23.728  14.794
73799W        W39059  36.069  31.126   0.943
73800W        W39060  24.712   2.076  14.381
73801W        W39061  12.806  13.416   1.012
73802W        W39062  28.201  15.183   3.186
73803W        W39063  25.687  16.240  10.896
73804W        W39064  19.177  23.298  12.609
73805W        W39065  31.021   1.788  10.047
73806W        W39066  19.831  31.697   2.871
73807W        W39067  28.516  15.398   3.586
73808W        W39068  20.053  32.682   0.027
73809W        W39069  31.549  16.857   2.258
73810W        W39070  30.464  33.091  12.008
73811W        W39071  23.682  32.524   2.964
73812W        W39072  12.548  23.240   1.231
73813W        W39073  20.987  40.636  11.964
73814W        W39074  10.141  37.533  11.118
73815W        W39075   7.593  27.760   0.313
73816W        W39076   0.245  44.834  13.075
73817W        W39077  23.762  28.187  12.574
73818W        W39078  10.094   4.268   1.331
73819W        W39079  19.056  21.676   2.817
73820W        W39080  44.786  27.191  10.724
73821W        W39081  13.724  35.672   0.430
73822W        W39082  17.646  18.609   1.912
73823W        W39083   8.903  17.263  11.420
73824W        W39084   0.756  23.038   4.910
73825W        W39085   4.404  39.278   3.728
73826W        W39086  21.296  37.112  13.930
73827W        W39087   3.093  34.553   3.756
73828W        W39088  12.703  25.247  13.730
73829W        W39089  33.910  22.076  14.768
73830W        W39090  10.011  22.466   1.789
73831W        W39091  35.038  41.626  13.958
73832W        W39092  36.123  43.273  14.592
73833W        W39093  11.316  25.218   1.973
73834W        W39094   2.728  37.651  12.026
73835W        W39095  15.382   9.702   4.656
73836W        W39096  29.753   9.860  11.877
73837W        W39097  16.669  28.824   0.366
73838W        W39098  26.517  24.718  10.793
73839W        W39099  28.122  32.764   3.693
73840W        W39100  24.443   8.689   5.013
73841W        W39101   8.085  16.245  11.574
73842W        W39102  17.215   3.726   1.346
73843W        W39103  40.457   3.771  12.002
73844W        W39104   9.461  40.060   1.711
73845W        W39105   2.062  27.503  12.441
73846W        W39106  30.271   0.577   4.728
73847W        W39107  22.251  34.101  10.749
73848W        W39108  38.807  39.823  12.027
73849W        W39109  13.089  25.054   3.390
73850W        W39110  36.937  41.200  12.911
73851W        W39111  30.728   9.159   2.054
73852W        W39112  12.865  30.267  10.179
73853W        W39113  14.232  13.614  14.003
73854W        W39114  31.855  36.512   3.706
73855W        W39115  14.840  35.873  11.108
73856W        W39116  33.191  26.564  12.563
73857W        W39117  43.002  20.263  14.706
73858W        W39118  32.380  41.966   2.759
73859W        W39119  39.562  20.242  13.435
73860W        W39120  30.022   3.953   3.672
73861W        W39121  41.248  44.891   4.014
73862W        W39122  40.467  36.059  14.900
73863W        W39123  40.722  26.538   2.413
73864W        W39124  23.773  42.008  12.327
73865W        W39125  24.119  44.005  13.770
73866W        W39126  28.813   2.464  12.248
73867W        W39127   8.893  34.027  13.213
73868W        W39128  27.757  37.019  12.933
73869W        W39129   3.920  30.540   3.725
73870W        W39130  34.855   7.058  13.568
73871W        W39131   2.623  42.907   3.774
73872W        W39132  29.154  10.741   1.665
73873W        W39133  13.052  26.702   4.600
73874W        W39134  33.306  27.757  12.111
73875W        W39135  44.676  23.237   3.747
73876W        W39136  21.086  20.388  13.526
73877W        W39137  31.607  23.965  13.272
73878W        W39138  27.621   5.736   0.871
73879W        W39139  11.269  34.628   0.383
73880W        W39140  20.176   8.664   4.805
73881W        W39141  24.786  34.320  12.352
73882W        W39142  11.602  15.473   1.673
73883W        W39143  39.938  18.631  13.878
73884W        W39144  13.638  27.502   1.659
73885W        W39145  37.956   3.020  14.955
73886W        W39146   5.746  43.891  12.117
73887W        W39147  15.574  40.268  14.393
73888W        W39148  23.678  18.272  12.205
73889W        W39149  14.203  31.181  13.825
73890W        W39150  38.668  28.196   0.018
73891W        W39151  37.880  23.527  13.250
73892W        W39152  11.676  10.343   2.659
73893W        W39153  24.580  16.226  12.606
73894W        W39154  34.508  31.360  14.796
73895W        W39155  16.316   8.049  11.862
73896W        W39156  23.747  11.791   0.605
73897W        W39157  19.517  27.223  12.903
73898W        W39158  26.685  41.247  12.005
73899W        W39159   8.714  12.704  14.537
73900W        W39160  14.845  36.381  11.005
73901W        W39161  36.380  17.087   1.824
73902W        W39162  10.419  14.438  13.482
73903W        W39163  19.263  29.954   3.738
73904W        W39164  11.794  16.727  10.607
73905W        W39165  10.575   4.727   4.628
73906W        W39166   8.850  27.431   3.358
73907W        W39167  11.684  26.518   5.536
73908W        W39168  34.855  16.241  14.299
73909W        W39169  12.624  19.239   0.903
73910W        W39170  34.025  34.339  10.420
73911W        W39171   4.506   5.742  12.063
73912W        W39172   9.639  15.556  13.908
73913W        W39173  34.836  27.657  12.942
73914W        W39174   9.768  40.182  12.906
73915W        W39175  17.172  31.089  13.071
73916W        W39176  30.624  16.077   3.694
73917W        W39177   2.007   4.244   2.411
73918W        W39178   1.152  14.274  14.246
73919W        W39179   8.339  22.713  12.822
73920W        W39180  35.103  24.729  12.985
73921W        W39181  36.869   6.690  14.197
73922W        W39182  22.563  17.611   0.912
73923W        W39183  43.417   4.109   0.696
73924W        W39184  43.798  34.196  11.555
73925W        W39185   4.242  18.671   3.336
73926W        W39186  30.070  16.488   0.235
73927W        W39187   4.057  37.860  10.722
73928W        W39188  24.783  39.434   1.518
73929W        W39189  34.976  25.880   3.353
73930W        W39190  15.695  14.061   3.381
73931W        W39191  12.688   4.963  14.514
73932W        W39192   0.364   6.385   4.651
73933W        W39193  29.033   8.092   1.867
73934W        W39194   6.669  17.316   1.800
73935W        W39195  23.032  17.176   4.612
73936W        W39196  33.337  24.409   4.554
73937W        W39197  14.712   5.775  13.387
73938W        W39198  41.480  23.253   1.858
73939W        W39199  18.714  35.498  14.213
73940W        W39200   7.371   1.770  10.724
73941W        W39201  28.154  31.083  10.691
73942W        W39202  20.790  17.019   3.767
73943W        W39203  13.658  35.962   4.278
73944W        W39204  29.658  16.307   0.762
73945W        W39205  14.087  18.856  14.855
73946W        W39206  18.659  33.526  13.782
73947W        W39207  22.741  29.565   4.813
73948W        W39208  20.380  41.335  10.898
73949W        W39209  43.029  14.559  14.887
73950W        W39210  33.256  41.424  11.088
73951W        W39211   3.469  35.203  13.005
73952W        W39212  23.729  38.495  13.957
73953W        W39213   8.584  28.331   1.751
73954W        W39214   3.786  41.403  11.540
73955W        W39215   2.585   8.829   9.921
73956W        W39216  25.778  20.737  11.701
73957W        W39217  23.101  39.015  12.967
73958W        W39218  31.391   9.891   4.166
73959W        W39219  43.460  13.360  13.345
73960W        W39220   3.646  21.099  10.414
73961W        W39221  18.626  31.969  12.795
73962W        W39222  24.153  26.607  12.132
73963W        W39223   4.933   5.632   4.020
73964W        W39224  18.709  38.305  13.894
73965W        W39225   5.333   8.842   3.229
73966W        W39226  26.279  40.316   3.186
73967W        W39227  36.938  12.166   3.164
73968W        W39228  15.192  23.781  12.854
73969W        W39229  43.115  33.910   4.295
73970W        W39230  43.714  43.356   0.444
73971W        W39231  36.061  14.541  12.339
73972W        W39232  39.400  29.334  14.097
73973W        W39233  24.681  15.744  12.848
73974W        W39234  20.813  38.307  14.941
73975W        W39235  17.791  26.621  13.592
73976W        W39236  17.169  29.210  11.633
73977W        W39237  26.470  31.314  12.787
73978W        W39238  11.937   2.738   4.871
73979W        W39239  16.263  10.923  12.945
73980W        W39240  44.154  15.316  10.359
73981W        W39241   5.642  37.963  13.119
73982W        W39242   7.078  40.547   1.885
73983W        W39243  34.030  32.096   1.781
73984W        W39244   6.258  39.040   4.811
73985W        W39245  34.329   2.354  14.677
73986W        W39246  37.377  33.894  12.557
73987W        W39247   4.439   2.216  13.913
73988W        W39248  29.107  10.110  10.110
73989W        W39249  11.430  23.971   4.095
73990W        W39250   9.842  14.199   4.119
73991W        W39251  14.706   4.666  12.923
73992W        W39252  10.917   2.787  11.014
73993W        W39253   3.948  19.721  10.607
73994W        W39254  27.714  37.245   2.829
73995W        W39255  11.981  33.190  13.538
73996W        W39256   9.020  23.848   3.269
73997W        W39257  14.031  25.074  11.288
73998W        W39258  25.482   1.213   3.661
73999W        W39259  34.309  32.999   2.789
74000W        W39260   1.498  25.993  11.791
74001W        W39261  43.387  34.032  10.916
74002W        W39262  35.109  32.527   4.617
74003W        W39263   1.215  42.795  14.287
74004W        W39264  14.068  25.098  11.888
74005W        W39265   0.050  22.211  13.525
74006W        W39266  23.565  23.661  10.787
74007W        W39267  33.292   5.137  11.431
74008W        W39268  41.378  41.455   3.477
74009W        W39269   3.556  18.759  13.893
74010W        W39270  21.012  20.945  12.333
74011W        W39271  22.800  33.021   4.658
74012W        W39272  37.423  27.570   5.071
74013W        W39273  37.936  38.727  10.695
74014W        W39274  40.944  43.734   3.357
74015W        W39275   6.527  24.224  13.484
74016W        W39276  38.828  42.296  11.494
74017W        W39277   0.507  24.476   3.623
74018W        W39278  23.133  41.822   4.813
74019W        W39279  16.123  32.870  11.557
74020W        W39280  13.708  17.266  12.174
74021W        W39281  32.094   6.376   0.827
74022W        W39282   5.627  20.430   4.621
74023W        W39283  26.492   5.198  12.057
74024W        W39284  25.669  43.120   0.772
74025W        W39285  40.004  33.543   4.833
74026W        W39286  19.551  12.236   0.345
74027W        W39287  20.367   4.315  10.210
74028W        W39288  22.914  25.610  14.958
74029W        W39289   5.207  43.394   1.094
74030W        W39290   6.799  34.443  11.142
74031W        W39291  39.684  15.841   2.023
74032W        W39292  42.082  34.841   1.824
74033W        W39293  22.767  33.081   3.224
74034W        W39294  14.344   5.622   2.335
74035W        W39295   0.691   8.903  13.813
74036W        W39296  39.880  34.054  13.632
74037W        W39297  44.439  41.463   5.191
74038W        W39298   5.614  17.087   0.048
74039W        W39299  23.040  14.289  12.909
74040W        W39300  15.841  15.783   2.699
74041W        W39301   8.387  24.992   1.260
74042W        W39302  30.962  28.965  12.159
74043W        W39303  18.349  30.826  13.493
74044W        W39304   0.009  44.389  12.077
74045W        W39305   4.339   6.762  11.329
74046W        W39306  12.165   6.182  13.403
74047W        W39307  16.028  27.290  11.693
74048W        W39308  39.063  13.566   3.253
74049W        W39309   7.645   0.389  11.173
74050W        W39310  29.225  10.839  12.148
74051W        W39311  11.423   1.311   0.016
74052W        W39312  10.861  10.287  11.619
74053W        W39313  40.804  19.574   4.824
74054W        W39314  41.096  20.562   2.222
74055W        W39315  27.575  15.104  14.779
74056W        W39316  42.474  21.878  14.438
74057W        W39317  44.732  41.799   1.600
74058W        W39318  22.417  10.248   1.845
74059W        W39319  28.918  21.504  10.646
74060W        W39320  38.477  28.452  11.255
74061W        W39321  17.669  35.494  14.615
74062W        W39322  35.790  35.767   0.979
74063W        W39323  29.618  42.608  12.965
74064W        W39324   1.789  14.354   3.101
74065W        W39325  23.627   6.608   1.364
74066W        W39326  34.375  31.023  13.958
74067W        W39327  20.319  16.696  12.087
74068W        W39328  19.681  36.432   0.794
74069W        W39329  16.795   3.059   2.712
74070W        W39330  29.020   9.200  11.169
74071W        W39331  34.323   0.722  10.765
74072W        W39332  13.720  21.065   1.218
74073W        W39333  23.007  43.728  11.483
74074W        W39334  24.209   7.320   3.049
74075W        W39335  10.519  11.298  12.513
74076W        W39336  17.599  39.054   3.297
74077W        W39337  30.119  16.052   3.691
74078W        W39338  26.068  15.629   0.898
74079W        W39339  30.259  35.449  11.005
74080W        W39340  24.166  32.957  11.998
74081W        W39341  19.258  35.191  11.951
74082W        W39342  25.935  31.514  13.374
74083W        W39343  41.480  38.988   1.203
74084W        W39344  13.076  42.335  14.942
74085W        W39345  37.430  35.906  14.630
74086W        W39346  19.876  11.316  12.960
74087W        W39347  37.518  33.391   2.698
74088W        W39348   0.938  39.944   1.130
74089W        W39349  20.833  18.767   5.119
74090W        W39350  41.995   7.681  11.407
74091W        W39351  12.861  40.880   3.803
74092W        W39352  42.795  28.905   3.148
74093W        W39353   1.234   6.138  12.094
74094W        W39354  14.210  19.361  14.916
74095W        W39355  32.184  36.029   0.357
74096W        W39356  27.218   3.790  12.123
74097W        W39357  12.846  33.407   1.795
74098W        W39358  29.249  41.371   3.673
74099W        W39359  33.078  34.090  11.822
74100W        W39360  36.050  21.782  13.402
74101W        W39361  40.266  15.009   0.766
74102W        W39362   4.118  39.089   0.925
74103W        W39363  20.065  11.023   4.554
74104W        W39364  33.660  16.596  11.578
74105W        W39365  43.047  43.716  11.657
74106W        W39366  28.059  12.002   2.037
74107W        W39367  16.246   7.874  12.647
74108W        W39368  10.860  32.634   3.677
74109W        W39369  42.414   6.216   4.161
74110W        W39370   8.625  39.819  10.839
74111W        W39371  37.847  23.749   4.431
74112W        W39372  20.595  30.971   4.605
74113W        W39373  23.565  23.323   2.731
74114W        W39374  17.834   9.231  13.512
74115W        W39375  27.972   1.346   4.850
74116W        W39376   5.170  14.647  11.650
74117W        W39377  33.602  14.668   3.524
74118W        W39378  13.323  16.611   1.371
74119W        W39379  13.582  43.527  11.255
74120W        W39380  29.866  37.725  14.775
74121W        W39381  21.253  36.400  13.867
74122W        W39382   0.372  33.040  13.996
74123W        W39383  12.212  23.468   0.387
74124W        W39384   8.748  34.457   3.266
74125W        W39385   4.924  25.469   0.284
74126W        W39386   4.941  34.152   3.700
74127W        W39387  36.923  24.727   1.494
74128W        W39388  25.866  21.649   0.970
74129W        W39389  36.661  21.121  10.501
74130W        W39390  30.811  33.697  10.246
74131W        W39391  44.901  20.781  13.485
74132W        W39392  38.369  38.561   2.918
74133W        W39393  37.533  26.604   0.178
74134W        W39394  38.344  24.240  14.930
74135W        W39395  41.069   8.764  10.728
74136W        W39396  25.805   0.445   0.330
74137W        W39397  35.267  27.511   0.693
74138W        W39398  25.576  29.521   4.551
74139W        W39399  10.795  27.413   1.462
74140W        W39400   4.262  15.833  13.351
74141W        W39401  19.559  35.843  13.008
74142W        W39402  44.836  41.230   2.500
74143W        W39403  14.716   9.195   0.400
74144W        W39404  33.084  34.728   4.907
74145W        W39405  33.411  36.874  14.095
74146W        W39406   1.783  35.861  13.357
74147W        W39407  21.271  39.880  12.794
74148W        W39408  40.063  14.183   4.067
74149W        W39409  13.715  16.568   2.699
74150W        W39410   6.653  40.550   2.829
74151W        W39411  31.597  22.681  14.055
74152W        W39412  33.901   8.299  11.646
74153W        W39413  14.553  20.031   4.548
74154W        W39414  39.105  35.842  13.170
74155W        W39415  31.140  39.796  13.555
74156W        W39416  29.968  39.369   2.514
74157W        W39417  16.387  25.179   0.901
74158W        W39418  31.766  16.440   1.182
74159W        W39419  43.156  13.249   1.224
74160W        W39420  15.336  40.131  12.682
74161W        W39421  43.943  14.370   0.904
74162W        W39422   2.180   7.897  12.276
74163W        W39423  36.375   1.922  14.389
74164W        W39424  41.042  31.674   0.669
74165W        W39425  21.116  18.062   4.973
74166W        W39426   4.479   6.488   4.077
74167W        W39427   2.416  38.362   1.501
74168W        W39428   7.893  12.716   2.187
74169W        W39429  31.604   3.236   0.292
74170W        W39430  12.677   5.215   2.332
74171W        W39431  31.463   7.183  11.576
74172W        W39432   3.690  16.160   0.923
74173W        W39433  29.381  18.721   4.030
74174W        W39434  36.585  15.638  14.923
74175W        W39435  16.811  38.767  11.680
74176W        W39436  41.218   4.881   1.747
74177W        W39437   5.741  37.361   4.589
74178W        W39438   1.420  18.612   2.140
74179W        W39439  23.630  12.377   4.546
74180W        W39440  15.522  14.144  10.236
74181W        W39441  36.564  32.408  12.293
74182W        W39442   7.165  21.011   2.711
74183W        W39443  22.206  20.280   2.796
74184W        W39444  31.949  38.989  12.117
74185W        W39445  28.836  20.314   1.837
74186W        W39446  10.662   1.826   4.442
74187W        W39447  26.620  42.219  11.938
74188W        W39448  21.180  36.824   5.257
74189W        W39449  33.999  25.111  13.462
74190W        W39450   9.267  39.597   1.837
74191W        W39451  13.547  28.022  13.430
74192W        W39452   2.764   8.620   1.507
74193W        W39453  40.099  22.634   0.277
74194W        W39454  39.617  39.095   1.188
74195W        W39455   5.794  16.292   1.244
74196W        W39456  32.539   0.917   1.230
74197W        W39457  44.591  19.296   1.379
74198W        W39458  12.511  44.383   3.705
74199W        W39459  30.593  19.070   0.977
74200W        W39460  30.050  38.853   4.696
74201W        W39461  14.286   2.775  12.510
74202W        W39462   4.427  43.461   4.558
74203W        W39463  28.477  38.787   1.949
74204W        W39464  35.098  31.726  12.391
74205W        W39465  36.576  42.937  11.283
74206W        W39466   0.881  41.657  12.827
74207W        W39467  27.682   5.847  12.327
74208W        W39468   6.793   4.352   4.307
74209W        W39469  14.177   2.444   3.324
74210W        W39470   2.321  21.426   3.204
74211W        W39471  13.743  31.553  13.572
74212W        W39472   5.802  26.997   9.701
74213W        W39473  35.109   6.395   1.131
74214W        W39474  27.533  44.741   2.124
74215W        W39475  20.940  12.086  11.591
74216W        W39476   3.671  32.092  13.568
74217W        W39477  11.476  34.446  11.442
74218W        W39478  23.101  19.655   3.257
74219W        W39479  31.443  38.021   0.730
74220W        W39480   2.261  39.304  13.550
74221W        W39481  16.686  16.739  10.553
74222W        W39482  23.262  16.119   0.576
74223W        W39483  32.189   7.437  12.548
74224W        W39484  18.290   2.742  11.613
74225W        W39485   4.217   4.353  13.977
74226W        W39486   7.167  42.948  12.604
74227W        W39487  38.034  14.057  10.466
74228W        W39488   9.354  11.870  10.710
74229W        W39489  15.269  10.912   2.789
74230W        W39490   5.363  20.234  14.895
74231W        W39491  21.176  19.757  12.044
74232W        W39492  12.737   4.874   0.993
74233W        W39493  40.000   9.228  10.981
74234W        W39494   9.289  25.658   5.008
74235W        W39495   0.857   5.708   0.144
74236W        W39496  44.543  42.581   5.010
74237W        W39497  13.631  35.916   0.867
74238W        W39498  34.479  12.814  13.949
74239W        W39499  34.164   2.233   2.268
74240W        W39500   2.380   1.926  13.035
74241W        W39501  22.327   5.260   2.828
74242W        W39502  11.612  15.505  10.202
74243W        W39503  17.710  24.244   3.193
74244W        W39504  17.513  43.543   4.852
74245W        W39505  23.326  30.003  12.506
74246W        W39506   7.578  15.728   5.035
74247W        W39507  44.361  12.557   0.373
74248W        W39508   2.748   1.976  14.471
74249W        W39509  27.560   2.238   1.606
74250W        W39510  39.031  14.061   3.169
74251W        W39511   4.909  10.738  13.849
74252W        W39512  39.371  14.806   4.636
74253W        W39513  12.116  14.720  12.043
74254W        W39514   8.651  31.782  12.528
74255W        W39515  36.297  34.864   3.233
74256W        W39516   4.355  14.694   0.355
74257W        W39517  40.604   7.427  10.916
74258W        W39518   7.343  39.569   0.333
74259W        W39519  37.365  26.927   3.835
74260W        W39520  32.383   9.174  10.767
74261W        W39521  18.722  43.653   4.393
74262W        W39522  21.516  36.904   0.983
74263W        W39523  42.660  12.486   3.563
74264W        W39524   7.765  40.628  11.705
74265W        W39525  30.662  16.534  12.880
74266W        W39526  38.730  15.636  11.578
74267W        W39527  37.477  21.544  14.342
74268W        W39528   8.138  21.065  14.995
74269W        W39529  37.770  38.294   3.408
74270W        W39530  16.344   3.949  11.195
74271W        W39531  21.249  37.374  14.867
74272W        W39532  26.926  24.410  10.633
74273W        W39533  18.324  27.140  13.842
74274W        W39534  19.182  36.249  11.522
74275W        W39535  25.223  35.979   3.494
74276W        W39536   6.831  27.421  12.836
74277W        W39537  21.038  22.774   3.811
74278W        W39538  40.125  41.552   0.717
74279W        W39539  29.085   5.739   4.611
74280W        W39540  32.044  31.560  12.403
74281W        W39541  32.018  10.310   4.080
74282W        W39542  22.082   2.650  11.830
74283W        W39543  34.917  36.621  14.910
74284W        W39544  22.481  29.248  14.506
74285W        W39545  39.635  40.405   2.609
74286W        W39546   7.188  41.696   0.048
74287W        W39547   3.476   3.278   3.688
74288W        W39548  43.935  27.632  11.709
74289W        W39549  17.501   3.400  14.550
74290W        W39550  34.024  30.345  14.289
74291W        W39551  42.930  11.592   2.414
74292W        W39552  21.855  14.604   1.867
74293W        W39553  24.511   5.916  13.000
74294W        W39554  25.993   1.764  11.171
74295W        W39555  44.127  12.814  11.704
74296W        W39556   7.195  20.517  12.354
74297W        W39557  37.600  33.458  11.711
74298W        W39558  43.544  14.029   3.312
74299W        W39559   6.265  28.732   4.007
74300W        W39560  33.974  40.251   4.114
74301W        W39561  43.544  15.866  11.072
74302W        W39562  42.451  21.749  11.593
74303W        W39563  16.152   3.967   1.839
74304W        W39564   8.342  44.222  12.294
74305W        W39565  42.979  17.147  11.892
74306W        W39566  30.140  24.872   0.487
74307W        W39567  32.105  10.906  10.435
74308W        W39568  21.133  41.077   0.409
74309W        W39569  18.283  41.861   3.156
74310W        W39570  31.420  38.050  14.888
74311W        W39571  13.119  17.203   5.018
74312W        W39572  30.555   2.869  14.903
74313W        W39573   0.152  38.209   1.295
74314W        W39574  32.180  26.664  11.524
74315W        W39575  38.491  21.911  10.978
74316W        W39576  21.178   1.307  14.953
74317W        W39577   6.240  42.792  11.173
74318W        W39578   0.366   1.573  14.342
74319W        W39579  20.647   7.894   4.636
74320W        W39580  41.552  27.407   2.280
74321W        W39581  11.316  24.934   3.679
74322W        W39582  17.863  15.298  12.583
74323W        W39583  34.164   9.125  13.526
74324W        W39584   5.792  25.694  12.343
74325W        W39585  29.891   0.017   3.357
74326W        W39586  17.655  38.818   3.748
74327W        W39587  19.098  35.203  11.450
74328W        W39588   1.716  40.571   0.908
74329W        W39589  30.472  15.279  14.516
74330W        W39590  22.386  13.393   3.229
74331W        W39591   4.768  17.203  11.967
74332W        W39592  34.898  23.107   1.394
74333W        W39593   7.656  40.447   5.223
74334W        W39594   8.643  29.592  14.049
74335W        W39595  25.511  23.638   0.391
74336W        W39596  44.831   3.719  12.092
74337W        W39597  23.455  36.655   1.924
74338W        W39598   0.750  19.999  14.980
74339W        W39599  21.503  13.398  14.146
74340W        W39600  32.162  43.240   4.925
74341W        W39601  24.743  42.840  14.842
74342W        W39602  29.280   8.719   3.586
74343W        W39603  12.251  38.425   4.709
74344W        W39604  38.957  16.601  10.137
74345W        W39605  37.064  21.215   3.293
74346W        W39606  28.580   7.704   4.062
74347W        W39607  19.562  37.815   2.257
74348W        W39608   9.606  27.360  12.761
74349W        W39609  22.231  35.654   0.970
74350W        W39610  38.949  16.349  12.589
74351W        W39611  28.027  36.567   3.330
74352W        W39612  19.111   9.907   2.162
74353W        W39613  34.401   4.520  14.375
74354W        W39614  30.849  37.798  12.104
74355W        W39615  19.770   2.847  14.301
74356W        W39616  33.551   7.226  14.994
74357W        W39617   7.801  14.505   4.238
74358W        W39618  35.288  42.942   2.262
74359W        W39619  13.734  32.401  11.088
74360W        W39620  39.885  38.521   0.252
74361W        W39621  16.175  44.127  11.416
74362W        W39622  11.176  20.383   0.810
74363W        W39623  44.368  20.210   2.372
74364W        W39624  20.460  31.805  12.591
74365W        W39625  28.994   8.882   2.329
74366W        W39626  11.348  23.032   2.552
74367W        W39627  29.077  37.676  10.337
74368W        W39628  20.935  30.894   0.470
74369W        W39629  26.132   1.405   1.926
74370W        W39630   0.433  32.970  13.087
74371W        W39631  39.020   0.796  12.598
74372W        W39632  36.858  40.308   4.946
74373W        W39633  43.317   6.474  12.852
74374W        W39634  39.977  10.281  11.401
74375W        W39635   7.775  35.499   3.396
74376W        W39636  31.012  33.826   0.766
74377W        W39637   0.483  19.617   1.123
74378W        W39638   9.571  42.946   2.410
74379W        W39639   3.510  41.927   2.338
74380W        W39640   3.276  17.812  10.676
74381W        W39641  27.355  17.605  10.712
74382W        W39642  35.123  43.755   0.030
74383W        W39643  33.290  37.867   1.911
74384W        W39644   0.263  15.125   2.814
74385W        W39645  10.591  43.266   4.459
74386W        W39646  21.079  21.527  12.956
74387W        W39647  29.489  23.770   1.694
74388W        W39648  38.138  35.818   4.558
74389W        W39649   0.992  35.351   1.278
74390W        W39650   6.756  41.531  13.821
74391W        W39651  31.025  32.011  11.692
74392W        W39652  16.085  38.864  13.926
74393W        W39653  19.311  41.572   2.102
74394W        W39654  38.618   6.735   0.207
74395W        W39655  41.036   1.239   3.920
74396W        W39656  32.666   9.987  11.153
74397W        W39657   4.485   2.540   2.952
74398W        W39658  38.372   9.716  11.946
74399W        W39659  11.861  30.615  11.005
74400W        W39660   1.263   6.323   0.733
74401W        W39661  42.565  23.292   4.143
74402W        W39662  26.754  29.557  12.407
74403W        W39663  37.899  24.934  13.588
74404W        W39664   3.372  13.801  11.597
74405W        W39665  30.062   6.316   1.667
74406W        W39666  17.251  30.028   1.087
74407W        W39667   1.981  41.493  14.289
74408W        W39668  19.267  12.236  13.584
74409W        W39669  28.954  35.141   2.140
74410W        W39670  43.232  17.312   3.238
74411W        W39671  41.767  20.831  11.161
74412W        W39672  36.481  37.811  11.591
74413W        W39673  23.707  22.181   0.667
74414W        W39674  15.715  14.262   0.143
74415W        W39675  13.505  25.458  14.011
74416W        W39676   6.776   7.882  10.749
74417W        W39677   1.435  18.212   1.334
74418W        W39678  20.239  37.027  14.217
74419W        W39679  17.726  30.973  10.946
74420W        W39680   4.315  32.167  10.303
74421W        W39681  29.496  23.066   3.412
74422W        W39682   3.629  38.001   3.477
74423W        W39683   3.454  26.218  13.910
74424W        W39684  31.597   8.903  14.311
74425W        W39685  26.012  27.017   1.032
74426W        W39686  13.356  14.068   2.370
74427W        W39687  19.735  41.957  10.600
74428W        W39688   8.829  18.002  10.938
74429W        W39689   6.772  17.764  14.776
74430W        W39690  19.116  17.189   4.580
74431W        W39691  29.584  21.264   4.857
74432W        W39692  32.131  35.774  10.429
74433W        W39693  42.000  15.725   1.732
74434W        W39694   3.482   1.549   0.745
74435W        W39695   5.156  14.907  10.765
74436W        W39696  25.221  42.752   0.126
74437W        W39697   0.773  39.492  11.607
74438W        W39698   7.773  41.276  14.771
74439W        W39699  34.521   0.743   4.032
74440W        W39700  17.617   1.467  14.610
74441W        W39701  22.550  42.998  12.540
74442W        W39702   2.931  32.487   2.258
74443W        W39703  11.164   2.483  12.709
74444W        W39704  26.359  35.034   3.506
74445W        W39705  18.669   0.953  11.026
74446W        W39706   3.477   2.969   4.619
74447W        W39707  27.908  15.617   0.311
74448W        W39708  18.185  13.545   2.278
74449W        W39709  25.628  19.206   0.987
74450W        W39710  33.300  28.878  14.437
74451W        W39711  39.037  12.124   3.716
74452W        W39712  28.464   5.712   3.922
74453W        W39713   8.640  28.473   4.082
74454W        W39714  35.402  40.751   4.035
74455W        W39715   2.322   9.678   2.238
74456W        W39716  17.776  10.826   1.792
74457W        W39717  41.448  44.397  13.091
74458W        W39718   4.098  29.041   1.653
74459W        W39719  14.151   7.963   1.264
74460W        W39720   0.521  43.336  12.580
74461W        W39721  32.157  26.136   3.268
74462W        W39722  16.150  39.763  14.934
74463W        W39723  20.511  35.358   3.268
74464W        W39724   6.150  24.247   2.826
74465W        W39725   6.323  18.108   3.847
74466W        W39726  23.180  19.026   0.843
74467W        W39727   4.467  10.258   2.762
74468W        W39728   3.332  26.118   2.832
74469W        W39729  18.599  16.656  13.270
74470W        W39730  37.900  11.482  10.120
74471W        W39731  32.534  37.017   4.712
74472W        W39732   2.460  29.626  10.528
74473W        W39733  43.100  44.221  11.602
74474W        W39734  11.222  24.299  14.870
74475W        W39735  21.480  17.305  14.855
74476W        W39736  32.521  31.535  12.622
74477W        W39737  40.916  17.325   3.100
74478W        W39738  14.851  38.032  13.230
74479W        W39739   8.849  36.481   3.086
74480W        W39740  36.027  14.746   4.573
74481W        W39741   8.256  23.625   3.576
74482W        W39742  31.573  18.343  11.753
74483W        W39743   6.680  19.869  12.070
74484W        W39744   0.274  31.054  11.607
74485W        W39745  42.983  36.124  13.269
74486W        W39746  24.024  38.539   3.226
74487W        W39747   0.652  18.678   1.208
74488W        W39748  38.539  19.546  13.969
74489W        W39749   1.919  13.830  10.738
74490W        W39750  18.086  25.649   0.274
74491W        W39751  10.579  16.000  12.010
74492W        W39752  32.146  30.936   2.906
74493W        W39753  40.496   3.459   2.326
74494W        W39754  25.946  20.735  12.960
74495W        W39755  33.094  37.106  13.308
74496W        W39756   5.923  37.395  12.526
74497W        W39757   1.650   1.603  12.464
74498W        W39758   1.360  35.455  12.400
74499W        W39759  25.246  28.631   3.750
74500W        W39760  16.968  40.859  14.090
74501W        W39761  14.764  12.890   1.346
74502W        W39762  42.094  37.663   5.002
74503W        W39763  28.811  17.621   5.437
74504W        W39764  13.211  40.367  13.835
74505W        W39765  23.554  30.495  13.786
74506W        W39766   2.873   6.124   2.265
74507W        W39767  20.354  36.212   4.955
74508W        W39768  10.856  32.334  12.694
74509W        W39769  30.621   3.237   1.256
74510W        W39770  18.133  19.737   1.294
74511W        W39771  31.898   6.912  11.490
74512W        W39772  21.476   3.093   1.190
74513W        W39773   1.512   5.840  12.421
74514W        W39774  13.710  18.183   3.183
74515W        W39775  27.401   0.354  14.012
74516W        W39776  23.952  12.771  12.402
74517W        W39777   3.296  24.320  10.747
74518W        W39778  23.238   3.798   2.882
74519W        W39779   5.623  36.774  12.056
74520W        W39780  24.636  12.094   3.259
74521W        W39781  42.516   8.352   2.017
74522W        W39782  21.032  26.209   3.791
74523W        W39783   3.742  10.428   2.368
74524W        W39784  30.683  22.526   5.119
74525W        W39785  23.570  41.346  10.533
74526W        W39786  37.874  18.549   4.144
74527W        W39787  44.950   7.221  11.663
74528W        W39788  18.616  12.617   0.988
74529W        W39789  37.472   1.001   3.286
74530W        W39790  28.583  14.293   2.863
74531W        W39791   6.722   1.229  14.606
74532W        W39792  32.114  23.205  10.285
74533W        W39793  30.105  16.080   0.626
74534W        W39794   9.855  13.687  12.427
74535W        W39795  19.618   6.881   3.645
74536W        W39796  35.068  31.109   4.129
74537W        W39797  18.815  40.904  14.298
74538W        W39798  16.219  31.465   2.121
74539W        W39799  12.520  26.779   9.640
74540W        W39800   3.070  11.775  12.160
74541W        W39801   8.714   8.855   5.485
74542W        W39802   9.992   2.329   4.056
74543W        W39803  26.715  34.616  11.228
74544W        W39804   2.672   2.835   1.518
74545W        W39805  42.152   1.003  10.320
74546W        W39806  17.533  30.028   4.123
74547W        W39807  21.982   4.942  11.924
74548W        W39808  24.245  29.062  12.736
74549W        W39809  19.785   9.052  12.571
74550W        W39810  34.746  27.137  12.040
74551W        W39811  29.418  43.748   4.715
74552W        W39812  12.336   7.308   0.048
74553W        W39813   3.216  44.907   2.882
74554W        W39814  33.163  22.140   1.898
74555W        W39815  20.845  42.362   0.682
74556W        W39816  37.804  18.052  11.246
74557W        W39817  40.788  25.253  10.714
74558W        W39818  13.272  41.567  14.007
74559W        W39819  22.227  26.747   0.330
74560W        W39820  37.618  33.225  13.073
74561W        W39821   8.139  24.670   2.599
74562W        W39822  28.098  27.941  14.280
74563W        W39823   9.028  19.711   0.921
74564W        W39824  16.333  15.629  11.105
74565W        W39825  20.209  14.364  13.542
74566W        W39826  31.091  37.450   4.671
74567W        W39827  41.895  43.832  12.033
74568W        W39828   0.390   4.909   1.624
74569W        W39829  21.963  20.240  10.209
74570W        W39830  19.572  33.604   3.676
74571W        W39831  30.967  12.131  12.856
74572W        W39832   6.970  30.958   4.130
74573W        W39833  31.203  17.229  12.538
74574W        W39834   0.470  14.593  13.382
74575W        W39835  14.383  10.077  13.751
74576W        W39836  16.856  34.374   2.261
74577W        W39837  40.953  28.093  14.697
74578W        W39838  42.983  17.096   1.157
74579W        W39839   2.091  22.368  14.570
74580W        W39840  15.849  15.198  13.805
74581W        W39841  38.359  27.633   2.431
74582W        W39842  33.484  11.946  14.955
74583W        W39843  43.426  18.489  14.561
74584W        W39844  20.305  40.982   1.188
74585W        W39845  23.607  30.410   4.281
74586W        W39846  41.270  33.117   2.046
74587W        W39847  42.762  31.884   2.290
74588W        W39848   6.608   5.281  11.948
74589W        W39849  37.346   4.295   0.839
74590W        W39850  26.173  21.531   4.116
74591W        W39851  20.022  27.272   0.024
74592W        W39852   0.037   7.373   4.742
74593W        W39853  32.397  41.770  13.477
74594W        W39854  21.138  35.518  11.117
74595W        W39855  12.489  33.912   0.057
74596W        W39856   1.354   9.457   1.759
74597W        W39857  27.191  31.774  13.418
74598W        W39858  17.653   1.938  11.544
74599W        W39859   9.151  34.006   3.225
74600W        W39860  24.371  38.534   5.355
74601W        W39861   1.022  42.030  14.005
74602W        W39862  43.738  10.808  12.214
74603W        W39863   9.384  32.190   0.775
74604W        W39864  21.899  23.105  11.192
74605W        W39865  10.456  20.843  14.828
74606W        W39866  41.759  35.748   3.812
74607W        W39867  43.075  35.354  12.639
74608W        W39868   0.127  12.493  11.831
74609W        W39869  24.983  31.586  11.171
74610W        W39870  36.549  21.643  13.385
74611W        W39871  34.083  37.436  14.483
74612W        W39872  41.998  34.422   2.780
74613W        W39873   4.386  44.821   3.318
74614W        W39874  34.289  10.853   0.925
74615W        W39875  42.854  16.319  14.123
74616W        W39876  19.656  20.268   0.877
74617W        W39877  24.068  24.052  13.355
74618W        W39878  12.103  11.311  12.946
74619W        W39879   9.837  33.506   3.096
74620W        W39880   8.901  21.192  13.560
74621W        W39881  21.606  24.547   4.615
74622W        W39882  38.937  13.551   0.696
74623W        W39883  33.266   5.321   4.132
74624W        W39884  15.386  26.521   2.495
74625W        W39885  36.130  28.984  14.594
74626W        W39886  38.147   0.774   0.308
74627W        W39887  21.630  26.486   1.635
74628W        W39888  42.524  44.281   3.633
74629W        W39889  12.939  40.900   4.715
74630W        W39890  31.844  15.674   2.631
74631W        W39891  19.991  22.883  12.382
74632W        W39892  34.878  22.484  12.539
74633W        W39893  35.932  41.939  12.484
74634W        W39894  10.346   8.397  12.600
74635W        W39895  37.640  37.568   2.925
74636W        W39896  14.921  27.172  13.557
74637W        W39897  16.930  44.341  14.407
74638W        W39898  26.733  35.545   1.238
74639W        W39899  17.172  11.345   2.815
74640W        W39900   6.674  29.608   3.728
74641W        W39901  28.894  35.862  14.375
74642W        W39902  42.556  27.647  11.078
74643W        W39903  19.256   1.736   2.763
74644W        W39904  23.793   6.847   2.213
74645W        W39905   9.328  30.554  14.753
74646W        W39906   8.860   1.410  14.932
74647W        W39907  16.119  28.924  12.116
74648W        W39908   7.754   5.217  14.964
74649W        W39909   1.005   5.279   1.324
74650W        W39910  17.799  15.297   3.892
74651W        W39911  43.365  19.439   1.447
74652W        W39912  25.567  16.138  12.855
74653W        W39913  31.103  33.409   1.036
74654W        W39914  25.547   2.939  12.845
74655W        W39915   6.275  38.367  11.074
74656W        W39916  41.505  32.303   1.806
74657W        W39917   6.458   3.313   0.122
74658W        W39918  34.053  13.126   0.795
74659W        W39919   5.503  28.025  11.606
74660W        W39920  15.617  25.265  12.106
74661W        W39921  31.026  22.323   3.325
74662W        W39922  25.080  42.867  13.369
74663W        W39923  44.710  31.016  12.452
74664W        W39924  10.754  19.612  10.668
74665W        W39925  10.828   4.466  10.281
74666W        W39926  20.250  25.124   2.542
74667W        W39927  35.554  26.090   1.125
74668W        W39928  30.683   6.270  11.906
74669W        W39929   0.913  18.983  13.403
74670W        W39930   7.986  12.955   2.636
74671W        W39931  13.308  42.843  11.752
74672W        W39932   0.235  17.034  11.447
74673W        W39933  24.522  25.706   2.766
74674W        W39934  11.667  43.031  10.990
74675W        W39935  10.309   5.750   4.404
74676W        W39936  34.979   4.378  11.589
74677W        W39937  26.975  28.255   2.358
74678W        W39938  14.664  19.251  13.104
74679W        W39939  44.539  26.436  11.414
74680W        W39940   7.878  36.577   0.807
74681W        W39941   2.008  32.372  12.394
74682W        W39942  34.832  30.138   3.261
74683W        W39943  28.064  29.436   3.165
74684W        W39944  37.502  44.871  14.357
74685W        W39945  21.021  29.271   4.588
74686W        W39946  34.195  32.014   4.192
74687W        W39947  37.842  15.272   0.204
74688W        W39948   3.869   0.979  12.393
74689W        W39949  20.543  31.260   1.894
74690W        W39950  12.750  41.956  12.427
74691W        W39951  43.040  27.351  13.494
74692W        W39952  27.762   4.230  13.694
74693W        W39953  23.036  17.182   1.685
74694W        W39954   7.243  32.704  14.294
74695W        W39955  27.212  17.244   3.222
74696W        W39956  21.629  13.519   3.748
74697W        W39957  35.623  30.126   2.796
74698W        W39958  43.028  15.782  14.595
74699W        W39959  20.054  14.877   2.804
74700W        W39960  16.172  44.744   0.059
74701W        W39961  35.601  21.057   3.034
74702W        W39962  37.321  10.054   1.878
74703W        W39963  15.929  43.926  10.504
74704W        W39964  35.265   5.179   0.925
74705W        W39965  26.435  12.260   3.602
74706W        W39966  12.807  40.346  10.654
74707W        W39967  44.617   0.848   4.462
74708W        W39968  33.515  41.285   4.936
74709W        W39969  35.408  30.447   2.457
74710W        W39970   4.350  13.725  10.683
74711W        W39971   0.214  20.671  12.135
74712W        W39972  13.284  33.596   4.218
74713W        W39973   2.986   8.569   2.842
74714W        W39974  21.497  32.655   3.676
74715W        W39975  26.514  44.337   1.285
74716W        W39976  35.992   7.483  10.837
74717W        W39977   5.445  22.519  14.339
74718W        W39978  18.740  28.023  10.169
74719W        W39979   2.881   7.231  13.617
74720W        W39980  37.756  22.113   4.567
74721W        W39981  27.193  25.579  11.911
74722W        W39982  31.109  19.167  11.533
74723W        W39983   2.861  40.938  14.497
74724W        W39984   8.465   6.483  12.676
74725W        W39985   2.088  17.282   1.233
74726W        W39986  26.608   4.070  14.911
74727W        W39987   4.873  15.066   0.320
74728W        W39988   6.254  44.214   3.306
74729W        W39989  13.605   7.240   2.041
74730W        W39990  23.384  19.683  10.430
74731W        W39991  38.806  35.407  13.039
74732W        W39992  34.528  37.525   3.557
74733W        W39993  34.153  14.286  11.629
74734W        W39994   7.690   9.271  13.568
74735W        W39995  33.425   5.813  11.293
74736W        W39996   8.451  35.518   3.343
74737W        W39997   7.774   3.628  12.966
74738W        W39998  27.734  19.086  14.494
74739W        W39999  43.906  37.482   0.996
74740W        W40000  37.920  44.400   0.301
74741W        W40001  19.846  22.961  13.626
74742W        W40002  39.349   0.665   3.197
74743W        W40003  22.163  22.776  13.900
74744W        W40004  34.543   3.226   0.698
74745W        W40005  20.574  25.505  13.019
74746W        W40006  17.324  22.996  12.527
74747W        W40007  28.951   0.364  14.409
74748W        W40008  40.562   2.891  10.374
74749W        W40009   2.229  34.221  13.603
74750W        W40010  15.129  15.667   4.190
74751W        W40011  25.438  26.681  12.945
74752W        W40012  44.390  18.000   3.201
74753W        W40013  30.275  37.094   0.302
74754W        W40014   9.798  14.273   1.468
74755W        W40015  13.959  22.118  14.331
74756W        W40016  14.777  39.684  14.922
74757W        W40017  42.808  33.299  14.695
74758W        W40018  37.086   3.247   1.189
74759W        W40019   0.300  36.118   0.332
74760W        W40020   7.631  18.257   3.674
74761W        W40021  41.968   4.413   3.154
74762W        W40022  10.066  14.164   4.583
74763W        W40023  21.199  36.879   2.794
74764W        W40024  38.368  22.755   2.910
74765W        W40025  17.442  38.907  11.900
74766W        W40026  12.142   1.746  14.882
74767W        W40027  10.305   7.286  13.886
74768W        W40028  34.254   1.992   3.819
74769W        W40029  40.918  37.795   4.570
74770W        W40030  27.048   8.894  14.806
74771W        W40031   8.381  16.682   4.556
74772W        W40032  34.951   7.752  12.564
74773W        W40033  23.556  23.579   1.403
74774W        W40034  34.192  17.569   4.805
74775W        W40035  39.359   6.681   1.763
74776W        W40036  31.976  23.787   1.470
74777W        W40037  32.597   4.678  14.677
74778W        W40038  24.570  40.474  13.321
74779W        W40039  23.469  19.102   3.651
74780W        W40040  14.811  21.712  12.459
74781W        W40041  25.642   8.085  10.742
74782W        W40042   2.350  12.791  11.793
74783W        W40043  34.309  15.589   2.796
74784W        W40044  33.109  17.622  11.850
74785W        W40045   8.465  21.713  12.581
74786W        W40046  40.047  31.957   0.734
74787W        W40047  33.468  21.994  11.191
74788W        W40048   3.911   8.260   3.336
74789W        W40049  13.804  41.154   0.223
74790W        W40050  29.144  14.154   2.732
74791W        W40051  10.785   0.895   3.455
74792W        W40052  24.702  26.547   1.454
74793W        W40053   0.356   1.979  11.116
74794W        W40054  31.082  17.616  10.753
74795W        W40055  31.595  25.710  12.325
74796W        W40056  37.728  43.044  10.308
74797W        W40057   5.133  27.932   2.757
74798W        W40058  14.002  19.005  10.643
74799W        W40059  42.997  40.051  13.959
74800W        W40060  17.396  28.418   0.620
74801W        W40061  11.702  38.652   4.076
74802W        W40062  32.724  34.669  10.458
74803W        W40063  44.416   4.439   3.324
74804W        W40064   3.806   9.233   4.310
74805W        W40065  18.741  18.285  14.859
74806W        W40066   5.891  16.291  14.669
74807W        W40067  31.130   0.665  12.927
74808W        W40068  15.424  14.572  14.860
74809W        W40069  17.605  22.633   3.598
74810W        W40070  25.951  22.068   1.341
74811W        W40071   0.250  12.396   1.982
74812W        W40072  11.675   2.412  13.151
74813W        W40073  33.449  14.397   0.268
74814W        W40074  42.769  29.441   3.205
74815W        W40075  31.238   5.485  14.437
74816W        W40076  11.308  17.796  14.853
74817W        W40077  10.246  34.567  14.813
74818W        W40078  10.661  29.446   2.914
74819W        W40079  21.024  13.617  14.341
74820W        W40080  41.373   2.332   0.318
74821W        W40081  21.532  35.414   1.810
74822W        W40082   3.485  37.499   2.894
74823W        W40083   5.156  44.576  12.161
74824W        W40084   3.431  32.430   4.175
74825W        W40085  36.952   7.729  10.732
74826W        W40086  42.323  36.043  10.716
74827W        W40087  13.346  35.531   1.932
74828W        W40088  17.636  10.817  14.878
74829W        W40089  39.080  16.577   1.820
74830W        W40090  22.935  30.264   3.289
74831W        W40091  37.592  11.664  11.097
74832W        W40092  10.854  16.315  13.450
74833W        W40093  12.867   9.545  13.388
74834W        W40094  33.482  18.033   1.328
74835W        W40095  19.585  39.750  13.226
74836W        W40096  42.738   4.102  12.599
74837W        W40097  11.389  20.723  12.624
74838W        W40098  32.570  11.417  11.727
74839W        W40099  36.395  29.789  14.408
74840W        W40100  26.346  25.562  11.602
74841W        W40101  41.041  19.141   2.420
74842W        W40102  33.051  41.846  10.860
74843W        W40103   4.853  19.178   0.796
74844W        W40104   3.306  17.132   1.847
74845W        W40105   4.926   2.244  10.732
74846W        W40106  22.306  14.332   4.539
74847W        W40107  34.502  30.253  11.629
74848W        W40108  40.206  10.102  12.215
74849W        W40109  43.390   7.209  10.089
74850W        W40110  44.432  33.490  13.116
74851W        W40111   9.192  24.668  14.566
74852W        W40112   9.948  15.191  14.790
74853W        W40113   5.173  18.169   2.208
74854W        W40114  31.392  16.106   1.722
74855W        W40115  36.546  44.384   0.236
74856W        W40116  23.038  19.535   0.745
74857W        W40117  16.973   1.294   1.844
74858W        W40118  20.259  26.094   3.214
74859W        W40119   4.391  38.295   3.771
74860W        W40120  37.396  32.501  12.078
74861W        W40121  38.731  10.748   2.153
74862W        W40122   0.524  28.090  14.373
74863W        W40123  22.117  43.519  14.376
74864W        W40124  23.814  22.792  13.801
74865W        W40125  40.269  18.763   3.753
74866W        W40126  22.242  19.764   0.274
74867W        W40127  34.817  28.939   3.690
74868W        W40128  44.319  31.826  12.132
74869W        W40129  22.721  22.224   2.807
74870W        W40130  36.822  26.119   0.180
74871W        W40131  19.606  23.577   1.150
74872W        W40132   6.842  37.239  12.033
74873W        W40133   7.632   2.005  11.482
74874W        W40134  13.971  25.225  14.020
74875W        W40135  18.765  38.088  10.589
74876W        W40136  29.267  29.845  11.119
74877W        W40137  31.999  27.158  14.425
74878W        W40138  24.246  40.156  13.043
74879W        W40139  18.044   8.749   3.277
74880W        W40140   2.256  24.895   0.184
74881W        W40141  34.372  38.932   2.772
74882W        W40142  12.225  16.380  13.631
74883W        W40143  16.013   3.165  11.152
74884W        W40144   7.624  37.055  10.696
74885W        W40145  18.192  39.280  13.565
74886W        W40146  22.258  23.983   3.696
74887W        W40147  23.217   3.972  14.232
74888W        W40148  29.877  21.507  11.553
74889W        W40149   2.977  34.567   1.204
74890W        W40150   7.261  28.663   4.366
74891W        W40151  44.499  38.725  14.833
74892W        W40152  16.268  26.275   3.388
74893W        W40153  18.791  25.685  11.044
74894W        W40154  22.233  17.753   4.578
74895W        W40155  15.184  34.068  12.945
74896W        W40156   2.634   0.603   4.068
74897W        W40157  37.624  18.438   0.647
74898W        W40158  10.190  25.601  10.499
74899W        W40159  26.188   7.898  13.757
74900W        W40160  21.180  28.111   2.872
74901W        W40161  26.632  25.592   4.691
74902W        W40162  34.360  38.896   3.685
74903W        W40163   5.568  25.987   9.934
74904W        W40164  16.211  35.962  14.351
74905W        W40165   9.774  22.195  14.930
74906W        W40166  17.793  30.605   1.583
74907W        W40167  15.170  11.276  10.718
74908W        W40168   6.228   2.604  12.938
74909W        W40169  25.038  19.690   0.501
74910W        W40170  11.561  19.168  12.071
74911W        W40171  31.726   8.906   1.894
74912W        W40172  33.408  30.954  11.516
74913W        W40173  43.868  25.620  11.682
74914W        W40174   2.853  32.885   4.251
74915W        W40175  38.925  15.703  10.681
74916W        W40176  20.072  14.057  13.922
74917W        W40177  39.149  16.145  13.970
74918W        W40178  32.785  26.459   2.724
74919W        W40179   3.555  26.092   0.432
74920W        W40180   7.156  38.221   0.879
74921W        W40181  17.636   0.339  13.073
74922W        W40182  15.057  40.915  11.139
74923W        W40183  33.170  18.279  13.527
74924W        W40184   7.967  37.407  13.902
74925W        W40185  27.576   8.739  14.689
74926W        W40186  28.582   2.369  11.358
74927W        W40187  32.048  12.379   2.671
74928W        W40188  35.988  11.239  14.390
74929W        W40189  22.664  21.778  10.705
74930W        W40190  14.177  24.601  11.986
74931W        W40191  34.512  31.211   1.668
74932W        W40192  26.522   4.010   1.218
74933W        W40193   3.348  20.765  14.861
74934W        W40194  18.632  15.410  12.909
74935W        W40195  20.147  30.386  14.271
74936W        W40196  20.189   2.226   2.334
74937W        W40197  33.999  36.065  14.455
74938W        W40198  32.202  19.238  10.753
74939W        W40199  28.136  10.283   2.428
74940W        W40200  33.166  39.895  13.140
74941W        W40201   8.779  23.764  10.349
74942W        W40202  29.551  43.930  12.626
74943W        W40203   2.650  25.598  12.485
74944W        W40204  15.270   8.138   4.091
74945W        W40205  35.173  37.654  11.499
74946W        W40206  19.081  38.840   0.363
74947W        W40207  14.881  22.175   2.448
74948W        W40208  12.883   9.902   3.565
74949W        W40209  11.770  37.196   1.849
74950W        W40210  23.120  30.678   0.333
74951W        W40211  16.196  27.929  10.572
74952W        W40212  18.584  27.592  13.856
74953W        W40213  27.926  43.946   0.913
74954W        W40214   3.041  34.623  14.388
74955W        W40215  31.938  20.584  11.977
74956W        W40216  38.425  36.937  10.464
74957W        W40217  11.586   0.493  14.497
74958W        W40218   1.319  25.753  14.415
74959W        W40219  20.606  44.416  11.503
74960W        W40220  25.640  16.177   4.106
74961W        W40221  36.552   6.770   4.261
74962W        W40222  11.299  16.356  13.188
74963W        W40223  11.623  12.488  11.567
74964W        W40224  20.134  11.888  14.976
74965W        W40225  14.707  19.354  10.671
74966W        W40226  42.904  27.855   4.206
74967W        W40227  34.534  35.573   2.805
74968W        W40228  18.691  33.854  11.539
74969W        W40229  29.948   8.237  12.968
74970W        W40230  32.691  38.508  11.172
74971W        W40231   0.542  16.122  10.396
74972W        W40232   0.537  15.587   1.177
74973W        W40233  24.015  42.911  14.541
74974W        W40234  12.557  27.902  12.485
74975W        W40235  39.676  21.389   0.105
74976W        W40236  40.039  23.245  14.439
74977W        W40237  31.984  23.625  12.171
74978W        W40238  29.402  16.571   4.045
74979W        W40239  42.086  43.260  14.244
74980W        W40240   9.422   6.443  10.194
74981W        W40241  33.940  11.662  14.888
74982W        W40242  12.522  28.126   2.590
74983W        W40243  36.818  35.090  10.447
74984W        W40244  25.006  38.529   1.301
74985W        W40245   4.055  29.447   2.245
74986W        W40246  25.558  23.669  13.906
74987W        W40247  13.404  22.945  11.586
74988W        W40248   2.325  17.140   4.078
74989W        W40249  20.127   6.733  12.981
74990W        W40250   1.260   2.276   1.821
74991W        W40251  37.579  32.970  11.876
74992W        W40252   7.325  40.099  12.083
74993W        W40253  16.552  17.690   3.202
74994W        W40254  16.624  28.933   0.883
74995W        W40255  43.940  36.875  14.003
74996W        W40256  19.703   5.841  11.012
74997W        W40257   8.827  16.234   0.496
74998W        W40258   5.843   7.127  14.502
74999W        W40259  11.648  31.934  13.860
75000W        W40260   5.338  32.172  11.107
75001W        W40261  25.143  27.490  14.265
75002W        W40262  16.774  16.208   4.191
75003W        W40263   7.191  21.191  11.536
75004W        W40264  17.417   2.944   4.607
75005W        W40265  22.643   0.745   3.282
75006W        W40266  23.270  29.565  13.022
75007W        W40267  17.744  42.262   1.921
75008W        W40268  18.348  12.615  14.708
75009W        W40269  33.727  17.196   0.255
75010W        W40270  13.676  41.064  11.660
75011W        W40271   8.385  10.401  14.784
75012W        W40272  31.343  12.284  14.392
75013W        W40273  42.266   3.988  13.515
75014W        W40274   1.541  21.156   2.242
75015W        W40275   8.421  15.825  11.848
75016W        W40276  14.570  16.929  14.190
75017W        W40277  42.600  39.456  14.500
75018W        W40278  26.384  39.820   3.255
75019W        W40279  41.113  21.721  13.561
75020W        W40280  33.463  37.788  14.937
75021W        W40281  11.511   9.679  13.377
75022W        W40282  20.095  38.923   3.009
75023W        W40283  29.590  34.933   1.775
75024W        W40284  10.403  11.237  13.780
75025W        W40285  30.162  15.684  14.858
75026W        W40286  42.329  42.774  14.336
75027W        W40287   1.230  24.318   2.420
75028W        W40288  21.529   9.771   1.389
75029W        W40289   9.085   6.168   4.611
75030W        W40290   4.908  30.443   3.807
75031W        W40291   9.258   3.239  11.479
75032W        W40292  21.394  40.062  14.122
75033W        W40293   3.399   3.859  12.748
75034W        W40294  39.467  17.047  14.072
75035W        W40295   0.157  19.306   1.941
75036W        W40296  38.724  14.797   0.450
75037W        W40297  40.096   9.877   1.747
75038W        W40298  13.930  40.144   4.157
75039W        W40299  25.432  11.657  14.419
75040W        W40300  23.311  12.629  14.794
75041W        W40301  15.162  17.471   4.936
75042W        W40302  27.150  34.852   2.825
75043W        W40303  14.879   5.623  10.824
75044W        W40304  36.658  32.346  13.934
75045W        W40305  42.895  19.197  12.750
75046W        W40306  16.295  17.592   3.654
75047W        W40307  42.473  31.953  13.131
75048W        W40308   9.825   3.898   1.959
75049W        W40309  13.535  22.026  13.521
75050W        W40310  29.874   7.523  11.114
75051W        W40311  14.481  40.091  13.821
75052W        W40312   9.730  26.527  13.986
75053W        W40313   0.676   2.352  13.296
75054W        W40314  25.938  15.707   3.257
75055W        W40315  15.680  40.941  13.859
75056W        W40316  16.574  31.796  14.379
75057W        W40317  30.722  25.531   0.474
75058W        W40318  32.901  17.781  14.037
75059W        W40319  16.534   8.219   2.649
75060W        W40320   7.167  20.133  14.359
75061W        W40321   5.788  42.117   0.706
75062W        W40322  31.063  20.513   1.839
75063W        W40323  38.817  33.061   3.727
75064W        W40324  39.970  44.792  14.823
75065W        W40325  34.546   6.178   3.173
75066W        W40326  41.530  32.634  14.800
75067W        W40327  15.111   8.378  13.491
75068W        W40328   0.825  22.521  11.603
75069W        W40329  29.129  38.395  11.764
75070W        W40330  37.602  29.712   5.052
75071W        W40331  42.021  28.272   1.452
75072W        W40332  38.947   4.417  13.032
75073W        W40333  44.814  29.176   4.766
75074W        W40334   7.548  23.531   4.292
75075W        W40335   8.582  28.989  12.162
75076W        W40336  17.263  31.767   0.172
75077W        W40337  10.833   6.238   3.679
75078W        W40338   6.318  12.234   4.640
75079W        W40339   1.367  14.533  12.854
75080W        W40340  24.220  16.564  10.300
75081W        W40341   2.213  17.672  13.095
75082W        W40342  17.591  37.365   0.227
75083W        W40343  44.769  14.614   4.081
75084W        W40344  18.698  24.206  13.288
75085W        W40345  39.708   4.172   0.753
75086W        W40346  12.730  34.945   4.785
75087W        W40347  41.061  44.427  13.978
75088W        W40348  26.299   0.352   4.537
75089W        W40349   2.879  33.665   3.818
75090W        W40350  28.156  23.833   0.415
75091W        W40351  34.737  12.593  10.697
75092W        W40352  25.255  30.224  11.223
75093W        W40353   8.166   0.350   2.830
75094W        W40354  18.264  34.515   0.283
75095W        W40355  36.509  27.730   4.502
75096W        W40356  37.637   7.423   3.214
75097W        W40357  21.968  17.312  11.006
75098W        W40358  39.438  35.475  13.064
75099W        W40359  29.537   6.644   3.063
75100W        W40360  15.136   1.051   4.101
75101W        W40361  16.089   3.460   1.779
75102W        W40362   7.855  24.631  14.903
75103W        W40363  21.149  41.640   0.216
75104W        W40364  41.253  25.590  11.757
75105W        W40365  10.749  30.567   5.216
75106W        W40366  20.397   6.198  12.890
75107W        W40367  25.914  32.963   3.228
75108W        W40368  30.471  33.431   3.295
75109W        W40369  15.162  25.412  12.710
75110W        W40370  36.415  41.533  14.965
75111W        W40371  20.136  22.678  13.064
75112W        W40372  37.971   6.607  14.947
75113W        W40373  13.699  32.148   0.309
75114W        W40374  24.976  33.633   4.099
75115W        W40375  37.590   8.231   1.750
75116W        W40376  24.271  13.678  14.875
75117W        W40377  13.486   6.323  11.530
75118W        W40378  20.709   3.974   4.348
75119W        W40379  18.978   7.312   1.680
75120W        W40380  18.399  40.289  12.059
75121W        W40381  43.795  32.903  12.496
75122W        W40382  38.883  38.952   3.082
75123W        W40383  17.802  23.918  12.546
75124W        W40384  29.993   2.783   4.975
75125W        W40385  13.855  26.105   2.890
75126W        W40386  18.037  12.742  13.373
75127W        W40387  28.490  16.728   0.801
75128W        W40388  41.587  31.863  12.704
75129W        W40389   9.860   3.753  11.270
75130W        W40390  20.044  16.513  12.466
75131W        W40391  42.619   9.288   2.604
75132W        W40392  33.123  31.650  11.508
75133W        W40393  13.200  18.750   3.989
75134W        W40394  18.995  33.400  11.560
75135W        W40395  27.631  34.650   3.065
75136W        W40396  12.714  20.878  13.182
75137W        W40397  17.589   7.160   1.057
75138W        W40398   1.494  13.134  10.932
75139W        W40399   7.444   3.385  13.323
75140W        W40400  38.119  32.036   4.360
75141W        W40401  32.332   8.120   3.339
75142W        W40402   8.799   1.959   4.305
75143W        W40403  18.310  11.406   4.535
75144W        W40404  12.359  28.161  14.375
75145W        W40405  36.377  20.674   4.068
75146W        W40406  10.810  20.759  11.391
75147W        W40407  15.670  27.873  13.461
75148W        W40408  15.229  13.438   1.545
75149W        W40409  16.895  17.790  14.486
75150W        W40410  35.801  31.980   2.103
75151W        W40411  13.406  18.493  14.512
75152W        W40412  15.790  20.697  14.471
75153W        W40413  41.100  35.951   1.110
75154W        W40414   6.430  23.475  13.159
75155W        W40415   0.321  17.354   4.672
75156W        W40416  10.335  22.128   2.793
75157W        W40417  16.764  16.745   0.302
75158W        W40418   8.613  26.877   2.261
75159W        W40419   8.956  37.658  12.970
75160W        W40420  28.963   4.878  13.797
75161W        W40421  27.928  31.535  10.851
75162W        W40422  21.711  13.396  10.676
75163W        W40423  28.485   5.746  11.191
75164W        W40424  26.870  38.661  13.529
75165W        W40425  37.887  44.744   3.344
75166W        W40426  19.054  42.781  13.893
75167W        W40427  13.573  30.590   0.801
75168W        W40428   0.659  23.619  14.121
75169W        W40429  30.417  21.710   0.464
75170W        W40430  33.517  27.836  14.241
75171W        W40431   5.445  22.061   2.659
75172W        W40432   6.911   0.935  10.746
75173W        W40433  14.248  14.229   4.457
75174W        W40434  35.080  38.448   3.799
75175W        W40435  27.546  24.001   3.219
75176W        W40436   6.818  12.783   0.567
75177W        W40437  40.361  29.252  14.038
75178W        W40438  30.661  30.152   3.022
75179W        W40439  26.479  10.637  13.328
75180W        W40440  20.405   9.536   1.149
75181W        W40441  14.033   3.529  11.028
75182W        W40442   0.581  39.494   3.358
75183W        W40443   3.921  14.100  11.542
75184W        W40444  39.794  39.348   3.246
75185W        W40445  30.425  30.870   0.349
75186W        W40446  16.493   2.922  13.313
75187W        W40447  12.513  43.071  13.530
75188W        W40448  17.583  21.325  10.405
75189W        W40449  18.039   0.693  14.426
75190W        W40450  41.856  11.663  10.223
75191W        W40451  13.074  42.087  10.904
75192W        W40452  19.166  19.777  12.114
75193W        W40453  42.803  26.727  11.037
75194W        W40454  25.418  38.601  13.063
75195W        W40455  13.650  26.702  12.008
75196W        W40456   1.230   6.845  13.947
75197W        W40457  13.159  20.742  10.592
75198W        W40458  27.648  11.711   1.946
75199W        W40459  15.787   3.808   0.010
75200W        W40460  42.585  14.739  13.372
75201W        W40461   4.746  36.688   2.835
75202W        W40462  23.755  11.639  12.963
75203W        W40463  15.980   2.280   2.442
75204W        W40464  22.981  35.186  13.531
75205W        W40465  42.192  35.686   3.117
75206W        W40466  28.999  37.925  11.597
75207W        W40467  35.537  31.648   0.066
75208W        W40468   4.774  22.009   2.679
75209W        W40469  17.682  23.037   4.047
75210W        W40470  23.801  14.757   0.295
75211W        W40471  13.631   2.273   4.302
75212W        W40472  13.291  40.107  10.738
75213W        W40473  13.832  16.789   4.530
75214W        W40474  26.696  42.528   1.791
75215W        W40475  13.604  19.821  10.845
75216W        W40476  43.691  18.107  11.598
75217W        W40477  40.127  33.067   3.203
75218W        W40478   8.391  25.114   3.800
75219W        W40479  38.629   4.657   2.736
75220W        W40480  24.708  43.421   2.438
75221W        W40481  28.366  18.674   5.423
75222W        W40482  10.604  23.501   2.818
75223W        W40483  10.663  37.084   0.987
75224W        W40484  11.799  41.734  10.663
75225W        W40485  14.405  38.334  13.328
75226W        W40486   5.485  21.296  12.448
75227W        W40487  28.034  43.999  11.193
75228W        W40488  24.682  43.384   2.947
75229W        W40489   5.661  25.097  14.980
75230W        W40490   0.357  39.861   2.897
75231W        W40491  27.470  26.398  10.469
75232W        W40492   2.115  22.098  10.332
75233W        W40493  17.552   0.713  13.843
75234W        W40494  15.295  23.160   4.370
75235W        W40495   1.161  31.356   1.336
75236W        W40496   9.381  35.624  13.154
75237W        W40497  43.887   4.312  14.762
75238W        W40498  36.350  13.594  14.905
75239W        W40499  40.129   4.843  11.119
75240W        W40500  27.932  35.799  14.970
75241W        W40501  17.352   5.186  14.235
75242W        W40502  24.087  30.674   1.379
75243W        W40503  30.703  29.549  14.312
75244W        W40504  43.990  36.878  12.124
75245W        W40505  31.669  29.818  11.142
75246W        W40506   6.164   5.206   3.751
75247W        W40507  29.620  34.635  10.653
75248W        W40508  36.667  34.104  10.659
75249W        W40509  34.791  29.823   2.403
75250W        W40510  17.094  44.177   1.245
75251W        W40511  19.176  40.896  13.117
75252W        W40512  20.249  34.866   3.121
75253W        W40513   0.196  20.533  11.630
75254W        W40514  28.446  20.565   1.614
75255W        W40515  23.386  24.594   2.858
75256W        W40516  35.539   7.338  11.069
75257W        W40517  14.261  36.848   2.579
75258W        W40518  22.596  19.965  12.957
75259W        W40519  26.515  23.209   2.327
75260W        W40520  14.543  16.173  11.773
75261W        W40521  10.315  22.511  10.596
75262W        W40522  24.617  19.117  12.103
75263W        W40523  28.997  38.787  12.523
75264W        W40524  44.122  20.736   2.585
75265W        W40525  36.133  32.944  12.526
75266W        W40526  26.014  22.376  14.232
75267W        W40527  19.819   0.375   1.494
75268W        W40528  37.910  20.676   2.191
75269W        W40529  15.204  38.008   1.920
75270W        W40530  14.434  32.096   4.622
75271W        W40531  26.721  18.860  13.891
75272W        W40532  24.426  28.407  14.125
75273W        W40533   3.351   1.670  10.652
75274W        W40534  30.171  29.669   1.900
75275W        W40535  19.748  12.175   0.835
75276W        W40536   5.951   5.791   3.654
75277W        W40537  12.377  40.807   1.767
75278W        W40538  32.468  27.650   3.123
75279W        W40539  11.291  21.634   1.774
75280W        W40540  30.635  39.351  14.228
75281W        W40541  35.449  19.303   3.837
75282W        W40542  42.520  35.787  12.119
75283W        W40543   4.884  36.600   1.277
75284W        W40544  13.584  15.243   0.517
75285W        W40545  13.974  11.598  14.826
75286W        W40546  25.505  40.823   0.968
75287W        W40547  14.814  40.281  12.780
75288W        W40548  17.914  27.432  11.235
75289W        W40549  20.956  25.410  14.938
75290W        W40550  43.525  33.605   2.771
75291W        W40551   7.864  15.219   0.232
75292W        W40552  21.564  39.618  14.384
75293W        W40553  44.728  15.074   0.915
75294W        W40554  41.470  13.173  11.700
75295W        W40555  30.206  38.634   0.450
75296W        W40556  10.400  24.220  14.845
75297W        W40557  18.140   7.283  14.791
75298W        W40558  23.260   1.661  13.531
75299W        W40559  26.385  38.525   2.405
75300W        W40560  37.009   5.241  12.756
75301W        W40561   3.166  33.407   2.495
75302W        W40562  18.353  30.207  12.955
75303W        W40563  37.235   6.391  10.390
75304W        W40564  27.726   7.978   0.810
75305W        W40565  38.265  34.999  12.377
75306W        W40566  30.272  35.013  11.826
75307W        W40567  30.926  42.736  11.191
75308W        W40568  11.899  19.508  14.313
75309W        W40569   1.355  26.746   2.328
75310W        W40570  26.622  25.766   0.945
75311W        W40571  16.862  37.893  11.843
75312W        W40572   2.208  15.348  14.884
75313W        W40573  30.661  31.359   4.781
75314W        W40574  41.141  34.827  10.999
75315W        W40575  28.539  43.412   3.288
75316W        W40576   5.707  37.770   2.734
75317W        W40577   6.506  44.065   4.251
75318W        W40578  21.606  27.583   0.407
75319W        W40579  31.484   0.325   3.928
75320W        W40580  40.090  42.095   1.841
75321W        W40581  13.295  33.408   0.500
75322W        W40582  24.517  30.357  11.630
75323W        W40583  43.540  17.327  10.209
75324W        W40584   3.496  19.607  13.831
75325W        W40585   4.520  27.084   4.191
75326W        W40586  23.494  32.652  13.522
75327W        W40587   8.398  35.432  13.539
75328W        W40588  20.442  31.931   1.220
75329W        W40589   5.316  21.985   0.394
75330W        W40590   9.216  28.681   3.004
75331W        W40591   8.418  32.280   2.320
75332W        W40592  38.596  29.166   4.615
75333W        W40593  28.666  30.615  12.487
75334W        W40594  33.616   4.722  11.385
75335W        W40595  16.727  34.742   3.692
75336W        W40596   8.308  42.935   4.660
75337W        W40597  12.123  30.034  12.118
75338W        W40598  44.808  34.106   4.518
75339W        W40599  13.375  34.333   3.609
75340W        W40600   2.284  28.917   0.359
75341W        W40601   2.660  32.727   3.776
75342W        W40602  41.571   5.449   1.743
75343W        W40603  14.887  28.196   1.900
75344W        W40604  30.603  12.026   2.987
75345W        W40605  34.143  18.357  12.431
75346W        W40606  25.897  11.857   2.206
75347W        W40607  37.781  43.936   4.385
75348W        W40608  12.223  17.976   1.350
75349W        W40609   5.138   3.037  14.754
75350W        W40610  32.232   3.923  12.617
75351W        W40611  19.314  29.782   2.883
75352W        W40612   0.852   0.644  11.840
75353W        W40613  39.950   3.836  12.067
75354W        W40614  33.164  13.063  14.391
75355W        W40615  23.504  20.709   1.734
75356W        W40616   1.372  35.348   2.946
75357W        W40617   9.163   9.365  12.413
75358W        W40618  12.120  15.245  11.564
75359W        W40619  38.379  29.689  12.003
75360W        W40620  21.993  24.648  13.355
75361W        W40621  17.384  13.028  11.993
75362W        W40622  23.488  28.992   0.793
75363W        W40623  33.952   1.946   1.845
75364W        W40624  18.026  24.546   4.670
75365W        W40625  18.658  29.593   0.323
75366W        W40626  16.236  29.873  10.716
75367W        W40627  32.283   5.068  13.460
75368W        W40628  13.012   9.902  13.995
75369W        W40629  17.805  40.972   0.397
75370W        W40630  13.561   4.311  12.896
75371W        W40631  21.998  26.258   0.309
75372W        W40632   5.426  18.220   2.668
75373W        W40633  43.693  23.394   2.240
75374W        W40634  15.701  18.856  11.204
75375W        W40635  33.402   9.013  11.600
75376W        W40636  24.320  37.988   0.892
75377W        W40637  36.935  30.520  13.051
75378W        W40638  32.894  26.310  10.315
75379W        W40639  23.266  11.677   3.232
75380W        W40640  30.684  38.673  12.936
75381W        W40641  10.621  21.623  11.489
75382W        W40642  22.035  43.993  13.347
75383W        W40643  39.158   0.418  10.251
75384W        W40644   2.057   0.953   0.426
75385W        W40645   1.768  19.914  13.533
75386W        W40646  16.337  15.270  12.454
75387W        W40647  29.014  11.682   3.257
75388W        W40648  16.621  40.533  13.855
75389W        W40649  15.276  15.477  11.784
75390W        W40650  34.269  43.357   3.311
75391W        W40651  12.355  26.705   4.997
75392W        W40652  36.438  38.462  11.566
75393W        W40653  23.358  33.327  11.142
75394W        W40654  32.877  34.503  12.072
75395W        W40655  36.020  17.547  14.267
75396W        W40656  40.490  37.392   0.924
75397W        W40657   6.905  31.988   4.413
75398W        W40658   4.548  37.419  14.352
75399W        W40659   1.228  17.147  14.846
75400W        W40660  13.973  14.038   1.278
75401W        W40661  26.508   0.537  13.552
75402W        W40662  12.959  28.248   0.697
75403W        W40663  20.737  43.668  10.671
75404W        W40664  27.134  17.861  14.521
75405W        W40665  36.938  42.441   3.752
75406W        W40666  29.045  13.319  11.034
75407W        W40667  43.295  15.131   1.912
75408W        W40668   4.507  17.339   1.332
75409W        W40669  31.474   8.218  13.131
75410W        W40670   0.491   7.730  13.493
75411W        W40671  29.885   0.870  14.105
75412W        W40672   8.137  15.159  11.117
75413W        W40673  30.266   0.353  13.374
75414W        W40674  24.501  19.058   1.437
75415W        W40675  10.266  33.892  11.591
75416W        W40676  34.821  10.116  12.406
75417W        W40677  26.112  40.261   2.137
75418W        W40678  28.223  33.995  13.613
75419W        W40679   8.601  33.873  10.699
75420W        W40680  21.726  10.750  12.982
75421W        W40681  29.987  29.915   2.322
75422W        W40682  44.357  18.541  10.541
75423W        W40683  29.807  43.778   3.580
75424W        W40684   8.375   7.215   2.621
75425W        W40685  18.507   0.882  14.305
75426W        W40686   8.477  22.297  10.617
75427W        W40687   3.868  34.211  11.980
75428W        W40688  21.728  32.933  11.479
75429W        W40689   2.270  14.620  10.572
75430W        W40690  36.378   5.187  13.516
75431W        W40691  28.632  26.953   0.846
75432W        W40692  19.497  23.006  14.949
75433W        W40693  37.056  24.064  13.979
75434W        W40694   3.379  28.203   0.883
75435W        W40695  19.305  18.010  11.173
75436W        W40696  30.746  24.151   3.297
75437W        W40697   5.406  38.305   0.267
75438W        W40698  14.962   1.947  12.729
75439W        W40699  37.317  30.963   0.383
75440W        W40700  32.608   2.943  11.076
75441W        W40701  38.751  29.194   0.266
75442W        W40702  34.628  13.148   1.689
75443W        W40703   9.400   6.231   1.841
75444W        W40704   3.111  15.706   4.775
75445W        W40705  25.589  43.814   4.606
75446W        W40706  21.723  13.838  11.232
75447W        W40707   8.312  39.102  11.141
75448W        W40708  18.084  10.426   4.451
75449W        W40709   1.032  24.605   1.885
75450W        W40710   6.951  16.330  14.874
75451W        W40711  31.537  37.099   2.281
75452W        W40712   3.046  14.871   4.842
75453W        W40713  30.747  10.791  14.838
75454W        W40714  29.183  31.414  13.378
75455W        W40715  15.791   6.426   2.703
75456W        W40716   1.594  12.045   2.620
75457W        W40717  40.603  11.852   3.234
75458W        W40718  13.413   8.708   3.139
75459W        W40719  22.081  11.708  12.136
75460W        W40720  14.592   2.295  12.530
75461W        W40721  10.056  15.418  13.575
75462W        W40722  12.134   4.340  14.102
75463W        W40723  34.063  25.077  10.846
75464W        W40724  44.688  16.343  13.996
75465W        W40725  32.874   7.378   4.126
75466W        W40726  17.248  18.578   2.372
75467W        W40727  19.454  35.994  12.498
75468W        W40728  19.771  19.033  11.860
75469W        W40729  27.021  27.255  14.811
75470W        W40730  11.096  41.454   1.828
75471W        W40731  41.047   4.601  12.168
75472W        W40732  29.551  15.731  10.715
75473W        W40733   1.888  22.321  11.157
75474W        W40734  26.428  42.934   1.946
75475W        W40735  38.936  29.188  11.439
75476W        W40736  35.730  26.636  12.841
75477W        W40737  11.921  21.277   4.058
75478W        W40738  37.725  18.479  13.400
75479W        W40739  24.971  40.920  10.700
75480W        W40740  30.016  42.856  14.855
75481W        W40741  13.528  15.475  12.100
75482W        W40742  32.753  21.720   1.875
75483W        W40743  21.331  12.277  10.653
75484W        W40744  40.045   7.973   1.797
75485W        W40745  33.468   7.500  13.627
75486W        W40746  38.653  22.538   0.829
75487W        W40747  24.507  17.508  12.550
75488W        W40748  10.745  13.122   0.202
75489W        W40749  27.584  36.838  11.660
75490W        W40750  10.420  31.407  12.388
75491W        W40751  37.131  14.833   4.231
75492W        W40752  22.250  10.202   0.302
75493W        W40753  20.602  37.020   0.525
75494W        W40754  11.117  25.873  14.015
75495W        W40755  42.213  29.553   4.774
75496W        W40756  42.300  15.297   3.210
75497W        W40757   0.780  41.467  10.688
75498W        W40758   7.178  35.584  12.197
75499W        W40759  44.859  12.689   1.842
75500W        W40760   9.329  10.126  11.128
75501W        W40761   6.121  14.022  12.366
75502W        W40762  15.063  29.582   1.683
75503W        W40763  37.064  28.765   4.147
75504W        W40764  27.928  28.511  14.976
75505W        W40765  43.331  24.784   4.938
75506W        W40766  20.030  19.421   0.958
75507W        W40767  10.061  42.393   4.546
75508W        W40768  37.535   4.587   2.836
75509W        W40769  38.945  35.160   1.722
75510W        W40770   8.735  34.530   0.539
75511W        W40771  40.487  30.479  12.906
75512W        W40772  31.815  44.196   1.003
75513W        W40773  24.190  14.172  12.997
75514W        W40774  34.947  25.497   0.010
75515W        W40775  14.313   3.789   3.337
75516W        W40776  31.137  14.523  10.449
75517W        W40777   5.678   4.727  13.439
75518W        W40778   1.843  34.137  12.303
75519W        W40779  32.875   2.552   2.533
75520W        W40780  32.382   3.406   1.678
75521W        W40781  33.886  14.691  11.836
75522W        W40782  40.222  43.328  13.903
75523W        W40783  42.548  30.967   1.998
75524W        W40784  42.889  13.607   2.831
75525W        W40785   3.388  27.156  11.945
75526W        W40786   5.949  41.503   2.607
75527W        W40787   7.763  32.137   4.060
75528W        W40788   2.303  23.164   0.799
75529W        W40789  23.616  43.611   0.984
75530W        W40790  18.773  28.544  13.803
75531W        W40791  13.135  22.478  13.967
75532W        W40792  16.791  25.145   1.817
75533W        W40793  30.223  32.323  12.054
75534W        W40794   3.501  35.006  13.528
75535W        W40795   2.397  16.529   0.308
75536W        W40796  34.585   8.843  13.187
75537W        W40797   6.767  12.846   3.076
75538W        W40798  17.798  19.285  14.953
75539W        W40799  17.772   9.898   3.278
75540W        W40800   7.697   3.205   2.221
75541W        W40801  10.247   6.228   5.003
75542W        W40802  42.880  15.404   4.774
75543W        W40803  24.726  37.584  13.824
75544W        W40804  42.855  18.695  10.658
75545W        W40805  28.524  37.347   2.402
75546W        W40806  43.048  41.458  10.937
75547W        W40807   0.518  15.841   3.016
75548W        W40808  14.220   7.325   4.906
75549W        W40809  22.444   0.527  11.104
75550W        W40810  32.355  15.275  13.585
75551W        W40811  10.209  17.305   2.430
75552W        W40812   0.215  35.949   1.357
75553W        W40813   1.584   0.506   3.810
75554W        W40814  29.890   2.248  14.305
75555W        W40815  42.652  12.250  14.930
75556W        W40816   9.949  23.937   2.965
75557W        W40817  11.373   4.749   1.271
75558W        W40818  26.003  41.471  12.978
75559W        W40819   7.347  32.897   0.159
75560W        W40820  15.255  34.765  11.604
75561W        W40821  12.668  33.506   0.915
75562W        W40822  21.536   8.924  10.615
75563W        W40823  11.913  11.763  12.750
75564W        W40824  15.498  27.723  10.614
75565W        W40825  21.151  24.730   4.461
75566W        W40826  24.170   1.004  11.514
75567W        W40827  12.882  15.322  14.384
75568W        W40828  26.028  42.618  11.195
75569W        W40829   6.499  18.588   3.148
75570W        W40830  17.124  13.781  11.557
75571W        W40831  30.543  17.091   4.506
75572W        W40832  12.738  37.714   2.684
75573W        W40833  17.672   6.932   3.985
75574W        W40834   7.250  20.959  11.069
75575W        W40835  34.848  38.710  10.721
75576W        W40836   0.793   2.237   4.492
75577W        W40837  23.305  32.000  10.615
75578W        W40838   2.734  15.617   2.213
75579W        W40839  36.166   8.839  11.212
75580W        W40840  28.946  44.858  14.307
75581W        W40841  30.477   0.820  11.439
75582W        W40842  30.824  26.688  10.734
75583W        W40843  44.366   4.965   0.303
75584W        W40844   4.274   1.817   0.590
75585W        W40845  27.736  28.406  12.103
75586W        W40846  35.068  16.352  12.308
75587W        W40847  30.217  20.016  11.160
75588W        W40848  37.921  14.348  12.835
75589W        W40849   5.751  22.176   3.675
75590W        W40850  27.826   2.736   0.017
75591W        W40851  31.679  39.656  11.043
75592W        W40852   9.598  15.658  10.186
75593W        W40853  20.537   5.143   3.752
75594W        W40854  23.288  20.348  11.581
75595W        W40855  25.024  22.554   0.689
75596W        W40856  14.507  31.969   3.755
75597W        W40857  12.654  11.692   1.364
75598W        W40858   9.537  29.953   3.637
75599W        W40859  34.398  31.889   0.828
75600W        W40860   6.478  17.702   1.196
75601W        W40861  36.805  43.895   0.870
75602W        W40862  11.027  24.723  13.521
75603W        W40863  36.088  40.093  12.377
75604W        W40864  28.771  35.644  13.654
75605W        W40865  10.042  29.546  14.739
75606W        W40866   6.774  16.337   1.584
75607W        W40867  20.949  40.453  11.010
75608W        W40868  13.802   5.731   3.569
75609W        W40869  13.606  33.828  13.524
75610W        W40870   9.616  17.883   3.609
75611W        W40871  30.955  32.435   4.005
75612W        W40872  10.610  44.308   1.840
75613W        W40873  20.432   8.531  11.269
75614W        W40874  36.348   5.000   4.414
75615W        W40875  42.733  13.593  11.648
75616W        W40876  41.727  18.662   0.815
75617W        W40877  16.205  11.297   0.760
75618W        W40878   6.124  43.314   0.514
75619W        W40879   3.711   5.879   0.453
75620W        W40880  37.523  41.287   4.737
75621W        W40881  25.643  23.995  10.916
75622W        W40882  17.505  23.249   3.057
75623W        W40883  32.714   8.655   1.354
75624W        W40884   5.855  19.778  14.521
75625W        W40885  43.716  42.508  11.929
75626W        W40886  10.297  18.966   3.181
75627W        W40887  14.161  41.898   3.175
75628W        W40888  41.737  34.142   1.257
75629W        W40889  29.329  32.121  13.991
75630W        W40890  24.754  35.582  12.889
75631W        W40891  33.427   2.296   3.698
75632W        W40892  19.065  17.886   1.433
75633W        W40893  31.392  38.860   3.387
75634W        W40894  30.512   0.048  13.943
75635W        W40895  42.223   3.796   0.255
75636W        W40896  17.062   3.984   1.855
75637W        W40897  12.432  17.778   3.082
75638W        W40898  35.230  22.755   4.107
75639W        W40899  40.256  24.155   0.676
75640W        W40900  32.097  21.947  13.558
75641W        W40901  22.304  29.976   1.435
75642W        W40902  36.575  39.979   3.926
75643W        W40903  17.757  33.512   3.188
75644W        W40904  31.944  40.462   1.395
75645W        W40905  23.751  44.491   0.858
75646W        W40906  34.134  22.638  14.981
75647W        W40907   7.854  13.818  12.966
75648W        W40908  29.836  22.593   2.873
75649W        W40909  35.157   2.400   2.374
75650W        W40910   1.336  18.173  11.049
75651W        W40911  23.414   4.728  12.075
75652W        W40912  43.790  35.071  14.371
75653W        W40913  14.684  28.917   4.873
75654W        W40914   0.108  18.914  13.117
75655W        W40915   4.932  22.214  12.403
75656W        W40916  39.075  25.207  11.956
75657W        W40917  35.072  21.610   3.162
75658W        W40918  28.939   6.411  12.051
75659W        W40919   9.725  27.487  13.771
75660W        W40920  26.588  12.275  12.345
75661W        W40921  14.984  20.733   1.264
75662W        W40922  40.755   7.916  13.090
75663W        W40923  32.736  22.362  11.998
75664W        W40924  30.615   1.751  13.282
75665W        W40925  10.615   5.780   3.635
75666W        W40926  22.800  26.107   2.729
75667W        W40927  24.039  11.384   3.710
75668W        W40928  35.479  17.974   2.193
75669W        W40929  14.887  42.858   3.700
75670W        W40930  19.625  11.171   3.360
75671W        W40931  14.853  41.004  14.452
75672W        W40932   4.420  15.274   1.214
75673W        W40933  28.531  26.737   4.089
75674W        W40934  25.520  39.516  12.935
75675W        W40935  15.436  27.421  13.543
75676W        W40936  43.254  12.286   1.344
75677W        W40937  25.452  30.136  14.597
75678W        W40938  33.408   5.853  10.784
75679W        W40939  35.900  18.136   2.894
75680W        W40940  23.647   2.325  13.030
75681W        W40941  12.087  31.600   1.372
75682W        W40942  36.111   5.252   2.187
75683W        W40943   5.442  33.102  12.897
75684W        W40944   9.827  22.742   4.185
75685W        W40945  10.741   2.357  12.428
75686W        W40946   2.972  18.224  12.589
75687W        W40947  18.073  17.353   0.751
75688W        W40948  31.647  44.354  12.823
75689W        W40949  36.335   4.269  13.600
75690W        W40950  15.166   3.694  14.077
75691W        W40951   1.332  33.846  12.474
75692W        W40952  42.361  20.697   3.558
75693W        W40953  18.268  26.636  12.219
75694W        W40954   8.881  23.615   1.854
75695W        W40955  39.488  43.986  11.103
75696W        W40956  17.271  20.311  12.974
75697W        W40957  18.135  15.285   2.642
75698W        W40958  25.126   0.425   0.839
75699W        W40959  30.609  28.828   1.599
75700W        W40960  14.614  11.921   1.092
75701W        W40961  19.678  34.513   1.024
75702W        W40962  12.902  24.618  10.718
75703W        W40963  30.103  31.398   4.929
75704W        W40964  33.490  18.064   4.203
75705W        W40965  44.060  16.097  10.738
75706W        W40966  31.200  16.783   2.666
75707W        W40967  26.325  37.946   4.798
75708W        W40968   7.954  21.714  13.646
75709W        W40969  33.565  31.433  11.612
75710W        W40970  42.333   1.509   3.798
75711W        W40971  16.845  24.532   4.049
75712W        W40972  35.005  24.650   3.480
75713W        W40973  43.029   0.543   0.390
75714W        W40974  37.008   2.933   4.572
75715W        W40975  18.238  42.312  14.833
75716W        W40976  24.073   4.275   3.359
75717W        W40977  40.073  23.322   1.779
75718W        W40978  40.002   5.655  10.570
75719W        W40979  18.614  39.409  10.538
75720W        W40980  25.214  11.188   2.596
75721W        W40981  30.001  33.228  14.913
75722W        W40982  32.537  20.053  12.508
75723W        W40983  39.551   6.266   3.326
75724W        W40984   2.861  16.299   2.325
75725W        W40985  40.992  12.328   4.551
75726W        W40986  20.702  29.490   0.513
75727W        W40987  22.195  44.339   0.715
75728W        W40988   1.903  32.072   2.602
75729W        W40989  39.694   2.845  13.474
75730W        W40990   1.473  10.747  10.611
75731W        W40991  42.544  37.972   3.199
75732W        W40992  42.532   0.416  12.614
75733W        W40993  44.680  12.593   9.858
75734W        W40994   9.382  12.914  11.686
75735W        W40995  40.074  35.571  11.204
75736W        W40996   7.681  35.335   0.243
75737W        W40997  14.917  25.953   4.630
75738W        W40998  15.660  27.048   3.684
75739W        W40999   0.950  21.460  14.942
75740W        W41000  36.811  10.167   3.277
75741W        W41001  34.415   3.971   4.614
75742W        W41002  42.881  37.583  14.514
75743W        W41003   4.876   7.725   4.572
75744W        W41004  21.437  17.216   3.192
75745W        W41005  33.414  16.172   4.049
75746W        W41006   6.732  26.406   1.366
75747W        W41007  11.774  28.521  12.816
75748W        W41008   6.711  23.059   0.853
75749W        W41009  11.824   0.522  13.488
75750W        W41010   8.144  30.561   4.662
75751W        W41011  44.432   8.786   1.805
75752W        W41012   1.433   7.135   2.399
75753W        W41013  22.618  36.949  14.547
75754W        W41014   4.260   8.927   4.559
75755W        W41015  40.578  13.263  11.905
75756W        W41016   5.933  14.202   2.368
75757W        W41017  12.842  17.250   1.753
75758W        W41018  33.406   7.426   3.531
75759W        W41019  44.264  14.710   4.130
75760W        W41020  16.515  24.007  13.347
75761W        W41021  16.567  22.586   3.609
75762W        W41022  12.658  38.946   2.633
75763W        W41023  36.308  16.680  12.166
75764W        W41024  44.317  18.947   1.668
75765W        W41025  26.914  31.092   1.191
75766W        W41026  39.055  29.585   3.403
75767W        W41027   8.953   7.878  12.936
75768W        W41028  35.362  44.939  11.004
75769W        W41029  43.631  37.385  10.349
75770W        W41030  30.881  41.530   4.513
75771W        W41031  29.048  37.016   3.682
75772W        W41032  34.941  40.748   0.445
75773W        W41033  30.562  17.263   2.169
75774W        W41034  34.473  40.585   3.194
75775W        W41035  22.525  24.288   2.764
75776W        W41036  19.309  16.690  11.919
75777W        W41037  20.372  22.110   1.236
75778W        W41038  17.181  43.717  12.286
75779W        W41039  33.373  11.589   1.335
75780W        W41040  37.940   1.474   1.002
75781W        W41041  15.170  39.344  10.745
75782W        W41042  29.955  19.618   1.211
75783W        W41043  30.973   4.958  14.351
75784W        W41044  44.799  20.856   3.619
75785W        W41045  34.219  24.976   3.229
75786W        W41046   2.995  38.112   4.074
75787W        W41047  18.501  36.509  14.531
75788W        W41048   4.566  20.282  14.319
75789W        W41049  24.971  15.332   2.284
75790W        W41050  16.141  12.636   2.345
75791W        W41051  21.499  37.614   3.779
75792W        W41052  35.461  37.870  13.614
75793W        W41053   6.412  11.030  11.968
75794W        W41054  40.429  29.713  10.586
75795W        W41055  35.530  16.202   2.947
75796W        W41056  33.417  20.205   1.834
75797W        W41057  38.303  10.227   4.209
75798W        W41058  33.470  32.632   1.752
75799W        W41059   3.703  24.523  13.533
75800W        W41060  20.533  28.720   1.884
75801W        W41061  31.484  34.786   1.947
75802W        W41062  28.062  22.273   4.170
75803W        W41063  42.239  33.821   1.985
75804W        W41064  17.289  11.749   3.109
75805W        W41065   6.884  26.594  10.634
75806W        W41066  37.862  15.371  11.984
75807W        W41067  38.286  13.078  12.621
75808W        W41068   4.269  13.128   0.381
75809W        W41069  13.237  11.353   3.710
75810W        W41070   7.700   0.730  11.948
75811W        W41071  42.046  30.446  10.770
75812W        W41072  41.100  23.595  13.099
75813W        W41073  19.305  37.192  13.082
75814W        W41074  22.686   3.569  11.062
75815W        W41075  11.195  24.662  14.509
75816W        W41076  32.800  21.001  13.517
75817W        W41077  31.005  26.591   1.889
75818W        W41078  11.221   2.740  13.592
75819W        W41079   1.067  35.299   2.215
75820W        W41080  12.806  28.033  11.956
75821W        W41081  32.659  33.481   2.321
75822W        W41082  39.029  20.049   0.797
75823W        W41083  22.310  27.032  12.883
75824W        W41084  40.095  18.330   4.069
75825W        W41085   6.901   9.508  13.818
75826W        W41086  38.030  29.069   3.233
75827W        W41087  29.573  16.639  13.040
75828W        W41088  33.082  33.428  12.548
75829W        W41089  13.850  29.268   0.856
75830W        W41090  18.743  29.633  14.398
75831W        W41091  22.136  14.933  12.504
75832W        W41092  11.134  38.524  13.198
75833W        W41093  40.465  25.376  11.138
75834W        W41094   8.221  25.375   5.066
75835W        W41095   4.988  19.922   3.226
75836W        W41096  13.236  25.447   1.980
75837W        W41097   7.556  11.171  11.941
75838W        W41098  20.139   5.159  10.161
75839W        W41099  38.227  22.114  14.538
75840W        W41100  43.964  42.794   2.233
75841W        W41101   2.375  15.782  12.115
75842W        W41102  29.090  14.785  12.194
75843W        W41103   8.185  28.516   4.367
75844W        W41104  11.247  12.075  10.684
75845W        W41105  23.678  42.889   3.105
75846W        W41106  44.846  40.844   2.110
75847W        W41107  34.910  42.934  10.205
75848W        W41108  17.281  26.631  13.432
75849W        W41109  27.050  38.543   1.805
75850W        W41110  22.579  16.079  14.399
75851W        W41111  40.802  12.193   1.197
75852W        W41112  27.770   0.250  10.838
75853W        W41113  36.285  14.101   2.883
75854W        W41114  18.259  18.245   3.165
75855W        W41115  33.713  20.720  13.447
75856W        W41116  24.295  10.809  13.840
75857W        W41117  20.627  31.682   0.406
75858W        W41118   3.180  15.706  12.602
75859W        W41119  26.292   5.130   2.922
75860W        W41120  19.106   6.467  14.872
75861W        W41121  29.543  36.927   3.885
75862W        W41122  10.015  13.860   2.177
75863W        W41123  15.879   6.895  10.505
75864W        W41124   4.278  38.787   4.645
75865W        W41125  23.302  20.224   1.703
75866W        W41126  19.730  12.693  11.624
75867W        W41127   5.660   5.367   3.679
75868W        W41128  21.685  30.089  14.273
75869W        W41129   6.791  32.185  13.797
75870W        W41130  36.354  39.462   1.441
75871W        W41131  41.707  44.814   2.798
75872W        W41132  22.336  33.724  12.512
75873W        W41133  15.307  35.743   2.639
75874W        W41134   8.432  20.469  10.927
75875W        W41135  24.771   3.244  13.908
75876W        W41136  28.912  24.791  12.638
75877W        W41137  18.083  40.361  11.239
75878W        W41138  13.816  29.510   4.640
75879W        W41139  37.034  12.921   2.546
75880W        W41140  35.910   0.912   2.179
75881W        W41141  10.951  28.973   4.166
75882W        W41142  39.509  35.508  12.569
75883W        W41143  41.731  36.088   0.353
75884W        W41144  12.771   1.666   4.164
75885W        W41145  31.497  42.756  14.877
75886W        W41146  33.158  27.939   2.485
75887W        W41147  30.675  12.499  14.823
75888W        W41148  25.677  32.080   0.218
75889W        W41149  41.478  40.966  12.459
75890W        W41150  10.202  36.805   0.953
75891W        W41151  26.299  29.468  12.174
75892W        W41152  18.635  44.890   3.743
75893W        W41153  25.117   4.890   2.899
75894W        W41154  20.546   0.971  11.666
75895W        W41155  31.316  44.297   0.299
75896W        W41156   2.954  19.162  12.511
75897W        W41157   6.901  13.057   4.809
75898W        W41158  38.355  24.485   0.811
75899W        W41159   4.662   8.746   2.696
75900W        W41160  37.910  24.512  12.778
75901W        W41161  42.226  19.583  12.904
75902W        W41162  24.591   0.972  11.202
75903W        W41163   8.823  11.517   4.174
75904W        W41164   7.368  31.839   4.219
75905W        W41165   4.637   4.296  10.823
75906W        W41166  14.008  16.371   0.863
75907W        W41167  15.903  14.734  14.965
75908W        W41168   4.753  18.469  14.981
75909W        W41169  17.702   5.660   3.210
75910W        W41170  17.151  19.695  13.830
75911W        W41171  38.910  25.835   0.291
75912W        W41172   1.869  30.779  13.942
75913W        W41173  14.401  17.644  13.794
75914W        W41174  23.035  43.354   4.053
75915W        W41175  13.151  38.234  12.061
75916W        W41176  37.831  20.015  12.993
75917W        W41177  36.138  14.861   3.589
75918W        W41178  26.622   7.934   0.552
75919W        W41179  25.908  40.989   5.029
75920W        W41180  12.916  25.390  11.838
75921W        W41181  44.002  21.186  14.398
75922W        W41182   8.806   4.133  11.100
75923W        W41183  18.740  27.242  13.466
75924W        W41184  38.513   8.332   1.847
75925W        W41185   3.003  31.332  14.448
75926W        W41186  13.697  41.218   1.291
75927W        W41187  24.882  18.496  11.264
75928W        W41188  30.657  30.441  14.415
75929W        W41189  13.153  32.450   0.375
75930W        W41190  39.784   4.165  10.741
75931W        W41191  23.208  17.500   5.504
75932W        W41192  19.605   7.316  14.448
75933W        W41193  19.457   8.163  14.573
75934W        W41194   4.594  29.350   2.812
75935W        W41195  23.463  32.344  12.003
75936W        W41196  30.693  17.713   0.484
75937W        W41197  40.248  11.684  13.985
75938W        W41198  34.913  42.368  12.566
75939W        W41199  12.680   3.389   2.724
75940W        W41200  26.297  11.315  13.446
75941W        W41201  34.096  25.674   2.651
75942W        W41202  29.105   9.424   2.305
75943W        W41203   7.495  36.402  11.660
75944W        W41204   2.571   2.699  12.357
75945W        W41205  12.763  30.781   3.236
75946W        W41206  25.596  10.392   1.187
75947W        W41207   6.436  41.486   0.630
75948W        W41208  39.585  38.935   4.962
75949W        W41209  11.769  31.610  14.562
75950W        W41210  20.770  32.634  12.386
75951W        W41211  21.258  25.855  14.969
75952W        W41212  29.043  12.460   3.625
75953W        W41213   4.844  10.636  11.265
75954W        W41214  11.212  18.646   0.236
75955W        W41215   6.215   6.270   1.167
75956W        W41216  23.142  21.474   2.914
75957W        W41217  41.959  22.696   2.686
75958W        W41218   7.125   2.585  11.274
75959W        W41219   1.758  38.382  13.409
75960W        W41220  22.682  32.657  10.915
75961W        W41221  41.997   0.380   4.347
75962W        W41222   2.423  28.623  11.761
75963W        W41223  15.903  34.358   2.149
75964W        W41224  38.915  22.946   0.582
75965W        W41225  38.879  41.104   2.580
75966W        W41226  31.231  10.987  13.850
75967W        W41227  34.496  11.305  10.685
75968W        W41228   3.122   3.045   1.775
75969W        W41229  30.682  31.509  11.665
75970W        W41230   8.424  15.227   2.788
75971W        W41231  18.298  35.318  10.497
75972W        W41232  39.076  32.780  10.505
75973W        W41233   4.644  14.595  11.618
75974W        W41234   0.298  31.519  14.419
75975W        W41235   6.819   5.994  14.348
75976W        W41236  36.925  22.191  13.745
75977W        W41237  29.383  13.780  14.234
75978W        W41238   8.492  11.873  13.921
75979W        W41239  32.878   5.446   1.816
75980W        W41240  28.429   8.533   3.638
75981W        W41241  18.163  29.041   0.803
75982W        W41242  21.242  15.152  14.866
75983W        W41243  39.052   8.840   2.335
75984W        W41244  27.658  12.359  11.479
75985W        W41245  39.051   3.491  13.879
75986W        W41246  20.433  19.512  13.344
75987W        W41247  13.526  24.884   0.288
75988W        W41248  19.131   1.955   3.250
75989W        W41249   1.740  23.786  11.527
75990W        W41250   7.672  26.471   0.501
75991W        W41251  36.507   7.495   2.722
75992W        W41252   4.647  43.945   4.623
75993W        W41253  12.916  37.009  12.402
75994W        W41254  14.821  44.824  11.947
75995W        W41255   1.571  40.940  14.910
75996W        W41256  30.134   8.574   3.193
75997W        W41257  19.154  35.800  14.012
75998W        W41258  33.360  44.243  12.878
75999W        W41259   2.191  17.173  13.011
76000W        W41260   9.785  17.266   4.329
76001W        W41261  14.648  29.568   4.338
76002W        W41262  23.324   6.220  13.272
76003W        W41263  23.757  43.331   3.378
76004W        W41264  40.880  41.234  10.732
76005W        W41265   0.863  34.876   0.424
76006W        W41266  29.611   8.684   4.684
76007W        W41267  35.786  44.196   2.721
76008W        W41268  29.838   7.721  13.438
76009W        W41269   0.745  18.572   3.831
76010W        W41270   0.991  17.179   2.628
76011W        W41271  13.622  14.115   4.050
76012W        W41272   1.473  13.337   4.136
76013W        W41273  43.033  33.048   1.050
76014W        W41274   8.811  41.903   2.873
76015W        W41275  36.880  13.732   0.815
76016W        W41276  36.439  40.451   4.129
76017W        W41277  14.784  33.134  12.031
76018W        W41278   4.389   2.051  10.762
76019W        W41279  22.046  13.858  12.039
76020W        W41280  14.771  33.241   4.218
76021W        W41281  24.260  30.183   1.302
76022W        W41282   2.311  24.453  13.534
76023W        W41283  20.195  38.098   1.883
76024W        W41284  17.212   9.556   0.361
76025W        W41285   3.836  31.275  13.133
76026W        W41286  31.527   0.908   2.174
76027W        W41287  39.729  34.173  11.909
76028W        W41288   0.528  40.183  11.179
76029W        W41289  20.980  39.987   0.393
76030W        W41290  16.164  27.605   1.818
76031W        W41291   8.135   8.675   3.340
76032W        W41292   9.174  16.486   1.909
76033W        W41293  10.586  19.211  11.933
76034W        W41294  10.884  26.117   1.696
76035W        W41295  22.379  31.317   0.219
76036W        W41296  36.959   9.335   1.224
76037W        W41297  28.698  25.896  13.882
76038W        W41298   7.936  44.658  14.997
76039W        W41299  29.201  16.721   0.379
76040W        W41300  20.793  10.797  13.091
76041W        W41301  23.964  11.705  14.755
76042W        W41302   2.696  43.502  12.395
76043W        W41303  31.033   3.356  13.940
76044W        W41304  36.342   5.357   0.892
76045W        W41305  30.927  22.764  13.139
76046W        W41306   6.599   6.202  14.932
76047W        W41307  29.485  42.078   1.001
76048W        W41308  24.024  19.575   3.159
76049W        W41309  25.463   8.752   4.894
76050W        W41310  34.354  23.298  13.459
76051W        W41311  35.871  14.154   0.384
76052W        W41312  20.065  11.877  10.227
76053W        W41313  10.303   4.264  13.795
76054W        W41314  23.031  27.040   3.450
76055W        W41315  21.242  18.275   2.364
76056W        W41316  32.246   0.223  14.998
76057W        W41317   3.949  21.651  12.015
76058W        W41318  11.306  36.210   1.228
76059W        W41319  14.570  33.626   3.372
76060W        W41320  20.037  20.714   3.715
76061W        W41321  28.669  40.472  11.191
76062W        W41322  41.259  17.115  12.936
76063W        W41323  21.096  15.770  12.683
76064W        W41324  22.709  27.887  11.993
76065W        W41325  33.899  38.563   1.920
76066W        W41326  22.214  40.915  11.482
76067W        W41327  31.436  20.595   3.815
76068W        W41328   5.309  19.177   4.238
76069W        W41329   3.337   2.197   4.052
76070W        W41330  35.302  13.900  14.072
76071W        W41331  17.974  26.177   2.916
76072W        W41332  10.118  19.748  11.901
76073W        W41333  43.025  44.408   0.777
76074W        W41334   1.697  38.637  12.950
76075W        W41335  34.042   5.854  14.417
76076W        W41336  19.999  23.074   2.780
76077W        W41337  44.507  29.394   1.813
76078W        W41338  17.515  10.706   2.282
76079W        W41339   3.664  37.969   4.813
76080W        W41340  23.369   5.228   3.631
76081W        W41341  34.557  25.413   3.660
76082W        W41342  16.110   7.025  14.609
76083W        W41343  21.495   8.491   4.573
76084W        W41344  13.808  21.535  11.425
76085W        W41345   3.789  21.986   3.536
76086W        W41346  24.666  22.200  11.603
76087W        W41347  20.211  17.207  11.939
76088W        W41348   8.299   1.947   3.647
76089W        W41349  37.492  16.064   3.237
76090W        W41350   6.888  39.334  11.957
76091W        W41351  39.287  22.801   1.602
76092W        W41352   8.322  35.935  12.293
76093W        W41353  19.138  24.259  12.995
76094W        W41354   2.228  12.774   2.861
76095W        W41355  15.907  10.615  14.129
76096W        W41356  22.691  28.418   1.737
76097W        W41357  25.723   9.589   1.341
76098W        W41358  32.693  19.198   0.812
76099W        W41359  10.523  27.591   1.009
76100W        W41360  34.456  32.936  14.790
76101W        W41361   4.828  36.916  13.116
76102W        W41362  36.024  10.400   4.527
76103W        W41363  44.215  35.991  11.911
76104W        W41364  41.439  14.752   4.908
76105W        W41365  19.033  20.312   3.085
76106W        W41366   2.418  38.381   1.004
76107W        W41367  12.400   8.390   1.325
76108W        W41368  11.192  43.526   4.068
76109W        W41369   5.785  40.102   1.744
76110W        W41370   6.120  22.673  12.177
76111W        W41371  22.126   2.696   4.944
76112W        W41372   4.390  41.334   3.718
76113W        W41373   7.794  26.246  14.991
76114W        W41374  33.236  40.832  12.271
76115W        W41375   2.987  11.171   4.050
76116W        W41376   1.394   9.601  11.109
76117W        W41377  12.161  29.529   2.820
76118W        W41378  34.529  40.292   3.637
76119W        W41379  42.222  17.753   0.861
76120W        W41380  28.018  33.353  12.532
76121W        W41381  33.331  18.614  12.943
76122W        W41382  30.683  13.418  12.059
76123W        W41383  41.533  13.289   3.723
76124W        W41384  28.135  24.218  12.531
76125W        W41385  29.250  41.783   4.812
76126W        W41386  13.686  16.368  11.260
76127W        W41387  22.555  38.964   4.533
76128W        W41388  39.520  19.006  13.031
76129W        W41389   6.280  32.975   4.223
76130W        W41390  10.286   9.753   4.005
76131W        W41391   6.400  27.570   3.731
76132W        W41392  39.966  12.408  13.022
76133W        W41393  10.282   9.623   2.069
76134W        W41394  34.975  23.599   2.673
76135W        W41395  19.552  14.793   0.171
76136W        W41396   1.674  14.916   3.589
76137W        W41397  16.332  15.113   4.139
76138W        W41398  39.765  22.622   2.916
76139W        W41399   8.679  36.884  14.486
76140W        W41400  41.423  29.350   3.701
76141W        W41401  15.087  40.276  13.573
76142W        W41402  29.484  15.277  10.498
76143W        W41403   2.740  25.952   2.640
76144W        W41404  33.206  10.766   0.353
76145W        W41405  38.115  39.275   0.627
76146W        W41406  39.337  12.760   0.915
76147W        W41407  15.195   9.577   4.193
76148W        W41408  36.806  10.147   4.162
76149W        W41409  14.577   1.043  11.031
76150W        W41410  12.035  39.242  14.036
76151W        W41411  26.476  26.121  13.766
76152W        W41412  12.164   4.730   3.586
76153W        W41413   1.616  43.476   3.216
76154W        W41414  14.599  22.462  14.749
76155W        W41415  19.126  37.746  11.423
76156W        W41416  23.213   6.349   1.859
76157W        W41417  31.821  35.972   4.952
76158W        W41418   4.353  14.146   3.278
76159W        W41419  32.023  31.991   0.919
76160W        W41420   4.835   7.368  13.443
76161W        W41421  23.291  33.074  14.810
76162W        W41422  23.113  18.842  13.394
76163W        W41423  29.976  15.405  10.667
76164W        W41424  44.075  32.802  12.018
76165W        W41425  13.525   8.136  13.591
76166W        W41426  19.274  39.890   2.868
76167W        W41427  20.447  38.179   4.072
76168W        W41428   2.970  39.342  13.041
76169W        W41429  11.099  37.966   3.623
76170W        W41430  14.758  22.199   0.462
76171W        W41431  13.119  15.877  14.930
76172W        W41432  33.042  42.800  11.137
76173W        W41433  10.811  23.434  14.998
76174W        W41434  23.069  39.278   3.160
76175W        W41435  27.035  24.701  12.910
76176W        W41436   2.536  22.737  11.042
76177W        W41437  26.634  16.143   2.357
76178W        W41438  38.839  25.434  10.611
76179W        W41439  17.026   3.114  12.602
76180W        W41440  28.335  37.859   3.532
76181W        W41441  38.803  19.282   1.749
76182W        W41442  29.085  35.192   3.485
76183W        W41443  22.074  29.112  13.507
76184W        W41444  17.602  17.984  11.101
76185W        W41445  27.952   9.319  14.796
76186W        W41446  44.204  40.019  10.862
76187W        W41447  30.837  31.451  10.806
76188W        W41448  39.536  38.873   3.266
76189W        W41449  37.987  17.770   1.804
76190W        W41450  41.811  27.874  10.316
76191W        W41451   9.584  10.634   0.391
76192W        W41452  31.973  44.674   0.903
76193W        W41453  31.934  22.345  13.852
76194W        W41454  39.472  22.187   0.622
76195W        W41455  41.371  10.665  14.390
76196W        W41456  29.055  13.410   2.182
76197W        W41457   4.205   0.678   1.345
76198W        W41458   1.983  37.636  14.344
76199W        W41459  11.282   3.004   1.881
76200W        W41460   2.327  32.920  13.841
76201W        W41461  25.072  15.100  13.903
76202W        W41462  38.021  40.118  14.369
76203W        W41463   9.170  17.515  14.902
76204W        W41464  39.227   2.300   2.672
76205W        W41465   8.841  24.904  12.799
76206W        W41466  17.085   1.412  13.836
76207W        W41467  20.335   2.711  10.698
76208W        W41468  14.568  38.929  11.041
76209W        W41469   4.770  17.316   0.891
76210W        W41470  44.370  36.822  10.574
76211W        W41471  32.819  26.974  12.149
76212W        W41472  37.840  34.132  12.486
76213W        W41473  42.399  37.067   1.413
76214W        W41474  36.919  40.254  13.510
76215W        W41475  27.026   9.301  14.465
76216W        W41476  40.831  11.657   3.658
76217W        W41477  20.734   9.856   4.600
76218W        W41478  43.529  34.017  14.879
76219W        W41479  31.109  15.384   0.527
76220W        W41480  22.928  37.269   4.540
76221W        W41481  35.339   6.890   3.658
76222W        W41482  24.046   5.200  13.963
76223W        W41483  17.671  39.283  11.600
76224W        W41484  39.269  35.882   3.499
76225W        W41485  10.160  23.681  13.534
76226W        W41486  25.540  18.354   3.066
76227W        W41487  12.486  10.455  14.944
76228W        W41488  21.270  29.172  12.928
76229W        W41489   6.897  23.036   2.172
76230W        W41490  14.101  24.063  10.989
76231W        W41491  39.254  35.418  11.064
76232W        W41492   1.131  22.044   4.966
76233W        W41493  10.004  32.097   0.279
76234W        W41494  37.800  17.262  11.736
76235W        W41495   3.451  17.715  12.829
76236W        W41496  16.355   9.923   5.048
76237W        W41497  16.496  43.145   5.142
76238W        W41498  22.418   1.746   1.862
76239W        W41499   6.341   0.199   3.584
76240W        W41500  42.828  26.936  12.480
76241W        W41501  12.375   7.102  13.660
76242W        W41502   2.960  30.471  14.946
76243W        W41503  44.992  43.971   0.342
76244W        W41504   0.833  32.617  12.041
76245W        W41505   6.435  11.638  11.199
76246W        W41506  17.745   4.711  12.191
76247W        W41507  27.124  24.233  13.237
76248W        W41508  36.363  33.370   0.924
76249W        W41509  43.190  27.489   2.629
76250W        W41510  31.418  26.642   2.278
76251W        W41511  32.177  35.906   4.456
76252W        W41512  32.309   2.780   3.375
76253W        W41513   5.017  30.807   2.346
76254W        W41514  30.100  28.410   4.091
76255W        W41515  40.391  39.957   4.296
76256W        W41516   8.767  12.745  11.306
76257W        W41517   8.855   0.032   1.727
76258W        W41518  37.038  38.573   4.382
76259W        W41519  31.412  19.451   0.734
76260W        W41520  42.908  41.809  12.333
76261W        W41521  27.183  43.793  14.451
76262W        W41522  10.699  28.090   0.345
76263W        W41523  16.206  42.788   3.389
76264W        W41524   2.999  26.728   1.236
76265W        W41525  23.417  16.331  14.563
76266W        W41526  21.974  14.761  13.008
76267W        W41527  43.392  31.574   4.355
76268W        W41528  29.998  12.838   0.342
76269W        W41529  11.005  43.942  13.088
76270W        W41530  21.549  10.496  11.959
76271W        W41531  33.931  40.019   1.816
76272W        W41532   3.120  43.351   4.161
76273W        W41533  43.428  10.878   1.167
76274W        W41534  33.772  38.671   4.591
76275W        W41535  36.855  42.673   1.257
76276W        W41536  11.203  25.664   2.341
76277W        W41537  11.998  17.528   3.255
76278W        W41538   2.919   4.451  13.339
76279W        W41539  10.672   2.878   4.467
76280W        W41540  29.143   8.410   3.160
76281W        W41541  28.425  36.763   0.739
76282W        W41542  44.449  21.764  11.713
76283W        W41543  23.275  31.194   3.481
76284W        W41544  40.699  37.881  11.277
76285W        W41545  33.543  34.343  11.720
76286W        W41546   0.304   7.958  12.305
76287W        W41547  14.697  37.192   3.232
76288W        W41548  30.407  27.455   1.399
76289W        W41549  32.522  23.702  12.315
76290W        W41550  41.450  15.310  12.088
76291W        W41551  10.314  28.527  14.966
76292W        W41552  27.021  22.629  13.370
76293W        W41553   2.573  36.348   0.995
76294W        W41554  36.304  13.695  13.881
76295W        W41555   0.349  40.454   1.308
76296W        W41556  15.106   0.033   4.173
76297W        W41557  28.574  38.596  14.612
76298W        W41558  36.276  41.983   4.137
76299W        W41559  10.325  22.156  14.953
76300W        W41560  34.816  18.690  14.338
76301W        W41561  12.339  20.974   1.910
76302W        W41562  12.975   2.989   4.205
76303W        W41563  41.735   5.352   2.242
76304W        W41564  40.440   8.672   2.855
76305W        W41565  20.782  23.029   2.330
76306W        W41566   3.636  32.035   3.268
76307W        W41567  12.346  21.361  10.486
76308W        W41568  13.560  35.959  10.968
76309W        W41569  43.803   1.323   2.952
76310W        W41570  41.334  44.710   4.488
76311W        W41571  29.766  38.481   2.604
76312W        W41572  41.285   0.811   2.813
76313W        W41573  26.989  44.637   4.725
76314W        W41574  28.169  27.703  11.500
76315W        W41575  34.065  19.238   3.310
76316W        W41576  24.435  19.238  13.470
76317W        W41577  35.390  16.739  12.027
76318W        W41578  21.583  24.737  11.555
76319W        W41579  41.857  34.988   4.652
76320W        W41580  39.873  15.053  14.575
76321W        W41581  36.281  36.039  13.958
76322W        W41582  17.118  27.693   2.960
76323W        W41583   9.145  15.678  13.791
76324W        W41584  21.998  16.699   4.744
76325W        W41585   6.690   2.368   0.200
76326W        W41586  42.991   5.256   3.234
76327W        W41587  19.222  36.433  13.792
76328W        W41588  17.063   3.119  10.371
76329W        W41589  25.942  38.963  14.606
76330W        W41590  34.897  32.809  10.755
76331W        W41591  14.318  12.750   3.772
76332W        W41592  25.638  19.750   2.931
76333W        W41593   2.185  38.863  13.803
76334W        W41594  41.636  23.733  11.446
76335W        W41595  34.460  25.150  12.690
76336W        W41596  10.369   6.161  14.565
76337W        W41597  24.023  32.133   1.431
76338W        W41598  18.350   5.993   2.406
76339W        W41599  37.667  27.064  11.041
76340W        W41600  33.572   9.348  14.245
76341W        W41601  19.135  36.211   2.743
76342W        W41602   3.757  15.230  11.418
76343W        W41603  27.410  41.963  11.510
76344W        W41604  15.645  11.165   1.542
76345W        W41605   0.870  25.925   3.048
76346W        W41606  18.271  10.257   2.179
76347W        W41607  35.593   5.381  12.443
76348W        W41608  35.886  41.321  14.357
76349W        W41609  34.311   7.008   4.043
76350W        W41610  19.078  17.671  13.932
76351W        W41611  44.916  40.976   3.024
76352W        W41612  18.824  40.595   2.734
76353W        W41613  23.286  43.491   1.895
76354W        W41614  23.617  33.929   2.793
76355W        W41615   2.426  22.868   5.497
76356W        W41616  22.963  27.575  12.334
76357W        W41617  33.900  13.971  12.911
76358W        W41618  19.072  43.293  14.003
76359W        W41619  38.901  36.170  13.499
76360W        W41620  26.045   0.173   1.417
76361W        W41621  41.172   8.114   1.980
76362W        W41622  34.044   9.949   3.615
76363W        W41623  31.828  41.789   3.556
76364W        W41624  35.682  30.866   4.119
76365W        W41625  29.596  29.904  11.930
76366W        W41626  20.618   1.905   2.464
76367W        W41627   5.730  41.540  11.174
76368W        W41628  31.439  36.540  12.985
76369W        W41629   5.269   1.584   0.454
76370W        W41630  16.101  33.224  14.157
76371W        W41631   3.514  30.951   3.228
76372W        W41632  15.178  40.322   1.790
76373W        W41633  10.419  35.053   2.825
76374W        W41634  26.639  42.824  12.929
76375W        W41635  12.572  13.775  11.165
76376W        W41636  41.694  32.416   1.327
76377W        W41637   4.820  25.127  11.549
76378W        W41638  30.189  21.551   0.920
76379W        W41639  13.714  26.676   4.111
76380W        W41640  37.167  30.061  12.935
76381W        W41641  33.456   3.248   2.219
76382W        W41642  44.603  37.399   0.235
76383W        W41643  35.529   5.146   4.192
76384W        W41644  16.219  36.300   1.261
76385W        W41645  34.676  25.917  14.355
76386W        W41646  12.315  24.110  11.226
76387W        W41647   3.780   8.053   3.850
76388W        W41648  17.850  38.340   1.271
76389W        W41649  29.082   8.697  11.605
76390W        W41650   1.525  42.073  11.905
76391W        W41651  37.291  14.998  11.487
76392W        W41652  28.977  38.137  10.602
76393W        W41653   8.672  26.033  14.182
76394W        W41654  10.360  41.089   4.703
76395W        W41655  25.774  40.972   1.377
76396W        W41656  41.406   0.995   4.685
76397W        W41657  11.682  24.101   0.687
76398W        W41658  32.492   8.876  14.920
76399W        W41659  34.756  19.763   2.640
76400W        W41660  25.406   5.497   2.098
76401W        W41661  34.347  44.308  14.492
76402W        W41662  44.278  28.713   1.296
76403W        W41663  26.449  17.167   3.688
76404W        W41664   1.894   8.573   1.343
76405W        W41665  24.826   7.346   0.065
76406W        W41666  39.319   9.677   2.699
76407W        W41667   0.987  37.883  11.774
76408W        W41668   7.267   1.285  10.849
76409W        W41669   1.307   8.631   2.176
76410W        W41670  15.140   8.784   4.700
76411W        W41671  25.244  19.720   3.255
76412W        W41672  17.545  21.825  12.098
76413W        W41673  33.818  29.081   3.756
76414W        W41674  20.686   7.994  12.095
76415W        W41675   9.751  23.029   4.633
76416W        W41676   2.997   0.911  11.276
76417W        W41677  24.765  13.122   0.834
76418W        W41678   9.412  39.401  11.037
76419W        W41679  17.174  30.402   4.036
76420W        W41680   2.642  28.211   1.419
76421W        W41681  44.289   5.619  13.078
76422W        W41682  43.296  30.016   2.711
76423W        W41683  30.901   4.326   4.684
76424W        W41684  41.018   4.756  11.081
76425W        W41685  43.618  28.152  14.446
76426W        W41686  24.921  19.505  13.029
76427W        W41687  21.784  32.531  12.314
76428W        W41688  41.000   3.031  13.030
76429W        W41689  33.851  12.251   1.218
76430W        W41690  42.878  40.506   1.485
76431W        W41691  31.168  16.581  12.835
76432W        W41692   7.436  42.518   2.068
76433W        W41693  37.796  17.531  11.279
76434W        W41694  39.927   1.309  14.240
76435W        W41695  35.969   8.798   3.331
76436W        W41696  40.050  43.447   0.470
76437W        W41697   7.716   5.290   4.774
76438W        W41698   2.009  18.349   4.500
76439W        W41699  33.104  31.827   0.506
76440W        W41700  10.810  36.496  12.350
76441W        W41701  36.974  43.359   2.252
76442W        W41702  38.050  34.384   0.760
76443W        W41703  29.938  27.946   3.188
76444W        W41704  27.096  14.236  11.099
76445W        W41705   5.078  15.525  14.354
76446W        W41706  32.329  28.392   1.762
76447W        W41707  29.464  15.266   4.649
76448W        W41708  15.644  11.573  10.130
76449W        W41709  10.703   5.659   2.690
76450W        W41710  20.774   8.426  13.252
76451W        W41711   1.866  21.480  13.938
76452W        W41712  17.979   5.974   0.920
76453W        W41713  18.197  32.048  14.864
76454W        W41714  11.281   5.307   4.605
76455W        W41715  36.166   8.251  12.733
76456W        W41716  32.675   6.216  13.557
76457W        W41717  25.571  33.799  12.467
76458W        W41718  38.622  15.109  12.352
76459W        W41719  41.743  27.648  10.765
76460W        W41720  28.466  30.371   4.970
76461W        W41721  10.712  38.033   0.721
76462W        W41722   0.226   8.302  10.505
76463W        W41723   8.994  22.696   0.032
76464W        W41724  30.109  12.873  14.503
76465W        W41725  23.544  13.158   3.988
76466W        W41726   5.168   7.186   1.747
76467W        W41727  43.355   5.327  12.262
76468W        W41728   8.199  39.262   0.935
76469W        W41729  26.617  12.685   3.839
76470W        W41730  32.108  24.243  11.173
76471W        W41731   9.287  25.592  13.139
76472W        W41732  41.181   8.240   0.964
76473W        W41733  21.227  33.011  14.895
76474W        W41734  20.565  19.518   4.672
76475W        W41735  32.192   7.831   3.744
76476W        W41736  10.615   3.018  14.318
76477W        W41737  27.492  10.687  12.436
76478W        W41738  15.370  35.983   4.717
76479W        W41739  43.022   7.440   3.706
76480W        W41740  27.028  11.601  14.949
76481W        W41741  44.964  33.459   0.727
76482W        W41742  32.945  28.170   3.303
76483W        W41743  41.120  25.577   4.568
76484W        W41744   2.278  15.367   1.722
76485W        W41745   3.934   9.220   1.850
76486W        W41746  42.896  20.120   3.030
76487W        W41747  23.207   5.007  14.294
76488W        W41748  34.525  13.397  11.723
76489W        W41749  10.580  19.798   4.507
76490W        W41750  34.634  33.324   2.314
76491W        W41751  13.849   2.239  11.572
76492W        W41752  19.176  25.310  11.859
76493W        W41753  33.563   2.708  14.449
76494W        W41754   1.339   4.319   0.479
76495W        W41755  18.752   6.089   1.685
76496W        W41756  36.608   0.215  11.682
76497W        W41757  29.547   1.047   4.161
76498W        W41758  20.884  25.668   2.675
76499W        W41759   6.676  37.699  12.129
76500W        W41760  31.947  35.645  11.662
76501W        W41761   7.405   9.759  14.320
76502W        W41762  35.058  34.021   2.900
76503W        W41763  16.550   5.389   3.720
76504W        W41764  27.316  30.777  13.477
76505W        W41765  35.499  38.144   1.712
76506W        W41766  37.890  12.431   2.074
76507W        W41767  11.605  23.515   4.238
76508W        W41768  30.052  30.141  11.700
76509W        W41769  24.565  33.941   4.283
76510W        W41770   8.569   8.206   2.154
76511W        W41771   1.332  43.012  12.377
76512W        W41772  43.646   2.822   3.324
76513W        W41773  40.917  13.575   3.244
76514W        W41774  23.591  19.186   1.674
76515W        W41775  38.613  26.776   1.992
76516W        W41776  27.387  28.446   0.885
76517W        W41777  35.560  39.565   0.750
76518W        W41778   1.718  22.687   3.545
76519W        W41779  33.684  21.971  12.051
76520W        W41780  25.667   1.430  11.407
76521W        W41781  29.013   7.132   0.824
76522W        W41782  17.520  17.019  13.418
76523W        W41783   4.993  27.645  11.174
76524W        W41784  34.753   6.746  12.634
76525W        W41785  44.845   2.633   3.643
76526W        W41786  13.401   7.984   2.204
76527W        W41787   3.191  31.278  10.547
76528W        W41788  37.670  22.737  12.922
76529W        W41789   7.002   7.137   3.922
76530W        W41790   7.486  40.954   4.151
76531W        W41791  35.423  15.336   3.221
76532W        W41792  21.112  29.042  10.584
76533W        W41793  32.531  36.649   1.202
76534W        W41794  39.047  16.809   0.273
76535W        W41795  17.082  14.262  13.780
76536W        W41796   9.478  11.962  12.052
76537W        W41797  42.378  37.131   2.407
76538W        W41798   2.894  43.836   0.275
76539W        W41799   3.115  31.937  11.862
76540W        W41800   5.346  16.285   3.742
76541W        W41801  43.151  33.407   4.131
76542W        W41802  16.330  35.182   2.296
76543W        W41803  13.783  31.636   1.796
76544W        W41804  26.778   2.998   1.307
76545W        W41805  36.888  23.110  12.064
76546W        W41806  36.294  20.717  11.591
76547W        W41807  24.913  32.815   4.646
76548W        W41808  37.554  19.726  13.914
76549W        W41809   1.973   4.240  12.507
76550W        W41810  38.824   5.866  10.660
76551W        W41811  26.928   8.680   1.186
76552W        W41812  18.022  30.609   2.085
76553W        W41813   2.784  13.627   2.267
76554W        W41814  27.614  15.735   1.658
76555W        W41815  17.221  37.315  13.495
76556W        W41816  33.319  32.412   4.133
76557W        W41817  41.776  21.588  11.069
76558W        W41818  10.140  30.158  13.020
76559W        W41819  24.758  16.656  12.373
76560W        W41820   6.940  41.865   3.641
76561W        W41821  31.523  39.597   0.944
76562W        W41822  28.153  34.900   4.203
76563W        W41823   3.801   7.396   3.067
76564W        W41824  15.787  20.226   0.914
76565W        W41825  21.491   6.444  14.435
76566W        W41826  32.601  25.196   3.234
76567W        W41827  36.170   8.338  12.227
76568W        W41828  25.552  24.721   0.818
76569W        W41829  36.885  41.952   4.837
76570W        W41830  41.462  16.839  14.769
76571W        W41831  37.851   7.428   4.146
76572W        W41832  11.769  37.091   2.684
76573W        W41833  20.724  36.588   3.678
76574W        W41834  29.463  21.253   2.232
76575W        W41835  25.355   0.593   2.693
76576W        W41836  43.360   5.885   0.292
76577W        W41837  19.120   7.667  11.160
76578W        W41838  11.733  27.742  14.548
76579W        W41839   4.204  34.683  12.705
76580W        W41840  40.571  32.400  12.971
76581W        W41841   3.742   5.865  11.593
76582W        W41842  44.459  41.501  10.202
76583W        W41843  15.257  14.367  14.416
76584W        W41844  11.679   5.168   3.289
76585W        W41845   9.817   7.990  13.640
76586W        W41846  18.036  32.312  10.545
76587W        W41847  13.915  16.804   1.150
76588W        W41848  44.425   7.282   0.950
76589W        W41849  27.352  22.239   0.579
76590W        W41850  14.784  19.772   1.841
76591W        W41851  41.170   0.500  14.908
76592W        W41852  23.610  13.025  13.804
76593W        W41853  21.468  25.520   1.868
76594W        W41854  44.372  33.438   5.101
76595W        W41855  23.632  29.717  10.709
76596W        W41856  26.582  30.951  13.133
76597W        W41857  35.008  28.072   3.684
76598W        W41858  39.753  44.762  13.954
76599W        W41859  30.747  40.994  12.910
76600W        W41860   1.216   4.214   2.307
76601W        W41861  15.500  25.202   2.196
76602W        W41862   6.374   0.326  11.934
76603W        W41863  14.318  24.574  13.308
76604W        W41864   9.233  43.243   1.700
76605W        W41865  26.360  26.425   4.540
76606W        W41866  21.862   9.897   3.674
76607W        W41867  31.489  14.717   0.514
76608W        W41868  40.608   1.815  11.405
76609W        W41869  29.522   0.634  13.458
76610W        W41870  27.161  28.748   4.117
76611W        W41871  21.792  32.992   4.467
76612W        W41872  41.475   4.766   1.288
76613W        W41873  15.610  39.896  11.638
76614W        W41874  31.083  35.446   0.754
76615W        W41875  43.294  10.266   2.073
76616W        W41876  36.370  10.693   1.141
76617W        W41877  11.323  10.418   1.323
76618W        W41878  18.915  34.395   1.272
76619W        W41879  21.440   7.899  14.408
76620W        W41880   7.933  28.671   0.037
76621W        W41881  11.023  33.982  14.624
76622W        W41882  34.328  29.578  13.938
76623W        W41883  33.073  42.357  12.059
76624W        W41884  14.104  29.088   2.359
76625W        W41885  40.556   5.209   4.576
76626W        W41886  41.269  22.233  13.835
76627W        W41887  20.598  22.999   1.395
76628W        W41888  31.295  32.074   4.255
76629W        W41889  15.497  12.586  12.691
76630W        W41890  22.510   8.642   1.357
76631W        W41891  13.693  29.631   1.793
76632W        W41892  28.372  18.612   3.499
76633W        W41893   2.023  16.872  13.981
76634W        W41894  32.049  25.473  12.196
76635W        W41895  40.776  21.663  14.860
76636W        W41896  13.913  34.562  11.545
76637W        W41897  44.415   1.221   1.842
76638W        W41898  25.136  13.147  11.968
76639W        W41899   6.452   8.125   3.239
76640W        W41900  14.167  21.472  12.133
76641W        W41901   5.015   2.882  12.386
76642W        W41902  15.093  24.511   3.655
76643W        W41903  27.618   8.054  13.104
76644W        W41904  43.816  24.264   1.817
76645W        W41905  37.065  18.541  14.822
76646W        W41906  20.532   7.806   0.712
76647W        W41907  38.538  30.444   4.164
76648W        W41908  30.530  35.820  10.700
76649W        W41909  17.573   8.932  10.876
76650W        W41910  19.942  31.727  11.888
76651W        W41911  39.032  37.357   3.846
76652W        W41912  32.276   3.291  10.417
76653W        W41913  39.302  12.778   3.614
76654W        W41914  14.043   6.349   0.268
76655W        W41915  41.261  14.328   2.268
76656W        W41916  12.368  15.108   0.090
76657W        W41917   7.317  12.614   1.311
76658W        W41918   1.950   6.593  12.016
76659W        W41919  16.703   4.941  10.841
76660W        W41920  18.043  32.788   2.289
76661W        W41921  14.634  19.582   2.733
76662W        W41922  20.130  14.176   4.489
76663W        W41923   3.190  10.768  10.432
76664W        W41924   5.956   7.621  12.165
76665W        W41925  21.510   2.736  14.035
76666W        W41926   1.093  44.928  11.049
76667W        W41927  13.647   2.257   2.957
76668W        W41928  15.438  36.023  12.619
76669W        W41929  28.960  13.117  10.557
76670W        W41930  28.074  21.498  14.790
76671W        W41931   8.903  19.321   1.792
76672W        W41932  11.154  12.852  12.736
76673W        W41933  28.418  15.159   4.496
76674W        W41934  31.470  15.138   4.363
76675W        W41935  16.469   1.145   1.846
76676W        W41936  21.563  17.619   1.367
76677W        W41937   7.411  22.137  12.058
76678W        W41938  16.594   0.425  11.582
76679W        W41939  27.844  40.945   3.680
76680W        W41940  31.042   3.714   3.118
76681W        W41941  11.686  17.625   0.794
76682W        W41942  16.284  38.015  11.157
76683W        W41943  17.018  13.659   0.387
76684W        W41944  30.855  24.681   0.799
76685W        W41945  10.138  18.551  13.743
76686W        W41946  12.650  43.404   0.926
76687W        W41947  41.484   4.999   0.402
76688W        W41948  14.514  29.640  14.740
76689W        W41949  13.337  43.264  12.066
76690W        W41950  17.851  12.634   3.186
76691W        W41951  19.982  24.673  14.895
76692W        W41952   5.292  14.282   0.418
76693W        W41953  36.219  10.493  12.503
76694W        W41954  27.040  21.654  10.650
76695W        W41955  43.338  11.837  13.380
76696W        W41956  26.263  36.551   1.328
76697W        W41957   1.170  28.542   3.682
76698W        W41958  42.884  18.785   2.107
76699W        W41959  39.185  31.483   3.211
76700W        W41960  22.810  43.601  13.575
76701W        W41961  21.577   5.438   0.297
76702W        W41962  11.710  27.038  10.250
76703W        W41963  20.242  38.775  14.913
76704W        W41964  27.680  29.368   1.780
76705W        W41965  32.830  29.666   2.788
76706W        W41966  27.513  14.693   3.268
76707W        W41967  13.637   4.237  10.680
76708W        W41968  21.608   7.383  14.357
76709W        W41969  41.304   1.674  12.663
76710W        W41970  37.394  30.632   4.914
76711W        W41971   3.941  11.177   2.805
76712W        W41972  27.002  11.358  12.061
76713W        W41973  35.875  11.886  10.784
76714W        W41974  20.989  44.384   0.211
76715W        W41975  16.620  34.124  14.448
76716W        W41976   8.179   5.394   4.584
76717W        W41977   3.749  29.900  12.076
76718W        W41978   0.625  11.459  13.451
76719W        W41979   5.768  10.879  13.542
76720W        W41980  41.530  33.963  10.982
76721W        W41981  42.850  41.340   4.324
76722W        W41982  33.475  34.689   4.063
76723W        W41983  42.939  22.371   0.386
76724W        W41984  18.522  32.562   2.348
76725W        W41985  44.276  16.513   3.285
76726W        W41986  39.995  38.071   4.192
76727W        W41987  17.963   4.172   2.418
76728W        W41988  16.236  41.865  11.397
76729W        W41989   9.206   0.217   4.337
76730W        W41990  32.528   1.238  14.256
76731W        W41991  18.396  31.036   2.803
76732W        W41992  24.498  21.776   0.877
76733W        W41993  32.191  21.194  11.994
76734W        W41994   9.609   6.204   4.549
76735W        W41995  33.940  26.001  12.251
76736W        W41996  36.591  41.884  14.207
76737W        W41997  23.722  12.021  13.901
76738W        W41998  17.141  21.767  14.840
76739W        W41999  15.347   0.533  14.050
76740W        W42000   2.715   4.954  10.762
76741W        W42001  16.263  26.778   3.327
76742W        W42002  10.752  34.582  10.655
76743W        W42003  44.264  22.613  12.672
76744W        W42004   9.252  38.305   3.101
76745W        W42005   6.679   3.697   4.993
76746W        W42006   8.763  36.989   0.003
76747W        W42007  34.447  19.070   0.549
76748W        W42008  31.822   1.757  13.787
76749W        W42009   5.840  41.710   4.132
76750W        W42010  19.475   5.714   0.815
76751W        W42011  13.117   8.700  13.652
76752W        W42012  34.410  41.581   1.371
76753W        W42013  38.450   4.921  13.942
76754W        W42014  26.383  10.367   3.674
76755W        W42015  13.715  15.172  11.734
76756W        W42016  17.867  21.613  12.508
76757W        W42017  40.021  22.982   2.640
76758W        W42018   7.792  18.062  13.406
76759W        W42019   0.236  19.327  14.485
76760W        W42020  40.761  27.498  14.565
76761W        W42021  32.385  30.008  12.534
76762W        W42022  23.131   8.661  11.381
76763W        W42023  14.970  14.341   1.222
76764W        W42024   7.410  40.060   0.281
76765W        W42025   5.712  25.903   4.160
76766W        W42026  44.569  40.992   1.117
76767W        W42027   9.175  24.904   4.515
76768W        W42028  17.132  29.972   2.331
76769W        W42029  21.107   5.829  13.904
76770W        W42030  16.022  43.140   2.293
76771W        W42031  27.840  20.462   0.938
76772W        W42032   3.758   5.489   2.277
76773W        W42033  39.474  37.506   1.233
76774W        W42034   8.709   3.688   2.480
76775W        W42035   3.631  15.638  10.785
76776W        W42036  43.076  26.011  12.049
76777W        W42037  13.769  10.325   3.217
76778W        W42038  17.425   3.819   0.863
76779W        W42039  33.550  30.510   2.265
76780W        W42040  43.612  43.409  13.429
76781W        W42041  31.999  17.577   1.934
76782W        W42042  36.920   7.766   5.199
76783W        W42043  36.022  41.936   2.747
76784W        W42044  24.983  18.087  13.442
76785W        W42045  25.237  37.794   3.683
76786W        W42046  21.257   6.405   0.853
76787W        W42047  41.542  40.984   4.395
76788W        W42048   6.860  17.843   0.873
76789W        W42049  33.525  16.144   0.994
76790W        W42050   6.153  11.386   1.314
76791W        W42051  31.380  23.677  12.358
76792W        W42052  22.437  30.688   3.179
76793W        W42053  17.358  15.596   3.660
76794W        W42054  20.610  27.690   0.749
76795W        W42055  30.022  43.874  14.826
76796W        W42056  10.345   9.399  14.546
76797W        W42057   3.971   4.309  14.746
76798W        W42058  42.676  10.328   1.204
76799W        W42059  13.810  12.370  12.502
76800W        W42060  31.955  15.628  12.995
76801W        W42061  27.083   5.320  14.437
76802W        W42062  15.877  15.750  14.539
76803W        W42063  12.203  19.184  13.859
76804W        W42064   4.332  35.009   4.180
76805W        W42065  18.071  22.236   2.719
76806W        W42066  29.901  44.286   2.831
76807W        W42067  41.750   3.877   2.505
76808W        W42068  28.070  15.560   1.473
76809W        W42069  30.527   0.941   5.018
76810W        W42070   3.220  40.507   2.798
76811W        W42071  20.165  19.795   1.271
76812W        W42072  25.162  26.499  10.095
76813W        W42073  25.452  26.530   4.149
76814W        W42074  44.409   9.359   2.600
76815W        W42075  39.974  18.798  10.808
76816W        W42076  23.055  40.172  10.334
76817W        W42077   4.362  42.336  10.778
76818W        W42078   1.202  18.441   0.130
76819W        W42079  43.835  26.055  13.568
76820W        W42080  27.374  43.973  11.961
76821W        W42081   9.866   2.893   2.729
76822W        W42082  14.601  30.975   2.711
76823W        W42083  31.052  41.236  10.806
76824W        W42084   9.870   4.875   4.119
76825W        W42085  19.511  16.497   4.519
76826W        W42086   3.573  41.143  11.101
76827W        W42087  13.739  30.933   4.590
76828W        W42088   0.836  13.841  14.277
76829W        W42089  25.652  12.678   0.245
76830W        W42090  29.185  38.940  10.853
76831W        W42091  35.805  13.841  13.976
76832W        W42092  23.272  44.445   3.640
76833W        W42093  20.713   6.488   3.268
76834W        W42094  39.513  29.803   0.428
76835W        W42095  42.934   3.871   4.484
76836W        W42096  15.213  28.544   2.334
76837W        W42097  37.494   4.963   2.474
76838W        W42098   4.678   4.696   5.094
76839W        W42099  26.696  33.103  10.304
76840W        W42100  41.502   3.257  13.940
76841W        W42101  25.594  23.220  14.667
76842W        W42102  38.926  27.495  13.664
76843W        W42103   5.446  44.793   3.246
76844W        W42104  27.247  30.549   3.578
76845W        W42105  32.459  39.842  11.763
76846W        W42106  15.086  12.962  13.947
76847W        W42107  16.680  32.547  12.658
76848W        W42108  34.040  29.919   3.603
76849W        W42109  20.318  15.716   2.254
76850W        W42110  16.298  11.778   3.223
76851W        W42111  31.807  12.869  13.469
76852W        W42112  35.072  22.677   2.730
76853W        W42113  41.369  19.893   3.705
76854W        W42114  23.966  41.538  13.771
76855W        W42115  20.611  37.303   4.181
76856W        W42116   5.771  19.072  11.326
76857W        W42117   8.668  28.413   2.347
76858W        W42118  24.286  15.545  10.249
76859W        W42119  27.644  28.906   0.815
76860W        W42120   6.834  10.190  12.097
76861W        W42121   2.745  11.123   0.328
76862W        W42122  17.237  33.898  10.912
76863W        W42123  17.789  33.195  14.540
76864W        W42124  20.063  36.600  14.434
76865W        W42125  41.901  15.724  13.631
76866W        W42126   9.664  24.516   1.390
76867W        W42127  35.687  25.870   4.234
76868W        W42128  39.050  25.757  11.874
76869W        W42129  29.088   6.935  12.931
76870W        W42130  35.862  17.567   1.254
76871W        W42131  29.192  18.842  10.425
76872W        W42132  39.740  34.410   1.996
76873W        W42133  14.236  34.934   1.084
76874W        W42134  40.741  30.129   3.647
76875W        W42135  27.241  17.677   3.635
76876W        W42136   2.710  23.951   2.122
76877W        W42137  34.588  11.265  13.001
76878W        W42138  16.692  29.300   4.955
76879W        W42139  10.714   2.743  13.899
76880W        W42140  14.090  12.345   4.963
76881W        W42141   7.739  29.175  11.172
76882W        W42142  44.443  24.521   0.964
76883W        W42143   8.100  26.996   3.119
76884W        W42144   1.329  33.375   4.339
76885W        W42145   7.189  27.311   3.276
76886W        W42146   4.264   3.306  12.609
76887W        W42147  28.663  42.526   3.215
76888W        W42148  14.965  24.186   0.244
76889W        W42149  24.961  26.377  11.095
76890W        W42150   4.008  14.763   2.687
76891W        W42151  29.513  28.599  11.240
76892W        W42152  15.960  37.457   5.123
76893W        W42153  11.956  14.066   3.195
76894W        W42154   8.298  36.816  11.532
76895W        W42155  17.704   4.628  13.606
76896W        W42156  38.843  40.861  12.829
76897W        W42157  14.989  32.839  12.426
76898W        W42158  14.541   4.911  14.411
76899W        W42159  18.467  31.988  10.540
76900W        W42160   7.481   3.302   2.732
76901W        W42161  26.609  13.568  10.789
76902W        W42162  25.528  27.558   2.463
76903W        W42163   1.039   0.902   0.749
76904W        W42164  24.521  38.994  10.871
76905W        W42165  34.574  21.523   0.432
76906W        W42166  16.380   2.326   0.443
76907W        W42167  22.139  29.540   4.534
76908W        W42168  42.043   4.747   9.946
76909W        W42169  36.455  38.875   4.730
76910W        W42170  35.990  28.254   3.715
76911W        W42171  19.114  43.503  12.481
76912W        W42172  10.142  33.079  11.916
76913W        W42173  31.176  29.899  13.953
76914W        W42174   4.510  21.772   4.419
76915W        W42175  25.217   6.705   2.395
76916W        W42176  11.366   8.101   0.049
76917W        W42177  34.372  11.351  14.940
76918W        W42178  19.337   2.896   0.184
76919W        W42179  17.069  15.121   3.683
76920W        W42180  42.258  33.885   0.735
76921W        W42181   4.368  21.203  13.341
76922W        W42182  37.794  21.948  12.870
76923W        W42183  25.001  14.378  13.429
76924W        W42184   1.954  30.451   0.713
76925W        W42185  24.149  39.407  14.179
76926W        W42186   4.645  20.257  12.742
76927W        W42187  21.313  14.723  13.907
76928W        W42188  13.548  12.208  11.366
76929W        W42189  38.830   9.646  12.141
76930W        W42190   9.662  15.534  12.213
76931W        W42191  37.398   5.824   0.959
76932W        W42192   3.192  38.278   4.734
76933W        W42193   9.889  37.350  12.043
76934W        W42194  29.875  34.147  13.664
76935W        W42195  16.741   7.857   1.260
76936W        W42196  40.528  10.519   2.919
76937W        W42197  32.476  24.038   9.931
76938W        W42198   0.135  32.973  11.091
76939W        W42199   1.911  26.670  12.932
76940W        W42200  39.534  23.568  10.791
76941W        W42201  43.793  44.330   3.271
76942W        W42202   9.815  42.456  11.697
76943W        W42203  28.411  24.137  13.018
76944W        W42204  20.242   7.851  10.677
76945W        W42205  25.396  20.742  12.189
76946W        W42206  13.823  20.057  13.700
76947W        W42207  37.823  25.861  11.467
76948W        W42208  23.958  21.805  14.328
76949W        W42209  18.989   4.840   2.393
76950W        W42210   9.293  11.760  13.451
76951W        W42211  11.790  44.453   2.638
76952W        W42212   2.073  38.988  11.503
76953W        W42213  37.121   4.187  14.367
76954W        W42214  38.903   1.729  14.606
76955W        W42215   2.962  36.820  11.913
76956W        W42216   3.431  21.781  12.056
76957W        W42217  32.134   3.750  12.142
76958W        W42218   6.744  14.810   3.429
76959W        W42219  24.999   4.415  13.465
76960W        W42220  21.883  15.207   3.173
76961W        W42221  17.373  44.418   0.872
76962W        W42222   8.214  11.384   4.172
76963W        W42223  33.925  35.479   4.045
76964W        W42224  15.553  17.083  11.895
76965W        W42225  44.872  18.285  14.940
76966W        W42226  19.516  34.403   4.091
76967W        W42227  29.760  41.775  13.964
76968W        W42228   8.393  11.773   2.984
76969W        W42229  41.842  29.191  14.957
76970W        W42230   6.446  16.747   1.675
76971W        W42231   7.921  19.254   4.716
76972W        W42232  32.508   0.395  10.498
76973W        W42233  11.428  14.287   0.434
76974W        W42234  11.822  41.024  13.285
76975W        W42235   7.159  16.773  11.585
76976W        W42236  12.337  38.551  12.483
76977W        W42237  36.359  30.099  12.470
76978W        W42238  40.790  16.508   2.338
76979W        W42239  40.756  19.050  12.113
76980W        W42240  14.455   2.475   3.790
76981W        W42241  16.209  32.809   3.230
76982W        W42242   1.836  31.632  12.919
76983W        W42243  11.160  34.995   4.332
76984W        W42244  12.134  35.888   2.820
76985W        W42245  26.426  33.004   0.540
76986W        W42246  41.149   6.286  12.478
76987W        W42247  20.090   6.529   1.731
76988W        W42248  17.350  30.626  10.665
76989W        W42249  31.498  36.830  10.560
76990W        W42250   8.230  11.423   3.594
76991W        W42251  28.275  21.087   2.825
76992W        W42252  42.238  35.680  11.703
76993W        W42253   5.604  37.646  13.510
76994W        W42254  29.447  40.929   3.187
76995W        W42255  15.743  42.041  12.536
76996W        W42256  33.899   4.613   2.489
76997W        W42257   1.151  21.557   2.296
76998W        W42258   6.697  15.178   0.844
76999W        W42259  20.077  17.275  10.878
77000W        W42260  36.379   6.851   4.741
77001W        W42261   0.621  35.104  13.303
77002W        W42262  42.089  41.640  11.683
77003W        W42263  44.174  13.470  10.397
77004W        W42264  42.737  10.965   3.657
77005W        W42265  24.953  38.471  12.370
77006W        W42266  26.573   4.948  10.627
77007W        W42267  33.487  42.938   4.726
77008W        W42268  20.084  10.875  11.947
77009W        W42269  16.804  15.307   4.078
77010W        W42270  39.416  28.493  14.254
77011W        W42271  36.173   0.429   1.384
77012W        W42272  27.298  13.860   1.868
77013W        W42273  22.552   5.823  12.027
77014W        W42274  30.953  38.231   0.811
77015W        W42275   1.464   4.298  11.874
77016W        W42276  27.648  25.139  10.684
77017W        W42277   0.452  43.870  12.679
77018W        W42278   9.638   3.849   1.479
77019W        W42279  44.962  38.492  14.920
77020W        W42280   7.663   8.719   2.383
77021W        W42281  11.761  32.450   2.229
77022W        W42282   6.489  12.433   2.002
77023W        W42283  37.482   5.403   2.727
77024W        W42284  14.400  19.435   1.203
77025W        W42285  29.337  18.842   3.527
77026W        W42286  15.956   3.761   1.373
77027W        W42287  28.531  10.204  12.930
77028W        W42288  33.408  14.419  12.091
77029W        W42289  43.768   7.376  13.013
77030W        W42290  27.544  42.334   1.653
77031W        W42291  22.687   4.158   0.458
77032W        W42292  26.496  22.138   2.435
77033W        W42293  41.039  35.854   4.045
77034W        W42294  43.402  32.109   0.056
77035W        W42295  20.907  14.223   0.229
77036W        W42296  38.798  22.981   4.573
77037W        W42297  33.404  31.963  14.522
77038W        W42298   5.342  27.916   9.971
77039W        W42299  11.176  41.290  13.211
77040W        W42300  21.163  33.850  13.110
77041W        W42301  22.079  29.689   0.259
77042W        W42302  39.587  11.286  14.506
77043W        W42303  18.237  16.952  11.520
77044W        W42304  27.708  16.180   0.809
77045W        W42305  16.772  43.533  10.631
77046W        W42306  44.920  35.465  11.203
77047W        W42307  41.928  42.240   0.107
77048W        W42308  23.738  35.375  13.096
77049W        W42309  29.516  10.093  12.792
77050W        W42310  32.676  38.568  12.536
77051W        W42311  12.854  15.348   1.694
77052W        W42312  15.585  32.000   3.207
77053W        W42313   9.121   4.908  13.803
77054W        W42314   0.833  33.081   0.373
77055W        W42315  22.217  19.083   2.942
77056W        W42316   4.507   2.303  11.657
77057W        W42317  13.903  33.532   2.169
77058W        W42318  41.349  19.598   2.395
77059W        W42319  44.875  12.701  10.345
77060W        W42320  20.712  34.030  12.557
77061W        W42321  38.986  28.403  11.100
77062W        W42322  21.042  44.338  14.702
77063W        W42323   6.016  14.752   3.806
77064W        W42324   5.141  33.369   0.745
77065W        W42325  43.852  22.432   2.740
77066W        W42326  29.800   4.306  13.817
77067W        W42327  36.495  22.578   4.845
77068W        W42328  39.798  13.160   3.612
77069W        W42329  41.530  29.956   3.879
77070W        W42330  42.461   7.523   1.369
77071W        W42331  14.592  21.760  12.010
77072W        W42332  18.294  10.777   4.076
77073W        W42333  33.503  36.948  11.638
77074W        W42334  22.116  41.723  10.991
77075W        W42335  21.260  40.878  12.503
77076W        W42336  12.837  16.361   2.168
77077W        W42337  27.525  20.787  12.575
77078W        W42338  34.405  26.199  12.359
77079W        W42339   7.849  35.886   4.730
77080W        W42340  25.791  28.601  12.492
77081W        W42341  41.948  16.543   1.387
77082W        W42342  32.455   7.630   1.977
77083W        W42343  19.209   8.666  13.051
77084W        W42344   0.702   6.217  12.100
77085W        W42345  25.626  12.084  11.250
77086W        W42346  15.078   9.033   2.416
77087W        W42347  44.114   7.789   2.142
77088W        W42348  44.660  43.294   3.670
77089W        W42349  19.181  40.131  11.135
77090W        W42350  34.018   2.439   3.148
77091W        W42351  15.618  33.872  13.998
77092W        W42352  39.019  43.357  11.645
77093W        W42353  17.026  42.966   1.941
77094W        W42354  30.404   2.759   3.315
77095W        W42355   8.256  19.314   1.277
77096W        W42356  16.056  29.717   3.673
77097W        W42357  36.998   1.263   2.589
77098W        W42358  29.672  42.811  13.449
77099W        W42359   6.015  24.719   3.077
77100W        W42360  21.016  12.890   3.048
77101W        W42361  10.513  26.004   1.354
77102W        W42362  25.659  12.946   1.327
77103W        W42363  30.231   5.947  14.002
77104W        W42364  23.664  22.250  14.270
77105W        W42365   7.991  38.635   2.794
77106W        W42366  29.715  35.996   0.360
77107W        W42367  37.359  25.064   3.850
77108W        W42368  18.326  40.847  11.218
77109W        W42369  18.432  32.653   1.200
77110W        W42370  42.351   5.885   2.408
77111W        W42371  15.821  30.427   1.199
77112W        W42372  11.601  41.565   2.426
77113W        W42373  23.745  41.849  11.828
77114W        W42374  34.858   5.743  11.507
77115W        W42375  34.371   7.027  13.388
77116W        W42376  26.559  32.423   2.727
77117W        W42377  29.811  31.036   4.707
77118W        W42378  31.984   4.202  14.001
77119W        W42379  23.041  10.137  11.146
77120W        W42380  27.480  34.892   4.131
77121W        W42381  38.906  38.550   1.360
77122W        W42382  27.942  32.118   0.651
77123W        W42383  12.274  32.553  14.370
77124W        W42384   1.951   4.167   4.190
77125W        W42385  42.505   5.995  13.330
77126W        W42386  10.767  21.837  13.077
77127W        W42387  31.173   7.119  10.870
77128W        W42388  34.637  37.324   0.359
77129W        W42389  14.733  44.701   1.336
77130W        W42390  12.162  29.306   3.801
77131W        W42391   4.071  24.496  11.134
77132W        W42392   7.427   8.169  11.072
77133W        W42393   7.187  10.843   1.913
77134W        W42394   2.297   3.727  11.981
77135W        W42395   1.057  10.394   3.979
77136W        W42396  32.004   8.718   3.062
77137W        W42397   5.967   2.690  12.491
77138W        W42398  15.515  25.994   2.730
77139W        W42399  33.857  10.133  11.563
77140W        W42400  34.078  41.449   3.318
77141W        W42401  39.431  36.839  14.192
77142W        W42402  10.240  14.053   1.340
77143W        W42403  24.283  44.322  14.996
77144W        W42404   9.176  34.962  12.019
77145W        W42405   8.766  32.048  10.698
77146W        W42406  15.663   4.316  12.074
77147W        W42407  27.814  11.612  10.682
77148W        W42408  35.030  12.494  10.254
77149W        W42409  28.739  39.544   3.282
77150W        W42410   1.963   7.449  11.574
77151W        W42411  40.945  18.527   3.630
77152W        W42412  19.348  28.474   0.376
77153W        W42413  16.109  41.083   3.607
77154W        W42414   7.202  40.907  14.332
77155W        W42415   7.771   6.214  12.101
77156W        W42416  42.224  37.245  12.124
77157W        W42417  20.958  20.265   1.269
77158W        W42418  43.475   2.498  14.919
77159W        W42419   4.526  31.957  12.328
77160W        W42420   6.488  35.318   0.021
77161W        W42421   4.879  35.800   0.894
77162W        W42422  13.259  32.537   4.121
77163W        W42423  32.909  27.559   2.240
77164W        W42424  13.250  31.676   3.020
77165W        W42425  36.114  34.694   0.789
77166W        W42426  26.579  13.114  14.522
77167W        W42427  25.023  10.639  12.237
77168W        W42428  43.960   8.181   4.385
77169W        W42429  24.154   7.990   2.221
77170W        W42430  20.056   0.399   4.532
77171W        W42431  28.952  42.167   1.362
77172W        W42432  29.998  21.987  12.529
77173W        W42433  14.067   5.546   1.889
77174W        W42434  34.912  17.580   0.254
77175W        W42435   5.551  22.570   4.746
77176W        W42436  36.140  12.364   1.719
77177W        W42437  30.669  11.700   0.803
77178W        W42438  29.724  33.468   4.593
77179W        W42439   3.715  42.281  12.505
77180W        W42440  14.062  24.957   4.358
77181W        W42441  19.593  30.987  12.141
77182W        W42442  36.038  10.095  13.809
77183W        W42443  13.622   3.843  13.101
77184W        W42444  42.193  18.123   3.161
77185W        W42445  23.758  23.686   4.176
77186W        W42446  12.121  22.901   1.262
77187W        W42447  23.320  11.773   0.932
77188W        W42448   1.226  17.354  12.835
77189W        W42449  30.041  37.492  13.835
77190W        W42450   2.785   9.603   0.022
77191W        W42451  26.704  33.647   3.875
77192W        W42452  43.736  31.739   2.189
77193W        W42453  11.133  38.394   1.257
77194W        W42454   3.936   0.796   0.416
77195W        W42455  36.837  21.785   1.260
77196W        W42456  20.640  31.999   2.728
77197W        W42457  18.144   4.788   4.407
77198W        W42458  10.423  16.323   0.894
77199W        W42459  19.181  23.644   1.968
77200W        W42460  38.576  27.041  10.744
77201W        W42461   6.192  43.857   2.753
77202W        W42462  28.385  27.691   0.520
77203W        W42463  29.965  42.268   2.649
77204W        W42464  25.490  25.022   2.348
77205W        W42465  26.806  34.369   5.085
77206W        W42466  10.145  13.568  14.372
77207W        W42467   4.693  19.538  10.182
77208W        W42468  41.309  31.565   4.344
77209W        W42469  40.285  40.413   4.024
77210W        W42470   7.500  16.242   2.209
77211W        W42471  19.087  41.595  12.019
77212W        W42472  28.207   1.114   0.786
77213W        W42473   9.190  41.801   5.026
77214W        W42474  25.153  12.298  11.390
77215W        W42475   0.255  37.024  14.871
77216W        W42476  27.875  36.355  11.263
77217W        W42477  23.499  25.862  11.186
77218W        W42478  37.258  25.908  11.484
77219W        W42479  14.265  32.015  14.601
77220W        W42480   2.229  32.160  13.582
77221W        W42481  34.881   0.185   2.680
77222W        W42482  14.242  20.948  12.177
77223W        W42483   8.367  20.613  11.421
77224W        W42484  20.919  23.082  12.049
77225W        W42485  12.296  39.381   0.503
77226W        W42486  43.060  29.058  11.128
77227W        W42487  12.774   3.684   3.181
77228W        W42488  23.591  23.640  11.306
77229W        W42489  42.790  12.693   0.518
77230W        W42490   7.775  14.745   2.404
77231W        W42491  19.828   9.820   4.480
77232W        W42492  29.049  25.739   3.793
77233W        W42493  18.298  12.994   2.226
77234W        W42494  31.512  36.546   1.954
77235W        W42495  18.254  32.448   3.442
77236W        W42496  34.455  20.823  11.164
77237W        W42497   9.348  32.210   4.445
77238W        W42498  19.311   6.536  14.276
77239W        W42499  32.629  15.599   1.244
77240W        W42500  33.446  29.397   4.641
77241W        W42501  43.426  44.913   4.291
77242W        W42502  39.391  17.373   2.371
77243W        W42503  17.864   7.567   1.242
77244W        W42504  43.921  14.346   4.106
77245W        W42505  25.016  21.645   1.108
77246W        W42506   6.260   4.441   4.623
77247W        W42507   5.382  23.394  14.425
77248W        W42508  38.405   7.776  11.432
77249W        W42509  17.621  42.309   4.750
77250W        W42510   1.732  37.298   0.276
77251W        W42511   0.429  23.576  13.354
77252W        W42512  15.238  25.242   3.787
77253W        W42513  33.798  25.156  14.791
77254W        W42514  21.904  27.068  14.572
77255W        W42515  31.807   8.748  14.787
77256W        W42516   3.334   0.233   3.298
77257W        W42517   7.176  27.380   1.156
77258W        W42518  11.009   7.886   0.372
77259W        W42519  44.361  37.130   2.336
77260W        W42520  37.311  20.723  12.453
77261W        W42521  31.424  38.984  10.560
77262W        W42522   2.932  19.270  13.399
77263W        W42523  10.121  30.235   3.727
77264W        W42524   9.587  12.257   0.178
77265W        W42525  18.210  27.526   4.697
77266W        W42526  44.810   1.446  12.584
77267W        W42527  44.387   7.828   1.710
77268W        W42528  25.468  15.549   3.580
77269W        W42529   5.336  26.963   4.534
77270W        W42530   1.964  34.662   0.255
77271W        W42531  39.063   6.336   4.566
77272W        W42532  14.767  13.056  14.364
77273W        W42533  40.898  19.495   3.361
77274W        W42534  10.699  23.975   2.079
77275W        W42535  44.097   8.738  13.871
77276W        W42536   7.841  36.082  12.077
77277W        W42537  14.294  14.787   0.819
77278W        W42538  21.668   9.232   0.720
77279W        W42539  24.608   8.127  13.126
77280W        W42540  41.275  40.304  13.694
77281W        W42541  18.386  22.061  14.714
77282W        W42542  25.814   4.217  11.681
77283W        W42543  27.610   2.497   1.182
77284W        W42544  16.603  38.239   1.661
77285W        W42545  32.714  27.420   3.614
77286W        W42546  34.152  14.794  12.658
77287W        W42547   5.464   3.937   4.248
77288W        W42548  14.379  34.631   2.265
77289W        W42549   2.103  20.091   4.134
77290W        W42550  25.294   7.305  14.286
77291W        W42551  20.512   5.667  11.179
77292W        W42552  27.500  36.908   0.876
77293W        W42553  15.822  38.473  10.758
77294W        W42554  31.876  42.283   1.702
77295W        W42555  17.499  19.433   3.405
77296W        W42556   8.838   5.440   0.800
77297W        W42557  11.755  38.680   1.862
77298W        W42558  38.005  25.109   0.678
77299W        W42559  43.062  37.846   1.286
77300W        W42560   9.456  15.539  14.664
77301W        W42561  18.813  32.957   4.295
77302W        W42562  34.539  34.767   1.412
77303W        W42563  18.799  37.242  12.408
77304W        W42564   2.260   4.105   1.547
77305W        W42565  27.459  12.808   0.501
77306W        W42566  31.227  31.022  14.495
77307W        W42567   9.551  33.692  11.413
77308W        W42568  31.664   0.920   1.135
77309W        W42569  23.028  15.484  13.532
77310W        W42570  18.002  31.538   2.079
77311W        W42571  13.250  13.420   4.557
77312W        W42572  11.397  26.090  10.417
77313W        W42573  27.529  13.524  12.036
77314W        W42574  43.669  28.392   2.239
77315W        W42575   2.217   4.375   3.827
77316W        W42576   9.809   2.545   2.349
77317W        W42577  30.629   5.854   0.663
77318W        W42578  32.547  42.888   3.679
77319W        W42579   1.949   0.680  14.536
77320W        W42580  17.585  30.938  13.876
77321W        W42581  40.025  39.565   1.944
77322W        W42582  16.688  21.943  11.660
77323W        W42583  24.445  40.424   1.392
77324W        W42584  27.133   1.826  14.306
77325W        W42585  24.983  27.478   0.453
77326W        W42586   0.691   9.947  13.635
77327W        W42587  27.473  31.947  11.902
77328W        W42588  31.918   6.155   4.031
77329W        W42589  17.082  16.044   3.669
77330W        W42590   7.781  22.950  11.658
77331W        W42591  42.789   1.331  13.477
77332W        W42592  28.900  27.546  12.905
77333W        W42593  11.217   7.061  14.201
77334W        W42594  34.948  36.343  12.004
77335W        W42595  34.036   0.436  13.753
77336W        W42596  22.748  32.435   2.302
77337W        W42597   7.321  27.303   0.359
77338W        W42598  21.660  24.113  12.003
77339W        W42599   9.428  26.258   2.251
77340W        W42600   9.112  33.475   0.945
77341W        W42601  14.228  43.727   4.203
77342W        W42602  43.398   0.860   2.373
77343W        W42603  35.957  23.953  12.586
77344W        W42604  38.544  34.447   4.948
77345W        W42605  33.065   2.882  14.674
77346W        W42606   8.773  21.028  13.075
77347W        W42607  35.771  34.228  12.099
77348W        W42608  38.381  32.543  13.395
77349W        W42609  21.499  27.700  11.546
77350W        W42610  16.330  27.596   0.879
77351W        W42611  43.268  34.647   1.460
77352W        W42612  31.649  34.823  13.572
77353W        W42613   9.507  32.357  12.457
77354W        W42614  25.931  28.663  11.080
77355W        W42615  20.097  33.060   1.708
77356W        W42616  33.121   4.763  13.582
77357W        W42617  25.693  35.373   1.283
77358W        W42618  35.838  32.034   2.617
77359W        W42619  30.206   0.658  12.117
77360W        W42620   5.694  12.505  10.858
77361W        W42621  29.980  17.760   0.992
77362W        W42622  29.299  20.802  14.458
77363W        W42623  35.343   8.694  10.779
77364W        W42624  30.335  38.066   4.302
77365W        W42625  31.385  23.126  14.278
77366W        W42626  15.099   1.821  10.760
77367W        W42627   1.411  21.234  14.760
77368W        W42628  42.472   1.653   1.453
77369W        W42629  38.820  26.638  13.870
77370W        W42630  13.367  26.099  13.075
77371W        W42631  21.959  26.572   1.248
77372W        W42632  22.510  27.188   1.437
77373W        W42633  38.336  41.841   3.320
77374W        W42634  27.107  35.114   1.968
77375W        W42635  37.168  27.994  14.895
77376W        W42636  37.081  40.580   0.642
77377W        W42637  43.757  17.178  14.052
77378W        W42638  29.217   9.618   3.318
77379W        W42639  31.774  18.565   3.774
77380W        W42640  37.348  10.768   4.598
77381W        W42641  33.441  16.133  11.629
77382W        W42642   8.326   5.204  11.590
77383W        W42643  40.330  12.414  13.404
77384W        W42644  36.157   8.348   3.567
77385W        W42645  34.428  43.925  10.691
77386W        W42646  13.344   4.138  14.471
77387W        W42647  38.238  17.768  11.216
77388W        W42648  15.863   8.219   3.433
77389W        W42649  14.283  23.788   2.592
77390W        W42650  31.610  39.275   0.445
77391W        W42651  25.617  13.816  14.731
77392W        W42652   2.402  24.564  12.488
77393W        W42653  42.056  20.121  13.509
77394W        W42654  21.954  28.530   4.332
77395W        W42655  39.307  33.161   2.190
77396W        W42656  18.321  41.323  13.038
77397W        W42657  24.661  40.842   2.299
77398W        W42658  25.944  15.322  10.583
77399W        W42659  34.875  34.089   2.107
77400W        W42660  31.180  40.765  13.942
77401W        W42661  16.671   2.748   0.301
77402W        W42662   6.355  39.993  12.976
77403W        W42663  20.606  22.723   2.723
77404W        W42664  40.707  37.586   3.270
77405W        W42665  27.241  12.419  10.742
77406W        W42666  15.898  36.236  12.733
77407W        W42667  37.410  36.471   3.146
77408W        W42668  31.732  42.893  12.702
77409W        W42669  27.158  16.481   1.614
77410W        W42670  36.538  26.177   2.355
77411W        W42671  26.663   5.183   0.754
77412W        W42672  15.465  24.497   4.007
77413W        W42673  43.955  37.693  12.592
77414W        W42674  28.162   1.017  14.757
77415W        W42675  12.019  30.691  14.392
77416W        W42676  17.664   6.419  13.990
77417W        W42677   4.152  17.604  10.740
77418W        W42678   0.419  18.021  10.360
77419W        W42679  22.065  36.644  12.316
77420W        W42680  26.646  14.716   4.591
77421W        W42681   1.014  44.566  14.777
77422W        W42682  24.498  42.756   4.499
77423W        W42683  35.144  21.916  13.451
77424W        W42684  32.319  34.547  13.490
77425W        W42685  19.224  22.582  12.892
77426W        W42686  34.157   6.672   4.583
77427W        W42687  27.033   7.870   0.234
77428W        W42688  34.993  42.285   0.742
77429W        W42689  10.728  30.354   2.579
77430W        W42690  28.710  19.645  13.730
77431W        W42691   4.131  28.586  10.775
77432W        W42692  15.239  31.932  14.837
77433W        W42693  34.839  34.094   0.137
77434W        W42694  38.349  25.650   4.868
77435W        W42695  17.973  29.211  10.844
77436W        W42696   2.300   0.383   3.196
77437W        W42697  23.204  41.048  14.930
77438W        W42698  16.066  44.983  12.468
77439W        W42699  33.314  26.942   0.693
77440W        W42700   1.443  43.227  13.461
77441W        W42701  27.210  19.149   4.786
77442W        W42702   4.933   7.889  11.622
77443W        W42703   8.223  19.627   3.579
77444W        W42704  16.202  32.505   0.267
77445W        W42705  13.396  32.907  13.344
77446W        W42706  35.393  42.474  13.789
77447W        W42707  39.095  10.296  11.621
77448W        W42708  39.640  33.355   4.529
77449W        W42709   8.315  20.513   3.164
77450W        W42710  14.322   7.275   5.412
77451W        W42711  15.030  38.535   1.735
77452W        W42712  32.904  23.129  13.758
77453W        W42713  26.483  15.291  10.590
77454W        W42714  30.700  36.784   1.240
77455W        W42715  42.055  35.079  12.511
77456W        W42716  16.392  23.626   4.122
77457W        W42717  36.969  26.440   2.802
77458W        W42718  22.974  10.310   3.285
77459W        W42719  15.669  32.047  11.935
77460W        W42720  38.852  25.116  12.413
77461W        W42721  10.763   8.725  14.761
77462W        W42722  34.728  39.207  10.958
77463W        W42723  40.564  44.234  12.987
77464W        W42724  17.367   5.032   1.933
77465W        W42725  23.579   7.892  14.053
77466W        W42726  15.350  36.962  14.927
77467W        W42727  30.647   1.530   3.790
77468W        W42728  13.091  32.387   3.635
77469W        W42729  33.529   0.898  10.703
77470W        W42730  43.433  15.438   2.789
77471W        W42731  41.837  13.051   2.268
77472W        W42732  28.437  10.627  10.582
77473W        W42733  35.858   1.894  12.484
77474W        W42734  17.876   2.104  13.292
77475W        W42735  31.750  39.011  13.954
77476W        W42736  19.280  42.990  13.317
77477W        W42737  13.819   5.811  13.063
77478W        W42738  39.396  36.091   3.972
77479W        W42739  26.646   7.378  13.318
77480W        W42740   0.757  14.749  12.198
77481W        W42741  40.828  41.419   4.271
77482W        W42742   4.701  38.431  12.492
77483W        W42743  38.455  23.473   0.613
77484W        W42744  43.608   3.097  12.346
77485W        W42745   4.116  15.191  11.058
77486W        W42746  10.668  37.293   0.003
77487W        W42747  18.248  17.079  10.285
77488W        W42748  37.004  38.925   2.731
77489W        W42749  30.081  23.941  12.518
77490W        W42750  28.590  20.592   2.600
77491W        W42751  30.049  33.494   3.750
77492W        W42752  24.728  34.923   0.357
77493W        W42753  29.935  26.912  12.328
77494W        W42754  41.123   2.856  14.706
77495W        W42755  43.309  26.655   0.242
77496W        W42756  32.070  24.071   1.899
77497W        W42757  25.087  12.129  12.876
77498W        W42758  24.799  31.018   0.340
77499W        W42759   8.600  29.665   2.109
77500W        W42760  14.585  17.042  11.193
77501W        W42761  11.214  16.220  12.684
77502W        W42762  40.837   1.438   0.211
77503W        W42763  42.449  33.915   0.222
77504W        W42764   8.762  20.618   1.459
77505W        W42765  15.089  23.195  11.088
77506W        W42766   0.502  29.978   3.208
77507W        W42767  16.678   8.331  14.380
77508W        W42768   9.815  36.992   3.729
77509W        W42769  31.375  16.375   2.381
77510W        W42770  42.033  42.165  11.591
77511W        W42771  24.193  32.050   4.767
77512W        W42772   3.894  26.791   3.680
77513W        W42773  21.137  31.084   2.816
77514W        W42774  39.783  41.846  12.869
77515W        W42775  39.998  29.198   4.848
77516W        W42776  41.051  42.834  12.502
77517W        W42777  36.553   0.669  14.816
77518W        W42778  43.349  29.999   3.532
77519W        W42779  37.574  11.680  14.303
77520W        W42780  40.111  29.355  13.554
77521W        W42781  27.474  36.891   4.421
77522W        W42782  42.204   0.535  13.619
77523W        W42783  24.023  31.447   3.839
77524W        W42784  26.048   1.819  14.093
77525W        W42785  39.791   4.437   4.845
77526W        W42786   4.184  14.916   3.706
77527W        W42787  33.492  23.170  12.999
77528W        W42788   1.266  37.524  12.078
77529W        W42789  15.433  42.084   0.506
77530W        W42790  11.714  32.570   3.755
77531W        W42791  29.840   7.188   0.723
77532W        W42792   9.679  23.988  13.913
77533W        W42793  21.643  11.835  13.061
77534W        W42794  24.680  20.144  14.851
77535W        W42795  36.553  36.359  14.662
77536W        W42796  28.174  28.547   4.757
77537W        W42797  31.911  19.510   0.858
77538W        W42798  32.688  21.346  11.948
77539W        W42799  20.333  27.545  14.632
77540W        W42800  34.081  38.838  13.043
77541W        W42801   5.879  13.073  10.657
77542W        W42802  42.930   7.850   2.806
77543W        W42803  33.815   8.801   4.597
77544W        W42804  14.819  10.578  11.486
77545W        W42805   3.317  32.228  10.491
77546W        W42806  36.606  15.256  12.490
77547W        W42807  40.548   2.315  13.033
77548W        W42808  38.384  42.953  11.093
77549W        W42809  36.395  16.305  13.369
77550W        W42810   3.879  24.381  13.064
77551W        W42811  35.981  14.569   3.104
77552W        W42812  41.327  24.709   4.588
77553W        W42813  35.619  24.076   2.642
77554W        W42814  31.287  40.611  14.426
77555W        W42815   9.816  36.175   0.343
77556W        W42816  39.439  25.662  13.285
77557W        W42817  39.987  27.396  10.631
77558W        W42818  16.174  39.008   0.606
77559W        W42819   4.978  27.105   2.838
77560W        W42820  27.855  33.682  12.016
77561W        W42821  39.561  15.816   0.744
77562W        W42822  29.588  13.626   3.821
77563W        W42823   7.915  35.854  12.603
77564W        W42824   1.860  16.038  12.349
77565W        W42825   3.011  20.772   0.270
77566W        W42826  38.817  14.091   4.542
77567W        W42827  24.512  24.690   0.932
77568W        W42828  18.677  34.226  14.397
77569W        W42829   5.925   3.887   3.938
77570W        W42830   8.130  10.205  14.386
77571W        W42831  10.687  24.932  12.938
77572W        W42832  32.599   8.970  11.214
77573W        W42833  24.450  24.502  10.639
77574W        W42834  36.868  36.789   0.369
77575W        W42835  28.992  44.679   4.468
77576W        W42836  14.743   9.921  14.968
77577W        W42837   2.989   6.649   4.166
77578W        W42838  16.627   7.763   2.919
77579W        W42839  15.817  21.627  13.441
77580W        W42840  38.525  42.213  11.080
77581W        W42841  42.796  22.641  11.105
77582W        W42842  19.722  26.340   1.399
77583W        W42843  43.730  41.140  12.038
77584W        W42844  16.348  31.867   0.781
77585W        W42845  21.946  27.540   4.299
77586W        W42846   1.306  12.747  12.115
77587W        W42847   3.192   0.181   1.033
77588W        W42848  20.703  43.887  12.094
77589W        W42849  43.828  41.384  14.037
77590W        W42850   8.729  41.312  12.401
77591W        W42851  42.020  10.259  11.075
77592W        W42852   9.862  21.910   2.589
77593W        W42853  31.233  30.898   0.925
77594W        W42854  23.568  16.188  13.112
77595W        W42855  28.354  43.593  11.318
77596W        W42856  14.767  40.718  13.061
77597W        W42857  31.016  32.267   1.628
77598W        W42858  41.396  17.875  14.802
77599W        W42859  16.109  43.906   4.117
77600W        W42860  41.755  38.518  14.859
77601W        W42861  25.436   8.774   4.136
77602W        W42862  18.701  21.595  13.528
77603W        W42863   3.291   0.752  12.423
77604W        W42864  41.304   8.662  12.500
77605W        W42865  40.386   6.486   2.189
77606W        W42866  10.107  10.270   0.865
77607W        W42867  24.507  18.441  14.262
77608W        W42868  35.343  25.165  14.865
77609W        W42869  25.213   0.870  14.331
77610W        W42870  33.013   8.338   4.552
77611W        W42871  43.344  20.129   0.083
77612W        W42872  21.155   6.199   3.299
77613W        W42873   3.279  34.368   4.702
77614W        W42874  36.396  23.663  14.283
77615W        W42875  32.115  19.819   2.241
77616W        W42876   2.274  40.155   2.293
77617W        W42877  18.606  37.885   3.893
77618W        W42878  12.050  23.575  10.674
77619W        W42879  37.755  37.516  14.789
77620W        W42880   8.310  33.919   0.993
77621W        W42881  27.065  36.687   0.643
77622W        W42882   9.696  37.447  14.478
77623W        W42883  39.892   6.083  11.487
77624W        W42884   4.788  37.915   1.968
77625W        W42885  28.710  32.835  11.496
77626W        W42886  39.155  18.483  13.654
77627W        W42887  12.421  21.334   4.167
77628W        W42888  15.529  14.321   4.570
77629W        W42889  19.207  16.926  14.551
77630W        W42890  33.910  43.976  12.628
77631W        W42891  15.035  30.514  10.750
77632W        W42892  16.236  43.800  14.576
77633W        W42893  39.649  11.398  11.356
77634W        W42894  42.858  21.601   2.215
77635W        W42895   6.152   0.920  13.399
77636W        W42896  10.925  22.055   1.253
77637W        W42897  12.871   3.217  12.545
77638W        W42898  17.811   0.382  13.549
77639W        W42899  34.573  23.643   4.110
77640W        W42900   3.509  28.471  13.540
77641W        W42901  44.667  20.062   3.192
77642W        W42902   2.845  29.590  13.900
77643W        W42903  27.388  41.118   0.461
77644W        W42904  18.671   5.737  10.739
77645W        W42905  30.431  15.285   4.199
77646W        W42906  11.354   4.717   5.070
77647W        W42907  19.066   5.979  11.834
77648W        W42908  20.115   8.598   2.857
77649W        W42909  10.126   5.351  12.010
77650W        W42910  33.496  18.231  14.767
77651W        W42911  24.011  37.396   5.016
77652W        W42912  22.623  24.232   4.036
77653W        W42913  23.238  15.608   0.446
77654W        W42914  34.993   9.122  13.369
77655W        W42915  30.436  31.535  11.165
77656W        W42916  43.744  30.395   2.465
77657W        W42917   2.034  33.453  14.778
77658W        W42918  15.369  30.817  12.048
77659W        W42919  31.620  39.537   2.573
77660W        W42920  32.060   1.225  11.356
77661W        W42921  10.723  35.770  11.705
77662W        W42922  44.222  27.137   2.637
77663W        W42923  31.560   8.714   4.028
77664W        W42924   1.200  21.138   4.516
77665W        W42925  12.071  10.212  12.937
77666W        W42926  40.589  33.165  13.379
77667W        W42927  14.300  18.726  14.389
77668W        W42928  24.095  42.056   3.354
77669W        W42929  21.638  40.497   4.653
77670W        W42930  17.864   8.231  10.611
77671W        W42931  21.041  30.807  12.565
77672W        W42932  14.035  10.823   1.570
77673W        W42933   0.836  22.767  11.159
77674W        W42934  28.041   5.723  12.675
77675W        W42935   2.371  15.882  11.114
77676W        W42936  12.143  17.710  13.608
77677W        W42937   7.787   0.518  14.444
77678W        W42938  11.762   0.876  12.421
77679W        W42939  17.346  16.444  10.812
77680W        W42940  32.464  11.690   1.573
77681W        W42941  36.854  22.679  12.505
77682W        W42942   3.563  44.867  11.622
77683W        W42943  13.723  16.311  12.523
77684W        W42944  13.808  27.515   2.664
77685W        W42945  15.066  36.605  13.837
77686W        W42946   8.802   7.141  14.280
77687W        W42947  29.099   8.882  10.741
77688W        W42948   9.765  44.308  11.904
77689W        W42949   1.749  27.560  13.390
77690W        W42950  40.548  22.147  14.766
77691W        W42951   4.206  13.685   4.606
77692W        W42952  29.709  35.444   2.491
77693W        W42953  21.654  43.554  12.532
77694W        W42954  43.865  28.698  14.834
77695W        W42955   9.976  14.053  11.618
77696W        W42956  18.224  13.207   3.825
77697W        W42957  25.125  26.888  14.846
77698W        W42958  17.751   3.014   4.197
77699W        W42959  43.962   8.748   3.125
77700W        W42960  35.342   8.900  12.497
77701W        W42961  22.038  28.070   0.955
77702W        W42962  16.343  24.910   4.099
77703W        W42963  25.221  33.476   3.227
77704W        W42964   1.246  44.468  10.688
77705W        W42965  15.682  33.301   1.356
77706W        W42966   2.240  41.773   0.020
77707W        W42967  23.550  19.860  12.040
77708W        W42968   7.640   8.687   1.761
77709W        W42969  36.394  27.435  14.473
77710W        W42970   1.246  38.554   2.837
77711W        W42971  35.865  42.548  10.659
77712W        W42972  22.793   3.336  13.923
77713W        W42973  17.131  26.496  12.057
77714W        W42974  12.800  19.009  13.464
77715W        W42975  22.305   5.469   0.551
77716W        W42976  24.125   1.896  10.811
77717W        W42977  23.065  37.334   2.625
77718W        W42978  25.047  32.613  11.200
77719W        W42979  28.503  25.917  10.126
77720W        W42980   5.171  10.687  14.996
77721W        W42981   0.768  12.868  13.795
77722W        W42982   7.637  10.585  12.120
77723W        W42983  42.765   5.516  13.429
77724W        W42984  11.143  31.553  12.933
77725W        W42985   3.708  34.100  12.466
77726W        W42986  28.193  42.044   1.616
77727W        W42987  25.777  34.458   2.875
77728W        W42988  31.588  12.900  12.025
77729W        W42989  18.148  31.622  14.003
77730W        W42990  40.515  23.143  11.406
77731W        W42991   3.503  36.553  14.412
77732W        W42992  37.055  30.598   2.998
77733W        W42993  33.456  36.431  13.809
77734W        W42994  44.672  26.334   0.558
77735W        W42995  30.447  13.683  11.395
77736W        W42996  30.692  34.162  12.947
77737W        W42997   2.434  33.511  11.528
77738W        W42998  30.155  24.637   1.136
77739W        W42999   0.309  16.123  13.476
77740W        W43000  31.000   8.874  12.166
77741W        W43001  25.741  22.132  13.608
77742W        W43002  28.698   7.434   3.159
77743W        W43003   2.493  23.730  13.039
77744W        W43004   9.410   2.860  12.810
77745W        W43005  13.034  25.549   2.929
77746W        W43006   3.110  36.322   0.871
77747W        W43007  28.204  23.187   0.856
77748W        W43008  36.467  29.601  12.092
77749W        W43009  37.992  37.396   0.732
77750W        W43010   9.547  24.651  11.218
77751W        W43011  40.274  26.489   2.667
77752W        W43012   4.147  20.465  12.806
77753W        W43013  33.555   7.044   1.296
77754W        W43014  40.655   3.737   4.511
77755W        W43015  30.359   9.291   0.490
77756W        W43016  22.540   5.408   2.367
77757W        W43017  23.984  28.581   4.747
77758W        W43018  36.386  36.586  10.672
77759W        W43019  32.919  19.020   3.787
77760W        W43020  44.840   0.496  14.089
77761W        W43021  34.950  24.223  12.953
77762W        W43022   1.283  29.749   3.223
77763W        W43023  38.987   2.863  11.182
77764W        W43024  43.909  36.053   4.543
77765W        W43025  19.460  36.236   1.324
77766W        W43026   6.664  36.131   2.466
77767W        W43027  16.554  31.452   1.710
77768W        W43028  13.337   6.352   3.689
77769W        W43029   5.243  16.783   0.404
77770W        W43030  36.937   2.910   5.400
77771W        W43031  31.169  17.374  11.200
77772W        W43032  32.895   8.285  11.637
77773W        W43033  42.471  37.599  10.493
77774W        W43034  35.895  41.769  11.965
77775W        W43035  43.976   2.602  11.072
77776W        W43036  32.442  33.226  10.588
77777W        W43037   5.931   3.172  13.717
77778W        W43038  31.809  39.319  10.677
77779W        W43039  33.733  32.536   0.246
77780W        W43040  38.612  14.448   1.320
77781W        W43041  20.466  41.904   2.810
77782W        W43042  26.859  20.046  12.047
77783W        W43043  44.319  23.158   4.662
77784W        W43044  13.739  10.607   3.653
77785W        W43045  38.501  18.700   1.804
77786W        W43046   8.389  22.064  11.906
77787W        W43047   8.022  11.804  12.656
77788W        W43048  19.746   5.475   1.221
77789W        W43049  44.269   5.968   3.332
77790W        W43050  23.198  39.511  10.639
77791W        W43051   9.308  35.747   0.805
77792W        W43052  41.167   8.252   1.489
77793W        W43053   0.361  27.604   4.110
77794W        W43054  26.116  12.867  12.985
77795W        W43055   8.330  25.118   0.748
77796W        W43056   7.919  42.586  11.513
77797W        W43057  39.115  43.521  11.110
77798W        W43058   3.779  14.518   1.320
77799W        W43059  32.125   6.813   1.178
77800W        W43060  28.850  40.986   3.894
77801W        W43061  30.977  41.797  13.385
77802W        W43062  31.875   2.007  12.477
77803W        W43063  24.574  44.895  11.516
77804W        W43064   1.840  35.745   3.433
77805W        W43065  19.565   9.677   4.030
77806W        W43066  42.991   3.736  13.870
77807W        W43067   0.252   7.763  13.947
77808W        W43068  22.580  10.093  10.003
77809W        W43069  23.554  15.682   2.348
77810W        W43070   8.192  44.004   2.664
77811W        W43071  35.015  31.401   3.712
77812W        W43072  25.088  13.121  12.505
77813W        W43073  41.295  40.067  12.551
77814W        W43074  21.810  18.334  14.915
77815W        W43075   2.995  31.103   3.272
77816W        W43076  37.907  27.606  11.082
77817W        W43077  19.543  42.115   2.845
77818W        W43078  13.186   5.169  12.397
77819W        W43079  15.527  17.545  13.138
77820W        W43080   1.058  22.141  13.585
77821W        W43081  29.187  11.792  10.512
77822W        W43082  21.875  19.064  13.475
77823W        W43083   6.467  13.134   0.320
77824W        W43084  42.013  39.800   4.283
77825W        W43085  34.894  15.573   1.825
77826W        W43086  22.380  27.153  11.619
77827W        W43087  13.305  25.022  14.202
77828W        W43088  13.202  15.700   2.562
77829W        W43089  37.103  23.238   3.233
77830W        W43090   1.268  22.249  14.742
77831W        W43091  10.451  12.632   4.222
77832W        W43092  33.514  24.983  14.388
77833W        W43093  33.447  25.598   1.613
77834W        W43094  44.250  18.552  12.814
77835W        W43095  17.546  15.108  10.727
77836W        W43096  10.734  11.904   2.320
77837W        W43097  40.575   4.440  12.408
77838W        W43098  42.785  16.214   3.201
77839W        W43099  18.063  37.776  11.078
77840W        W43100   0.841  14.119   0.883
77841W        W43101  40.963   9.883  14.376
77842W        W43102  43.943  33.546   4.521
77843W        W43103  39.275  38.424  14.419
77844W        W43104  44.653  26.264  13.801
77845W        W43105  41.898  11.146  12.015
77846W        W43106  43.022   6.099  12.590
77847W        W43107   5.409  43.064  12.991
77848W        W43108  37.441  25.900   3.532
77849W        W43109   1.415  41.460  14.966
77850W        W43110  19.026  40.428  12.498
77851W        W43111  42.351  11.148  11.734
77852W        W43112  15.684  35.513  11.582
77853W        W43113  27.194  29.940  13.782
77854W        W43114   0.457   0.337  12.947
77855W        W43115  36.958  11.950  13.801
77856W        W43116  17.691   1.861   2.807
77857W        W43117  39.111  12.834  14.160
77858W        W43118  31.610  18.141  12.608
77859W        W43119  40.004  20.773   3.231
77860W        W43120   5.248  37.310  11.588
77861W        W43121  40.546   9.324   4.074
77862W        W43122  27.679  16.748   4.403
77863W        W43123   8.900  23.533  11.333
77864W        W43124  30.984  12.977  10.417
77865W        W43125   4.132  26.203   9.802
77866W        W43126  39.050  11.164  11.962
77867W        W43127   0.993  15.762  13.960
77868W        W43128  14.100  35.339  13.609
77869W        W43129  21.291  29.598   3.706
77870W        W43130  43.759  27.133   4.848
77871W        W43131  26.598  40.521   2.845
77872W        W43132  14.829  44.067   2.639
77873W        W43133  13.295  29.406   0.089
77874W        W43134  23.498   3.375   1.969
77875W        W43135  40.436  42.054  11.643
77876W        W43136  15.250  38.959   0.556
77877W        W43137  42.273  26.823   2.777
77878W        W43138  16.738  12.681   3.524
77879W        W43139  16.833  31.146  11.020
77880W        W43140  30.950  11.596  11.933
77881W        W43141   4.414   6.803  14.003
77882W        W43142  35.010   3.639  12.437
77883W        W43143   4.822  11.496  10.256
77884W        W43144  39.901  27.513  14.730
77885W        W43145  14.527  38.999  10.126
77886W        W43146  33.489  23.602  11.258
77887W        W43147  20.168   7.489   0.955
77888W        W43148  21.071  36.323   1.511
77889W        W43149  34.291  41.721   4.123
77890W        W43150  36.389   6.718  14.893
77891W        W43151  40.490  17.574  12.996
77892W        W43152  10.640  36.914  10.679
77893W        W43153   4.334  20.736   2.249
77894W        W43154  13.152  14.300  11.567
77895W        W43155   5.870  28.538   9.718
77896W        W43156   5.706  35.811   4.677
77897W        W43157  44.801  37.540   1.682
77898W        W43158  41.019   1.904   2.600
77899W        W43159  14.357   0.815   4.593
77900W        W43160  10.859  35.628   1.724
77901W        W43161  10.361  38.185   0.049
77902W        W43162   7.247  31.060  12.538
77903W        W43163  17.979   1.213   3.660
77904W        W43164  41.485  40.907   2.850
77905W        W43165  26.259   3.940   2.815
77906W        W43166   4.932  32.140   0.138
77907W        W43167  19.800   0.852  14.793
77908W        W43168  23.764  32.842  14.832
77909W        W43169   6.209  25.986   2.616
77910W        W43170  40.550  31.990   3.522
77911W        W43171   2.465  28.686   1.304
77912W        W43172  43.511  24.153  11.235
77913W        W43173   7.952  15.982  12.452
77914W        W43174  25.427  38.276   1.081
77915W        W43175  28.063  14.190   3.596
77916W        W43176  18.041   6.446   4.027
77917W        W43177  29.179  14.850   0.775
77918W        W43178   8.341  41.601  13.907
77919W        W43179  22.622  22.899   3.732
77920W        W43180   2.247  11.992  14.999
77921W        W43181  37.044  38.887   1.119
77922W        W43182  42.745   8.762  14.742
77923W        W43183  15.872  31.542  13.970
77924W        W43184   3.254  29.959   3.209
77925W        W43185  37.417  22.015  13.516
77926W        W43186  14.878  26.060   1.398
77927W        W43187   5.482   0.674   1.675
77928W        W43188  12.195   3.513  12.034
77929W        W43189  15.256  17.167  12.882
77930W        W43190  27.586  26.534   3.159
77931W        W43191  24.931  31.493   0.545
77932W        W43192   1.911  25.709  10.813
77933W        W43193   1.675   5.649  14.171
77934W        W43194   2.697  26.465  12.396
77935W        W43195  37.346  17.105   1.489
77936W        W43196   1.427   9.127   2.202
77937W        W43197  30.947  24.268  11.624
77938W        W43198   8.870  15.068  11.989
77939W        W43199   4.503  12.778  13.561
77940W        W43200  33.818  21.056   2.647
77941W        W43201   5.035   1.995   3.626
77942W        W43202  33.563  44.609   3.124
77943W        W43203  44.765  33.072  12.400
77944W        W43204  38.213  11.739   3.754
77945W        W43205  10.117  35.914   2.851
77946W        W43206  40.136   0.645  10.397
77947W        W43207  31.144   6.858  12.946
77948W        W43208  40.096  33.189   4.297
77949W        W43209   7.620  31.118  13.478
77950W        W43210  27.635  42.527  10.655
77951W        W43211  21.012  28.101   1.831
77952W        W43212  38.915  23.253   4.148
77953W        W43213  26.531  44.873   3.595
77954W        W43214  36.919  12.780   1.676
77955W        W43215   0.675  15.163   0.853
77956W        W43216   6.226  25.627   1.200
77957W        W43217  39.330   7.218  11.708
77958W        W43218  24.120  10.674   4.378
77959W        W43219  10.742  19.237   3.739
77960W        W43220   2.265  31.890  13.135
77961W        W43221  19.540  12.963  10.806
77962W        W43222  44.662  18.674   1.324
77963W        W43223  25.057  36.798  13.858
77964W        W43224   0.366  43.351   1.817
77965W        W43225  12.254  32.143  14.678
77966W        W43226   6.652  15.097  10.963
77967W        W43227  23.807  13.549  13.757
77968W        W43228  17.453  13.180  14.004
77969W        W43229   3.836  26.929   0.312
77970W        W43230  40.199   6.424  12.888
77971W        W43231  24.894   2.220  13.155
77972W        W43232   1.870   5.968  13.226
77973W        W43233  30.413  40.989  11.489
77974W        W43234  18.702  33.453   4.242
77975W        W43235  24.248   5.699  13.384
77976W        W43236  17.586  16.947   4.892
77977W        W43237  43.156  40.738   0.716
77978W        W43238  23.237  32.110  12.409
77979W        W43239  32.508  33.105  12.028
77980W        W43240   7.659  16.114   1.638
77981W        W43241   6.745  18.042  10.628
77982W        W43242  24.326  20.289   1.910
77983W        W43243   7.722  43.837   2.740
77984W        W43244  39.952  12.607  12.133
77985W        W43245   2.016   7.490   0.951
77986W        W43246  23.384  33.937  12.377
77987W        W43247   0.932  19.861   0.964
77988W        W43248  39.379  35.720   4.974
77989W        W43249  21.205  19.629   4.242
77990W        W43250  32.269  19.258   2.259
77991W        W43251  17.168   2.119  14.401
77992W        W43252  36.463  26.341   2.845
77993W        W43253  14.219  28.684   4.780
77994W        W43254   3.733  28.399  14.011
77995W        W43255   2.879  30.587   2.357
77996W        W43256  31.918  40.963  10.449
77997W        W43257  32.055  15.540   2.183
77998W        W43258  14.673  43.238  10.711
77999W        W43259  38.395  19.522  12.574
78000W        W43260  23.349   0.784  11.946
78001W        W43261   3.334  20.214   3.709
78002W        W43262  15.616   7.814  11.920
78003W        W43263  18.227  29.748   2.181
78004W        W43264  38.866  23.620  13.057
78005W        W43265  16.178  19.542   1.259
78006W        W43266  36.145  39.851   3.110
78007W        W43267  24.075  29.594   0.354
78008W        W43268   9.826  17.247  13.550
78009W        W43269   6.411   9.722   4.340
78010W        W43270   5.248  29.753   3.103
78011W        W43271  37.072   9.906   2.703
78012W        W43272  44.755  43.465  12.097
78013W        W43273  21.045  30.147  14.869
78014W        W43274   2.017  10.221  14.007
78015W        W43275  13.852  25.276  12.332
78016W        W43276  11.860  22.195   4.192
78017W        W43277  19.581  26.574   3.611
78018W        W43278   0.944  27.894   2.173
78019W        W43279  27.241  39.534   0.924
78020W        W43280  38.318  20.129   2.715
78021W        W43281   5.543   8.861   4.946
78022W        W43282   9.962  24.906   3.629
78023W        W43283  37.066  41.410  13.395
78024W        W43284  12.035  30.421   0.801
78025W        W43285  32.964  35.807  12.857
78026W        W43286  21.412   6.150  11.271
78027W        W43287  16.828  11.260  13.443
78028W        W43288   4.761  19.824   3.728
78029W        W43289  27.054  20.900   1.101
78030W        W43290   2.340  11.556   3.658
78031W        W43291   6.884  14.439   4.211
78032W        W43292  12.220  10.655  11.416
78033W        W43293   1.399  37.321   4.862
78034W        W43294  44.284  33.984  10.896
78035W        W43295   1.161  30.914   4.327
78036W        W43296  19.124  13.096  12.510
78037W        W43297  32.957  14.087  12.979
78038W        W43298  23.999  21.711   4.632
78039W        W43299  25.957  25.919  14.424
78040W        W43300  43.873  10.751  10.765
78041W        W43301  32.480   5.893  14.237
78042W        W43302  29.946  28.611  13.452
78043W        W43303   9.379  12.874   4.293
78044W        W43304  33.351   2.767   3.390
78045W        W43305  10.529  16.797  12.437
78046W        W43306  11.056  43.013  13.356
78047W        W43307   4.911  26.893  11.996
78048W        W43308  15.269  16.784  13.617
78049W        W43309   9.069  34.507  12.242
78050W        W43310  33.923   5.829   0.793
78051W        W43311  42.323  14.643   0.919
78052W        W43312   2.791  44.823   4.062
78053W        W43313  43.110  33.077   0.041
78054W        W43314  21.788  34.401   0.801
78055W        W43315  23.565  22.961   3.702
78056W        W43316   5.817  14.797  11.536
78057W        W43317  30.974   0.344  11.593
78058W        W43318  34.255  19.233   0.997
78059W        W43319  26.123  11.887  11.200
78060W        W43320   2.806   2.934   4.189
78061W        W43321  24.157   7.626  12.446
78062W        W43322   3.271  40.055   1.525
78063W        W43323  13.809  17.770  12.049
78064W        W43324  34.061   2.236  11.937
78065W        W43325  16.685  17.353   4.972
78066W        W43326   8.173   2.696   0.489
78067W        W43327   9.799  14.679  14.901
78068W        W43328  35.564   7.017  11.487
78069W        W43329   3.918  13.219  11.723
78070W        W43330   0.321  23.619   3.474
78071W        W43331   5.377  40.211   1.428
78072W        W43332   6.938   5.371   4.306
78073W        W43333  28.091  40.713  12.722
78074W        W43334  33.514  10.129  12.978
78075W        W43335  35.499  37.850  12.662
78076W        W43336  44.296  11.537  12.173
78077W        W43337  25.116  28.681  10.453
78078W        W43338  42.528  25.116  14.074
78079W        W43339  24.248  43.739   1.210
78080W        W43340   2.793  41.449  12.336
78081W        W43341  37.450  41.994   0.956
78082W        W43342  34.062  25.419  12.902
78083W        W43343   8.853  44.439  14.812
78084W        W43344  21.192  16.498   4.169
78085W        W43345  39.547  39.937  13.993
78086W        W43346  39.888  26.050  12.094
78087W        W43347  18.142  30.213   2.401
78088W        W43348  16.215  25.469   1.785
78089W        W43349  10.339  20.493  13.351
78090W        W43350   0.452  32.617   4.098
78091W        W43351  17.516  35.140  11.381
78092W        W43352  28.033  36.074   3.159
78093W        W43353  26.590  43.718   2.946
78094W        W43354  13.869   8.668   2.886
78095W        W43355  26.137  36.340   0.861
78096W        W43356   3.654  20.819  12.059
78097W        W43357   6.237  25.598  14.095
78098W        W43358  31.000  20.050  14.123
78099W        W43359   3.311  14.696  12.574
78100W        W43360  26.457  28.564   3.321
78101W        W43361  11.656   5.932  14.077
78102W        W43362  32.390  38.823  14.451
78103W        W43363  16.561   5.156  12.474
78104W        W43364  42.883  37.862  10.668
78105W        W43365   8.353  21.668  13.087
78106W        W43366   3.333   0.841   3.293
78107W        W43367  12.643  25.437   3.661
78108W        W43368   5.913  19.504   2.895
78109W        W43369  31.533   2.275   3.440
78110W        W43370   8.934  24.075  11.362
78111W        W43371  24.998  29.025  14.497
78112W        W43372  22.821  21.440  12.905
78113W        W43373  29.577  38.425   1.041
78114W        W43374  36.038  42.378   2.275
78115W        W43375  41.855   2.422   3.446
78116W        W43376  11.791  15.507   2.172
78117W        W43377  38.990  28.345  13.465
78118W        W43378  41.896  36.570  11.519
78119W        W43379   2.174  12.132   4.481
78120W        W43380  15.708  19.744   1.126
78121W        W43381  21.727  35.553   0.022
78122W        W43382   3.232  19.322  10.898
78123W        W43383  11.643  37.162   0.590
78124W        W43384  23.288  12.731  11.608
78125W        W43385   6.402   5.788   4.668
78126W        W43386  26.052   4.284  10.270
78127W        W43387  20.125  37.889   3.729
78128W        W43388  27.630  24.158   2.063
78129W        W43389  31.995  39.518   2.150
78130W        W43390   9.650   4.947  13.113
78131W        W43391   6.830  14.677   0.940
78132W        W43392  13.170   8.940   0.313
78133W        W43393  14.776   0.874  11.467
78134W        W43394  10.907  32.097   2.781
78135W        W43395  25.144  12.846   3.244
78136W        W43396  39.566  35.512   0.076
78137W        W43397  26.363  22.046   0.337
78138W        W43398   5.711  44.212  13.656
78139W        W43399  38.199  11.811  10.429
78140W        W43400  41.872  10.679  11.730
78141W        W43401  21.247  38.871   3.496
78142W        W43402  26.074  18.044   1.156
78143W        W43403  44.240  37.532  12.211
78144W        W43404  40.549  14.128  12.929
78145W        W43405  29.195  10.901  11.658
78146W        W43406   8.549  36.568  13.803
78147W        W43407  19.174  24.091  13.482
78148W        W43408  14.173   2.835   1.912
78149W        W43409  15.874  25.145   0.910
78150W        W43410  12.676  40.371  12.346
78151W        W43411   5.396  32.578  12.951
78152W        W43412  15.781   1.708  13.565
78153W        W43413  22.491  11.905   3.563
78154W        W43414  39.384   9.966  14.825
78155W        W43415  16.951  35.380  11.208
78156W        W43416   4.713   3.016  12.779
78157W        W43417   5.335  18.493  11.073
78158W        W43418  21.803  33.856   3.488
78159W        W43419  19.853  41.292  14.888
78160W        W43420  43.176  32.800  13.413
78161W        W43421  37.837  42.191   0.132
78162W        W43422   2.576  27.882   1.849
78163W        W43423  34.003  39.518  13.689
78164W        W43424   9.155   9.760  12.045
78165W        W43425  38.447  41.731   2.223
78166W        W43426   2.786  44.985   4.560
78167W        W43427  41.923  23.543   1.869
78168W        W43428  13.308   0.636   2.652
78169W        W43429  19.249   7.450   3.702
78170W        W43430  34.507  10.599   3.229
78171W        W43431  28.518  17.687   4.554
78172W        W43432  22.095  14.767   3.354
78173W        W43433  35.360  11.360  12.487
78174W        W43434  30.046   5.252   3.121
78175W        W43435  40.569   2.820   9.863
78176W        W43436  28.120  13.054  14.863
78177W        W43437  25.359   7.207   1.435
78178W        W43438   6.724  15.632  13.118
78179W        W43439  12.584  25.269  13.234
78180W        W43440   1.562  12.634   5.404
78181W        W43441   2.812  29.880  13.003
78182W        W43442   2.808  10.793  14.821
78183W        W43443  32.894  16.801   0.014
78184W        W43444  29.374  12.057   1.999
78185W        W43445  41.053  44.042  13.017
78186W        W43446  10.261  12.493   0.882
78187W        W43447  24.268  16.701   0.027
78188W        W43448  28.023  42.402  14.764
78189W        W43449  36.027  14.004  13.490
78190W        W43450   7.478   9.909   2.196
78191W        W43451   3.856  33.861  12.906
78192W        W43452  34.897  24.443   3.030
78193W        W43453   7.310  36.686  14.479
78194W        W43454  30.956  18.097   0.751
78195W        W43455  38.121   5.353  12.844
78196W        W43456  29.745  31.763   5.091
78197W        W43457  38.638  37.626  12.613
78198W        W43458  39.711   7.250  14.423
78199W        W43459  18.804  44.944   2.813
78200W        W43460  17.408  43.408  11.158
78201W        W43461   6.192   4.835  13.533
78202W        W43462  30.448  26.055  14.819
78203W        W43463  28.229  35.542   0.347
78204W        W43464   2.540   8.295  14.011
78205W        W43465  32.174  29.014   4.407
78206W        W43466   7.186   4.329  10.941
78207W        W43467  18.410  10.345  12.339
78208W        W43468   1.827  27.918   1.091
78209W        W43469  29.179  11.358  10.872
78210W        W43470  35.869  23.974   4.566
78211W        W43471  23.225   6.947   1.236
78212W        W43472  31.889  28.540   3.643
78213W        W43473  31.560  26.647  13.909
78214W        W43474  35.169  20.128  14.983
78215W        W43475  16.052   7.145   0.187
78216W        W43476   0.371   8.338   0.660
78217W        W43477  42.773  38.289   3.617
78218W        W43478  37.088   7.345   0.908
78219W        W43479  24.006  42.910   4.444
78220W        W43480  38.748  40.065  12.474
78221W        W43481  42.889   9.849  12.059
78222W        W43482   1.971  33.880   3.466
78223W        W43483   0.902  26.854   2.122
78224W        W43484  38.553  15.008   1.308
78225W        W43485  39.937  44.997   0.320
78226W        W43486  28.747  11.758   4.079
78227W        W43487  20.101  40.626  11.133
78228W        W43488  28.205   0.212   0.516
78229W        W43489  30.151  40.185  14.991
78230W        W43490   5.142  24.310   9.425
78231W        W43491  12.834   0.863  11.379
78232W        W43492  22.965  32.125  11.461
78233W        W43493  33.039  19.032  14.330
78234W        W43494  16.757   7.741  13.552
78235W        W43495  23.769  23.150  13.430
78236W        W43496  37.272  32.385  14.701
78237W        W43497   7.538  10.788  11.465
78238W        W43498  13.132  34.699   1.923
78239W        W43499   5.456   8.478   2.394
78240W        W43500  20.547  10.026   1.168
78241W        W43501   5.392   7.366  14.593
78242W        W43502  40.370  16.860   4.702
78243W        W43503  12.068   9.372   2.204
78244W        W43504  10.613  43.230   2.950
78245W        W43505  17.956  22.862   0.151
78246W        W43506  10.530  29.463   3.406
78247W        W43507  32.361  24.736   3.192
78248W        W43508  19.663   4.807  11.410
78249W        W43509  11.203  13.405   0.117
78250W        W43510  33.168   3.606   1.425
78251W        W43511  35.580  36.736   4.684
78252W        W43512  13.849  34.164  14.484
78253W        W43513   4.826  33.391  13.590
78254W        W43514  21.737  29.515   3.975
78255W        W43515   5.729  35.826  14.013
78256W        W43516  32.407  39.829   2.234
78257W        W43517  43.708   0.840   4.214
78258W        W43518  15.164  31.176  14.418
78259W        W43519  40.552  15.057   0.350
78260W        W43520  36.963  36.292   2.909
78261W        W43521  33.508  10.665   3.632
78262W        W43522  29.834  36.853   1.873
78263W        W43523   3.416  22.522   3.591
78264W        W43524  29.607   1.823   1.540
78265W        W43525  44.434  35.896  10.430
78266W        W43526  31.426  14.907   2.381
78267W        W43527  20.245  31.153  13.971
78268W        W43528  37.008  12.181  14.982
78269W        W43529   7.726  29.495   2.026
78270W        W43530  32.939  44.092   4.471
78271W        W43531  42.878   3.434   4.002
78272W        W43532  19.449  38.319   4.556
78273W        W43533  40.120   3.906   5.029
78274W        W43534  26.151  44.341  12.811
78275W        W43535   2.332  43.056   2.283
78276W        W43536  39.907  44.967   1.836
78277W        W43537  39.933  27.396  12.634
78278W        W43538  33.827   3.665   0.459
78279W        W43539  32.653  22.444  10.323
78280W        W43540   5.814  19.309   4.174
78281W        W43541   7.448   6.266  10.727
78282W        W43542  21.091  38.470  11.227
78283W        W43543   8.814  21.496   0.444
78284W        W43544   5.375  31.802  11.476
78285W        W43545   2.304  17.745   0.779
78286W        W43546  37.914  42.961   0.719
78287W        W43547  15.055   7.351   0.437
78288W        W43548  23.598   4.985  13.064
78289W        W43549   7.931   8.819  13.655
78290W        W43550  44.786  10.792  14.717
78291W        W43551  28.640  31.604   1.928
78292W        W43552  36.974  11.353   4.770
78293W        W43553  35.118  29.903  11.216
78294W        W43554   1.408  43.751  11.397
78295W        W43555  44.462  26.501   2.282
78296W        W43556  26.615  29.146  13.024
78297W        W43557  14.179   4.304   2.432
78298W        W43558  11.802  35.148   1.695
78299W        W43559  12.635   6.713   1.282
78300W        W43560   2.926  11.185  11.991
78301W        W43561   0.003  15.245   1.391
78302W        W43562   0.779  27.060  14.097
78303W        W43563  36.709  21.081   4.182
78304W        W43564  27.605  40.162   2.814
78305W        W43565   4.109  18.161   3.207
78306W        W43566  28.646  22.103  11.222
78307W        W43567  18.050  34.168   1.315
78308W        W43568  44.946  29.965   2.211
78309W        W43569  38.289  31.639   0.734
78310W        W43570  28.147  43.439   4.077
78311W        W43571   3.977  20.052  12.362
78312W        W43572  15.056  16.861   2.347
78313W        W43573  16.830  31.459  11.578
78314W        W43574   9.136  42.028  14.988
78315W        W43575  17.711   6.355   2.800
78316W        W43576  34.383   2.591   1.947
78317W        W43577  44.711  38.681   0.337
78318W        W43578   8.510  10.898  14.910
78319W        W43579  26.775  40.349  14.997
78320W        W43580  42.720  40.877  14.422
78321W        W43581  43.422   9.442  11.557
78322W        W43582  19.330  30.337   0.329
78323W        W43583  35.890  27.379  11.585
78324W        W43584   9.721  26.723  11.645
78325W        W43585  15.088  31.754  11.122
78326W        W43586  28.858  15.764   3.765
78327W        W43587  32.894   5.675  12.066
78328W        W43588  25.659   3.425   0.637
78329W        W43589  36.276  39.524  11.676
78330W        W43590   6.273  21.239   4.963
78331W        W43591  33.901  21.877   4.045
78332W        W43592  20.107  10.294  11.101
78333W        W43593  42.536  17.060  11.055
78334W        W43594  34.880  16.311   0.223
78335W        W43595  34.542  17.370   1.258
78336W        W43596  30.076  36.131  10.517
78337W        W43597   1.372  14.545   2.247
78338W        W43598  36.890  19.387   4.227
78339W        W43599  26.104   1.384  13.419
78340W        W43600  40.545  23.687  13.723
78341W        W43601   3.793  29.369  13.857
78342W        W43602  43.572  15.833  11.984
78343W        W43603  34.410   1.771  13.522
78344W        W43604   9.049  29.692  14.688
78345W        W43605  21.183   0.742   2.715
78346W        W43606  24.558   6.215   5.074
78347W        W43607  10.198  14.588   1.423
78348W        W43608  16.601  16.554   3.369
78349W        W43609  37.983  28.990  10.274
78350W        W43610  34.101   4.747  11.558
78351W        W43611  13.828   6.424   4.593
78352W        W43612  12.361  22.325   4.188
78353W        W43613  25.738  17.221  14.468
78354W        W43614  17.063  13.602   1.732
78355W        W43615  15.227   6.158   3.621
78356W        W43616  35.742  43.731  13.395
78357W        W43617  15.514  12.166   1.896
78358W        W43618  16.690   2.339  14.451
78359W        W43619   1.915  24.566  13.843
78360W        W43620  43.065  23.702   4.749
78361W        W43621   8.072  38.428  10.664
78362W        W43622  32.410  24.818  10.836
78363W        W43623  13.390  35.526   4.161
78364W        W43624  29.041  41.982   0.736
78365W        W43625   3.615   8.839   1.690
78366W        W43626  34.380  39.416   4.259
78367W        W43627  20.968  44.869   0.950
78368W        W43628  17.682  31.734   0.470
78369W        W43629  40.386   2.503   2.308
78370W        W43630  10.363  15.733   2.267
78371W        W43631  21.473  40.247   3.303
78372W        W43632  13.793  39.951  11.471
78373W        W43633  20.372  13.576  12.979
78374W        W43634  16.329  15.754   2.895
78375W        W43635  36.545  37.469   3.569
78376W        W43636  23.364   3.900  11.600
78377W        W43637   9.153  34.412   2.921
78378W        W43638  33.950  22.067   3.573
78379W        W43639  18.024  37.656  12.783
78380W        W43640   8.846   5.479  10.726
78381W        W43641  11.549   5.116  14.254
78382W        W43642  17.095  43.521   4.245
78383W        W43643  14.166  40.059  10.656
78384W        W43644  17.127   9.294  12.949
78385W        W43645  34.136  32.476  10.439
78386W        W43646  14.785  10.950  14.738
78387W        W43647  38.794  34.183   3.924
78388W        W43648  29.377  31.135  11.989
78389W        W43649  11.747  32.739  13.102
78390W        W43650  33.878  31.685   1.497
78391W        W43651  35.503   0.891   4.027
78392W        W43652  40.070  42.752  12.388
78393W        W43653   0.065  31.061  14.431
78394W        W43654   5.528  20.933   4.598
78395W        W43655  16.827   9.135  13.744
78396W        W43656  15.140  24.627  13.765
78397W        W43657  35.427  12.397   0.749
78398W        W43658  34.079   1.452   1.884
78399W        W43659  27.079  29.403  14.136
78400W        W43660   2.615  25.736  13.761
78401W        W43661  37.037  34.710   2.630
78402W        W43662   0.071  34.439   0.652
78403W        W43663  21.076  17.894   0.188
78404W        W43664  19.369  40.970   0.388
78405W        W43665  28.605  27.573   4.350
78406W        W43666  24.266  11.821   0.714
78407W        W43667   0.068  43.312   2.292
78408W        W43668  24.112  14.568  14.423
78409W        W43669  32.583  29.901   0.164
78410W        W43670  16.261  32.876   0.936
78411W        W43671   5.151  26.895   3.626
78412W        W43672  28.839  25.466   9.577
78413W        W43673  36.319  12.074  12.659
78414W        W43674  10.122  14.305   0.886
78415W        W43675  37.539  17.231  13.966
78416W        W43676  21.054  20.163  13.041
78417W        W43677  13.060  25.921   2.148
78418W        W43678  13.690  38.747  10.839
78419W        W43679   9.965  36.416  14.138
78420W        W43680  42.303   5.314   0.516
78421W        W43681   8.124  14.037   2.895
78422W        W43682  43.430  33.438   4.563
78423W        W43683   1.019  16.757  11.453
78424W        W43684  37.907   3.407  11.705
78425W        W43685  43.952  41.499  13.443
78426W        W43686  11.307  10.967  11.528
78427W        W43687  12.668  31.287   3.221
78428W        W43688   3.676  22.297   3.143
78429W        W43689   4.991   8.099  12.966
78430W        W43690  42.764   6.984   3.803
78431W        W43691  21.469  30.528  13.504
78432W        W43692   3.786  19.453   2.940
78433W        W43693  25.053  31.043   3.524
78434W        W43694  14.872  12.817  13.033
78435W        W43695  34.544   8.145   1.368
78436W        W43696  32.546  26.637   3.147
78437W        W43697  13.053  38.468  11.580
78438W        W43698  24.082  26.125   0.193
78439W        W43699  20.786  23.669   0.757
78440W        W43700   5.852   0.203  14.716
78441W        W43701  28.424  11.838   0.417
78442W        W43702  32.063  39.501   3.766
78443W        W43703   4.557  16.290   0.351
78444W        W43704  34.039   5.673   3.584
78445W        W43705  41.101  11.602  12.995
78446W        W43706  40.212  17.071  10.360
78447W        W43707  42.645  43.888   2.213
78448W        W43708  30.839  36.876  13.824
78449W        W43709  27.466  30.030  14.219
78450W        W43710  23.735  10.754   4.719
78451W        W43711  42.819  12.765  13.025
78452W        W43712   0.103   8.682   5.572
78453W        W43713  24.871  19.818   5.692
78454W        W43714  17.519  24.304  11.689
78455W        W43715  19.289  16.633   2.184
78456W        W43716  37.887  33.887   0.933
78457W        W43717   1.757  43.184  12.693
78458W        W43718  22.576  30.110  11.976
78459W        W43719  23.509   4.577   0.411
78460W        W43720  33.089  26.254   1.899
78461W        W43721  41.500  14.574  10.227
78462W        W43722  33.464  11.323  12.096
78463W        W43723  40.719  18.238   0.178
78464W        W43724  20.095  15.109  11.625
78465W        W43725   5.514  18.262  13.540
78466W        W43726  28.464  16.632  12.270
78467W        W43727  40.017  17.487   3.630
78468W        W43728  42.510  42.943  12.789
78469W        W43729  23.701   0.410  13.076
78470W        W43730   2.999  29.508  14.935
78471W        W43731  27.042  37.350   5.009
78472W        W43732  42.919  44.828   1.551
78473W        W43733   7.773  23.629   0.426
78474W        W43734  41.871  43.644  14.566
78475W        W43735  30.696   2.896  13.050
78476W        W43736   4.287  16.759  13.396
78477W        W43737  43.576  29.551   3.673
78478W        W43738  35.277  33.918  12.825
78479W        W43739  31.880  29.259   4.767
78480W        W43740  37.386   7.274  12.104
78481W        W43741   0.476  27.213   2.881
78482W        W43742  19.728  24.029  12.197
78483W        W43743  22.468  16.133   0.322
78484W        W43744  10.104  13.690   0.348
78485W        W43745  41.988  38.914  10.585
78486W        W43746  25.261  40.366  14.342
78487W        W43747  32.686  34.805   4.592
78488W        W43748  38.721   6.293   3.645
78489W        W43749   1.188  30.467   0.272
78490W        W43750   7.155  25.922   2.684
78491W        W43751  38.042  30.627  10.526
78492W        W43752  23.411  34.435  12.910
78493W        W43753  36.046  12.143   1.261
78494W        W43754   4.652  16.238  14.389
78495W        W43755  20.530  42.992  13.946
78496W        W43756   6.478  13.164   3.634
78497W        W43757   9.779  25.309  10.613
78498W        W43758  20.913   5.816   9.738
78499W        W43759  15.142   3.717   0.845
78500W        W43760  25.435  30.675  12.672
78501W        W43761  35.097  17.242   4.157
78502W        W43762  22.289  13.279   1.774
78503W        W43763   1.710  42.810   1.736
78504W        W43764  21.511  16.849   0.184
78505W        W43765  27.635  25.774  11.237
78506W        W43766  37.257  43.953  10.148
78507W        W43767  35.852  36.051  14.936
78508W        W43768   9.823  28.182   3.121
78509W        W43769  23.722  19.875   0.850
78510W        W43770  40.492  11.846  11.173
78511W        W43771  35.891  29.675   0.952
78512W        W43772  26.117  27.560   1.229
78513W        W43773   7.036  23.573  14.011
78514W        W43774  31.813   8.116   3.332
78515W        W43775  30.047  37.577   0.276
78516W        W43776  45.000  38.076  13.521
78517W        W43777  26.520  10.285  11.709
78518W        W43778  34.107  37.332  10.759
78519W        W43779  24.149  11.117  11.538
78520W        W43780  30.341  21.446   1.860
78521W        W43781  33.407  10.346  13.463
78522W        W43782  18.753  23.337   2.475
78523W        W43783  38.444  43.686   4.203
78524W        W43784   5.385  12.363   2.829
78525W        W43785   5.985  36.612   0.222
78526W        W43786  37.338  22.032  14.420
78527W        W43787  14.207  21.580   0.673
78528W        W43788  24.928  11.233  14.405
78529W        W43789  22.010   6.475   0.373
78530W        W43790   4.312  20.698  11.311
78531W        W43791   4.532  37.931  10.521
78532W        W43792  26.480  32.639  10.483
78533W        W43793  33.072  37.625  13.302
78534W        W43794   9.334   3.762   1.890
78535W        W43795  17.294  13.018   4.137
78536W        W43796  34.321  30.178   3.248
78537W        W43797  40.958  34.980  12.384
78538W        W43798  12.659  11.144  11.514
78539W        W43799   1.258  29.117   1.731
78540W        W43800   9.569  42.065  11.881
78541W        W43801  17.577  17.822   1.478
78542W        W43802  11.401   9.600  12.074
78543W        W43803  38.141   7.430   3.221
78544W        W43804  16.848  35.870   2.277
78545W        W43805  44.231  20.816  12.328
78546W        W43806  28.773  17.515   2.261
78547W        W43807   6.764  36.046  14.457
78548W        W43808  29.153   9.902  10.604
78549W        W43809   1.995   2.891   4.638
78550W        W43810  12.267  31.173  14.358
78551W        W43811  23.987  13.792  11.162
78552W        W43812  39.941  28.307   2.804
78553W        W43813  24.300   1.849   0.880
78554W        W43814   2.979  26.549  12.830
78555W        W43815  36.411  43.514  14.957
78556W        W43816   8.364  34.647   4.827
78557W        W43817  44.048   6.694   4.236
78558W        W43818  34.209   7.369  12.021
78559W        W43819  11.638  43.994  14.349
78560W        W43820  42.789  35.031   3.646
78561W        W43821  22.027  12.065  11.043
78562W        W43822  24.699  39.365  12.158
78563W        W43823  13.183   7.906   3.727
78564W        W43824  38.602  17.226  14.027
78565W        W43825  32.658  11.708   3.636
78566W        W43826  44.474  13.747  13.043
78567W        W43827  15.679  41.828  12.086
78568W        W43828  26.068  15.318   0.277
78569W        W43829  21.013   7.914   4.237
78570W        W43830  13.673   1.232  11.970
78571W        W43831  35.302  17.078   1.865
78572W        W43832  21.080  34.879  11.983
78573W        W43833  19.770  25.343   2.372
78574W        W43834  29.847  12.389  14.565
78575W        W43835  29.763   8.388  12.500
78576W        W43836   9.233  17.339   0.903
78577W        W43837  18.719  30.530  10.583
78578W        W43838  20.716   0.926   1.687
78579W        W43839  10.304  22.478   3.207
78580W        W43840  30.172  21.355   2.377
78581W        W43841  30.545   5.620   4.740
78582W        W43842  24.186  10.753  12.469
78583W        W43843  18.856  30.460   2.746
78584W        W43844  35.074  35.380  10.627
78585W        W43845  11.541  36.726   0.857
78586W        W43846  30.523   6.244  10.599
78587W        W43847  12.809  15.550  13.053
78588W        W43848  16.655  29.012   2.387
78589W        W43849  20.758  32.223  12.716
78590W        W43850   4.674  11.387  11.644
78591W        W43851  17.319  41.367  12.078
78592W        W43852   5.955   2.451   3.171
78593W        W43853  29.738  22.665   4.703
78594W        W43854  15.553   1.936   1.044
78595W        W43855  44.685  44.367  10.592
78596W        W43856   6.820   6.284   1.904
78597W        W43857  36.455  19.532   3.597
78598W        W43858  17.243   3.420   3.572
78599W        W43859   9.764   4.021  14.876
78600W        W43860  36.573  15.511  14.099
78601W        W43861  10.671   5.219  14.747
78602W        W43862  39.938  14.731   4.877
78603W        W43863  43.944  35.363   4.180
78604W        W43864  24.184  39.592   2.345
78605W        W43865  34.182  44.141  14.031
78606W        W43866  40.349  29.423   4.537
78607W        W43867  10.261   0.355  14.091
78608W        W43868  37.507  37.048   3.829
78609W        W43869  25.251  24.580   2.186
78610W        W43870  12.715  15.599  12.108
78611W        W43871   8.404  23.728  10.704
78612W        W43872  33.491  16.331  11.156
78613W        W43873  24.566   5.943  10.788
78614W        W43874   8.817  11.894   0.856
78615W        W43875  20.372  42.031   0.391
78616W        W43876  28.070  22.720   2.305
78617W        W43877  11.437  26.056   4.600
78618W        W43878  29.931  23.076  10.528
78619W        W43879  11.839  17.338  11.815
78620W        W43880   9.016   2.955   1.595
78621W        W43881  11.162  16.639  14.323
78622W        W43882   0.534  34.453   4.884
78623W        W43883  28.511  29.636  13.476
78624W        W43884  23.093  39.780   0.429
78625W        W43885  10.820  34.392   4.389
78626W        W43886  26.134  41.304   4.316
78627W        W43887  18.708  16.773  11.563
78628W        W43888  42.711   6.401  10.826
78629W        W43889  40.417  16.469  13.345
78630W        W43890  31.509  36.777   4.641
78631W        W43891  18.138  21.497  13.865
78632W        W43892  42.195  40.839  14.411
78633W        W43893  22.991  44.953   1.684
78634W        W43894  21.623   2.747   2.397
78635W        W43895  38.703  24.431   1.482
78636W        W43896  13.708   5.733  11.323
78637W        W43897  43.080  27.633  13.953
78638W        W43898  15.649   2.432   3.664
78639W        W43899   3.276  26.265  14.413
78640W        W43900  42.203  12.471  10.258
78641W        W43901   4.243   8.484  12.072
78642W        W43902  32.168  10.068  13.026
78643W        W43903  32.118  15.499  10.752
78644W        W43904   0.372  39.063   4.910
78645W        W43905  33.591  11.260   1.772
78646W        W43906  37.485  19.542   5.044
78647W        W43907  10.665  26.107  13.031
78648W        W43908  40.627  27.846  12.108
78649W        W43909  25.610   0.830  10.715
78650W        W43910  22.770  33.415   1.327
78651W        W43911  12.438  43.532  13.286
78652W        W43912  30.526  35.760  12.625
78653W        W43913  20.806  38.531   2.724
78654W        W43914  19.054  16.367  11.571
78655W        W43915   4.893  16.764  12.179
78656W        W43916  29.166  10.352  14.911
78657W        W43917  37.861   3.329   1.655
78658W        W43918   1.712  29.493  12.299
78659W        W43919  17.654  10.570  13.358
78660W        W43920  16.091  44.772  14.541
78661W        W43921  36.025  10.632   1.948
78662W        W43922  44.985  39.870   4.248
78663W        W43923  27.508   5.954  13.905
78664W        W43924  19.767  23.217   0.387
78665W        W43925  23.596   7.614   1.464
78666W        W43926   9.352  13.048  14.777
78667W        W43927  40.991  21.587   4.425
78668W        W43928  30.571   7.416   1.945
78669W        W43929   9.348  21.178  10.293
78670W        W43930  19.812   0.452   3.641
78671W        W43931  14.313   0.036  12.993
78672W        W43932  36.353  13.231   2.626
78673W        W43933  11.645  26.042  14.920
78674W        W43934  24.064  15.015  10.533
78675W        W43935  25.576  35.337  12.525
78676W        W43936  38.000  15.150   2.536
78677W        W43937  37.079  16.935   3.141
78678W        W43938  14.345   4.720   2.120
78679W        W43939  14.735  40.746  10.774
78680W        W43940  32.067  28.075   5.219
78681W        W43941  19.619  11.527  14.821
78682W        W43942  25.929  11.986  11.666
78683W        W43943   7.398  37.045   5.078
78684W        W43944  36.912  34.619  12.228
78685W        W43945  22.762  12.193   1.492
78686W        W43946  41.470  18.400   3.637
78687W        W43947  31.337  14.613  12.463
78688W        W43948  25.332  37.004   2.199
78689W        W43949   9.174  19.718   2.512
78690W        W43950  23.945  38.089   2.233
78691W        W43951  28.616  34.341   1.824
78692W        W43952  13.050  29.523  10.694
78693W        W43953  10.596  10.671   0.365
78694W        W43954   3.401   1.123   2.019
78695W        W43955  32.131   5.658  12.036
78696W        W43956  41.076  10.326  14.659
78697W        W43957  11.042  43.442   3.158
78698W        W43958  16.925   6.937   4.613
78699W        W43959   0.305  14.175  14.982
78700W        W43960  13.236   9.973   2.380
78701W        W43961   3.701  19.208  14.089
78702W        W43962  27.112  22.013  14.749
78703W        W43963  10.958   4.304   5.472
78704W        W43964  40.465  38.075   0.223
78705W        W43965  25.956  41.618  11.278
78706W        W43966  12.026   1.487   1.310
78707W        W43967   7.733   9.151   2.112
78708W        W43968  24.688   3.862  12.677
78709W        W43969  33.438  40.977   2.699
78710W        W43970   5.993  35.030  11.980
78711W        W43971   1.721  14.121  12.971
78712W        W43972   7.841   0.220  12.992
78713W        W43973  21.223  31.490   2.166
78714W        W43974  16.562  11.936   4.081
78715W        W43975  34.540   1.608  13.995
78716W        W43976  26.049  28.225  11.913
78717W        W43977   2.788  14.536   4.388
78718W        W43978  28.948  12.755   4.175
78719W        W43979   5.828  40.103  13.240
78720W        W43980  19.193  24.067   2.773
78721W        W43981  36.885  10.658  12.978
78722W        W43982  28.480  23.704   4.022
78723W        W43983   5.826  38.115  11.172
78724W        W43984  35.349  31.912  10.727
78725W        W43985  10.255  22.465   4.154
78726W        W43986  17.648  18.704  12.533
78727W        W43987  27.840  19.929   1.953
78728W        W43988   1.719  33.500  13.925
78729W        W43989  35.423   5.331   2.811
78730W        W43990  34.359   6.306  14.519
78731W        W43991  19.813   7.000   4.588
78732W        W43992  31.120  41.410   1.168
78733W        W43993   4.836  16.821   0.740
78734W        W43994   3.760   0.430  10.772
78735W        W43995  30.649  16.651   2.745
78736W        W43996  42.821  22.764  14.996
78737W        W43997   3.830  10.130  14.020
78738W        W43998  11.808  42.308   0.424
78739W        W43999  22.426   6.407   3.122
78740W        W44000   2.828  36.055  14.755
78741W        W44001   3.479  27.582   3.682
78742W        W44002  38.919  36.600   1.628
78743W        W44003  34.078   1.513   4.654
78744W        W44004  16.222   2.992  10.714
78745W        W44005   1.383   1.816   4.043
78746W        W44006  34.010  14.856   0.053
78747W        W44007  21.667  20.536  11.373
78748W        W44008  38.946  28.648   3.626
78749W        W44009  27.032   4.362  14.884
78750W        W44010   2.112   0.811  10.206
78751W        W44011  28.771  23.344  10.746
78752W        W44012  26.937   1.550   1.845
78753W        W44013  37.027  16.412   4.053
78754W        W44014  41.447  30.028   0.974
78755W        W44015  30.908  22.238  13.719
78756W        W44016  26.213   3.596   1.105
78757W        W44017  17.633  38.839  12.370
78758W        W44018  44.821  33.466   2.297
78759W        W44019   3.334  29.775  10.638
78760W        W44020  13.303  15.555  12.952
78761W        W44021  28.247  13.786  10.714
78762W        W44022  34.107  26.190   2.628
78763W        W44023  39.467  25.610  13.821
78764W        W44024   2.009  36.535  12.606
78765W        W44025  21.592  40.693   0.826
78766W        W44026  41.910  24.882   3.762
78767W        W44027  38.976  26.432   2.134
78768W        W44028  23.562  31.987   1.743
78769W        W44029   9.778  42.794  14.836
78770W        W44030  17.995   2.172   3.116
78771W        W44031  27.749  25.587  13.749
78772W        W44032  23.636  44.578  12.656
78773W        W44033  19.656  36.838  12.923
78774W        W44034  28.464  13.856   3.442
78775W        W44035   5.712  20.445  12.005
78776W        W44036  36.388  26.767   3.746
78777W        W44037   9.917  44.387  12.736
78778W        W44038  24.588   1.367  12.105
78779W        W44039   3.992  37.123  13.052
78780W        W44040  44.924  39.062  10.705
78781W        W44041  28.472  10.397  12.033
78782W        W44042  13.374  14.541   3.240
78783W        W44043  19.610  42.858  10.856
78784W        W44044   5.903  27.261   5.378
78785W        W44045  14.359  28.851  14.948
78786W        W44046  43.231  21.178   3.859
78787W        W44047  33.633  22.476  12.071
78788W        W44048  21.333  13.622  12.467
78789W        W44049   3.337   1.267   4.103
78790W        W44050  33.815  41.813  12.002
78791W        W44051  37.051  32.046  13.730
78792W        W44052   3.443  11.578  13.938
78793W        W44053  37.997  10.606  11.035
78794W        W44054  28.933  39.065   2.117
78795W        W44055  44.285   5.852   0.311
78796W        W44056  30.506  35.476   2.091
78797W        W44057  44.579  24.706   5.072
78798W        W44058   7.806  26.641   2.786
78799W        W44059  10.870  42.232  10.866
78800W        W44060  29.224  35.933  13.489
78801W        W44061   9.463  11.120  11.390
78802W        W44062  27.470  17.752   4.948
78803W        W44063  20.619  40.277   5.069
78804W        W44064  30.007  26.754  11.156
78805W        W44065   8.645  23.076  11.436
78806W        W44066  34.233  33.746  13.921
78807W        W44067  28.910  17.696  12.493
78808W        W44068  19.739  26.548  13.499
78809W        W44069  40.176  39.279   1.510
78810W        W44070  11.103  40.240   0.207
78811W        W44071   5.301  24.003   2.715
78812W        W44072  21.659  18.313  11.152
78813W        W44073  36.424  38.347   4.587
78814W        W44074   1.319   0.524   4.258
78815W        W44075  11.425   2.019  12.944
78816W        W44076  21.628  18.707   5.791
78817W        W44077  24.604   4.740   1.790
78818W        W44078   5.460   0.005   4.104
78819W        W44079  11.398  11.479  11.357
78820W        W44080  34.001  25.448   2.201
78821W        W44081  11.452  34.122   2.577
78822W        W44082  26.642  32.523  14.216
78823W        W44083   1.513  29.139   2.197
78824W        W44084  42.788  12.050   1.214
78825W        W44085  19.525  20.618  12.606
78826W        W44086  40.893  21.721   0.779
78827W        W44087  42.740   3.738  10.545
78828W        W44088   5.456   9.810  12.458
78829W        W44089  14.063  36.984  12.114
78830W        W44090   0.363  15.567  11.148
78831W        W44091  11.441  12.050  13.421
78832W        W44092  38.599  18.218   1.608
78833W        W44093   7.296  12.210  10.589
78834W        W44094  30.709  20.580  12.432
78835W        W44095  24.206  12.569  11.538
78836W        W44096  27.766  24.548   0.838
78837W        W44097   9.931   8.626  11.381
78838W        W44098  24.674   5.733  10.321
78839W        W44099  23.324  36.399  11.633
78840W        W44100  27.534  37.776   0.341
78841W        W44101  23.625  30.943   0.976
78842W        W44102  14.792  41.099   3.333
78843W        W44103  27.594  32.121  13.432
78844W        W44104  19.827  18.047   1.808
78845W        W44105  19.543  22.232  14.000
78846W        W44106  19.046  38.551   4.351
78847W        W44107  25.441   7.825   3.969
78848W        W44108  39.906  23.088   0.433
78849W        W44109  13.632  24.813  12.037
78850W        W44110  41.831  33.172   2.766
78851W        W44111  10.852  15.765  11.634
78852W        W44112   6.179  39.529  14.799
78853W        W44113  31.183  33.565  11.626
78854W        W44114  44.015  28.784  10.859
78855W        W44115  12.815  31.000   3.750
78856W        W44116  42.905  18.102   1.250
78857W        W44117  38.365   9.371   1.836
78858W        W44118  15.706   5.892   0.721
78859W        W44119  13.965  19.377  14.439
78860W        W44120  31.045  39.492   4.985
78861W        W44121   1.011  44.602  12.785
78862W        W44122  32.372  44.773   4.210
78863W        W44123  20.451  42.380   2.129
78864W        W44124  26.182  25.040   2.935
78865W        W44125   8.399  29.638  12.481
78866W        W44126  10.311  25.761   3.268
78867W        W44127   3.164  34.830  14.878
78868W        W44128  10.923  17.119  12.256
78869W        W44129   4.450  42.272  13.385
78870W        W44130   9.145  10.092   0.019
78871W        W44131  24.022  23.066   2.914
78872W        W44132  44.318  41.261  14.994
78873W        W44133  18.365  18.183  10.669
78874W        W44134   1.801  43.727   1.857
78875W        W44135  28.847   0.799  12.244
78876W        W44136  15.749  30.054  14.485
78877W        W44137  24.975  21.739   3.669
78878W        W44138   0.423  31.654  14.996
78879W        W44139   8.284   2.776  14.993
78880W        W44140  41.613   1.422   1.298
78881W        W44141  16.608  14.524   3.496
78882W        W44142  41.665  29.605   0.735
78883W        W44143  15.630  22.723   3.578
78884W        W44144  29.691  22.762   3.794
78885W        W44145  19.768  29.133  11.102
78886W        W44146   3.178  25.578  12.538
78887W        W44147  36.674   6.588  11.632
78888W        W44148  43.621  37.847   2.290
78889W        W44149   9.175   7.661  10.838
78890W        W44150   6.593  23.314  13.849
78891W        W44151  31.150  41.432  13.054
78892W        W44152   7.473  37.929  13.401
78893W        W44153   3.439  30.172  14.172
78894W        W44154   8.164  35.504   4.578
78895W        W44155  42.846  10.343  11.950
78896W        W44156  21.657  38.513  11.551
78897W        W44157  14.778  25.006  13.555
78898W        W44158  23.328  32.986   0.783
78899W        W44159  25.764   3.281  11.089
78900W        W44160  29.678  31.835  10.077
78901W        W44161  21.336  39.885  12.266
78902W        W44162  38.488  18.164   4.579
78903W        W44163  18.426  21.279   3.721
78904W        W44164  39.836  14.625  14.867
78905W        W44165  11.001   7.461  13.944
78906W        W44166   0.050   0.997  12.754
78907W        W44167  43.763  13.375  14.881
78908W        W44168   7.418  33.558  11.626
78909W        W44169  10.378  17.036  12.977
78910W        W44170  30.191   0.398   0.724
78911W        W44171  22.950  41.822  14.346
78912W        W44172  35.882  26.666   4.584
78913W        W44173  26.861   5.796   2.160
78914W        W44174  39.980   7.453  14.035
78915W        W44175  39.336  24.961  13.956
78916W        W44176  36.853  44.348   4.097
78917W        W44177  38.153  16.485   1.362
78918W        W44178  32.454   4.717   3.229
78919W        W44179  36.893   1.030  13.103
78920W        W44180  43.074  22.698  11.545
78921W        W44181  32.905   2.264   4.767
78922W        W44182  11.353  25.075  14.264
78923W        W44183   3.536   6.589   1.540
78924W        W44184  17.206  31.292  13.900
78925W        W44185   2.500  26.263   9.872
78926W        W44186  27.889   8.727  13.632
78927W        W44187  15.883  18.099   4.086
78928W        W44188  27.194  18.529  12.429
78929W        W44189  19.535   2.157  10.677
78930W        W44190  39.519  17.123   4.743
78931W        W44191  12.715  12.341   1.012
78932W        W44192  20.967   4.327   3.066
78933W        W44193  36.959  21.527  10.700
78934W        W44194   6.006  17.979  14.924
78935W        W44195   8.752  11.351   4.667
78936W        W44196   2.732   3.959   1.826
78937W        W44197  43.369   0.813  10.741
78938W        W44198  33.847  38.862   2.773
78939W        W44199  36.551  44.500   5.384
78940W        W44200   6.164  35.176   4.195
78941W        W44201  37.758  11.041   0.333
78942W        W44202  26.606   5.443  12.517
78943W        W44203  20.199  18.178   3.356
78944W        W44204   2.274  13.707   0.821
78945W        W44205  13.607  41.251  11.156
78946W        W44206  33.410   5.282   2.454
78947W        W44207  16.007  38.511  12.900
78948W        W44208  17.722  20.225  11.218
78949W        W44209  24.087  22.632   4.639
78950W        W44210  41.278   8.881  14.896
78951W        W44211   5.918  26.234  10.237
78952W        W44212  33.342  34.916  14.775
78953W        W44213  10.112   7.838  14.841
78954W        W44214   2.794   7.597   1.919
78955W        W44215  18.297  25.172   1.899
78956W        W44216   7.078  21.732  12.094
78957W        W44217  35.130  39.172  10.652
78958W        W44218   5.379  10.714   0.487
78959W        W44219  32.343  16.068   1.364
78960W        W44220   8.305  14.345   4.078
78961W        W44221  39.452  10.417  13.254
78962W        W44222   4.924  34.902   4.985
78963W        W44223  13.633  20.192   3.749
78964W        W44224  23.933  18.853   3.676
78965W        W44225  13.240   8.840  11.569
78966W        W44226  36.950   9.902  13.862
78967W        W44227  33.241  17.202  11.058
78968W        W44228  37.056   4.784   2.749
78969W        W44229  23.095  14.646   2.435
78970W        W44230  30.600  42.320  12.871
78971W        W44231   7.110  30.066   0.792
78972W        W44232  43.317   5.980   4.535
78973W        W44233  35.971  13.199  13.064
78974W        W44234  24.849  36.379  11.906
78975W        W44235  32.557   6.907   5.038
78976W        W44236  12.412   8.284  13.779
78977W        W44237   3.700  41.108  14.632
78978W        W44238  10.984  41.223   3.664
78979W        W44239  39.548  40.309   4.475
78980W        W44240   3.447   9.718  11.040
78981W        W44241  21.173  29.358   0.313
78982W        W44242  22.911  14.536  13.348
78983W        W44243   2.765  41.839   3.783
78984W        W44244   5.909  31.571  12.150
78985W        W44245  13.812  12.747  14.581
78986W        W44246  36.324  34.603  12.966
78987W        W44247  23.658  12.739   0.720
78988W        W44248  39.046   6.528   1.174
78989W        W44249  18.270  14.604   3.281
78990W        W44250  27.657  11.422  11.568
78991W        W44251   1.234  22.548   1.900
78992W        W44252   9.470  44.690  11.510
78993W        W44253   0.013   1.910   4.376
78994W        W44254  19.126  33.216  12.917
78995W        W44255  22.996  36.308  13.405
78996W        W44256   4.794   2.912   0.812
78997W        W44257  30.975  39.319  13.663
78998W        W44258  20.614  31.209  14.483
78999W        W44259   1.278  16.084   3.848
79000W        W44260   3.217  14.312   4.641
79001W        W44261  24.725  29.213   3.140
79002W        W44262  14.644  11.897   3.249
79003W        W44263  27.249  14.658   2.364
79004W        W44264  15.206  28.685  12.044
79005W        W44265   7.262  11.122  13.795
79006W        W44266   0.253  20.622   4.262
79007W        W44267   6.379  43.645   0.187
79008W        W44268  28.683  43.244   2.818
79009W        W44269   3.397   0.655  10.488
79010W        W44270  22.101   2.017   0.329
79011W        W44271  38.295  24.690   2.213
79012W        W44272  27.635  16.417  14.998
79013W        W44273  34.710  43.899   1.467
79014W        W44274   4.920  39.469   4.569
79015W        W44275  16.157  28.769  14.522
79016W        W44276   1.494  23.463   1.236
79017W        W44277  37.440  34.620   4.294
79018W        W44278   4.843  25.480   1.285
79019W        W44279  13.865   3.060  11.172
79020W        W44280   6.801  21.557  12.992
79021W        W44281  24.183   7.228  10.768
79022W        W44282  27.528  29.908   2.817
79023W        W44283   5.054  25.584  10.373
79024W        W44284   9.023   3.809   0.209
79025W        W44285  18.317  35.549  10.953
79026W        W44286  31.908   3.424   1.462
79027W        W44287   0.147  44.829   3.850
79028W        W44288  29.743  35.298  13.097
79029W        W44289  34.959  27.096  14.600
79030W        W44290  21.474  37.384   2.054
79031W        W44291   9.228  38.072   2.202
79032W        W44292  36.587  17.515  10.507
79033W        W44293  36.544  18.822   2.357
79034W        W44294  35.095  30.111   4.142
79035W        W44295  44.342  35.073  13.000
79036W        W44296  42.794  44.530   3.146
79037W        W44297   3.097   3.893   1.420
79038W        W44298  25.156  29.518   4.876
79039W        W44299  23.172  30.525  14.794
79040W        W44300  37.458   7.070   2.850
79041W        W44301  29.389   1.388   0.315
79042W        W44302  13.821  10.646  12.803
79043W        W44303   8.419  38.564  14.285
79044W        W44304  13.323  28.906  13.352
79045W        W44305  44.324  25.202   1.747
79046W        W44306  33.347   6.198  14.233
79047W        W44307  31.468  24.801   0.472
79048W        W44308  21.734   1.213   4.323
79049W        W44309  17.342   6.444  13.162
79050W        W44310  15.512  30.185   1.547
79051W        W44311  20.712   2.388  10.456
79052W        W44312  22.979  32.564  13.575
79053W        W44313  12.326  22.092   0.010
79054W        W44314  29.971  44.163  12.503
79055W        W44315  12.310  13.109   2.224
79056W        W44316   2.322  32.814   1.430
79057W        W44317  31.756  23.631   4.943
79058W        W44318  31.345   5.432   1.824
79059W        W44319  42.801  27.510  14.403
79060W        W44320   2.903  23.441  12.928
79061W        W44321   7.660  40.280  14.867
79062W        W44322  27.780  41.000  10.759
79063W        W44323  24.388  14.899   1.119
79064W        W44324  19.612  35.411   0.729
79065W        W44325  16.277  20.364   2.608
79066W        W44326  13.702  10.738   0.470
79067W        W44327  14.191   0.911   2.667
79068W        W44328  42.309   0.873  11.655
79069W        W44329   2.909  42.755   3.365
79070W        W44330  25.664  41.035  11.573
79071W        W44331   1.734   2.112   3.297
79072W        W44332  31.532  33.200  10.667
79073W        W44333  27.649  40.996  12.586
79074W        W44334  22.125  15.616   3.377
79075W        W44335  18.652   9.544   1.339
79076W        W44336  26.543  42.294   1.343
79077W        W44337  17.112  28.597   0.237
79078W        W44338  23.500  11.266  14.814
79079W        W44339  20.703  15.165   3.872
79080W        W44340   2.426  18.618  12.970
79081W        W44341  10.952  27.762   5.168
79082W        W44342  18.193  21.109   4.969
79083W        W44343  16.306  15.028   0.542
79084W        W44344  27.646  29.650   1.359
79085W        W44345  35.757  21.595  12.878
79086W        W44346  39.625  32.879  14.370
79087W        W44347  13.219  12.768  13.265
79088W        W44348  41.932  32.634  12.945
79089W        W44349   3.766   4.635  12.043
79090W        W44350  37.583  14.559  13.686
79091W        W44351  40.070   5.346   4.463
79092W        W44352  22.983   1.856   2.143
79093W        W44353   5.370  27.190   1.388
79094W        W44354  29.113  27.016   0.536
79095W        W44355  13.181  39.261  11.096
79096W        W44356  27.677  17.222   1.721
79097W        W44357  15.548  28.458  11.749
79098W        W44358  11.063  17.729  10.314
79099W        W44359  22.431  23.118  11.921
79100W        W44360  10.207  16.951   4.370
79101W        W44361  37.441  22.163  12.554
79102W        W44362  35.932  15.726   1.841
79103W        W44363   4.321  27.204  14.735
79104W        W44364  16.718  36.133  14.399
79105W        W44365  44.814   5.806   0.308
79106W        W44366   0.898  32.912  13.410
79107W        W44367   4.288  20.938  13.778
79108W        W44368   4.365  13.120  12.448
79109W        W44369   6.439  42.606  14.339
79110W        W44370  37.790  17.290   1.707
79111W        W44371   8.676   0.898   4.422
79112W        W44372  13.722  30.361  11.382
79113W        W44373  43.306  36.993   0.238
79114W        W44374  10.387  43.919   2.459
79115W        W44375   3.981  25.484   2.781
79116W        W44376  26.442  34.055   3.226
79117W        W44377  18.289  43.356  13.065
79118W        W44378   7.399  22.263  14.234
79119W        W44379   1.187  33.872  11.569
79120W        W44380  20.133  21.043   3.333
79121W        W44381  14.665   0.157  13.440
79122W        W44382   9.910  32.492   1.676
79123W        W44383  21.459  34.206  14.444
79124W        W44384  13.167   6.787  12.385
79125W        W44385   5.601  28.756   1.784
79126W        W44386  33.203  20.293   0.002
79127W        W44387  12.221   4.947   2.223
79128W        W44388  43.038  34.044  14.034
79129W        W44389  15.307  14.358   3.629
79130W        W44390  15.188  44.953   1.228
79131W        W44391   1.930  33.150  13.009
79132W        W44392   7.416   1.359  10.347
79133W        W44393  36.579  40.535   0.810
79134W        W44394  17.742   3.832   4.733
79135W        W44395  29.089   8.887  12.919
79136W        W44396  36.422  32.127  14.332
79137W        W44397  30.091   6.788  13.987
79138W        W44398  21.252   3.913   3.132
79139W        W44399  40.531  36.652  14.132
79140W        W44400  22.928  21.850   9.811
79141W        W44401  12.284  44.837   2.305
79142W        W44402  13.764  39.431  12.801
79143W        W44403   7.796  12.236   2.335
79144W        W44404  13.122  30.512   3.545
79145W        W44405   9.203  11.066   2.258
79146W        W44406  33.093  36.579  13.405
79147W        W44407   2.889  17.539   4.744
79148W        W44408  30.715  31.101  14.982
79149W        W44409  22.987   1.237   3.532
79150W        W44410  20.419  24.253  12.807
79151W        W44411  44.968  29.690   0.902
79152W        W44412   5.399  24.144  13.354
79153W        W44413  11.288  31.474   3.147
79154W        W44414   5.035   2.437   0.810
79155W        W44415   2.623  19.176   2.280
79156W        W44416  30.070  43.709   4.055
79157W        W44417  38.939  12.107  12.108
79158W        W44418  29.493  41.874   0.498
79159W        W44419   4.735  29.711   3.258
79160W        W44420  38.968   1.119  12.208
79161W        W44421  17.393   0.391  12.625
79162W        W44422  24.699  36.392  13.981
79163W        W44423  18.790  36.004  14.337
79164W        W44424  36.976  27.890   1.432
79165W        W44425  35.146   1.013   3.620
79166W        W44426  15.376  39.355   2.799
79167W        W44427  16.619  14.688  14.217
79168W        W44428  29.042  42.678  14.925
79169W        W44429   9.822  41.839  14.117
79170W        W44430   7.431   5.321  12.817
79171W        W44431  15.876   0.788  13.042
79172W        W44432   2.463   8.765  11.118
79173W        W44433  40.598  24.600  13.363
79174W        W44434  11.696  20.981  12.279
79175W        W44435  11.271  41.956   0.999
79176W        W44436  17.602  31.487   3.692
79177W        W44437   9.679  34.001   3.178
79178W        W44438  30.021  23.923  13.416
79179W        W44439  23.767  43.071  10.774
79180W        W44440  40.817  31.691  12.390
79181W        W44441  17.321  14.418  12.842
79182W        W44442  19.160  29.306  14.416
79183W        W44443  11.774  26.630   0.987
79184W        W44444  16.249  17.553  13.593
79185W        W44445  29.467  24.715  11.622
79186W        W44446  39.589  11.900  11.008
79187W        W44447  35.050  43.255   0.835
79188W        W44448  37.132  22.981   3.681
79189W        W44449  28.250  33.971   1.776
79190W        W44450  26.890  32.887  13.032
79191W        W44451  14.560  23.107  12.465
79192W        W44452  12.034  36.270  10.699
79193W        W44453   6.199  30.488   3.912
79194W        W44454  18.529  35.019  13.529
79195W        W44455  38.111  38.115   1.231
79196W        W44456  34.458  26.810   3.281
79197W        W44457   9.267  23.755   4.131
79198W        W44458  10.068   1.094   4.822
79199W        W44459  38.584  12.806   4.056
79200W        W44460  29.352  34.656  11.106
79201W        W44461  43.825   6.735  11.153
79202W        W44462  30.494  22.101  11.228
79203W        W44463  31.164  30.454  11.907
79204W        W44464  42.949   2.291   0.904
79205W        W44465  38.457  38.513  13.793
79206W        W44466  38.487  30.667  12.352
79207W        W44467  14.142  21.090   1.996
79208W        W44468   6.211  27.380  13.337
79209W        W44469  23.777   5.652  11.143
79210W        W44470  28.675  12.262   1.479
79211W        W44471  40.865  34.069   3.167
79212W        W44472  41.450  40.475  10.448
79213W        W44473  43.334  23.752   2.107
79214W        W44474  38.411  43.518   1.389
79215W        W44475  23.606  44.383  10.156
79216W        W44476  10.178  11.852   4.693
79217W        W44477   6.837   9.197  14.829
79218W        W44478  41.736   9.864   2.908
79219W        W44479  15.643  30.190   0.344
79220W        W44480  17.303  43.790   3.693
79221W        W44481  43.032  13.951   3.194
79222W        W44482  23.232  10.368   2.270
79223W        W44483  16.071  34.676  13.999
79224W        W44484  33.972  13.310   2.227
79225W        W44485  27.125  39.512   1.920
79226W        W44486  32.527  43.393   4.169
79227W        W44487   8.867   6.417   0.947
79228W        W44488   3.430  19.338   4.696
79229W        W44489  19.776  37.811   3.151
79230W        W44490   0.791   9.994   0.027
79231W        W44491  16.810  44.261   1.674
79232W        W44492  37.541  24.255  13.068
79233W        W44493  28.342  24.417   0.586
79234W        W44494   8.972   2.846  11.045
79235W        W44495  39.826  11.624   2.727
79236W        W44496  29.857  17.407  11.053
79237W        W44497  10.290   9.577   0.213
79238W        W44498  38.371  19.873  14.329
79239W        W44499  17.610  39.834  13.379
79240W        W44500  13.087  42.491  10.581
79241W        W44501  16.682  42.806   3.587
79242W        W44502   2.244  21.818  10.753
79243W        W44503  40.548  16.770   0.215
79244W        W44504   2.981  28.139  11.174
79245W        W44505  36.391   6.848  11.988
79246W        W44506  23.923  25.232   1.290
79247W        W44507  18.209   0.203  10.729
79248W        W44508  12.245  22.060  14.030
79249W        W44509  28.926  19.438  11.608
79250W        W44510  26.398  26.678   2.999
79251W        W44511  26.226   2.285  14.321
79252W        W44512  21.278  25.045  11.190
79253W        W44513  10.261  16.813   4.935
79254W        W44514   2.019  23.945   1.146
79255W        W44515  21.775  38.015   4.052
79256W        W44516  21.643  39.662  11.207
79257W        W44517  29.330  21.430   4.106
79258W        W44518  32.162   6.869   2.929
79259W        W44519  24.557  39.041   5.353
79260W        W44520   5.629  41.356   1.681
79261W        W44521  19.253  41.989   1.234
79262W        W44522  44.338  19.656  10.986
79263W        W44523   9.850  41.320   0.974
79264W        W44524  10.214  23.579   0.435
79265W        W44525  15.124  36.426   3.178
79266W        W44526   3.945  10.247  14.515
79267W        W44527  29.941  10.880  14.425
79268W        W44528  25.563   8.737  11.454
79269W        W44529  33.797   4.434  10.132
79270W        W44530  27.790  31.040   0.130
79271W        W44531  36.702  14.344   4.944
79272W        W44532  34.408   5.401   0.020
79273W        W44533  12.042  35.980  11.997
79274W        W44534  28.232  14.613   3.854
79275W        W44535  28.234  15.674  14.879
79276W        W44536  20.746  11.536  10.849
79277W        W44537  16.529  28.466  12.004
79278W        W44538  28.604  22.132  13.424
79279W        W44539  31.418  42.067   2.808
79280W        W44540   9.675  31.694   0.335
79281W        W44541  16.350  12.197   3.662
79282W        W44542  12.896  29.708  10.218
79283W        W44543  41.582  35.614   1.291
79284W        W44544   7.948   4.693  14.844
79285W        W44545  38.252  34.438  12.142
79286W        W44546  22.261   6.140   2.705
79287W        W44547  24.084  22.684   2.240
79288W        W44548  34.341  13.366   4.772
79289W        W44549  41.887   3.134  12.617
79290W        W44550  23.489  21.528  14.435
79291W        W44551  16.164  11.639   4.250
79292W        W44552  21.977  37.968  14.021
79293W        W44553   5.263  36.489   2.671
79294W        W44554  31.218   6.651  10.653
79295W        W44555   6.133   9.203  14.086
79296W        W44556  19.519   3.330   0.374
79297W        W44557  25.397  25.770   3.186
79298W        W44558  11.822  22.040   1.288
79299W        W44559  26.431  13.768   1.491
79300W        W44560  40.285  23.278   1.307
79301W        W44561  18.611  13.779  14.396
79302W        W44562   6.746   4.185   3.308
79303W        W44563  19.052  36.098  12.844
79304W        W44564   8.448  38.319   0.487
79305W        W44565  19.732  13.130  13.356
79306W        W44566  31.455  22.906   4.560
79307W        W44567   4.836   8.909   3.681
79308W        W44568  37.599  17.208  14.834
79309W        W44569  27.557  10.050   0.356
79310W        W44570   3.335  18.503   2.445
79311W        W44571  39.904  11.932   4.586
79312W        W44572  24.452  43.809   2.742
79313W        W44573  36.776  28.795  11.002
79314W        W44574  24.468   5.434   0.842
79315W        W44575   0.185  10.528   2.211
79316W        W44576  33.136  12.401  13.524
79317W        W44577  42.729  43.757   0.050
79318W        W44578  40.747  40.005  12.466
79319W        W44579   0.966  21.537  14.291
79320W        W44580  40.373  14.129   1.260
79321W        W44581  33.919  23.828   0.741
79322W        W44582  20.017  44.511   4.861
79323W        W44583  37.965   0.899  14.838
79324W        W44584  22.997  36.620  14.375
79325W        W44585  14.038  21.987  13.821
79326W        W44586  23.656  40.464  14.395
79327W        W44587  31.554  14.412  11.886
79328W        W44588  36.428  29.211  11.140
79329W        W44589  23.661  39.577  14.932
79330W        W44590  26.932  15.665  11.094
79331W        W44591  15.758  41.463  13.981
79332W        W44592  29.417  36.943  12.351
79333W        W44593   2.115   3.288   2.638
79334W        W44594  33.881  42.756   4.993
79335W        W44595  40.838  26.182   3.295
79336W        W44596   4.714   5.890  11.221
79337W        W44597  44.180   0.696  14.794
79338W        W44598  39.327   6.514   4.127
79339W        W44599  13.133  32.356  10.456
79340W        W44600  10.239  14.803   3.292
79341W        W44601  10.246  43.918   4.068
79342W        W44602  43.743   0.381  14.918
79343W        W44603   1.683   4.612  14.373
79344W        W44604  42.813  13.473  10.934
79345W        W44605  39.532  34.224   0.057
79346W        W44606  30.574  24.392   5.077
79347W        W44607  22.298   2.329   3.726
79348W        W44608   8.666  12.408   0.932
79349W        W44609  40.898   1.162   0.983
79350W        W44610  40.044   1.247   0.938
79351W        W44611  40.476  35.057  14.717
79352W        W44612   9.242  41.772   3.664
79353W        W44613  31.716  28.901  13.257
79354W        W44614   1.349  26.717   1.411
79355W        W44615  40.360  34.126  13.397
79356W        W44616  41.347   7.754   3.176
79357W        W44617  39.528  16.643   2.729
79358W        W44618  27.869  37.398   3.700
79359W        W44619  43.727  34.103   2.873
79360W        W44620  17.699  16.183  12.436
79361W        W44621   2.357  43.878  14.929
79362W        W44622  15.593  28.156  14.771
79363W        W44623  35.418  19.494   3.140
79364W        W44624  34.534  27.225  12.540
79365W        W44625   5.034  42.530  14.431
79366W        W44626   7.757  34.203   0.556
79367W        W44627  32.184  35.063  13.550
79368W        W44628  38.772   3.799  11.613
79369W        W44629  19.621  34.093   0.187
79370W        W44630   6.324  40.823  13.505
79371W        W44631  16.066  21.897   3.580
79372W        W44632  34.573  34.478  14.021
79373W        W44633  12.165  11.765   1.238
79374W        W44634   0.915  40.126  14.743
79375W        W44635  12.328  42.043   2.270
79376W        W44636  39.013  33.755   1.479
79377W        W44637  27.600  28.887   3.631
79378W        W44638  29.405  17.181   0.654
79379W        W44639  11.371  12.354  11.094
79380W        W44640  31.376  10.073  10.999
79381W        W44641   0.655  39.591   4.319
79382W        W44642  13.058  28.956  11.534
79383W        W44643  25.936  23.112  11.678
79384W        W44644  28.690  21.654   3.795
79385W        W44645  13.561  39.311   3.357
79386W        W44646  38.415   9.865   0.944
79387W        W44647  39.459  43.147  13.237
79388W        W44648   4.758  20.456  13.866
79389W        W44649   5.479  38.428  14.047
79390W        W44650  38.398  20.845  14.644
79391W        W44651   5.406   4.714  11.179
79392W        W44652  36.739   5.393   0.460
79393W        W44653  44.941  18.611   2.755
79394W        W44654   1.875  42.352   1.962
79395W        W44655  27.252  37.811  14.865
79396W        W44656  11.660  34.155   4.354
79397W        W44657  20.048   5.186  14.400
79398W        W44658  14.110  37.403  13.528
79399W        W44659  33.663   2.877   4.899
79400W        W44660  16.569  29.690   3.644
79401W        W44661  10.505  11.675   3.385
79402W        W44662  40.020  15.954   2.830
79403W        W44663  34.124  37.511   1.244
79404W        W44664  26.168  37.637   0.436
79405W        W44665   6.267  19.524  13.934
79406W        W44666  23.137  33.312   0.349
79407W        W44667  23.240  42.796   2.184
79408W        W44668  26.107  33.628   1.276
79409W        W44669   9.161   6.369   1.390
79410W        W44670  27.137   7.410   2.692
79411W        W44671  18.681   7.676  11.497
79412W        W44672  33.377  31.849   0.966
79413W        W44673  42.270  21.648   1.893
79414W        W44674   8.464   9.893   2.780
79415W        W44675  44.434  12.999  14.352
79416W        W44676   9.558   6.574  11.453
79417W        W44677   8.863  42.869   0.608
79418W        W44678  25.129   9.471   4.070
79419W        W44679  33.802  44.353   2.760
79420W        W44680   8.443  25.963   3.168
79421W        W44681  23.009   8.977   3.717
79422W        W44682  18.948  23.378   1.346
79423W        W44683  20.776   7.161  14.092
79424W        W44684  24.327  42.963  12.685
79425W        W44685  26.103  11.955  12.864
79426W        W44686  38.805  23.998  13.430
79427W        W44687  40.942  37.916   0.029
79428W        W44688  18.045  21.952   0.103
79429W        W44689  13.747  13.269  14.160
79430W        W44690   9.759  36.447   4.772
79431W        W44691   1.007   1.891  13.585
79432W        W44692  23.794  20.086  11.641
79433W        W44693  23.852  26.220  11.163
79434W        W44694  17.049  34.497  14.961
79435W        W44695   2.721  13.822  13.992
79436W        W44696  28.270   5.348  12.416
79437W        W44697  26.648   4.764  13.900
79438W        W44698   0.036   4.662   2.348
79439W        W44699   1.538  16.075  11.901
79440W        W44700   9.106   1.095  12.919
79441W        W44701  30.509  33.652   4.601
79442W        W44702  24.551  19.686   0.795
79443W        W44703   8.871  30.664  12.838
79444W        W44704  25.017  22.582   0.166
79445W        W44705   6.842  28.182  13.095
79446W        W44706  30.670  18.508   4.584
79447W        W44707  17.273  40.886  14.520
79448W        W44708  19.574   2.573   0.982
79449W        W44709  17.261  16.070  13.403
79450W        W44710  37.163  20.124   2.045
79451W        W44711  27.549  16.100   4.111
79452W        W44712  23.253  17.945  12.170
79453W        W44713  28.381  31.053   0.909
79454W        W44714   6.225  38.235  10.575
79455W        W44715  11.237  36.262  12.106
79456W        W44716  17.800  28.665   1.284
79457W        W44717  31.605  33.170   3.297
79458W        W44718  30.106  31.809  13.765
79459W        W44719  19.547  16.117   3.188
79460W        W44720  39.081  15.086  12.021
79461W        W44721   2.884   5.121   2.322
79462W        W44722  21.242  13.520  14.855
79463W        W44723  12.179   8.391   2.306
79464W        W44724  34.870  20.694   2.674
79465W        W44725  29.226  27.971   0.948
79466W        W44726  26.486  22.611  13.157
79467W        W44727  44.318  33.908   4.559
79468W        W44728  14.106   8.872  14.875
79469W        W44729  11.230  28.265  12.283
79470W        W44730  26.593  22.804  11.184
79471W        W44731   9.472  37.534  10.310
79472W        W44732  34.535  31.701   0.354
79473W        W44733  18.630  37.598  10.550
79474W        W44734  10.210  43.264  12.999
79475W        W44735  25.099   3.263  11.973
79476W        W44736  24.489  12.267   2.303
79477W        W44737  37.730  38.538  11.976
79478W        W44738   5.343  10.373   4.086
79479W        W44739   6.188  27.903  13.457
79480W        W44740   4.999  38.087   4.284
79481W        W44741  41.043  33.252   0.480
79482W        W44742  39.622  42.748   0.372
79483W        W44743  32.353  31.173   3.334
79484W        W44744  39.455  44.891   4.277
79485W        W44745   2.697  27.841  14.559
79486W        W44746  43.531  36.289   2.419
79487W        W44747  16.035  22.862  11.206
79488W        W44748  18.661  13.096  10.553
79489W        W44749  31.693  23.992   2.837
79490W        W44750   1.824  19.512   0.106
79491W        W44751   6.356  16.640  11.175
79492W        W44752  24.587   7.150  12.012
79493W        W44753  18.097  31.468   1.339
79494W        W44754  34.921  43.433   1.356
79495W        W44755  41.758  30.426   2.620
79496W        W44756  21.257  21.081  12.760
79497W        W44757  12.783  24.041  12.798
79498W        W44758  16.563  24.071  12.018
79499W        W44759  20.197  39.398   0.302
79500W        W44760   4.015   8.272  13.077
79501W        W44761   6.118  12.819   1.932
79502W        W44762   7.366   5.631   0.916
79503W        W44763  26.951  35.843   0.851
79504W        W44764   7.568  29.641  11.045
79505W        W44765  20.326  10.325  11.569
79506W        W44766  40.389  39.795   4.805
79507W        W44767   1.520  12.112   5.342
79508W        W44768  30.282   6.559   4.811
79509W        W44769  34.087  11.949  13.913
79510W        W44770  16.996   2.518   1.597
79511W        W44771  35.658  37.738   1.031
79512W        W44772  20.060   3.682   3.668
79513W        W44773  27.348  17.167   1.294
79514W        W44774   0.741  16.952   1.383
79515W        W44775  22.357  28.928   2.987
79516W        W44776   8.391  20.791   2.714
79517W        W44777  21.047   3.792   2.640
79518W        W44778  27.948  11.877   4.728
79519W        W44779  15.425  24.212   0.516
79520W        W44780  38.353  44.536  13.071
79521W        W44781  25.370   9.124   1.992
79522W        W44782  33.285   1.443   2.449
79523W        W44783   0.524  27.729   3.631
79524W        W44784  10.775   2.269  11.041
79525W        W44785  44.514  36.425   3.343
79526W        W44786  37.434  10.595   2.757
79527W        W44787   4.732  33.117   2.394
79528W        W44788  22.765  31.052  13.860
79529W        W44789  29.054  16.176   2.475
79530W        W44790  35.524  26.103  11.287
79531W        W44791   8.358  23.663   4.070
79532W        W44792  34.807  39.452   1.338
79533W        W44793   2.269   0.381   0.845
79534W        W44794  11.801  28.210   2.916
79535W        W44795  32.453  35.217   2.890
79536W        W44796  14.160  31.684   4.486
79537W        W44797  23.176  31.718   1.443
79538W        W44798   4.260  32.022   4.995
79539W        W44799  37.256   7.288  10.690
79540W        W44800  32.182   9.717  14.694
79541W        W44801  26.768  10.199   5.012
79542W        W44802  34.076  15.761   2.314
79543W        W44803  21.924   6.834   3.768
79544W        W44804  32.448  38.370  13.500
79545W        W44805   3.742  23.516  13.331
79546W        W44806  26.150  32.703   2.832
79547W        W44807  44.563  10.815  12.882
79548W        W44808  24.062  21.472   3.745
79549W        W44809  10.358  32.862   2.762
79550W        W44810  36.410  44.237  13.015
79551W        W44811  37.845  19.120  11.111
79552W        W44812  44.904  13.177  13.109
79553W        W44813  18.857  32.142  13.656
79554W        W44814  14.184  41.615   0.939
79555W        W44815  28.382  22.968   4.458
79556W        W44816  16.470  11.637  12.455
79557W        W44817  32.130  44.384  11.118
79558W        W44818  30.994  43.785   3.703
79559W        W44819  16.944   1.191   5.020
79560W        W44820  13.286   5.225  13.380
79561W        W44821  23.682  16.109  12.591
79562W        W44822  39.495   8.360  13.979
79563W        W44823   2.029  40.363   0.417
79564W        W44824  39.982  14.611  13.355
79565W        W44825  18.514  16.155   0.361
79566W        W44826   3.770  22.712  11.129
79567W        W44827  36.445   6.414   2.684
79568W        W44828  11.116  17.314   4.535
79569W        W44829  43.810  18.188   3.337
79570W        W44830  39.788  39.993   2.890
79571W        W44831  40.129  30.476  10.586
79572W        W44832  13.881  18.294  13.309
79573W        W44833  10.681  13.726  13.084
79574W        W44834  23.742  32.407  13.939
79575W        W44835   3.283  16.002  11.983
79576W        W44836   0.526   3.503  12.032
79577W        W44837   2.931   5.329  11.706
79578W        W44838  33.388  26.253  10.682
79579W        W44839  37.458  32.940  12.360
79580W        W44840  42.773  32.548   0.666
79581W        W44841   9.394   7.891  13.346
79582W        W44842  44.420   7.706  11.285
79583W        W44843  34.826  24.866   1.209
79584W        W44844   4.573  22.633  11.644
79585W        W44845  13.589  18.710   3.150
79586W        W44846  25.949  41.110   0.479
79587W        W44847  11.696  40.521   4.967
79588W        W44848  33.156  30.975  11.049
79589W        W44849  13.242  18.978  14.754
79590W        W44850  26.056  21.914  13.972
79591W        W44851  22.633  10.164   3.649
79592W        W44852  20.113   1.235  14.109
79593W        W44853  28.805  36.191  11.180
79594W        W44854  44.323  38.333  11.458
79595W        W44855  40.294   1.741  14.758
79596W        W44856  10.123  16.034   1.288
79597W        W44857  37.520  33.098   3.140
79598W        W44858  33.930  22.153   2.275
79599W        W44859  20.038  39.404  12.481
79600W        W44860   3.693  44.759  13.002
79601W        W44861   1.995  38.439  11.161
79602W        W44862  32.406  21.613   9.781
79603W        W44863  26.684  43.435  13.839
79604W        W44864  10.235   2.213   0.943
79605W        W44865  36.989   1.684   2.240
79606W        W44866  17.682   0.742  12.393
79607W        W44867  39.444  25.590   1.308
79608W        W44868  16.352   6.806   0.475
79609W        W44869  19.099  25.966   3.573
79610W        W44870  34.061  43.725   4.569
79611W        W44871   4.512  13.253  11.905
79612W        W44872  17.393  27.608   0.802
79613W        W44873   3.460  10.439  14.271
79614W        W44874   0.329  35.271   0.031
79615W        W44875   6.949  13.798   4.263
79616W        W44876   2.841  18.329   3.135
79617W        W44877  38.786  38.110  10.046
79618W        W44878  32.481  20.794   4.171
79619W        W44879  39.051  35.707  12.671
79620W        W44880  13.698  32.862   3.885
79621W        W44881  11.715   4.661   3.202
79622W        W44882  21.035  40.052  13.729
79623W        W44883  19.562  11.957   3.775
79624W        W44884   8.127  30.377   3.751
79625W        W44885  34.552   4.002  10.219
79626W        W44886  12.679  40.047   4.596
79627W        W44887  40.880  40.991  13.323
79628W        W44888  39.886  20.286  10.680
79629W        W44889  10.865  11.193  13.492
79630W        W44890  35.287   1.780   1.242
79631W        W44891  30.517  16.993   3.645
79632W        W44892  38.385  18.722   3.005
79633W        W44893   9.077  15.467   4.994
79634W        W44894   1.198  20.591  14.465
79635W        W44895  25.756   0.838  13.152
79636W        W44896   4.989  13.092   1.376
79637W        W44897  19.458  33.000   3.138
79638W        W44898   6.785  15.239  11.913
79639W        W44899  37.387   6.812   3.304
79640W        W44900  28.578   0.213  14.751
79641W        W44901  31.020  14.564   0.730
79642W        W44902  16.444   6.904  14.971
79643W        W44903  34.671  30.256  10.815
79644W        W44904  28.500  27.172   5.511
79645W        W44905  28.796  42.982   3.418
79646W        W44906  40.900  43.327  10.752
79647W        W44907  28.137  12.348  11.254
79648W        W44908  32.333  15.342   3.788
79649W        W44909   8.360  28.216  10.795
79650W        W44910  26.938   2.668  14.138
79651W        W44911  32.081  33.522  10.860
79652W        W44912  42.330  42.958  13.444
79653W        W44913  25.434  40.347   4.997
79654W        W44914  22.438   0.294  12.433
79655W        W44915  20.697  40.610  14.296
79656W        W44916  14.023  32.594  12.907
79657W        W44917  24.548  32.905   4.233
79658W        W44918  14.775  14.475  10.844
79659W        W44919  33.315  28.010   2.982
79660W        W44920   5.298  35.933  10.626
79661W        W44921   6.169  37.493  11.926
79662W        W44922   4.232  36.295  12.924
79663W        W44923  21.403  15.696  13.508
79664W        W44924  15.090  32.575  11.984
79665W        W44925  12.645  31.056  11.445
79666W        W44926   5.426  17.961  10.983
79667W        W44927  29.491  13.144  13.401
79668W        W44928  43.068   5.149   2.703
79669W        W44929  10.854  12.673  13.440
79670W        W44930  22.990  43.276   0.411
79671W        W44931   8.786  41.757  13.336
79672W        W44932  14.793   6.146  10.704
79673W        W44933  18.115  17.847   0.901
79674W        W44934   6.214  30.646  13.263
79675W        W44935  19.074  21.123   0.955
79676W        W44936  11.296   3.590  11.231
79677W        W44937  24.103  12.074  12.961
79678W        W44938  29.092  15.647  13.796
79679W        W44939   1.765  24.264   5.379
79680W        W44940  17.083  32.628   1.267
79681W        W44941  12.139  27.167  12.987
79682W        W44942  43.866   9.969  11.318
79683W        W44943  27.429   3.651   0.307
79684W        W44944  20.051  29.499  11.300
79685W        W44945  11.582   3.384  10.562
79686W        W44946  14.137  16.483   2.409
79687W        W44947  20.657   5.978   2.129
79688W        W44948  23.762  25.582   3.895
79689W        W44949  42.885  25.183  13.278
79690W        W44950   0.346  31.341  13.014
79691W        W44951  15.742   7.785  12.622
79692W        W44952  42.476  40.620   0.176
79693W        W44953  20.675  17.762   1.816
79694W        W44954  41.687  33.019  11.190
79695W        W44955  37.352  39.452   3.766
79696W        W44956  18.316   6.003  10.989
79697W        W44957  18.301   6.587   4.729
79698W        W44958  16.893   5.604  14.982
79699W        W44959  27.601  32.598  12.560
79700W        W44960  44.904   0.245  11.078
79701W        W44961  19.131  15.881  14.650
79702W        W44962  27.715  39.342  12.516
79703W        W44963   6.847  10.711  12.172
79704W        W44964  26.407  25.105  11.115
79705W        W44965   0.109  32.340   2.644
79706W        W44966  37.333   8.397   0.332
79707W        W44967  35.559  30.496  13.772
79708W        W44968  14.092  42.962  13.437
79709W        W44969   0.958  12.776   2.392
79710W        W44970  44.906   8.451  12.937
79711W        W44971  19.401   2.761   3.294
79712W        W44972  44.370  25.871  10.130
79713W        W44973  29.622  41.559  11.510
79714W        W44974  32.916  41.872  13.542
79715W        W44975   7.707  15.352   4.665
79716W        W44976  21.025  16.012  11.093
79717W        W44977  37.800  22.202  14.276
79718W        W44978   2.236   2.768  14.991
79719W        W44979  27.700  28.656   1.270
79720W        W44980   6.772  21.731   1.861
79721W        W44981   9.425   8.924  14.323
79722W        W44982  29.551   3.892   1.515
79723W        W44983   7.261  39.795   3.095
79724W        W44984  34.098  23.041  11.567
79725W        W44985  42.744  31.698   4.582
79726W        W44986   4.823  24.143  11.579
79727W        W44987  19.004   4.870  10.795
79728W        W44988  10.628  25.527   0.308
79729W        W44989   1.192   9.691  14.877
79730W        W44990  43.895  17.230   4.576
79731W        W44991  13.563  28.665   1.462
79732W        W44992  29.205  13.876   3.577
79733W        W44993  22.219  38.118  14.454
79734W        W44994  26.101  33.132  14.036
79735W        W44995  43.846  29.286  10.764
79736W        W44996  34.970   6.494  11.818
79737W        W44997  21.635  28.975  11.981
79738W        W44998   5.654   8.235   3.706
79739W        W44999  17.078  32.105   2.144
79740W        W45000  15.768  41.277   2.295
79741W        W45001  18.172  27.906  13.047
79742W        W45002   7.785   6.184   2.174
79743W        W45003   2.955  44.202  13.030
79744W        W45004  10.764  32.496  12.181
79745W        W45005  40.043  44.749  12.454
79746W        W45006  22.780  42.315  11.761
79747W        W45007   8.698  33.288  12.288
79748W        W45008  44.168  16.383  14.842
79749W        W45009  42.337  22.142   1.142
79750W        W45010  31.683  15.660  14.801
79751W        W45011  23.698  39.409  10.705
79752W        W45012  44.861  29.589   3.103
79753W        W45013  28.890  33.394   4.582
79754W        W45014  14.723  44.660   4.257
79755W        W45015   1.871  37.813   0.289
79756W        W45016  40.098   3.938   3.574
79757W        W45017  13.141  17.695  13.421
79758W        W45018   8.500  12.550  11.695
79759W        W45019  35.398   9.644  11.374
79760W        W45020  39.558   4.361   3.146
79761W        W45021  24.675  40.086   2.767
79762W        W45022  20.065  36.614  12.176
79763W        W45023  30.400  31.445  13.551
79764W        W45024   1.657  32.614   4.657
79765W        W45025  13.706  19.697   3.598
79766W        W45026   6.088  41.506   1.460
79767W        W45027   4.479   0.195   0.641
79768W        W45028  10.430   2.292   0.041
79769W        W45029   6.716  17.868   2.285
79770W        W45030  36.993   2.990   0.739
79771W        W45031  19.076  40.826   0.805
79772W        W45032  27.919  14.671   4.267
79773W        W45033  38.538   9.119  11.207
79774W        W45034  40.135  42.763  11.235
79775W        W45035  18.058  10.067  12.571
79776W        W45036  38.518   2.290   0.914
79777W        W45037  31.614  18.889   2.417
79778W        W45038  43.010   1.720  12.514
79779W        W45039  32.667  14.126  14.936
79780W        W45040  14.541  31.613   3.354
79781W        W45041  15.305  29.046  12.883
79782W        W45042  38.960  26.074  12.553
79783W        W45043   7.865  43.279   0.179
79784W        W45044   1.036  11.229   3.519
79785W        W45045  19.296  30.989   3.502
79786W        W45046  42.515  42.960  10.533
79787W        W45047  23.609  14.312  14.458
79788W        W45048  13.664  32.015  13.349
79789W        W45049  34.187  16.498   4.022
79790W        W45050  43.051  15.864   4.968
79791W        W45051  14.679  27.204   0.507
79792W        W45052  24.029  20.819  12.199
79793W        W45053  42.541  43.483   1.907
79794W        W45054  36.648  37.149   2.717
79795W        W45055  16.628  31.001   4.179
79796W        W45056  36.666  42.790   0.358
79797W        W45057   3.167  21.810  11.618
79798W        W45058  37.582   0.238   2.599
79799W        W45059   2.392   1.995  12.024
79800W        W45060  25.554  39.788   2.732
79801W        W45061   2.266  13.109   3.734
79802W        W45062   9.780  10.783  11.178
79803W        W45063  14.104  28.862  13.948
79804W        W45064  22.841  32.389  14.099
79805W        W45065  33.656  22.828  14.874
79806W        W45066  27.449  13.022   2.682
79807W        W45067  28.379  17.496   3.142
79808W        W45068  38.847   0.889   1.729
79809W        W45069  13.910  34.460   0.960
79810W        W45070  33.557   3.809   3.229
79811W        W45071  35.344  29.623  10.841
79812W        W45072  34.478  44.085   2.406
79813W        W45073  27.165  43.885  10.646
79814W        W45074   9.587   8.978  11.220
79815W        W45075  29.490  19.579  14.435
79816W        W45076   1.834   5.449   0.896
79817W        W45077  27.669  40.620  11.981
79818W        W45078  44.243  12.261   2.205
79819W        W45079  15.677   6.746  12.917
79820W        W45080  38.561  27.484  12.406
79821W        W45081  26.749   1.874  12.443
79822W        W45082  22.151   5.812  13.298
79823W        W45083  23.270  20.006   0.246
79824W        W45084  31.081   4.459   2.209
79825W        W45085  36.576  26.254  12.509
79826W        W45086  34.866  23.608   0.632
79827W        W45087  33.757  41.777   4.079
79828W        W45088  40.492  43.427   3.337
79829W        W45089  33.507  22.817  10.780
79830W        W45090   3.649  40.863  11.534
79831W        W45091  30.349  12.890   1.182
79832W        W45092  16.603  38.913  13.315
79833W        W45093  29.617   9.992   4.077
79834W        W45094  22.494  40.868  12.008
79835W        W45095  31.976  38.605  13.045
79836W        W45096  11.553  33.778   0.392
79837W        W45097  43.202  44.018   1.275
79838W        W45098  34.088  35.289  10.727
79839W        W45099  22.214  40.420   2.112
79840W        W45100  26.673  39.260  13.070
79841W        W45101  27.516  13.322   2.230
79842W        W45102   2.791  37.351   3.372
79843W        W45103  10.203  17.311   1.866
79844W        W45104  26.006  43.821   1.769
79845W        W45105  36.829   3.484   3.251
79846W        W45106  19.662  44.306  14.406
79847W        W45107  21.976  25.590  13.817
79848W        W45108  44.737   2.252   2.690
79849W        W45109   1.914  34.914   2.309
79850W        W45110  32.519  39.503   0.714
79851W        W45111  12.561  40.474  13.097
79852W        W45112   0.898  20.193  12.074
79853W        W45113  23.049  21.594   2.255
79854W        W45114  13.178  32.205   1.831
79855W        W45115   4.652  42.984   2.374
79856W        W45116   7.595  42.898  12.279
79857W        W45117  39.352   7.135  10.863
79858W        W45118  16.880  25.397  12.896
79859W        W45119   5.447  40.305  14.234
79860W        W45120  28.956   1.757  11.964
79861W        W45121   8.858  43.101  14.529
79862W        W45122  32.051  32.578  12.560
79863W        W45123  40.138  21.320  10.822
79864W        W45124  27.130  11.699  11.200
79865W        W45125   2.278  26.324  10.335
79866W        W45126  23.226  15.103  10.852
79867W        W45127  18.738  28.594  13.276
79868W        W45128  33.769  19.630   5.128
79869W        W45129  13.913  32.128   4.595
79870W        W45130  18.089  40.253   2.365
79871W        W45131   8.861  37.045   2.888
79872W        W45132  34.840   4.546  10.250
79873W        W45133   2.971  10.118  14.270
79874W        W45134  28.695  19.770  11.943
79875W        W45135  13.691  18.896   4.174
79876W        W45136  40.847  11.069   2.324
79877W        W45137   6.300  28.917  12.338
79878W        W45138  31.131   6.500   3.721
79879W        W45139  40.732  33.761   2.714
79880W        W45140   2.385  19.554  12.876
79881W        W45141  28.943  16.415   4.274
79882W        W45142   3.510   6.310   4.033
79883W        W45143  30.954  34.760  14.586
79884W        W45144  33.362   3.324  12.624
79885W        W45145  43.365   9.969   9.835
79886W        W45146   6.804  19.743  14.091
79887W        W45147  37.547   3.925  10.336
79888W        W45148  30.925  29.362  10.693
79889W        W45149  42.313   8.887   0.962
79890W        W45150  30.893  35.725  14.945
79891W        W45151   6.241  43.577  14.026
79892W        W45152  22.746  25.575  11.892
79893W        W45153  36.464  35.348   1.909
79894W        W45154   5.283  42.376  10.333
79895W        W45155   9.360  11.142   0.425
79896W        W45156   3.423  25.901  13.465
79897W        W45157  44.975  21.283  13.385
79898W        W45158   1.145  32.631   2.691
79899W        W45159  14.611  41.207   2.830
79900W        W45160   9.907  34.201   3.626
79901W        W45161  13.107  21.575   2.689
79902W        W45162  31.164  28.194  11.612
79903W        W45163   1.471  14.746   2.692
79904W        W45164   5.346  18.741  13.601
79905W        W45165  27.955  20.183   3.590
79906W        W45166  42.865  30.090   0.230
79907W        W45167  34.240  16.180  10.691
79908W        W45168  33.662  44.069   0.557
79909W        W45169  10.690  23.544   1.297
79910W        W45170  11.277  27.078  11.662
79911W        W45171  23.692   3.080  14.302
79912W        W45172  33.593  21.269   0.823
79913W        W45173  21.183   6.835   0.536
79914W        W45174  15.855  39.254   0.253
79915W        W45175  36.059  42.426   3.898
79916W        W45176  21.766  11.265  11.049
79917W        W45177  27.894  23.051   3.670
79918W        W45178  15.146  24.984   4.696
79919W        W45179  26.938  33.598  14.753
79920W        W45180  43.443  22.042   1.240
79921W        W45181  35.315  13.657  10.760
79922W        W45182  44.568  37.016   1.871
79923W        W45183  38.154  36.381  12.325
79924W        W45184   0.936   2.336  14.664
79925W        W45185  33.809   7.646  11.020
79926W        W45186  38.940  24.904  10.682
79927W        W45187  32.619  21.724  14.901
79928W        W45188   1.278  30.107  11.396
79929W        W45189   0.210  18.114  12.918
79930W        W45190  11.270  37.048  13.946
79931W        W45191  21.267   5.419  12.118
79932W        W45192  11.780  41.955   0.826
79933W        W45193  32.176  41.970  11.137
79934W        W45194  13.410  12.642   4.136
79935W        W45195  24.264   3.745   1.401
79936W        W45196  24.975  28.735  10.937
79937W        W45197  10.590   9.361   3.700
79938W        W45198  16.800  16.251   5.081
79939W        W45199  37.561   1.303  13.372
79940W        W45200  24.628  29.022   1.637
79941W        W45201  38.946  44.985   2.876
79942W        W45202  13.046   5.739  13.568
79943W        W45203  23.639   8.677  10.584
79944W        W45204  24.187  25.244  13.875
79945W        W45205   9.095  10.283  11.574
79946W        W45206  21.347  38.354  13.622
79947W        W45207  41.293   0.255  13.561
79948W        W45208  32.073   0.346  13.131
79949W        W45209  41.890   3.007  11.583
79950W        W45210  19.309  40.873  14.032
79951W        W45211  10.610  43.257   1.916
79952W        W45212  14.733   5.953  11.189
79953W        W45213   5.915   9.425  10.681
79954W        W45214   3.277  16.318  12.955
79955W        W45215  35.429   8.717  14.059
79956W        W45216  20.689   5.483   3.169
79957W        W45217  28.075  19.767   3.299
79958W        W45218  33.103   2.506   0.753
79959W        W45219  34.855  11.371   4.535
79960W        W45220  41.180  26.676   2.821
79961W        W45221  40.714  44.820  11.529
79962W        W45222  10.797   2.355   4.538
79963W        W45223   7.951  11.824  11.197
79964W        W45224  25.731  18.391   1.314
79965W        W45225  38.345   8.743   4.124
79966W        W45226  26.143  29.940  11.491
79967W        W45227  33.471  39.768   4.593
79968W        W45228  35.092  19.718   1.802
79969W        W45229  25.674  40.172  10.304
79970W        W45230   4.212   1.215  11.980
79971W        W45231  34.838   2.193  11.750
79972W        W45232  43.956   1.061   0.418
79973W        W45233  43.254  25.694  12.657
79974W        W45234  31.404  27.033   0.861
79975W        W45235  36.979  35.515  10.710
79976W        W45236   1.886  42.298  13.863
79977W        W45237   9.812  32.092  10.691
79978W        W45238  28.054  14.125  13.805
79979W        W45239  18.872  12.648   5.232
79980W        W45240  12.814  15.381  10.771
79981W        W45241  18.162   0.397  11.704
79982W        W45242  19.295   4.506  11.592
79983W        W45243  14.884  19.572   1.355
79984W        W45244  10.382  44.938  13.731
79985W        W45245  11.725  10.861   2.666
79986W        W45246  41.719  30.631  13.860
79987W        W45247  18.844  10.692   2.572
79988W        W45248  27.085  34.565  11.577
79989W        W45249   5.320  12.151   3.419
79990W        W45250  22.941  11.890   2.290
79991W        W45251  32.703  22.936  14.528
79992W        W45252  41.440  21.221   2.174
79993W        W45253  17.268   4.919  14.913
79994W        W45254  29.091  20.604  14.899
79995W        W45255  34.165  44.364   4.108
79996W        W45256  43.743  27.920   4.159
79997W        W45257  19.421  26.158   0.501
79998W        W45258   4.347  11.838   1.207
79999W        W45259  35.418  38.387   3.414
80000W        W45260   8.816  14.226   0.331
80001W        W45261  10.390   4.985   4.181
80002W        W45262  12.223  43.423   4.498
80003W        W45263  38.175  29.915  14.639
80004W        W45264  16.366   6.612  11.941
80005W        W45265   8.683  31.968  14.974
80006W        W45266   9.633  34.794   1.805
80007W        W45267   4.711  24.809   4.529
80008W        W45268  32.060  29.373  14.828
80009W        W45269   3.446  21.958  11.173
80010W        W45270  25.986  23.297  12.163
80011W        W45271  35.103  42.609  12.980
80012W        W45272   4.782  28.130   4.330
80013W        W45273  24.029  16.773  14.594
80014W        W45274   9.900  15.040   0.297
80015W        W45275  28.098   2.738   3.214
80016W        W45276  33.630  34.959   1.919
80017W        W45277  12.645  31.893  13.445
80018W        W45278  38.519   4.950   0.741
80019W        W45279  12.622  13.649   4.522
80020W        W45280   2.008  44.763   3.613
80021W        W45281   3.248   2.679   4.244
80022W        W45282  14.898  26.080  12.684
80023W        W45283   0.483  22.593   0.782
80024W        W45284   7.213  37.881   0.489
80025W        W45285   4.455  18.730  11.126
80026W        W45286  36.510  13.793  12.491
80027W        W45287  14.193  39.573  14.837
80028W        W45288   8.709  27.387   2.136
80029W        W45289  22.051  43.497  11.497
80030W        W45290  40.470  11.184  13.886
80031W        W45291  38.421  17.307   1.014
80032W        W45292  29.521  25.914  11.066
80033W        W45293  39.808  27.886  12.406
80034W        W45294   9.651  14.328  14.479
80035W        W45295  37.432   2.206   2.713
80036W        W45296  43.361   4.433  14.846
80037W        W45297  11.051  10.928   1.235
80038W        W45298   0.165  41.083  14.900
80039W        W45299  18.561  28.254  12.917
80040W        W45300  10.150  23.976  12.747
80041W        W45301  38.943  30.731  14.877
80042W        W45302  23.045  29.067  11.069
80043W        W45303  33.140   1.997  11.039
80044W        W45304  19.688  39.964   1.718
80045W        W45305  30.136  32.100  11.479
80046W        W45306  29.623  28.226  11.564
80047W        W45307  15.355   9.250  10.563
80048W        W45308   5.213   5.850   2.382
80049W        W45309  28.606  13.714   2.255
80050W        W45310  12.463  39.638   2.273
80051W        W45311  23.939   1.594   4.190
80052W        W45312   3.505  20.654   0.348
80053W        W45313  16.284  31.454  11.546
80054W        W45314  42.587   9.733   3.275
80055W        W45315   0.433  44.499   3.556
80056W        W45316   9.238  11.972  13.927
80057W        W45317   1.503  21.562  14.281
80058W        W45318   3.432   8.711   0.791
80059W        W45319  39.696  12.630  12.592
80060W        W45320   2.302  11.498   2.745
80061W        W45321  36.044  32.552  12.113
80062W        W45322  10.314  16.369   3.162
80063W        W45323  34.006   7.489   0.093
80064W        W45324  41.395  18.618   1.232
80065W        W45325  19.679   9.318   1.815
80066W        W45326  39.884  41.809  13.372
80067W        W45327  22.702  35.527   2.945
80068W        W45328  17.073  12.262   2.354
80069W        W45329  11.284   4.673  10.124
80070W        W45330   0.817  37.977  10.802
80071W        W45331   5.778  44.093   4.868
80072W        W45332  30.723   3.894  12.356
80073W        W45333  42.933  23.894   2.748
80074W        W45334  25.147  44.422   1.785
80075W        W45335  13.658   1.889   3.915
80076W        W45336   1.358   8.151   3.599
80077W        W45337  33.215  17.353  13.843
80078W        W45338  13.346   9.679  13.609
80079W        W45339  40.423  43.012  14.281
80080W        W45340  19.503  17.639  13.614
80081W        W45341  11.200  33.618  12.603
80082W        W45342  38.525  44.372   0.959
80083W        W45343  16.619  44.890   0.993
80084W        W45344  39.886   1.881  14.373
80085W        W45345   1.465  21.963   3.142
80086W        W45346   0.005  15.582   1.799
80087W        W45347   1.484  18.009   2.852
80088W        W45348   5.906  43.691   1.417
80089W        W45349  27.432  24.545   4.144
80090W        W45350   7.662  30.820  10.481
80091W        W45351  39.710  36.815  14.983
80092W        W45352  14.363  31.006  11.661
80093W        W45353  19.730  21.676  11.682
80094W        W45354  29.737   9.490   4.129
80095W        W45355   4.379   1.452  14.188
80096W        W45356   2.373  32.071   2.348
80097W        W45357  10.339  28.897  14.574
80098W        W45358  41.736  23.619   3.390
80099W        W45359   7.241  28.954   1.750
80100W        W45360  11.774  39.046   2.249
80101W        W45361  29.624  41.066   0.795
80102W        W45362  19.538  42.410  13.760
80103W        W45363  35.467  35.367  12.846
80104W        W45364  26.516  35.518   1.728
80105W        W45365   2.830  40.793   2.630
80106W        W45366  23.002  34.962  14.359
80107W        W45367  34.897  10.199   0.883
80108W        W45368   4.941  17.266   2.304
80109W        W45369   4.396  36.473   2.387
80110W        W45370  38.457  22.872   3.865
80111W        W45371  31.483  10.224   4.553
80112W        W45372  30.930   7.466   3.646
80113W        W45373  34.029  18.840  13.540
80114W        W45374   4.787   8.438  12.596
80115W        W45375   1.899  31.369  12.410
80116W        W45376   8.208  37.452  11.085
80117W        W45377  19.247  39.611  11.042
80118W        W45378  36.301  30.555  11.692
80119W        W45379  21.126  26.433   0.727
80120W        W45380  19.771  27.133   1.746
80121W        W45381  24.482  38.099   1.361
80122W        W45382  22.559   9.882  11.789
80123W        W45383  19.625  41.462   0.369
80124W        W45384  10.441  41.920   0.179
80125W        W45385  43.787   4.775  10.801
80126W        W45386  31.915  37.250  12.936
80127W        W45387  30.463  43.933   0.736
80128W        W45388  28.923  41.447   1.590
80129W        W45389  21.031  32.888   3.755
80130W        W45390  21.044  18.562   4.203
80131W        W45391  43.252  34.354   3.347
80132W        W45392  33.745   5.909  13.983
80133W        W45393   3.419  39.925   4.125
80134W        W45394   5.489   2.472  10.688
80135W        W45395   5.481  36.666  11.236
80136W        W45396   0.383   2.204   4.176
80137W        W45397  44.915   7.463  12.097
80138W        W45398   2.574   8.489   4.252
80139W        W45399  27.627  31.496  14.505
80140W        W45400  44.461  39.138   4.582
80141W        W45401  43.536   5.375  10.709
80142W        W45402  35.916  27.275  14.488
80143W        W45403  22.042   8.425  10.762
80144W        W45404  22.186  32.121  12.431
80145W        W45405  12.629  30.366  12.837
80146W        W45406  40.200  19.832   2.727
80147W        W45407   4.420  15.213  10.637
80148W        W45408  10.540  43.684  13.015
80149W        W45409  36.947  23.983  14.978
80150W        W45410  32.155  26.699  10.629
80151W        W45411  32.033  24.411   2.959
80152W        W45412  41.473  40.307  14.296
80153W        W45413  20.711  12.383   3.593
80154W        W45414  42.361   3.196  13.896
80155W        W45415   6.751  39.836  13.287
80156W        W45416  34.108  32.635  12.577
80157W        W45417  29.740  43.747   0.221
80158W        W45418   4.706   8.308   1.015
80159W        W45419  28.056  41.758   3.126
80160W        W45420  31.161  35.919   0.967
80161W        W45421  23.490  34.828  12.354
80162W        W45422  30.003  32.818   2.535
80163W        W45423  13.391  19.275  11.286
80164W        W45424   7.420   2.651  14.018
80165W        W45425  10.571  12.883   0.678
80166W        W45426  15.360  12.374   1.341
80167W        W45427  43.496   0.182  14.313
80168W        W45428  15.614  37.988  13.723
80169W        W45429  18.786  36.324   4.824
80170W        W45430  15.617  26.974  13.368
80171W        W45431  17.667   8.832   1.819
80172W        W45432  26.854  39.979   3.081
80173W        W45433  25.575   4.276   4.547
80174W        W45434  11.162  33.115   2.424
80175W        W45435   9.468  31.683  10.005
80176W        W45436  30.430  32.926   4.592
80177W        W45437   8.962   2.770   2.075
80178W        W45438  36.440  21.642   2.309
80179W        W45439  38.510  36.332   0.218
80180W        W45440   4.187  16.334  11.976
80181W        W45441   7.791  12.192   3.332
80182W        W45442   0.593  37.105   1.870
80183W        W45443  19.293  16.007  12.500
80184W        W45444  28.099  36.793  13.913
80185W        W45445   2.861  43.219   2.001
80186W        W45446  35.575  44.646   2.520
80187W        W45447  19.230  39.005   1.645
80188W        W45448   5.298  13.829  14.789
80189W        W45449  36.847  35.827  11.116
80190W        W45450  14.244  34.692  13.773
80191W        W45451  13.332  38.113   0.296
80192W        W45452  40.071  14.092   2.238
80193W        W45453  41.344  16.882   3.965
80194W        W45454  25.439  11.139  14.407
80195W        W45455   8.637  17.684   0.657
80196W        W45456  31.184  30.134   0.363
80197W        W45457  16.161  13.130  10.730
80198W        W45458  12.927  16.640  12.848
80199W        W45459  26.464  10.669   4.922
80200W        W45460   3.941   3.039   3.704
80201W        W45461  38.508  13.750  12.006
80202W        W45462  21.307  33.912   3.679
80203W        W45463  25.209   2.181  14.243
80204W        W45464   3.765   1.529   3.286
80205W        W45465  17.080  11.184  10.374
80206W        W45466  35.884  35.264   0.873
80207W        W45467  21.326   3.245   1.652
80208W        W45468  41.953  37.943  11.634
80209W        W45469   2.178  41.955   3.107
80210W        W45470  12.679  11.797   3.234
80211W        W45471  20.739  25.459  14.456
80212W        W45472  24.504  34.394   4.537
80213W        W45473  31.130  23.269   0.934
80214W        W45474  11.687  35.642   2.698
80215W        W45475   7.335   1.807  13.365
80216W        W45476  27.292  19.057   3.362
80217W        W45477  14.434  32.851  13.340
80218W        W45478  36.837   4.881   0.403
80219W        W45479   8.959   2.240  11.988
80220W        W45480   5.736  21.838   1.699
80221W        W45481  15.046  28.509   3.185
80222W        W45482  34.496  11.842  12.536
80223W        W45483  38.352  11.854   3.249
80224W        W45484  42.187   1.685  14.612
80225W        W45485  41.445  28.222  11.530
80226W        W45486   2.851   0.561  11.620
80227W        W45487  27.925   5.525   4.429
80228W        W45488  39.299   7.269   1.894
80229W        W45489  24.595  43.205  13.956
80230W        W45490  22.334  16.315   4.645
80231W        W45491  27.583  33.948  14.019
80232W        W45492  10.849  15.289   4.204
80233W        W45493  14.198  15.188   4.243
80234W        W45494  28.888  39.486   3.765
80235W        W45495  38.889  27.702   3.761
80236W        W45496   8.184  11.835   3.968
80237W        W45497  25.957   4.227  12.576
80238W        W45498  42.441   1.737   2.834
80239W        W45499   9.271  10.896   1.766
80240W        W45500   8.250  16.995   1.844
80241W        W45501  37.632  37.500  12.535
80242W        W45502  21.330  18.248  14.846
80243W        W45503  13.290  34.954  11.446
80244W        W45504  23.212  36.985   4.852
80245W        W45505   5.715  31.146  11.941
80246W        W45506  17.284  41.803   4.112
80247W        W45507  36.000  22.608   0.855
80248W        W45508  33.342  20.002  12.129
80249W        W45509  36.447  18.045  11.391
80250W        W45510  27.482  35.837   0.735
80251W        W45511   6.280  27.442   1.860
80252W        W45512  27.566   7.768   2.993
80253W        W45513  19.540  14.910   2.799
80254W        W45514  21.652  44.251   2.682
80255W        W45515   0.810   1.208   4.672
80256W        W45516  27.576   1.944  11.958
80257W        W45517  44.824  27.549   1.680
80258W        W45518  33.925  26.251  14.017
80259W        W45519  31.581  33.151   2.405
80260W        W45520   3.011  33.141  14.533
80261W        W45521  24.684  16.897   3.624
80262W        W45522   2.975  16.559  12.168
80263W        W45523  13.694  19.685   0.033
80264W        W45524  22.264  13.409   4.550
80265W        W45525  35.385  24.310   0.935
80266W        W45526  39.365   8.040   1.471
80267W        W45527  22.797  31.926  10.555
80268W        W45528  11.417  44.905  13.342
80269W        W45529  19.045  25.694  13.011
80270W        W45530  35.620  24.640  14.076
80271W        W45531  37.360  23.467  11.478
80272W        W45532   6.376  26.256  13.334
80273W        W45533  19.533   3.757   0.007
80274W        W45534  21.179  41.453  14.381
80275W        W45535  14.605  21.224   0.674
80276W        W45536  32.881   3.854  13.814
80277W        W45537  39.399  14.153   0.729
80278W        W45538  35.649  37.563  12.243
80279W        W45539  34.357  28.084  14.898
80280W        W45540  21.661  24.406  12.464
80281W        W45541  40.630  42.863  11.181
80282W        W45542  41.828   5.344  14.658
80283W        W45543  24.768  33.424  13.447
80284W        W45544   9.673  14.085   2.828
80285W        W45545  32.014  37.833   3.184
80286W        W45546   0.201   3.697  11.438
80287W        W45547  13.800  15.039  13.003
80288W        W45548  35.422  40.720   3.130
80289W        W45549  10.116  35.268   1.305
80290W        W45550  17.288  23.722  13.761
80291W        W45551  20.262  29.481   0.827
80292W        W45552   8.163  10.833   2.580
80293W        W45553   5.748  42.586  14.838
80294W        W45554  33.573  16.642  14.293
80295W        W45555  17.258  12.036  10.063
80296W        W45556  40.636   2.393  14.518
80297W        W45557  35.592  44.033  12.043
80298W        W45558  18.236   6.853   3.736
80299W        W45559  36.470  42.429  12.834
80300W        W45560  28.420  31.737  14.995
80301W        W45561  15.291   6.198   0.911
80302W        W45562  31.259  43.819  11.223
80303W        W45563  20.525  41.369  11.918
80304W        W45564   6.015  30.785   4.300
80305W        W45565  13.526   8.150   4.082
80306W        W45566   6.913  36.339   3.814
80307W        W45567  44.376  33.144   0.716
80308W        W45568   9.054   5.520   2.332
80309W        W45569  20.131   1.637   3.195
80310W        W45570  31.617  23.983  14.276
80311W        W45571  19.208  28.301   2.001
80312W        W45572  19.853   5.236   0.765
80313W        W45573  36.097  17.705   2.676
80314W        W45574  17.176  14.153   0.339
80315W        W45575  42.859   0.493   3.389
80316W        W45576  23.136  10.093   4.857
80317W        W45577  16.979  28.418  11.122
80318W        W45578   4.926  32.234  12.159
80319W        W45579  44.121  33.609  10.583
80320W        W45580  22.503  10.354  14.845
80321W        W45581  14.850  23.633  13.837
80322W        W45582  33.338  43.388   2.212
80323W        W45583  21.471  28.548  10.375
80324W        W45584  19.248  22.959   4.289
80325W        W45585   7.405  21.278   0.869
80326W        W45586  41.397  37.855  13.239
80327W        W45587  12.942  10.795   9.647
80328W        W45588  27.002  29.243   4.064
80329W        W45589  27.627   2.007  14.286
80330W        W45590  28.483   9.299  12.981
80331W        W45591   9.309   2.425   2.318
80332W        W45592  23.027   5.752  12.196
80333W        W45593   9.429   8.824  13.473
80334W        W45594  22.570  29.115  10.617
80335W        W45595  17.716  30.900   1.153
80336W        W45596  29.968  19.998   3.103
80337W        W45597  28.351  30.975   2.750
80338W        W45598   2.090  22.610  10.331
80339W        W45599  37.480   4.248  11.550
80340W        W45600  44.593  36.441   4.749
80341W        W45601  35.801  21.123   4.591
80342W        W45602  14.552  22.571   0.768
80343W        W45603  36.572   4.417  12.581
80344W        W45604  20.482  12.417  14.384
80345W        W45605  44.993   8.986   5.150
80346W        W45606   9.879  31.466   2.789
80347W        W45607  32.576  37.735  14.816
80348W        W45608   9.773   9.310   0.298
80349W        W45609  17.353   8.156   0.474
80350W        W45610  41.597   8.914  12.906
80351W        W45611  15.804  39.289  13.831
80352W        W45612  30.145  24.579   4.021
80353W        W45613   5.863  34.330  10.982
80354W        W45614  25.972   7.276  11.677
80355W        W45615  34.027  29.186  11.058
80356W        W45616  28.402   8.711  13.587
80357W        W45617  22.806  13.166   0.826
80358W        W45618  10.880  27.167  14.461
80359W        W45619   8.647  26.449  12.071
80360W        W45620   9.144   8.979   1.205
80361W        W45621  13.018  14.744  13.326
80362W        W45622  19.908  42.530   3.195
80363W        W45623  13.152   8.832   1.670
80364W        W45624   8.119  38.007  13.995
80365W        W45625  20.422  30.224  11.934
80366W        W45626   5.212   1.766  12.026
80367W        W45627  28.535   8.007   3.592
80368W        W45628   2.038  41.792  13.848
80369W        W45629  24.647  20.840  11.093
80370W        W45630  35.721   5.381   0.475
80371W        W45631   1.352  11.738  14.730
80372W        W45632  34.118  14.735  11.371
80373W        W45633  38.733  11.769   1.843
80374W        W45634   5.602  40.514  13.458
80375W        W45635  22.544  20.661  14.956
80376W        W45636   2.085  16.884  12.607
80377W        W45637   0.380   6.292  13.987
80378W        W45638   1.883   4.455  13.483
80379W        W45639  11.236  16.203  14.067
80380W        W45640   0.885   7.262   5.034
80381W        W45641   1.654   6.388   3.535
80382W        W45642  32.706  42.667   1.187
80383W        W45643  21.944  23.669  11.910
80384W        W45644  43.248  42.317   2.331
80385W        W45645  19.729  41.032  12.576
80386W        W45646  22.608   3.402  11.546
80387W        W45647   8.171   6.673   3.287
80388W        W45648  24.779   8.837  12.046
80389W        W45649  37.744  22.305   0.789
80390W        W45650  19.013  12.289   0.360
80391W        W45651  36.865   4.264  13.421
80392W        W45652  19.214  32.082   0.013
80393W        W45653   8.488  26.570  14.273
80394W        W45654  37.479  13.391  11.207
80395W        W45655  22.082  37.133   5.144
80396W        W45656   3.888  42.762   3.413
80397W        W45657  31.608  33.671  12.269
80398W        W45658  31.170  26.325  12.171
80399W        W45659  18.714  31.827  11.429
80400W        W45660  10.470  28.399   3.618
80401W        W45661  18.664  12.674  14.023
80402W        W45662  29.198  20.160   3.997
80403W        W45663  29.926  13.158   4.814
80404W        W45664  37.040  20.645  11.130
80405W        W45665  36.119  15.067  12.246
80406W        W45666  36.383  19.938   1.715
80407W        W45667  32.408  30.664   3.230
80408W        W45668  11.497  40.964  13.995
80409W        W45669  28.642  19.180   4.707
80410W        W45670  30.376   3.377   1.698
80411W        W45671   2.811  36.822  12.396
80412W        W45672   3.487  26.710  10.838
80413W        W45673  33.380  24.639  13.401
80414W        W45674  30.088  41.410  10.745
80415W        W45675  44.419  25.042   0.841
80416W        W45676  37.854  31.125   0.427
80417W        W45677   5.157   6.871  12.501
80418W        W45678   1.514  38.285  12.554
80419W        W45679  14.637   8.162   0.386
80420W        W45680  41.818  22.016   1.082
80421W        W45681  34.210   9.856  14.743
80422W        W45682  25.398  28.994   2.648
80423W        W45683  12.043  11.723  13.279
80424W        W45684  30.465   6.628  11.590
80425W        W45685   2.027  20.639   1.266
80426W        W45686   9.209  21.231  10.838
80427W        W45687  43.994  38.435  11.830
80428W        W45688  11.257  31.801   3.577
80429W        W45689  29.616  39.389   4.855
80430W        W45690   7.112  25.669   0.090
80431W        W45691   7.490  42.586  12.772
80432W        W45692  23.244  22.718   1.218
80433W        W45693   5.243  21.740  12.357
80434W        W45694  42.748  18.469   1.702
80435W        W45695   1.455  28.054  14.218
80436W        W45696  25.514  26.271  12.120
80437W        W45697  19.539  41.596  14.343
80438W        W45698  24.271  26.178   4.220
80439W        W45699  25.634   8.309   4.030
80440W        W45700  25.550  41.116   3.628
80441W        W45701  40.074   6.818  12.010
80442W        W45702  27.214  32.077  14.890
80443W        W45703  24.024  34.502  14.313
80444W        W45704  28.989   7.695  11.099
80445W        W45705   7.241  34.404   3.179
80446W        W45706  31.025   0.547   2.230
80447W        W45707  29.132  34.090   3.687
80448W        W45708  33.079  21.091  13.951
80449W        W45709   5.354   9.100   3.672
80450W        W45710  10.230  23.520  11.466
80451W        W45711  30.175  17.239   3.324
80452W        W45712  31.316  13.063   1.729
80453W        W45713   9.446  36.825  11.446
80454W        W45714  44.022   3.356   5.025
80455W        W45715  22.971  19.010   0.335
80456W        W45716  43.535  20.149  13.668
80457W        W45717  29.810  14.738  11.659
80458W        W45718  28.100  33.626   3.093
80459W        W45719  10.756   4.926  12.455
80460W        W45720  30.432  29.132  14.453
80461W        W45721  25.134  10.600   4.753
80462W        W45722   2.275   0.936  12.854
80463W        W45723   2.572  11.573  11.070
80464W        W45724  38.638  25.451  12.061
80465W        W45725   3.703  20.015   2.262
80466W        W45726  37.340  31.131   3.639
80467W        W45727  31.525  19.243  11.829
80468W        W45728  39.781   8.852  11.305
80469W        W45729   1.466  27.057   4.508
80470W        W45730  41.687  28.596   1.055
80471W        W45731  37.629  35.115   4.264
80472W        W45732  38.884   1.024   5.384
80473W        W45733  24.643  20.346  10.918
80474W        W45734   3.895  38.365   3.152
80475W        W45735  10.323  34.089   4.354
80476W        W45736  11.923  28.635   2.301
80477W        W45737  20.751  27.886  12.886
80478W        W45738  12.227  22.546  13.374
80479W        W45739  38.960  44.328  14.974
80480W        W45740  30.013   5.879  11.672
80481W        W45741  35.101   9.875  12.799
80482W        W45742  37.375  24.741   2.165
80483W        W45743  15.647   2.746  14.363
80484W        W45744  11.902  35.453  11.972
80485W        W45745  18.753  21.831   3.230
80486W        W45746  44.092  16.740   1.917
80487W        W45747  29.034  22.041   3.820
80488W        W45748   4.451  35.563   0.145
80489W        W45749  10.297  13.677   1.749
80490W        W45750  38.902  42.051   5.076
80491W        W45751   1.743  33.918   0.792
80492W        W45752  23.496  10.620   3.746
80493W        W45753   4.342  20.766   3.168
80494W        W45754   7.288  12.852  14.428
80495W        W45755   2.126  23.526   4.981
80496W        W45756  36.520  16.553  11.481
80497W        W45757  24.611  40.543   0.909
80498W        W45758  24.612  14.262   3.690
80499W        W45759  17.247  37.333  14.843
80500W        W45760  23.596  16.503   2.703
80501W        W45761  31.036   9.374  12.357
80502W        W45762  43.812  31.311   4.123
80503W        W45763   3.684  19.010  11.124
80504W        W45764  30.338  16.646  11.131
80505W        W45765  14.714  10.080  11.441
80506W        W45766   1.055  37.281   1.181
80507W        W45767   0.203  21.341  13.854
80508W        W45768   5.752  23.052   4.120
80509W        W45769  18.786  13.497   2.916
80510W        W45770  41.045   5.852  14.501
80511W        W45771  12.063  33.792  13.629
80512W        W45772  15.286   3.271  10.633
80513W        W45773  13.169   0.939  13.784
80514W        W45774   5.499  20.838   0.433
80515W        W45775  20.724  23.739  11.570
80516W        W45776   6.197  33.442   2.660
80517W        W45777  36.397  30.800  13.930
80518W        W45778   3.341  12.396  13.315
80519W        W45779   6.690  26.351   4.126
80520W        W45780  12.843   9.708  14.476
80521W        W45781  11.606   2.777   2.229
80522W        W45782  42.028  26.184   0.386
80523W        W45783  13.719  29.417  14.742
80524W        W45784  22.222  38.246  13.289
80525W        W45785  13.166  30.670   4.044
80526W        W45786   3.802  38.738   2.273
80527W        W45787  22.770  17.611  14.953
80528W        W45788   3.845   2.448   1.119
80529W        W45789  32.379  36.554   3.748
80530W        W45790   5.438  26.195   3.233
80531W        W45791   6.204  14.591   0.454
80532W        W45792   6.467  41.991  12.924
80533W        W45793   4.695  17.399  14.028
80534W        W45794  20.042  29.752  10.435
80535W        W45795   3.859  24.157   2.609
80536W        W45796  42.834  40.241   0.752
80537W        W45797  42.490  15.585   2.304
80538W        W45798  40.448  41.355  13.910
80539W        W45799  18.517  18.558   2.809
80540W        W45800   7.671  34.206  10.030
80541W        W45801  32.070   1.229  14.535
80542W        W45802  24.501  43.816  11.895
80543W        W45803  19.673   0.414  13.908
80544W        W45804  12.907  40.316  11.486
80545W        W45805  23.484  33.765   1.211
80546W        W45806  22.130  33.735   4.191
80547W        W45807  26.282  43.351  14.157
80548W        W45808   5.509  39.601  12.017
80549W        W45809  41.814  11.590  11.262
80550W        W45810   3.188  20.477   0.738
80551W        W45811  34.706  24.907   3.116
80552W        W45812  32.652   1.555  12.465
80553W        W45813  23.140   9.527   4.866
80554W        W45814   7.764  32.015  10.750
80555W        W45815  43.020  23.190   3.335
80556W        W45816  12.748  43.547   2.788
80557W        W45817  24.555  40.634  10.426
80558W        W45818   7.180  21.242  12.034
80559W        W45819  15.443  41.517  14.414
80560W        W45820  40.108  18.298   3.223
80561W        W45821  11.924  44.726  13.321
80562W        W45822  17.559   6.269   3.843
80563W        W45823   2.367   6.348  13.346
80564W        W45824  10.342  12.891   2.977
80565W        W45825   4.160  19.567  12.330
80566W        W45826  27.912  14.101  13.316
80567W        W45827  40.927  43.853   1.406
80568W        W45828  28.163   7.425  14.302
80569W        W45829  20.117  32.491   3.703
80570W        W45830  27.050   3.529   1.898
80571W        W45831  28.328  29.918   2.272
80572W        W45832  15.802  32.898  13.878
80573W        W45833  23.844  20.299   3.391
80574W        W45834   8.026  39.493   3.433
80575W        W45835  35.537   5.306  11.228
80576W        W45836  22.454  39.443  14.597
80577W        W45837   6.881   3.153  10.679
80578W        W45838  43.328  41.043   1.216
80579W        W45839  38.618  29.415  12.498
80580W        W45840   1.314   6.428  12.510
80581W        W45841   9.167  44.271   2.902
80582W        W45842  19.596  22.027   3.439
80583W        W45843  26.074  44.909   1.867
80584W        W45844  40.995  28.420   1.419
80585W        W45845  13.967  16.758  12.441
80586W        W45846  23.741  37.152  14.005
80587W        W45847  18.048  17.760   0.375
80588W        W45848   7.933  38.190   4.161
80589W        W45849  22.729  31.431  11.727
80590W        W45850  11.836   1.833   0.889
80591W        W45851  33.606  38.789  12.867
80592W        W45852  13.394  30.147  10.958
80593W        W45853   0.283  44.325   1.528
80594W        W45854  17.740   0.347   2.391
80595W        W45855  20.218   0.437  12.042
80596W        W45856  16.602  17.549  11.019
80597W        W45857   4.484  42.155   4.153
80598W        W45858   0.819  16.566  14.430
80599W        W45859   0.063  41.292   3.423
80600W        W45860  16.612  36.438  13.995
80601W        W45861  31.110  25.461  12.758
80602W        W45862  15.827   5.011   2.561
80603W        W45863  39.068  14.888  11.082
80604W        W45864  20.033  12.997  13.765
80605W        W45865  13.694   8.414   2.152
80606W        W45866   9.347   6.858  14.275
80607W        W45867  37.751  28.726  14.242
80608W        W45868  18.793  34.483  13.944
80609W        W45869  19.712  44.915   2.240
80610W        W45870   4.430   8.337   1.449
80611W        W45871  24.565   9.786  11.588
80612W        W45872   4.236  28.535   0.779
80613W        W45873  13.705  19.203  14.907
80614W        W45874  25.998  15.810  12.184
80615W        W45875  30.590  30.427  13.574
80616W        W45876  43.294  24.729  12.972
80617W        W45877  18.869  41.387  12.438
80618W        W45878   9.342   1.682   0.772
80619W        W45879   0.721  22.668   3.279
80620W        W45880  41.399  10.459   1.795
80621W        W45881  26.635   6.458  10.286
80622W        W45882   3.426  17.136  13.486
80623W        W45883  44.520  21.687   0.271
80624W        W45884   4.410  18.156   3.640
80625W        W45885   3.464  41.490  14.365
80626W        W45886   9.325   0.627   0.819
80627W        W45887  14.776  37.329  12.958
80628W        W45888  15.947  14.788  10.702
80629W        W45889  10.932   3.127   4.978
80630W        W45890  34.351  38.450   1.204
80631W        W45891  16.022  23.726   4.644
80632W        W45892  41.481   2.327   3.120
80633W        W45893  35.928   6.450  13.162
80634W        W45894  43.026  20.786  13.981
80635W        W45895  35.145   5.812   4.813
80636W        W45896  33.697   8.332   2.726
80637W        W45897  31.597  44.896   3.618
80638W        W45898  17.504   5.880   2.770
80639W        W45899   2.749   8.071   2.838
80640W        W45900  18.869  29.353  13.982
80641W        W45901   4.984  43.766  10.449
80642W        W45902  39.552  27.036   4.003
80643W        W45903  20.878  12.846   0.881
80644W        W45904  43.982  11.666  13.968
80645W        W45905  41.239  13.248   4.145
80646W        W45906  26.603  37.890  12.608
80647W        W45907  36.938  14.344  14.903
80648W        W45908  29.526  36.145  14.897
80649W        W45909  11.676  10.617   3.666
80650W        W45910   4.139  28.632  14.946
80651W        W45911   8.124   3.998   0.324
80652W        W45912  32.456  11.257   3.893
80653W        W45913  22.503   6.416  14.435
80654W        W45914   1.809  14.807   2.191
80655W        W45915   7.382  31.316   3.220
80656W        W45916  44.730  44.489   2.256
80657W        W45917  18.599   7.170  10.674
80658W        W45918  42.409  36.420  13.927
80659W        W45919  38.533  36.579  12.606
80660W        W45920  20.781  39.714  12.922
80661W        W45921  31.401  12.408  12.943
80662W        W45922   4.845  26.661  13.124
80663W        W45923  11.285  31.142  12.494
80664W        W45924  38.053  19.089   2.441
80665W        W45925  28.489  12.235   4.215
80666W        W45926   0.408  21.019  13.505
80667W        W45927  31.126  39.998   1.969
80668W        W45928  38.055  29.601  11.511
80669W        W45929  16.333   8.976   3.392
80670W        W45930  13.838   6.852   0.875
80671W        W45931   1.520   7.257   0.877
80672W        W45932  18.915   2.739   0.423
80673W        W45933  35.614  25.454  13.037
80674W        W45934  40.714  26.926   1.288
80675W        W45935   9.336  39.645   0.384
80676W        W45936   2.813  21.725   2.389
80677W        W45937  29.215   4.724   3.760
80678W        W45938  40.768   4.447  13.830
80679W        W45939  14.601  29.386  13.301
80680W        W45940  26.058   4.407   4.021
80681W        W45941  11.278  40.497  10.708
80682W        W45942  24.238  39.725   0.991
80683W        W45943  14.207  22.502  12.145
80684W        W45944  33.862  18.111  11.555
80685W        W45945  25.797  44.064  12.557
80686W        W45946  38.074   8.704  10.451
80687W        W45947  20.007  19.504  11.515
80688W        W45948  17.756  40.696  11.010
80689W        W45949  24.986  42.774   3.696
80690W        W45950  38.730  13.086   1.444
80691W        W45951   5.469  28.680  12.054
80692W        W45952  38.951  28.168   0.453
80693W        W45953  37.218  19.536   9.879
80694W        W45954  16.888  25.216  14.984
80695W        W45955  16.539  37.414  14.286
80696W        W45956   8.270   5.888  13.931
80697W        W45957   8.698   1.746  10.883
80698W        W45958   2.727  29.112   1.222
80699W        W45959  44.726   9.295   5.519
80700W        W45960   1.729  43.710   2.752
80701W        W45961   0.433  37.526   0.716
80702W        W45962  29.507   9.112  14.384
80703W        W45963  44.879  28.459  12.043
80704W        W45964   7.399  11.610   3.216
80705W        W45965  26.962  41.908   2.736
80706W        W45966  27.615  30.013   0.052
80707W        W45967  40.855  31.392   1.067
80708W        W45968  12.559  16.762  13.521
80709W        W45969   4.880  39.052   3.610
80710W        W45970  36.684  43.394  11.091
80711W        W45971  29.664   9.984   5.084
80712W        W45972  38.108  34.928   0.897
80713W        W45973   0.941   1.893  14.941
80714W        W45974  44.221   3.883  12.692
80715W        W45975  15.690  16.134  10.572
80716W        W45976  26.328  43.078   3.761
80717W        W45977   2.299   8.898  13.044
80718W        W45978  17.284  21.156   1.483
80719W        W45979  14.032  12.609  11.991
80720W        W45980  20.355  23.540  10.698
80721W        W45981  10.760  43.164   1.294
80722W        W45982  18.979  43.887   0.396
80723W        W45983  14.656  11.393   3.214
80724W        W45984  19.198  40.952  10.734
80725W        W45985   9.858  19.268  11.974
80726W        W45986  44.888  26.643   4.727
80727W        W45987  42.183  31.843  13.946
80728W        W45988  17.609  37.194  10.664
80729W        W45989  23.092  38.256   0.344
80730W        W45990  38.050  12.428  14.455
80731W        W45991  28.702  24.935   5.475
80732W        W45992  27.942  40.112   3.943
80733W        W45993  32.493   9.270  12.658
80734W        W45994  13.776   2.375  14.624
80735W        W45995  30.505  38.523  11.552
80736W        W45996  18.753  16.278   3.658
80737W        W45997  28.037  29.000   1.913
80738W        W45998   5.135  37.160  12.061
80739W        W45999  41.383  28.955   2.925
80740W        W46000  30.611  35.437  12.023
80741W        W46001  15.329  36.524   0.842
80742W        W46002  34.858  24.572  14.459
80743W        W46003  24.748  43.000   1.092
80744W        W46004  36.606   6.255  14.897
80745W        W46005  15.605  17.866   3.683
80746W        W46006   3.303  24.486   0.984
80747W        W46007  39.935  41.470  12.054
80748W        W46008  29.919   1.506   1.276
80749W        W46009  20.102  28.418   1.860
80750W        W46010  39.311  12.118   3.252
80751W        W46011  26.694  40.969   3.087
80752W        W46012  19.148   8.714   4.559
80753W        W46013  15.525  35.396   0.792
80754W        W46014   2.853  30.548  12.434
80755W        W46015  12.817  24.075  12.261
80756W        W46016  32.653  36.840  13.509
80757W        W46017  27.044  31.075   1.687
80758W        W46018   1.944  40.124   4.656
80759W        W46019  43.435  10.666   3.723
80760W        W46020  24.829  41.906  14.707
80761W        W46021  21.483   8.383  11.450
80762W        W46022  28.920  18.260  12.086
80763W        W46023  10.363  31.569  11.170
80764W        W46024  21.470   6.395  10.719
80765W        W46025  31.013  31.326  10.349
80766W        W46026  29.866  24.115   2.320
80767W        W46027  24.137  31.040   2.145
80768W        W46028  20.516   4.813  10.208
80769W        W46029  35.396   3.359  10.831
80770W        W46030  30.513   4.126   3.840
80771W        W46031  23.941  20.240   4.669
80772W        W46032  35.988  16.801  12.588
80773W        W46033  37.622   2.172   4.494
80774W        W46034  18.795  31.467  10.553
80775W        W46035   3.239   3.542  10.660
80776W        W46036  12.585  42.606  13.300
80777W        W46037   3.277  25.621  13.879
80778W        W46038  43.308  28.166   4.370
80779W        W46039  33.942  34.628  13.009
80780W        W46040  32.329  16.113   0.480
80781W        W46041   6.755   4.263  11.201
80782W        W46042  14.045  30.909   4.130
80783W        W46043  32.163  43.010  10.803
80784W        W46044  17.202  15.815   1.288
80785W        W46045   0.830  27.115   1.675
80786W        W46046  26.533  26.362   1.573
80787W        W46047  31.071   2.935  14.876
80788W        W46048  16.591  19.849   3.382
80789W        W46049  12.029  38.463  12.914
80790W        W46050  40.427   2.409  10.689
80791W        W46051  13.090  33.309   4.627
80792W        W46052  38.362  39.970   2.674
80793W        W46053  23.394   0.287  12.100
80794W        W46054  43.021  23.503   4.282
80795W        W46055   3.624   7.347  12.992
80796W        W46056  19.174  11.382  12.091
80797W        W46057   9.922  40.869   1.236
80798W        W46058  30.273  23.977  12.045
80799W        W46059  15.297  27.587   2.350
80800W        W46060  41.365  34.454  10.724
80801W        W46061  12.677  23.553   4.601
80802W        W46062  15.738  18.807  13.868
80803W        W46063  16.143  12.712  12.077
80804W        W46064  25.692  33.133  10.900
80805W        W46065  19.772  26.993   0.426
80806W        W46066   3.055  40.945  13.009
80807W        W46067  33.396  16.615  10.730
80808W        W46068  15.070  43.492   2.164
80809W        W46069  28.362  24.840   5.072
80810W        W46070  24.678  42.446   3.414
80811W        W46071  28.564  30.681   0.355
80812W        W46072  42.897  23.558  10.278
80813W        W46073  18.832  38.772  12.222
80814W        W46074   6.968  27.564  11.444
80815W        W46075  15.582  33.798  12.622
80816W        W46076  37.970  32.681  13.707
80817W        W46077   2.523   0.924  11.536
80818W        W46078   4.951   9.156   2.751
80819W        W46079   8.245  37.813   2.695
80820W        W46080   7.238  11.451  13.398
80821W        W46081  33.202   1.411   3.815
80822W        W46082   0.492  27.169   1.153
80823W        W46083  10.139  19.479  13.954
80824W        W46084  20.147   3.567   2.339
80825W        W46085   7.308   2.353   1.789
80826W        W46086  13.152  21.974   4.536
80827W        W46087  29.016  42.300   0.309
80828W        W46088  22.323  27.047   4.713
80829W        W46089  23.874  42.271  12.846
80830W        W46090  21.228  41.204   3.654
80831W        W46091  34.535  21.360  11.966
80832W        W46092  32.484  19.547  12.524
80833W        W46093  28.540  34.924  12.656
80834W        W46094  17.619  10.191   4.334
80835W        W46095  11.876  29.264   3.388
80836W        W46096  14.526  44.885   3.007
80837W        W46097  26.507  26.168  12.768
80838W        W46098  21.354  17.007  13.821
80839W        W46099  12.540  29.109  13.042
80840W        W46100  13.540  12.588  12.132
80841W        W46101  40.956   3.914   3.180
80842W        W46102  37.837  43.239   3.155
80843W        W46103  32.868  30.646  13.576
80844W        W46104   9.671   2.325   1.899
80845W        W46105  43.910  36.163  12.656
80846W        W46106  21.325  24.987  13.876
80847W        W46107  18.784   2.692  14.459
80848W        W46108  44.314  37.825  11.400
80849W        W46109  18.599   2.948  12.824
80850W        W46110  29.656  39.745   2.342
80851W        W46111  35.899  35.639  13.062
80852W        W46112  42.475  44.988   0.655
80853W        W46113  26.237   0.384  11.076
80854W        W46114  21.113  28.748   4.598
80855W        W46115  35.079  44.681   0.360
80856W        W46116  28.915  42.101   3.402
80857W        W46117  42.862  10.844  11.861
80858W        W46118  26.904  34.351   0.938
80859W        W46119  32.023  13.300   5.021
80860W        W46120  16.610  30.841   2.291
80861W        W46121  42.380  26.596   2.331
80862W        W46122  40.952  21.819  10.685
80863W        W46123  21.044  39.885   4.329
80864W        W46124  15.084  40.823   1.670
80865W        W46125   0.243  31.616  13.462
80866W        W46126  25.089   1.752  13.961
80867W        W46127  37.797  38.563  13.033
80868W        W46128   2.999  38.631  11.184
80869W        W46129  37.501  21.327   3.575
80870W        W46130  22.988   3.789  10.317
80871W        W46131  40.892  35.162   1.056
80872W        W46132   1.192   8.882  12.407
80873W        W46133  11.933  42.444   0.913
80874W        W46134  15.809  38.014   0.826
80875W        W46135  23.456  32.990   3.708
80876W        W46136  14.775  23.445  10.631
80877W        W46137  12.532   1.894  11.063
80878W        W46138  10.085  42.804  13.443
80879W        W46139  37.190  42.793   1.615
80880W        W46140  37.571  32.629  14.381
80881W        W46141  36.247  25.410  13.569
80882W        W46142   9.541  14.093   4.523
80883W        W46143  25.585   3.168   3.700
80884W        W46144  31.679   7.827  14.031
80885W        W46145  30.681   3.808   4.655
80886W        W46146  42.255   2.184   3.218
80887W        W46147  44.895  44.480   1.223
80888W        W46148   0.723  39.059  13.963
80889W        W46149   6.188  21.601  11.735
80890W        W46150  11.585  37.915   2.256
80891W        W46151  25.273  17.695   3.623
80892W        W46152   8.694   6.874  13.464
80893W        W46153  23.028  19.142   3.948
80894W        W46154   3.377   3.515  13.123
80895W        W46155  32.272  18.805  11.573
80896W        W46156   4.202   8.274   2.857
80897W        W46157  12.922   2.646   2.548
80898W        W46158  26.794   0.206  13.833
80899W        W46159  42.442  30.467  11.947
80900W        W46160  19.298  24.376   0.286
80901W        W46161  21.133  38.643   2.226
80902W        W46162  19.580  11.409   3.820
80903W        W46163  11.090   4.868  11.474
80904W        W46164   4.476  18.723  13.649
80905W        W46165  30.683  41.882   4.843
80906W        W46166   1.043   7.491  12.445
80907W        W46167   3.012   9.921   0.396
80908W        W46168  44.780  43.962  11.415
80909W        W46169   2.420  39.348   4.471
80910W        W46170  43.182   3.642   3.603
80911W        W46171  38.030   9.462   2.212
80912W        W46172   2.360  19.376   1.894
80913W        W46173  43.734  15.593  12.440
80914W        W46174  27.972  42.520   1.398
80915W        W46175  35.413  26.105  12.167
80916W        W46176  27.117  16.780  13.739
80917W        W46177  22.598  14.710   2.333
80918W        W46178   3.692  35.926   0.122
80919W        W46179  21.961  43.346  13.914
80920W        W46180  24.905  37.464  14.300
80921W        W46181  21.498  25.454  12.514
80922W        W46182  20.023  22.558  14.442
80923W        W46183   8.594  10.240   3.649
80924W        W46184  31.624  10.742  13.247
80925W        W46185  43.537  15.028   3.731
80926W        W46186  13.371  42.782   0.816
80927W        W46187  35.876   5.674   2.833
80928W        W46188  42.401  41.503   4.004
80929W        W46189  33.888  13.519   4.026
80930W        W46190  11.815  19.472  12.590
80931W        W46191  43.602  26.766   1.089
80932W        W46192   4.097  42.347  11.663
80933W        W46193  39.113  14.411   1.392
80934W        W46194  44.065  25.756   1.772
80935W        W46195  10.978  41.670   0.262
80936W        W46196  37.407  30.252   3.591
80937W        W46197  26.105  21.118  13.268
80938W        W46198  11.675  12.651   0.378
80939W        W46199  43.471   0.781  11.242
80940W        W46200  14.179  32.606   3.902
80941W        W46201  34.763   7.257   2.301
80942W        W46202  32.522  44.161   1.577
80943W        W46203  42.013   2.250   0.937
80944W        W46204   5.359  12.780  10.576
80945W        W46205  34.338  22.985   2.194
80946W        W46206  28.009  25.409  11.196
80947W        W46207  13.896  32.686   3.444
80948W        W46208  38.622   0.566  13.115
80949W        W46209  23.984  11.402  14.335
80950W        W46210  16.978  31.242  12.447
80951W        W46211   4.425  40.725  12.394
80952W        W46212  27.959  12.365  13.743
80953W        W46213   2.383  44.475   2.835
80954W        W46214  16.356  30.936  10.651
80955W        W46215   0.132  26.859   3.647
80956W        W46216   8.655   0.300  11.198
80957W        W46217  23.001   0.467  14.732
80958W        W46218   4.194  42.018   1.873
80959W        W46219  40.185  29.100  13.078
80960W        W46220  16.264  10.250   2.776
80961W        W46221  13.824  10.826   2.340
80962W        W46222  14.173  35.662   2.300
80963W        W46223   0.780  39.760   1.611
80964W        W46224  28.054  31.472   3.497
80965W        W46225  16.708  21.447  14.898
80966W        W46226  17.039  12.677   1.416
80967W        W46227  37.091  36.815   2.865
80968W        W46228   0.223   8.503  12.490
80969W        W46229  39.733   9.353   2.718
80970W        W46230   9.340  29.536  13.296
80971W        W46231  32.078  43.414  11.131
80972W        W46232  35.150  39.402  11.221
80973W        W46233  28.880  31.085   1.782
80974W        W46234   3.471  20.591   1.188
80975W        W46235   5.446  26.128  14.024
80976W        W46236  24.717  14.085  13.852
80977W        W46237   5.431  37.138  13.384
80978W        W46238  30.018  38.855   3.261
80979W        W46239  18.641  21.228   5.223
80980W        W46240  21.419  30.933   0.307
80981W        W46241  33.152  19.475  10.037
80982W        W46242  23.133  23.038   2.771
80983W        W46243   9.032  30.023   2.735
80984W        W46244  20.623   6.720  14.857
80985W        W46245   0.563  19.543  14.834
80986W        W46246  12.645  24.453  13.098
80987W        W46247   1.024   6.143  10.149
80988W        W46248  30.507  26.743  11.688
80989W        W46249   7.338  37.772   1.941
80990W        W46250  26.922  28.069  10.325
80991W        W46251  43.827  31.987  13.370
80992W        W46252  18.364  18.248  12.135
80993W        W46253  22.282  17.163   0.969
80994W        W46254  10.320  44.202  11.579
80995W        W46255  20.030  42.413   0.361
80996W        W46256  32.070  36.248  12.165
80997W        W46257  44.504  40.074  14.024
80998W        W46258  44.454   9.011   5.186
80999W        W46259  36.197  12.775   4.192
81000W        W46260  44.668  26.843  11.102
81001W        W46261  44.227   8.286  14.875
81002W        W46262  26.905  28.401   1.855
81003W        W46263   0.709  20.943  13.091
81004W        W46264   8.771  44.421   1.092
81005W        W46265  38.564  38.979  14.130
81006W        W46266  23.126  14.126  14.361
81007W        W46267  11.101  30.339   1.692
81008W        W46268  13.572  38.053   3.136
81009W        W46269   3.820  16.882   1.723
81010W        W46270  27.681  43.970   3.340
81011W        W46271  31.597  11.913  12.145
81012W        W46272   2.009  12.389   0.247
81013W        W46273   7.230  42.136  14.167
81014W        W46274   1.469  34.913  13.567
81015W        W46275  28.522  42.588   2.255
81016W        W46276  43.308  19.053   4.193
81017W        W46277  19.800   9.799  12.335
81018W        W46278  36.266  21.513   0.746
81019W        W46279  21.036  31.047  13.003
81020W        W46280  44.481  18.798   3.681
81021W        W46281  39.648  17.838   0.976
81022W        W46282   4.859  13.168  13.732
81023W        W46283  18.902   7.481  11.913
81024W        W46284   4.414  34.032   2.578
81025W        W46285  15.225  31.541   2.250
81026W        W46286  43.517  30.161  11.586
81027W        W46287   8.970  21.255  11.513
81028W        W46288   1.853  35.641   0.544
81029W        W46289   7.096  37.523  13.604
81030W        W46290  28.914  25.652  12.488
81031W        W46291  29.007   9.465  12.083
81032W        W46292  36.459  10.085   0.395
81033W        W46293  34.038  10.342  14.739
81034W        W46294  42.262  11.082   3.889
81035W        W46295  11.694  24.765  12.925
81036W        W46296   5.316  32.142   2.497
81037W        W46297  31.501  15.748   3.629
81038W        W46298  41.062  44.288   0.754
81039W        W46299   1.431  22.844  11.634
81040W        W46300   7.857  10.306   3.174
81041W        W46301  22.179   5.479   1.052
81042W        W46302  20.780  19.088  14.510
81043W        W46303  27.649  17.479  11.175
81044W        W46304  35.872  40.961  14.007
81045W        W46305  11.122   8.206   0.791
81046W        W46306   0.985   0.493  11.146
81047W        W46307  36.375  42.973  14.951
81048W        W46308  22.759  40.447   3.664
81049W        W46309  23.011   5.118   1.626
81050W        W46310  12.510   4.524  13.024
81051W        W46311  31.588  36.650   0.952
81052W        W46312   9.769   5.049   0.020
81053W        W46313  23.683  19.674   0.361
81054W        W46314  10.299   3.980  11.979
81055W        W46315  22.054  21.653   2.336
81056W        W46316  11.343  31.465  11.090
81057W        W46317   7.241  33.083  11.584
81058W        W46318  18.843  33.965   0.927
81059W        W46319  33.225  27.707   4.452
81060W        W46320  33.525  40.302   3.855
81061W        W46321   2.194  43.570   2.309
81062W        W46322  17.535   5.241   3.693
81063W        W46323  16.342  32.883   4.080
81064W        W46324  32.960  35.581   1.785
81065W        W46325  44.058   5.877   4.643
81066W        W46326   4.004  17.151  11.605
81067W        W46327  37.248  10.696   2.276
81068W        W46328  11.178  31.953   0.970
81069W        W46329   0.535   8.309   2.155
81070W        W46330  26.008  27.231  14.315
81071W        W46331  44.233  31.775  11.187
81072W        W46332  13.357   2.470  11.583
81073W        W46333  39.183  43.832  11.500
81074W        W46334   7.196  30.170   2.579
81075W        W46335  35.032   5.278   2.412
81076W        W46336   0.868   6.011  14.717
81077W        W46337  19.314  17.479   1.927
81078W        W46338  41.003  24.618  12.075
81079W        W46339  30.339  11.242   3.330
81080W        W46340  32.231  30.583   4.702
81081W        W46341  26.516  14.358   0.861
81082W        W46342  31.231  36.758   0.347
81083W        W46343   2.795  40.204   1.656
81084W        W46344  14.989   0.645  11.048
81085W        W46345  26.630   6.229  13.862
81086W        W46346   7.358  25.566  10.509
81087W        W46347   2.003  38.158  14.303
81088W        W46348  38.891   0.077  12.017
81089W        W46349   1.766   6.786   1.835
81090W        W46350  34.842  44.978   2.199
81091W        W46351   4.240  34.851  10.678
81092W        W46352  28.506  28.123  13.388
81093W        W46353   7.355  27.549  14.880
81094W        W46354  12.818   6.744  14.858
81095W        W46355  39.374  38.036  11.845
81096W        W46356   0.803  27.379   3.952
81097W        W46357  27.206  44.353   1.905
81098W        W46358  30.415   0.679   0.333
81099W        W46359  32.832   8.812   2.761
81100W        W46360  18.465  35.905  12.224
81101W        W46361  33.192  29.387   0.698
81102W        W46362  12.354  36.085  12.430
81103W        W46363  15.760   9.178   0.772
81104W        W46364  28.043  37.729  12.568
81105W        W46365  41.228  40.755  12.020
81106W        W46366  37.804  16.991  14.353
81107W        W46367  22.654   3.926   5.193
81108W        W46368  26.718   5.408   1.218
81109W        W46369  41.426  12.890   3.397
81110W        W46370  13.952   1.823  10.851
81111W        W46371   9.562  32.644   2.730
81112W        W46372  12.546  36.293  13.282
81113W        W46373  42.023   7.442   4.218
81114W        W46374  41.333   1.515   4.692
81115W        W46375  20.668  33.589  12.887
81116W        W46376  43.499  33.089  13.942
81117W        W46377   4.812  39.295   3.138
81118W        W46378   8.987   9.349   0.817
81119W        W46379  27.903  30.692  13.961
81120W        W46380  34.359  24.944   2.743
81121W        W46381  10.352   3.756   2.741
81122W        W46382  33.701  14.926  11.098
81123W        W46383  18.081  30.502   1.134
81124W        W46384  42.554   3.776   4.857
81125W        W46385  44.358   2.978  10.864
81126W        W46386  20.366   9.882  10.913
81127W        W46387  25.106  37.490   1.016
81128W        W46388   7.322   7.975  10.597
81129W        W46389  43.327  23.721  13.869
81130W        W46390  40.126  13.353   4.543
81131W        W46391   2.019   8.480   4.280
81132W        W46392   7.272  14.873  14.369
81133W        W46393  23.363  12.166  14.236
81134W        W46394  29.631  24.453   4.024
81135W        W46395  25.139   3.182   1.305
81136W        W46396  30.393  32.382   3.781
81137W        W46397  23.505   2.435  12.524
81138W        W46398  44.499   7.222   2.758
81139W        W46399  15.019  12.888   1.856
81140W        W46400  35.087  17.964  12.508
81141W        W46401  15.322  37.578   4.276
81142W        W46402  26.971   3.878  13.987
81143W        W46403  38.243   4.798  12.477
81144W        W46404   5.029  29.482   2.502
81145W        W46405  38.786  23.040  11.854
81146W        W46406  26.939  31.057   0.675
81147W        W46407   4.240   3.969   4.639
81148W        W46408   4.843  18.470  11.352
81149W        W46409  39.949  34.449  13.289
81150W        W46410  35.883  40.921   2.266
81151W        W46411  24.968   3.709  11.737
81152W        W46412   9.984   2.116   0.495
81153W        W46413   4.138  34.115   0.837
81154W        W46414  23.930  19.375  12.516
81155W        W46415  10.670  33.780   0.012
81156W        W46416  43.146  10.242   3.963
81157W        W46417  30.403  29.584   1.446
81158W        W46418  35.558   9.997   3.575
81159W        W46419   6.806   5.649  13.385
81160W        W46420  20.673  12.733  13.568
81161W        W46421  27.439  23.536   2.182
81162W        W46422  39.978  44.772   1.374
81163W        W46423  16.127   4.705   2.271
81164W        W46424  43.298   8.293   0.013
81165W        W46425   7.802  11.047  14.935
81166W        W46426  37.927  35.249   2.734
81167W        W46427  35.891   6.317  14.078
81168W        W46428   1.389  26.851  11.705
81169W        W46429  19.682  31.362   2.481
81170W        W46430  37.331  33.394  12.135
81171W        W46431  39.560  18.517   2.954
81172W        W46432  31.950  32.464   1.740
81173W        W46433   6.294  26.510  11.405
81174W        W46434  14.174   7.500  13.176
81175W        W46435  44.221   8.760   0.753
81176W        W46436   3.150  26.286  12.172
81177W        W46437   3.024   7.208  11.224
81178W        W46438  24.064   7.959   4.573
81179W        W46439  36.915  25.998   1.682
81180W        W46440  43.171  25.983   4.206
81181W        W46441  26.238  27.099  11.116
81182W        W46442  19.153  22.007  13.757
81183W        W46443  35.859  43.808   2.313
81184W        W46444  18.251  10.665   3.141
81185W        W46445   7.283  34.739   4.478
81186W        W46446  35.534   0.928  11.410
81187W        W46447  34.890  42.581   1.751
81188W        W46448  38.585  28.022  14.498
81189W        W46449  18.649  34.733  14.413
81190W        W46450  14.679  20.253  11.942
81191W        W46451  24.463  38.801   3.273
81192W        W46452  11.766  39.754  13.847
81193W        W46453  39.498  32.629  10.944
81194W        W46454  44.729   3.310  14.090
81195W        W46455  19.889  33.406  13.087
81196W        W46456  14.304  35.295  11.247
81197W        W46457  29.358   6.395   0.995
81198W        W46458  34.901  37.341   0.825
81199W        W46459   5.736  10.746   1.510
81200W        W46460   2.955  18.603  10.478
81201W        W46461  24.547  10.628  12.998
81202W        W46462  43.036  14.677  11.507
81203W        W46463  38.390  32.472  14.030
81204W        W46464   2.237  42.659   0.588
81205W        W46465  20.560  15.301  11.485
81206W        W46466  40.569  35.931  13.454
81207W        W46467  42.241  12.081   9.895
81208W        W46468  28.619  42.741   4.016
81209W        W46469   6.421  44.411   4.658
81210W        W46470  34.319  31.891   2.181
81211W        W46471  29.110  14.980  12.727
81212W        W46472  15.561  27.389   4.529
81213W        W46473  33.884  42.621  13.938
81214W        W46474   1.220  16.172   4.911
81215W        W46475  38.045  16.262  12.073
81216W        W46476  43.135  27.914  14.389
81217W        W46477  17.859  32.841   4.167
81218W        W46478  11.733  14.399  14.232
81219W        W46479  18.536  22.076  11.268
81220W        W46480  12.624  14.951   4.274
81221W        W46481   8.457  25.970   2.323
81222W        W46482  21.961  16.532  10.505
81223W        W46483  10.390  38.321   1.901
81224W        W46484  13.443  31.631   2.517
81225W        W46485  33.464  14.355  14.076
81226W        W46486  35.822  22.740  12.445
81227W        W46487  24.264  41.501   1.832
81228W        W46488   6.562  42.789   2.352
81229W        W46489  40.310  40.533   0.471
81230W        W46490  10.790  31.313   3.234
81231W        W46491  43.656  44.704   4.708
81232W        W46492  35.328  27.940   0.003
81233W        W46493   3.493   2.750   3.785
81234W        W46494  41.483  17.351  13.423
81235W        W46495  25.262  39.987  13.054
81236W        W46496  22.553  21.145   2.654
81237W        W46497  23.996  14.450  14.922
81238W        W46498   0.880  31.711  11.456
81239W        W46499   0.333  18.232   2.302
81240W        W46500  41.559   9.615   3.314
81241W        W46501  27.699   8.410   4.299
81242W        W46502  36.469  33.990   2.207
81243W        W46503  11.831  25.597   0.829
81244W        W46504  42.838  33.229   3.733
81245W        W46505  39.890  32.982  14.835
81246W        W46506  15.545  27.246  11.491
81247W        W46507  43.326   2.953  14.262
81248W        W46508  38.933  38.109  11.074
81249W        W46509  38.645  28.450   5.004
81250W        W46510  20.581  10.144   1.666
81251W        W46511  26.632  30.326  10.971
81252W        W46512  30.516  34.181   1.700
81253W        W46513  15.092  24.957   3.390
81254W        W46514  33.436  43.208  12.988
81255W        W46515  14.174  39.276   3.874
81256W        W46516   0.648  10.596   3.152
81257W        W46517  32.422  17.331  10.835
81258W        W46518  40.442  34.612  13.460
81259W        W46519  11.017   4.847   5.450
81260W        W46520   3.742  14.858   2.229
81261W        W46521   4.355  33.160  13.454
81262W        W46522  17.016  26.989  14.216
81263W        W46523  12.236  33.599   4.392
81264W        W46524   9.823  28.671   0.017
81265W        W46525   7.136  26.141   9.815
81266W        W46526   6.373  20.794  11.146
81267W        W46527   4.719  14.226   2.369
81268W        W46528  39.366  42.578   3.766
81269W        W46529  38.482  40.851  14.973
81270W        W46530  33.895  14.126  13.869
81271W        W46531  28.084  43.436  14.804
81272W        W46532  19.103  13.187   2.667
81273W        W46533  17.405  11.534  10.142
81274W        W46534  38.274  25.654  14.542
81275W        W46535  29.683  28.623   4.394
81276W        W46536  21.371  21.620  11.131
81277W        W46537  36.299  13.703  11.992
81278W        W46538   1.270  20.132  13.731
81279W        W46539   3.630  38.714  12.907
81280W        W46540  10.484  37.601   0.877
81281W        W46541   1.187  44.026  13.133
81282W        W46542  33.585  12.069  11.625
81283W        W46543  20.584  38.585   3.767
81284W        W46544  38.434  12.789  11.041
81285W        W46545   1.823  38.714   3.934
81286W        W46546   3.153  39.942   2.012
81287W        W46547  30.410   1.841   1.709
81288W        W46548  15.749  32.296   1.321
81289W        W46549   2.306  27.085  13.983
81290W        W46550  21.361  33.174   1.373
81291W        W46551  19.923  35.307   4.188
81292W        W46552  31.109  37.570   5.179
81293W        W46553  31.599   6.327  14.280
81294W        W46554   2.161  35.228   5.265
81295W        W46555  36.162  37.780  11.070
81296W        W46556  40.534   8.712   4.614
81297W        W46557  22.647  13.872  10.825
81298W        W46558  26.454  21.620   2.645
81299W        W46559   9.466   6.694   4.453
81300W        W46560  16.746  27.067   4.536
81301W        W46561  35.096  21.714  14.409
81302W        W46562  13.326   2.406   2.302
81303W        W46563  30.544  12.710   2.413
81304W        W46564  42.023  25.434  12.851
81305W        W46565   5.234  36.820  12.416
81306W        W46566  13.055  27.585  14.437
81307W        W46567  31.569   1.263  11.203
81308W        W46568  43.995  29.899  11.578
81309W        W46569  39.446  34.448  14.597
81310W        W46570   8.732  17.207   0.920
81311W        W46571  21.522  26.165  11.542
81312W        W46572  36.363  40.200   1.757
81313W        W46573  29.697   9.496   3.438
81314W        W46574  40.767   2.799   2.128
81315W        W46575  13.304  22.189   3.315
81316W        W46576  27.298  36.562   2.322
81317W        W46577  10.183  22.793   0.779
81318W        W46578  30.411  10.382   3.326
81319W        W46579  26.185  42.417  10.736
81320W        W46580   4.697   8.228   1.914
81321W        W46581  39.823  36.998  14.509
81322W        W46582  36.002  18.240  11.590
81323W        W46583  32.997   9.700   4.000
81324W        W46584  10.651  17.805   1.256
81325W        W46585  14.528   1.860   1.645
81326W        W46586   5.822  27.589  10.749
81327W        W46587  23.551  11.591   3.668
81328W        W46588  11.905  24.560   0.783
81329W        W46589  19.883  37.296   3.085
81330W        W46590  14.496  20.970  10.501
81331W        W46591  14.364   6.673   9.985
81332W        W46592  41.178  23.443  12.566
81333W        W46593  17.252   4.043   2.559
81334W        W46594  27.554  12.402   0.835
81335W        W46595   4.686  41.786   1.891
81336W        W46596   2.494  28.248  10.118
81337W        W46597  30.036   2.263  11.653
81338W        W46598   8.575  10.804   2.861
81339W        W46599   5.398   1.643  11.103
81340W        W46600   8.363  39.545   4.495
81341W        W46601  28.078  33.424   4.511
81342W        W46602  38.018  33.949   4.196
81343W        W46603  31.230  42.223   1.556
81344W        W46604   7.090   6.573   0.005
81345W        W46605  43.065  18.171  10.697
81346W        W46606  24.256  26.081   1.619
81347W        W46607  10.750  34.972  10.325
81348W        W46608  16.293  40.002  12.412
81349W        W46609  14.103  36.223  12.709
81350W        W46610   6.063  13.920  11.048
81351W        W46611  35.482   0.980   1.780
81352W        W46612  28.945   8.311   3.621
81353W        W46613  36.078  13.074  14.415
81354W        W46614  27.234  20.519   0.259
81355W        W46615  30.032  19.551   2.591
81356W        W46616  12.922   1.222   0.866
81357W        W46617  23.149  13.921  13.868
81358W        W46618   1.329   4.813   1.897
81359W        W46619  37.053   9.648  11.738
81360W        W46620  38.641  21.967   1.310
81361W        W46621  30.730  29.072  13.455
81362W        W46622  34.216  14.696   0.521
81363W        W46623  38.541   7.762   1.105
81364W        W46624   8.719   7.596   0.258
81365W        W46625  35.356  27.512  11.890
81366W        W46626  32.991  30.637   4.839
81367W        W46627  19.737  25.015  11.679
81368W        W46628  13.537  22.497   2.847
81369W        W46629  10.636  39.408  11.659
81370W        W46630  41.191  17.768  10.993
81371W        W46631  44.127  40.944  14.044
81372W        W46632  34.025  13.702   0.182
81373W        W46633  35.801  13.625   3.143
81374W        W46634  25.186  39.352  12.440
81375W        W46635  28.230  21.298  13.708
81376W        W46636   2.614  34.086  14.604
81377W        W46637   3.904  28.152  14.887
81378W        W46638  27.633  20.835   0.017
81379W        W46639  26.962  14.732  11.078
81380W        W46640   8.868  11.381  10.114
81381W        W46641   6.800  18.098  14.292
81382W        W46642   0.339   2.148   4.714
81383W        W46643  28.016  41.046   1.856
81384W        W46644  29.226  17.264  14.800
81385W        W46645   9.864  29.661   0.527
81386W        W46646  33.497  20.173  11.658
81387W        W46647  14.790  42.392  12.898
81388W        W46648  38.651  42.720  12.805
81389W        W46649  44.117  34.828  10.987
81390W        W46650  39.915  43.292  13.425
81391W        W46651  30.161  29.521   0.278
81392W        W46652   2.484  28.963   3.460
81393W        W46653  41.291  41.301   3.987
81394W        W46654   9.353  28.846   2.154
81395W        W46655  18.179  39.041   1.662
81396W        W46656  36.625  13.619   0.359
81397W        W46657  17.628   8.023   2.288
81398W        W46658  41.425  44.894   2.353
81399W        W46659  31.550  22.271  12.563
81400W        W46660   7.095   8.603  11.977
81401W        W46661  44.912  17.268  13.995
81402W        W46662  37.512  44.812  13.417
81403W        W46663   1.432  39.690   0.426
81404W        W46664  35.528  40.794  11.913
81405W        W46665  21.524   9.729   0.410
81406W        W46666  28.254  24.748   2.321
81407W        W46667  13.411  17.143  14.457
81408W        W46668  16.539  12.703   0.526
81409W        W46669   8.384  25.587  12.603
81410W        W46670   9.899  14.159   0.429
81411W        W46671   4.506  28.507   3.743
81412W        W46672   3.408  29.015   2.312
81413W        W46673  30.744  17.624   4.127
81414W        W46674  30.949  38.000   3.096
81415W        W46675  40.456  44.578   2.548
81416W        W46676  13.341  23.074  13.525
81417W        W46677  34.015  29.112  14.926
81418W        W46678  22.820  15.375   5.299
81419W        W46679  43.779  15.199   2.142
81420W        W46680  36.523  21.177  12.659
81421W        W46681  17.468  21.325  14.062
81422W        W46682  21.095  26.415  11.215
81423W        W46683  23.649   8.706  12.679
81424W        W46684   7.115  39.332   3.264
81425W        W46685  14.521  18.912  12.469
81426W        W46686  35.935  39.002   0.350
81427W        W46687  23.211  21.137  13.220
81428W        W46688  32.684  35.894  11.237
81429W        W46689  42.988  37.355  11.582
81430W        W46690  11.447  22.644   1.747
81431W        W46691  14.144  43.229   4.115
81432W        W46692  16.604  11.032   0.243
81433W        W46693   8.685  28.456  11.153
81434W        W46694  43.265  41.551   1.175
81435W        W46695   1.357  29.702  12.666
81436W        W46696  20.599  43.029   1.256
81437W        W46697  28.491  42.006  11.592
81438W        W46698  34.287  13.299   0.371
81439W        W46699  12.152  28.034  13.516
81440W        W46700   9.367   2.682  14.791
81441W        W46701   0.445  32.857  14.476
81442W        W46702  28.015   7.260   3.197
81443W        W46703  30.819  12.202  14.399
81444W        W46704   1.335  37.492   3.833
81445W        W46705   6.351  11.746   2.518
81446W        W46706  38.840  44.837  11.539
81447W        W46707  14.001  27.288  10.648
81448W        W46708  16.695   2.982   4.059
81449W        W46709  21.529  24.940   2.238
81450W        W46710  11.138   1.734  14.729
81451W        W46711  13.774  17.689   4.765
81452W        W46712  33.587  44.892  13.671
81453W        W46713   3.356  37.495   0.309
81454W        W46714  29.349   4.476   3.331
81455W        W46715  21.801  32.186  10.590
81456W        W46716  13.084  43.728  12.556
81457W        W46717  35.372   2.767  12.529
81458W        W46718  20.940  15.560   0.021
81459W        W46719  10.367   2.231   3.714
81460W        W46720  13.280  44.987   2.528
81461W        W46721  34.768  14.157   5.093
81462W        W46722  35.930  24.565  11.124
81463W        W46723  33.088  12.555  14.383
81464W        W46724  19.659   7.874  13.762
81465W        W46725  44.214  24.427   3.130
81466W        W46726  13.307   5.637   0.894
81467W        W46727  42.816  36.036  11.384
81468W        W46728  27.725  41.926   1.407
81469W        W46729   1.048   8.388  13.069
81470W        W46730  41.122  31.890   1.939
81471W        W46731   7.718  43.104   3.167
81472W        W46732  39.937  30.251   2.556
81473W        W46733  28.870   7.210  11.180
81474W        W46734  25.867  17.717   0.728
81475W        W46735  21.221  42.344  12.849
81476W        W46736  28.927   3.322  13.064
81477W        W46737  27.455   8.119   0.394
81478W        W46738   3.725   9.294  11.208
81479W        W46739  43.790   3.825  10.713
81480W        W46740   8.729   7.946   2.781
81481W        W46741  38.120  23.579  10.973
81482W        W46742  24.660  17.007  14.876
81483W        W46743   8.179  15.158  13.036
81484W        W46744  19.890   6.633  13.438
81485W        W46745  32.491  16.595  12.503
81486W        W46746  31.670   7.410  13.394
81487W        W46747  31.464  42.323  10.458
81488W        W46748  35.314  27.894  12.944
81489W        W46749   5.711  27.758   3.519
81490W        W46750  35.719  15.206  14.068
81491W        W46751  40.291   9.384   1.879
81492W        W46752  37.934  38.472   2.634
81493W        W46753  26.995  42.090  11.160
81494W        W46754   8.632  36.816   1.314
81495W        W46755   5.949   1.769  13.327
81496W        W46756  10.169  13.342   2.205
81497W        W46757  36.649  27.938   1.023
81498W        W46758   6.699  38.002   0.717
81499W        W46759   4.584  17.813   1.708
81500W        W46760  38.079  17.299  13.985
81501W        W46761   0.395   5.856   3.764
81502W        W46762   2.237  18.692  14.301
81503W        W46763  13.420  26.277   1.975
81504W        W46764  40.281   8.738  11.190
81505W        W46765  41.906  24.411  12.918
81506W        W46766   6.834  39.876   1.431
81507W        W46767  44.823   4.718   3.812
81508W        W46768  34.561  28.850   2.213
81509W        W46769  37.533  38.324   2.965
81510W        W46770  19.778  44.719   4.166
81511W        W46771  13.317   0.213  13.225
81512W        W46772  43.465  16.254  14.457
81513W        W46773  28.953   1.212   1.196
81514W        W46774  20.059   4.249  14.490
81515W        W46775  29.157  41.851   2.391
81516W        W46776   7.269  30.446   1.163
81517W        W46777   6.390  24.944   3.334
81518W        W46778  11.419  16.766   2.127
81519W        W46779  16.824  42.910  14.017
81520W        W46780  40.311  18.764  12.075
81521W        W46781  32.467  21.617  10.687
81522W        W46782  14.261   8.700  11.585
81523W        W46783  18.791  28.084   1.206
81524W        W46784  37.484  31.858  11.951
81525W        W46785  16.046   4.650   1.370
81526W        W46786  20.101  24.639   0.400
81527W        W46787  32.898  14.101  10.565
81528W        W46788  42.836  27.859  14.835
81529W        W46789  44.364  41.735  11.073
81530W        W46790  26.944   1.255  13.324
81531W        W46791   4.765  44.361   2.359
81532W        W46792  26.568  24.165  14.401
81533W        W46793  15.171   8.548   2.306
81534W        W46794   9.332  34.957   3.665
81535W        W46795  15.247  18.102  12.589
81536W        W46796  30.480  17.369  11.531
81537W        W46797  40.030  30.897  11.446
81538W        W46798  32.924  27.904  10.264
81539W        W46799   6.226  39.553   4.678
81540W        W46800   9.807   2.486  13.431
81541W        W46801  17.833   3.594  12.218
81542W        W46802  10.115  13.405   3.866
81543W        W46803  42.309   9.280   2.186
81544W        W46804  42.320  34.336  12.966
81545W        W46805  37.422  23.129  12.106
81546W        W46806  18.853  26.002  11.494
81547W        W46807  35.292   8.846   4.886
81548W        W46808  20.804   4.699   5.433
81549W        W46809  11.787  20.390  11.105
81550W        W46810  31.586   7.801  12.867
81551W        W46811  27.710  31.937  14.765
81552W        W46812  19.001  24.804   0.359
81553W        W46813   5.695   3.349  11.338
81554W        W46814  26.409  26.413   9.932
81555W        W46815  27.582   0.530   3.835
81556W        W46816  11.842   8.611   5.531
81557W        W46817  34.649   3.740   0.859
81558W        W46818  17.283  43.388   2.147
81559W        W46819  13.723  13.901   1.711
81560W        W46820  27.683  10.602   2.803
81561W        W46821   2.449  39.619   3.272
81562W        W46822  26.145   5.836   9.879
81563W        W46823   8.965  37.931  13.659
81564W        W46824  22.004  15.175  11.693
81565W        W46825  23.150   2.318  12.936
81566W        W46826  12.717  37.977   3.710
81567W        W46827  36.559  12.279   1.395
81568W        W46828  18.043   3.086  13.474
81569W        W46829  23.520   3.352   2.858
81570W        W46830  23.447  39.564   2.784
81571W        W46831  23.801  26.880  14.866
81572W        W46832   7.854  35.267  14.489
81573W        W46833  16.059   6.621  10.967
81574W        W46834  25.472  33.796   4.141
81575W        W46835   8.660   8.297  11.241
81576W        W46836  26.728  14.133  14.601
81577W        W46837  38.488  26.436  11.627
81578W        W46838  34.548  16.029   2.938
81579W        W46839  36.033  41.906  14.325
81580W        W46840  22.880  36.937   0.888
81581W        W46841  20.134  42.693   3.703
81582W        W46842   6.621  30.187   0.879
81583W        W46843  34.051  29.833  14.318
81584W        W46844  18.721  14.638  14.859
81585W        W46845  15.406  35.467  14.862
81586W        W46846   9.159  31.923  13.505
81587W        W46847  21.102  38.872  10.441
81588W        W46848   7.284  20.464   4.588
81589W        W46849  21.586  44.943  11.556
81590W        W46850  37.894   0.010  10.846
81591W        W46851   9.251   8.131  10.614
81592W        W46852  29.971   3.025   3.206
81593W        W46853  23.828  44.400   4.852
81594W        W46854  38.466  12.563  11.517
81595W        W46855  39.301  33.837   0.312
81596W        W46856  41.447  31.462   1.673
81597W        W46857  41.023  32.916   3.365
81598W        W46858   1.951  44.474   3.200
81599W        W46859  34.110  22.124  13.389
81600W        W46860  28.354  24.245  11.724
81601W        W46861   2.842  26.941  12.492
81602W        W46862  40.332  31.459   2.458
81603W        W46863  12.723  43.817  11.866
81604W        W46864  33.752  27.387   3.751
81605W        W46865  29.334  44.810   2.741
81606W        W46866  21.825  31.736  12.352
81607W        W46867  19.937  20.700   0.971
81608W        W46868  20.278  16.318  14.928
81609W        W46869  12.198  43.897  13.030
81610W        W46870  23.857  23.217  11.131
81611W        W46871   2.943   0.819   0.327
81612W        W46872   5.052  11.725   0.396
81613W        W46873   8.825   9.602   1.753
81614W        W46874   5.158   5.729  10.994
81615W        W46875  37.039   8.430  11.212
81616W        W46876   1.998  13.408  11.040
81617W        W46877  13.531  27.427   3.117
81618W        W46878  12.636  42.492   1.464
81619W        W46879  12.201  14.919  11.151
81620W        W46880  34.508  12.868   4.612
81621W        W46881  17.289  38.308   2.901
81622W        W46882  11.366  22.683   0.026
81623W        W46883   2.912  25.503  14.745
81624W        W46884  34.915  43.266   4.535
81625W        W46885  32.874  22.439   5.030
81626W        W46886  14.052  37.511   1.219
81627W        W46887  31.648  20.250   4.143
81628W        W46888   0.293  10.549   3.751
81629W        W46889  43.285  30.534   4.248
81630W        W46890  10.656  13.747  12.067
81631W        W46891  33.533   7.247  11.259
81632W        W46892  11.703  37.385   3.397
81633W        W46893  37.772  33.335   1.792
81634W        W46894  38.336  42.834  12.015
81635W        W46895  14.364  17.000   5.037
81636W        W46896  24.846  26.519   2.454
81637W        W46897   7.647  12.242   1.436
81638W        W46898  22.605  10.304   4.558
81639W        W46899   7.466  25.045   3.257
81640W        W46900   5.421   0.758   3.110
81641W        W46901  13.286  23.100  14.542
81642W        W46902   8.210  42.507  11.118
81643W        W46903   6.939  32.627  13.440
81644W        W46904  26.403  43.979  13.083
81645W        W46905  19.711  35.917   0.741
81646W        W46906  42.910  30.849   3.274
81647W        W46907  13.873  37.599   2.952
81648W        W46908  34.439  33.464  11.911
81649W        W46909  33.122  28.434   2.265
81650W        W46910  24.378   3.223   4.479
81651W        W46911  33.688   9.397   2.104
81652W        W46912  38.656  29.596   3.828
81653W        W46913  14.599   8.800   4.527
81654W        W46914  18.708   8.656   2.632
81655W        W46915   5.140  44.769   1.379
81656W        W46916  22.226  39.040   4.953
81657W        W46917  19.829   5.192   1.648
81658W        W46918  33.728   9.735   4.522
81659W        W46919  13.051   4.913  14.945
81660W        W46920   0.062  15.197  11.595
81661W        W46921  20.202  34.362  11.230
81662W        W46922  35.056  29.235  13.174
81663W        W46923   2.065  35.171  12.956
81664W        W46924  13.625  11.666   3.944
81665W        W46925  38.374  35.057   2.905
81666W        W46926   0.923  26.015  12.646
81667W        W46927  31.708  23.313  12.490
81668W        W46928  29.086   6.249  14.473
81669W        W46929  28.684  20.309  12.991
81670W        W46930  10.294  14.837  14.953
81671W        W46931   9.906  26.610   0.872
81672W        W46932  27.808  28.675   2.380
81673W        W46933  33.556   4.533   1.234
81674W        W46934   6.337   2.948   4.552
81675W        W46935  21.994  31.911  12.916
81676W        W46936  18.535  35.595   3.605
81677W        W46937  23.476   9.803  13.858
81678W        W46938  20.196  21.962  14.509
81679W        W46939  31.356  20.714   1.421
81680W        W46940  32.398  22.263   4.097
81681W        W46941  15.625  37.440   2.938
81682W        W46942  10.855  41.225   0.951
81683W        W46943  14.700  20.958   0.213
81684W        W46944  19.976   3.919   2.725
81685W        W46945   8.543  21.588  12.008
81686W        W46946  20.334  38.366   1.392
81687W        W46947  12.300  30.341  11.053
81688W        W46948  33.421  22.687  14.396
81689W        W46949   7.491  33.830   4.197
81690W        W46950  32.955  16.192  11.364
81691W        W46951  23.444  35.505   1.877
81692W        W46952   4.737  40.464  14.668
81693W        W46953  33.434  30.276  10.533
81694W        W46954   1.793  24.984  12.964
81695W        W46955   8.837  44.234  12.165
81696W        W46956  18.049  23.361   3.781
81697W        W46957  29.167  33.602   3.881
81698W        W46958  16.164  33.593   1.461
81699W        W46959   2.788   8.677   0.484
81700W        W46960   2.925  36.845   3.978
81701W        W46961  23.055  24.643  11.218
81702W        W46962  19.630  18.666  10.695
81703W        W46963   6.636  12.877   1.806
81704W        W46964  34.022  16.900  13.442
81705W        W46965   7.720  39.457   1.952
81706W        W46966  15.154  17.677  14.339
81707W        W46967   4.849  19.326   3.877
81708W        W46968   5.288  39.323   3.802
81709W        W46969  17.312  34.502   2.496
81710W        W46970  33.433  28.346  14.385
81711W        W46971  10.668   5.174   0.330
81712W        W46972  10.760   9.373  10.781
81713W        W46973  44.714  15.556  14.109
81714W        W46974  10.564   5.962   1.834
81715W        W46975  44.797  29.454   1.357
81716W        W46976   2.939  30.509  11.907
81717W        W46977  20.437  11.609   1.060
81718W        W46978  41.314  18.509  13.847
81719W        W46979  24.256  39.814   2.796
81720W        W46980  11.187  31.290   3.644
81721W        W46981  43.097  29.128   1.005
81722W        W46982   9.871  17.091  10.828
81723W        W46983  31.627  30.927   1.286
81724W        W46984  38.912  35.009   0.008
81725W        W46985   9.579  35.952   2.786
81726W        W46986  19.647   4.167   1.687
81727W        W46987  25.149   3.346   2.237
81728W        W46988  13.594  38.380   1.409
81729W        W46989   0.836  40.052   4.106
81730W        W46990  19.081  29.643   2.086
81731W        W46991   4.896  39.806   3.206
81732W        W46992  23.679  26.549  11.925
81733W        W46993   8.584   6.430   4.019
81734W        W46994  26.576   4.266  14.013
81735W        W46995  10.679  31.902   3.221
81736W        W46996  10.825   9.720   0.764
81737W        W46997  22.219   0.431   3.255
81738W        W46998  31.416  27.043  13.642
81739W        W46999  22.763  33.414  13.559
81740W        W47000  28.429  14.649   4.342
81741W        W47001  20.689  21.360   2.687
81742W        W47002  19.175  34.043  10.723
81743W        W47003  11.627  35.354  12.584
81744W        W47004   6.928  19.653   1.954
81745W        W47005  35.687   1.123  13.404
81746W        W47006  37.876   9.620  13.665
81747W        W47007  41.986  32.400  14.902
81748W        W47008  17.747   8.757  11.822
81749W        W47009  11.916  30.118   3.754
81750W        W47010   1.841   4.920   3.663
81751W        W47011  39.755  36.444   4.451
81752W        W47012  34.870  42.289   3.760
81753W        W47013  22.665  16.039   1.229
81754W        W47014  35.946  41.749   0.318
81755W        W47015  17.251  31.633   1.208
81756W        W47016   7.293  38.673  11.653
81757W        W47017  25.258  43.352  13.433
81758W        W47018  35.037  27.896  13.393
81759W        W47019   2.590  33.969   2.308
81760W        W47020   5.996  10.956  13.054
81761W        W47021   8.356   9.147   3.306
81762W        W47022  17.883   8.979   2.809
81763W        W47023  33.107  26.593   2.286
81764W        W47024  43.556  22.830  10.619
81765W        W47025   6.895  29.494   0.601
81766W        W47026  21.596   1.005  14.983
81767W        W47027  28.634  12.619  13.228
81768W        W47028  35.271  35.901  11.556
81769W        W47029  22.042  15.435  12.348
81770W        W47030  18.378  37.452   3.717
81771W        W47031  42.083  36.042  12.123
81772W        W47032  40.395  38.590   0.277
81773W        W47033  32.648  42.390   4.903
81774W        W47034  23.686   7.927  11.123
81775W        W47035  33.963  12.170  14.817
81776W        W47036  17.107  17.057  12.499
81777W        W47037  35.664  42.324   0.901
81778W        W47038  38.998  27.409  13.171
81779W        W47039  17.603   6.490  11.005
81780W        W47040  32.890  24.021  12.473
81781W        W47041  20.624  39.806  11.147
81782W        W47042  32.262  24.426  13.941
81783W        W47043   1.792  15.908   9.952
81784W        W47044  25.622  16.108   0.270
81785W        W47045  23.079  14.230   0.323
81786W        W47046  35.355  10.209   2.179
81787W        W47047  17.488   5.375  14.773
81788W        W47048  28.437  28.451  14.961
81789W        W47049  16.759  39.514   2.643
81790W        W47050  20.730  16.625  10.822
81791W        W47051   9.393  35.855  11.246
81792W        W47052  38.093   6.394   0.964
81793W        W47053  34.410  42.850   1.797
81794W        W47054  10.202  33.601   4.208
81795W        W47055   0.950  41.295  13.183
81796W        W47056   1.023  37.541  13.993
81797W        W47057   7.260  37.489   3.405
81798W        W47058  12.767  42.559   3.924
81799W        W47059  33.734  13.335   0.423
81800W        W47060  25.885  22.430  11.965
81801W        W47061  38.168   7.027   0.201
81802W        W47062  42.856  40.972  11.141
81803W        W47063   1.215  24.577   4.105
81804W        W47064   6.143  12.524  12.315
81805W        W47065   0.046  18.124   2.779
81806W        W47066  10.589  15.256   2.418
81807W        W47067  19.069  15.850   4.140
81808W        W47068  16.565  26.873   0.343
81809W        W47069  43.211  39.766   1.640
81810W        W47070   6.251  11.662  10.673
81811W        W47071  27.513  10.658  10.483
81812W        W47072  11.427  30.997   0.116
81813W        W47073   5.609  33.412   0.944
81814W        W47074   8.750  16.371   2.263
81815W        W47075   7.337  41.324  10.776
81816W        W47076  43.212   6.345  10.686
81817W        W47077  43.976  39.835  12.182
81818W        W47078  38.057  28.299   2.723
81819W        W47079   6.971  31.638   3.113
81820W        W47080  28.962  39.485   1.794
81821W        W47081   0.943   0.841   5.036
81822W        W47082  14.589  31.775   4.232
81823W        W47083  15.305   6.671   2.661
81824W        W47084   0.972   1.042  13.300
81825W        W47085  33.020   5.208  11.857
81826W        W47086  32.754  28.055   2.158
81827W        W47087  33.822  13.169  12.343
81828W        W47088   5.639  29.218  13.817
81829W        W47089  42.206  32.214  14.475
81830W        W47090  13.271   3.944   2.338
81831W        W47091  30.682  25.750   1.424
81832W        W47092  34.661   6.602  13.147
81833W        W47093  19.668  44.299   4.493
81834W        W47094  13.495  39.758  13.064
81835W        W47095  18.640   5.307   4.428
81836W        W47096   3.821  33.079  13.606
81837W        W47097  21.043  27.097   2.207
81838W        W47098  35.413  25.987   3.657
81839W        W47099   0.886  30.481  12.056
81840W        W47100  32.889  23.353  14.753
81841W        W47101  22.116  38.835  13.454
81842W        W47102  28.424  17.845  12.461
81843W        W47103  33.209  18.150   2.191
81844W        W47104  23.039  17.712   3.730
81845W        W47105   6.484  41.343  13.428
81846W        W47106  33.640  22.777  11.629
81847W        W47107  41.866  40.141  10.492
81848W        W47108  15.610  32.795   1.452
81849W        W47109  41.319  32.606   2.198
81850W        W47110  17.165  31.281   0.302
81851W        W47111  41.454  25.446  12.222
81852W        W47112  17.652  36.825  14.028
81853W        W47113  23.543   7.676  14.521
81854W        W47114   3.895   7.161   5.034
81855W        W47115  36.868   0.668   4.036
81856W        W47116   3.098  12.406  14.304
81857W        W47117   4.841  13.847  10.781
81858W        W47118  34.940  15.370  12.433
81859W        W47119  38.070  39.477  12.993
81860W        W47120  17.255  38.770   2.017
81861W        W47121  41.622  10.144   1.173
81862W        W47122  24.181   6.855  14.054
81863W        W47123  39.029  26.606  11.533
81864W        W47124  19.011   1.391  13.490
81865W        W47125   6.314   3.292   4.947
81866W        W47126  19.201  27.634   0.559
81867W        W47127   7.402  35.947   1.784
81868W        W47128   5.662  15.307  13.332
81869W        W47129  30.980  16.163  12.599
81870W        W47130  28.075   6.667  13.862
81871W        W47131  28.950  29.400   1.711
81872W        W47132   7.915  20.230   4.732
81873W        W47133  34.222  37.484  13.966
81874W        W47134  24.279  30.659   5.013
81875W        W47135  30.847  20.784  13.916
81876W        W47136  44.363  31.252   1.138
81877W        W47137   7.470  22.014   1.783
81878W        W47138  32.351  17.640   0.885
81879W        W47139  36.357  36.030  11.137
81880W        W47140  26.767  14.815   2.270
81881W        W47141  29.975  40.964   4.606
81882W        W47142  37.036  16.357   0.835
81883W        W47143  39.777  11.431   0.167
81884W        W47144   5.038  30.099   3.452
81885W        W47145  43.971  24.628   3.687
81886W        W47146  29.832  35.152  11.643
81887W        W47147  31.394  41.862   1.158
81888W        W47148  10.273  32.141   2.106
81889W        W47149  13.130  13.763   0.806
81890W        W47150  24.823  18.914   1.798
81891W        W47151  23.164  19.480   0.246
81892W        W47152   1.668   3.808  12.524
81893W        W47153  38.280  18.035  10.608
81894W        W47154  24.160  42.420   1.467
81895W        W47155   9.319   0.810   0.311
81896W        W47156  12.990   3.354   0.166
81897W        W47157  37.085  32.107  12.231
81898W        W47158  27.952  18.696   0.284
81899W        W47159  33.686  42.923   0.923
81900W        W47160  19.489   3.910   1.055
81901W        W47161  31.144   4.847   3.637
81902W        W47162  38.868  44.619  13.830
81903W        W47163   2.024  21.739  14.374
81904W        W47164  11.327  25.238   4.140
81905W        W47165  32.913  17.322   4.933
81906W        W47166  30.881  34.892  12.626
81907W        W47167  26.686   0.424  12.156
81908W        W47168  29.354  11.200   0.654
81909W        W47169  25.553  14.822  14.836
81910W        W47170  36.960  15.188  10.744
81911W        W47171  17.733   2.702   3.039
81912W        W47172  27.232  17.149  11.864
81913W        W47173   3.135  20.230   5.047
81914W        W47174  16.630  34.939  11.399
81915W        W47175  14.682   3.774  13.855
81916W        W47176  12.810   0.711  11.872
81917W        W47177   2.197  41.159  12.885
81918W        W47178   5.168   6.847   3.314
81919W        W47179  21.785  39.765  14.940
81920W        W47180   2.376  13.555  12.627
81921W        W47181  24.335  13.820   3.712
81922W        W47182  26.019   0.865  12.054
81923W        W47183  13.901  44.782  11.948
81924W        W47184  28.223  14.681  10.475
81925W        W47185  21.111  21.093   3.228
81926W        W47186  25.411  33.388  11.615
81927W        W47187  19.542  14.299   0.443
81928W        W47188  22.615   1.763   3.259
81929W        W47189  31.654  18.164   1.947
81930W        W47190  35.082  40.563   1.876
81931W        W47191  27.721  38.277   4.156
81932W        W47192   2.245   1.946  14.457
81933W        W47193   4.042  17.284   4.079
81934W        W47194  11.109  13.258   3.645
81935W        W47195  15.571  36.619   2.975
81936W        W47196   8.603  24.222   4.565
81937W        W47197  19.317  18.359   1.423
81938W        W47198  42.026  40.216  11.638
81939W        W47199  32.765   0.312   0.159
81940W        W47200  44.262  10.086  10.279
81941W        W47201   6.933  40.182   0.999
81942W        W47202  37.461  29.778   3.426
81943W        W47203  16.094  11.828   1.837
81944W        W47204  25.168  13.571  11.685
81945W        W47205  38.417  20.604  12.678
81946W        W47206  10.899  14.840   1.559
81947W        W47207  43.182  16.500  11.481
81948W        W47208  39.422  18.268  12.102
81949W        W47209  16.584  14.588   0.410
81950W        W47210   8.751   6.215  11.216
81951W        W47211  10.636  38.465   1.194
81952W        W47212   1.885   3.213  12.559
81953W        W47213  14.177  24.079   1.367
81954W        W47214  15.390  29.531   0.066
81955W        W47215  44.302   4.270   4.351
81956W        W47216  30.536   3.252   0.296
81957W        W47217  23.431  26.138   0.486
81958W        W47218  15.730  26.686  14.867
81959W        W47219  24.326  16.928   3.277
81960W        W47220  40.039  25.927   0.714
81961W        W47221  33.317  40.184  14.252
81962W        W47222  13.174  12.675   3.252
81963W        W47223  44.894  41.556  14.244
81964W        W47224  19.007  10.597  11.938
81965W        W47225  38.565  14.374  13.867
81966W        W47226  13.195  27.070  11.173
81967W        W47227  38.600   3.112   2.758
81968W        W47228  24.597  14.703  13.384
81969W        W47229   4.973  38.914   1.700
81970W        W47230   7.380  19.802  12.932
81971W        W47231  12.887  17.667   3.335
81972W        W47232  30.063  16.036  12.479
81973W        W47233  37.226  43.868  14.912
81974W        W47234  28.189   9.255   4.624
81975W        W47235  28.777   9.104  11.615
81976W        W47236  43.224  18.577   4.390
81977W        W47237  31.817  34.824   5.046
81978W        W47238  19.342  20.836  11.144
81979W        W47239   4.440   7.256  14.301
81980W        W47240  13.119  40.028  12.869
81981W        W47241  41.715   4.273   1.268
81982W        W47242  32.004   4.062  11.391
81983W        W47243   7.376  14.435  12.430
81984W        W47244   3.413   7.169   2.312
81985W        W47245  28.899  32.556  11.114
81986W        W47246   5.561  35.993  12.854
81987W        W47247   7.298  18.802   0.880
81988W        W47248  30.119  42.458  12.984
81989W        W47249  14.394  17.273   1.964
81990W        W47250  19.482   8.964  13.380
81991W        W47251  42.356  16.506  14.244
81992W        W47252  23.071  20.741  14.993
81993W        W47253   8.953  21.227   1.722
81994W        W47254  32.892  44.494   1.272
81995W        W47255  21.289  23.972   0.049
81996W        W47256  40.978  24.702  10.739
81997W        W47257  39.017  24.710  11.780
81998W        W47258   3.578  17.209   0.357
81999W        W47259  30.814  37.794   2.608
82000W        W47260  32.124   8.727  14.372
82001W        W47261  35.052   1.863  12.992
82002W        W47262   0.731  27.630   1.747
82003W        W47263  32.497  31.293   2.866
82004W        W47264  21.132  13.749   3.610
82005W        W47265   5.679  21.264   4.164
82006W        W47266   4.602  15.243   1.686
82007W        W47267   5.083   1.502   1.746
82008W        W47268   5.737  34.973  11.539
82009W        W47269  24.231  43.873   3.234
82010W        W47270  14.708   2.784  10.827
82011W        W47271  43.762  14.846   0.880
82012W        W47272  27.541  10.572  13.348
82013W        W47273  32.016  10.234  12.147
82014W        W47274   7.195  25.488   3.290
82015W        W47275  14.685   3.931  11.463
82016W        W47276   0.451   4.886   2.127
82017W        W47277  29.464   7.426  12.521
82018W        W47278  14.820   8.268  11.147
82019W        W47279  21.132   2.998   3.250
82020W        W47280  23.385  15.533   2.831
82021W        W47281  37.866  22.140  13.766
82022W        W47282  28.671  26.117  12.579
82023W        W47283  41.265  20.225   4.106
82024W        W47284  44.066  44.353   0.992
82025W        W47285  35.825  29.561  13.938
82026W        W47286  11.852  41.070   2.386
82027W        W47287  15.390   2.451  10.939
82028W        W47288  40.100  19.741   3.233
82029W        W47289  42.042  28.568  13.959
82030W        W47290  22.711   9.602   2.345
82031W        W47291  19.141  42.925  11.047
82032W        W47292  27.506  25.220  11.178
82033W        W47293  34.980  35.486  12.643
82034W        W47294  15.742   1.773  11.605
82035W        W47295  19.599  25.799  13.036
82036W        W47296  36.378   3.470  13.116
82037W        W47297  10.063  25.580   4.072
82038W        W47298  17.716  27.680   4.801
82039W        W47299  41.295  42.362  12.881
82040W        W47300  14.380  35.808  13.589
82041W        W47301  22.622  36.143  14.908
82042W        W47302   8.335  43.676   1.024
82043W        W47303  21.512  35.314  10.641
82044W        W47304  44.849   8.080   4.957
82045W        W47305  10.378   0.317   2.539
82046W        W47306  25.015  42.972  14.140
82047W        W47307  32.756  37.087  10.757
82048W        W47308  22.681   4.413   3.123
82049W        W47309  28.922  26.553  12.700
82050W        W47310  26.240  13.706   0.253
82051W        W47311  44.908   8.918  13.851
82052W        W47312  30.159   7.709  13.014
82053W        W47313  36.805  35.855   4.667
82054W        W47314  26.309  30.393  12.385
82055W        W47315  23.779   8.727   4.159
82056W        W47316   9.020  41.795  14.397
82057W        W47317   6.171  22.780  13.671
82058W        W47318   5.206  10.425   0.895
82059W        W47319  31.964  34.473  14.364
82060W        W47320   7.723  37.157   9.890
82061W        W47321   4.465  19.192   0.473
82062W        W47322  41.131  30.450   0.985
82063W        W47323   5.435  16.106  14.901
82064W        W47324  41.905  20.555   4.180
82065W        W47325  19.452  29.345   0.767
82066W        W47326  20.005  39.353   3.678
82067W        W47327   9.314  19.306   4.677
82068W        W47328  29.311  32.633   3.146
82069W        W47329  31.958  30.544  10.723
82070W        W47330   9.146  17.606  13.056
82071W        W47331  21.167   2.779  12.528
82072W        W47332  17.999  14.090  14.944
82073W        W47333  28.630  10.145   0.668
82074W        W47334  10.971   6.150   2.754
82075W        W47335  30.618  22.928   1.789
82076W        W47336   5.846  24.514   5.015
82077W        W47337   4.857  11.871  13.936
82078W        W47338   1.882  22.024  13.962
82079W        W47339  23.776   2.298  12.019
82080W        W47340  23.027  17.661   9.871
82081W        W47341   3.259   8.157  10.844
82082W        W47342  44.176  27.397  14.850
82083W        W47343   8.448  29.649  11.556
82084W        W47344   4.467   9.480  14.856
82085W        W47345  41.287  39.142   0.310
82086W        W47346  37.576  37.869   0.373
82087W        W47347  10.087  34.830  10.972
82088W        W47348  33.733  14.085  14.943
82089W        W47349   7.404  23.449  13.239
82090W        W47350  15.763  36.742  12.817
82091W        W47351  17.978   9.740  13.451
82092W        W47352  13.910   0.783  12.069
82093W        W47353   5.888  28.973   4.269
82094W        W47354  20.789   8.231   3.913
82095W        W47355  16.225  23.136  12.949
82096W        W47356   7.817   8.921  10.236
82097W        W47357  42.397  42.468   4.410
82098W        W47358  17.165  18.266  11.165
82099W        W47359  27.566  40.685  11.134
82100W        W47360  11.034  10.679  10.751
82101W        W47361   1.464  22.311  13.855
82102W        W47362   4.319  17.590  11.698
82103W        W47363  18.852  27.143  13.970
82104W        W47364  11.928   3.626   0.971
82105W        W47365   8.278  29.427   0.296
82106W        W47366  28.534  30.426  11.630
82107W        W47367  43.897  29.607  14.446
82108W        W47368   9.712  19.917   4.141
82109W        W47369  13.568  40.969   3.316
82110W        W47370  17.582   4.925   2.751
82111W        W47371  12.490  14.805  13.375
82112W        W47372  19.606  15.289  10.763
82113W        W47373   6.468  11.242  14.713
82114W        W47374  43.255  17.650  10.530
82115W        W47375  36.501  24.592   1.172
82116W        W47376  13.252  41.304   1.799
82117W        W47377  31.516  17.817  13.933
82118W        W47378  26.664  22.586  14.525
82119W        W47379   6.491   7.266   3.796
82120W        W47380   5.963  35.442   0.876
82121W        W47381  18.621   2.640   5.165
82122W        W47382  17.862  12.747  14.911
82123W        W47383  40.039  30.215   3.238
82124W        W47384   6.163  28.919  13.237
82125W        W47385   9.295  34.425   1.807
82126W        W47386   1.879   7.639   1.503
82127W        W47387  29.941  27.689   0.320
82128W        W47388  33.059  40.264   2.689
82129W        W47389  42.364  25.047  10.498
82130W        W47390  27.562  34.599   2.570
82131W        W47391  20.631  24.605   1.777
82132W        W47392  32.654  18.875   4.785
82133W        W47393  23.097  18.670   3.074
82134W        W47394  42.334  12.831   2.300
82135W        W47395  36.358   6.297   0.413
82136W        W47396  26.895  42.610   4.943
82137W        W47397   0.119  11.417   1.811
82138W        W47398  36.947  31.971  10.706
82139W        W47399  29.499  14.285   3.686
82140W        W47400   2.730  43.984   4.611
82141W        W47401  44.524  32.514  11.759
82142W        W47402  42.761  39.199  11.089
82143W        W47403  12.291   1.831   4.383
82144W        W47404   3.278  11.891   4.140
82145W        W47405   9.588  16.557   4.848
82146W        W47406   6.192  25.034   0.980
82147W        W47407  15.794   4.788   3.056
82148W        W47408  25.513  43.091  12.461
82149W        W47409  44.334  43.760  12.157
82150W        W47410  37.536  21.524  13.372
82151W        W47411  23.086  38.766   0.229
82152W        W47412   2.557  27.005  14.459
82153W        W47413   0.985  42.114  12.983
82154W        W47414   8.856  35.167   3.671
82155W        W47415  35.871  14.496  14.773
82156W        W47416  37.007   2.712   2.237
82157W        W47417  26.077  34.675  12.876
82158W        W47418  33.451   4.038   1.329
82159W        W47419  39.392  25.297  12.483
82160W        W47420  25.348   5.505   3.640
82161W        W47421  34.504  28.984  11.065
82162W        W47422  36.625  40.502  14.342
82163W        W47423  12.877  33.725  10.734
82164W        W47424  33.926  15.408   3.194
82165W        W47425  36.292  10.147   3.211
82166W        W47426  17.618  43.752  12.014
82167W        W47427  41.975  32.242  11.464
82168W        W47428  39.588   3.650   1.726
82169W        W47429  11.963  41.878  13.498
82170W        W47430   0.565   1.791  11.570
82171W        W47431  28.682  11.136  10.777
82172W        W47432   9.847   5.892   4.176
82173W        W47433   2.136  41.161   2.458
82174W        W47434  13.645  28.097   0.917
82175W        W47435  21.738  44.416  10.723
82176W        W47436  17.522  39.079   2.321
82177W        W47437  34.903  39.934   2.744
82178W        W47438  33.203   4.553   3.653
82179W        W47439   5.967  26.145  14.489
82180W        W47440   7.727   5.259  14.455
82181W        W47441  36.982  33.139  12.445
82182W        W47442  13.603  12.561  10.560
82183W        W47443  30.003  43.193   4.201
82184W        W47444  34.588  37.986   3.309
82185W        W47445   1.517  29.589   2.803
82186W        W47446  23.637   1.402  14.594
82187W        W47447  25.054  29.652   3.136
82188W        W47448  36.089   4.574   4.532
82189W        W47449  31.022   6.712  11.132
82190W        W47450   6.246   4.423   0.894
82191W        W47451  18.545  36.534   2.142
82192W        W47452  14.326  36.909   1.784
82193W        W47453  19.731  34.431  13.912
82194W        W47454  13.149   3.802  13.314
82195W        W47455  36.391   5.766  14.791
82196W        W47456  28.220  36.363   4.630
82197W        W47457  30.534  35.025   0.357
82198W        W47458  24.468  44.256  14.095
82199W        W47459   1.109  32.239  14.927
82200W        W47460   1.531  19.619   3.614
82201W        W47461  31.967   9.627   3.222
82202W        W47462  41.007   3.471  13.957
82203W        W47463  17.237   8.275   3.945
82204W        W47464   9.252  41.460  10.479
82205W        W47465  43.744  40.642   1.380
82206W        W47466   8.173  11.306   2.976
82207W        W47467  22.230   2.216  13.918
82208W        W47468   3.985  33.835   2.308
82209W        W47469  29.528  38.378  14.016
82210W        W47470  40.539  12.423   3.641
82211W        W47471  19.293  34.196   0.997
82212W        W47472   4.317  35.588   0.660
82213W        W47473   9.660  27.677   4.039
82214W        W47474   0.568  32.141  12.608
82215W        W47475   7.768  25.466  11.442
82216W        W47476  21.036  33.440   3.699
82217W        W47477   0.800  32.355   3.835
82218W        W47478  42.506  22.912  13.427
82219W        W47479   9.633  34.127   4.503
82220W        W47480  26.640  26.709   0.772
82221W        W47481   7.934  15.183  14.311
82222W        W47482  28.743   4.602   3.228
82223W        W47483  15.195   9.888  11.240
82224W        W47484  27.288  36.516   1.486
82225W        W47485   1.659  19.891   4.054
82226W        W47486  10.906  42.397   3.236
82227W        W47487  22.210  25.673   2.352
82228W        W47488   3.222  38.003  13.849
82229W        W47489  44.410  13.443   5.368
82230W        W47490  31.588  34.831   1.432
82231W        W47491   3.442  16.314   0.377
82232W        W47492  43.700  16.060  13.619
82233W        W47493  17.955  33.399  13.342
82234W        W47494  26.962  44.074   1.275
82235W        W47495  29.157  20.691   0.830
82236W        W47496   6.615  21.701  10.719
82237W        W47497  10.205  15.708  10.929
82238W        W47498  42.710   7.742   4.949
82239W        W47499   2.746  37.546  12.921
82240W        W47500   8.585  15.664  13.736
82241W        W47501  18.269  13.660  13.997
82242W        W47502  10.582   3.009  12.121
82243W        W47503  24.143  12.221  11.078
82244W        W47504  15.798  35.040   1.421
82245W        W47505   5.745  17.544   2.737
82246W        W47506  23.906   0.680   0.074
82247W        W47507  33.527  33.867  11.957
82248W        W47508   6.100   0.418  13.601
82249W        W47509  22.768   3.050   3.824
82250W        W47510  42.747  15.575  12.509
82251W        W47511  10.315   3.730   4.174
82252W        W47512  38.107  25.650   1.444
82253W        W47513  36.496   4.779   0.012
82254W        W47514  15.415  25.893  13.968
82255W        W47515  26.911  38.641   0.753
82256W        W47516  12.317  17.281  12.912
82257W        W47517  42.524  32.173   4.222
82258W        W47518  10.214  10.829   1.830
82259W        W47519  17.894  27.052   0.232
82260W        W47520  33.509  41.512   4.467
82261W        W47521  41.391  43.511   2.426
82262W        W47522  43.223  27.109  11.172
82263W        W47523  32.012  42.037  12.874
82264W        W47524  28.297  44.430  14.889
82265W        W47525  43.841  25.263  12.120
82266W        W47526   5.781  35.079   1.243
82267W        W47527  22.617  21.342   4.120
82268W        W47528  35.914   3.265   3.749
82269W        W47529  25.694  37.583   3.732
82270W        W47530   2.941  21.531  12.973
82271W        W47531  28.877  36.708  11.179
82272W        W47532   6.240  18.673   4.738
82273W        W47533  27.016   9.945  10.676
82274W        W47534  40.554  19.153   2.233
82275W        W47535  15.596   6.795  11.450
82276W        W47536  15.809   7.086  13.745
82277W        W47537   1.392  31.203   2.707
82278W        W47538  11.860  40.410  12.379
82279W        W47539  19.521  20.614  13.554
82280W        W47540  25.037  29.703  10.755
82281W        W47541   6.725  32.523   1.829
82282W        W47542  12.857  20.357  13.348
82283W        W47543  38.230  19.693   2.925
82284W        W47544  28.316  36.880   2.520
82285W        W47545  42.854  20.285  14.000
82286W        W47546  33.411   9.470   4.221
82287W        W47547  42.487   9.728   4.277
82288W        W47548  41.376  24.933  11.011
82289W        W47549  35.032  31.614  10.441
82290W        W47550  30.698   8.547  12.827
82291W        W47551  13.375  44.541  10.368
82292W        W47552  19.676  41.769  14.901
82293W        W47553  40.728   6.837   2.851
82294W        W47554  31.162  31.085   2.851
82295W        W47555  37.038  38.084   4.108
82296W        W47556  38.357  26.968   4.153
82297W        W47557   0.910  12.398  14.541
82298W        W47558  34.200  33.042   4.544
82299W        W47559   7.934  31.769  10.306
82300W        W47560  19.139   3.923   3.281
82301W        W47561  42.473  19.787  14.817
82302W        W47562  26.636  32.105  14.523
82303W        W47563  31.653  41.922  11.130
82304W        W47564  40.056   4.437  12.507
82305W        W47565   5.930  23.749  14.834
82306W        W47566  35.653   4.173  14.758
82307W        W47567  15.795   7.710   3.213
82308W        W47568  24.623  30.679  14.989
82309W        W47569  22.742  27.132  11.286
82310W        W47570   4.933  34.473   4.682
82311W        W47571   3.358  21.467  11.299
82312W        W47572  27.685   3.869  12.873
82313W        W47573  27.305  40.281   1.729
82314W        W47574  26.540  21.139  14.416
82315W        W47575  17.263  17.740   1.050
82316W        W47576   9.226  31.877  14.923
82317W        W47577  22.982   9.814  10.511
82318W        W47578  32.474  16.350  10.654
82319W        W47579  42.362   5.448  14.855
82320W        W47580  37.829   5.726  14.850
82321W        W47581  21.732  43.449  10.637
82322W        W47582  13.822  21.445  10.494
82323W        W47583  25.444   3.327   1.761
82324W        W47584  10.928  11.388   1.432
82325W        W47585  29.131  12.053   4.575
82326W        W47586   9.166  28.169  11.967
82327W        W47587  17.555   0.601  14.341
82328W        W47588  35.920   0.577   0.956
82329W        W47589  29.668   0.494   0.727
82330W        W47590  31.007  27.921  13.809
82331W        W47591  19.749  42.850   1.632
82332W        W47592  39.556  35.042  12.834
82333W        W47593   7.782  20.969   1.370
82334W        W47594  14.711  29.114  10.567
82335W        W47595  15.948   6.230  10.063
82336W        W47596   4.607   7.699   1.915
82337W        W47597  37.550  24.482  12.430
82338W        W47598  31.920  13.875  13.468
82339W        W47599  34.974  25.740   4.728
82340W        W47600  13.148  41.318   4.516
82341W        W47601  41.592   9.603  12.124
82342W        W47602   5.471  18.566  14.129
82343W        W47603  23.186  44.972  11.200
82344W        W47604   2.382  44.790   4.843
82345W        W47605  23.117   1.709   3.692
82346W        W47606  21.140  21.733  14.813
82347W        W47607  17.136  28.143   2.356
82348W        W47608  32.861   2.717  12.341
82349W        W47609  21.747   9.147  13.281
82350W        W47610  20.244   7.977   1.122
82351W        W47611  37.362  14.346  11.037
82352W        W47612  29.105   8.651   0.984
82353W        W47613  44.203  35.291  13.459
82354W        W47614  18.353  36.194  14.927
82355W        W47615  43.409  20.390   1.820
82356W        W47616  11.340   5.592  14.305
82357W        W47617  25.100  14.640  10.639
82358W        W47618  36.072  33.965  13.438
82359W        W47619   1.690  25.607   0.909
82360W        W47620  15.687   9.370   4.080
82361W        W47621  41.419  38.647   2.697
82362W        W47622  26.605  34.736  11.700
82363W        W47623  30.506  36.621  12.917
82364W        W47624  29.850  31.454   0.934
82365W        W47625  21.664  11.655   1.765
82366W        W47626  40.889   7.709   2.887
82367W        W47627   3.922   7.187   2.252
82368W        W47628  14.157  33.033   3.176
82369W        W47629  38.580  25.700  10.984
82370W        W47630  35.643   1.858  14.987
82371W        W47631   0.007  44.370  12.897
82372W        W47632  10.228   1.706   0.806
82373W        W47633   5.163  13.146   1.961
82374W        W47634  38.398   4.757   1.819
82375W        W47635  36.448  35.494   3.521
82376W        W47636  32.118   5.575   0.056
82377W        W47637  19.523   7.725   0.644
82378W        W47638   3.927  11.169   4.486
82379W        W47639   8.821  38.294  14.501
82380W        W47640  23.364  20.786   3.968
82381W        W47641  22.105  36.187  14.624
82382W        W47642  18.157  29.442  13.469
82383W        W47643  39.032  36.306   0.360
82384W        W47644  37.910  21.288   4.200
82385W        W47645   2.462  19.368   2.733
82386W        W47646  22.155  13.414   3.701
82387W        W47647  12.563  16.819  11.056
82388W        W47648  24.999   1.678   1.293
82389W        W47649  22.192  35.407   3.009
82390W        W47650   4.703   3.919  11.958
82391W        W47651  14.334   7.753   2.785
82392W        W47652  23.800  16.239   3.158
82393W        W47653  11.722  35.864   9.932
82394W        W47654  17.606  22.942  10.434
82395W        W47655  36.939  37.060   4.695
82396W        W47656  35.367  18.783   1.761
82397W        W47657  17.703  24.154  13.003
82398W        W47658  16.392  17.883   4.077
82399W        W47659   1.669  25.702   4.500
82400W        W47660  20.655  26.412  13.018
82401W        W47661   1.770  11.757   0.941
82402W        W47662   9.391  28.103  13.862
82403W        W47663   6.805  24.652   3.433
82404W        W47664  22.796  11.085  13.537
82405W        W47665  24.054  25.161  14.519
82406W        W47666  10.608  31.339   2.180
82407W        W47667  20.059   5.175  11.564
82408W        W47668  28.413  25.710   4.115
82409W        W47669  26.450  10.835   4.031
82410W        W47670  24.251  10.103   0.456
82411W        W47671   6.653  36.792   3.726
82412W        W47672  40.226  11.371  12.907
82413W        W47673   2.434  37.099   2.300
82414W        W47674   2.271  39.835  13.139
82415W        W47675  44.269   1.155  14.994
82416W        W47676  26.446  38.035  13.970
82417W        W47677   3.225  26.018   1.337
82418W        W47678  40.326  35.794   1.207
82419W        W47679  24.510  20.758  12.500
82420W        W47680  10.728  16.723   3.835
82421W        W47681  10.637  17.106   1.660
82422W        W47682  36.443  35.627  11.442
82423W        W47683  15.078  24.129  11.154
82424W        W47684  35.914  27.904  12.470
82425W        W47685   0.448  24.683   2.731
82426W        W47686  26.079   1.188   1.280
82427W        W47687  23.558  16.232   2.266
82428W        W47688  31.802  25.273   2.258
82429W        W47689  40.793  10.730   3.730
82430W        W47690  22.026  34.233   4.214
82431W        W47691  30.980  10.322  11.539
82432W        W47692   1.827  23.573  12.000
82433W        W47693  19.631   2.413  14.024
82434W        W47694   0.720  19.698   4.172
82435W        W47695  30.954   5.718   1.645
82436W        W47696  32.410  41.502  10.999
82437W        W47697  20.980  20.569   0.864
82438W        W47698   1.989  21.547   0.416
82439W        W47699  31.395  27.516   3.960
82440W        W47700  16.338  41.574   1.141
82441W        W47701  41.870  29.015  14.475
82442W        W47702   7.285  18.054  14.056
82443W        W47703  33.164  36.578   4.265
82444W        W47704   3.789  16.391   1.924
82445W        W47705  40.770   0.799  13.453
82446W        W47706  24.085  23.602  10.861
82447W        W47707  29.667  41.037  13.615
82448W        W47708  31.721  27.773   1.372
82449W        W47709  37.610  23.490  10.997
82450W        W47710  29.911  24.450   2.712
82451W        W47711  19.242  36.092   4.595
82452W        W47712  20.283   3.217  12.600
82453W        W47713   7.188  22.545  13.806
82454W        W47714   6.028   4.925  11.161
82455W        W47715   9.869  13.184  12.596
82456W        W47716  15.532  15.193  10.926
82457W        W47717  24.085  37.823  12.623
82458W        W47718   3.482   3.185   2.432
82459W        W47719  37.963  17.799  13.900
82460W        W47720  36.995   7.346   1.766
82461W        W47721   1.271  23.457  14.337
82462W        W47722  15.054  26.627  12.078
82463W        W47723  27.929  42.212   2.891
82464W        W47724  40.451  40.998   2.276
82465W        W47725  13.184  31.426  12.035
82466W        W47726   3.463  19.469  13.002
82467W        W47727  34.906  31.882   3.594
82468W        W47728   1.370  14.034   3.241
82469W        W47729   0.887  29.904   4.286
82470W        W47730  32.811  44.920   3.299
82471W        W47731  15.624   5.406   2.197
82472W        W47732   5.756  33.821   4.126
82473W        W47733  30.209  31.867  12.321
82474W        W47734  44.719   4.401   2.670
82475W        W47735   3.033   0.870   4.273
82476W        W47736  32.498  11.206   2.846
82477W        W47737  31.305  15.138  12.533
82478W        W47738  29.550  10.681  13.430
82479W        W47739  15.243  31.108  13.913
82480W        W47740  28.126  31.451  12.847
82481W        W47741  34.147  30.990  11.030
82482W        W47742   8.167   4.493   3.522
82483W        W47743   9.783  19.203   0.499
82484W        W47744  23.637  20.687   2.628
82485W        W47745  39.895  22.736  12.983
82486W        W47746  39.519  21.083   1.394
82487W        W47747  15.266   5.916  13.019
82488W        W47748  11.184   6.282   0.350
82489W        W47749  19.865  43.442  12.016
82490W        W47750  24.829  33.766  13.050
82491W        W47751  30.410  41.836  12.771
82492W        W47752  29.632   2.121  11.275
82493W        W47753  19.318  25.506  13.390
82494W        W47754  40.918   8.444  13.802
82495W        W47755  26.460   8.739  12.536
82496W        W47756  12.685  17.169  10.675
82497W        W47757  15.699  38.287   1.239
82498W        W47758  42.539  34.943   0.808
82499W        W47759   9.143  28.157  13.414
82500W        W47760  15.648   0.782  14.620
82501W        W47761   9.695  27.065   0.728
82502W        W47762  33.823  44.885   1.180
82503W        W47763  44.329  10.797   3.716
82504W        W47764  14.057  15.887   2.583
82505W        W47765  14.792  19.271   3.144
82506W        W47766   7.127  16.018  13.891
82507W        W47767   6.416  33.875  13.219
82508W        W47768  29.607  36.388  11.658
82509W        W47769  25.232  39.132  13.123
82510W        W47770  35.544  35.298   3.828
82511W        W47771   9.041   6.801  10.170
82512W        W47772  24.004  43.469  12.533
82513W        W47773  41.426  40.937  14.911
82514W        W47774   3.925   8.446   1.500
82515W        W47775   1.641  18.183  12.960
82516W        W47776  18.114   9.475   4.028
82517W        W47777  36.679  38.991   4.278
82518W        W47778  38.529   4.469   1.407
82519W        W47779   0.438   3.279  12.495
82520W        W47780  29.676  28.374   2.448
82521W        W47781   5.357   7.001  11.605
82522W        W47782  22.379  25.140   2.287
82523W        W47783  20.144  44.676   1.933
82524W        W47784   9.608   7.204  12.083
82525W        W47785   4.649  29.869   0.749
82526W        W47786  21.961  42.351   0.537
82527W        W47787  24.725   5.469  14.836
82528W        W47788  10.804  15.111   1.100
82529W        W47789  35.365   2.867  12.037
82530W        W47790  17.839  35.465  13.806
82531W        W47791  29.797  23.682  13.009
82532W        W47792  40.291  31.142  10.623
82533W        W47793   2.285   4.459  11.093
82534W        W47794  43.105  33.163   1.930
82535W        W47795   8.761  32.718  13.533
82536W        W47796  27.241  37.900   1.616
82537W        W47797   7.765  27.264   0.040
82538W        W47798  39.495   6.549  10.352
82539W        W47799  35.263  38.383  10.865
82540W        W47800  33.537  22.059   3.215
82541W        W47801  16.757  20.253   1.359
82542W        W47802  41.628   9.348   4.946
82543W        W47803   5.719  22.483  12.934
82544W        W47804  34.352   0.011   1.303
82545W        W47805  44.315   3.946   3.605
82546W        W47806  32.845  21.483  13.342
82547W        W47807   0.768  44.336   1.297
82548W        W47808   3.807  31.968   0.832
82549W        W47809  13.749  22.800  13.862
82550W        W47810  29.341  22.998   2.174
82551W        W47811  31.524   0.561  14.734
82552W        W47812  18.475  12.354   1.887
82553W        W47813  30.600  44.382   2.218
82554W        W47814   4.372   2.926  10.453
82555W        W47815  36.858  14.121   2.893
82556W        W47816  20.309   0.634   3.152
82557W        W47817  28.357  39.400  13.864
82558W        W47818  13.217   1.323   1.287
82559W        W47819  17.079   8.853   3.715
82560W        W47820  15.685  32.026  14.069
82561W        W47821  12.276  13.152  12.417
82562W        W47822  26.475   5.416  10.436
82563W        W47823  34.085   1.842  13.944
82564W        W47824  27.964  16.148   0.348
82565W        W47825  44.707   0.012  14.854
82566W        W47826  24.910  37.769   2.368
82567W        W47827   6.737   1.252   1.090
82568W        W47828  21.117  18.806  11.041
82569W        W47829  12.303  34.357   0.898
82570W        W47830  23.714  15.487   3.232
82571W        W47831   3.843  24.219   1.147
82572W        W47832  22.400   1.897   4.086
82573W        W47833  24.083   2.935  13.440
82574W        W47834  44.374  20.369   2.850
82575W        W47835  22.645  18.091   4.553
82576W        W47836  22.966  11.033  14.400
82577W        W47837  27.064  22.459   2.267
82578W        W47838  19.994  20.769   0.150
82579W        W47839  26.928  36.088  13.501
82580W        W47840  38.108  33.521  11.689
82581W        W47841  14.998  15.009  12.491
82582W        W47842  24.257  27.872  10.650
82583W        W47843  13.947  41.489   1.648
82584W        W47844  35.530   0.040  11.916
82585W        W47845   0.497   3.233   2.370
82586W        W47846  19.695  35.603   0.248
82587W        W47847  37.470  27.551   1.867
82588W        W47848  17.600   2.053  10.650
82589W        W47849   9.252  18.216  10.761
82590W        W47850  35.459  37.559  14.037
82591W        W47851  34.833  40.185  10.843
82592W        W47852  15.712  11.268  14.995
82593W        W47853   7.351  32.997   2.135
82594W        W47854  27.760  40.749  13.408
82595W        W47855  38.782  25.327   5.105
82596W        W47856  40.682  22.190   1.695
82597W        W47857  42.328  44.822   2.913
82598W        W47858  42.242  25.910  10.749
82599W        W47859  41.603  25.730  14.543
82600W        W47860  32.442   8.240   2.173
82601W        W47861  17.752  28.485  13.526
82602W        W47862   1.345  20.092   3.703
82603W        W47863  10.694   5.719  11.572
82604W        W47864   8.394  19.430  11.142
82605W        W47865  17.856  39.942   2.752
82606W        W47866   6.841   0.117  11.997
82607W        W47867  22.195  35.850   0.020
82608W        W47868   5.958  11.732   2.871
82609W        W47869  16.631  42.332   1.465
82610W        W47870   7.354  15.589   3.698
82611W        W47871   5.311  31.186   1.971
82612W        W47872   8.001  23.004  12.111
82613W        W47873  33.160   3.694  13.412
82614W        W47874  29.660  33.771  11.543
82615W        W47875  40.247  10.119  13.134
82616W        W47876   8.161  38.351   0.937
82617W        W47877  17.823  11.878   3.951
82618W        W47878  35.085  23.484   2.158
82619W        W47879  29.895  38.932  14.525
82620W        W47880   4.167  30.190  10.731
82621W        W47881  18.285  23.599  12.916
82622W        W47882  19.295  23.019  11.588
82623W        W47883  42.015  12.573   1.343
82624W        W47884  34.981  39.941   1.375
82625W        W47885  37.525   6.547  11.166
82626W        W47886  41.083   8.773   1.275
82627W        W47887  16.562  29.819   4.950
82628W        W47888  23.969  13.154   2.314
82629W        W47889  15.549  22.508   1.850
82630W        W47890  26.950  28.511  10.931
82631W        W47891   4.848  41.560  10.509
82632W        W47892   0.440  13.871  12.861
82633W        W47893   1.831  12.531   9.804
82634W        W47894   5.940   7.248   3.011
82635W        W47895  17.130  30.165  11.292
82636W        W47896  18.505   5.411   3.899
82637W        W47897   5.783   5.177  11.523
82638W        W47898  34.598  23.520  13.918
82639W        W47899   5.767  13.583   3.212
82640W        W47900  30.575   6.991  13.944
82641W        W47901  22.621  30.505   3.625
82642W        W47902  44.208  43.399   2.744
82643W        W47903  32.378  32.235   2.886
82644W        W47904  22.095  26.561   2.393
82645W        W47905  26.513   7.389  11.467
82646W        W47906  25.171   2.910   2.819
82647W        W47907  27.966   1.644  12.190
82648W        W47908  22.671   4.658   0.355
82649W        W47909   2.750   1.117  14.103
82650W        W47910  27.491   9.811   4.813
82651W        W47911  32.730  37.950   3.600
82652W        W47912  30.881  38.873   4.100
82653W        W47913   5.471  16.600  14.979
82654W        W47914  10.249   4.952   3.152
82655W        W47915  43.343  36.006  10.708
82656W        W47916  11.772  34.090   1.739
82657W        W47917  15.143  31.553  11.605
82658W        W47918  28.064  22.284  11.124
82659W        W47919  31.755  21.757   5.493
82660W        W47920  17.821  15.554  13.474
82661W        W47921  27.581  36.306  11.652
82662W        W47922  19.864  27.772   3.155
82663W        W47923  14.162  13.238   4.505
82664W        W47924  35.446  26.474  14.372
82665W        W47925  32.454  24.313   0.413
82666W        W47926  25.624  31.491  12.624
82667W        W47927  20.971  22.487  10.312
82668W        W47928  22.683   3.670   0.991
82669W        W47929  29.172  10.096   4.918
82670W        W47930  40.497  32.488   3.758
82671W        W47931  35.575  31.870   1.287
82672W        W47932  10.306  39.409   0.924
82673W        W47933   7.093  21.074   0.100
82674W        W47934   1.468  18.726   4.527
82675W        W47935  21.176   4.941   0.275
82676W        W47936   3.153   3.207  14.522
82677W        W47937  36.057  25.544  10.734
82678W        W47938  35.938   3.895   2.516
82679W        W47939  39.833  24.686   4.573
82680W        W47940  35.620   9.210   0.298
82681W        W47941  37.973  11.291  14.898
82682W        W47942  35.871  32.115  12.398
82683W        W47943  14.627   3.254   2.435
82684W        W47944  10.607  21.744   3.132
82685W        W47945   8.259   4.878   2.541
82686W        W47946  34.366  24.316  12.656
82687W        W47947  35.439  33.030   0.710
82688W        W47948   5.384   5.870  11.875
82689W        W47949  27.220  27.098   1.313
82690W        W47950   6.042  43.583   1.915
82691W        W47951  24.031  12.413  12.011
82692W        W47952  29.906  41.748  12.629
82693W        W47953  21.786  42.832  10.921
82694W        W47954  14.065  39.463  13.656
82695W        W47955  13.862  24.853   1.008
82696W        W47956   3.769  36.438   2.085
82697W        W47957  44.225  44.829  12.951
82698W        W47958  37.510  30.227  11.235
82699W        W47959  12.237  44.551  10.408
82700W        W47960  26.933  12.981   2.821
82701W        W47961  10.752  10.664   4.982
82702W        W47962  20.258  15.750   0.504
82703W        W47963  24.007   9.054  10.621
82704W        W47964  24.016  37.312   3.681
82705W        W47965   8.457   3.741  11.220
82706W        W47966  22.354  15.939  12.597
82707W        W47967   5.248  29.495  10.395
82708W        W47968   5.664  22.014   2.190
82709W        W47969  18.016  18.813  14.871
82710W        W47970  24.230  41.607  11.637
82711W        W47971   2.226  30.702  10.750
82712W        W47972   2.004  39.893   2.729
82713W        W47973  20.643  11.201  13.401
82714W        W47974  10.711   9.767  12.858
82715W        W47975  41.419  36.427   1.184
82716W        W47976  44.450  15.319   1.316
82717W        W47977   7.769  11.187  10.562
82718W        W47978  28.435  42.025  14.828
82719W        W47979  13.461  34.855  11.924
82720W        W47980   5.658  16.825  11.531
82721W        W47981   1.009  21.925   4.126
82722W        W47982  33.214  18.753   0.902
82723W        W47983  43.029   9.606   4.622
82724W        W47984  36.464   9.911   0.904
82725W        W47985  39.386  44.430   4.056
82726W        W47986   1.832  17.874  13.401
82727W        W47987  40.244  11.068  12.482
82728W        W47988   0.022   7.261  13.897
82729W        W47989  41.296  22.245   2.265
82730W        W47990   3.790  14.278   0.855
82731W        W47991  21.892  44.902  14.382
82732W        W47992   0.496  10.491  12.379
82733W        W47993   8.057  38.474   1.444
82734W        W47994  31.603  23.953   4.581
82735W        W47995  42.362  44.929  14.416
82736W        W47996  17.588  39.353  12.427
82737W        W47997   9.105  40.925  13.059
82738W        W47998   5.680   0.663  13.462
82739W        W47999  34.542  18.622   0.322
82740W        W48000  11.863  12.141   4.928
82741W        W48001  27.389   9.644   2.452
82742W        W48002  30.097  14.671  13.405
82743W        W48003  31.873  43.987  12.025
82744W        W48004  27.142   7.795  12.361
82745W        W48005  39.356  27.952   4.155
82746W        W48006  26.633   6.489   4.718
82747W        W48007  29.392  21.124   3.653
82748W        W48008  29.928  16.548  12.410
82749W        W48009   9.321  36.337   0.425
82750W        W48010  26.594  37.323  12.288
82751W        W48011   7.606  23.145  13.885
82752W        W48012   2.081  29.443  13.241
82753W        W48013  28.946   5.274  14.433
82754W        W48014  43.816   3.475  12.601
82755W        W48015  22.715  39.370  12.932
82756W        W48016  16.660  25.264   2.696
82757W        W48017   7.235  13.541   3.613
82758W        W48018   9.771   5.222  11.442
82759W        W48019  39.561   6.084   4.307
82760W        W48020  43.313  24.116   0.237
82761W        W48021  22.181  30.221   0.417
82762W        W48022  21.632  34.710   2.360
82763W        W48023   5.742   5.374   4.608
82764W        W48024  13.408  25.239   2.747
82765W        W48025  24.611  38.165  12.970
82766W        W48026  16.495  26.729  10.674
82767W        W48027  14.346  19.203  10.312
82768W        W48028  28.629  42.002  13.410
82769W        W48029  36.259  43.724  14.329
82770W        W48030  11.069  18.305  13.919
82771W        W48031   2.430  33.206  13.406
82772W        W48032  30.133  11.759   4.463
82773W        W48033  43.375  33.028   3.873
82774W        W48034  21.506   3.703   4.031
82775W        W48035  42.084  44.192  11.667
82776W        W48036  15.863  33.031  12.019
82777W        W48037  26.058   8.178   4.602
82778W        W48038  20.630  12.025   1.378
82779W        W48039  20.789  20.495   5.181
82780W        W48040   6.779  29.386   0.094
82781W        W48041   9.787  12.896   3.693
82782W        W48042   5.328  41.822  11.051
82783W        W48043   3.417  44.901  14.462
82784W        W48044  39.914  37.073  12.519
82785W        W48045   0.757   7.311   1.343
82786W        W48046  19.133  22.778  11.146
82787W        W48047   8.913  42.910  12.524
82788W        W48048  29.172  34.368  10.706
82789W        W48049  25.164   9.940  11.428
82790W        W48050  40.635   4.642   0.913
82791W        W48051  35.445  30.932   0.798
82792W        W48052   8.426   2.753   4.660
82793W        W48053  10.253  28.751   2.284
82794W        W48054  15.732  18.711   2.305
82795W        W48055  28.048  14.665  13.911
82796W        W48056  36.596  22.174   2.257
82797W        W48057  26.652  10.242   2.328
82798W        W48058  15.855   9.119   0.226
82799W        W48059   5.931  22.998   3.096
82800W        W48060  28.493  33.030   3.103
82801W        W48061   7.190  14.633   2.705
82802W        W48062  30.411  36.589  13.891
82803W        W48063  15.455  14.779  12.529
82804W        W48064  37.135  29.642   0.110
82805W        W48065  11.723   3.258   2.149
82806W        W48066  32.244  23.013   0.307
82807W        W48067  20.504  20.880  13.167
82808W        W48068   3.800  31.998   2.760
82809W        W48069  25.408   9.004   0.925
82810W        W48070   3.793  29.992   0.080
82811W        W48071  26.972   0.572   2.714
82812W        W48072   2.753   1.856   4.541
82813W        W48073   7.255  21.559   1.950
82814W        W48074  20.427  20.966   2.503
82815W        W48075  38.865  21.521  14.621
82816W        W48076  30.169  21.341  10.943
82817W        W48077  16.736  36.235  12.166
82818W        W48078  41.808  14.298  13.891
82819W        W48079  22.635  26.442  12.063
82820W        W48080   2.058  37.109  14.304
82821W        W48081   9.284  36.593  10.495
82822W        W48082  23.175  34.618  10.288
82823W        W48083  14.307  41.284   0.271
82824W        W48084  44.547  15.069  12.458
82825W        W48085   3.262  36.110  14.448
82826W        W48086  33.940  15.260  12.517
82827W        W48087  30.931  28.696   3.799
82828W        W48088  38.158  40.803  10.692
82829W        W48089  23.488  15.427   3.685
82830W        W48090  14.958  32.142  11.414
82831W        W48091  26.076  16.122  11.194
82832W        W48092   1.818   7.722  14.589
82833W        W48093   8.649   3.932  13.255
82834W        W48094  33.968   9.400   1.238
82835W        W48095  38.982  15.669   3.324
82836W        W48096  27.075  31.405   2.320
82837W        W48097  28.629  23.502  12.405
82838W        W48098   4.196  20.177   2.345
82839W        W48099   5.654   1.930   2.326
82840W        W48100  11.500   6.680   3.756
82841W        W48101  36.038  32.026   1.084
82842W        W48102  15.244  38.926   2.019
82843W        W48103   6.845  29.165  13.034
82844W        W48104  35.140  33.070  11.160
82845W        W48105  40.053  10.846  13.815
82846W        W48106  34.295  16.678  14.945
82847W        W48107  39.497   4.232   2.626
82848W        W48108  30.526  33.677   1.870
82849W        W48109  10.934  29.884   4.193
82850W        W48110   9.460  38.880  14.906
82851W        W48111   4.337  30.550   2.262
82852W        W48112   3.316  39.393  11.505
82853W        W48113  39.881  44.776  10.629
82854W        W48114  10.712  28.558  12.849
82855W        W48115  26.090  25.749  13.933
82856W        W48116   4.064   3.840   1.423
82857W        W48117  27.234   3.644   5.031
82858W        W48118  15.535   2.222  11.460
82859W        W48119  25.680  21.075  14.853
82860W        W48120  38.428  38.118  11.149
82861W        W48121   0.798  41.181  12.682
82862W        W48122   7.146  24.498   0.278
82863W        W48123  33.035  31.858  12.400
82864W        W48124  36.029  44.055   1.472
82865W        W48125   5.384  16.101   0.986
82866W        W48126  29.814  16.164   3.271
82867W        W48127  12.612  26.292  10.799
82868W        W48128  26.157   6.413  11.216
82869W        W48129  33.884  25.607  13.345
82870W        W48130  40.950   4.294   3.552
82871W        W48131  32.585  37.855  11.496
82872W        W48132   5.531  28.914  12.506
82873W        W48133   7.190   3.015  13.058
82874W        W48134  29.232  18.341   4.662
82875W        W48135  10.107  22.675   1.297
82876W        W48136  25.129  22.985  12.037
82877W        W48137  13.161  20.743  12.935
82878W        W48138   0.363  32.667   0.475
82879W        W48139  33.606  29.509   2.150
82880W        W48140  43.997  25.770   2.597
82881W        W48141  15.778  41.064  13.352
82882W        W48142  27.976  41.330  10.395
82883W        W48143  18.440  37.159  13.357
82884W        W48144   6.834   7.813  14.604
82885W        W48145  32.170  41.350  14.978
82886W        W48146  31.924  10.840  10.916
82887W        W48147  10.095  21.121   4.416
82888W        W48148   9.239  34.951  13.986
82889W        W48149  23.256  30.946  13.035
82890W        W48150  20.933  28.389  11.066
82891W        W48151  10.954   2.660   4.081
82892W        W48152  11.193  43.982   4.340
82893W        W48153  18.302  43.776  12.764
82894W        W48154  13.989   1.169   3.611
82895W        W48155   1.743   6.569  11.202
82896W        W48156   5.686  35.329   4.481
82897W        W48157   0.381  43.984   3.376
82898W        W48158  22.220  39.558  13.647
82899W        W48159   5.127   9.857  10.833
82900W        W48160  19.355  32.103  14.490
82901W        W48161   4.245  20.978  12.884
82902W        W48162  22.662  32.941   2.450
82903W        W48163  16.929  26.715  13.789
82904W        W48164  37.716  41.050   2.116
82905W        W48165  37.582  39.533  12.862
82906W        W48166  23.042  23.554   1.844
82907W        W48167  34.498  44.791  12.686
82908W        W48168  41.372  15.347  11.219
82909W        W48169   4.146  16.200   1.194
82910W        W48170  24.186  39.219  11.184
82911W        W48171  12.576  34.423  14.198
82912W        W48172  11.219  23.977   0.263
82913W        W48173   1.666  24.903  10.885
82914W        W48174  28.846  10.204  13.349
82915W        W48175  11.864  23.983   1.800
82916W        W48176  42.042  13.829  14.854
82917W        W48177  37.388   1.510  11.245
82918W        W48178  17.005  41.675  13.157
82919W        W48179  10.877  14.870   2.222
82920W        W48180  41.827  29.051  10.629
82921W        W48181   1.534   1.723  10.825
82922W        W48182  15.095  41.107  12.913
82923W        W48183  13.154  31.887  10.102
82924W        W48184   3.927  30.368  12.132
82925W        W48185  21.633  10.419   9.860
82926W        W48186  30.416  18.089   0.708
82927W        W48187   2.425   1.367  14.819
82928W        W48188  11.046  30.226  10.846
82929W        W48189  23.687   0.379   4.605
82930W        W48190  31.184  34.419  10.539
82931W        W48191  23.402  41.947  13.675
82932W        W48192  23.893  32.176   4.373
82933W        W48193  29.356  27.197   4.363
82934W        W48194   0.740   3.363   3.736
82935W        W48195  26.970  35.340   2.912
82936W        W48196  25.582  28.112   1.655
82937W        W48197   3.829  32.971  11.158
82938W        W48198  26.993  23.366   4.041
82939W        W48199  25.231  36.986  13.402
82940W        W48200   0.903  42.707  11.089
82941W        W48201  25.566  40.571   3.612
82942W        W48202  38.184  25.575   3.158
82943W        W48203  35.686  42.882  14.804
82944W        W48204  35.589  10.664   2.195
82945W        W48205  11.167   8.915  13.997
82946W        W48206  28.654  21.216   5.018
82947W        W48207  26.048  22.658   0.651
82948W        W48208  36.006  14.291  13.045
82949W        W48209  14.900   3.474   0.460
82950W        W48210   8.218  28.606   3.820
82951W        W48211   8.299   0.036   2.227
82952W        W48212  33.180  12.680   0.264
82953W        W48213  27.970  17.199   2.385
82954W        W48214   5.771  29.016   0.112
82955W        W48215   8.305  44.188  12.867
82956W        W48216   6.296  35.254   0.520
82957W        W48217  19.027  22.108   0.911
82958W        W48218  37.111  25.096  13.538
82959W        W48219   5.457   3.839  12.141
82960W        W48220  25.334  28.692   0.995
82961W        W48221   3.679   4.148  11.909
82962W        W48222  30.011   0.480  11.374
82963W        W48223  26.494  35.471   2.691
82964W        W48224  29.585  15.192   0.307
82965W        W48225  42.168  15.081  11.166
82966W        W48226   8.758  16.331  12.594
82967W        W48227  35.564  24.134   2.122
82968W        W48228   6.440  30.934   4.050
82969W        W48229  18.164   8.410  13.891
82970W        W48230  26.965  10.716   0.184
82971W        W48231  13.794  30.343   1.483
82972W        W48232   0.864  22.296  12.063
82973W        W48233  13.336   3.020  12.934
82974W        W48234  23.103  34.875  10.713
82975W        W48235  27.510  34.065  10.689
82976W        W48236  16.767   9.137   3.163
82977W        W48237  18.954   4.224   4.730
82978W        W48238   6.440   3.356   2.790
82979W        W48239  27.418  27.816  12.970
82980W        W48240  38.573   7.608   2.462
82981W        W48241  17.602  31.421   2.481
82982W        W48242   7.347   5.433  11.853
82983W        W48243  40.054  26.278   0.312
82984W        W48244  27.109   5.715  13.111
82985W        W48245   1.975  27.600   5.253
82986W        W48246   4.440  14.105  11.620
82987W        W48247  12.832   0.148   3.693
82988W        W48248  10.126  27.414  12.743
82989W        W48249  10.711  17.862  14.373
82990W        W48250  25.506  23.997   4.257
82991W        W48251  15.803  10.888  11.446
82992W        W48252  41.571  23.995  13.053
82993W        W48253  16.899   2.258   5.044
82994W        W48254  34.606  24.108  14.395
82995W        W48255  23.245  29.642   3.931
82996W        W48256  22.693   5.175   0.384
82997W        W48257  12.376  24.097   4.576
82998W        W48258  43.492  22.091   3.397
82999W        W48259   8.749   0.263   0.862
83000W        W48260   2.528  34.208   0.424
83001W        W48261  39.762   9.413   4.615
83002W        W48262   2.373  27.122  11.674
83003W        W48263  41.803  34.514  10.445
83004W        W48264  16.322  36.968  14.464
83005W        W48265  16.525  33.594  12.858
83006W        W48266  14.319   6.360  11.743
83007W        W48267  36.528  27.245  14.950
83008W        W48268   4.297  13.325  14.520
83009W        W48269  16.223   1.461  13.413
83010W        W48270  36.986  15.324   1.575
83011W        W48271  15.334  16.653  11.660
83012W        W48272  31.345  21.491  11.504
83013W        W48273  37.089  40.805  11.904
83014W        W48274   5.830  16.812   3.167
83015W        W48275   5.425  38.369   1.669
83016W        W48276  31.133  41.912   3.649
83017W        W48277  35.797  12.781   3.333
83018W        W48278  31.429   5.055   3.251
83019W        W48279   0.287  43.027  10.702
83020W        W48280  31.397  27.532  14.410
83021W        W48281  38.470  28.487  12.261
83022W        W48282  36.836  38.266   0.306
83023W        W48283  43.472   3.904   4.516
83024W        W48284   8.788  19.710  13.370
83025W        W48285   4.697  29.125  12.018
83026W        W48286  39.886  40.328   3.657
83027W        W48287   7.239   4.147  10.472
83028W        W48288  26.171  34.482   3.308
83029W        W48289  44.327  25.533  11.460
83030W        W48290  14.308  24.438   4.519
83031W        W48291  27.236  26.949   0.807
83032W        W48292  23.032  42.951   0.812
83033W        W48293  29.274  14.631  10.820
83034W        W48294  39.799  10.714   3.510
83035W        W48295  21.617  43.589   0.290
83036W        W48296  30.760   7.774   2.324
83037W        W48297   5.610  20.935  12.092
83038W        W48298   5.797  17.801   0.640
83039W        W48299  25.972  22.162   2.019
83040W        W48300  26.219  43.102  11.184
83041W        W48301  12.227  32.539   1.972
83042W        W48302   7.796   2.129  10.782
83043W        W48303  39.592   4.878  11.053
83044W        W48304  12.647  39.846  11.479
83045W        W48305   1.520  37.067   3.004
83046W        W48306  30.421   5.879   3.126
83047W        W48307  26.821  33.694   2.387
83048W        W48308  43.422  44.138  10.759
83049W        W48309  10.716  15.724   1.686
83050W        W48310  35.071  14.672  10.694
83051W        W48311  21.484  11.383  11.505
83052W        W48312  18.293  23.745   1.906
83053W        W48313   0.344   5.935   0.269
83054W        W48314  17.015  17.274  11.103
83055W        W48315   9.434  39.335  10.531
83056W        W48316   8.619  14.877   1.356
83057W        W48317  31.951   8.435   1.918
83058W        W48318  39.958   1.222   3.858
83059W        W48319  14.601  28.535  13.122
83060W        W48320  17.770  35.306   4.141
83061W        W48321  28.996   3.609  13.516
83062W        W48322   4.470  26.131  14.264
83063W        W48323  31.286  21.610   4.722
83064W        W48324  31.979  43.791  14.776
83065W        W48325  22.105  38.484  14.807
83066W        W48326  26.993  10.647   4.858
83067W        W48327  36.068  19.013   1.877
83068W        W48328  15.682  43.874   0.913
83069W        W48329  29.378   8.561   2.711
83070W        W48330  15.125   6.336  13.477
83071W        W48331  25.352  19.755  10.787
83072W        W48332  33.546  21.779   0.952
83073W        W48333  10.714  30.427  14.827
83074W        W48334  34.115  39.951   0.861
83075W        W48335  20.513  44.231  13.372
83076W        W48336  31.431  30.740  13.917
83077W        W48337  31.234   7.598  11.048
83078W        W48338  29.562   7.907   1.908
83079W        W48339  17.169   3.971   0.047
83080W        W48340  27.769   9.169  10.723
83081W        W48341  40.025  15.750  13.890
83082W        W48342   1.099  43.575   0.733
83083W        W48343   9.901  42.920  10.620
83084W        W48344   6.719  41.259   4.184
83085W        W48345  27.052   5.647   0.359
83086W        W48346  21.063  32.088   3.296
83087W        W48347  13.329  41.832   2.187
83088W        W48348  15.682  12.192  12.425
83089W        W48349  11.551  39.142   1.754
83090W        W48350  40.271  30.977   3.754
83091W        W48351   0.492   1.883  13.449
83092W        W48352  39.437  17.563   0.198
83093W        W48353  26.539  44.728   2.100
83094W        W48354   3.901  38.423   1.800
83095W        W48355  15.215  29.545  10.751
83096W        W48356   4.941  20.822  14.203
83097W        W48357  17.237  37.060  14.299
83098W        W48358  26.241  24.509   3.081
83099W        W48359  29.488   0.189   3.085
83100W        W48360  17.099   1.000  12.085
83101W        W48361  11.781  15.096   3.361
83102W        W48362  22.319  19.996  11.575
83103W        W48363  22.378  11.861  12.579
83104W        W48364   6.494  22.505  13.396
83105W        W48365  39.875  29.170   1.740
83106W        W48366  17.338  25.896   0.234
83107W        W48367  10.685  12.637  14.312
83108W        W48368  38.326  38.025   1.911
83109W        W48369  38.919  39.522  10.180
83110W        W48370  15.042  26.016   0.442
83111W        W48371  32.236  30.424   4.196
83112W        W48372   4.447  40.322   2.433
83113W        W48373  10.733   5.697  10.724
83114W        W48374  28.128   6.202   3.204
83115W        W48375  28.223  35.760   1.417
83116W        W48376  41.262  38.501   1.213
83117W        W48377   5.751  42.537  12.629
83118W        W48378   0.866  22.071  12.571
83119W        W48379  38.945  33.289  10.717
83120W        W48380   8.143  26.070  13.167
83121W        W48381   2.095  32.805  13.370
83122W        W48382   9.221  40.481  12.153
83123W        W48383   5.696  20.286  10.620
83124W        W48384   0.821  38.253  13.285
83125W        W48385  25.713  21.210   5.066
83126W        W48386  27.709  14.668  10.490
83127W        W48387  34.857  10.332  12.979
83128W        W48388  28.254   9.795   0.801
83129W        W48389  43.911  22.077   0.493
83130W        W48390  37.936   4.481  11.529
83131W        W48391  34.863  21.735   4.212
83132W        W48392  42.010  12.038   2.525
83133W        W48393  36.486  30.421   1.232
83134W        W48394  43.249  35.525   2.874
83135W        W48395  39.767  25.178  10.690
83136W        W48396  12.730  43.423  11.475
83137W        W48397  23.104  31.116  11.588
83138W        W48398  36.990  20.730   3.773
83139W        W48399  39.796  13.062   1.008
83140W        W48400  18.323  31.251   1.798
83141W        W48401   3.010   0.014   3.639
83142W        W48402  16.013  21.290  12.431
83143W        W48403  20.297  23.581   3.723
83144W        W48404  24.094  37.447  14.791
83145W        W48405  18.180  10.298  14.316
83146W        W48406   9.852  38.095  11.388
83147W        W48407   4.008  41.829   1.281
83148W        W48408  18.597  25.307   2.343
83149W        W48409   3.680  19.180   4.269
83150W        W48410  29.425  22.774  12.228
83151W        W48411  11.129   3.408   0.946
83152W        W48412  20.130   1.714   2.455
83153W        W48413   2.279   2.944   4.208
83154W        W48414  28.623  30.929   1.347
83155W        W48415  34.920  40.359  12.613
83156W        W48416   7.021  30.190  10.137
83157W        W48417  39.396  36.001  12.308
83158W        W48418  25.634   4.744   4.994
83159W        W48419  20.662  26.909  13.920
83160W        W48420  20.549  36.151  13.014
83161W        W48421  14.589  16.175   3.611
83162W        W48422  42.038   4.685  12.904
83163W        W48423  27.459   5.311  12.020
83164W        W48424  29.053   2.399  14.447
83165W        W48425  14.820   4.222  13.540
83166W        W48426  38.095  19.088   4.737
83167W        W48427  25.163  26.593   0.328
83168W        W48428  42.322  42.880  11.921
83169W        W48429  25.456  13.136  10.922
83170W        W48430  31.128  28.449  14.366
83171W        W48431  39.579  32.376  12.952
83172W        W48432  11.375   4.725  12.327
83173W        W48433  27.029  36.951   1.659
83174W        W48434  18.847   0.364  12.455
83175W        W48435  40.990  31.184  12.350
83176W        W48436   9.572  39.806  10.758
83177W        W48437  43.810  27.116  13.538
83178W        W48438   3.340  29.439  12.990
83179W        W48439   3.687   8.248   0.702
83180W        W48440   7.592  40.148   2.874
83181W        W48441  18.654  33.302   1.904
83182W        W48442   9.940  40.765   3.394
83183W        W48443   1.946  15.403   1.299
83184W        W48444  14.835   0.289   1.936
83185W        W48445  43.480   4.812  13.524
83186W        W48446  40.371  30.409   4.539
83187W        W48447   4.555  35.019   3.455
83188W        W48448  41.229   9.192  12.604
83189W        W48449  25.222   9.652   1.427
83190W        W48450  35.972  31.560  10.932
83191W        W48451   4.704  16.749  10.618
83192W        W48452  43.619  24.485   0.440
83193W        W48453  35.065  19.202   4.577
83194W        W48454   0.390  24.717   0.244
83195W        W48455  15.839  15.660   0.439
83196W        W48456  20.971  30.414  11.130
83197W        W48457  10.037   1.729  11.181
83198W        W48458  22.427  27.108  14.484
83199W        W48459  29.628  30.454  12.063
83200W        W48460  21.696  18.242   0.805
83201W        W48461   5.449   5.509   0.810
83202W        W48462  11.817   4.447  13.691
83203W        W48463  18.261  41.911   0.227
83204W        W48464   7.439  25.967  10.198
83205W        W48465  36.127   6.884   1.744
83206W        W48466  10.303   3.522   0.130
83207W        W48467  29.619  42.732   2.091
83208W        W48468  43.295  23.100   4.587
83209W        W48469  27.429  25.086   2.479
83210W        W48470   8.883  20.719   2.843
83211W        W48471  42.335  20.455   4.485
83212W        W48472  44.280  33.097  11.457
83213W        W48473   4.726  30.919  10.644
83214W        W48474  33.965  43.305  11.033
83215W        W48475  41.489  31.302  11.602
83216W        W48476  42.129  40.007  13.038
83217W        W48477  40.542  31.635  14.471
83218W        W48478  16.422  27.605  12.495
83219W        W48479   6.343   5.895  14.572
83220W        W48480  43.940  28.605  14.330
83221W        W48481  44.735  25.621  11.764
83222W        W48482  40.790   5.164  13.084
83223W        W48483  44.098  28.320  10.638
83224W        W48484   3.533   5.617   1.716
83225W        W48485  29.097  41.522  11.665
83226W        W48486  29.974  43.603   0.860
83227W        W48487  31.612  35.387  12.516
83228W        W48488  29.341  39.812   1.940
83229W        W48489  36.459  20.709   2.176
83230W        W48490   6.514  23.040  13.412
83231W        W48491  44.768  22.498   3.130
83232W        W48492   0.326  14.981   3.318
83233W        W48493   0.998   9.638   1.435
83234W        W48494   8.553  34.497   2.376
83235W        W48495  11.829   4.887   4.125
83236W        W48496  38.317   5.827  12.934
83237W        W48497  17.691  37.927   0.974
83238W        W48498  26.862  41.259   4.596
83239W        W48499  41.852  40.582  11.931
83240W        W48500   8.268   2.495   1.926
83241W        W48501  34.439  35.564   4.156
83242W        W48502  15.831  17.440   3.826
83243W        W48503   5.711  37.033   1.393
83244W        W48504   3.759  18.322   1.733
83245W        W48505   3.282  35.864  10.713
83246W        W48506  29.439  37.730   2.745
83247W        W48507  24.043   8.516   4.572
83248W        W48508  11.366   3.938  11.636
83249W        W48509  33.527  41.027  12.861
83250W        W48510   7.950  36.170   5.169
83251W        W48511  28.294  35.736   4.532
83252W        W48512  29.827  14.831  14.984
83253W        W48513  42.151  43.259   2.899
83254W        W48514  13.722  15.759   4.033
83255W        W48515  24.161  36.426  14.825
83256W        W48516  21.424  23.076  11.982
83257W        W48517  20.172  39.764   3.415
83258W        W48518   4.921  29.291   4.089
83259W        W48519  13.203   5.672   1.773
83260W        W48520  16.193  19.159  10.678
83261W        W48521  43.989   7.662  13.381
83262W        W48522   1.890  37.623   1.202
83263W        W48523  25.888  20.335   0.317
83264W        W48524  20.483  41.383  11.388
83265W        W48525  20.360  43.363   0.473
83266W        W48526  27.739  38.444  13.588
83267W        W48527  12.928  31.957  11.638
83268W        W48528  25.529  30.786  14.013
83269W        W48529  17.058  26.664   4.700
83270W        W48530  35.520  39.579  14.208
83271W        W48531  42.818  23.265   0.049
83272W        W48532  43.372  28.198  12.177
83273W        W48533  13.676  36.375  12.442
83274W        W48534   1.823  35.056  14.842
83275W        W48535  35.922  19.305  13.457
83276W        W48536   6.676  13.597   4.673
83277W        W48537  30.430  37.793   1.619
83278W        W48538   6.294  11.389  13.046
83279W        W48539  30.687   3.289   4.043
83280W        W48540  27.793   2.956   1.358
83281W        W48541  25.859  34.340  11.551
83282W        W48542  29.062  43.879  14.034
83283W        W48543  25.636  37.287   3.315
83284W        W48544   9.179  25.221  13.999
83285W        W48545   5.338  30.473  13.820
83286W        W48546   6.446  33.002   0.686
83287W        W48547   4.406  40.578  11.476
83288W        W48548  27.399  32.610   0.284
83289W        W48549  33.282  21.188   2.717
83290W        W48550   6.594   9.379   0.906
83291W        W48551  25.556   3.457  13.096
83292W        W48552  12.165  26.529   2.831
83293W        W48553  10.193  41.363   1.377
83294W        W48554  39.725  28.613   0.842
83295W        W48555  28.351   9.937  14.414
83296W        W48556  41.573   9.392   2.817
83297W        W48557  21.658  25.295   0.288
83298W        W48558  18.030  13.357   4.828
83299W        W48559  13.442  33.877  14.884
83300W        W48560  20.438   8.875  14.290
83301W        W48561  21.746  20.095  14.970
83302W        W48562  27.910  15.333   0.798
83303W        W48563   2.684   5.805  11.666
83304W        W48564   1.863  25.340  13.978
83305W        W48565  12.510  27.991  13.871
83306W        W48566  34.196  30.798   3.778
83307W        W48567  12.286  31.128   4.564
83308W        W48568   1.665  37.987  13.821
83309W        W48569  22.151  33.756   1.550
83310W        W48570   7.068  37.073   3.628
83311W        W48571  39.265  16.076  10.880
83312W        W48572  29.981  29.637  11.617
83313W        W48573  43.083  43.568   0.454
83314W        W48574  25.097  30.365   1.603
83315W        W48575   5.906  12.152   3.662
83316W        W48576   8.529  38.579  14.803
83317W        W48577  23.918  24.865   9.683
83318W        W48578  43.216   6.737   3.790
83319W        W48579  32.494  13.385  12.109
83320W        W48580  30.854  27.440   2.314
83321W        W48581   5.160  28.465  10.740
83322W        W48582  26.953   7.647  14.752
83323W        W48583   0.863  38.979   3.782
83324W        W48584  13.354  16.463  13.028
83325W        W48585  10.614   3.855   1.494
83326W        W48586  32.125  43.769   4.779
83327W        W48587  11.361  36.331   4.206
83328W        W48588   7.200  33.887   3.237
83329W        W48589  14.244  40.503   4.407
83330W        W48590   3.477   4.447  11.562
83331W        W48591  33.454  43.369  11.901
83332W        W48592   5.389  10.144  11.180
83333W        W48593  20.932  24.099  14.083
83334W        W48594  17.010   3.111   0.141
83335W        W48595  27.258   6.294  14.724
83336W        W48596  11.292  13.873  11.510
83337W        W48597  33.084   1.964  13.151
83338W        W48598  38.493   3.434  12.802
83339W        W48599  28.967  34.917   3.056
83340W        W48600   8.219  23.058   4.745
83341W        W48601   3.082  27.962   4.569
83342W        W48602  16.319  42.147   0.478
83343W        W48603  30.232  37.309   3.135
83344W        W48604  15.911  32.918   0.509
83345W        W48605   9.083  30.314   1.777
83346W        W48606  25.898   2.772  11.215
83347W        W48607   8.636   9.017  11.694
83348W        W48608   8.742  34.327   4.692
83349W        W48609  30.916  12.437  10.669
83350W        W48610  35.678  17.149  10.752
83351W        W48611  33.208  31.703   1.451
83352W        W48612   6.932  30.539   3.354
83353W        W48613   8.820  19.251  11.492
83354W        W48614  29.298  22.286  12.089
83355W        W48615  18.072  17.294   3.647
83356W        W48616  39.231  21.541   2.339
83357W        W48617  24.765  26.164   1.797
83358W        W48618  28.483  33.086   0.261
83359W        W48619  33.351  23.227  13.492
83360W        W48620  14.011   4.414  13.922
83361W        W48621  22.487  12.763   0.677
83362W        W48622  35.382  26.527   3.719
83363W        W48623   3.985  22.735   3.241
83364W        W48624  18.946  37.550  10.966
83365W        W48625  30.152  17.576   1.949
83366W        W48626  19.556  30.404   2.096
83367W        W48627   9.711   1.031   4.452
83368W        W48628   7.190   6.032  13.386
83369W        W48629   8.995  33.332   3.271
83370W        W48630  28.429  42.724  11.072
83371W        W48631   2.273  40.070  12.677
83372W        W48632  11.000  18.768  14.766
83373W        W48633  31.687  35.350   0.505
83374W        W48634  32.840  20.751  10.611
83375W        W48635  36.018   2.479   3.739
83376W        W48636   3.748  18.745  12.566
83377W        W48637  40.544  32.547   4.263
83378W        W48638  15.017   8.858  10.515
83379W        W48639  24.038  36.358  12.084
83380W        W48640  34.143  23.439  12.865
83381W        W48641  14.319   5.509  14.792
83382W        W48642  23.642  18.797  12.139
83383W        W48643  38.304  26.040  13.393
83384W        W48644  38.995  31.953   4.848
83385W        W48645  21.204  27.117  10.742
83386W        W48646  36.642  25.117  10.337
83387W        W48647   6.624   3.590  10.694
83388W        W48648  24.068   7.001  13.427
83389W        W48649   0.907  44.484  13.766
83390W        W48650  12.279   6.739  13.273
83391W        W48651   6.596  29.946  12.629
83392W        W48652  44.255  25.342   1.230
83393W        W48653  42.043   0.367  10.663
83394W        W48654  34.568   7.279  10.759
83395W        W48655  29.815  25.835   0.282
83396W        W48656  33.974  28.265  13.060
83397W        W48657  32.146  16.127  13.855
83398W        W48658  17.335  40.866  12.564
83399W        W48659  21.049   2.294   1.793
83400W        W48660   1.752  14.717  10.747
83401W        W48661  15.663  18.894  12.998
83402W        W48662   0.445  33.968  10.976
83403W        W48663  12.971   0.291  12.130
83404W        W48664   8.462  41.542   2.795
83405W        W48665  17.818  10.308   1.905
83406W        W48666  34.736  37.332   5.064
83407W        W48667   6.321  15.109   0.460
83408W        W48668  34.261  17.968  13.159
83409W        W48669  18.160  24.361   2.935
83410W        W48670  17.786  37.571   1.708
83411W        W48671  29.628  18.255  11.548
83412W        W48672   7.976  14.879  12.101
83413W        W48673  26.238   2.757  10.348
83414W        W48674  16.781   3.902   2.315
83415W        W48675  13.528  12.858   0.008
83416W        W48676   0.902  43.896  10.665
83417W        W48677  37.321   3.534   0.343
83418W        W48678  36.485  27.699  11.017
83419W        W48679  30.913  10.629   1.416
83420W        W48680  24.935  31.495   2.907
83421W        W48681   6.254  18.530   1.206
83422W        W48682  40.037  14.185   0.017
83423W        W48683  37.999   0.914  11.872
83424W        W48684  28.142  43.975  14.417
83425W        W48685  19.680  40.564   2.900
83426W        W48686  36.339  16.103  14.837
83427W        W48687   2.368   5.218   2.165
83428W        W48688  42.650  21.120   2.653
83429W        W48689  32.212  18.675   4.583
83430W        W48690   5.864   7.123  11.526
83431W        W48691  35.843  30.138   4.559
83432W        W48692  22.981  31.009  10.724
83433W        W48693  19.534   7.682  14.793
83434W        W48694   3.210  14.315  10.453
83435W        W48695  44.023  22.665   0.804
83436W        W48696  36.954  11.325  14.985
83437W        W48697  33.870  34.869   4.349
83438W        W48698  10.232  19.028  12.243
83439W        W48699  14.794   6.135   3.236
83440W        W48700  42.256  27.495   4.639
83441W        W48701   4.376   4.003   1.811
83442W        W48702  12.580  29.164   0.333
83443W        W48703   4.232  14.167  12.464
83444W        W48704   4.799  36.331   0.778
83445W        W48705  40.359  15.244   1.206
83446W        W48706  43.499  14.411  14.225
83447W        W48707  37.929   7.765  10.872
83448W        W48708   4.191  12.867  12.034
83449W        W48709  38.516  13.311   3.987
83450W        W48710  44.238  16.391  13.730
83451W        W48711  13.181   1.931  14.332
83452W        W48712   0.923  31.997   3.032
83453W        W48713  43.247  23.263  10.559
83454W        W48714  43.541  22.205  12.543
83455W        W48715  29.422  21.912  13.784
83456W        W48716   7.272  15.341  11.649
83457W        W48717   6.369  33.820   0.348
83458W        W48718  11.914  29.066   0.783
83459W        W48719  33.838  29.139   1.777
83460W        W48720   4.295  18.238   0.087
83461W        W48721  38.007  36.595   1.265
83462W        W48722  44.728  11.809  12.278
83463W        W48723  44.374  40.605   4.601
83464W        W48724  44.833  10.784  14.201
83465W        W48725  28.965  19.224   3.469
83466W        W48726  17.214   1.976  11.283
83467W        W48727   0.240  17.733   2.217
83468W        W48728   9.524  30.413  12.356
83469W        W48729   1.160  31.862   4.289
83470W        W48730  25.720   7.126  10.913
83471W        W48731  17.779  23.183  11.407
83472W        W48732  25.989  11.185   0.404
83473W        W48733  29.109  29.909   2.762
83474W        W48734  32.616   2.916  14.928
83475W        W48735  24.733  30.091   0.704
83476W        W48736  14.829  17.648   2.848
83477W        W48737  44.023  27.079  14.458
83478W        W48738  44.809  35.171   1.692
83479W        W48739  17.666  20.181   2.221
83480W        W48740  26.429  11.789  11.606
83481W        W48741   1.077  38.511   3.663
83482W        W48742  34.528  25.932   2.766
83483W        W48743  32.503  17.757  13.627
83484W        W48744  24.489  10.300  11.112
83485W        W48745   9.134   9.263  13.294
83486W        W48746   4.349  20.443  14.780
83487W        W48747  31.370  35.857   4.053
83488W        W48748  43.923  16.090  12.586
83489W        W48749   9.084   8.764  11.708
83490W        W48750   0.733  23.765  11.242
83491W        W48751   5.953  41.527   2.049
83492W        W48752  26.926  15.041   0.759
83493W        W48753  41.856  24.140   0.200
83494W        W48754  20.612   8.091  11.010
83495W        W48755   0.806   6.867  13.000
83496W        W48756  31.842  25.223   1.373
83497W        W48757  12.145  39.312   2.007
83498W        W48758   6.640  29.252   5.129
83499W        W48759  11.175  26.534   1.771
83500W        W48760  40.223  21.673  11.177
83501W        W48761   0.385  28.612  14.513
83502W        W48762  35.487  38.020   4.384
83503W        W48763  25.163  35.043   1.782
83504W        W48764   6.071  18.465  14.767
83505W        W48765  36.518   3.215  10.855
83506W        W48766  34.823  40.758   2.282
83507W        W48767   4.770  38.812  10.114
83508W        W48768  42.401   8.433   2.501
83509W        W48769  30.651  10.965   1.697
83510W        W48770  13.589   3.494   2.756
83511W        W48771  17.124  37.258   0.843
83512W        W48772  27.057  11.881   0.971
83513W        W48773  13.676  40.850   2.834
83514W        W48774  39.025   2.611   1.888
83515W        W48775  43.827   3.813  11.227
83516W        W48776  20.244   5.655   2.238
83517W        W48777   2.837   0.896  13.117
83518W        W48778  18.593  30.997  10.401
83519W        W48779  31.465   5.921   1.713
83520W        W48780  29.941   6.315   0.226
83521W        W48781  37.416  23.587  12.399
83522W        W48782  10.321   8.883  14.561
83523W        W48783  38.322   4.454   0.922
83524W        W48784  26.553  33.852  12.011
83525W        W48785   3.234  18.333  12.137
83526W        W48786  21.297   8.091  11.057
83527W        W48787  31.929  29.134   0.315
83528W        W48788  30.457   1.520  12.125
83529W        W48789  36.726  29.649  11.222
83530W        W48790  27.509  28.157  13.384
83531W        W48791   0.490  42.560  14.905
83532W        W48792  16.820   0.051   2.801
83533W        W48793  10.257   4.816   3.668
83534W        W48794  16.311  41.668   4.970
83535W        W48795  44.571  10.180   1.445
83536W        W48796  39.418  32.408  14.328
83537W        W48797  14.529  22.695  10.325
83538W        W48798  15.062   2.766   0.510
83539W        W48799  42.424  41.020  14.839
83540W        W48800  42.818  31.522  12.537
83541W        W48801  22.687  28.158   2.339
83542W        W48802  27.968  27.452  14.782
83543W        W48803  29.019  10.715  13.420
83544W        W48804  14.550  42.617   3.176
83545W        W48805   5.626  35.386   5.013
83546W        W48806  34.296   4.294  12.616
83547W        W48807   2.379  29.965   3.378
83548W        W48808   5.110  24.526   0.424
83549W        W48809   2.991   2.493   3.824
83550W        W48810  39.828  38.806  11.986
83551W        W48811  24.262  44.479  13.561
83552W        W48812  14.232  38.786   0.972
83553W        W48813  21.060  30.994  10.762
83554W        W48814  25.553   4.805   0.812
83555W        W48815  29.632   9.609  12.607
83556W        W48816  31.469  21.988  10.230
83557W        W48817   0.501  27.498   0.334
83558W        W48818  15.474  37.955  12.421
83559W        W48819  37.862  16.142  13.591
83560W        W48820  24.161  13.228  12.530
83561W        W48821  16.540  17.944  13.385
83562W        W48822  20.542  10.918   2.209
83563W        W48823   2.066   8.680   5.096
83564W        W48824   1.673  14.240  10.554
83565W        W48825   0.855  15.418  11.102
83566W        W48826   1.400  28.126   0.887
83567W        W48827  42.256  24.801  11.262
83568W        W48828   9.536  29.548  14.790
83569W        W48829   6.478   1.750   4.512
83570W        W48830   7.785  21.017   2.383
83571W        W48831  22.199  25.302   2.746
83572W        W48832  36.657  19.256   2.652
83573W        W48833  16.328   2.250  12.615
83574W        W48834   5.666  29.984   2.874
83575W        W48835  19.777  42.505  14.599
83576W        W48836  37.888  31.320  12.477
83577W        W48837  22.494  29.943   1.916
83578W        W48838  27.916  34.955   1.691
83579W        W48839  13.098  28.786  12.901
83580W        W48840  31.869   5.201  13.163
83581W        W48841  32.414  17.284  11.365
83582W        W48842  14.806  17.560   0.515
83583W        W48843   7.305  28.158   0.580
83584W        W48844  10.837  19.254  14.733
83585W        W48845  29.501  22.065   1.791
83586W        W48846   1.155  16.273  14.900
83587W        W48847   2.377  40.792  13.918
83588W        W48848  26.580  26.548   2.542
83589W        W48849   3.565  22.641   4.080
83590W        W48850  38.938   9.106  14.828
83591W        W48851  16.480  20.672   1.278
83592W        W48852  23.543  44.246   1.371
83593W        W48853  26.449   9.113  13.911
83594W        W48854  26.518  29.964  12.185
83595W        W48855   2.892  23.273   0.340
83596W        W48856   1.845  15.078   1.740
83597W        W48857  23.307  28.012   1.267
83598W        W48858  39.076  26.505  13.429
83599W        W48859   4.153  30.615  11.545
83600W        W48860  35.821  15.814  14.503
83601W        W48861   7.800  18.602   1.601
83602W        W48862   0.900   9.137   3.614
83603W        W48863  11.805   3.471  13.383
83604W        W48864  40.086  17.716  13.513
83605W        W48865  17.807  28.944   3.075
83606W        W48866  21.942  10.468  14.388
83607W        W48867  37.180  20.541   2.838
83608W        W48868  26.278  21.664   1.286
83609W        W48869  14.103   9.398   4.074
83610W        W48870   1.183  19.713   3.249
83611W        W48871  35.317  17.453  12.517
83612W        W48872  34.790   1.506   9.883
83613W        W48873  34.569  36.560   4.364
83614W        W48874  12.537  35.110   2.829
83615W        W48875   2.885  42.412  14.225
83616W        W48876  43.361  32.167   3.134
83617W        W48877  32.436  39.641   3.095
83618W        W48878  10.245  17.319   4.727
83619W        W48879  16.574  14.215  14.504
83620W        W48880  31.258  12.174   0.330
83621W        W48881  39.729  24.848   0.463
83622W        W48882  43.598  14.910  13.293
83623W        W48883  42.215  30.958  10.717
83624W        W48884   7.607  39.213   3.347
83625W        W48885  33.306  30.476  11.008
83626W        W48886  32.962  44.958  11.179
83627W        W48887  24.219  41.295  13.395
83628W        W48888  23.049   1.289   4.568
83629W        W48889  42.745  31.134   0.664
83630W        W48890  44.140   5.878  13.901
83631W        W48891  30.950  41.336   0.679
83632W        W48892  22.195  44.981   1.309
83633W        W48893  26.187  43.884  13.524
83634W        W48894   6.877  35.984  11.098
83635W        W48895  16.209   3.467  14.300
83636W        W48896  44.079  31.456   0.719
83637W        W48897  18.312  44.968   1.257
83638W        W48898  37.856   8.442  12.897
83639W        W48899  33.045  31.083   4.521
83640W        W48900  40.388  29.889  11.666
83641W        W48901  42.098  20.617  10.816
83642W        W48902  15.286   8.371   1.364
83643W        W48903  33.023   5.590  10.571
83644W        W48904  41.382   1.337   3.585
83645W        W48905  42.484   7.927   0.303
83646W        W48906   9.843  40.274  10.711
83647W        W48907  36.511  38.459  14.467
83648W        W48908   0.215  40.787  13.048
83649W        W48909   0.908  41.031  14.014
83650W        W48910  12.183  24.119   0.932
83651W        W48911  41.815   0.907   5.122
83652W        W48912   3.842  37.359   2.210
83653W        W48913  11.195  12.806  11.742
83654W        W48914   6.836  23.585   2.787
83655W        W48915  10.344  33.658  13.842
83656W        W48916  20.291  28.224   2.321
83657W        W48917  11.204  10.876  13.831
83658W        W48918  10.348  35.883  10.291
83659W        W48919  26.158  11.357  11.577
83660W        W48920  24.108  41.371   0.274
83661W        W48921  27.980  27.202  11.518
83662W        W48922  27.285  40.622   0.234
83663W        W48923  22.512   0.728   1.866
83664W        W48924  42.859  36.457  11.079
83665W        W48925  22.666  39.485  10.545
83666W        W48926  15.354  18.697  14.497
83667W        W48927  26.278   8.374   3.243
83668W        W48928   2.505  28.194   0.912
83669W        W48929  39.256   9.820  11.936
83670W        W48930   3.358   1.817   4.877
83671W        W48931  19.151   4.259   2.877
83672W        W48932  11.703  33.531   3.129
83673W        W48933  25.916  37.938  14.282
83674W        W48934  34.445  19.464   2.911
83675W        W48935  38.909  32.520  14.140
83676W        W48936  23.741  42.638   2.190
83677W        W48937  16.586  10.790  13.473
83678W        W48938   9.907  37.821   3.312
83679W        W48939  15.847  37.532  13.762
83680W        W48940  41.210  11.356   2.782
83681W        W48941   0.739  41.855  13.345
83682W        W48942  21.374  25.145  12.960
83683W        W48943  43.476  25.569  11.372
83684W        W48944  33.092   6.635  10.680
83685W        W48945  32.923  42.024   3.648
83686W        W48946  34.532  37.421  13.559
83687W        W48947  18.145  17.697   3.304
83688W        W48948  41.020  34.002  10.352
83689W        W48949  17.123  37.883  14.775
83690W        W48950  36.002  23.676   2.662
83691W        W48951  29.813  31.885   4.284
83692W        W48952  22.268  25.133   1.777
83693W        W48953  24.742   5.920  14.533
83694W        W48954  26.201  22.513  11.049
83695W        W48955  26.042  35.114  12.374
83696W        W48956  29.468   6.911  12.516
83697W        W48957  36.371  13.322   3.757
83698W        W48958   2.250  30.444  13.092
83699W        W48959  22.654  26.132  12.985
83700W        W48960  18.788  34.155   4.641
83701W        W48961  10.760  28.534   4.592
83702W        W48962  38.874  34.562  14.692
83703W        W48963  37.124  13.180   4.935
83704W        W48964  30.180  12.574   2.759
83705W        W48965   0.934  14.721   2.636
83706W        W48966  17.851   6.869   2.775
83707W        W48967  37.109  27.072  11.126
83708W        W48968  30.733  43.003   1.364
83709W        W48969  44.489  22.216  14.487
83710W        W48970  14.485  22.241  14.300
83711W        W48971   2.888  22.732  12.484
83712W        W48972  11.825  29.146  10.770
83713W        W48973   6.302  29.229   3.203
83714W        W48974  12.851  17.790  12.075
83715W        W48975   5.188  44.803   2.791
83716W        W48976   1.870  29.848  12.640
83717W        W48977  28.929  36.811   0.851
83718W        W48978   1.378  39.322  14.563
83719W        W48979  14.127  14.197   3.968
83720W        W48980  38.027  19.809  11.679
83721W        W48981  29.644  41.756   3.745
83722W        W48982  18.454   9.391   3.646
83723W        W48983  21.020  27.584  10.703
83724W        W48984  43.524  15.849   3.070
83725W        W48985  15.734  39.900  10.725
83726W        W48986  38.461   5.713   2.883
83727W        W48987   7.878  25.710  12.623
83728W        W48988  31.405  28.557   1.649
83729W        W48989   0.281  32.517   3.096
83730W        W48990  11.338  31.667  11.571
83731W        W48991  28.858   5.870   2.324
83732W        W48992  22.267  43.479  10.644
83733W        W48993  14.624  42.103   3.178
83734W        W48994  20.213  44.981   4.269
83735W        W48995  36.610  21.274  14.530
83736W        W48996   6.254  11.673   3.862
83737W        W48997  36.829  27.065  13.560
83738W        W48998  31.976  16.112  12.830
83739W        W48999  29.126  31.912  13.564
83740W        W49000  42.986  14.668   2.694
83741W        W49001  10.793  22.694  11.571
83742W        W49002  31.722  20.769   3.405
83743W        W49003  38.613   7.840   1.987
83744W        W49004  44.640   5.418  13.435
83745W        W49005  37.554  42.999   4.784
83746W        W49006  38.975  42.861   1.626
83747W        W49007   5.382   9.866  14.867
83748W        W49008  15.078  24.403   2.278
83749W        W49009  34.594  35.217   4.537
83750W        W49010  23.814  13.881  11.851
83751W        W49011   6.371  43.923   2.258
83752W        W49012  36.944   2.366  10.372
83753W        W49013  12.049  18.179  13.825
83754W        W49014  23.967  10.260   1.784
83755W        W49015  10.038  25.713  13.274
83756W        W49016  17.869   6.798  10.671
83757W        W49017   2.765  38.326  14.787
83758W        W49018  16.310  31.549   1.220
83759W        W49019   4.294   9.638   0.815
83760W        W49020  28.649  25.082  10.635
83761W        W49021  12.189   0.254  12.622
83762W        W49022  42.268  43.747   3.113
83763W        W49023  22.735  20.881  11.995
83764W        W49024  38.821  21.577  12.040
83765W        W49025   0.522  34.047   0.197
83766W        W49026  26.197  16.183  10.706
83767W        W49027  30.616  14.070   1.593
83768W        W49028  36.873   3.779   0.289
83769W        W49029  12.315  21.535  13.784
83770W        W49030  13.736  16.803   1.631
83771W        W49031  11.063  17.119   3.228
83772W        W49032   6.691  19.221  12.771
83773W        W49033  41.801  17.125  11.233
83774W        W49034  38.749  41.890  10.720
83775W        W49035  37.874  14.770   0.007
83776W        W49036  22.117  35.840  13.608
83777W        W49037  34.117   6.415   0.287
83778W        W49038  34.725  10.878   2.774
83779W        W49039  38.300  27.986  11.093
83780W        W49040  28.602  22.072   3.513
83781W        W49041  21.195  30.856  11.228
83782W        W49042  42.122  39.442   4.621
83783W        W49043  28.682  35.094   4.186
83784W        W49044   0.079  34.159   1.119
83785W        W49045   5.322   9.075  12.887
83786W        W49046   1.558  25.649  13.563
83787W        W49047  25.455  32.416  11.603
83788W        W49048   9.749  39.101  13.998
83789W        W49049  26.617  33.576   1.046
83790W        W49050  40.921   7.279   2.605
83791W        W49051  13.377  24.670  11.605
83792W        W49052  30.626   1.769  14.401
83793W        W49053  41.032  19.967  13.264
83794W        W49054  16.378  23.620   0.471
83795W        W49055  25.591  14.822   2.879
83796W        W49056  19.643   9.642   1.323
83797W        W49057  35.790  21.089  12.937
83798W        W49058  12.678   7.901   2.903
83799W        W49059   5.379  39.531   0.479
83800W        W49060  41.026  28.664  13.828
83801W        W49061  12.648  32.222   2.274
83802W        W49062  41.635   4.696  13.334
83803W        W49063  39.997  41.800   4.571
83804W        W49064  19.843  22.444  13.624
83805W        W49065  29.235  20.142  11.079
83806W        W49066  44.516  25.962  12.121
83807W        W49067   5.304  27.175  13.795
83808W        W49068  44.585  27.651   3.724
83809W        W49069   8.275  10.641  12.674
83810W        W49070  33.581  36.112  10.919
83811W        W49071  28.098  31.575  12.286
83812W        W49072  31.387   7.949  14.437
83813W        W49073  25.923   4.312   2.532
83814W        W49074   4.123  14.728  10.738
83815W        W49075   5.950  15.440  14.512
83816W        W49076   3.697  21.805   2.966
83817W        W49077  36.549  29.152   0.915
83818W        W49078   3.005   3.990   3.927
83819W        W49079  31.362  42.335  13.933
83820W        W49080  14.413  10.851  11.650
83821W        W49081  27.803  37.624  11.167
83822W        W49082  22.920  19.055   4.564
83823W        W49083   1.310  29.798  10.190
83824W        W49084  21.458  22.134  10.981
83825W        W49085  26.720  14.514  12.590
83826W        W49086  13.127  33.531   3.402
83827W        W49087  25.017   9.471  14.749
83828W        W49088  38.968   1.907  10.074
83829W        W49089  15.396  41.835   4.460
83830W        W49090  14.698   7.669   1.435
83831W        W49091  31.645  37.586   4.173
83832W        W49092  41.015  27.728  13.645
83833W        W49093  15.622  32.898   4.602
83834W        W49094   3.256  22.656   1.488
83835W        W49095  21.854  22.080  10.111
83836W        W49096   1.884  38.705  10.699
83837W        W49097   0.518  44.441   2.670
83838W        W49098  25.063  20.010  13.106
83839W        W49099  27.179  42.344  14.342
83840W        W49100  12.712  10.370   2.765
83841W        W49101  41.451  25.959  14.031
83842W        W49102  15.108  28.051   1.454
83843W        W49103  40.395   6.629  14.575
83844W        W49104  18.730  36.128   1.840
83845W        W49105   6.235   4.079  11.202
83846W        W49106  19.721   7.536   5.055
83847W        W49107  15.675  23.721   2.244
83848W        W49108  37.613  17.159   4.164
83849W        W49109  34.327  11.287   2.774
83850W        W49110  27.057  21.287   1.463
83851W        W49111  17.947  37.452   0.596
83852W        W49112  29.389  15.189   2.596
83853W        W49113  20.617   9.806  13.636
83854W        W49114  21.205  20.681  11.949
83855W        W49115  21.200  27.524  13.530
83856W        W49116  42.801  31.017  13.097
83857W        W49117   9.331  31.770   2.144
83858W        W49118  28.423   0.736  10.457
83859W        W49119  28.402  25.675   3.212
83860W        W49120  28.499  15.692  14.422
83861W        W49121  13.676  29.345   2.257
83862W        W49122  13.345  22.438  11.729
83863W        W49123  44.289  36.372   4.296
83864W        W49124  11.703  25.610  14.421
83865W        W49125   0.379  33.509   1.974
83866W        W49126  31.528  44.397   3.767
83867W        W49127  37.791  13.368  14.352
83868W        W49128   4.726  26.170  13.413
83869W        W49129  36.126   8.706   2.139
83870W        W49130  10.878  12.263   1.328
83871W        W49131  10.740  34.731   3.566
83872W        W49132   8.187  12.268  12.383
83873W        W49133  16.782  16.146   1.092
83874W        W49134   2.495  43.073  12.085
83875W        W49135  38.879   2.391   5.110
83876W        W49136  25.639  44.428   1.201
83877W        W49137  36.483  21.670  10.536
83878W        W49138   3.835  28.202  12.750
83879W        W49139  24.669  22.194   0.335
83880W        W49140   1.794  21.245  11.063
83881W        W49141  32.649  41.444   0.914
83882W        W49142  23.192  35.573  12.068
83883W        W49143  24.051  34.920   2.661
83884W        W49144   6.699   8.267  14.354
83885W        W49145  36.679   8.613   2.229
83886W        W49146  22.035  38.877   2.242
83887W        W49147   1.142  19.580  10.506
83888W        W49148  37.331  17.595   1.261
83889W        W49149  15.827  10.876   4.195
83890W        W49150  11.448  24.742   1.823
83891W        W49151  16.144  19.406   4.210
83892W        W49152   1.758  15.677  10.397
83893W        W49153  33.605  26.881  14.325
83894W        W49154  42.018  12.630  13.385
83895W        W49155   9.958  39.930   3.725
83896W        W49156   7.522  24.140   0.986
83897W        W49157  32.007  34.074   1.694
83898W        W49158  13.141  17.667   1.870
83899W        W49159   9.810  14.639  10.437
83900W        W49160  44.177  38.354   1.019
83901W        W49161  44.157  30.070  11.117
83902W        W49162  37.611   6.311  13.607
83903W        W49163  14.302   7.435  12.012
83904W        W49164  42.021   2.936   4.966
83905W        W49165  32.897  43.177  14.848
83906W        W49166  27.431  23.117   0.386
83907W        W49167   3.051  29.595  11.383
83908W        W49168  21.599   2.214   2.373
83909W        W49169  17.849  21.895   3.275
83910W        W49170  22.203  23.776  13.712
83911W        W49171   6.127  36.062  13.744
83912W        W49172  37.594  37.470   1.861
83913W        W49173   8.662  21.530   3.983
83914W        W49174  16.729  15.297  12.110
83915W        W49175   0.475   0.806   4.780
83916W        W49176   1.130  15.511   9.778
83917W        W49177  39.329  19.478   2.867
83918W        W49178  30.962  11.129  12.159
83919W        W49179  41.500  17.071  14.277
83920W        W49180   4.555   3.919   1.292
83921W        W49181  11.644  41.304   4.571
83922W        W49182  27.617  38.292   0.403
83923W        W49183  10.849   6.527  12.489
83924W        W49184  23.596  33.473   3.803
83925W        W49185  14.634  20.195   3.304
83926W        W49186  11.719   0.874   2.692
83927W        W49187  31.929  37.456  14.279
83928W        W49188   9.207  38.629  14.503
83929W        W49189   5.497  27.596  10.350
83930W        W49190  34.962  18.249  13.296
83931W        W49191   8.644  26.403  13.811
83932W        W49192   7.275  24.074  14.044
83933W        W49193   5.343  32.946   1.784
83934W        W49194  20.325  18.257  13.652
83935W        W49195  40.736   5.060   2.941
83936W        W49196  21.209  26.618   2.425
83937W        W49197  31.051  18.703   3.279
83938W        W49198  33.599  11.818   5.226
83939W        W49199  19.809  19.104   0.082
83940W        W49200  36.626  13.290   0.768
83941W        W49201   6.323  39.607   2.599
83942W        W49202  41.318  27.050   3.140
83943W        W49203  36.725  43.940  14.953
83944W        W49204  34.075  32.848   2.373
83945W        W49205  32.319  29.611  13.059
83946W        W49206   7.896  31.511   1.811
83947W        W49207  10.656  15.284  12.407
83948W        W49208  31.466  25.356   2.632
83949W        W49209  39.661  43.377   1.287
83950W        W49210  44.802  30.528   1.165
83951W        W49211  27.229  27.610  11.547
83952W        W49212   0.076   2.839   3.228
83953W        W49213   6.912  18.215   3.040
83954W        W49214  37.505   9.336   4.099
83955W        W49215   5.131  33.561   3.057
83956W        W49216   2.235  36.485   0.576
83957W        W49217  42.562  32.220  14.098
83958W        W49218  39.716  24.610   1.721
83959W        W49219  34.095  26.604  13.639
83960W        W49220  38.042  33.426   2.771
83961W        W49221  17.153  14.607   2.080
83962W        W49222  31.017  37.818  13.911
83963W        W49223  33.520   4.658  14.348
83964W        W49224  18.572  10.263   3.667
83965W        W49225  36.123  44.810  11.106
83966W        W49226  15.392  31.129  10.710
83967W        W49227  13.245  42.074   1.367
83968W        W49228  17.460  44.911   3.207
83969W        W49229  39.010  38.029  13.275
83970W        W49230  30.003  32.354   4.557
83971W        W49231  18.078  43.260   4.548
83972W        W49232  23.004  37.876   1.208
83973W        W49233  32.848  14.802   0.840
83974W        W49234   7.708   1.861  14.044
83975W        W49235  37.937   9.581   2.721
83976W        W49236   6.449  10.399   1.662
83977W        W49237   9.015  18.078   3.125
83978W        W49238  19.206  40.315   1.728
83979W        W49239  41.045  10.073   2.318
83980W        W49240  26.651  21.097   0.392
83981W        W49241  21.084  25.248  11.618
83982W        W49242  26.584  21.926   9.651
83983W        W49243  11.889  28.454  11.527
83984W        W49244  42.918  11.877  11.951
83985W        W49245  26.159  39.424  14.480
83986W        W49246   0.063  30.332  12.372
83987W        W49247  29.494  42.593   2.823
83988W        W49248   1.379  10.332   2.757
83989W        W49249  19.923   0.262  11.163
83990W        W49250  27.686  13.761   4.672
83991W        W49251  34.899  30.268  14.390
83992W        W49252  42.897  33.681   4.740
83993W        W49253  39.925   3.927  11.160
83994W        W49254  30.478  19.560   0.775
83995W        W49255   0.923  14.839   2.138
83996W        W49256   8.840  25.793   0.976
83997W        W49257  27.592  41.838   1.894
83998W        W49258  20.115  27.505   0.529
83999W        W49259  26.024  37.006  14.853
84000W        W49260  19.329   4.153  14.364
84001W        W49261  39.672  14.628  11.588
84002W        W49262  20.263  41.230   3.572
84003W        W49263  23.002  23.573   3.759
84004W        W49264  27.142  16.865  14.653
84005W        W49265  20.967  39.904  10.719
84006W        W49266  26.116  11.397   2.356
84007W        W49267  36.130  39.986  11.879
84008W        W49268  17.675  44.679  13.808
84009W        W49269  41.521  25.274  10.663
84010W        W49270  42.820  20.548   1.800
84011W        W49271  30.039   9.848  12.851
84012W        W49272  10.364  44.490   2.800
84013W        W49273   1.846  22.717   1.737
84014W        W49274  18.056  41.167  10.921
84015W        W49275   9.039  32.436   4.045
84016W        W49276  15.723  11.359   0.518
84017W        W49277  16.665  25.397   1.375
84018W        W49278   7.821  15.056   3.345
84019W        W49279  37.825  14.272  14.763
84020W        W49280  26.759   0.272   2.286
84021W        W49281  28.033  27.158   4.293
84022W        W49282  42.916  24.205  10.719
84023W        W49283   5.923  17.941  13.537
84024W        W49284  33.703  30.609   0.692
84025W        W49285  21.461  37.936  13.987
84026W        W49286  18.677  22.481   1.926
84027W        W49287   2.167  42.917   3.545
84028W        W49288   0.571  10.605   5.121
84029W        W49289   8.153  22.574  11.843
84030W        W49290  25.633  24.113  14.787
84031W        W49291  34.111  33.380   2.258
84032W        W49292  39.759  19.481  12.900
84033W        W49293  32.548   3.238   3.277
84034W        W49294  19.606  36.375   2.910
84035W        W49295  17.681   1.626  14.060
84036W        W49296  18.959   7.863   2.764
84037W        W49297  21.577   6.699  13.967
84038W        W49298  15.732  31.549  10.518
84039W        W49299  12.612   2.297   1.808
84040W        W49300  41.270  25.506  13.558
84041W        W49301  35.069  15.895  13.317
84042W        W49302  15.855  42.446   1.881
84043W        W49303   7.916  32.074   0.962
84044W        W49304  29.253  14.692   2.765
84045W        W49305  44.835  22.592  11.349
84046W        W49306  42.411  15.520   0.291
84047W        W49307  10.091  34.180   4.795
84048W        W49308  30.407  11.594   3.712
84049W        W49309  25.631  11.345  14.842
84050W        W49310  43.534  41.137   4.923
84051W        W49311  24.091  32.393   2.219
84052W        W49312  27.148   6.291  13.744
84053W        W49313   1.480  13.855   0.467
84054W        W49314  21.012  14.713   1.806
84055W        W49315   5.581   5.403  11.914
84056W        W49316  34.098  41.680   0.715
84057W        W49317  29.660  21.183   0.350
84058W        W49318  26.963   3.919   1.557
84059W        W49319  18.049  14.268   3.815
84060W        W49320   7.876   8.424  11.141
84061W        W49321  11.353  28.052   2.718
84062W        W49322   1.867  11.737   3.791
84063W        W49323  18.593   8.740  10.720
84064W        W49324   5.892  11.163  11.910
84065W        W49325  36.853  41.464  14.696
84066W        W49326   7.698  39.016  11.607
84067W        W49327   2.763  36.584  10.670
84068W        W49328  14.009  32.045  12.950
84069W        W49329  11.130  42.681   4.989
84070W        W49330  12.666  33.925  14.342
84071W        W49331  42.654   8.220  12.472
84072W        W49332   5.246   8.578   3.686
84073W        W49333  13.149  22.268   0.353
84074W        W49334  43.876   8.533  12.612
84075W        W49335  15.028  31.346  13.492
84076W        W49336  25.260  16.275  13.855
84077W        W49337   6.330  35.167  14.150
84078W        W49338   9.015  42.741   1.135
84079W        W49339  25.734  29.837   4.159
84080W        W49340  38.858  27.027   4.259
84081W        W49341  18.838  35.554  12.267
84082W        W49342  24.988   7.986   2.691
84083W        W49343   2.517  41.719  13.690
84084W        W49344  43.964  12.570   3.098
84085W        W49345  36.398  14.834   0.670
84086W        W49346  42.030  43.959   3.927
84087W        W49347  41.420  20.784  14.781
84088W        W49348  26.956  16.387   0.339
84089W        W49349  22.091  18.047   3.280
84090W        W49350  17.550  34.315   1.271
84091W        W49351  42.824   5.334   3.810
84092W        W49352   8.796  34.929   0.187
84093W        W49353   8.956  12.897   5.066
84094W        W49354  19.803  31.453  14.767
84095W        W49355  26.663  30.048   2.256
84096W        W49356  23.642  31.985   3.122
84097W        W49357  43.791  29.534   2.278
84098W        W49358   6.396  26.756  10.902
84099W        W49359  43.069  43.745  12.524
84100W        W49360  42.291   2.190  14.771
84101W        W49361  14.104  20.135  10.678
84102W        W49362  11.739  32.855   0.335
84103W        W49363  41.430   3.703  12.052
84104W        W49364  24.522   1.345  10.342
84105W        W49365   8.060  28.236   3.500
84106W        W49366  29.153  31.601  12.075
84107W        W49367  20.076  37.667   0.976
84108W        W49368   2.103  12.689   1.437
84109W        W49369   9.529  27.761   4.856
84110W        W49370   4.012  31.008   1.221
84111W        W49371  16.386  17.025   3.266
84112W        W49372  20.589  44.962  11.562
84113W        W49373  17.853  39.032  11.015
84114W        W49374  41.947  44.023   3.433
84115W        W49375  22.719  33.948   3.681
84116W        W49376  25.499  10.195   4.565
84117W        W49377  21.518  29.715  14.578
84118W        W49378   2.389   7.893  11.016
84119W        W49379  29.706   9.100  12.500
84120W        W49380  19.139  29.143   4.466
84121W        W49381  37.956  11.438   2.872
84122W        W49382  23.598  36.854  14.431
84123W        W49383  23.064  27.185  12.669
84124W        W49384   2.027  44.209   1.059
84125W        W49385  38.494  41.488  12.838
84126W        W49386  12.840  32.998   2.836
84127W        W49387  17.167  21.588   0.345
84128W        W49388  11.722  42.310  14.403
84129W        W49389  26.042  39.870   3.698
84130W        W49390   7.178   9.679   1.286
84131W        W49391  23.734  34.345   5.153
84132W        W49392  34.519   7.772  11.630
84133W        W49393  32.512  33.022  11.054
84134W        W49394  12.410  18.809   0.337
84135W        W49395   2.694  29.933  11.262
84136W        W49396  44.865  37.954   4.818
84137W        W49397  25.958  20.086  14.253
84138W        W49398   8.214  33.369   1.274
84139W        W49399  33.623  31.490  13.728
84140W        W49400  43.412  19.055   2.847
84141W        W49401  18.416  19.665   1.778
84142W        W49402   3.761  37.077   1.409
84143W        W49403   9.228  24.921   0.353
84144W        W49404  29.959   3.721  10.768
84145W        W49405  10.786  29.980   1.922
84146W        W49406  31.865  36.156  11.683
84147W        W49407  38.982  21.586   4.577
84148W        W49408  38.628   3.534  12.294
84149W        W49409  23.584  36.613  12.031
84150W        W49410   4.961  18.299   0.881
84151W        W49411   2.856  27.880  10.203
84152W        W49412  39.381  28.736  12.872
84153W        W49413  36.514  20.367   2.572
84154W        W49414  23.706  31.929   4.914
84155W        W49415  39.873  28.015  12.912
84156W        W49416  35.263  10.825  14.083
84157W        W49417  13.327  30.323   4.881
84158W        W49418   5.753  26.443   9.750
84159W        W49419  16.958  24.510   1.257
84160W        W49420  21.705  34.319   3.705
84161W        W49421  19.180  33.834   0.065
84162W        W49422  37.214   4.122  11.953
84163W        W49423  20.767  17.120   4.777
84164W        W49424   7.912  23.894   4.210
84165W        W49425  28.252  37.933  12.115
84166W        W49426  17.103  35.007   4.578
84167W        W49427  40.575   9.686   0.279
84168W        W49428   2.062  32.910   0.945
84169W        W49429  44.850  26.988  14.952
84170W        W49430  26.879  15.022  12.602
84171W        W49431  36.924   4.966   3.554
84172W        W49432  14.611   2.339  14.010
84173W        W49433  33.940  31.594   2.000
84174W        W49434   9.307  42.625  12.397
84175W        W49435  38.870  22.631  14.817
84176W        W49436   4.972  16.315   0.697
84177W        W49437  11.791   5.435   1.888
84178W        W49438   2.794  10.881  13.831
84179W        W49439  24.586  23.610  11.114
84180W        W49440  28.688  16.785   0.301
84181W        W49441  14.716  38.502   1.316
84182W        W49442  40.305   1.048  13.424
84183W        W49443  18.654  18.707  13.561
84184W        W49444  39.786  22.151   2.017
84185W        W49445  15.479  32.536  14.650
84186W        W49446   5.638  36.868   3.761
84187W        W49447  21.281  16.246   4.621
84188W        W49448  32.410  24.215   2.237
84189W        W49449   9.347   0.212   3.855
84190W        W49450  32.480   5.646   4.132
84191W        W49451  20.939  24.661  11.140
84192W        W49452   9.898  10.701  11.694
84193W        W49453  11.626  16.284   2.814
84194W        W49454  12.590   5.510   2.772
84195W        W49455  19.637   9.207  10.541
84196W        W49456  23.085  23.208   4.467
84197W        W49457  13.620  18.675   1.696
84198W        W49458   3.818  10.784  14.440
84199W        W49459  11.583  31.611  10.630
84200W        W49460  36.562   1.491   2.483
84201W        W49461  32.366  36.795   1.953
84202W        W49462  36.314  32.761  13.042
84203W        W49463   7.116  35.025  12.786
84204W        W49464  11.248  36.065  12.989
84205W        W49465  18.935  23.414   5.082
84206W        W49466  29.732  14.688   4.424
84207W        W49467   8.366  33.716   3.734
84208W        W49468  21.793  17.237   0.733
84209W        W49469  39.038  19.156   4.376
84210W        W49470  44.880  12.139  11.069
84211W        W49471  41.721  19.677  14.243
84212W        W49472  28.729  15.118  13.014
84213W        W49473  31.094  44.485  12.020
84214W        W49474   7.574   1.478   0.362
84215W        W49475  31.028  35.425  13.927
84216W        W49476  40.298   2.258   0.479
84217W        W49477   6.463  37.493  14.767
84218W        W49478  35.589  17.055  11.647
84219W        W49479  17.099  34.456   1.488
84220W        W49480  29.497  10.411   3.275
84221W        W49481   3.923  40.140  12.934
84222W        W49482  15.267  15.802   1.281
84223W        W49483  37.886  15.773  10.364
84224W        W49484  18.585   3.864  14.891
84225W        W49485  33.361  14.336   0.786
84226W        W49486  38.038   6.157  14.657
84227W        W49487  23.516  33.391   1.905
84228W        W49488  31.360  16.631   3.669
84229W        W49489  26.465  39.297  14.042
84230W        W49490  40.035  39.990  11.662
84231W        W49491  15.982  22.502  14.568
84232W        W49492   2.178  43.713  13.458
84233W        W49493   7.436   6.611   4.683
84234W        W49494  18.151   7.204   4.099
84235W        W49495   0.646  16.337  13.111
84236W        W49496  11.339  27.988   4.196
84237W        W49497  15.263  39.881  14.998
84238W        W49498  41.934  14.232   4.108
84239W        W49499   4.575  23.901   1.582
84240W        W49500   1.737  38.002   3.735
84241W        W49501   1.954  41.779  11.993
84242W        W49502   0.632   2.799  13.909
84243W        W49503  34.078  36.887   0.835
84244W        W49504  33.347  36.230   3.755
84245W        W49505  41.245   9.754  11.112
84246W        W49506   0.952  13.789   0.474
84247W        W49507  37.965  40.803  14.837
84248W        W49508   8.192  26.716   1.674
84249W        W49509  25.373  18.657  11.182
84250W        W49510   3.739  17.676  10.446
84251W        W49511   5.363  11.085  12.090
84252W        W49512  11.655  40.893  12.306
84253W        W49513  19.655  19.637  14.225
84254W        W49514  36.531  39.592  14.031
84255W        W49515   4.792  20.264   0.276
84256W        W49516  25.961  14.130  11.752
84257W        W49517  18.066   9.730  10.677
84258W        W49518  27.220   3.877   4.209
84259W        W49519  40.114  31.471  12.092
84260W        W49520  18.172  23.684  10.662
84261W        W49521  12.401  43.366   1.419
84262W        W49522  24.164  13.706  12.767
84263W        W49523   0.906   9.328  10.666
84264W        W49524  40.139   7.198   4.553
84265W        W49525   3.172  20.556   4.580
84266W        W49526   4.398  19.764   0.917
84267W        W49527  24.043  32.277   3.289
84268W        W49528  14.057  36.102  12.212
84269W        W49529  25.284  21.673  14.708
84270W        W49530  31.423  35.133   2.347
84271W        W49531  14.400  38.101  12.869
84272W        W49532  23.071   5.886   2.565
84273W        W49533  17.561  30.309   1.936
84274W        W49534  19.265  42.937   1.409
84275W        W49535  41.121  40.325  11.244
84276W        W49536  44.465  33.610   0.489
84277W        W49537  41.059  34.465   2.322
84278W        W49538  37.612  40.359   1.417
84279W        W49539  25.580  29.607   0.415
84280W        W49540   2.749  30.707  10.133
84281W        W49541   2.909  28.981   0.757
84282W        W49542   9.823  38.501  11.041
84283W        W49543   3.420  34.341  14.118
84284W        W49544  11.430  19.683   4.131
84285W        W49545  11.398  40.095  12.073
84286W        W49546  23.599  21.827   1.011
84287W        W49547  32.531  26.243  13.946
84288W        W49548  44.769  15.239  12.911
84289W        W49549  15.027  20.773   2.774
84290W        W49550  31.423  30.122  13.470
84291W        W49551  24.166   9.637   0.239
84292W        W49552  29.998  35.359  14.038
84293W        W49553  35.160  18.189   4.142
84294W        W49554  26.263  40.554  13.353
84295W        W49555  31.018  14.770  11.105
84296W        W49556  37.365  12.543  14.813
84297W        W49557  32.484  33.638   2.969
84298W        W49558  22.925  31.468   1.826
84299W        W49559  24.486   3.396  12.570
84300W        W49560  41.717  41.697  13.430
84301W        W49561  23.223  23.626   3.282
84302W        W49562  19.932  41.858   1.849
84303W        W49563   5.930  37.828   4.635
84304W        W49564   3.048   6.282  11.386
84305W        W49565   3.924  10.733   3.107
84306W        W49566  30.657  42.302   2.370
84307W        W49567  32.252   6.876  14.747
84308W        W49568  28.761  14.059   1.876
84309W        W49569  39.717  35.432  12.101
84310W        W49570  17.060  22.755  13.773
84311W        W49571  41.531  27.502   4.161
84312W        W49572  34.585  26.243   3.233
84313W        W49573  19.854  35.922  13.882
84314W        W49574  31.439  14.114   3.824
84315W        W49575  10.787  17.238  13.756
84316W        W49576  37.868  33.083  11.470
84317W        W49577  17.969  17.057  12.068
84318W        W49578   8.945  41.401   0.998
84319W        W49579   3.698   1.931   4.298
84320W        W49580  11.540  33.110   4.844
84321W        W49581  40.991  14.736   0.228
84322W        W49582  19.764  14.817  10.669
84323W        W49583   8.599  25.420  11.278
84324W        W49584   3.222  20.602  13.648
84325W        W49585   7.900  34.094   1.917
84326W        W49586  39.081  33.427   5.071
84327W        W49587  37.620  14.846   0.463
84328W        W49588  28.025  32.374  12.410
84329W        W49589   2.832   1.351   3.007
84330W        W49590  28.745  29.905  12.658
84331W        W49591  24.978  36.188   3.075
84332W        W49592  33.553   3.233   1.705
84333W        W49593   9.955  11.131   1.169
84334W        W49594  12.042  12.549  13.846
84335W        W49595  10.430  15.748  12.429
84336W        W49596  17.728  17.975  14.299
84337W        W49597  30.392  13.392   4.079
84338W        W49598  14.645  24.235   4.155
84339W        W49599  40.267   7.209  11.704
84340W        W49600  31.395  10.274  13.578
84341W        W49601  14.269  34.178  13.813
84342W        W49602  23.981   8.788   0.711
84343W        W49603   0.820  15.567  13.513
84344W        W49604  42.607  30.597   2.886
84345W        W49605  15.657  12.029  14.414
84346W        W49606  44.876  15.879   0.856
84347W        W49607  19.081   8.215  13.839
84348W        W49608  20.298  21.489   1.898
84349W        W49609  43.069  43.402   1.898
84350W        W49610  41.586  41.954  12.838
84351W        W49611  15.523  43.058  12.342
84352W        W49612  25.695  39.544   1.362
84353W        W49613  10.655  36.020   1.436
84354W        W49614   6.218  18.101   1.453
84355W        W49615   4.525  29.540  14.401
84356W        W49616  26.801  19.465   4.637
84357W        W49617   5.924  10.173  11.119
84358W        W49618   8.773  39.347   3.949
84359W        W49619  29.655   4.625   4.060
84360W        W49620  26.732  11.655  14.060
84361W        W49621  27.050  23.723  13.333
84362W        W49622   8.710  19.172   0.451
84363W        W49623   4.113  38.293   2.328
84364W        W49624  15.618  39.035  14.803
84365W        W49625  10.062  19.092   0.081
84366W        W49626  11.305   8.745   4.002
84367W        W49627  35.598  41.047  12.368
84368W        W49628   4.123  43.881   4.586
84369W        W49629   4.815  17.845   3.104
84370W        W49630   3.944  27.735   1.296
84371W        W49631  11.891  15.654  10.659
84372W        W49632   6.301   6.693   0.884
84373W        W49633  14.153  42.527  11.725
84374W        W49634  37.402  26.108   1.864
84375W        W49635  36.365  35.941  14.912
84376W        W49636  25.577  31.107   0.834
84377W        W49637  10.333  38.497  11.142
84378W        W49638  43.934  11.568   2.837
84379W        W49639  15.784  23.132  10.682
84380W        W49640  28.750  40.585  11.989
84381W        W49641  35.468   6.252  12.504
84382W        W49642  16.207  25.408   4.341
84383W        W49643   9.719   2.026   2.322
84384W        W49644  20.620  17.065  12.236
84385W        W49645  22.071  29.053  10.396
84386W        W49646  33.929  12.248  11.936
84387W        W49647  23.793  44.952   2.289
84388W        W49648  22.566  39.469   1.901
84389W        W49649  14.209   0.674  14.858
84390W        W49650  37.449  18.389  12.411
84391W        W49651  10.317  17.568   0.445
84392W        W49652  19.571  23.113   1.366
84393W        W49653  12.789  33.544  13.077
84394W        W49654  41.516  18.129   4.526
84395W        W49655  35.389  40.919  14.307
84396W        W49656  25.797  24.254   2.907
84397W        W49657   0.216  36.023  11.120
84398W        W49658   1.338  23.607   1.800
84399W        W49659  16.163  32.893   1.960
84400W        W49660  15.141  29.505  14.091
84401W        W49661  42.261  25.714   4.756
84402W        W49662   8.142   6.778   5.532
84403W        W49663  15.650   9.389  14.266
84404W        W49664   9.513   9.853   2.886
84405W        W49665  31.524  33.365   1.944
84406W        W49666   8.507  42.822   1.014
84407W        W49667  31.714  10.325   5.030
84408W        W49668  42.574  33.026   0.096
84409W        W49669   3.791   4.240   4.731
84410W        W49670  43.140  25.178  14.690
84411W        W49671  44.572  34.616   4.177
84412W        W49672   0.810  15.570  14.867
84413W        W49673  28.750  23.399   2.783
84414W        W49674  30.165  39.315  12.363
84415W        W49675  20.239  37.453  13.934
84416W        W49676  19.299  16.798   4.956
84417W        W49677  42.403   6.733   0.347
84418W        W49678  25.408  33.891   3.464
84419W        W49679  30.032  10.292   1.876
84420W        W49680  36.514  37.326   1.815
84421W        W49681   2.293  42.986  14.375
84422W        W49682  12.734  25.698   0.811
84423W        W49683  40.707  25.533   0.687
84424W        W49684  36.783  40.630   2.426
84425W        W49685   8.871  30.495  14.527
84426W        W49686   7.271   9.812  13.309
84427W        W49687  32.019  21.936   5.080
84428W        W49688  10.098  41.305  14.971
84429W        W49689  20.717  42.899   2.908
84430W        W49690  34.006   1.507  13.298
84431W        W49691   9.863  44.363   4.586
84432W        W49692  43.978  42.943   2.739
84433W        W49693  13.069  12.569  11.945
84434W        W49694  41.289  22.638   1.340
84435W        W49695  43.376  37.307   1.005
84436W        W49696  26.980   3.777   0.524
84437W        W49697  18.268  40.486  13.029
84438W        W49698  27.563  11.809  13.287
84439W        W49699  38.838   8.128  13.197
84440W        W49700  29.459  22.295  14.239
84441W        W49701  43.153  32.855   2.436
84442W        W49702  44.005  13.860  11.170
84443W        W49703  29.257  18.679  14.448
84444W        W49704   5.110  25.596   4.639
84445W        W49705  40.276   0.002   3.630
84446W        W49706  14.286  44.493   1.150
84447W        W49707   0.210  24.305   3.994
84448W        W49708  40.515  24.961  14.794
84449W        W49709  22.267  16.103  13.482
84450W        W49710   2.694   7.472  10.919
84451W        W49711   9.825  34.387   0.078
84452W        W49712  39.300  20.625   1.519
84453W        W49713  23.466   5.953  12.865
84454W        W49714  20.588  31.384   3.892
84455W        W49715  22.265  39.369   1.480
84456W        W49716  19.693  18.960   1.925
84457W        W49717  17.569   2.373  14.818
84458W        W49718  12.269   5.224  13.724
84459W        W49719  25.091   0.427   4.517
84460W        W49720  14.325  21.531  10.564
84461W        W49721  15.219  43.605  13.098
84462W        W49722  27.183  22.296   4.059
84463W        W49723  21.717   4.184   0.828
84464W        W49724  23.173   3.764   3.412
84465W        W49725  27.186  25.899   1.755
84466W        W49726   6.594  35.830   1.358
84467W        W49727  31.268   5.096   0.191
84468W        W49728  42.816  37.747  13.572
84469W        W49729  13.859  13.791  11.577
84470W        W49730  44.238  25.101   4.959
84471W        W49731  13.344  28.522   0.984
84472W        W49732  18.176  39.609   0.842
84473W        W49733  29.441  35.028   2.281
84474W        W49734  30.549  24.174   2.821
84475W        W49735  11.750   6.807   1.024
84476W        W49736  20.672  44.521   1.849
84477W        W49737  13.264  20.988  14.948
84478W        W49738  23.964  24.032   3.134
84479W        W49739  18.289   1.243   4.080
84480W        W49740  37.578  15.237  14.322
84481W        W49741  41.935  37.430  12.516
84482W        W49742  43.226   5.653  10.995
84483W        W49743  34.951   4.015   2.905
84484W        W49744  43.586   3.368   1.225
84485W        W49745  18.596   5.499   3.381
84486W        W49746  44.289  19.147   2.298
84487W        W49747  32.265  39.028  13.984
84488W        W49748  10.854  41.902  12.600
84489W        W49749  18.674   7.281   1.028
84490W        W49750  18.408  27.760   4.281
84491W        W49751  17.158  32.447  11.084
84492W        W49752  44.257  22.494   2.316
84493W        W49753  33.445  15.628   3.116
84494W        W49754  43.286  31.438   2.279
84495W        W49755  15.354  18.606  12.436
84496W        W49756   5.380  35.677  14.409
84497W        W49757  10.227  10.592  13.430
84498W        W49758  10.405  13.726  14.929
84499W        W49759  28.441  34.004  10.572
84500W        W49760  27.710  33.131  13.380
84501W        W49761  28.106   0.262   4.620
84502W        W49762  39.185   3.014  10.704
84503W        W49763   4.959  39.470   1.762
84504W        W49764  10.773  42.963  13.797
84505W        W49765   8.153   3.077  12.544
84506W        W49766  28.866   7.383   0.397
84507W        W49767  34.855   6.098  11.119
84508W        W49768   4.384  22.527  12.948
84509W        W49769  22.717  42.591  13.456
84510W        W49770  16.669  43.450  13.842
84511W        W49771  13.795  36.375   4.591
84512W        W49772  36.068   5.928   1.288
84513W        W49773  42.840  42.704   3.051
84514W        W49774   0.745  28.331  11.871
84515W        W49775  43.196  38.551   9.801
84516W        W49776  18.265  38.011  10.670
84517W        W49777  28.345   5.934   2.418
84518W        W49778   8.802  35.098  13.653
84519W        W49779  25.130  11.505  14.829
84520W        W49780  35.285  30.519  12.452
84521W        W49781  20.064  38.171  14.059
84522W        W49782  33.528  30.138   0.470
84523W        W49783   5.215  37.059   1.185
84524W        W49784  31.035  37.347  13.040
84525W        W49785  15.729  28.957   0.883
84526W        W49786  37.868  10.722   4.576
84527W        W49787  13.199  43.608   1.793
84528W        W49788  41.699  12.415   5.598
84529W        W49789  42.285  26.170  13.145
84530W        W49790  25.020  40.333  11.380
84531W        W49791  27.058  15.470   4.464
84532W        W49792  22.410   9.920  10.475
84533W        W49793  36.437  26.634   1.330
84534W        W49794   5.157   4.419  10.807
84535W        W49795  27.948  12.772  11.572
84536W        W49796  42.316  36.178   3.178
84537W        W49797   7.635  12.208  14.005
84538W        W49798  28.143  15.858   4.809
84539W        W49799  42.090   0.740  14.113
84540W        W49800  26.633   3.552   1.410
84541W        W49801  16.622  35.271   3.673
84542W        W49802  21.974   2.330  10.310
84543W        W49803  39.148  22.999  14.454
84544W        W49804  11.125   0.413   2.014
84545W        W49805  34.130  29.423   4.058
84546W        W49806  30.279  38.230  13.425
84547W        W49807  15.088  25.080   0.474
84548W        W49808  32.853   9.829   1.791
84549W        W49809   5.767  14.619   4.232
84550W        W49810   2.433   0.320  10.860
84551W        W49811  42.208   6.402  10.722
84552W        W49812   4.579  31.347   4.628
84553W        W49813  21.590  44.051  12.469
84554W        W49814  22.992  29.376   2.567
84555W        W49815   2.284  26.998   3.273
84556W        W49816  26.333   7.505   0.456
84557W        W49817   3.185  16.184  13.923
84558W        W49818  27.497  14.599  14.456
84559W        W49819  43.888  27.149   2.241
84560W        W49820  34.059  43.862  14.538
84561W        W49821  11.921  37.708   1.840
84562W        W49822  36.335   7.874  14.886
84563W        W49823  32.534  39.370  11.115
84564W        W49824  31.414  34.467  13.289
84565W        W49825  15.563   8.928  11.446
84566W        W49826  23.015  39.076  13.465
84567W        W49827   4.370  12.190   4.195
84568W        W49828  19.252  39.324   4.231
84569W        W49829  18.680  20.306  10.160
84570W        W49830  20.489  14.207  10.655
84571W        W49831  12.218   0.705  11.030
84572W        W49832  18.621  30.700   3.751
84573W        W49833  34.718  39.408   2.898
84574W        W49834  14.387  34.448  10.666
84575W        W49835  27.003  25.425  14.952
84576W        W49836  20.488  22.900   0.902
84577W        W49837  37.462  40.754  14.641
84578W        W49838  36.602  37.364  12.725
84579W        W49839   1.884   4.740   3.153
84580W        W49840  42.143  43.277  12.637
84581W        W49841  17.246  38.334   2.374
84582W        W49842  37.095   1.128   3.957
84583W        W49843  10.667  22.953   0.103
84584W        W49844  14.621  31.354  11.208
84585W        W49845  13.800  26.782  13.772
84586W        W49846   2.677  38.892  13.910
84587W        W49847  13.347   1.878   0.230
84588W        W49848  17.073  12.897   5.175
84589W        W49849   1.528   8.885  11.563
84590W        W49850   4.781  12.698  14.994
84591W        W49851  16.294  24.395   2.012
84592W        W49852   3.953  29.692  11.639
84593W        W49853  10.865  24.598  10.951
84594W        W49854  14.174  11.768   1.772
84595W        W49855   3.494   2.464  10.783
84596W        W49856  23.638  29.421  11.134
84597W        W49857   8.953  16.197   3.199
84598W        W49858  11.857  16.016   2.294
84599W        W49859  34.876  23.466  13.484
84600W        W49860  23.080  23.599  12.567
84601W        W49861   8.711  27.905  11.062
84602W        W49862  39.498  10.387   0.999
84603W        W49863  36.241   3.427   3.286
84604W        W49864   5.130  14.843   3.294
84605W        W49865   0.816  17.170  14.042
84606W        W49866   4.854  28.129   2.077
84607W        W49867  36.090  40.828   0.904
84608W        W49868  14.795  39.469  14.425
84609W        W49869  21.085  29.907  14.382
84610W        W49870  18.259  17.677   4.340
84611W        W49871  40.580   0.892   4.951
84612W        W49872  29.787   6.990   4.529
84613W        W49873  38.342  11.944   2.729
84614W        W49874  28.917  37.512  13.479
84615W        W49875  13.680   6.609  11.097
84616W        W49876  42.751   8.262  14.960
84617W        W49877  19.172   5.976  12.893
84618W        W49878  41.468   5.721  14.809
84619W        W49879  23.079  20.524   4.300
84620W        W49880  18.493   1.859   4.013
84621W        W49881   5.037  33.023  11.051
84622W        W49882  44.417  40.780   3.026
84623W        W49883  42.787   7.682  12.551
84624W        W49884  25.516  34.903  14.083
84625W        W49885  13.283  31.582  14.617
84626W        W49886  30.035  23.044   0.682
84627W        W49887   8.538  33.806  12.929
84628W        W49888  27.493  42.336   4.439
84629W        W49889  11.783   4.290   0.252
84630W        W49890  24.984  17.742   5.376
84631W        W49891  44.490  31.217   0.371
84632W        W49892  25.682  18.120   2.622
84633W        W49893   2.422  27.347   5.129
84634W        W49894  22.998  41.944  11.340
84635W        W49895  31.404  33.785  12.741
84636W        W49896  17.288   8.585  12.018
84637W        W49897  17.837   0.102   1.942
84638W        W49898  34.603  32.917   3.213
84639W        W49899   3.411  31.944  10.054
84640W        W49900  18.682  18.606  10.749
84641W        W49901  35.799  36.502   0.302
84642W        W49902  34.163   2.914   3.783
84643W        W49903   1.663  12.645  14.008
84644W        W49904  12.662  12.955  14.477
84645W        W49905  18.044  32.556  14.905
84646W        W49906   6.093  28.105   3.654
84647W        W49907  20.815  15.891   1.360
84648W        W49908   8.913   6.113  14.397
84649W        W49909  20.270  43.305  13.641
84650W        W49910  42.699  29.602   4.530
84651W        W49911  33.363  38.390   1.303
84652W        W49912   0.518  19.824  12.351
84653W        W49913   5.806  11.496  12.862
84654W        W49914   1.394  35.979   4.225
84655W        W49915  12.854  10.400  14.041
84656W        W49916  27.043  21.722  11.182
84657W        W49917  27.872   6.840   4.120
84658W        W49918  21.012   2.471   0.372
84659W        W49919  42.910  42.482  13.612
84660W        W49920  35.336  33.930   0.206
84661W        W49921   1.239   1.379   0.526
84662W        W49922  16.000   4.055   0.409
84663W        W49923   7.338  20.027  12.068
84664W        W49924   7.505  26.866  12.942
84665W        W49925   5.611  21.135   1.205
84666W        W49926  39.118  22.397  14.426
84667W        W49927   9.548  41.004   3.153
84668W        W49928  30.886  43.504   2.117
84669W        W49929  22.946  23.666  14.395
84670W        W49930  29.931  16.820  10.424
84671W        W49931   0.489  23.781   2.745
84672W        W49932   7.678  16.766  10.753
84673W        W49933  25.543  34.172   0.862
84674W        W49934  29.760  37.489   4.949
84675W        W49935  44.696  40.858  12.357
84676W        W49936  41.342  36.891  13.740
84677W        W49937  41.439  21.263  12.243
84678W        W49938  32.416  14.199  10.375
84679W        W49939  17.350  42.233  13.709
84680W        W49940  14.157  14.366   4.935
84681W        W49941  11.639  13.370  14.403
84682W        W49942   3.668  39.411  12.468
84683W        W49943   4.354  19.191   4.577
84684W        W49944   5.228  28.331  10.253
84685W        W49945  38.365   2.811   0.820
84686W        W49946  32.070  13.086  13.084
84687W        W49947  10.323  22.565  12.551
84688W        W49948  11.473  17.109   0.348
84689W        W49949  42.972  10.160  11.118
84690W        W49950  32.232  28.193   0.870
84691W        W49951  19.281  20.973  14.471
84692W        W49952  34.177  25.367   1.456
84693W        W49953  19.762  36.177   4.534
84694W        W49954   6.299  22.576   2.086
84695W        W49955  36.359  12.012   2.032
84696W        W49956  29.103   8.665   4.694
84697W        W49957   8.641  24.079   1.911
84698W        W49958  19.105  12.681   2.761
84699W        W49959  30.371   2.924  10.810
84700W        W49960  25.926  33.041   0.604
84701W        W49961  10.470  24.917   3.660
84702W        W49962  32.157  32.834   0.959
84703W        W49963  26.872  35.187   4.763
84704W        W49964   2.530  26.606   3.516
84705W        W49965   8.858  36.047   1.741
84706W        W49966  12.464  12.771  14.030
84707W        W49967   1.965  26.241  14.091
84708W        W49968  30.447   8.396  13.981
84709W        W49969  39.438  38.173  10.402
84710W        W49970  44.574  32.614   0.286
84711W        W49971  39.502  33.111  11.222
84712W        W49972  18.648   6.172  14.066
84713W        W49973  15.612  19.990   3.736
84714W        W49974  12.148  10.005  14.417
84715W        W49975  12.628   4.321  13.925
84716W        W49976   2.296  17.225   0.765
84717W        W49977   2.294   9.958  14.455
84718W        W49978  17.703   5.925  12.097
84719W        W49979  10.344  32.632   0.733
84720W        W49980  44.722  32.266   3.726
84721W        W49981  16.056  17.755  13.152
84722W        W49982  29.928  13.090  14.039
84723W        W49983  12.135  23.476  13.556
84724W        W49984  20.592  16.625  12.503
84725W        W49985  31.121  32.514  11.630
84726W        W49986  30.518  19.991  13.877
84727W        W49987  38.711  10.103   5.102
84728W        W49988  24.813  29.139   0.321
84729W        W49989  10.744   4.310   3.298
84730W        W49990  34.755   2.175   4.844
84731W        W49991  40.461  38.981   2.286
84732W        W49992  28.615  16.294   0.477
84733W        W49993  42.301  21.305  13.041
84734W        W49994  17.182  27.571   0.340
84735W        W49995  12.421  35.864  14.916
84736W        W49996   9.708  30.662  13.417
84737W        W49997  42.146   2.115  14.303
84738W        W49998  11.105  10.241  12.544
84739W        W49999  39.886  21.506  12.671
84740W        W50000  12.226  12.136   0.886
84741W        W50001  18.142  14.089   2.358
84742W        W50002  25.920  35.431  11.119
84743W        W50003  40.087   0.328   2.167
84744W        W50004  44.432   2.710   2.799
84745W        W50005   0.373  21.477   2.637
84746W        W50006  43.883  42.516  14.747
84747W        W50007  40.007   6.261  12.445
84748W        W50008  31.985  21.824   1.306
84749W        W50009   7.148  40.297  14.910
84750W        W50010  24.196  33.902  13.065
84751W        W50011   6.562  31.217   3.236
84752W        W50012  17.704  33.998  13.643
84753W        W50013  24.708  30.702  13.093
84754W        W50014  42.666  38.050   4.069
84755W        W50015  33.167   1.465   3.298
84756W        W50016  26.170  35.015  10.919
84757W        W50017  16.080  17.012   3.689
84758W        W50018  23.569  24.531  14.994
84759W        W50019  25.205  12.221  12.384
84760W        W50020  21.027  22.278   4.068
84761W        W50021  10.126  26.965  11.912
84762W        W50022  11.430   0.917   4.131
84763W        W50023  21.198  32.849  13.361
84764W        W50024  38.930  22.520   3.621
84765W        W50025  27.895  37.352  10.538
84766W        W50026   8.191  26.795  13.873
84767W        W50027  28.800  13.503   3.624
84768W        W50028   8.819   3.698  10.841
84769W        W50029  28.226  33.187   9.985
84770W        W50030   1.900  40.716   3.635
84771W        W50031  28.197   0.236  11.811
84772W        W50032  11.201  36.409   3.339
84773W        W50033  40.825   9.258  10.760
84774W        W50034  40.959  19.540  11.165
84775W        W50035  28.660  19.413  13.006
84776W        W50036  39.979  37.561  12.360
84777W        W50037  33.959  15.059  14.063
84778W        W50038  18.291  33.585   2.129
84779W        W50039  31.470  24.722  10.663
84780W        W50040  11.618  40.295   3.095
84781W        W50041  22.230  30.901   4.768
84782W        W50042   6.411  13.664   4.226
84783W        W50043  42.094  29.362  12.992
84784W        W50044  43.190  25.558  11.787
84785W        W50045  14.122  18.992   1.365
84786W        W50046  22.889   5.860   4.371
84787W        W50047   3.877   4.226  12.363
84788W        W50048  12.769  28.175  14.686
84789W        W50049   5.359  37.127   4.882
84790W        W50050  18.582  20.984   0.762
84791W        W50051  36.423   4.364  13.095
84792W        W50052   2.840  37.425   2.395
84793W        W50053  44.401   8.862   2.836
84794W        W50054  36.496  28.228   2.161
84795W        W50055  39.583  14.743   2.635
84796W        W50056  28.520  13.590  11.176
84797W        W50057  41.061  41.247  12.570
84798W        W50058  20.588  37.811  13.933
84799W        W50059   7.390  34.682   3.615
84800W        W50060  21.717  33.434  14.337
84801W        W50061   7.776  34.262  12.314
84802W        W50062  41.276  35.016  12.950
84803W        W50063   6.775  10.091  13.002
84804W        W50064  39.331  39.418  10.675
84805W        W50065  38.859  36.174  12.687
84806W        W50066  11.775  19.003  14.266
84807W        W50067  40.477   0.199  13.999
84808W        W50068   5.434  13.341  11.258
84809W        W50069  20.309   1.147   3.164
84810W        W50070  20.838  12.145  10.620
84811W        W50071  13.317  34.077  14.414
84812W        W50072  42.306  28.385   4.688
84813W        W50073  18.229  43.840  10.952
84814W        W50074  43.965  39.006   3.655
84815W        W50075  21.782  28.481  13.342
84816W        W50076   7.020   7.006   4.656
84817W        W50077  37.018  25.017   5.015
84818W        W50078  12.043  35.544  13.576
84819W        W50079  37.286  30.996   2.736
84820W        W50080  20.669  35.878  11.201
84821W        W50081   1.519  27.208   0.473
84822W        W50082  31.217  42.015  12.464
84823W        W50083   0.170   9.648  11.037
84824W        W50084  10.442  25.032  11.669
84825W        W50085  27.589  43.536  11.771
84826W        W50086  44.909  25.498   9.573
84827W        W50087  31.022  21.561   0.374
84828W        W50088  13.630  18.729   3.672
84829W        W50089  43.338  44.430   4.995
84830W        W50090  11.172   0.473   4.201
84831W        W50091  14.454  16.379  13.249
84832W        W50092  43.364  35.571  14.882
84833W        W50093  17.689  35.555  13.320
84834W        W50094   9.946   3.375   4.196
84835W        W50095  29.910   8.386   0.438
84836W        W50096  40.012   0.327  14.887
84837W        W50097  33.856  11.863   1.550
84838W        W50098  21.771  20.320  12.678
84839W        W50099  37.451  24.757   0.019
84840W        W50100  18.526  39.309  11.056
84841W        W50101  28.164  40.260   1.341
84842W        W50102  29.556  16.611  11.216
84843W        W50103  34.309   8.786  11.594
84844W        W50104  28.390  15.822   0.349
84845W        W50105  14.437  21.342  10.099
84846W        W50106  21.759   8.884  14.880
84847W        W50107   1.013  15.264   5.188
84848W        W50108  43.824   8.298  11.102
84849W        W50109  24.085   3.791   3.160
84850W        W50110  12.536  21.226  12.526
84851W        W50111  12.361   1.641  12.973
84852W        W50112   5.894   0.972   2.610
84853W        W50113  34.340  10.257  12.227
84854W        W50114  29.658  39.678  11.610
84855W        W50115  31.717  13.640   4.138
84856W        W50116  35.917  32.820   1.486
84857W        W50117  14.752  29.127   3.512
84858W        W50118  37.492  27.094   4.351
84859W        W50119  30.003   2.906  13.601
84860W        W50120  24.167   1.284   5.004
84861W        W50121   9.715  38.343   3.945
84862W        W50122  29.161   0.644  14.001
84863W        W50123  32.865  25.964  10.723
84864W        W50124  17.582   4.055  14.784
84865W        W50125  35.591  22.462  13.001
84866W        W50126   4.798  10.381   3.808
84867W        W50127  21.094  20.152   3.332
84868W        W50128   1.686  38.515   2.561
84869W        W50129  30.486  27.408  14.952
84870W        W50130  40.410  39.229   5.031
84871W        W50131  36.443   5.750  10.734
84872W        W50132  30.181  42.290   3.133
84873W        W50133   4.702   8.788  12.969
84874W        W50134   3.140  14.842  13.039
84875W        W50135  17.832  30.368   3.302
84876W        W50136  27.183  43.247   4.314
84877W        W50137  20.802  24.972  13.811
84878W        W50138  15.107  20.086  12.167
84879W        W50139  35.244  15.025   1.047
84880W        W50140  38.023  41.023   3.608
84881W        W50141  18.634   8.405   2.193
84882W        W50142   2.728  15.284  14.842
84883W        W50143  24.723  10.230   1.264
84884W        W50144  30.909   2.160  14.198
84885W        W50145  33.939   6.310  12.824
84886W        W50146  40.939  29.491  13.588
84887W        W50147   9.318  33.589   3.903
84888W        W50148  38.596  13.319  12.285
84889W        W50149  26.639   8.428  10.675
84890W        W50150  40.566  42.568  11.614
84891W        W50151  42.391  27.196  12.575
84892W        W50152  44.490  22.937   3.246
84893W        W50153   4.678  32.540  14.890
84894W        W50154  11.017  36.822   2.319
84895W        W50155  39.538  19.162   1.168
84896W        W50156  26.464   4.343   3.115
84897W        W50157  11.420  11.238  14.365
84898W        W50158  17.109  27.399   2.128
84899W        W50159  14.801  38.306   0.370
84900W        W50160   9.791  25.021   3.153
84901W        W50161  43.049   8.282  10.674
84902W        W50162   5.872   5.909   1.284
84903W        W50163  29.557   0.744   4.974
84904W        W50164  44.104   9.818  14.498
84905W        W50165  42.931  36.636  14.494
84906W        W50166  12.383   3.425  12.497
84907W        W50167   0.703  20.746   4.923
84908W        W50168   3.899   6.218  12.430
84909W        W50169  11.835  11.070  14.653
84910W        W50170   4.740  31.481  12.419
84911W        W50171  19.125  25.809   1.875
84912W        W50172  27.249  15.800  10.683
84913W        W50173  28.667   6.827   1.424
84914W        W50174  13.205  23.636   4.176
84915W        W50175  43.218  21.132   0.917
84916W        W50176   7.014  16.231  14.360
84917W        W50177   4.574  16.605   2.439
84918W        W50178   2.384  38.338  13.535
84919W        W50179  18.021   5.911   2.799
84920W        W50180  44.421  10.362   5.519
84921W        W50181  39.595  43.085  12.217
84922W        W50182  15.745  42.417   0.892
84923W        W50183  34.600  27.446  14.391
84924W        W50184  42.677  23.759   0.613
84925W        W50185   7.982  16.828  12.888
84926W        W50186  42.767  13.763   0.410
84927W        W50187  16.289  19.742  14.485
84928W        W50188  19.532  21.170   0.712
84929W        W50189  26.909  24.311  12.061
84930W        W50190   1.868   6.710   3.903
84931W        W50191  35.504   6.620   1.346
84932W        W50192  23.465   6.159   2.284
84933W        W50193  16.774  19.888  14.975
84934W        W50194  25.135  30.959   4.546
84935W        W50195  29.567   5.717  12.878
84936W        W50196  43.691  29.555  13.938
84937W        W50197  43.976   5.297  14.600
84938W        W50198   8.318   6.910   0.443
84939W        W50199   6.408  33.897   2.768
84940W        W50200   7.206  11.423   2.291
84941W        W50201  36.005   1.284  13.794
84942W        W50202  12.660  18.699   3.284
84943W        W50203  18.849  41.315  14.952
84944W        W50204  10.189  44.700   4.792
84945W        W50205  26.126  43.509  13.172
84946W        W50206  22.153  18.600   4.155
84947W        W50207  26.783  38.523  11.462
84948W        W50208   3.086  44.876  10.665
84949W        W50209  28.129  42.485   3.281
84950W        W50210  20.067  37.414  13.453
84951W        W50211  24.705  27.769   2.748
84952W        W50212  17.477  10.273  11.098
84953W        W50213  39.959  32.594   1.838
84954W        W50214  30.754  18.487  12.068
84955W        W50215  33.691  22.156   1.815
84956W        W50216  25.548  25.665  12.745
84957W        W50217  34.481  23.578   2.826
84958W        W50218   8.915  11.163   0.704
84959W        W50219  30.953  28.126   1.861
84960W        W50220  16.301  38.380  12.510
84961W        W50221   3.260  16.815   0.377
84962W        W50222  38.946  40.878   3.589
84963W        W50223  17.505  10.707  12.024
84964W        W50224  26.376   6.241  10.734
84965W        W50225   8.874  21.058  10.490
84966W        W50226  12.778  36.539  14.390
84967W        W50227  10.016  17.774   2.633
84968W        W50228  25.146   8.155  14.408
84969W        W50229  12.981  33.111  12.386
84970W        W50230  32.199   1.710  14.359
84971W        W50231  23.695  17.600  11.081
84972W        W50232  12.245  33.798   0.872
84973W        W50233  16.063  21.597  11.984
84974W        W50234   7.967   5.818  10.332
84975W        W50235  18.057   1.191  14.483
84976W        W50236  11.271   4.866  10.601
84977W        W50237  38.949  32.083   1.434
84978W        W50238   7.854  31.853   2.202
84979W        W50239   7.644   6.598   1.911
84980W        W50240  30.830  18.027  14.329
84981W        W50241  18.915   0.728   3.595
84982W        W50242   2.976  42.377  14.779
84983W        W50243  27.119  34.348  12.036
84984W        W50244  36.948  35.474  13.060
84985W        W50245  44.694  43.529   1.308
84986W        W50246  35.575  37.198   2.764
84987W        W50247  16.490   1.262   4.540
84988W        W50248  39.956  12.768  13.440
84989W        W50249   5.355  30.918   4.811
84990W        W50250   3.450  20.047  11.959
84991W        W50251  35.842  18.024  12.973
84992W        W50252  42.059  44.988   1.821
84993W        W50253  21.942  38.309  11.153
84994W        W50254  14.325   6.649  11.326
84995W        W50255  10.908   5.371   3.480
84996W        W50256  24.597  39.519  11.149
84997W        W50257  22.084  23.733  12.835
84998W        W50258  44.717  33.891  12.909
84999W        W50259  15.277  12.688  11.072
85000W        W50260  38.237  41.813   4.214
85001W        W50261  30.155   7.869   4.906
85002W        W50262  20.489  26.479  14.838
85003W        W50263   5.911  28.555   2.686
85004W        W50264  13.776   1.231   2.648
85005W        W50265  32.465  10.343   4.355
85006W        W50266   7.258   2.439  14.963
85007W        W50267   1.165   3.985  12.653
85008W        W50268  41.834  34.636   0.434
85009W        W50269  17.760   7.696  14.755
85010W        W50270  29.528  42.000   1.989
85011W        W50271  23.921  34.541   3.314
85012W        W50272  12.686  40.029  14.566
85013W        W50273  21.167  10.582  11.438
85014W        W50274  42.323  33.851   3.292
85015W        W50275  14.827  11.266   4.128
85016W        W50276  16.217   7.403   3.060
85017W        W50277  22.687  38.396   2.799
85018W        W50278  42.481  29.681  13.168
85019W        W50279  44.559  38.789  12.965
85020W        W50280   2.803  14.227  14.295
85021W        W50281  41.614  23.162   2.820
85022W        W50282  20.298  37.041  11.981
85023W        W50283  20.657   3.784   2.215
85024W        W50284  18.599   3.304   1.676
85025W        W50285   0.478  41.830   0.341
85026W        W50286  31.390  10.414  14.097
85027W        W50287  24.691   3.482   1.283
85028W        W50288  12.815  18.636  11.015
85029W        W50289  22.521  17.741   4.108
85030W        W50290  36.853  10.356   1.751
85031W        W50291  42.595   1.779  14.928
85032W        W50292   0.454   5.431   0.346
85033W        W50293  28.013  41.446   2.319
85034W        W50294  23.646  16.764   2.106
85035W        W50295  38.481  26.539  10.687
85036W        W50296   3.875  16.795  13.063
85037W        W50297  10.911  15.769  12.638
85038W        W50298  16.625   7.875   4.420
85039W        W50299  11.308  21.158   0.059
85040W        W50300   8.727  26.411   3.143
85041W        W50301  18.783  13.559   0.713
85042W        W50302  40.855  11.368   3.178
85043W        W50303  26.692  17.695   2.280
85044W        W50304  17.179   7.101   1.888
85045W        W50305  22.916   0.482  12.005
85046W        W50306  12.870   2.345  11.421
85047W        W50307   6.200  13.821  13.990
85048W        W50308  43.603   8.397  11.564
85049W        W50309  22.651  26.292  13.930
85050W        W50310  36.389  11.720  10.715
85051W        W50311  34.975  18.018  13.751
85052W        W50312   8.370   0.783   4.858
85053W        W50313  18.811   0.576   4.288
85054W        W50314   4.202  11.806   3.811
85055W        W50315  39.887  22.263  11.645
85056W        W50316   9.884   5.365   0.896
85057W        W50317   4.493  28.072   1.693
85058W        W50318   9.265  18.186   4.891
85059W        W50319   4.874   7.166   0.598
85060W        W50320  21.367   4.519   1.235
85061W        W50321   3.376  36.908   3.715
85062W        W50322  15.171   9.071   1.920
85063W        W50323  39.443   4.829  11.878
85064W        W50324  34.912  37.489   9.781
85065W        W50325   7.132  44.508  11.168
85066W        W50326  42.859  41.287  12.383
85067W        W50327  36.835   7.713  14.939
85068W        W50328  43.556  27.822  14.069
85069W        W50329  33.928  42.805   2.039
85070W        W50330   3.506  27.472   0.330
85071W        W50331  28.694  10.131  12.417
85072W        W50332   8.600   6.304  14.794
85073W        W50333  16.330  35.474   0.614
85074W        W50334   0.165  24.109   3.520
85075W        W50335   0.402  13.865   0.996
85076W        W50336  13.966  16.270   1.776
85077W        W50337  41.357  33.041   2.543
85078W        W50338  39.974  36.818   3.783
85079W        W50339  20.156  14.368  14.888
85080W        W50340  39.004  30.063  14.038
85081W        W50341  22.968  10.737   3.613
85082W        W50342  21.204  23.040  13.338
85083W        W50343  38.445  35.787  11.106
85084W        W50344  20.679  20.005  12.111
85085W        W50345  42.825  36.456   4.048
85086W        W50346  25.448  27.205  12.454
85087W        W50347  35.584  25.138  12.641
85088W        W50348  22.110  40.888  12.347
85089W        W50349  40.184  13.221   0.635
85090W        W50350   5.169   3.559  13.520
85091W        W50351  27.972  32.235  11.918
85092W        W50352  30.441  36.926   0.791
85093W        W50353  14.134  31.974   0.615
85094W        W50354  39.406   0.463  10.706
85095W        W50355  22.137  16.387   1.390
85096W        W50356  35.121   6.337   2.941
85097W        W50357  43.229  31.302  14.458
85098W        W50358  41.994  31.421   3.279
85099W        W50359  42.899  42.229   0.541
85100W        W50360  13.674  12.711   3.147
85101W        W50361  33.797  43.565   3.232
85102W        W50362  43.585   4.907  12.105
85103W        W50363   2.584  12.750   0.576
85104W        W50364  19.225  21.260  12.374
85105W        W50365   2.319  23.824   1.718
85106W        W50366  24.389   0.213   2.761
85107W        W50367  36.533  31.452  12.202
85108W        W50368   2.493   5.180   4.371
85109W        W50369  17.825  12.971   4.056
85110W        W50370   2.665   1.317   3.483
85111W        W50371  19.120   2.364   0.792
85112W        W50372  26.678  24.655  14.238
85113W        W50373  20.796  27.148   2.684
85114W        W50374  36.023  30.323  13.127
85115W        W50375   4.537   1.733  11.146
85116W        W50376   4.373   9.937   1.246
85117W        W50377  26.588  12.713   4.347
85118W        W50378  10.809  26.973  13.346
85119W        W50379  25.079  20.287   4.860
85120W        W50380  39.019   0.942  14.012
85121W        W50381  11.563  31.077  13.549
85122W        W50382   5.147  32.425  14.721
85123W        W50383   8.265  34.567  11.683
85124W        W50384   0.616  20.965   1.893
85125W        W50385  35.379   0.029   3.621
85126W        W50386  36.987  31.681   1.396
85127W        W50387  26.161   9.198  12.528
85128W        W50388  43.839  42.323  12.943
85129W        W50389  34.980   9.925  13.663
85130W        W50390   2.373  33.399  12.939
85131W        W50391  36.922  39.095   3.235
85132W        W50392  29.871  18.317   2.149
85133W        W50393  18.082  12.727  10.721
85134W        W50394  31.567  42.893   3.293
85135W        W50395  37.818  24.458   2.298
85136W        W50396  24.748  22.802  11.133
85137W        W50397  31.139   0.932  14.635
85138W        W50398  14.288   5.334  11.092
85139W        W50399  35.293   8.862   1.818
85140W        W50400  17.233  30.839  12.636
85141W        W50401  40.412  32.653  12.547
85142W        W50402  44.556  13.441   4.502
85143W        W50403  20.790  23.535   4.619
85144W        W50404   9.054  33.868   1.262
85145W        W50405  25.740  43.807   3.275
85146W        W50406  37.937  35.373   1.808
85147W        W50407  24.619  17.093   1.810
85148W        W50408   1.859  17.072   1.641
85149W        W50409  42.008   0.099  13.356
85150W        W50410  44.231  25.650   0.200
85151W        W50411  11.689   1.520  13.566
85152W        W50412  28.389  44.496  11.198
85153W        W50413  12.823  29.472   9.751
85154W        W50414   5.270  16.881  11.839
85155W        W50415   0.342   2.326  14.873
85156W        W50416   7.866  27.517  14.037
85157W        W50417  35.377  19.147  13.523
85158W        W50418   5.247   5.057  12.136
85159W        W50419   8.573  39.879  14.002
85160W        W50420  22.645  13.482  10.475
85161W        W50421  25.633  41.336   4.097
85162W        W50422   8.637  41.261  14.983
85163W        W50423  11.209  38.263   2.345
85164W        W50424  24.792  30.206   0.155
85165W        W50425  16.042  43.285  11.107
85166W        W50426  43.322  37.592  13.633
85167W        W50427  34.633  20.701   2.217
85168W        W50428   5.682  31.624   2.597
85169W        W50429  20.719  36.021   5.264
85170W        W50430  27.163  43.850   2.219
85171W        W50431  42.395  21.071   0.295
85172W        W50432  18.438  34.475  14.792
85173W        W50433  17.372  32.676   4.166
85174W        W50434  41.972  20.226   2.950
85175W        W50435   2.735   8.090  12.566
85176W        W50436  15.251  43.317  14.727
85177W        W50437  32.209  29.694  11.158
85178W        W50438  23.684  40.364   3.054
85179W        W50439   0.370  18.541   0.774
85180W        W50440   4.256  28.944  12.915
85181W        W50441  30.257   2.979   4.119
85182W        W50442  37.320  41.014   2.430
85183W        W50443   2.331  11.352  14.459
85184W        W50444  10.429  36.961   1.436
85185W        W50445  39.361  20.991  14.981
85186W        W50446   1.633  14.225   2.629
85187W        W50447   1.675  21.136   0.491
85188W        W50448   5.913  27.180   2.671
85189W        W50449  21.313  26.110  14.032
85190W        W50450  16.140   9.466   0.485
85191W        W50451  30.359   5.116  11.135
85192W        W50452   3.780   3.269  12.350
85193W        W50453   7.132  22.165  12.931
85194W        W50454  27.390  38.509   2.236
85195W        W50455  28.167  41.855   2.618
85196W        W50456  18.182  38.282  11.107
85197W        W50457   7.236  27.656   4.127
85198W        W50458   7.777  32.644   1.029
85199W        W50459  12.414  34.427  12.683
85200W        W50460   0.478  20.947  11.795
85201W        W50461  39.029  41.000  14.916
85202W        W50462  34.154  21.721  12.019
85203W        W50463  15.295  40.539   2.338
85204W        W50464   6.483  22.178   1.772
85205W        W50465  34.586  36.211  12.618
85206W        W50466   2.117  31.618  14.218
85207W        W50467  18.763  28.818  12.249
85208W        W50468   4.216  41.119   3.260
85209W        W50469  39.231  41.372   3.365
85210W        W50470  12.243  35.980   4.364
85211W        W50471  33.619  33.075  11.073
85212W        W50472   5.285  40.934  11.965
85213W        W50473  20.072  34.788  10.932
85214W        W50474  31.392  14.335   2.467
85215W        W50475  30.672  38.947   2.168
85216W        W50476   3.955  37.335   0.372
85217W        W50477  23.460  26.207  14.320
85218W        W50478  11.219  18.032   3.270
85219W        W50479   4.719  11.408   1.207
85220W        W50480  41.288  41.829  11.467
85221W        W50481  24.595  12.286   4.171
85222W        W50482   2.541  31.659  14.525
85223W        W50483  26.543   2.996   0.346
85224W        W50484   7.499  28.981   0.053
85225W        W50485   5.851   5.208   2.855
85226W        W50486   7.452  12.098  11.880
85227W        W50487   5.440  39.566   1.011
85228W        W50488  24.726  28.440   4.211
85229W        W50489   3.129  24.983  14.908
85230W        W50490  29.533  40.559  13.635
85231W        W50491  20.528  30.572  13.450
85232W        W50492  32.709  14.867   4.371
85233W        W50493  37.836  21.471   4.695
85234W        W50494  41.976  25.405  14.769
85235W        W50495  44.812  31.639   0.221
85236W        W50496  28.462  23.631  12.866
85237W        W50497  38.011  39.384   3.146
85238W        W50498  31.570   3.738   1.215
85239W        W50499  15.361  25.679   2.335
85240W        W50500   0.595  40.155   4.919
85241W        W50501  12.695  10.135   0.769
85242W        W50502  21.172  31.293  14.369
85243W        W50503  14.992  33.339   3.676
85244W        W50504  44.981   4.728  14.615
85245W        W50505  36.091  16.607  11.221
85246W        W50506  25.634   9.186   0.004
85247W        W50507  25.608   3.120  14.460
85248W        W50508  13.825  19.394   0.445
85249W        W50509  22.021  33.889  11.212
85250W        W50510   1.807  10.616  11.837
85251W        W50511  11.664   8.238  13.015
85252W        W50512  16.772  10.544   0.270
85253W        W50513  16.606   3.459  14.995
85254W        W50514  42.723  25.561   2.212
85255W        W50515  37.972  10.291  12.439
85256W        W50516   0.468  24.285   0.505
85257W        W50517  34.123  17.502  14.039
85258W        W50518  26.059  37.897   3.507
85259W        W50519   1.831  38.290   2.098
85260W        W50520  19.751   2.201   4.515
85261W        W50521  40.332   6.882   3.227
85262W        W50522  31.849   9.075   1.424
85263W        W50523  43.263   3.760  10.671
85264W        W50524   3.866  20.633  14.919
85265W        W50525  17.616  15.072   1.552
85266W        W50526   8.441  33.757  12.434
85267W        W50527  39.493   4.956   1.253
85268W        W50528  26.530  23.148   1.264
85269W        W50529  13.386  41.435  10.724
85270W        W50530  30.585  39.286   4.700
85271W        W50531  32.891  17.230  10.611
85272W        W50532  28.604   0.204  12.756
85273W        W50533   1.605  22.239   1.677
85274W        W50534  11.183  16.818   3.619
85275W        W50535  19.119  41.701   4.173
85276W        W50536  16.689  13.763   4.563
85277W        W50537   5.224  39.912   1.869
85278W        W50538  38.296  38.625   3.898
85279W        W50539  37.347   0.408  14.308
85280W        W50540  14.879   4.640  12.043
85281W        W50541   2.794  18.379   0.718
85282W        W50542  29.935   4.247   4.562
85283W        W50543  31.709  10.940   4.176
85284W        W50544  26.326  29.459   2.086
85285W        W50545  33.782  15.289  13.095
85286W        W50546  41.166  13.751  11.308
85287W        W50547  37.755  17.533   2.240
85288W        W50548  14.052   3.880   0.422
85289W        W50549  30.070   3.359  13.889
85290W        W50550  41.836  31.125   4.601
85291W        W50551   4.184  35.555   2.278
85292W        W50552   4.885  32.307  13.638
85293W        W50553  31.391  41.300   0.241
85294W        W50554  42.283  24.604  14.746
85295W        W50555  39.415  34.008   1.257
85296W        W50556  14.611  10.192   2.665
85297W        W50557  21.687  11.277  13.009
85298W        W50558   1.959  37.291   2.354
85299W        W50559  39.848  30.396   3.712
85300W        W50560  15.851  31.095  14.931
85301W        W50561  30.043  34.204  12.373
85302W        W50562   7.617   8.662   3.382
85303W        W50563  38.258  10.773   2.384
85304W        W50564  38.836  25.611  11.416
85305W        W50565  14.618  43.267   2.342
85306W        W50566  17.136   2.629  14.417
85307W        W50567   9.242  27.975   1.855
85308W        W50568  44.146  37.897   2.143
85309W        W50569   1.495  41.026  12.017
85310W        W50570  42.896  44.568  12.926
85311W        W50571  20.064  33.952   0.444
85312W        W50572  30.738  14.150  11.856
85313W        W50573  39.057  13.100  12.210
85314W        W50574  14.734  34.483   3.873
85315W        W50575  27.814  29.904  14.577
85316W        W50576  40.799  16.268  12.771
85317W        W50577  23.363  28.528   1.072
85318W        W50578  20.399  15.767  13.803
85319W        W50579  38.350  27.988   1.180
85320W        W50580  25.478  42.901   1.541
85321W        W50581  36.160  16.143   0.701
85322W        W50582  25.109  18.772   0.497
85323W        W50583  14.283  44.443  10.809
85324W        W50584  27.105  27.451   0.913
85325W        W50585  24.979  44.529   0.421
85326W        W50586  17.862  33.573  10.691
85327W        W50587  10.744  43.883  10.932
85328W        W50588  33.008   9.172   4.354
85329W        W50589  23.741  29.477   3.796
85330W        W50590  23.501   2.223   0.071
85331W        W50591  19.160   0.476  13.870
85332W        W50592  27.354  30.929   0.938
85333W        W50593  20.815  32.458   2.511
85334W        W50594  27.151  20.281  14.421
85335W        W50595  22.199  35.866  12.211
85336W        W50596  17.804  22.613  12.618
85337W        W50597   5.219   1.233  13.108
85338W        W50598   5.116  15.651   4.119
85339W        W50599   5.310  22.345   3.446
85340W        W50600  33.624  10.749   1.922
85341W        W50601  32.983  30.220  10.254
85342W        W50602   7.002  16.882  14.110
85343W        W50603  17.285  19.144  14.823
85344W        W50604  25.749  29.135   3.300
85345W        W50605  33.856  29.946  11.525
85346W        W50606  12.098  11.188   4.595
85347W        W50607  38.581   3.723   4.032
85348W        W50608  11.637  15.199  10.627
85349W        W50609  38.888  31.911   2.508
85350W        W50610  30.203  41.305   3.631
85351W        W50611   0.196   4.718  10.743
85352W        W50612   4.395  16.331  10.602
85353W        W50613   8.260  36.443   2.427
85354W        W50614  17.642  23.915  10.740
85355W        W50615  37.146  37.514   3.232
85356W        W50616  44.446  18.587   0.806
85357W        W50617   9.167  24.474   1.228
85358W        W50618  14.339  18.180   4.451
85359W        W50619  32.477  15.756   4.075
85360W        W50620   3.208  38.458   1.945
85361W        W50621  24.658   8.768   9.705
85362W        W50622  24.966  42.553  11.236
85363W        W50623  34.657  16.531   2.821
85364W        W50624  29.476  43.346   0.003
85365W        W50625  12.872  39.375   2.104
85366W        W50626  40.606  11.227   1.802
85367W        W50627  24.373  38.337   3.544
85368W        W50628  37.542  17.070   4.994
85369W        W50629  34.402  31.833  13.528
85370W        W50630  37.804  37.872   4.125
85371W        W50631   3.894  38.572  12.012
85372W        W50632  43.847  36.119   2.051
85373W        W50633  43.056   4.292  14.399
85374W        W50634  13.844  21.943  10.562
85375W        W50635   8.717  18.564   2.120
85376W        W50636  40.993  25.327   0.325
85377W        W50637   6.754   4.747  14.359
85378W        W50638  36.165  17.319   4.256
85379W        W50639  11.123  44.958   3.284
85380W        W50640   4.441  11.179   2.774
85381W        W50641  21.512  44.807   3.924
85382W        W50642  41.852  26.511   2.178
85383W        W50643  41.293   6.783  10.830
85384W        W50644  21.041  13.997   4.435
85385W        W50645  39.439  30.575  13.363
85386W        W50646  10.444  29.874   4.404
85387W        W50647  40.776   3.507  12.994
85388W        W50648  27.953  36.791   2.869
85389W        W50649  44.968  19.662  13.569
85390W        W50650  22.730  38.547  10.691
85391W        W50651  15.230   2.333  11.857
85392W        W50652   9.335   1.150   0.824
85393W        W50653  37.109  13.681   2.726
85394W        W50654  40.337  38.717   0.790
85395W        W50655  11.701  30.833   1.350
85396W        W50656  13.683  43.785   2.182
85397W        W50657  36.048  28.529   4.178
85398W        W50658  37.560  39.020   4.701
85399W        W50659  41.911  17.264   0.780
85400W        W50660  16.020  43.965  14.125
85401W        W50661   9.435  29.143   4.624
85402W        W50662  10.260  36.400   0.564
85403W        W50663  19.226  21.437   4.608
85404W        W50664  21.795  28.657   3.703
85405W        W50665   9.724  44.908   4.592
85406W        W50666   1.714  26.117   2.741
85407W        W50667  20.565  32.395   1.059
85408W        W50668  17.518   3.129   3.242
85409W        W50669  42.453  21.894   4.583
85410W        W50670  16.288   5.233   2.812
85411W        W50671   8.720  20.013  12.937
85412W        W50672  25.218  12.928   4.804
85413W        W50673  29.671  41.811   4.532
85414W        W50674  33.388  24.681   3.222
85415W        W50675   3.282  21.509   1.779
85416W        W50676   4.400   4.048   3.831
85417W        W50677  29.212  10.398   3.772
85418W        W50678   2.218  42.061   4.144
85419W        W50679  12.857   2.231   2.253
85420W        W50680   4.639  22.685   1.962
85421W        W50681  27.028  25.614  12.388
85422W        W50682   7.385  24.752   1.631
85423W        W50683  24.748   7.007  11.480
85424W        W50684  23.263  35.024   3.156
85425W        W50685  33.001  25.755  13.827
85426W        W50686  37.042  41.076   4.784
85427W        W50687  42.422   2.006   3.714
85428W        W50688  41.420  25.882  12.554
85429W        W50689   1.073  13.463  10.986
85430W        W50690  40.006  40.816   2.474
85431W        W50691  22.683  37.111  13.641
85432W        W50692   2.966  39.926   3.825
85433W        W50693  23.132  13.505  12.554
85434W        W50694  28.660  34.565   3.303
85435W        W50695  42.242  36.858  13.048
85436W        W50696  44.939  23.015  11.639
85437W        W50697   8.588  17.736  10.540
85438W        W50698   7.618   8.289   4.202
85439W        W50699   7.495   3.241  12.002
85440W        W50700   9.960   5.324  14.285
85441W        W50701   7.942  43.992  10.348
85442W        W50702   3.674  34.985  14.931
85443W        W50703  35.563  44.966  12.834
85444W        W50704   4.479   2.872  12.334
85445W        W50705   4.731  35.389   3.109
85446W        W50706  39.381  12.641  10.937
85447W        W50707   4.247  27.130   1.661
85448W        W50708  23.830   0.695  13.910
85449W        W50709  35.592  36.517  12.378
85450W        W50710  38.327  32.707  11.025
85451W        W50711  39.321  15.239   4.328
85452W        W50712  22.003   8.654  13.124
85453W        W50713  29.465   9.349   0.819
85454W        W50714   0.428   7.894  14.434
85455W        W50715  41.176  36.402   3.734
85456W        W50716  25.976  17.042   1.353
85457W        W50717  13.106  36.379  14.882
85458W        W50718   2.715  12.689  13.037
85459W        W50719  39.892   0.827  14.520
85460W        W50720  11.105  34.848  13.096
85461W        W50721   9.763   7.133   3.578
85462W        W50722  29.734  14.853   2.918
85463W        W50723  14.251  26.389  10.719
85464W        W50724  32.507  10.702   2.628
85465W        W50725  40.908   6.191  13.401
85466W        W50726  18.149  21.233   2.786
85467W        W50727   3.859  29.658   3.131
85468W        W50728  18.546  24.610  14.065
85469W        W50729  19.108  33.480   0.444
85470W        W50730  29.377  19.985   1.881
85471W        W50731  17.545   1.989   2.312
85472W        W50732  32.440  36.136   1.191
85473W        W50733  13.207  37.581   2.317
85474W        W50734  20.203  39.035  14.475
85475W        W50735  18.015  12.710  11.635
85476W        W50736  24.037  38.937  14.970
85477W        W50737  31.518  41.417  10.975
85478W        W50738   5.354  12.325   4.394
85479W        W50739  26.669  37.062   5.260
85480W        W50740  34.257   6.334  13.334
85481W        W50741  14.221  33.873  14.266
85482W        W50742  40.907  14.301  14.928
85483W        W50743  31.876  16.193   2.460
85484W        W50744  36.406  35.030   3.774
85485W        W50745  39.867  35.078   3.769
85486W        W50746   1.644  19.051   2.555
85487W        W50747  17.627  11.682  10.622
85488W        W50748  25.257   6.391  13.826
85489W        W50749  15.376  18.703   1.881
85490W        W50750  41.242  12.148  11.636
85491W        W50751  32.941  39.729   0.959
85492W        W50752  31.468  25.411  14.310
85493W        W50753  18.268  20.632  12.595
85494W        W50754  22.158  29.271  12.224
85495W        W50755  35.557  14.584  12.504
85496W        W50756  32.513   5.674   0.727
85497W        W50757  17.660  24.021   4.023
85498W        W50758  12.743  19.684  11.569
85499W        W50759  33.209  41.430   3.166
85500W        W50760  15.351  30.934  14.897
85501W        W50761  17.770  33.315   1.390
85502W        W50762  44.331  23.107   1.285
85503W        W50763  38.335  44.882   3.601
85504W        W50764  34.938   6.711   3.354
85505W        W50765  40.494  15.481   0.701
85506W        W50766  14.388   1.795  13.614
85507W        W50767  32.006  21.581   0.307
85508W        W50768  21.002  38.917  10.956
85509W        W50769  10.609  17.654  13.488
85510W        W50770  25.270  15.925   5.021
85511W        W50771   1.132  35.131   0.786
85512W        W50772  40.336   0.721   4.097
85513W        W50773   3.893  20.308   0.311
85514W        W50774  15.205  40.413  13.094
85515W        W50775  15.021  20.134  14.555
85516W        W50776   8.404  20.173   0.340
85517W        W50777  18.223  31.968   1.224
85518W        W50778  43.781  20.583   3.469
85519W        W50779  33.487  23.146   2.671
85520W        W50780  18.866  32.654   0.259
85521W        W50781  16.166   8.417  13.377
85522W        W50782  18.156  30.805  14.365
85523W        W50783  24.181   6.300  12.263
85524W        W50784  27.425  41.809   4.514
85525W        W50785  13.211  24.939   1.798
85526W        W50786  12.839  16.663  10.650
85527W        W50787  14.201  16.824  13.366
85528W        W50788  32.360  17.356   2.614
85529W        W50789  34.705  41.768  12.966
85530W        W50790  43.530  26.543  14.788
85531W        W50791  13.236  31.965   0.540
85532W        W50792   3.925  41.368  13.545
85533W        W50793  25.995   5.190   3.317
85534W        W50794   8.422  24.050   5.411
85535W        W50795  16.670  23.427  10.731
85536W        W50796  44.432  11.829  11.795
85537W        W50797  26.128  27.722  14.433
85538W        W50798  33.001  19.147   0.396
85539W        W50799  17.162  44.496   4.272
85540W        W50800  17.757  16.511   3.168
85541W        W50801  28.791  28.552   1.241
85542W        W50802  11.262   7.311   0.029
85543W        W50803  41.760  37.659  12.943
85544W        W50804   8.274  39.998  12.079
85545W        W50805  28.668  40.362   1.456
85546W        W50806  16.663  23.836  14.829
85547W        W50807   1.797  44.005  13.605
85548W        W50808  34.419   0.729  13.364
85549W        W50809  24.764   8.568   5.444
85550W        W50810  14.388  10.137   0.609
85551W        W50811  36.074  38.563   4.898
85552W        W50812  43.239  25.251  12.921
85553W        W50813  27.374  39.478   3.618
85554W        W50814   9.787  10.476   2.811
85555W        W50815   3.728  37.897  12.690
85556W        W50816  40.831  23.265  14.587
85557W        W50817  31.600  41.004  11.290
85558W        W50818  19.056  36.504   0.409
85559W        W50819  44.601  17.554   0.574
85560W        W50820  21.220  21.083   2.305
85561W        W50821  25.672   9.141   2.412
85562W        W50822  10.057  15.383  11.507
85563W        W50823  12.289  40.560  12.633
85564W        W50824  20.359  37.828  13.112
85565W        W50825  40.610  26.886  11.005
85566W        W50826  34.897   8.331   4.141
85567W        W50827  19.739  23.563   4.788
85568W        W50828  27.067  32.056   0.408
85569W        W50829  13.268  31.679   1.855
85570W        W50830  44.382  13.575   0.302
85571W        W50831  18.036  21.985  11.323
85572W        W50832  13.253  34.216   1.780
85573W        W50833  31.898  18.964  12.042
85574W        W50834  29.823  15.861   5.080
85575W        W50835   1.345  22.345   0.302
85576W        W50836  32.358   4.696  12.006
85577W        W50837  30.162  24.716  11.198
85578W        W50838  34.248  39.028   4.591
85579W        W50839  40.200  38.616   4.373
85580W        W50840  11.405  21.191   4.972
85581W        W50841   1.771  31.951   3.627
85582W        W50842   5.923  18.108  11.745
85583W        W50843  16.001  39.654  12.144
85584W        W50844   9.823   8.680  14.565
85585W        W50845  36.055  20.557  14.781
85586W        W50846   4.672   9.820   0.476
85587W        W50847   3.336  18.845  10.766
85588W        W50848   1.189  28.436   4.573
85589W        W50849  34.356  24.165  13.930
85590W        W50850  40.998  15.553   3.489
85591W        W50851  44.358  30.378  13.895
85592W        W50852  14.529  41.980   0.931
85593W        W50853  15.122  29.748   4.230
85594W        W50854  23.477  44.788  11.957
85595W        W50855   0.854  37.827   2.038
85596W        W50856  31.478  32.386   3.736
85597W        W50857  13.579  17.551   2.679
85598W        W50858   9.678  36.571   3.434
85599W        W50859  42.104  31.045   1.711
85600W        W50860  32.914  33.672   3.693
85601W        W50861  13.062  29.044  12.408
85602W        W50862  20.315  34.449   2.160
85603W        W50863  31.207  36.807  12.054
85604W        W50864  20.620  42.266  14.854
85605W        W50865  32.940   2.345   3.562
85606W        W50866  44.481   4.141  13.067
85607W        W50867  17.251   4.143   0.506
85608W        W50868  32.199  27.981  11.483
85609W        W50869  24.257  28.555  14.848
85610W        W50870  17.455  33.927  14.110
85611W        W50871   4.151  35.106  12.413
85612W        W50872   9.311  33.979  13.481
85613W        W50873  18.989   7.307  10.347
85614W        W50874  21.496   2.118  11.237
85615W        W50875  11.119  39.982  10.721
85616W        W50876  35.459  32.500  14.974
85617W        W50877   9.881  14.789  14.385
85618W        W50878  36.990  10.948  13.897
85619W        W50879  20.070  24.092   2.720
85620W        W50880  30.446   0.930  14.878
85621W        W50881   6.252  10.619   3.737
85622W        W50882  17.282  35.403   1.034
85623W        W50883   7.218  18.616  13.777
85624W        W50884  12.244  20.573   3.649
85625W        W50885  27.958  29.079  12.578
85626W        W50886  38.459  31.034   0.443
85627W        W50887  31.564   9.372   4.168
85628W        W50888   6.755  19.669   2.927
85629W        W50889  24.438  18.586   1.656
85630W        W50890  13.630  42.290  14.162
85631W        W50891   0.520   0.921  13.558
85632W        W50892   5.785  20.509  11.510
85633W        W50893  42.357  39.492  13.154
85634W        W50894  39.780  30.214   1.704
85635W        W50895   9.928  41.803  14.979
85636W        W50896  35.946  31.560   4.404
85637W        W50897   7.257  34.044  11.607
85638W        W50898  41.465  11.862   2.373
85639W        W50899   3.576  31.458   0.955
85640W        W50900  21.395  15.049   3.137
85641W        W50901  32.562  34.642  13.994
85642W        W50902  42.781   5.258   4.326
85643W        W50903  22.654  14.893  12.693
85644W        W50904  27.068  25.576  12.893
85645W        W50905  31.007  18.440  11.134
85646W        W50906   0.282  28.351   1.809
85647W        W50907  19.984  23.710   0.337
85648W        W50908  22.473  41.432   3.595
85649W        W50909   7.133  40.709   0.911
85650W        W50910   1.532   7.742  10.708
85651W        W50911   0.406  19.947   2.751
85652W        W50912  42.530   1.366  14.379
85653W        W50913  30.083  28.127   3.645
85654W        W50914  15.459  21.038   1.718
85655W        W50915  25.222  41.907   2.422
85656W        W50916  17.488   5.161  12.422
85657W        W50917  24.695   5.916   0.963
85658W        W50918  13.178  24.530   2.123
85659W        W50919  16.554  35.799   3.763
85660W        W50920  19.002  34.973   0.356
85661W        W50921  31.841  18.254   3.157
85662W        W50922  20.726  30.684  11.661
85663W        W50923  26.409  16.565   4.323
85664W        W50924  44.322  22.308  13.078
85665W        W50925  38.039  30.342  14.932
85666W        W50926  33.926  31.161  13.031
85667W        W50927  13.937  17.273   0.311
85668W        W50928  32.469   1.290  12.063
85669W        W50929  39.820  31.620  13.997
85670W        W50930   3.457  32.027   4.540
85671W        W50931   4.994  22.474  14.607
85672W        W50932   2.424   7.494  13.526
85673W        W50933  37.073  25.766  11.936
85674W        W50934  34.143  36.131  12.888
85675W        W50935  39.461  18.488   0.497
85676W        W50936  28.941  31.494  11.133
85677W        W50937   3.547   6.745  14.389
85678W        W50938  42.121  22.931  12.446
85679W        W50939  39.976  15.250  13.132
85680W        W50940  34.948  41.082   1.884
85681W        W50941  24.110  32.592   1.177
85682W        W50942  28.560  12.218   3.708
85683W        W50943  29.483  34.769  11.708
85684W        W50944  31.432  23.221   1.345
85685W        W50945  33.387  44.558  11.909
85686W        W50946  39.249  36.403   4.469
85687W        W50947  25.561   4.964  13.865
85688W        W50948  38.902  19.826  10.652
85689W        W50949  10.653  11.778  13.216
85690W        W50950  27.600  41.994  10.699
85691W        W50951  31.779  22.218  14.326
85692W        W50952  12.701  17.727   4.215
85693W        W50953  18.023  32.386  12.323
85694W        W50954   9.639  30.870   2.341
85695W        W50955  34.402  34.387  11.892
85696W        W50956  42.431   6.550  12.056
85697W        W50957   3.481  42.925  11.592
85698W        W50958  18.245  24.980  13.320
85699W        W50959  37.371  37.723   0.825
85700W        W50960   8.644   6.917   1.812
85701W        W50961  11.606   6.647  11.089
85702W        W50962  31.291  43.551  13.416
85703W        W50963  43.823  29.952   2.733
85704W        W50964  35.579   6.805   0.439
85705W        W50965  38.177   2.198   2.697
85706W        W50966  33.994  43.134  13.921
85707W        W50967   7.194  20.560  13.975
85708W        W50968  35.258  21.737  12.851
85709W        W50969  11.460  19.917  10.485
85710W        W50970  16.234  26.785   2.814
85711W        W50971  21.664  37.116   2.805
85712W        W50972  41.432  11.678  12.563
85713W        W50973  10.763   8.395   2.900
85714W        W50974   7.977   3.508   0.186
85715W        W50975  41.179   2.336  11.921
85716W        W50976  26.770  39.984  14.339
85717W        W50977  34.574   2.221   4.152
85718W        W50978  26.945  14.336   0.043
85719W        W50979  40.779   8.274   0.259
85720W        W50980  23.267  39.106  11.950
85721W        W50981  12.787  35.013  11.250
85722W        W50982  37.812   5.657  12.558
85723W        W50983  32.596  37.566   2.656
85724W        W50984  36.134   7.202   0.904
85725W        W50985  12.830  23.999  13.316
85726W        W50986  32.680  36.990  12.001
85727W        W50987  28.369  32.543   3.290
85728W        W50988  43.242  25.115   3.579
85729W        W50989  37.892  21.301  11.064
85730W        W50990  21.147  25.169   1.520
85731W        W50991   5.321   3.639  11.146
85732W        W50992  11.159   9.518   1.287
85733W        W50993   0.208  24.627   1.314
85734W        W50994  22.429  25.028   1.238
85735W        W50995  16.699   9.595  14.015
85736W        W50996  30.934   1.152  12.041
85737W        W50997  11.904  27.072   4.944
85738W        W50998  14.024  22.530   0.830
85739W        W50999  14.396  19.645   4.028
85740W        W51000  39.825  25.956  14.976
85741W        W51001  34.835  38.388  11.133
85742W        W51002  35.091  18.667   3.247
85743W        W51003  39.565  34.545  13.607
85744W        W51004  24.541  32.439   3.223
85745W        W51005   9.136   0.871   2.733
85746W        W51006  14.502  26.490  11.669
85747W        W51007  39.159   1.508   3.117
85748W        W51008  32.597  17.630   0.056
85749W        W51009  17.582  37.715  10.587
85750W        W51010  20.582  10.524   1.307
85751W        W51011   4.757   0.511   1.923
85752W        W51012  15.423  18.103   0.673
85753W        W51013  39.637  38.416   4.293
85754W        W51014   2.314  43.864  12.398
85755W        W51015  44.427  20.591  13.289
85756W        W51016  37.602  39.106  11.481
85757W        W51017  31.469  19.771   3.158
85758W        W51018  41.027  25.488  12.526
85759W        W51019   0.714  28.948   1.343
85760W        W51020  41.653  43.170   2.753
85761W        W51021  11.730   1.742  10.334
85762W        W51022  12.759  20.079  14.793
85763W        W51023  43.694  43.819   1.201
85764W        W51024   4.851  12.687  10.291
85765W        W51025  38.886   3.427   1.471
85766W        W51026  43.332  20.830  12.063
85767W        W51027   0.775   5.327   2.982
85768W        W51028  17.367  20.544  12.503
85769W        W51029  39.509  31.320   4.144
85770W        W51030  20.240  43.821   3.750
85771W        W51031  44.782  13.111  12.624
85772W        W51032   1.980  38.403  13.862
85773W        W51033  25.764  15.676  14.970
85774W        W51034   2.558  32.587  13.528
85775W        W51035  16.209  27.363  14.477
85776W        W51036  32.374  27.504   2.104
85777W        W51037  23.509  16.665   3.178
85778W        W51038  24.517   2.940  14.234
85779W        W51039   4.157  18.718   1.817
85780W        W51040  30.926  30.955   0.463
85781W        W51041  39.120  22.177  10.495
85782W        W51042  13.428  40.134   3.270
85783W        W51043  28.254  18.112   4.695
85784W        W51044  36.984  27.428   1.683
85785W        W51045   9.883  29.683   1.449
85786W        W51046  15.640  30.361   4.581
85787W        W51047  20.310   6.891  12.514
85788W        W51048  42.911  32.418   1.831
85789W        W51049  21.296  41.519   1.888
85790W        W51050  39.782  36.259  11.891
85791W        W51051  24.389  14.124   0.132
85792W        W51052  25.471  39.673   3.253
85793W        W51053  36.071  23.941   4.006
85794W        W51054  38.565  19.189   3.805
85795W        W51055  31.118   3.512  12.997
85796W        W51056   5.354  12.177  10.608
85797W        W51057  12.261  25.475  13.572
85798W        W51058  24.036  20.820   3.342
85799W        W51059  20.785  33.667  13.881
85800W        W51060  10.335  17.207  13.509
85801W        W51061  43.895  31.389  11.036
85802W        W51062   4.884  16.243  11.584
85803W        W51063  33.323   5.969  11.999
85804W        W51064  12.335   4.331   1.405
85805W        W51065  26.052   9.242   0.404
85806W        W51066   7.300  14.295  10.583
85807W        W51067  27.597  44.515  13.613
85808W        W51068   3.252  43.393  11.574
85809W        W51069  40.146  21.653   2.754
85810W        W51070   4.993  24.959  12.021
85811W        W51071  19.981  14.340  12.642
85812W        W51072  11.375  22.715   3.674
85813W        W51073   0.751   2.721   0.374
85814W        W51074  43.289  32.311   1.462
85815W        W51075  11.197   5.714  12.341
85816W        W51076  41.767   6.291  13.038
85817W        W51077  18.065  35.201  13.417
85818W        W51078  35.473  20.770  14.952
85819W        W51079   4.124  37.126  11.017
85820W        W51080   1.705  22.527   1.276
85821W        W51081   6.694   3.294   1.000
85822W        W51082  32.003  35.046   4.154
85823W        W51083  35.831   7.812  13.975
85824W        W51084   3.733  29.369   1.844
85825W        W51085  21.079  35.382   2.361
85826W        W51086  40.398  16.200   2.497
85827W        W51087  18.428  37.401  10.978
85828W        W51088  35.448  34.896   2.110
85829W        W51089  33.572  43.787   3.674
85830W        W51090   2.305  10.469  10.625
85831W        W51091   1.645   6.603   3.009
85832W        W51092   4.236  28.493   3.330
85833W        W51093  18.904  11.179  13.036
85834W        W51094  19.643  30.805   4.719
85835W        W51095   3.259  37.021  14.400
85836W        W51096  12.299   8.500   5.289
85837W        W51097  43.919  28.075  13.041
85838W        W51098  21.811   9.293   0.230
85839W        W51099  41.888  16.350  13.039
85840W        W51100  44.997   3.116  13.388
85841W        W51101  33.013   0.765  11.605
85842W        W51102  23.009  37.109   3.085
85843W        W51103  35.795  14.148   1.954
85844W        W51104   4.500  18.119  12.528
85845W        W51105  41.225   2.371   1.239
85846W        W51106  24.085  10.440  14.588
85847W        W51107   6.055  24.093   1.029
85848W        W51108   0.789   4.495   0.413
85849W        W51109  21.753  15.854   0.355
85850W        W51110  43.913  15.593   4.475
85851W        W51111   8.357   1.475   0.845
85852W        W51112   2.309  38.578   4.087
85853W        W51113  41.419   9.822   4.959
85854W        W51114  33.620   4.273   2.206
85855W        W51115  36.047  18.438   4.157
85856W        W51116  12.056  16.854  11.030
85857W        W51117  19.136  13.081   4.106
85858W        W51118   1.271  44.448   1.361
85859W        W51119  42.575  40.344  13.092
85860W        W51120  30.493  26.110   3.259
85861W        W51121  11.311  37.822  14.520
85862W        W51122  26.216  26.468   3.862
85863W        W51123   1.832   3.488  12.129
85864W        W51124   4.173   3.694  11.562
85865W        W51125  32.421  43.449   3.198
85866W        W51126   2.451  42.433   4.445
85867W        W51127  22.704  32.148   3.478
85868W        W51128  34.929  27.087  13.823
85869W        W51129  28.107  23.308  12.679
85870W        W51130  29.536  38.999   3.401
85871W        W51131  21.188  35.057  12.446
85872W        W51132  23.086  12.144   0.614
85873W        W51133  34.687  43.126   0.193
85874W        W51134   5.781  28.255   1.714
85875W        W51135  33.234  31.830  10.652
85876W        W51136  33.649   5.861  12.811
85877W        W51137  42.789  25.502   1.305
85878W        W51138  15.181   1.954  14.708
85879W        W51139  36.295  25.869   2.709
85880W        W51140  43.521  36.378   1.415
85881W        W51141  22.557   1.506   2.813
85882W        W51142  44.332  28.194  14.937
85883W        W51143   2.500  23.721   1.221
85884W        W51144  22.225  10.277  11.752
85885W        W51145  10.603  23.747   4.197
85886W        W51146  20.253  31.627   3.560
85887W        W51147  26.259   8.269  12.509
85888W        W51148   4.225  38.126   2.821
85889W        W51149   4.858  16.124   4.166
85890W        W51150  24.659   1.008   1.352
85891W        W51151  28.840  31.286   0.974
85892W        W51152  19.262  11.709  11.205
85893W        W51153  34.069  40.393   0.356
85894W        W51154  31.654   4.231   1.370
85895W        W51155  23.023  29.530  12.554
85896W        W51156  37.488  10.746  11.943
85897W        W51157  36.963  31.178  12.325
85898W        W51158   6.969  44.709   2.309
85899W        W51159  35.136  35.942   1.781
85900W        W51160  31.423  28.895   2.056
85901W        W51161  39.600  23.925  13.938
85902W        W51162  10.184  27.563  14.861
85903W        W51163  28.591  41.262   0.517
85904W        W51164  38.725  25.640   0.962
85905W        W51165   2.049  21.286  13.492
85906W        W51166  21.589  33.484   3.774
85907W        W51167   4.716  13.480  12.354
85908W        W51168  35.829   7.146   3.880
85909W        W51169  27.145  23.394  14.877
85910W        W51170  30.189  38.529  13.008
85911W        W51171  10.495  31.207  14.352
85912W        W51172  14.265  15.188  10.527
85913W        W51173   1.800  44.931  11.847
85914W        W51174   2.303  21.612   2.150
85915W        W51175  17.558   2.754  12.600
85916W        W51176  42.662  17.693  14.377
85917W        W51177  18.743  23.785   2.248
85918W        W51178  12.149  17.851   2.251
85919W        W51179   6.912  33.635  11.588
85920W        W51180  21.344  12.969   2.178
85921W        W51181  39.414  44.652  10.440
85922W        W51182   4.251  17.976   0.548
85923W        W51183  15.964   1.714   0.189
85924W        W51184   0.852  27.538   3.084
85925W        W51185  17.142   3.375   0.908
85926W        W51186   4.232  17.261  11.119
85927W        W51187  31.332   3.411  13.518
85928W        W51188  32.935  25.594   1.606
85929W        W51189  26.619   7.891   3.154
85930W        W51190   8.343  30.082   4.739
85931W        W51191  21.394  25.912   4.072
85932W        W51192  15.875  27.509   3.586
85933W        W51193  41.850  22.786  11.553
85934W        W51194  34.678   5.761   4.558
85935W        W51195  13.771  25.871   0.290
85936W        W51196  28.469   1.431  11.161
85937W        W51197  36.335   7.529  14.500
85938W        W51198   6.720  19.106   0.398
85939W        W51199  38.463  13.045   0.985
85940W        W51200   0.851  17.952  13.520
85941W        W51201  43.442  16.135  12.386
85942W        W51202  36.267  25.652  11.194
85943W        W51203  27.269  15.624  13.332
85944W        W51204   1.231  11.766   0.926
85945W        W51205  41.426  42.880  12.945
85946W        W51206  15.142  30.078   0.344
85947W        W51207  11.302  20.521   4.148
85948W        W51208  21.621  44.377   4.212
85949W        W51209   1.836  25.861  13.157
85950W        W51210  40.161  27.584   4.236
85951W        W51211  44.951  37.291   2.674
85952W        W51212   2.198  15.176   0.828
85953W        W51213   5.136  18.780   0.940
85954W        W51214  35.396   3.647  12.778
85955W        W51215   1.726  27.572  12.035
85956W        W51216  12.906  36.542   4.037
85957W        W51217  17.626   4.495   0.505
85958W        W51218  37.971  30.450  13.908
85959W        W51219  17.420  38.890  13.237
85960W        W51220   6.593  31.583   2.761
85961W        W51221  42.457   4.846   4.444
85962W        W51222  33.499  19.598  10.409
85963W        W51223  18.653  16.114   1.906
85964W        W51224   1.831   6.142   3.126
85965W        W51225   2.070  20.023   3.261
85966W        W51226  18.261  21.239  14.326
85967W        W51227  41.913   2.418   0.054
85968W        W51228  37.116  18.633   0.680
85969W        W51229   5.309   8.977   2.423
85970W        W51230  38.905  16.555  13.064
85971W        W51231  33.421  29.279  10.210
85972W        W51232  33.393  44.698   0.794
85973W        W51233  44.364  14.760   1.769
85974W        W51234   4.552  11.911   4.642
85975W        W51235  42.227  25.633  11.588
85976W        W51236  24.668  35.303   2.184
85977W        W51237  16.730   3.885   0.292
85978W        W51238  33.801   9.637  11.656
85979W        W51239  16.643  15.227   4.562
85980W        W51240  14.376  44.242  14.755
85981W        W51241   3.754  34.708  13.916
85982W        W51242  24.156   9.848  11.919
85983W        W51243  29.944   9.926   0.480
85984W        W51244   6.144  37.090  14.952
85985W        W51245  35.053  30.538  13.941
85986W        W51246   4.383   3.843   2.989
85987W        W51247  12.400  13.285  11.940
85988W        W51248  33.642  41.779  14.528
85989W        W51249  29.629  34.267  14.859
85990W        W51250  16.214  35.090  11.690
85991W        W51251   6.387  28.273  12.054
85992W        W51252  44.244  30.453  12.000
85993W        W51253  20.713  27.528   3.658
85994W        W51254  24.410  25.116   2.219
85995W        W51255  30.899  18.373   5.031
85996W        W51256  42.690  15.685   0.720
85997W        W51257  33.698  28.676   4.046
85998W        W51258  29.283   6.116   3.592
85999W        W51259  39.897  42.516  14.527
86000W        W51260   1.397  26.551  12.975
86001W        W51261  37.467  39.881  14.739
86002W        W51262  33.045  34.637   3.770
86003W        W51263   8.703  40.114  11.796
86004W        W51264  25.490  14.245   1.615
86005W        W51265  19.075   9.757   4.705
86006W        W51266  29.994  27.270  11.023
86007W        W51267   5.320   5.635  14.462
86008W        W51268  29.261  42.500  12.604
86009W        W51269  26.040  28.029  12.397
86010W        W51270   2.108  12.385   3.187
86011W        W51271  18.634  19.741  13.314
86012W        W51272  11.015   4.244  10.710
86013W        W51273  18.495  13.747  12.552
86014W        W51274  27.888  42.920   3.374
86015W        W51275   8.814  43.556   4.415
86016W        W51276  12.674  16.137  11.417
86017W        W51277   2.029   5.843  12.482
86018W        W51278  39.844   9.011  12.076
86019W        W51279  41.468  31.476   3.389
86020W        W51280  39.784  24.587   3.652
86021W        W51281  10.259   4.746  10.704
86022W        W51282   8.911  44.866   4.083
86023W        W51283  15.826   0.167  11.150
86024W        W51284   6.342   8.415   1.186
86025W        W51285  20.738  26.396  10.391
86026W        W51286   0.141  39.815  11.150
86027W        W51287  17.363   0.944  11.486
86028W        W51288  11.375   6.784   0.654
86029W        W51289   5.371  20.702  13.202
86030W        W51290  24.958  33.550  11.171
86031W        W51291  39.116  43.720   3.170
86032W        W51292  21.637  27.204   3.587
86033W        W51293  43.788  30.329   4.253
86034W        W51294   7.531  30.682   0.761
86035W        W51295   4.330  28.351  14.005
86036W        W51296   9.409  22.930   1.380
86037W        W51297  39.000  41.888   4.584
86038W        W51298   2.909   3.994  12.599
86039W        W51299  29.929  36.841   0.014
86040W        W51300  27.501  19.319  11.636
86041W        W51301  27.532  18.701   3.739
86042W        W51302   7.861  33.586   5.009
86043W        W51303  13.400  40.281   4.198
86044W        W51304   7.469  41.234   2.927
86045W        W51305  18.357  21.739  12.594
86046W        W51306  32.205  30.527   0.953
86047W        W51307  33.554  13.903   4.776
86048W        W51308  14.596  10.932  13.756
86049W        W51309   1.444  35.524   1.535
86050W        W51310  23.158  38.595   3.438
86051W        W51311   4.285  16.279  13.582
86052W        W51312  37.460  24.789   4.846
86053W        W51313  30.009   6.400   2.166
86054W        W51314  25.044  44.509  12.149
86055W        W51315  41.666  44.484  11.614
86056W        W51316  15.246  19.767  13.259
86057W        W51317  38.516  14.054  11.553
86058W        W51318  10.916  31.501  12.461
86059W        W51319  28.999  42.519  14.413
86060W        W51320   2.748   7.392   0.020
86061W        W51321  23.196   6.176  10.738
86062W        W51322  13.880   6.874   1.773
86063W        W51323   1.543   5.245   1.275
86064W        W51324  18.775   7.788   0.829
86065W        W51325  35.991  24.481   4.667
86066W        W51326  29.149  23.994  14.291
86067W        W51327  33.004  32.150  11.631
86068W        W51328  42.660  31.901   5.080
86069W        W51329  13.712  31.648  10.634
86070W        W51330   8.742   2.977  14.889
86071W        W51331  29.642   1.361   3.738
86072W        W51332  37.441  44.648   4.079
86073W        W51333  41.700   0.799   3.611
86074W        W51334  42.253  13.069  13.174
86075W        W51335  34.194  15.319  14.886
86076W        W51336  21.548  33.437  14.893
86077W        W51337   2.664  30.383  10.526
86078W        W51338  29.070  16.770  11.016
86079W        W51339  32.917  13.808   3.616
86080W        W51340  39.363   4.850  10.588
86081W        W51341  29.404  20.483  12.309
86082W        W51342  10.176  35.025   3.297
86083W        W51343  22.014   4.369   1.808
86084W        W51344  27.016   4.288  14.317
86085W        W51345  24.515  30.594  11.115
86086W        W51346  25.682  41.508  12.509
86087W        W51347  23.052  16.911  11.109
86088W        W51348  17.139  12.570   3.858
86089W        W51349  30.884  27.419  12.911
86090W        W51350  38.100  32.533   3.711
86091W        W51351   6.579   0.439  13.485
86092W        W51352  26.998  32.198   2.860
86093W        W51353  31.527   3.803  11.418
86094W        W51354  17.562  42.791   4.103
86095W        W51355  41.510   4.843   2.215
86096W        W51356  42.504  34.045  11.014
86097W        W51357  38.135  24.040  13.952
86098W        W51358  37.580  43.164   4.101
86099W        W51359  31.225   5.804   2.174
86100W        W51360  29.007  41.414   2.668
86101W        W51361  35.105  22.597  13.918
86102W        W51362  11.381   9.087   1.755
86103W        W51363  29.559  20.110  13.576
86104W        W51364   3.740   5.097   4.230
86105W        W51365  19.795  11.302  13.910
86106W        W51366  36.114  32.380   3.489
86107W        W51367  21.572  24.960   1.296
86108W        W51368  43.539  25.186  11.717
86109W        W51369  39.802  42.853   2.171
86110W        W51370  32.513   6.393  14.460
86111W        W51371  19.092  36.910  13.980
86112W        W51372   2.227   1.465   0.783
86113W        W51373  33.294  20.251   2.796
86114W        W51374  12.805   3.167   3.173
86115W        W51375   6.303  20.503  13.661
86116W        W51376   2.484  29.427  14.926
86117W        W51377   3.814  21.398  12.695
86118W        W51378  16.334  24.313  10.756
86119W        W51379   3.727  30.774  13.042
86120W        W51380  27.131  30.899   2.245
86121W        W51381  10.315  30.727  10.586
86122W        W51382  41.373  12.469   0.321
86123W        W51383   0.443  38.498  14.005
86124W        W51384  37.449   3.792   0.799
86125W        W51385   8.815   0.779  11.446
86126W        W51386  28.030  30.426  12.998
86127W        W51387  25.266   5.893   5.043
86128W        W51388  42.848  29.693  12.367
86129W        W51389   6.234  22.530   2.589
86130W        W51390  19.468  30.183  12.979
86131W        W51391  30.874   6.290   0.837
86132W        W51392  10.584  41.545   4.544
86133W        W51393  36.653   3.943   1.924
86134W        W51394   0.491  19.745  13.665
86135W        W51395  40.400  11.846  10.271
86136W        W51396  23.172   7.005   4.908
86137W        W51397  17.715  24.258   5.021
86138W        W51398   5.261  10.779  13.427
86139W        W51399   2.832   8.468   1.991
86140W        W51400  20.988  19.096  12.304
86141W        W51401  43.345   7.851   1.729
86142W        W51402  18.509  15.979   3.273
86143W        W51403   1.523   2.328  12.952
86144W        W51404  15.239  17.763   0.282
86145W        W51405  22.108  32.274  10.172
86146W        W51406  13.856  26.535  11.049
86147W        W51407  11.070   6.075  10.691
86148W        W51408  25.175  30.933  13.062
86149W        W51409  10.290  35.987  13.599
86150W        W51410  19.270  31.037  11.195
86151W        W51411  35.857  27.046   0.341
86152W        W51412  35.928  23.954  13.970
86153W        W51413   9.296  20.947   1.970
86154W        W51414  43.857  10.113   3.334
86155W        W51415   4.400  38.891   1.342
86156W        W51416  15.849  27.633  11.334
86157W        W51417  19.237  39.887  14.570
86158W        W51418  44.210   6.859  12.504
86159W        W51419  41.798  36.694  12.808
86160W        W51420  11.234  38.162  10.688
86161W        W51421   6.620  35.402  13.786
86162W        W51422  10.011   0.557  14.528
86163W        W51423  34.672  37.527   4.563
86164W        W51424  43.479  12.936  14.433
86165W        W51425  17.219  18.098   3.668
86166W        W51426  24.376  10.822   2.978
86167W        W51427  34.408   3.919  14.444
86168W        W51428  12.133  38.407   1.519
86169W        W51429  34.547   3.472  13.482
86170W        W51430  21.096  15.214   0.367
86171W        W51431   6.189  15.326   0.926
86172W        W51432  32.648  37.316   3.400
86173W        W51433  29.526  25.277   3.665
86174W        W51434   0.505  44.899   4.856
86175W        W51435  11.123  44.292  11.871
86176W        W51436  43.046  11.235  14.985
86177W        W51437   9.372  39.497   3.231
86178W        W51438  25.724   5.630  14.345
86179W        W51439  27.988  37.044   0.718
86180W        W51440  16.651  16.719   4.195
86181W        W51441  32.114  34.513  12.575
86182W        W51442  20.704  28.586   3.667
86183W        W51443  36.762  32.895   2.844
86184W        W51444  33.342   5.937   0.556
86185W        W51445   5.276   6.521  14.254
86186W        W51446  16.824  28.896   3.391
86187W        W51447   6.263  39.327   0.247
86188W        W51448   6.974  30.570  10.996
86189W        W51449  12.788  28.339  12.941
86190W        W51450  33.310  17.599  14.292
86191W        W51451  16.207   2.365  12.118
86192W        W51452  39.447   5.822  11.441
86193W        W51453  38.263  33.537  13.485
86194W        W51454  24.993  23.089   3.116
86195W        W51455  41.313  44.441  11.973
86196W        W51456  39.249  40.772   1.735
86197W        W51457  34.460  42.606  12.440
86198W        W51458  19.700  29.391   0.315
86199W        W51459  41.302  17.372  14.659
86200W        W51460  32.719  27.197   3.116
86201W        W51461  29.970   8.057  11.123
86202W        W51462  39.905  35.709  12.965
86203W        W51463  28.012   0.783   2.116
86204W        W51464  17.586  34.106  12.908
86205W        W51465  24.662  11.289   0.990
86206W        W51466  35.206   2.029  11.438
86207W        W51467  27.693  17.634   2.114
86208W        W51468   3.961  31.089  11.623
86209W        W51469   1.401  12.795  13.134
86210W        W51470  32.998  11.122   4.318
86211W        W51471   7.898   3.823   1.951
86212W        W51472  28.897  19.558   1.283
86213W        W51473  22.526  38.081   1.244
86214W        W51474  37.468   9.397  11.498
86215W        W51475  39.056  17.058   4.538
86216W        W51476   2.610  10.162  10.369
86217W        W51477   9.666  38.507   2.577
86218W        W51478  41.741   4.331   0.757
86219W        W51479  43.288  23.486  14.363
86220W        W51480  38.992   3.302  12.870
86221W        W51481   0.687  26.379  13.559
86222W        W51482  44.906  18.035   3.806
86223W        W51483  29.530   1.783  12.636
86224W        W51484  11.883   8.428  13.835
86225W        W51485   2.960  26.996   1.672
86226W        W51486  31.171  37.004   1.270
86227W        W51487  10.787   4.403  13.694
86228W        W51488  27.115   8.403  10.450
86229W        W51489  23.480   9.728  10.598
86230W        W51490  38.162   3.994   3.822
86231W        W51491   8.441  18.997   0.884
86232W        W51492  29.908  14.159   0.582
86233W        W51493  16.669  32.023  14.834
86234W        W51494  43.395  26.949   2.342
86235W        W51495  41.623  19.434   1.781
86236W        W51496   2.573  35.409  12.853
86237W        W51497  11.217  19.028  11.113
86238W        W51498  29.976   0.938   0.099
86239W        W51499  10.889  34.399  14.334
86240W        W51500  24.008  14.327   2.788
86241W        W51501   8.800  32.772  13.021
86242W        W51502  42.048  22.031   3.819
86243W        W51503  32.994   0.309  13.466
86244W        W51504  28.674  39.533   0.865
86245W        W51505   4.476   4.790  13.953
86246W        W51506  11.378  32.055  11.921
86247W        W51507  25.617  22.702  13.473
86248W        W51508  43.948  25.518  10.590
86249W        W51509  39.648  16.208  14.095
86250W        W51510  11.899   9.728   3.333
86251W        W51511   2.003  27.111  13.516
86252W        W51512  30.626   6.300   2.854
86253W        W51513  19.759  36.979   1.518
86254W        W51514  33.996  41.537   1.717
86255W        W51515  32.194  27.098   0.390
86256W        W51516  18.739  37.563  13.479
86257W        W51517  39.790  12.650   1.868
86258W        W51518  25.153  31.775   4.621
86259W        W51519   6.151  29.747  12.806
86260W        W51520  32.377  25.011  14.640
86261W        W51521  34.455  22.749  14.598
86262W        W51522  38.908  22.723  14.094
86263W        W51523  15.559  44.969  12.553
86264W        W51524  33.573  14.215   4.338
86265W        W51525  23.242  32.769   1.731
86266W        W51526  13.645  44.985   0.824
86267W        W51527  44.914  41.409   0.658
86268W        W51528  16.086  35.692  12.554
86269W        W51529  22.686  41.885   3.054
86270W        W51530   7.375  11.085   4.107
86271W        W51531  31.965  33.675   2.026
86272W        W51532  14.266  34.606   4.100
86273W        W51533   9.209  41.092  14.411
86274W        W51534  27.970  16.276  11.190
86275W        W51535  42.014  15.075   0.931
86276W        W51536  27.495  26.021  13.551
86277W        W51537   3.184  16.376   1.269
86278W        W51538  34.477  42.269   4.116
86279W        W51539  30.126  28.004  11.540
86280W        W51540  10.738  35.764   3.289
86281W        W51541  13.627  26.023  11.720
86282W        W51542  29.501  30.893   3.256
86283W        W51543  20.605  10.790   2.707
86284W        W51544  10.321  20.966   1.742
86285W        W51545  38.050  43.058   3.978
86286W        W51546   7.791  42.463  14.047
86287W        W51547  43.741  35.478  12.032
86288W        W51548  12.307  44.451   2.688
86289W        W51549  14.158  29.553   5.269
86290W        W51550  18.737  15.279   0.156
86291W        W51551   2.495  23.564   4.018
86292W        W51552   4.154  11.907  12.097
86293W        W51553   7.222  16.614  13.075
86294W        W51554  37.632  43.940   1.769
86295W        W51555  43.758  20.590  12.521
86296W        W51556   7.359  42.477  10.581
86297W        W51557  20.176  34.781  11.957
86298W        W51558  15.418   1.412  10.785
86299W        W51559  14.413   1.882  11.093
86300W        W51560  36.456  15.323   4.639
86301W        W51561  28.647   9.320   4.414
86302W        W51562   1.579  30.408   3.673
86303W        W51563  26.392   4.908   4.548
86304W        W51564   4.460  10.437   4.230
86305W        W51565  22.993  17.743  14.497
86306W        W51566   2.663  18.771   1.927
86307W        W51567  33.886  10.159  13.344
86308W        W51568   4.943  31.235  11.958
86309W        W51569  39.686  43.789  10.474
86310W        W51570   9.262  15.324  14.203
86311W        W51571   3.731  39.962   4.959
86312W        W51572  13.734  13.202   2.941
86313W        W51573  25.440  41.876   2.878
86314W        W51574  33.419  44.065   1.855
86315W        W51575  32.851  15.864   3.737
86316W        W51576  18.444   4.112   3.258
86317W        W51577  21.299  22.143  13.543
86318W        W51578  10.835  36.977  11.175
86319W        W51579  30.199  11.361   0.439
86320W        W51580  25.107  28.982  13.983
86321W        W51581  34.943  37.916   1.420
86322W        W51582  26.874  43.118   1.000
86323W        W51583  29.134  44.680   2.286
86324W        W51584  33.562  32.318   0.799
86325W        W51585   2.798  12.328  13.385
86326W        W51586   9.370  43.570   3.771
86327W        W51587  43.975  24.189  11.499
86328W        W51588  17.291  33.977   1.679
86329W        W51589  20.747  37.087   3.749
86330W        W51590   3.901  34.371   0.438
86331W        W51591   9.342  44.885  11.051
86332W        W51592  27.526  31.481  11.659
86333W        W51593  28.172  33.633   4.971
86334W        W51594   8.654  39.781   2.233
86335W        W51595  35.333  16.707  14.850
86336W        W51596  42.473  22.759  12.872
86337W        W51597  38.104  11.845   4.259
86338W        W51598   8.230  31.297   3.494
86339W        W51599  32.213  25.233   3.577
86340W        W51600  30.567  13.284   2.468
86341W        W51601  42.054  34.820  10.838
86342W        W51602   0.768  23.563  10.775
86343W        W51603  22.095  34.472   2.269
86344W        W51604  38.980   5.512   1.362
86345W        W51605  25.006  29.769  13.588
86346W        W51606  43.992  10.164   4.236
86347W        W51607  24.305  25.741   3.908
86348W        W51608  19.817  37.467  14.829
86349W        W51609  13.801  27.534   0.113
86350W        W51610  14.865  42.764   2.773
86351W        W51611   3.974  30.108   4.379
86352W        W51612  40.037  41.251  12.505
86353W        W51613  10.851  34.875   3.057
86354W        W51614  16.718  11.353   0.863
86355W        W51615  30.484   3.800  13.237
86356W        W51616  17.694   8.237  11.939
86357W        W51617  29.394  41.547   4.161
86358W        W51618  11.120  44.985   2.358
86359W        W51619  37.623  13.818   0.456
86360W        W51620  12.673  10.469  13.543
86361W        W51621  34.037  39.520   4.629
86362W        W51622  34.418  19.362  11.611
86363W        W51623  25.150  30.944   4.030
86364W        W51624  34.493  26.774  10.758
86365W        W51625   6.171   3.198  12.415
86366W        W51626  10.769  29.998  13.000
86367W        W51627  27.075  32.117   9.948
86368W        W51628  43.074  17.093  14.774
86369W        W51629  29.673  29.560   3.613
86370W        W51630  44.734  16.158  10.093
86371W        W51631  29.149  22.163  13.393
86372W        W51632  40.880   9.454   0.673
86373W        W51633  36.086  36.499  14.847
86374W        W51634  18.363  15.722  11.575
86375W        W51635  31.065   4.639   0.343
86376W        W51636   5.729  22.642   0.312
86377W        W51637  18.812   9.916  11.198
86378W        W51638   4.409  15.325  12.017
86379W        W51639  43.927  28.491  13.380
86380W        W51640  14.704  43.650  11.034
86381W        W51641  39.102  11.679   4.022
86382W        W51642  26.532  21.315   4.607
86383W        W51643  29.022  24.873   2.063
86384W        W51644  14.180  31.795  13.363
86385W        W51645  28.096  36.778  12.622
86386W        W51646  43.943  31.020  11.407
86387W        W51647  12.710   8.395  12.415
86388W        W51648  15.658  28.748  13.100
86389W        W51649  20.631  25.545  11.576
86390W        W51650  32.537  31.591  10.025
86391W        W51651  42.229  19.967   1.235
86392W        W51652  16.746  10.038   0.311
86393W        W51653  19.752  13.231   1.865
86394W        W51654  12.345  27.834  11.022
86395W        W51655  43.287  11.618  14.735
86396W        W51656  30.570  23.615   0.272
86397W        W51657  29.048   1.752   0.416
86398W        W51658  42.915   8.756  13.761
86399W        W51659  12.750  19.330   1.423
86400W        W51660  24.597   6.333   4.134
86401W        W51661  38.400  44.169   3.288
86402W        W51662  34.906  32.532   1.741
86403W        W51663  25.021  11.873   1.799
86404W        W51664  40.920  20.641   2.718
86405W        W51665  25.112  24.508   1.349
86406W        W51666  19.367  11.282   0.257
86407W        W51667  10.118  43.974   0.388
86408W        W51668  20.682   5.728   2.593
86409W        W51669   3.634  37.048  12.686
86410W        W51670   5.417  37.010   4.386
86411W        W51671  36.831  42.956  10.810
86412W        W51672   7.898   6.547  10.719
86413W        W51673  42.442  16.053  13.952
86414W        W51674  43.512  30.773   2.150
86415W        W51675  24.153  24.898  11.555
86416W        W51676   5.388  12.160   0.432
86417W        W51677  37.819   7.963   4.204
86418W        W51678   5.310  13.793  11.043
86419W        W51679  18.817   0.959   1.827
86420W        W51680  26.065  39.054   1.487
86421W        W51681   9.423   5.253  13.466
86422W        W51682  40.760  41.553   4.881
86423W        W51683   4.789  16.690  13.196
86424W        W51684  27.636  10.370   1.822
86425W        W51685   4.157   8.954   4.057
86426W        W51686  25.300  24.402  10.971
86427W        W51687  38.064  35.545  14.122
86428W        W51688   7.212  27.104   5.654
86429W        W51689  29.609  31.332   4.185
86430W        W51690   0.379   3.204  14.895
86431W        W51691  38.856   7.149   3.658
86432W        W51692  34.312  17.130  14.422
86433W        W51693  17.010  24.694  13.837
86434W        W51694  30.351  36.333   4.415
86435W        W51695  42.509  19.627   0.304
86436W        W51696  29.028  10.316  12.762
86437W        W51697   6.100  24.821  11.923
86438W        W51698  26.456  13.521   4.077
86439W        W51699   6.114   8.925  12.921
86440W        W51700  41.392  32.115   3.724
86441W        W51701  28.386  30.191   0.474
86442W        W51702  23.561  34.842  14.317
86443W        W51703  12.985  30.709  12.701
86444W        W51704  18.302  14.850  13.412
86445W        W51705  31.339  20.531  12.992
86446W        W51706  32.187  22.939  12.446
86447W        W51707  15.107  30.922  12.474
86448W        W51708  28.500  35.304  11.205
86449W        W51709   6.383  15.299  11.587
86450W        W51710  31.982  36.860   2.407
86451W        W51711  23.932  22.761  14.312
86452W        W51712  25.082  17.855  12.010
86453W        W51713  22.255   4.926   0.510
86454W        W51714   0.733  41.938   1.655
86455W        W51715  19.890  28.005  10.255
86456W        W51716  30.586   4.757   3.637
86457W        W51717  22.202  16.680   2.745
86458W        W51718  12.587  36.071   0.369
86459W        W51719  14.733  27.035  13.102
86460W        W51720  19.814   0.692   4.910
86461W        W51721   3.489   2.810  11.916
86462W        W51722  42.449  27.960   4.965
86463W        W51723  19.272  20.277   2.619
86464W        W51724  40.647   2.761  14.873
86465W        W51725  32.452  10.689  14.436
86466W        W51726  44.819  36.548  13.350
86467W        W51727  37.041  44.360   0.001
86468W        W51728   3.911  25.562   1.390
86469W        W51729  11.283  34.381   3.603
86470W        W51730   1.951  36.889  12.069
86471W        W51731  19.572  42.094  13.345
86472W        W51732   5.967  17.162  11.297
86473W        W51733  41.814  14.977  10.276
86474W        W51734   4.121  15.489   1.593
86475W        W51735  40.995   1.384   1.958
86476W        W51736   3.956  32.901  14.576
86477W        W51737   3.024   1.921  14.892
86478W        W51738  30.970  13.258   2.843
86479W        W51739  24.227   8.458   4.107
86480W        W51740  39.548   0.802   4.945
86481W        W51741  17.385  20.219  11.662
86482W        W51742   8.262  41.486   4.118
86483W        W51743  41.305  28.424  14.223
86484W        W51744  10.324  40.581  12.360
86485W        W51745   1.026  16.360   2.096
86486W        W51746  23.756  29.074  12.422
86487W        W51747  20.986  39.275   0.822
86488W        W51748  18.515  12.800  13.538
86489W        W51749   2.502  34.857  12.875
86490W        W51750  37.421  29.711   4.119
86491W        W51751  20.303  30.378   0.203
86492W        W51752   4.937   9.665   2.839
86493W        W51753   2.758  33.677   1.002
86494W        W51754   6.702   9.790  11.526
86495W        W51755  28.102  11.997  10.872
86496W        W51756  17.142  21.613   1.708
86497W        W51757   7.297  23.255   2.791
86498W        W51758  44.720  44.525  12.487
86499W        W51759  39.269  44.277  13.184
86500W        W51760  19.789  11.648  12.082
86501W        W51761   7.249  10.774  11.880
86502W        W51762  43.386   2.580   0.841
86503W        W51763  35.948  10.169   0.271
86504W        W51764  29.001  32.310   0.912
86505W        W51765  17.784  35.563   1.122
86506W        W51766  41.750   9.222   0.325
86507W        W51767  39.457   2.445   2.182
86508W        W51768  35.341  15.328  11.645
86509W        W51769  11.026   4.358  11.561
86510W        W51770  32.153  25.598   3.949
86511W        W51771  35.847  29.264  14.931
86512W        W51772  34.085   9.651   2.308
86513W        W51773  36.804  25.589   3.451
86514W        W51774  23.380   3.570   0.473
86515W        W51775  35.711  43.489  14.330
86516W        W51776  41.078  35.327   4.044
86517W        W51777   9.404  38.999   2.328
86518W        W51778  17.720  22.662  11.270
86519W        W51779  21.760   2.348  12.082
86520W        W51780  20.700   4.524   4.969
86521W        W51781  42.805  21.068   4.109
86522W        W51782  30.149  40.256   3.778
86523W        W51783  11.780   1.029  13.432
86524W        W51784  26.136   8.032  14.265
86525W        W51785  38.801  32.852   9.986
86526W        W51786  28.198  36.472  13.534
86527W        W51787   9.592  13.242  13.051
86528W        W51788   3.435  43.499  14.492
86529W        W51789  29.734   3.455   2.195
86530W        W51790  15.474  20.155   9.611
86531W        W51791  18.165  23.899  11.197
86532W        W51792   9.493  21.357   1.734
86533W        W51793  11.826  15.793   0.320
86534W        W51794   4.934   0.796   0.269
86535W        W51795  44.075  14.346   1.761
86536W        W51796   7.276   7.109   3.207
86537W        W51797  23.712   8.985   1.842
86538W        W51798  40.935  15.715   0.846
86539W        W51799  24.523  28.041  11.471
86540W        W51800  19.233   7.767  12.797
86541W        W51801  16.347  28.010   4.204
86542W        W51802  22.238  10.451  12.240
86543W        W51803   3.278  33.346  14.925
86544W        W51804  21.881  43.287  12.122
86545W        W51805  14.250  20.807  13.482
86546W        W51806   4.660  15.779   3.329
86547W        W51807   2.511  31.141  14.494
86548W        W51808  44.349   7.593   4.523
86549W        W51809  14.812  13.513  13.442
86550W        W51810  37.490  31.147   4.618
86551W        W51811  16.185   9.356  13.366
86552W        W51812  40.959  30.024   2.274
86553W        W51813  10.854  34.622   1.680
86554W        W51814   2.098   3.881   3.733
86555W        W51815   2.154   4.267  12.985
86556W        W51816  24.344  15.806  12.412
86557W        W51817   5.339  32.425  10.469
86558W        W51818  27.246  34.334  13.903
86559W        W51819  36.741   3.968  11.106
86560W        W51820  25.751  33.270  12.516
86561W        W51821  20.137  26.665  12.752
86562W        W51822  43.424  21.490  13.628
86563W        W51823   9.307  32.539   1.938
86564W        W51824   3.872  21.327  13.210
86565W        W51825  11.875  41.328   4.099
86566W        W51826  16.030  17.552  14.069
86567W        W51827  24.143  14.882  11.905
86568W        W51828  10.220  31.155   0.558
86569W        W51829   2.809  12.312   1.308
86570W        W51830  34.635  35.812  12.982
86571W        W51831  41.771  33.179   0.318
86572W        W51832  25.457  39.943  13.534
86573W        W51833  39.293  17.304   1.517
86574W        W51834   8.702   9.309  12.642
86575W        W51835  25.129   9.947   1.852
86576W        W51836  24.374  40.989   1.881
86577W        W51837  32.084  32.370  10.734
86578W        W51838   1.199  32.155  10.105
86579W        W51839  28.139   6.713  11.918
86580W        W51840   8.354   7.266  10.845
86581W        W51841  16.019  17.722  11.644
86582W        W51842  10.790   5.157   4.470
86583W        W51843   7.975  21.796   2.713
86584W        W51844  40.685  26.670   2.963
86585W        W51845  41.265   7.881  13.005
86586W        W51846  19.286  39.058   0.782
86587W        W51847  29.105  10.239   1.483
86588W        W51848  30.574  12.424  11.080
86589W        W51849   4.166  11.410  11.557
86590W        W51850   0.722   2.335  14.208
86591W        W51851  14.830  35.676  13.341
86592W        W51852  36.159  38.645   1.709
86593W        W51853   7.758  21.744  12.630
86594W        W51854   8.903  15.725   4.551
86595W        W51855   2.529  20.122   0.012
86596W        W51856  36.113   2.659  14.832
86597W        W51857  14.180  40.318  12.057
86598W        W51858  22.021  40.107   2.817
86599W        W51859  33.121  34.365  10.579
86600W        W51860  12.181  16.829   0.791
86601W        W51861  26.479  26.043  11.780
86602W        W51862  19.547  10.343   3.810
86603W        W51863  28.179  19.709  11.860
86604W        W51864   6.501  35.422  13.290
86605W        W51865  42.504  34.501   4.661
86606W        W51866  16.663  38.089  14.949
86607W        W51867   8.385  40.850   1.717
86608W        W51868  12.964  19.807   1.413
86609W        W51869  44.560  36.347  10.672
86610W        W51870  20.400  10.516  10.103
86611W        W51871   0.974   3.906   3.982
86612W        W51872  39.670  30.523   2.213
86613W        W51873  24.263  32.977  11.190
86614W        W51874  33.486  29.009  12.638
86615W        W51875   0.694  36.218  12.380
86616W        W51876   4.820  34.909   2.257
86617W        W51877  18.451  44.497   3.151
86618W        W51878  21.159   3.921  12.080
86619W        W51879  21.939   4.222  13.035
86620W        W51880   1.267  24.290   0.221
86621W        W51881  32.486   3.418  10.870
86622W        W51882  34.564   1.303   1.344
86623W        W51883  31.900  37.566  12.527
86624W        W51884  32.529   7.173   0.842
86625W        W51885   2.807   5.867  14.920
86626W        W51886   9.612   3.343   2.800
86627W        W51887  38.975  23.158  12.814
86628W        W51888  30.646  25.460  12.966
86629W        W51889  19.889  22.159   1.381
86630W        W51890  23.684  22.525  12.910
86631W        W51891  31.898  16.191   4.235
86632W        W51892  33.832  20.142  12.168
86633W        W51893  18.805   1.420   0.992
86634W        W51894  39.689  39.104   2.798
86635W        W51895  19.312  10.398  14.849
86636W        W51896  36.422  39.758  14.950
86637W        W51897  44.359  12.722  10.268
86638W        W51898  42.411  35.875  14.805
86639W        W51899  37.881  40.564  13.469
86640W        W51900  32.581  44.779  14.293
86641W        W51901  20.222   5.686  11.632
86642W        W51902  23.561  43.930  11.404
86643W        W51903  28.549   9.249   1.592
86644W        W51904   4.221  18.125   4.255
86645W        W51905   9.538  29.478  13.852
86646W        W51906  44.218  38.139   4.998
86647W        W51907  14.225  22.487   3.684
86648W        W51908   0.498  26.613  13.978
86649W        W51909  27.984   1.103   4.328
86650W        W51910   8.282  31.008   4.414
86651W        W51911  14.378  22.945  13.053
86652W        W51912  33.452  19.743   2.783
86653W        W51913  23.596  29.410   0.472
86654W        W51914  44.763  40.403   2.871
86655W        W51915  31.039  19.251   3.240
86656W        W51916  31.576  12.116  10.568
86657W        W51917  32.094   7.420  11.239
86658W        W51918  23.195  34.517  14.071
86659W        W51919  10.659  13.444  11.129
86660W        W51920   8.304  30.959   4.962
86661W        W51921  40.393  44.969   5.152
86662W        W51922  29.853  41.208  12.647
86663W        W51923  16.726  27.448  14.600
86664W        W51924  26.097  42.609   3.748
86665W        W51925  12.422   6.105  10.502
86666W        W51926   2.842   3.444  11.495
86667W        W51927   9.499  22.312   1.667
86668W        W51928   4.494  20.563   1.280
86669W        W51929  35.885  29.472  10.906
86670W        W51930  13.197  24.422  12.063
86671W        W51931  11.768  39.449   1.360
86672W        W51932   5.393  37.662  14.213
86673W        W51933  18.607  42.515  13.853
86674W        W51934  24.195  25.014   1.734
86675W        W51935  18.325  16.199  13.155
86676W        W51936  22.905  35.044   4.952
86677W        W51937   4.049  39.493   1.922
86678W        W51938  31.908   4.171  10.526
86679W        W51939  29.582  11.623  14.869
86680W        W51940  33.677   6.119   2.219
86681W        W51941  10.608  37.389  10.983
86682W        W51942  13.745   7.665   0.399
86683W        W51943  23.972  39.379  12.378
86684W        W51944  27.252   8.306   1.003
86685W        W51945  16.607  41.024  10.647
86686W        W51946   9.312  38.868  10.324
86687W        W51947   4.316   1.620   1.081
86688W        W51948   2.512  43.823  11.483
86689W        W51949  39.107  28.086  14.176
86690W        W51950  33.341   9.182  12.925
86691W        W51951  36.797  22.150   4.786
86692W        W51952  40.964   2.938   3.096
86693W        W51953   1.967  19.072  11.631
86694W        W51954  34.588   3.891  14.946
86695W        W51955  25.065  43.447   4.296
86696W        W51956  28.075  30.397   2.277
86697W        W51957  33.763   0.582  14.566
86698W        W51958  40.739  33.944  14.115
86699W        W51959  25.594   2.464   2.304
86700W        W51960  44.285   4.668   2.804
86701W        W51961  39.287  36.791   3.311
86702W        W51962  25.010  37.640  12.414
86703W        W51963  12.269  30.429   2.087
86704W        W51964  33.332   2.189  10.161
86705W        W51965  13.246  19.675  11.600
86706W        W51966   7.570  17.036  14.816
86707W        W51967  29.252   5.393  11.236
86708W        W51968   3.186  34.009  10.508
86709W        W51969  14.753   9.201  13.744
86710W        W51970  21.181  14.143  13.366
86711W        W51971  35.846  17.350  12.554
86712W        W51972   0.567  12.239  11.756
86713W        W51973  44.457  23.330   0.339
86714W        W51974  38.572  32.481  14.527
86715W        W51975  30.982   5.596   0.219
86716W        W51976  24.491   5.650   2.701
86717W        W51977   6.313  22.096  11.669
86718W        W51978   5.935   8.474   4.062
86719W        W51979  40.383  21.015  10.493
86720W        W51980  34.096  29.338  11.575
86721W        W51981  37.293   3.853  10.791
86722W        W51982  25.018   5.653  13.874
86723W        W51983  29.552  29.534   1.054
86724W        W51984  31.900  30.568   3.277
86725W        W51985  14.674   0.786   2.439
86726W        W51986  17.286  10.470   0.041
86727W        W51987  35.864  42.250   0.425
86728W        W51988   1.676  26.704  13.396
86729W        W51989  16.512   0.759   2.183
86730W        W51990   4.937  11.328  14.001
86731W        W51991   1.260  22.977   5.136
86732W        W51992  42.998  28.587  12.055
86733W        W51993  44.931   5.193  14.419
86734W        W51994  22.453  16.712   4.993
86735W        W51995  29.170  36.028   5.122
86736W        W51996  29.953  27.707  11.936
86737W        W51997  39.619  43.943   5.205
86738W        W51998  19.907  44.228   4.040
86739W        W51999  18.618  24.171   3.061
86740W        W52000  42.858   8.395   3.661
86741W        W52001   1.356  44.551  14.021
86742W        W52002  26.611  29.905  11.690
86743W        W52003  42.466  13.275   2.822
86744W        W52004  31.990  24.545   0.274
86745W        W52005  11.413  22.308  10.701
86746W        W52006   0.400  38.728  12.419
86747W        W52007  38.523  36.490  10.668
86748W        W52008  29.697   9.324  13.442
86749W        W52009  16.713  26.792   2.593
86750W        W52010  21.601  28.679   1.152
86751W        W52011   1.477  25.250   1.403
86752W        W52012   5.385  16.829  12.341
86753W        W52013   4.359  32.908   1.656
86754W        W52014  44.798  41.085   0.264
86755W        W52015  30.446  42.078   1.972
86756W        W52016  41.235  33.972   4.564
86757W        W52017   7.939  19.609  14.557
86758W        W52018   6.171   7.693   3.183
86759W        W52019   3.640  16.570   4.011
86760W        W52020  26.350   5.497  13.413
86761W        W52021  28.512  36.995   4.577
86762W        W52022  25.866   2.663   0.964
86763W        W52023  24.712  13.003   3.518
86764W        W52024   2.331  14.834  12.007
86765W        W52025  38.470  21.187   1.011
86766W        W52026  39.114  31.408   0.793
86767W        W52027  42.632   1.309   1.928
86768W        W52028  22.714   7.276  12.200
86769W        W52029  36.777  31.696  13.087
86770W        W52030  16.801  42.043   2.875
86771W        W52031  40.632  23.701   1.366
86772W        W52032  25.518  16.373   4.568
86773W        W52033  30.532  37.455   0.555
86774W        W52034  24.365  32.884   4.924
86775W        W52035   4.244   2.166  11.235
86776W        W52036   9.408  24.216  11.438
86777W        W52037  18.388   8.945   2.912
86778W        W52038  41.388   3.057   4.738
86779W        W52039  42.494  20.186   2.085
86780W        W52040   8.117   6.521  13.070
86781W        W52041  33.937   0.876   3.222
86782W        W52042  15.524  24.597  14.371
86783W        W52043  15.822   3.237   1.342
86784W        W52044  41.740  27.289  13.855
86785W        W52045  36.588  39.939  11.657
86786W        W52046  43.998  11.193   3.188
86787W        W52047  43.307  11.340   0.427
86788W        W52048  28.457  42.248   2.811
86789W        W52049  13.202  34.531   0.409
86790W        W52050  43.947  25.569  14.768
86791W        W52051   4.188   8.722  12.883
86792W        W52052  13.557  44.363  14.412
86793W        W52053   3.226   6.360  14.509
86794W        W52054  37.391  13.708   0.915
86795W        W52055   3.233  37.292  14.845
86796W        W52056  24.478  11.087  12.221
86797W        W52057   8.692  40.330   1.438
86798W        W52058   5.154  30.773  12.296
86799W        W52059  35.425  20.452  10.693
86800W        W52060  19.780  28.409  14.691
86801W        W52061   9.389   0.786   1.809
86802W        W52062   6.809  39.732   3.447
86803W        W52063  17.996  29.185  11.398
86804W        W52064   1.176  36.481  13.010
86805W        W52065  21.142  21.430   1.605
86806W        W52066  16.751  39.324   3.114
86807W        W52067  14.022  32.755   4.843
86808W        W52068  39.502   3.690  10.884
86809W        W52069  43.018  30.939   2.267
86810W        W52070  29.142  17.141   1.207
86811W        W52071  20.246   2.397   3.643
86812W        W52072  19.057  18.284  14.295
86813W        W52073  41.296  14.379   1.368
86814W        W52074  40.966  32.583  14.892
86815W        W52075  36.030  22.492   2.704
86816W        W52076   7.089   9.169   0.345
86817W        W52077  29.691  33.476  12.745
86818W        W52078  10.375  31.430   2.630
86819W        W52079  23.108  29.551   4.443
86820W        W52080  18.237  12.212   3.823
86821W        W52081   6.773   1.741   1.276
86822W        W52082  17.716  34.654   0.203
86823W        W52083  33.978  43.328   0.812
86824W        W52084   6.934  19.377  14.963
86825W        W52085   0.960  36.072  13.669
86826W        W52086  10.739  41.022  13.514
86827W        W52087  12.563  22.499   2.556
86828W        W52088  32.929  26.152  11.684
86829W        W52089  41.065  19.938  12.377
86830W        W52090  26.024  27.837  10.774
86831W        W52091   2.021  25.659   2.820
86832W        W52092   1.031  33.757   4.537
86833W        W52093  26.586   2.794  13.514
86834W        W52094  25.046  25.742  13.905
86835W        W52095  18.884  26.756   1.122
86836W        W52096   3.346  24.686  12.368
86837W        W52097   8.770  13.149   2.334
86838W        W52098   3.425   1.250  13.762
86839W        W52099  43.777  28.434   3.234
86840W        W52100  13.421  38.399   0.748
86841W        W52101  30.115  33.033   3.021
86842W        W52102  38.786  20.060   1.315
86843W        W52103   0.100  27.069   3.190
86844W        W52104  10.703   3.480  10.655
86845W        W52105  20.157  14.822  12.720
86846W        W52106  34.957  27.259  11.559
86847W        W52107   7.366  38.378   3.350
86848W        W52108  38.364  11.020  10.867
86849W        W52109  40.550  27.925  14.380
86850W        W52110  25.236  20.724   1.269
86851W        W52111   8.491  35.255   1.589
86852W        W52112  41.558  42.463  14.742
86853W        W52113  28.988  41.282  13.806
86854W        W52114  15.266   6.873  10.535
86855W        W52115  11.404   5.928   3.166
86856W        W52116   3.772  13.992   0.417
86857W        W52117  44.298   7.678   5.010
86858W        W52118  31.475  39.405   4.689
86859W        W52119  30.436  13.670   0.690
86860W        W52120  10.678  15.877   2.782
86861W        W52121   7.225  41.246  14.741
86862W        W52122  19.105  24.974  14.393
86863W        W52123  27.689  24.456  13.464
86864W        W52124  31.883  40.010   2.573
86865W        W52125   1.973  42.993  13.949
86866W        W52126  44.947  12.591  11.312
86867W        W52127  11.667  38.973  14.341
86868W        W52128  19.512  11.163  12.606
86869W        W52129  39.331  15.633   1.679
86870W        W52130  23.949  42.788   0.368
86871W        W52131  38.876  33.495   3.401
86872W        W52132  37.841   2.782  12.731
86873W        W52133  17.549   4.354   3.616
86874W        W52134  18.308  24.088  12.022
86875W        W52135   5.906  21.288   0.195
86876W        W52136  20.533   3.333  13.025
86877W        W52137  37.375   5.442  10.496
86878W        W52138  24.509  13.073  14.000
86879W        W52139  40.332  14.748   1.418
86880W        W52140  38.992  41.578   2.421
86881W        W52141   5.077  19.338  13.022
86882W        W52142  24.136  33.289   2.349
86883W        W52143  23.629   2.381  13.539
86884W        W52144  26.730  39.998   2.304
86885W        W52145  13.496  10.995   2.748
86886W        W52146  12.747  15.263   0.397
86887W        W52147  17.318   2.073   0.203
86888W        W52148   7.412  29.024   2.721
86889W        W52149  11.779  36.020   4.627
86890W        W52150   5.612  44.363  12.321
86891W        W52151  22.676  42.821  14.243
86892W        W52152   5.299  40.809  11.469
86893W        W52153   3.864  39.632  11.143
86894W        W52154  39.441   1.796   0.820
86895W        W52155  16.070  17.236  11.852
86896W        W52156  19.015   5.639   4.589
86897W        W52157  20.510   5.737   0.766
86898W        W52158  25.151  20.213   1.204
86899W        W52159  17.346  27.001  12.012
86900W        W52160  30.578  35.836  13.461
86901W        W52161  33.840  38.079  13.590
86902W        W52162  43.484  41.243  13.397
86903W        W52163  40.788  25.047   1.287
86904W        W52164  23.056  17.127   3.777
86905W        W52165  10.264  26.595  12.690
86906W        W52166  42.092  18.511  14.769
86907W        W52167   8.624   2.208  14.473
86908W        W52168  27.943  41.949  13.900
86909W        W52169  33.570  24.589  13.924
86910W        W52170  30.169  44.599  12.309
86911W        W52171  43.317  35.328  14.387
86912W        W52172  20.289   2.043   2.825
86913W        W52173  39.928   8.647   2.694
86914W        W52174   1.968  30.356  12.642
86915W        W52175   1.285  34.618   4.645
86916W        W52176  15.023   6.403   1.367
86917W        W52177  16.055   3.240  12.499
86918W        W52178  17.221  28.049   0.090
86919W        W52179   6.284   1.925  14.516
86920W        W52180  33.449  29.513  14.821
86921W        W52181  23.209  17.496  14.045
86922W        W52182  22.098  33.618   2.912
86923W        W52183   3.996  39.941  14.676
86924W        W52184  19.003  42.464  10.871
86925W        W52185  29.885   7.750  13.962
86926W        W52186  29.074  20.951  11.537
86927W        W52187  31.584   7.641   0.964
86928W        W52188  41.506  16.654  12.894
86929W        W52189  26.599  38.728  11.917
86930W        W52190  13.579  24.910   1.452
86931W        W52191  36.791  42.539  10.510
86932W        W52192   8.147  43.014  11.322
86933W        W52193  17.710   0.865  13.365
86934W        W52194  10.001  18.136  14.938
86935W        W52195  34.600   0.611  13.833
86936W        W52196  24.253  22.952  13.525
86937W        W52197  39.988  18.097  12.940
86938W        W52198  29.486   5.250   2.317
86939W        W52199   5.265  31.072   0.920
86940W        W52200   6.218  39.248  12.357
86941W        W52201  14.935  21.491   4.595
86942W        W52202  15.400  17.248   0.980
86943W        W52203  34.859  11.223   4.047
86944W        W52204  23.522  27.053   3.640
86945W        W52205  38.329  24.962   2.683
86946W        W52206  29.610  28.515   3.892
86947W        W52207  12.288  42.148  12.555
86948W        W52208  34.533  24.276  13.311
86949W        W52209   6.790  33.359   4.626
86950W        W52210   0.802  12.825   4.212
86951W        W52211  43.965  15.601  12.892
86952W        W52212  26.675  44.739  10.686
86953W        W52213  39.050  34.119  14.915
86954W        W52214  19.599  40.820  14.914
86955W        W52215   2.024  29.630  11.880
86956W        W52216  42.968  28.622   2.752
86957W        W52217  35.022  41.224   2.376
86958W        W52218   1.201  17.383  11.760
86959W        W52219  29.878   0.869  14.610
86960W        W52220  20.540  25.682   1.715
86961W        W52221  37.729   4.424  10.275
86962W        W52222  30.899  19.134  14.062
86963W        W52223  20.733  35.381  13.374
86964W        W52224   8.146  21.271   2.693
86965W        W52225   8.106  39.058  12.456
86966W        W52226  20.141  37.287  12.468
86967W        W52227  11.089  15.349   1.517
86968W        W52228  27.591   1.432   2.292
86969W        W52229   7.697  18.781  13.883
86970W        W52230  16.655   0.681  14.264
86971W        W52231  17.270  39.501   4.548
86972W        W52232   2.174   9.413  13.182
86973W        W52233  43.946  41.614  14.544
86974W        W52234   6.998  35.063   1.666
86975W        W52235  16.611   3.690   1.829
86976W        W52236  30.846   3.262  13.421
86977W        W52237  21.157  16.793  14.286
86978W        W52238   3.876  44.051   2.358
86979W        W52239  25.777  13.494  11.107
86980W        W52240  34.982  39.033  11.580
86981W        W52241  26.632  15.551   1.789
86982W        W52242  36.403   4.798  11.237
86983W        W52243   4.111  38.800   0.470
86984W        W52244  28.030  28.102   4.543
86985W        W52245   9.206  21.652  10.535
86986W        W52246  12.685  42.043   2.698
86987W        W52247  32.394  27.574   0.282
86988W        W52248  30.880  29.974  12.593
86989W        W52249  28.082  20.228   2.339
86990W        W52250  40.007   2.848  11.046
86991W        W52251  35.874  30.691  11.277
86992W        W52252  25.825  38.487   2.533
86993W        W52253  31.686   2.448  12.674
86994W        W52254  22.024  41.148   2.162
86995W        W52255  22.226   5.288  12.607
86996W        W52256  15.691  15.278   1.162
86997W        W52257  35.438   1.512  13.185
86998W        W52258  42.313  38.427   3.416
86999W        W52259  21.218  43.914   2.711
87000W        W52260   7.274   6.254  12.900
87001W        W52261  24.714  23.138  10.693
87002W        W52262   1.859  15.211  13.964
87003W        W52263   1.445   1.171   0.958
87004W        W52264   2.139  34.182  14.437
87005W        W52265  15.123  21.776   1.786
87006W        W52266  34.066  18.078  12.020
87007W        W52267  13.501  24.472   1.730
87008W        W52268   3.931  38.074   3.919
87009W        W52269   3.828  35.402  13.366
87010W        W52270   6.655   4.857   0.350
87011W        W52271  26.260   8.181  14.882
87012W        W52272  16.280  34.873  12.857
87013W        W52273  11.161  32.178  11.456
87014W        W52274   2.733   9.927   4.073
87015W        W52275  39.275  44.875   0.929
87016W        W52276   0.293  22.788   0.350
87017W        W52277   5.421  36.779  13.835
87018W        W52278  14.375  24.314  11.605
87019W        W52279  12.325  29.355  11.425
87020W        W52280   4.808  19.823  11.586
87021W        W52281  38.441  19.784  13.022
87022W        W52282  44.255  40.312   2.783
87023W        W52283   6.526   0.297   2.019
87024W        W52284   2.426  23.792  12.129
87025W        W52285   0.926  25.382   1.383
87026W        W52286  43.926  26.958   0.135
87027W        W52287  22.028  39.378  11.726
87028W        W52288   5.542  22.767  14.841
87029W        W52289  17.815  37.036   1.854
87030W        W52290  10.386  30.183  10.962
87031W        W52291   9.645   0.288  11.192
87032W        W52292   5.904   4.511  13.860
87033W        W52293  37.318  11.645  12.904
87034W        W52294  26.923  32.041  13.061
87035W        W52295  31.623  22.723  14.556
87036W        W52296  37.661  20.280   1.904
87037W        W52297  35.455  32.232   1.775
87038W        W52298   8.229  11.595   0.354
87039W        W52299  27.712  10.244   4.610
87040W        W52300  12.146   1.101   4.639
87041W        W52301  30.739  38.043  11.647
87042W        W52302  31.432  27.762   3.152
87043W        W52303  24.538  11.736   2.860
87044W        W52304  30.259  30.082   1.606
87045W        W52305   1.285  43.961  12.251
87046W        W52306   5.550  41.328   0.297
87047W        W52307  23.914  14.354  13.956
87048W        W52308   0.407  26.128   0.238
87049W        W52309  41.320  29.083  10.482
87050W        W52310   8.816  27.989   3.981
87051W        W52311   4.341  29.929   2.246
87052W        W52312  34.182  29.123  13.178
87053W        W52313  11.663  29.083   2.417
87054W        W52314  42.301  33.119   2.527
87055W        W52315  38.598  11.818   4.083
87056W        W52316   0.327  10.725   4.287
87057W        W52317  18.839  21.525   4.261
87058W        W52318   3.209  13.310  13.490
87059W        W52319   0.851  22.201   4.544
87060W        W52320  31.023  34.355  14.251
87061W        W52321  10.666  11.139   1.821
87062W        W52322  39.260   1.437  14.879
87063W        W52323  28.542  33.470   0.847
87064W        W52324  35.948  33.896   3.234
87065W        W52325   7.151   7.412  14.858
87066W        W52326   2.469  17.380   3.086
87067W        W52327  22.129  41.755   3.795
87068W        W52328  36.563  43.055  13.910
87069W        W52329  40.540  19.011  12.988
87070W        W52330  38.882  41.900  13.538
87071W        W52331  15.723  40.822   3.087
87072W        W52332  26.386  35.812   3.068
87073W        W52333  32.452  31.577   0.469
87074W        W52334  36.069   8.577   0.336
87075W        W52335   0.417  28.040  13.835
87076W        W52336  23.108  13.288  10.753
87077W        W52337  33.202  25.552   3.012
87078W        W52338  32.495   6.286  12.613
87079W        W52339  12.953  28.119  10.256
87080W        W52340   1.059  12.658  10.336
87081W        W52341  14.800   6.479  11.129
87082W        W52342  42.313  25.058  14.986
87083W        W52343  37.536   2.709   4.788
87084W        W52344  40.436  15.182   2.716
87085W        W52345  43.250  19.046  11.450
87086W        W52346  12.356  33.454  13.332
87087W        W52347  18.253  27.057  11.935
87088W        W52348  30.327  12.574  12.276
87089W        W52349   9.643  12.276  13.793
87090W        W52350  28.383  44.710  12.611
87091W        W52351  20.275  22.719  10.846
87092W        W52352   6.988  18.352  14.994
87093W        W52353  43.348  32.596  13.889
87094W        W52354  27.566  14.071  11.163
87095W        W52355  15.427  39.352   4.582
87096W        W52356   0.078   3.266   0.352
87097W        W52357   4.420  13.841  12.105
87098W        W52358  35.908  43.766  13.925
87099W        W52359  18.065  43.661  12.323
87100W        W52360   5.840  42.073  12.004
87101W        W52361   3.139  40.344   4.069
87102W        W52362  39.338  32.143  11.114
87103W        W52363  40.911  42.215   3.157
87104W        W52364  12.120  20.009   0.734
87105W        W52365   2.873  39.479   3.560
87106W        W52366  10.345  35.167   4.498
87107W        W52367  33.218  13.247   4.373
87108W        W52368  19.643   7.256   0.931
87109W        W52369   3.662  11.463  11.531
87110W        W52370  28.683  27.022  14.981
87111W        W52371  32.579  12.899  11.145
87112W        W52372  18.611   1.408   0.492
87113W        W52373  19.339   4.655  14.887
87114W        W52374  18.646  14.068  10.893
87115W        W52375  43.062  22.719  10.649
87116W        W52376  25.238   7.787   0.726
87117W        W52377   1.331  40.600  10.837
87118W        W52378  28.595   9.348   4.954
87119W        W52379   7.194  35.678  14.367
87120W        W52380  37.542  21.231  10.605
87121W        W52381   4.434  10.916   2.253
87122W        W52382   5.812  28.067   0.439
87123W        W52383   0.527  14.268   1.779
87124W        W52384  42.262   8.606   4.164
87125W        W52385  24.042  30.611  13.407
87126W        W52386  15.489  42.006   1.014
87127W        W52387  39.832   8.180   0.732
87128W        W52388  34.678   2.698   2.792
87129W        W52389  14.092  20.597   1.702
87130W        W52390  20.104  22.560   2.884
87131W        W52391  27.537   4.849   1.743
87132W        W52392   4.627  39.490   0.041
87133W        W52393  34.834  18.229   0.480
87134W        W52394  19.760  28.057   4.577
87135W        W52395  22.724  16.308  12.606
87136W        W52396  36.592   2.293   0.032
87137W        W52397  31.778  24.354  12.937
87138W        W52398  31.351   9.049   2.222
87139W        W52399  42.321   4.949  11.458
87140W        W52400  40.809  42.034   0.895
87141W        W52401  28.693   9.216  14.789
87142W        W52402  42.946  28.090  11.885
87143W        W52403  38.467   0.178   2.842
87144W        W52404   5.745  20.505   2.787
87145W        W52405  41.377  24.752  13.458
87146W        W52406  15.309  26.409  12.547
87147W        W52407  44.183   0.501  11.709
87148W        W52408  37.984  26.023   4.858
87149W        W52409  10.685  29.430  10.503
87150W        W52410   3.966  41.886  10.700
87151W        W52411  20.600  21.694   4.523
87152W        W52412  10.737   3.312   0.294
87153W        W52413  10.338  38.609  12.837
87154W        W52414   2.617  24.032  14.766
87155W        W52415   9.317   0.205   1.886
87156W        W52416  23.019  20.201   2.217
87157W        W52417  13.308  11.948   2.275
87158W        W52418  35.649  32.486  10.751
87159W        W52419  11.457  21.349  13.922
87160W        W52420  32.134  11.810   9.917
87161W        W52421  16.241  32.040  12.796
87162W        W52422  27.466  10.696   4.569
87163W        W52423  26.610  11.745   4.544
87164W        W52424   1.377  42.684   4.155
87165W        W52425  42.834  14.862  10.699
87166W        W52426  43.467   1.207  10.390
87167W        W52427  24.679  44.463   3.945
87168W        W52428  31.626  23.479  11.009
87169W        W52429  26.761  29.422  11.900
87170W        W52430  12.438  15.092  14.580
87171W        W52431   3.819  13.760   0.964
87172W        W52432  44.489   5.355  14.612
87173W        W52433  31.207  17.622   2.796
87174W        W52434  15.852  43.936   2.722
87175W        W52435   7.444  13.212   1.821
87176W        W52436   9.632  10.155   0.189
87177W        W52437  42.245   6.701   0.880
87178W        W52438  17.781  30.514   4.144
87179W        W52439  13.900   7.979   2.394
87180W        W52440  39.818  32.432  13.995
87181W        W52441  10.688  19.171  10.381
87182W        W52442  17.162   3.861   3.009
87183W        W52443  22.218  19.449  12.213
87184W        W52444  24.267   5.905  14.266
87185W        W52445  32.971   8.761  10.915
87186W        W52446  22.584  33.498   4.055
87187W        W52447   2.869  12.615   2.319
87188W        W52448  22.206  23.128  12.523
87189W        W52449  25.724   7.585   0.513
87190W        W52450  11.307  17.320   1.018
87191W        W52451  17.026   1.383   3.674
87192W        W52452   2.303  33.551   3.929
87193W        W52453  21.738   7.102  12.063
87194W        W52454  23.924  27.385   4.161
87195W        W52455  21.624   3.411  11.921
87196W        W52456  17.432  38.319  14.067
87197W        W52457  34.067  26.059  13.544
87198W        W52458  18.081  40.943  14.880
87199W        W52459  11.933   7.275   1.721
87200W        W52460  43.364  10.861   2.758
87201W        W52461  42.395  37.125  12.593
87202W        W52462  26.152   5.180   0.532
87203W        W52463  39.371  39.863   0.783
87204W        W52464  13.879  14.447   3.182
87205W        W52465  42.062  25.618   4.157
87206W        W52466  42.185  10.439   0.293
87207W        W52467  22.767   4.962   2.226
87208W        W52468   5.540  39.371  13.984
87209W        W52469  12.054   3.423  14.287
87210W        W52470   5.569  13.481   1.218
87211W        W52471  44.452  43.014   4.718
87212W        W52472  29.377  16.933   3.701
87213W        W52473   2.891  10.725   3.779
87214W        W52474  43.338  23.269  12.928
87215W        W52475  35.588  16.321   3.457
87216W        W52476  24.481   5.399   0.301
87217W        W52477  18.139  11.707  10.722
87218W        W52478   4.375   7.686  11.519
87219W        W52479   3.052   9.450   5.036
87220W        W52480   4.136  11.640  14.367
87221W        W52481  31.951   0.446  14.138
87222W        W52482  14.270   7.853   1.754
87223W        W52483  40.325  37.773   2.921
87224W        W52484   6.894   1.650   0.789
87225W        W52485  41.024  13.251   0.355
87226W        W52486  16.114  30.978   2.272
87227W        W52487   8.677   5.187  12.038
87228W        W52488  34.131  26.472   3.056
87229W        W52489  17.477  18.486  11.967
87230W        W52490  14.318  39.339   1.839
87231W        W52491  33.231  15.617   4.006
87232W        W52492  24.653  43.377   3.452
87233W        W52493   1.513  11.399   4.573
87234W        W52494  40.947  17.444   1.302
87235W        W52495   4.362  25.328  11.452
87236W        W52496  12.432  16.975   1.408
87237W        W52497   7.362  43.814   0.909
87238W        W52498  21.622  19.505  10.630
87239W        W52499   6.287  32.346  10.669
87240W        W52500  30.036   7.365   0.274
87241W        W52501  17.490   2.152   4.162
87242W        W52502  23.139  13.732   0.275
87243W        W52503  10.781  31.604   3.653
87244W        W52504   9.903  12.264  12.091
87245W        W52505  40.824  27.671  11.103
87246W        W52506  27.908  43.673   2.726
87247W        W52507  21.512  14.791   4.521
87248W        W52508  18.728   6.650   3.697
87249W        W52509  40.860  20.845  10.615
87250W        W52510  30.168  40.502   3.273
87251W        W52511  27.423  32.747  14.297
87252W        W52512   5.378  42.542   2.927
87253W        W52513   8.348  44.966  14.910
87254W        W52514   2.235  39.480  14.546
87255W        W52515  44.798  11.823  13.346
87256W        W52516   1.788   5.991  13.780
87257W        W52517  43.288  33.136   2.852
87258W        W52518  36.321  31.949   2.755
87259W        W52519   4.357  22.997  13.973
87260W        W52520  13.610  42.345  13.653
87261W        W52521  22.693  27.700   0.277
87262W        W52522  41.030   8.824   4.587
87263W        W52523  34.352   3.305  14.796
87264W        W52524  16.226  11.128   4.385
87265W        W52525  37.926  10.317  14.932
87266W        W52526   6.141  37.733  13.500
87267W        W52527  23.596  32.079   3.608
87268W        W52528  10.037  20.059  13.445
87269W        W52529  29.518  14.026   4.141
87270W        W52530   4.120  16.042   1.689
87271W        W52531   5.360   4.517   1.599
87272W        W52532   7.892   9.463  11.099
87273W        W52533  20.051  43.858   2.308
87274W        W52534   4.406  25.750   1.260
87275W        W52535   8.047  23.491   4.483
87276W        W52536   0.220  10.542   1.316
87277W        W52537  33.168  37.736   3.773
87278W        W52538  43.695  29.867  12.437
87279W        W52539  25.556  40.547   4.531
87280W        W52540   9.227  17.338   3.649
87281W        W52541  19.928  16.842  11.109
87282W        W52542   1.707  30.002   2.191
87283W        W52543  13.874   2.703  12.201
87284W        W52544  36.536  22.197  10.761
87285W        W52545  21.058  19.926   0.425
87286W        W52546  29.715  38.904   1.208
87287W        W52547  10.921  24.510   0.951
87288W        W52548   9.164   3.466  14.400
87289W        W52549  22.095   6.962   2.895
87290W        W52550   2.444   0.828   3.619
87291W        W52551  24.973   6.250   2.333
87292W        W52552  37.930   1.936   9.806
87293W        W52553   2.029  13.936   3.725
87294W        W52554  34.001   1.213  10.675
87295W        W52555   1.177  42.481  12.555
87296W        W52556   3.604  27.694  14.834
87297W        W52557   9.613  44.253   0.879
87298W        W52558  16.508  21.267  14.103
87299W        W52559  15.499   3.321  10.003
87300W        W52560  10.778  42.130   1.337
87301W        W52561  32.418  22.734   4.810
87302W        W52562   8.160   3.471   2.289
87303W        W52563   9.116  41.919  11.172
87304W        W52564   4.761   7.637  12.082
87305W        W52565  19.280  14.622   3.137
87306W        W52566  25.036   0.899  10.883
87307W        W52567   4.887  18.747   0.462
87308W        W52568   5.742   6.630  11.611
87309W        W52569   4.946  35.987  14.439
87310W        W52570   6.390  24.592  12.392
87311W        W52571  29.040  28.577  14.413
87312W        W52572  21.357   0.351  13.737
87313W        W52573  43.564  22.505  11.463
87314W        W52574  34.976  31.979   4.471
87315W        W52575  17.756  30.383  11.668
87316W        W52576  44.842  41.862   2.117
87317W        W52577  10.307  15.554   1.318
87318W        W52578   8.892   5.454   2.814
87319W        W52579  11.937   3.646  10.225
87320W        W52580  35.506   2.441  14.172
87321W        W52581  33.525  26.023   1.875
87322W        W52582  13.769  31.500  11.216
87323W        W52583  11.564  36.170   0.319
87324W        W52584  16.818   5.912  12.021
87325W        W52585  30.549   3.752   2.373
87326W        W52586  11.966  14.028  10.758
87327W        W52587  22.535  17.212   4.818
87328W        W52588  21.136   7.809  13.992
87329W        W52589  20.802  16.098   1.820
87330W        W52590  37.913   2.908   5.723
87331W        W52591  15.521  16.159   3.647
87332W        W52592  12.076  18.135   4.147
87333W        W52593  28.275  26.302   4.869
87334W        W52594   0.567  33.477  13.051
87335W        W52595  16.894   9.367   4.124
87336W        W52596   3.171  31.929   4.093
87337W        W52597  39.446  43.289   3.197
87338W        W52598  25.007  37.966  14.085
87339W        W52599  24.792  42.943   4.889
87340W        W52600  14.163  35.161  10.771
87341W        W52601   7.716  24.963  13.705
87342W        W52602   6.893  41.138   4.761
87343W        W52603  19.236   3.309  11.147
87344W        W52604  30.887  39.946   0.298
87345W        W52605  34.976   0.279  13.954
87346W        W52606  11.088  37.098  14.772
87347W        W52607  27.978  16.769   0.890
87348W        W52608  14.559   4.236   1.369
87349W        W52609  25.841  17.176  13.549
87350W        W52610  16.252   3.848   3.242
87351W        W52611  37.433  36.376  14.898
87352W        W52612  24.955  40.110   3.374
87353W        W52613  21.219  24.072  12.350
87354W        W52614  19.197  14.609  12.556
87355W        W52615  28.127  23.307   4.122
87356W        W52616  19.026  17.677   0.940
87357W        W52617   1.247  33.979   0.935
87358W        W52618  38.910   3.034   0.007
87359W        W52619  15.041  31.876   3.996
87360W        W52620  22.658  37.001   1.392
87361W        W52621  18.986  37.096   3.282
87362W        W52622  29.580  11.539  13.275
87363W        W52623  40.159  20.457  14.559
87364W        W52624  23.606  21.634   3.556
87365W        W52625  38.891  21.820   3.203
87366W        W52626  19.156  24.102   2.220
87367W        W52627  34.630   1.046   3.628
87368W        W52628  44.765   3.845  11.159
87369W        W52629   9.953  37.450  13.028
87370W        W52630  24.060   9.362  13.309
87371W        W52631  11.281  44.523  12.448
87372W        W52632  43.335  10.909   9.840
87373W        W52633  31.961  25.627  14.867
87374W        W52634  23.639  14.085  13.594
87375W        W52635  14.733  34.755  11.797
87376W        W52636  20.869  21.768   4.077
87377W        W52637  40.607  38.392  13.545
87378W        W52638   8.990  24.259  11.843
87379W        W52639  41.793  41.070  11.943
87380W        W52640  16.528   8.802  10.657
87381W        W52641  39.955   0.949  12.555
87382W        W52642   3.265  12.380   3.587
87383W        W52643  31.411   7.817   3.153
87384W        W52644  11.315  41.963  10.818
87385W        W52645  40.436  36.859  10.589
87386W        W52646  37.972  20.503   2.677
87387W        W52647  44.249  12.095  12.214
87388W        W52648  24.808  32.149  10.690
87389W        W52649   0.843  14.259  13.442
87390W        W52650  13.836   7.765   2.919
87391W        W52651  21.558  19.529   4.595
87392W        W52652  15.319  31.914  12.341
87393W        W52653  31.050  16.531  11.915
87394W        W52654   5.727   7.398  14.044
87395W        W52655  15.369  20.213  14.922
87396W        W52656  25.657  32.273   1.628
87397W        W52657  43.023   6.962  11.679
87398W        W52658  19.320  24.111   0.724
87399W        W52659   9.324  17.237  13.661
87400W        W52660  25.927  43.858  13.959
87401W        W52661  23.803  20.006  12.454
87402W        W52662  12.693  28.295  11.061
87403W        W52663   8.912   0.057   3.598
87404W        W52664  28.033  11.131  13.740
87405W        W52665  35.299  28.463  11.133
87406W        W52666  22.573  41.574  12.638
87407W        W52667  40.488  10.361   0.910
87408W        W52668  13.928   6.771   3.130
87409W        W52669  36.098   7.762  12.878
87410W        W52670  39.797  36.805  11.880
87411W        W52671   7.820   9.764  11.503
87412W        W52672   7.447  24.074   3.187
87413W        W52673   8.329  20.124   4.430
87414W        W52674  13.693   3.407  13.460
87415W        W52675  44.670  18.537   1.919
87416W        W52676  15.760  13.841   4.663
87417W        W52677  11.988  43.423   2.370
87418W        W52678  15.177  15.457  14.827
87419W        W52679  29.719  13.265  14.600
87420W        W52680  21.831  43.006   3.356
87421W        W52681  27.005   7.143   4.053
87422W        W52682  20.294  37.457   0.072
87423W        W52683  36.601  40.966  12.551
87424W        W52684  36.132  26.424   1.700
87425W        W52685  32.239  14.638  11.175
87426W        W52686  43.230  26.241   2.776
87427W        W52687  39.883  12.612   0.773
87428W        W52688  29.576  10.108  14.669
87429W        W52689  10.967  40.900  11.601
87430W        W52690  13.292   3.699  14.789
87431W        W52691   6.082  34.338  12.414
87432W        W52692  31.098  38.699   9.926
87433W        W52693  17.150   5.682   0.446
87434W        W52694   8.691  34.752  11.973
87435W        W52695   0.033   9.725   4.622
87436W        W52696  25.447  34.525  10.684
87437W        W52697   9.515  39.550   2.293
87438W        W52698  11.276  33.483   0.736
87439W        W52699  35.902   9.713   4.752
87440W        W52700  14.831  43.524  13.479
87441W        W52701  19.001  26.210   2.763
87442W        W52702  28.522  31.540   3.738
87443W        W52703   3.076  13.364  11.816
87444W        W52704  17.588  19.032   1.635
87445W        W52705   2.801   7.166   1.505
87446W        W52706  33.358  39.807   2.723
87447W        W52707  29.976  29.865   4.126
87448W        W52708  38.765  44.823   0.783
87449W        W52709  31.346  19.819  12.845
87450W        W52710  18.675  17.052  10.612
87451W        W52711  11.671  10.627  12.133
87452W        W52712  26.977   6.210  12.962
87453W        W52713  32.040  29.570   1.191
87454W        W52714  27.081   5.802   4.074
87455W        W52715  26.032  31.184   1.156
87456W        W52716   0.319  12.848  13.071
87457W        W52717   7.733  37.577  14.342
87458W        W52718  44.504  21.177  14.339
87459W        W52719  35.779   3.743   4.001
87460W        W52720  31.981  17.598   4.668
87461W        W52721  16.259  20.331   1.688
87462W        W52722  22.143  40.732   4.563
87463W        W52723  40.801   3.103  11.753
87464W        W52724   0.249   0.100  14.023
87465W        W52725  38.422  12.898  14.032
87466W        W52726  29.035  13.127  12.822
87467W        W52727  18.188   7.152   1.208
87468W        W52728  28.451  17.951  14.316
87469W        W52729  15.400  32.621   3.199
87470W        W52730  33.374  17.737  10.986
87471W        W52731  17.073  31.922  11.774
87472W        W52732   1.226  22.765   3.282
87473W        W52733  17.189  29.629   0.209
87474W        W52734  22.677  25.630   0.453
87475W        W52735   9.644  22.101  11.176
87476W        W52736  43.954  20.770  11.495
87477W        W52737  39.511   5.338  13.654
87478W        W52738  42.276  16.600   3.182
87479W        W52739  17.256  23.996  11.069
87480W        W52740  20.859  21.513  11.063
87481W        W52741  15.216  19.298  10.557
87482W        W52742   2.739  12.174   2.142
87483W        W52743  31.505  12.853   0.390
87484W        W52744  15.168   4.230   0.878
87485W        W52745   2.978  18.574   4.800
87486W        W52746  13.624   2.384   0.118
87487W        W52747   9.181  27.754  14.570
87488W        W52748  29.509  32.960   2.734
87489W        W52749  12.858  20.484  11.389
87490W        W52750  43.534  19.965  14.610
87491W        W52751  31.519  36.831  14.900
87492W        W52752   1.400  16.569  12.008
87493W        W52753  10.751  41.595   1.304
87494W        W52754  25.234  43.127  12.931
87495W        W52755  20.809  12.294   2.283
87496W        W52756  20.481  16.356  11.742
87497W        W52757  30.398  24.868  12.110
87498W        W52758   5.661  25.543  11.337
87499W        W52759  29.116   7.451   4.070
87500W        W52760  22.095  42.347   4.206
87501W        W52761  25.633   3.718   3.690
87502W        W52762   9.259  34.025  14.515
87503W        W52763  23.732  25.773   3.424
87504W        W52764   9.925  32.105  13.506
87505W        W52765  11.677  16.127  12.384
87506W        W52766  13.643   6.379   3.280
87507W        W52767  23.125   3.854   1.239
87508W        W52768   1.457  21.018   1.762
87509W        W52769   3.026   5.246  13.038
87510W        W52770  24.338   6.834   0.766
87511W        W52771  14.823  18.173   0.778
87512W        W52772   8.231   5.989  12.000
87513W        W52773   9.912   0.428  10.746
87514W        W52774  28.074  12.510  10.755
87515W        W52775   4.010  22.460   2.183
87516W        W52776  41.795   2.015  14.729
87517W        W52777   2.138  36.505   3.714
87518W        W52778   4.267  36.330  10.712
87519W        W52779  41.767  40.842  12.869
87520W        W52780   4.795   1.695  14.778
87521W        W52781  15.048  31.089   0.299
87522W        W52782  33.309  19.519   1.269
87523W        W52783  30.211  31.137  14.905
87524W        W52784  41.973  28.011  13.117
87525W        W52785  34.344  10.437  10.753
87526W        W52786  37.446  38.378   2.423
87527W        W52787  41.927   9.230   3.169
87528W        W52788  39.887  37.109   1.363
87529W        W52789  42.079   8.831   2.322
87530W        W52790  44.588   5.055   9.906
87531W        W52791  27.560  13.228   4.677
87532W        W52792  42.918  15.715   1.176
87533W        W52793  18.351  40.492  14.989
87534W        W52794  10.775  35.022  12.510
87535W        W52795  38.251  29.394   0.284
87536W        W52796  39.398   6.621  10.854
87537W        W52797  21.547  15.943   9.877
87538W        W52798  38.538  13.213   4.490
87539W        W52799  44.840  19.451  11.042
87540W        W52800  39.873   6.805  12.677
87541W        W52801  35.253  12.691  12.935
87542W        W52802  37.024  14.603   4.668
87543W        W52803  21.700  19.770  10.194
87544W        W52804  20.996   9.155   3.682
87545W        W52805  29.957  42.264   2.120
87546W        W52806  44.047  19.062   3.676
87547W        W52807  22.467  10.857  10.709
87548W        W52808  21.934   8.200  13.971
87549W        W52809  31.980  14.554  12.129
87550W        W52810   6.794  27.550   2.804
87551W        W52811   6.934   4.744   1.838
87552W        W52812  23.736  42.381   1.748
87553W        W52813   2.918  30.946   0.417
87554W        W52814  30.593  32.365   1.359
87555W        W52815   7.113  43.821   1.875
87556W        W52816  31.294  35.974  10.348
87557W        W52817  40.127   0.402  11.209
87558W        W52818  11.670  26.486   2.963
87559W        W52819  15.874   9.323  13.804
87560W        W52820  25.057  42.087   3.265
87561W        W52821  30.020  27.846  12.414
87562W        W52822  32.023   2.661  11.918
87563W        W52823   7.307  37.369  12.206
87564W        W52824  10.817  26.706   3.050
87565W        W52825   8.823  39.964   0.472
87566W        W52826  17.670  34.318   4.246
87567W        W52827  26.546  44.547   4.056
87568W        W52828  20.473  20.222  11.675
87569W        W52829  31.861   4.859  14.510
87570W        W52830   6.215  20.318   3.771
87571W        W52831  27.470  29.791  11.911
87572W        W52832  29.976  28.806  11.183
87573W        W52833  34.841   1.556   2.320
87574W        W52834   1.530  17.512   0.407
87575W        W52835  34.190  30.774   1.783
87576W        W52836   4.376  33.458  13.905
87577W        W52837   2.257  44.037  11.051
87578W        W52838  19.791  30.448   2.554
87579W        W52839   6.976   7.501  11.270
87580W        W52840   5.821  41.597   0.708
87581W        W52841  33.313  30.610  10.106
87582W        W52842  13.234   5.126   0.903
87583W        W52843  41.831  14.595   1.010
87584W        W52844  18.699  28.489   0.302
87585W        W52845  30.858   9.876   2.645
87586W        W52846  18.160  20.848   4.500
87587W        W52847   7.773   0.459   1.003
87588W        W52848   4.969  29.586  13.480
87589W        W52849  37.606  24.415   0.373
87590W        W52850  11.308  11.071   3.588
87591W        W52851  20.025  12.284   2.947
87592W        W52852  16.288  30.822  13.467
87593W        W52853   1.265  16.240   3.358
87594W        W52854  32.558  27.201   4.076
87595W        W52855  12.262  35.831   1.873
87596W        W52856  10.198  14.220   1.835
87597W        W52857  22.118  14.306  14.676
87598W        W52858  11.496  20.944   2.341
87599W        W52859   1.746   1.318  12.901
87600W        W52860   5.009   1.969  11.170
87601W        W52861  40.477   4.455   0.372
87602W        W52862   7.922  35.555   0.752
87603W        W52863   6.263  11.195  10.892
87604W        W52864  19.731  31.757   3.717
87605W        W52865  20.168  31.482  14.383
87606W        W52866   7.489  12.350  13.176
87607W        W52867   3.207  29.075   1.413
87608W        W52868   8.277  16.700  13.888
87609W        W52869  16.953  18.447  11.983
87610W        W52870  23.671  39.814  12.910
87611W        W52871  34.075   8.147  13.612
87612W        W52872   7.013  29.039  13.875
87613W        W52873  29.555  33.466   3.551
87614W        W52874  37.998  35.941  13.786
87615W        W52875  30.679  28.163  12.435
87616W        W52876  37.365  14.672   3.109
87617W        W52877  28.834  17.753  13.416
87618W        W52878   5.405  43.780  10.778
87619W        W52879  34.083   8.632  13.851
87620W        W52880  12.869  19.775   0.231
87621W        W52881   4.318  13.204   4.394
87622W        W52882  20.544  25.457  13.955
87623W        W52883  22.750   2.549   9.827
87624W        W52884  28.183  43.483   0.864
87625W        W52885  40.769  42.757  13.363
87626W        W52886  27.074  31.471   4.602
87627W        W52887  31.899  38.037   4.105
87628W        W52888  15.655  40.797   0.431
87629W        W52889   1.219  36.417   0.045
87630W        W52890   4.010  15.829  12.887
87631W        W52891  35.958  37.828  13.802
87632W        W52892  34.386  27.944  14.390
87633W        W52893  27.307  11.021  13.481
87634W        W52894  11.130  38.816  14.467
87635W        W52895  36.437  43.862   4.796
87636W        W52896  41.358  15.020  10.823
87637W        W52897  21.016  25.248   1.999
87638W        W52898  13.310   5.213   4.077
87639W        W52899  16.282  34.519  14.446
87640W        W52900   4.797   8.960   5.046
87641W        W52901  29.910  16.190   1.755
87642W        W52902  14.657  19.607   9.800
87643W        W52903   8.176  36.397   0.418
87644W        W52904   1.720   0.961  10.533
87645W        W52905   4.370  25.665  13.500
87646W        W52906  44.350  24.646  11.595
87647W        W52907  40.847  35.581  12.720
87648W        W52908  40.375  30.822  10.229
87649W        W52909  16.167  25.101   2.661
87650W        W52910  26.261  36.826   2.638
87651W        W52911  31.585  42.496  10.927
87652W        W52912  29.529  20.582  13.848
87653W        W52913  28.732   9.245  13.444
87654W        W52914  13.262  20.643  11.093
87655W        W52915  17.218  25.478  12.134
87656W        W52916  43.550  17.581  14.839
87657W        W52917   6.948  36.578  13.392
87658W        W52918  11.889  39.574   2.376
87659W        W52919  34.338   7.837   0.939
87660W        W52920  29.438  10.359  11.858
87661W        W52921  31.788  21.540   4.841
87662W        W52922  24.210  29.314   1.719
87663W        W52923  23.760  10.838  11.078
87664W        W52924  30.573  13.181   0.829
87665W        W52925   3.449   6.150   0.835
87666W        W52926  19.157   6.402  11.084
87667W        W52927  15.738  27.654   2.629
87668W        W52928   4.363  23.430  14.378
87669W        W52929  20.163  39.315   4.197
87670W        W52930  24.071  35.437  13.496
87671W        W52931  35.693   7.612  14.435
87672W        W52932  29.201   4.751  10.188
87673W        W52933  41.965   5.875   0.968
87674W        W52934   1.973  11.423   5.581
87675W        W52935  10.908   1.588   2.337
87676W        W52936  31.034  44.285   3.618
87677W        W52937   2.892  40.440   3.621
87678W        W52938  19.990  43.107  14.021
87679W        W52939  23.017  26.386  10.720
87680W        W52940  14.325  14.424  11.220
87681W        W52941  26.976   9.376   0.542
87682W        W52942  26.565  41.515  12.444
87683W        W52943  11.507   9.246   0.864
87684W        W52944  43.930   7.574  10.550
87685W        W52945  12.513  11.639  11.144
87686W        W52946  33.258  27.439   3.640
87687W        W52947  22.141  27.391  14.113
87688W        W52948  11.879  16.267   1.774
87689W        W52949  31.731  44.521  10.812
87690W        W52950  39.117  40.256  12.028
87691W        W52951   4.393  36.592   4.864
87692W        W52952   6.215  15.847   1.700
87693W        W52953   5.806  34.946  14.300
87694W        W52954  17.114   2.069   1.153
87695W        W52955  37.295  34.452  13.948
87696W        W52956  40.983   5.943  10.725
87697W        W52957  32.132  11.849   4.152
87698W        W52958  13.874  34.932  14.467
87699W        W52959   9.047   6.178   3.225
87700W        W52960  12.008   5.092   0.043
87701W        W52961   7.552  31.926  14.112
87702W        W52962  35.354   9.485   0.994
87703W        W52963  41.851  40.007   2.618
87704W        W52964  20.215  42.116   3.213
87705W        W52965  30.978  37.606  11.619
87706W        W52966  36.026  13.591   1.223
87707W        W52967  16.873  15.509  14.338
87708W        W52968  33.909  36.458  11.971
87709W        W52969  19.044  15.640  13.598
87710W        W52970  12.759  26.342   9.851
87711W        W52971  34.439  11.873   3.700
87712W        W52972  20.230   1.481   0.470
87713W        W52973  17.218  36.319  11.978
87714W        W52974  39.113   4.665  11.072
87715W        W52975  23.692   9.174   3.703
87716W        W52976  40.346  39.117   0.434
87717W        W52977   8.016  24.633  13.962
87718W        W52978  42.323  14.161  12.198
87719W        W52979  21.679  34.932  11.514
87720W        W52980   1.467  43.301   0.954
87721W        W52981   7.471  31.877  11.975
87722W        W52982  13.773  11.281  13.507
87723W        W52983  20.541  21.308  11.430
87724W        W52984   7.395  25.946   3.154
87725W        W52985  32.178  39.991   1.310
87726W        W52986   1.127  39.201   4.168
87727W        W52987   3.456   0.141  10.413
87728W        W52988   1.269  13.855   2.727
87729W        W52989  36.258  16.771  13.632
87730W        W52990  17.195   1.446  13.334
87731W        W52991  30.189  14.091  11.154
87732W        W52992  15.204  35.902   3.804
87733W        W52993  22.553  20.481   0.950
87734W        W52994  21.920   2.502   4.045
87735W        W52995  27.174  36.539  13.499
87736W        W52996  28.620   3.013   2.593
87737W        W52997   1.772   0.761  12.656
87738W        W52998  11.145  21.019   3.281
87739W        W52999  21.208   5.847  13.379
87740W        W53000  34.519  22.241  10.679
87741W        W53001  37.379  22.752   3.082
87742W        W53002  44.558  24.644   1.841
87743W        W53003  30.489  22.424   1.777
87744W        W53004  27.258  38.328  11.424
87745W        W53005  19.264  43.760   0.851
87746W        W53006  26.141  15.534  11.778
87747W        W53007  44.927   3.242  12.430
87748W        W53008  33.972  14.333   1.647
87749W        W53009   0.561  35.555   4.197
87750W        W53010  25.031   5.361   0.244
87751W        W53011   0.329  30.820  12.965
87752W        W53012  22.523  11.602   2.268
87753W        W53013  23.669   6.372   4.468
87754W        W53014  23.967  14.398  12.021
87755W        W53015  13.251  28.575  12.432
87756W        W53016  36.968  20.134   2.532
87757W        W53017  28.590   3.726  12.620
87758W        W53018  16.325  39.496   1.910
87759W        W53019  24.696  31.434   3.379
87760W        W53020   0.849   8.245   4.920
87761W        W53021  36.372  12.812  12.305
87762W        W53022   6.074   4.804   2.037
87763W        W53023   7.416  10.717  12.812
87764W        W53024  41.731   4.960   1.711
87765W        W53025  18.921  26.789   3.200
87766W        W53026  16.247  38.983   1.107
87767W        W53027   8.827  28.439   3.205
87768W        W53028  34.375   2.951  13.403
87769W        W53029   7.661  25.429   1.512
87770W        W53030  31.236   7.226  12.412
87771W        W53031  31.897  40.955   1.170
87772W        W53032  17.799   3.697   2.140
87773W        W53033   3.261  22.678  13.777
87774W        W53034  44.129  42.294  10.685
87775W        W53035  38.759  37.818  11.467
87776W        W53036  20.112  30.079  14.838
87777W        W53037   7.881  27.738   0.914
87778W        W53038   4.645  44.418   4.081
87779W        W53039  17.616  18.687  14.024
87780W        W53040  27.254  44.458  12.792
87781W        W53041  19.277  24.274   1.696
87782W        W53042  32.070  44.890  13.415
87783W        W53043  14.651  29.413  11.901
87784W        W53044  26.495   2.420   3.114
87785W        W53045   6.965  25.958  11.138
87786W        W53046  16.389  15.955  11.896
87787W        W53047  18.297  16.482   0.685
87788W        W53048  42.293  44.508  10.265
87789W        W53049   2.045  17.496   0.374
87790W        W53050  42.933  42.746  13.006
87791W        W53051  21.058  24.135  14.612
87792W        W53052  22.957   8.955   4.642
87793W        W53053  28.269  10.419   1.411
87794W        W53054  24.949  33.140   3.523
87795W        W53055   3.376  39.779   4.633
87796W        W53056  16.988   5.671   3.713
87797W        W53057  20.045   9.362   1.450
87798W        W53058  36.500  44.209  10.744
87799W        W53059  20.627  14.943  11.832
87800W        W53060  20.778   2.882  14.521
87801W        W53061  21.158  32.154   2.785
87802W        W53062  28.033   6.876  10.517
87803W        W53063  11.516  17.320   4.184
87804W        W53064  42.580  13.736  12.479
87805W        W53065  21.625  40.969   3.844
87806W        W53066  40.747  11.322   0.290
87807W        W53067  28.124   0.804  13.737
87808W        W53068   0.987  11.148   4.461
87809W        W53069  16.128  28.984  11.140
87810W        W53070  41.623  38.917   0.701
87811W        W53071  18.195  22.616  12.968
87812W        W53072  19.294  15.036   4.440
87813W        W53073  32.948  24.184   2.133
87814W        W53074  14.202   3.350   2.091
87815W        W53075  30.681  14.641   3.893
87816W        W53076  18.559  32.145   4.577
87817W        W53077  42.077  25.905  12.020
87818W        W53078  35.324  32.586  11.137
87819W        W53079  24.094  33.639  11.532
87820W        W53080  13.058  10.864  11.786
87821W        W53081   1.184  28.357   1.311
87822W        W53082   5.428  43.824   3.274
87823W        W53083   7.080  22.481  11.179
87824W        W53084  22.051   9.095   1.047
87825W        W53085  30.253  38.546   2.442
87826W        W53086   5.337   9.301  12.396
87827W        W53087   6.193  23.056   3.851
87828W        W53088  27.995  42.726   2.813
87829W        W53089  36.673  37.458   2.290
87830W        W53090  36.516  19.184  14.922
87831W        W53091  10.855  31.774  11.464
87832W        W53092  30.500  11.426   4.650
87833W        W53093  32.318  42.000   5.025
87834W        W53094   1.964   0.457   0.419
87835W        W53095  16.085   1.542   5.105
87836W        W53096  34.037  30.621   3.291
87837W        W53097  20.887  25.231   3.599
87838W        W53098  25.444  21.319   1.192
87839W        W53099  32.385  16.221  13.376
87840W        W53100  32.626   4.662  13.353
87841W        W53101  37.006  15.697  10.815
87842W        W53102  26.494  24.525   0.214
87843W        W53103   6.726  37.866  11.643
87844W        W53104  31.078  19.590  14.382
87845W        W53105  34.951  31.165   1.357
87846W        W53106  10.287  43.471   0.279
87847W        W53107  37.421   7.841   4.896
87848W        W53108  32.463  26.890  14.990
87849W        W53109  32.992   8.649  13.405
87850W        W53110  42.927  38.893  14.249
87851W        W53111  44.466   9.654   0.545
87852W        W53112  29.011  18.342  10.763
87853W        W53113  29.852  15.123  12.364
87854W        W53114   9.660  23.855  12.601
87855W        W53115  35.148  39.852   0.895
87856W        W53116  38.038   3.012  13.601
87857W        W53117  16.187  38.955   1.626
87858W        W53118  10.945   8.888   3.571
87859W        W53119   7.184   8.920   2.617
87860W        W53120  34.156  37.916   3.575
87861W        W53121  17.173  39.424   1.349
87862W        W53122  44.193  38.356  10.581
87863W        W53123  24.688   5.672  11.991
87864W        W53124  22.611  20.388  11.086
87865W        W53125  32.667  23.806   1.765
87866W        W53126  13.531  35.015   1.994
87867W        W53127   0.483   7.730   1.469
87868W        W53128  38.430   2.826   4.655
87869W        W53129  42.747  31.164   4.636
87870W        W53130  13.772   8.143   0.190
87871W        W53131  24.405  20.843   0.201
87872W        W53132  30.992  24.798  10.396
87873W        W53133   1.890  19.965   0.349
87874W        W53134  10.663  38.928  12.053
87875W        W53135  31.519  31.482  10.472
87876W        W53136  15.525  13.193  12.042
87877W        W53137  34.121  17.528   1.026
87878W        W53138  21.546  19.114   0.356
87879W        W53139  12.195  31.631   0.003
87880W        W53140  37.767   9.284  14.068
87881W        W53141  21.296  35.427  13.985
87882W        W53142  39.198  29.288  13.429
87883W        W53143  29.636  31.976  11.425
87884W        W53144   6.277   9.870  14.900
87885W        W53145  43.348   4.308   2.165
87886W        W53146  39.822  23.724   4.673
87887W        W53147   1.552  24.789  14.574
87888W        W53148  24.509  23.943  13.774
87889W        W53149  32.234  18.572   3.110
87890W        W53150  20.221  44.232   1.681
87891W        W53151  20.128  31.204   2.245
87892W        W53152  35.452  36.027   1.363
87893W        W53153  29.927  16.910  10.938
87894W        W53154  15.745  41.488  10.568
87895W        W53155  34.208  37.502   4.329
87896W        W53156   4.728   0.286  12.812
87897W        W53157  15.235  39.568   2.358
87898W        W53158  14.429   0.104  13.903
87899W        W53159  38.175  43.416  11.117
87900W        W53160   1.748  10.913   4.200
87901W        W53161  39.804  11.742   3.656
87902W        W53162   4.882   4.358  14.482
87903W        W53163  28.962  16.756  13.888
87904W        W53164  10.393  29.022   3.153
87905W        W53165  44.409   7.584   0.359
87906W        W53166  44.921  22.619   2.657
87907W        W53167  26.962  21.061   2.364
87908W        W53168  17.605  16.097   1.618
87909W        W53169  17.345  22.212  14.470
87910W        W53170  14.594  24.090  13.819
87911W        W53171  18.716  17.074  14.459
87912W        W53172  39.743   8.803   4.089
87913W        W53173   2.476  19.804   0.756
87914W        W53174  25.211  16.682   2.546
87915W        W53175  44.907  25.310   0.748
87916W        W53176  28.152  25.623  14.905
87917W        W53177  16.152   6.243   3.754
87918W        W53178  29.454  11.747   3.630
87919W        W53179  24.274  41.089   3.303
87920W        W53180  37.896  31.408   3.853
87921W        W53181  13.604   5.333  11.821
87922W        W53182   6.737  23.641   0.280
87923W        W53183  29.225   8.028  14.696
87924W        W53184  36.462  29.024  10.666
87925W        W53185  29.616  27.980  13.332
87926W        W53186  42.871  41.018   1.954
87927W        W53187   5.450  43.454   2.637
87928W        W53188  12.846   0.942   1.323
87929W        W53189  44.301   8.647  12.010
87930W        W53190  23.572   1.422  13.055
87931W        W53191   7.411   0.509  12.891
87932W        W53192  12.845  27.564  11.749
87933W        W53193  42.180  41.887   3.292
87934W        W53194  39.508  29.060   4.681
87935W        W53195  35.355   8.288  12.137
87936W        W53196  44.025   7.924   3.896
87937W        W53197  21.942  27.465   2.297
87938W        W53198   9.493   2.173   4.078
87939W        W53199   0.269   5.342   1.905
87940W        W53200   4.678  19.794   0.484
87941W        W53201  24.856   0.439   1.900
87942W        W53202   6.593  42.915   1.479
87943W        W53203  17.493   3.291   0.165
87944W        W53204  43.436  28.542  13.589
87945W        W53205  44.347  32.055   4.085
87946W        W53206   1.137  35.661  11.971
87947W        W53207  16.307  43.157  11.583
87948W        W53208  20.472  32.039   1.712
87949W        W53209  16.759  15.735   2.603
87950W        W53210  35.139  16.312  12.991
87951W        W53211  29.663  12.916  12.102
87952W        W53212   9.674  18.786   0.218
87953W        W53213  40.301  27.437  14.374
87954W        W53214  14.149  19.303  12.487
87955W        W53215  35.567  20.015  12.514
87956W        W53216  33.148  34.586   3.190
87957W        W53217   3.957  13.679   2.409
87958W        W53218  26.761  22.647   4.176
87959W        W53219   9.209  18.385   4.400
87960W        W53220  38.762  34.320   4.490
87961W        W53221  15.357   7.173  14.384
87962W        W53222  34.787  10.373  13.516
87963W        W53223  32.487   1.063  14.793
87964W        W53224  40.964  38.829   2.867
87965W        W53225  15.587   3.125   2.908
87966W        W53226  25.143  11.210   1.180
87967W        W53227  26.559  38.205  11.984
87968W        W53228  44.430  19.208  11.204
87969W        W53229  10.136  26.939  14.900
87970W        W53230   0.345   6.816  13.865
87971W        W53231  10.223  32.830  12.354
87972W        W53232   1.180  32.867  11.294
87973W        W53233  40.877  20.791   4.076
87974W        W53234  28.132   7.382  10.578
87975W        W53235  23.455   8.178   3.800
87976W        W53236  42.551   2.445  14.358
87977W        W53237  14.746  43.410  12.967
87978W        W53238  30.115  27.455   1.846
87979W        W53239   6.310  35.442   3.755
87980W        W53240  35.338   4.187   1.718
87981W        W53241  29.486  43.856  11.111
87982W        W53242  38.970  19.802   2.639
87983W        W53243  14.194  29.924   0.349
87984W        W53244   0.112  22.340  14.768
87985W        W53245  21.744  22.484   0.871
87986W        W53246  38.976  35.782  11.736
87987W        W53247  12.749  25.727  13.565
87988W        W53248  15.275   6.938  13.904
87989W        W53249   7.580  31.104  14.839
87990W        W53250  30.879  11.758   3.717
87991W        W53251  40.890   6.176   3.767
87992W        W53252  31.902  12.279   4.295
87993W        W53253  11.890  36.821   3.595
87994W        W53254  13.920  37.345   0.723
87995W        W53255  28.096   2.243  11.579
87996W        W53256  44.912  10.297  14.551
87997W        W53257   6.899  28.650  12.895
87998W        W53258  30.211  25.653   3.184
87999W        W53259  11.258  13.843  12.476
88000W        W53260  27.442  33.844   2.134
88001W        W53261  32.684  28.943  13.596
88002W        W53262  41.321  11.273  13.432
88003W        W53263  32.228   9.679  11.649
88004W        W53264  20.206   7.351   4.526
88005W        W53265  41.799  16.324   0.469
88006W        W53266  19.680  14.977   4.810
88007W        W53267   3.377  28.151  14.980
88008W        W53268  31.631  33.502  14.143
88009W        W53269  30.118  27.706   2.746
88010W        W53270  12.773  33.774  12.078
88011W        W53271  15.267  37.535   2.545
88012W        W53272  21.980  32.589   3.529
88013W        W53273  35.868  26.952   3.115
88014W        W53274  43.497  15.336  12.895
88015W        W53275   1.002  42.488  14.945
88016W        W53276  31.086  24.024   1.603
88017W        W53277  29.183  28.979   0.930
88018W        W53278  20.353  41.343  12.495
88019W        W53279  22.814   4.429   1.466
88020W        W53280  27.209  14.876   3.643
88021W        W53281  21.039  10.796   0.148
88022W        W53282  36.887   6.276   0.449
88023W        W53283   2.179  30.361   5.051
88024W        W53284   6.290  33.406  11.560
88025W        W53285  29.049  23.003   2.661
88026W        W53286   0.884  38.596   0.919
88027W        W53287  10.036  20.541  14.633
88028W        W53288   7.644  37.348   3.105
88029W        W53289  23.247  29.446  13.886
88030W        W53290  16.138  15.279  13.049
88031W        W53291  11.628  42.798  12.499
88032W        W53292  26.536  28.689  14.732
88033W        W53293  31.005  30.946   1.899
88034W        W53294  25.686   1.685   3.668
88035W        W53295  36.463  34.842   5.099
88036W        W53296   8.456  14.334  11.375
88037W        W53297  41.971  16.496   2.751
88038W        W53298  30.518  32.184   1.867
88039W        W53299  18.522  21.096   4.206
88040W        W53300  29.116  21.811  11.987
88041W        W53301  38.611  20.744   0.797
88042W        W53302  18.178  41.817  14.718
88043W        W53303  40.681  13.158   0.752
88044W        W53304  19.684  44.445   1.858
88045W        W53305   3.242  44.547   0.337
88046W        W53306   0.373  41.938   4.898
88047W        W53307  39.104  20.666  11.092
88048W        W53308   0.255  36.648  14.484
88049W        W53309  20.652   1.362  13.469
88050W        W53310  35.614  31.054  11.601
88051W        W53311  29.284  15.749  10.280
88052W        W53312  16.705  32.044  12.536
88053W        W53313  13.095  38.317   1.129
88054W        W53314  12.757  10.328   4.827
88055W        W53315  15.330   1.369  13.442
88056W        W53316  12.804  21.074  11.653
88057W        W53317  19.583  12.878   3.625
88058W        W53318   8.464  32.956   1.530
88059W        W53319  36.564   8.918  13.542
88060W        W53320  25.881  37.910   4.502
88061W        W53321  14.703  15.875   4.394
88062W        W53322  12.816  20.061  10.648
88063W        W53323   7.104   3.121  11.164
88064W        W53324  29.004  40.425  14.504
88065W        W53325  11.989  19.100   0.219
88066W        W53326  22.277  20.185  12.570
88067W        W53327  31.301  34.898  11.610
88068W        W53328   8.151   1.311  11.535
88069W        W53329  17.634  34.655   1.672
88070W        W53330  27.975   0.484   9.883
88071W        W53331  28.148  17.697   0.411
88072W        W53332  28.476  18.315   1.872
88073W        W53333   6.192  43.444  14.533
88074W        W53334  18.139   1.741   0.240
88075W        W53335  42.234  39.147   0.420
88076W        W53336   5.637  19.144   4.652
88077W        W53337  23.190  22.456  13.049
88078W        W53338  19.039  30.061  13.286
88079W        W53339  26.659  16.653  13.509
88080W        W53340  32.832  36.151  11.683
88081W        W53341  36.394  38.001  12.116
88082W        W53342  26.273  33.857   3.675
88083W        W53343  42.880  43.228  11.659
88084W        W53344  40.957  30.028   4.522
88085W        W53345  27.661  10.897   3.221
88086W        W53346  35.559   8.224   1.627
88087W        W53347  23.609  28.053  14.587
88088W        W53348  41.583  23.893   3.819
88089W        W53349  38.693  32.496  11.331
88090W        W53350   6.753  39.049   1.811
88091W        W53351  19.729  28.276   3.129
88092W        W53352  14.274  23.996   4.793
88093W        W53353   7.858  39.137  10.290
88094W        W53354  44.755  18.164  14.347
88095W        W53355  21.058   1.865  10.326
88096W        W53356  30.733   1.371  10.739
88097W        W53357  39.951  27.131  11.803
88098W        W53358  10.071  34.180   0.484
88099W        W53359  11.330  30.797   1.727
88100W        W53360  12.449   4.735  12.495
88101W        W53361  13.263  36.836   4.774
88102W        W53362  14.590  33.509   0.429
88103W        W53363  35.111  29.189   0.994
88104W        W53364  14.884  20.089   2.671
88105W        W53365  28.457  18.673   4.051
88106W        W53366  27.194   7.796  11.125
88107W        W53367  24.273  14.568   0.391
88108W        W53368  21.739   9.609  13.517
88109W        W53369  42.952   9.522   2.291
88110W        W53370  22.709  23.986   1.879
88111W        W53371  44.421  20.738   0.653
88112W        W53372  18.778  30.160  10.998
88113W        W53373   8.779  44.942  13.505
88114W        W53374  13.239  35.498   0.391
88115W        W53375  37.621  37.508  10.485
88116W        W53376   8.673   8.410  14.847
88117W        W53377  23.632  18.329   2.257
88118W        W53378  43.151  10.862  10.659
88119W        W53379  23.273  27.075   2.399
88120W        W53380   4.886  37.122   4.357
88121W        W53381  18.678  19.159  14.738
88122W        W53382  19.276   6.432  11.632
88123W        W53383  22.215   7.033  11.453
88124W        W53384  13.248  23.918  12.033
88125W        W53385  36.307  13.297   2.107
88126W        W53386  11.864  22.757  12.392
88127W        W53387  12.258  40.489  13.509
88128W        W53388  18.619  23.518   0.924
88129W        W53389  31.042  21.999   2.848
88130W        W53390  33.949  26.948  11.612
88131W        W53391  42.774  18.609   1.197
88132W        W53392  18.681  36.417  11.711
88133W        W53393  23.705  31.348   4.237
88134W        W53394  40.890  42.000  11.167
88135W        W53395  42.485  26.486  13.524
88136W        W53396  41.016  22.880  14.307
88137W        W53397  33.069  19.673   3.350
88138W        W53398  11.732  24.275   2.638
88139W        W53399  21.615  31.983   0.437
88140W        W53400  40.093  32.024  13.844
88141W        W53401  39.361   3.430   1.269
88142W        W53402   4.470  35.237   1.013
88143W        W53403   8.804  21.942  14.351
88144W        W53404  34.625  25.113   1.605
88145W        W53405  39.309  19.507   2.359
88146W        W53406   7.214  12.639  12.855
88147W        W53407  23.063  31.141   4.510
88148W        W53408  17.475  23.755  11.927
88149W        W53409  10.869  23.923  14.846
88150W        W53410  14.874  13.816  12.998
88151W        W53411   3.262  12.698   2.652
88152W        W53412  44.259  42.256  11.198
88153W        W53413  20.251  20.701   1.384
88154W        W53414  24.188  27.748  11.177
88155W        W53415   2.363  12.749   4.154
88156W        W53416  32.844  39.913   3.819
88157W        W53417  28.746   8.887  12.097
88158W        W53418   0.910  42.015  11.590
88159W        W53419  12.902   2.786  11.111
88160W        W53420  14.417  40.750   2.445
88161W        W53421  26.666  22.016  10.603
88162W        W53422  26.131  12.784  11.599
88163W        W53423   6.475  18.746   2.265
88164W        W53424  22.484  37.985  12.600
88165W        W53425  21.748   7.721  13.998
88166W        W53426  12.702  42.985   2.648
88167W        W53427   3.120  43.601  11.084
88168W        W53428   5.165  30.655  14.297
88169W        W53429  12.100   3.603   4.967
88170W        W53430  21.461  31.572  13.982
88171W        W53431   3.531   8.266  14.304
88172W        W53432   9.213  40.311   2.121
88173W        W53433  10.513  22.082  14.074
88174W        W53434  18.943   2.255   0.241
88175W        W53435  38.935  28.144   3.534
88176W        W53436   9.108  13.386  13.857
88177W        W53437   2.226  20.535   3.559
88178W        W53438  38.841  24.281   0.739
88179W        W53439  18.572  16.661  12.769
88180W        W53440  37.368  22.196  11.172
88181W        W53441  28.189  26.308  12.555
88182W        W53442  44.050   9.717   0.851
88183W        W53443  35.210  15.456   4.087
88184W        W53444   4.878  41.333  11.592
88185W        W53445  20.145  41.584  12.930
88186W        W53446  34.035  20.610  12.911
88187W        W53447  23.660   8.007   3.340
88188W        W53448  16.042  14.742   2.742
88189W        W53449  41.967  22.051  12.048
88190W        W53450  17.509  29.125  11.246
88191W        W53451  17.077  17.957   1.530
88192W        W53452  40.772  33.903  13.589
88193W        W53453  36.586  23.562  12.017
88194W        W53454  10.100  25.482  10.996
88195W        W53455  31.591  40.826  12.747
88196W        W53456   5.517  26.546   4.775
88197W        W53457  36.379  29.603   0.731
88198W        W53458  19.222  10.782  12.399
88199W        W53459  13.774   8.383   0.656
88200W        W53460   8.239   2.338   2.425
88201W        W53461  26.095  18.256  13.501
88202W        W53462  28.207   0.793   4.655
88203W        W53463  23.121  21.752   3.421
88204W        W53464  44.397  32.631   1.907
88205W        W53465  33.539  18.736  11.956
88206W        W53466  34.982   8.418   1.489
88207W        W53467  31.190  42.059   4.786
88208W        W53468  35.166  14.081  14.557
88209W        W53469   8.436  37.299   2.718
88210W        W53470   0.755  17.349   5.000
88211W        W53471  13.322  33.073   4.192
88212W        W53472  36.455   1.246   0.909
88213W        W53473  24.954  39.363  14.747
88214W        W53474  16.817  30.403   3.187
88215W        W53475  11.841  30.144   3.211
88216W        W53476  32.179   1.232   1.014
88217W        W53477  14.055   5.846   0.097
88218W        W53478  12.346  20.337  10.681
88219W        W53479  21.991  32.575   2.906
88220W        W53480  28.447  40.419  13.789
88221W        W53481  41.949   3.879   2.984
88222W        W53482  26.069   2.819   0.474
88223W        W53483  44.818  29.982   1.300
88224W        W53484  38.990   0.416  13.955
88225W        W53485   2.344  22.108  13.667
88226W        W53486  24.028  19.076   0.428
88227W        W53487  22.317  32.844   3.201
88228W        W53488  23.804  24.669   4.889
88229W        W53489  16.351   9.238  13.916
88230W        W53490  35.113   9.191  10.668
88231W        W53491  29.138  42.354  11.243
88232W        W53492  26.685   5.307   2.199
88233W        W53493  25.344  23.576   1.818
88234W        W53494  18.720  32.918  11.548
88235W        W53495   6.212  27.159  14.523
88236W        W53496  42.266  39.798   3.830
88237W        W53497   9.430   5.226   4.055
88238W        W53498   3.379  32.501   3.258
88239W        W53499  14.604  37.034   1.348
88240W        W53500  16.091  40.638   3.934
88241W        W53501  16.599  29.877   2.374
88242W        W53502  22.535   2.724  13.848
88243W        W53503  33.544  31.653  10.212
88244W        W53504  19.500  13.095  13.819
88245W        W53505  15.105  22.978  12.078
88246W        W53506  18.737  27.749  12.873
88247W        W53507  25.023  40.448  14.802
88248W        W53508  29.118  36.539  10.758
88249W        W53509  24.605   0.496   1.452
88250W        W53510  37.982   8.757  10.958
88251W        W53511  16.662  36.441   2.055
88252W        W53512  42.357  34.377   3.196
88253W        W53513  32.335  14.879   2.622
88254W        W53514  19.119  27.602  12.137
88255W        W53515  37.502  17.101   2.387
88256W        W53516  26.457   8.391  14.461
88257W        W53517  14.967  11.797  14.810
88258W        W53518  24.544  14.960   0.631
88259W        W53519  26.723  42.911   0.527
88260W        W53520  30.550  10.382   2.799
88261W        W53521  43.782   9.259   0.813
88262W        W53522   3.433  27.102   1.388
88263W        W53523  39.900  39.917  14.444
88264W        W53524   4.666  12.764  11.855
88265W        W53525  14.219  41.007  13.760
88266W        W53526   0.068   1.433   2.168
88267W        W53527   2.304  38.483  14.586
88268W        W53528  24.634  26.046   1.230
88269W        W53529   7.772  28.201  13.040
88270W        W53530  34.951  26.892  12.500
88271W        W53531  29.843   4.951   0.811
88272W        W53532  33.722   5.146  14.375
88273W        W53533  39.582   9.751   0.275
88274W        W53534  38.395  31.713  11.169
88275W        W53535   7.667   4.212  11.146
88276W        W53536  10.907  11.902   4.572
88277W        W53537  11.318   1.246  13.322
88278W        W53538  28.956  18.087   0.239
88279W        W53539  36.295  14.349  11.141
88280W        W53540   0.376   6.594   2.357
88281W        W53541  31.678  10.520   1.284
88282W        W53542  18.533  27.298  13.007
88283W        W53543  21.935   9.908  14.449
88284W        W53544  33.624  41.923   0.046
88285W        W53545  29.999  40.412  10.524
88286W        W53546  29.419  43.929  13.101
88287W        W53547  40.680  40.540   1.375
88288W        W53548   2.435   8.291   3.803
88289W        W53549  16.090  22.403   3.605
88290W        W53550  17.667  42.829   0.719
88291W        W53551  10.915  15.244  13.965
88292W        W53552  15.118  41.291   2.851
88293W        W53553   5.008  42.502  12.095
88294W        W53554  26.866  22.617   1.794
88295W        W53555  31.987   3.046   2.427
88296W        W53556  38.488  12.656  14.999
88297W        W53557  39.662   2.412  12.064
88298W        W53558  43.272  44.684   0.413
88299W        W53559  27.886  41.497   4.538
88300W        W53560   9.584  36.482  14.526
88301W        W53561  41.267  24.434  11.091
88302W        W53562   7.350   9.194   3.010
88303W        W53563  26.674   7.383   2.929
88304W        W53564  20.717  17.060  14.485
88305W        W53565  31.122  17.918  11.181
88306W        W53566   9.845  13.805   0.812
88307W        W53567  36.018  41.055  12.680
88308W        W53568  32.897  43.686  12.584
88309W        W53569  30.939  15.630   3.664
88310W        W53570  22.585  24.424  12.453
88311W        W53571  26.974   9.314   3.084
88312W        W53572  41.501   2.785   2.858
88313W        W53573   6.395   4.643  13.972
88314W        W53574  27.278   1.828   3.383
88315W        W53575  19.892  44.338  12.869
88316W        W53576  26.520   3.856   4.576
88317W        W53577   1.203  39.218  11.590
88318W        W53578   9.081   2.434   4.271
88319W        W53579  36.979  28.388   2.866
88320W        W53580  23.180  20.975   0.466
88321W        W53581  41.451   5.996   0.257
88322W        W53582  26.024  38.859   0.994
88323W        W53583  35.789  44.516  12.952
88324W        W53584  39.472  11.594  13.514
88325W        W53585  30.464  18.369  11.651
88326W        W53586  26.427   7.135  11.905
88327W        W53587  27.198  22.531  11.976
88328W        W53588  38.101  27.198  14.753
88329W        W53589  40.606  28.660  12.511
88330W        W53590  25.553  23.708  14.445
88331W        W53591   5.946   2.932   3.412
88332W        W53592  17.534  42.406   0.287
88333W        W53593  11.457  41.482   0.187
88334W        W53594   2.146   7.065  11.906
88335W        W53595  17.934  22.770   4.501
88336W        W53596   7.580  39.099  12.464
88337W        W53597  37.856  44.662  12.143
88338W        W53598   4.484   9.403   4.602
88339W        W53599   0.728  23.006   0.584
88340W        W53600  30.724   6.199  13.019
88341W        W53601   8.188   1.672   1.300
88342W        W53602  15.775  29.589  13.316
88343W        W53603   3.598   2.666   2.592
88344W        W53604  33.705  41.954  11.534
88345W        W53605  31.416  31.345  12.652
88346W        W53606  28.013  28.131  12.474
88347W        W53607  21.050   3.536   4.238
88348W        W53608  23.565  19.752  14.016
88349W        W53609  36.272  18.761  14.364
88350W        W53610  34.267  25.178  13.921
88351W        W53611  30.954  43.401   0.022
88352W        W53612  34.985  35.875   2.739
88353W        W53613   8.095  35.618  10.699
88354W        W53614  14.129   7.198  13.588
88355W        W53615   0.419  27.935   0.745
88356W        W53616  33.101   0.571  10.681
88357W        W53617   7.707  15.310  12.852
88358W        W53618  32.602  14.514   3.209
88359W        W53619  32.446   6.961   3.749
88360W        W53620  39.617  27.981   2.081
88361W        W53621  40.564  28.777  14.077
88362W        W53622  44.751  18.747  12.798
88363W        W53623  28.466  31.194   3.240
88364W        W53624  11.833  16.828  13.749
88365W        W53625  26.924   4.916   1.319
88366W        W53626  39.515   8.180  11.528
88367W        W53627   7.850  19.742   4.894
88368W        W53628   9.690  37.057  14.826
88369W        W53629  40.537  23.653  10.573
88370W        W53630   7.652  43.834   1.782
88371W        W53631   3.232   7.715   3.363
88372W        W53632   5.006  19.241   1.800
88373W        W53633  11.373  11.266  10.045
88374W        W53634   8.987  19.660  14.408
88375W        W53635   3.297   4.379  13.637
88376W        W53636  24.003  37.883   1.353
88377W        W53637  39.359   8.415   2.404
88378W        W53638   3.451   4.706   2.516
88379W        W53639  40.535   6.735   1.314
88380W        W53640  31.244  33.425   0.522
88381W        W53641   3.496  19.605   1.991
88382W        W53642  13.295  31.213   4.683
88383W        W53643  25.577  35.295  11.574
88384W        W53644  14.835  12.358   3.146
88385W        W53645  14.075  41.264  14.784
88386W        W53646  44.603   9.480   1.327
88387W        W53647  22.562  12.789   2.629
88388W        W53648  32.081   0.924   1.449
88389W        W53649  26.779  41.011  10.576
88390W        W53650  36.444  40.855   2.785
88391W        W53651  36.404   4.799   0.911
88392W        W53652  28.710   1.920  11.110
88393W        W53653  35.860  25.234   2.862
88394W        W53654   5.139  43.416   3.192
88395W        W53655  33.468   8.377   3.190
88396W        W53656  42.074  40.317   4.472
88397W        W53657  43.596  44.446   2.813
88398W        W53658  21.629  22.011  13.971
88399W        W53659   0.433   0.549  14.538
88400W        W53660   4.296   2.669  11.321
88401W        W53661  28.741  14.598   3.926
88402W        W53662   6.237  20.331  11.319
88403W        W53663  11.238  21.662   0.240
88404W        W53664  41.809  29.937  14.343
88405W        W53665  37.932  15.173   4.080
88406W        W53666  11.753  19.806  14.736
88407W        W53667  22.056  18.305  14.456
88408W        W53668  16.631  36.365   2.972
88409W        W53669   2.319  27.503   4.632
88410W        W53670  22.633  17.073   2.667
88411W        W53671  40.419  43.484  13.446
88412W        W53672  18.813  36.974   0.295
88413W        W53673   8.760  38.039  12.684
88414W        W53674   8.822  26.568  12.948
88415W        W53675  18.792  32.443  12.554
88416W        W53676  13.308  36.662  13.206
88417W        W53677  25.021  17.851  14.709
88418W        W53678  21.778  15.856  14.548
88419W        W53679   4.213  33.169   0.752
88420W        W53680  37.916  44.398  11.668
88421W        W53681   0.863  16.367  11.167
88422W        W53682  11.711  34.389   1.259
88423W        W53683  32.631  13.172  13.953
88424W        W53684  27.501  14.830   1.952
88425W        W53685  33.064  30.638  10.560
88426W        W53686   2.824   5.476  10.811
88427W        W53687  32.258   6.251   3.656
88428W        W53688  29.941  44.639  11.105
88429W        W53689  32.318  31.613  11.952
88430W        W53690  18.755  10.421  11.063
88431W        W53691  10.864  43.021  12.049
88432W        W53692  14.059  25.147  12.822
88433W        W53693  27.023   9.781   2.842
88434W        W53694  44.631  38.226   1.200
88435W        W53695  31.554  37.064  13.855
88436W        W53696  16.220   9.740  13.755
88437W        W53697  23.177  33.811   4.960
88438W        W53698  30.373  11.604   2.764
88439W        W53699  19.980  24.974  14.295
88440W        W53700  28.993  33.585  11.129
88441W        W53701  42.916  33.450   0.739
88442W        W53702  32.480  22.773  13.330
88443W        W53703   6.670  22.790  13.832
88444W        W53704  41.554   0.383  11.617
88445W        W53705  40.335   3.271  11.927
88446W        W53706   8.385   7.690   0.836
88447W        W53707   2.795   3.721   4.359
88448W        W53708   0.384   0.512  11.609
88449W        W53709   4.782  25.731  14.838
88450W        W53710  34.651  36.390  14.488
88451W        W53711  34.481  16.288  11.128
88452W        W53712  23.238  17.257  14.965
88453W        W53713  40.215  38.161   3.713
88454W        W53714  15.647  12.309   4.827
88455W        W53715   4.033  19.417  11.032
88456W        W53716  31.911  13.370  13.529
88457W        W53717  26.612  43.272   4.641
88458W        W53718  17.036  35.607  14.056
88459W        W53719   4.202   5.027   4.468
88460W        W53720  41.155   1.495  14.815
88461W        W53721  19.261  36.099   3.223
88462W        W53722  37.502  34.021   2.265
88463W        W53723  29.811  15.711  10.271
88464W        W53724  17.796  12.206  12.833
88465W        W53725  39.973   1.973  11.212
88466W        W53726  22.492  16.242  13.917
88467W        W53727  42.741  38.495  12.006
88468W        W53728  16.855  34.893   1.330
88469W        W53729  25.093  35.836  13.199
88470W        W53730   6.119   7.390  13.286
88471W        W53731   0.286  39.524  11.952
88472W        W53732   3.988  41.806  12.567
88473W        W53733   6.737  19.218   2.239
88474W        W53734   2.052   0.033  10.614
88475W        W53735   1.029  27.056   3.600
88476W        W53736   7.923  36.128   2.149
88477W        W53737  31.410  11.776  11.179
88478W        W53738  33.288  13.278   1.443
88479W        W53739  16.137  33.758  11.575
88480W        W53740   7.121  21.838  14.271
88481W        W53741  29.453  26.480  14.934
88482W        W53742  28.023  41.674   5.025
88483W        W53743  27.449   9.889   4.282
88484W        W53744  20.103  40.610  12.021
88485W        W53745  10.751  34.608   0.195
88486W        W53746   8.554  17.787   2.779
88487W        W53747  38.253  42.907   2.922
88488W        W53748  20.567   8.834   3.130
88489W        W53749  44.943  22.234  13.003
88490W        W53750  43.865  16.070   1.264
88491W        W53751  25.712  26.991  11.050
88492W        W53752  39.286  14.828   3.049
88493W        W53753  25.956  28.149   3.910
88494W        W53754  27.381   0.406   4.452
88495W        W53755  14.163   0.170  14.989
88496W        W53756  22.204   0.174  13.010
88497W        W53757   7.827  42.168   4.672
88498W        W53758   6.967   0.805   0.844
88499W        W53759  26.844  26.079  14.616
88500W        W53760  25.298   7.330  14.817
88501W        W53761  34.612  16.242  14.778
88502W        W53762  34.688  27.146  11.084
88503W        W53763   6.384   0.761   1.853
88504W        W53764  22.316  36.312   0.311
88505W        W53765  30.676  15.357  13.402
88506W        W53766  43.493  29.378  11.177
88507W        W53767  19.639  34.868  12.534
88508W        W53768   2.415  43.851   0.450
88509W        W53769  10.775  13.188  13.365
88510W        W53770  44.823  38.790   1.902
88511W        W53771   8.814  28.685   3.646
88512W        W53772  31.568  15.055   1.865
88513W        W53773  28.785   5.539  10.827
88514W        W53774   2.941  23.916  12.029
88515W        W53775  29.087  28.936   1.454
88516W        W53776  42.565  19.558  12.514
88517W        W53777  29.567  15.771  13.557
88518W        W53778  37.013  19.061  14.807
88519W        W53779   1.541  40.281  11.181
88520W        W53780  28.437  37.160  13.491
88521W        W53781  13.821  25.572  11.884
88522W        W53782   5.222  20.691  13.719
88523W        W53783   1.933  28.214   4.111
88524W        W53784  26.597   0.069   3.121
88525W        W53785  15.455  22.305  11.627
88526W        W53786  17.798   4.794   3.656
88527W        W53787  26.556   2.974  14.005
88528W        W53788  34.821  18.292  10.815
88529W        W53789  30.496   5.875   4.273
88530W        W53790   6.233  18.594   1.743
88531W        W53791  44.023   4.828  12.319
88532W        W53792  11.060   9.561   3.650
88533W        W53793  18.693  39.489   4.146
88534W        W53794  26.236   6.711  10.503
88535W        W53795   5.761  40.588  13.944
88536W        W53796   9.577  20.498  14.871
88537W        W53797  44.441  19.096   0.918
88538W        W53798  27.591   7.226  12.860
88539W        W53799  44.757   1.802   2.976
88540W        W53800  19.655   4.235  14.802
88541W        W53801  43.772  26.613  11.824
88542W        W53802  11.208   5.697   2.631
88543W        W53803  29.574  32.701  13.124
88544W        W53804  35.474  22.799   0.697
88545W        W53805  32.095  35.251  13.079
88546W        W53806  43.316  30.067  13.062
88547W        W53807  27.390  36.558   0.189
88548W        W53808  39.000  13.161   4.106
88549W        W53809  33.707  18.861  14.602
88550W        W53810  42.091  26.970  12.939
88551W        W53811   0.779  23.788  12.164
88552W        W53812   3.341  21.474   0.880
88553W        W53813  11.774   1.985  13.866
88554W        W53814  33.784   9.168  12.650
88555W        W53815   2.787  14.390  10.744
88556W        W53816  13.544  21.751   2.315
88557W        W53817  36.127  21.124   4.188
88558W        W53818  42.664  33.547   4.229
88559W        W53819  27.465   6.429   4.557
88560W        W53820  15.012  13.558   1.066
88561W        W53821  17.147  11.060   0.919
88562W        W53822  29.409   4.739   0.600
88563W        W53823  30.595  25.233  14.287
88564W        W53824  42.506  36.535  10.658
88565W        W53825  43.084   8.464  11.536
88566W        W53826  31.980  42.276   3.660
88567W        W53827  20.961  41.874  14.636
88568W        W53828   8.598   9.614   3.196
88569W        W53829  16.221  37.122   0.833
88570W        W53830   8.429  33.875  13.472
88571W        W53831   2.940   2.924  11.546
88572W        W53832  32.414  17.675  14.134
88573W        W53833  11.421   0.971  11.256
88574W        W53834   8.112  23.142  13.823
88575W        W53835  44.310   6.576   5.314
88576W        W53836   5.918  39.476   0.825
88577W        W53837  11.566  30.251  13.453
88578W        W53838  43.790  14.914  12.056
88579W        W53839  16.237  43.387   4.224
88580W        W53840   0.445  26.682   1.418
88581W        W53841  40.864  16.297   1.683
88582W        W53842   2.440  11.080  10.985
88583W        W53843   8.633  13.641   2.209
88584W        W53844   3.337   6.775   1.971
88585W        W53845  33.599   7.670   2.949
88586W        W53846  31.668  29.708  14.115
88587W        W53847  23.552  32.901  14.339
88588W        W53848  14.984  21.191  11.233
88589W        W53849   8.683  16.312   1.512
88590W        W53850  24.955   0.945   2.764
88591W        W53851   2.851  28.647   4.142
88592W        W53852  23.704  33.024   2.248
88593W        W53853  28.941  24.244  11.176
88594W        W53854  21.753  30.923   0.862
88595W        W53855  33.357  42.814   0.045
88596W        W53856  41.276  17.706   3.107
88597W        W53857  21.549  13.818  12.030
88598W        W53858   8.749  30.992   3.701
88599W        W53859  20.239   0.282  13.430
88600W        W53860  28.879  44.747  12.775
88601W        W53861  38.085  13.435   1.934
88602W        W53862  42.998   8.126   0.418
88603W        W53863  12.169  44.839  14.544
88604W        W53864  31.459  11.141   2.202
88605W        W53865  34.403  37.993  11.637
88606W        W53866   3.346  12.668   2.117
88607W        W53867  19.811  12.204  12.836
88608W        W53868  15.589  23.678   2.749
88609W        W53869  34.200  42.058  11.736
88610W        W53870  32.588   4.720  11.534
88611W        W53871  18.881  17.044   4.134
88612W        W53872   2.155  38.631   2.390
88613W        W53873   9.401  24.270   4.118
88614W        W53874  10.180  44.747  10.720
88615W        W53875  29.360  37.788  14.805
88616W        W53876  35.979  27.934   0.206
88617W        W53877  20.120  37.197   4.235
88618W        W53878  35.298  10.747  10.739
88619W        W53879  43.197  21.277  14.031
88620W        W53880  10.149  30.997   2.820
88621W        W53881   8.178   9.097   2.394
88622W        W53882  33.817  33.970  14.133
88623W        W53883  12.921  43.454   1.364
88624W        W53884   3.358  40.657   3.741
88625W        W53885   3.554  31.155   2.209
88626W        W53886  21.208  19.191   1.896
88627W        W53887   8.484  17.136  13.626
88628W        W53888   5.280  11.353  12.640
88629W        W53889  39.345  24.900   4.597
88630W        W53890  18.891  44.503   4.121
88631W        W53891  38.950  39.289  14.470
88632W        W53892  27.843   5.139  11.155
88633W        W53893  32.100   3.379   0.319
88634W        W53894  33.400   7.283   0.874
88635W        W53895   2.219  22.601  13.847
88636W        W53896  44.826  37.806  11.104
88637W        W53897  33.157  41.035   3.775
88638W        W53898   7.492  43.876  10.548
88639W        W53899  29.539  23.071  14.383
88640W        W53900  30.662  18.767  14.460
88641W        W53901  10.441  30.964   5.061
88642W        W53902  34.551  11.565  14.509
88643W        W53903  22.945  13.664   0.956
88644W        W53904   7.630  21.232  14.940
88645W        W53905  18.114  38.462   3.902
88646W        W53906  21.123  44.857  14.833
88647W        W53907  34.554  24.885   3.616
88648W        W53908  11.761  34.570   3.496
88649W        W53909  26.714  32.160   0.029
88650W        W53910  34.402  16.833   3.655
88651W        W53911   3.283  34.083  11.655
88652W        W53912  24.815  41.732  13.768
88653W        W53913  32.852   5.375  14.981
88654W        W53914  29.013  27.363  13.377
88655W        W53915  12.912  13.767  13.967
88656W        W53916  24.636  38.379  13.452
88657W        W53917  29.406  31.560  14.972
88658W        W53918  37.009  44.674  13.328
88659W        W53919   1.730  38.431   3.077
88660W        W53920  44.296  43.887  14.767
88661W        W53921  41.188  28.422   3.262
88662W        W53922  20.599   7.595  14.308
88663W        W53923  43.023  17.578   1.427
88664W        W53924  28.932  30.061  14.524
88665W        W53925  44.580  12.253  10.240
88666W        W53926  26.581  16.217   2.879
88667W        W53927  21.362  28.678  10.852
88668W        W53928  27.212   2.519   0.856
88669W        W53929  19.990   6.601   3.876
88670W        W53930  14.123  24.234   2.375
88671W        W53931  17.246   9.174   1.288
88672W        W53932  41.932  28.470  14.928
88673W        W53933  14.115  24.019   3.400
88674W        W53934  43.398  31.848  13.663
88675W        W53935   2.254  42.897   1.052
88676W        W53936   6.529  28.901  14.015
88677W        W53937  44.735   8.886   0.820
88678W        W53938  13.352  38.773   1.121
88679W        W53939   2.507  18.896   4.688
88680W        W53940  11.353   6.936   2.240
88681W        W53941  25.949   5.396  13.083
88682W        W53942  23.011  17.117  13.319
88683W        W53943  36.653  36.634   2.633
88684W        W53944  43.367  37.035  11.530
88685W        W53945   4.490  12.231   3.698
88686W        W53946  32.503  21.784   4.205
88687W        W53947  28.939   9.760   0.587
88688W        W53948  41.530  22.781   0.196
88689W        W53949  25.065  30.248  13.796
88690W        W53950  31.036  27.959  12.871
88691W        W53951  21.550  21.668  13.587
88692W        W53952  11.159  36.768   4.380
88693W        W53953  23.183  14.647  14.383
88694W        W53954  37.881  22.028   1.220
88695W        W53955  11.797  15.904   3.992
88696W        W53956  35.450  18.333   3.656
88697W        W53957  41.139   2.343  14.413
88698W        W53958  26.479  11.746   3.088
88699W        W53959  20.055  27.378  13.769
88700W        W53960  22.221   1.817   9.548
88701W        W53961  27.597   9.738   1.670
88702W        W53962  14.652   0.430   2.897
88703W        W53963  13.544  33.797   1.306
88704W        W53964   3.867   3.393   1.239
88705W        W53965   1.403  23.651  10.055
88706W        W53966  19.589  40.239   1.302
88707W        W53967  10.778  40.680   2.343
88708W        W53968  13.187  37.539  13.598
88709W        W53969   4.209  30.897  13.180
88710W        W53970  30.561  30.336  11.957
88711W        W53971  30.919  41.236  11.314
88712W        W53972  12.065  31.156   2.228
88713W        W53973  21.280  43.880   2.205
88714W        W53974  31.942  17.277  11.626
88715W        W53975  31.702  32.161   3.297
88716W        W53976  12.786  28.342  12.417
88717W        W53977   3.918  23.002   4.059
88718W        W53978   7.308  43.949   4.453
88719W        W53979  19.106   9.110  13.830
88720W        W53980   8.168  40.948   3.560
88721W        W53981   4.572   7.283   0.173
88722W        W53982  28.512  14.381   3.402
88723W        W53983  33.921  10.570   4.212
88724W        W53984  14.107   8.463   3.298
88725W        W53985  17.343   0.783  10.711
88726W        W53986  10.474   9.342   0.899
88727W        W53987  17.521  42.666  14.439
88728W        W53988   2.154  10.390  13.453
88729W        W53989  42.346  29.062   4.569
88730W        W53990  44.030   0.575   3.597
88731W        W53991  36.046  42.548   2.884
88732W        W53992  37.163  18.070  14.645
88733W        W53993   8.444   1.142  12.121
88734W        W53994   1.299  16.765   3.291
88735W        W53995  36.886  22.636  13.359
88736W        W53996  36.808   4.137   4.069
88737W        W53997  31.590  22.552   2.278
88738W        W53998  32.607  23.562  11.509
88739W        W53999  41.851  24.244  12.409
88740W        W54000  10.430  19.163  13.678
88741W        W54001  16.611   6.227  12.418
88742W        W54002  10.709   8.234  14.384
88743W        W54003  41.972   2.209  12.611
88744W        W54004  32.694  41.927  11.208
88745W        W54005  43.841   7.911  14.023
88746W        W54006  19.580   8.113  11.636
88747W        W54007  41.232  28.090   2.814
88748W        W54008  26.010   1.958   1.039
88749W        W54009  32.616  14.141   2.261
88750W        W54010   5.423  25.371   0.854
88751W        W54011  18.482  37.877  14.801
88752W        W54012  17.569  15.794   4.095
88753W        W54013  19.024  18.433  11.088
88754W        W54014  27.028  35.795  10.212
88755W        W54015  12.179   5.238   4.240
88756W        W54016   1.784   0.922  12.118
88757W        W54017  19.442  34.866  14.799
88758W        W54018  12.238  13.149   4.284
88759W        W54019   6.771  34.861   2.119
88760W        W54020  12.677   7.900   0.838
88761W        W54021  40.000   7.697   2.245
88762W        W54022  23.172  18.707  12.390
88763W        W54023  42.795  14.790  12.895
88764W        W54024  24.794  10.825   0.823
88765W        W54025  40.731  25.910   4.615
88766W        W54026  15.670   6.461   3.574
88767W        W54027  21.634  28.903   4.560
88768W        W54028  27.087  22.652  11.059
88769W        W54029  40.026  19.150   2.400
88770W        W54030  43.831  24.933   0.260
88771W        W54031  43.014  39.738   3.210
88772W        W54032   4.933  34.905   3.139
88773W        W54033  18.866  13.748  14.828
88774W        W54034  40.784  17.460  12.091
88775W        W54035   2.335  42.110  11.905
88776W        W54036  14.712  16.237  14.717
88777W        W54037   1.398  35.762   2.585
88778W        W54038  17.196  14.045  11.991
88779W        W54039  19.440  40.062   0.454
88780W        W54040  30.475  23.865   1.101
88781W        W54041  32.938  10.519  14.442
88782W        W54042  24.463  41.531   4.559
88783W        W54043  28.561  26.249   0.310
88784W        W54044  22.625   7.871  12.813
88785W        W54045   7.124  32.860  12.026
88786W        W54046  35.816  21.200  14.969
88787W        W54047  30.992  30.523  10.310
88788W        W54048   8.352  23.650   1.775
88789W        W54049  13.171  16.440  14.086
88790W        W54050  27.841  31.811  13.085
88791W        W54051  12.716  40.954   2.939
88792W        W54052  38.894  27.609  14.169
88793W        W54053  29.280  44.886   1.406
88794W        W54054  22.990  39.778  12.600
88795W        W54055  34.969   3.860  14.329
88796W        W54056  12.260  36.045   0.892
88797W        W54057  22.783  41.374   3.193
88798W        W54058  36.639  11.844  13.409
88799W        W54059  29.981  16.713   1.591
88800W        W54060   3.544  17.182   5.140
88801W        W54061   2.434  31.427   3.133
88802W        W54062  25.386  44.411  10.934
88803W        W54063  10.276  20.680   3.682
88804W        W54064  21.488   1.908   3.717
88805W        W54065  11.786  31.202   3.180
88806W        W54066  30.880  13.671  11.670
88807W        W54067  29.464  44.052  14.304
88808W        W54068  44.519  24.904   1.353
88809W        W54069  34.687  17.611  12.567
88810W        W54070  38.708   4.138   1.060
88811W        W54071  14.631  26.537   1.341
88812W        W54072   3.914  21.808  13.006
88813W        W54073  25.651  12.641   2.710
88814W        W54074  28.606  25.234  12.600
88815W        W54075   4.192  23.509  11.234
88816W        W54076   8.996  12.689  10.745
88817W        W54077  41.705   0.017   0.362
88818W        W54078  42.987  36.346  10.556
88819W        W54079  41.269   4.431   2.507
88820W        W54080  12.155   1.157  12.814
88821W        W54081  21.296  23.057   2.340
88822W        W54082  11.264   4.396   3.161
88823W        W54083  11.197  31.208   2.689
88824W        W54084  16.582  39.091  11.337
88825W        W54085  43.597  31.647  11.353
88826W        W54086  41.821  13.505   2.577
88827W        W54087  40.508  18.578  10.788
88828W        W54088  44.459  15.401  12.061
88829W        W54089  44.095  43.572  13.367
88830W        W54090  18.275  44.341   2.237
88831W        W54091  31.886  30.428   2.329
88832W        W54092  21.452   2.332  12.473
88833W        W54093   4.700  22.613  12.149
88834W        W54094  33.480  28.416   2.698
88835W        W54095  25.964  10.021   4.711
88836W        W54096  19.264  31.654   1.745
88837W        W54097  38.103  11.226   1.666
88838W        W54098  19.979  40.416   2.263
88839W        W54099  23.827  20.222   1.812
88840W        W54100   5.288  35.598  11.235
88841W        W54101  21.679  34.155  13.956
88842W        W54102  34.632  12.620   2.350
88843W        W54103  17.729  33.124  12.597
88844W        W54104   2.737  24.639   3.199
88845W        W54105  35.252  16.254  10.460
88846W        W54106   9.177  27.711   3.692
88847W        W54107   9.197  14.082  13.028
88848W        W54108  25.971  15.403  14.292
88849W        W54109  29.653  15.803   0.872
88850W        W54110  38.344  17.524  10.776
88851W        W54111  44.698  41.410  12.002
88852W        W54112  14.542   1.181   0.334
88853W        W54113  36.479  30.460   4.576
88854W        W54114  28.474  38.875   0.712
88855W        W54115   5.285   6.833   2.775
88856W        W54116  20.260  16.037   1.804
88857W        W54117  23.001  21.592  13.391
88858W        W54118   1.466   3.035   3.667
88859W        W54119   6.619  12.171  14.822
88860W        W54120  34.735   4.498  14.807
88861W        W54121  28.673   1.263  10.722
88862W        W54122  12.466  12.054   0.366
88863W        W54123  10.158  39.839  14.299
88864W        W54124  13.873  24.542   0.602
88865W        W54125  23.182  22.308  14.997
88866W        W54126  13.831  44.292   2.869
88867W        W54127  18.013  37.327  14.245
88868W        W54128  15.249  42.565  13.183
88869W        W54129  13.389  10.443  12.605
88870W        W54130  37.309   2.454   3.159
88871W        W54131  44.984  26.895   1.431
88872W        W54132  40.980  21.489   2.159
88873W        W54133  28.968  28.365  13.331
88874W        W54134  39.861   4.392   3.778
88875W        W54135   8.729   8.924   4.540
88876W        W54136  31.242   5.817  14.007
88877W        W54137  18.817  40.198   1.376
88878W        W54138  39.377   0.745   3.918
88879W        W54139  20.496   1.429   1.467
88880W        W54140   2.617  38.014  10.491
88881W        W54141  19.566  31.945   1.164
88882W        W54142   7.776   0.343   4.936
88883W        W54143   9.204  18.212  11.294
88884W        W54144  34.096  28.053  12.348
88885W        W54145  16.228  11.797  13.342
88886W        W54146  19.561   8.289  14.061
88887W        W54147  39.085   7.738   0.008
88888W        W54148  29.697   7.562   2.941
88889W        W54149  37.898   7.440  14.439
88890W        W54150  10.568   1.750  11.077
88891W        W54151   2.893   5.540   4.818
88892W        W54152  11.684  12.137   0.328
88893W        W54153   6.542  28.915   4.641
88894W        W54154   0.665   4.958   0.245
88895W        W54155  27.857  31.606  13.992
88896W        W54156  38.366  34.510  14.752
88897W        W54157  37.241  10.794  11.470
88898W        W54158  24.632  25.603   2.254
88899W        W54159   4.219  13.640  11.678
88900W        W54160  31.195  31.221   4.682
88901W        W54161  25.741  13.121   0.521
88902W        W54162  21.120   6.796  10.761
88903W        W54163   2.809  33.543   1.537
88904W        W54164   5.974  42.403  14.396
88905W        W54165   1.673  28.943  12.380
88906W        W54166   3.935  32.870  12.606
88907W        W54167   7.309  18.034  12.085
88908W        W54168   2.671  16.594   1.281
88909W        W54169  26.436  39.858   1.899
88910W        W54170  39.243   5.171   0.335
88911W        W54171  23.023  20.620  12.558
88912W        W54172  30.213  43.521  14.494
88913W        W54173   3.888   0.792  11.867
88914W        W54174  23.544  11.504  13.882
88915W        W54175  29.472  38.008  11.823
88916W        W54176  34.741  40.276   4.716
88917W        W54177   8.741   6.930   2.812
88918W        W54178  18.037  29.059  13.815
88919W        W54179  12.247  44.958  14.056
88920W        W54180  20.559  36.219   0.239
88921W        W54181  34.933  42.559  11.642
88922W        W54182  25.108  32.611  13.796
88923W        W54183  15.668  28.727  10.682
88924W        W54184   0.552  16.674   0.971
88925W        W54185  40.403  35.415  12.962
88926W        W54186   4.344  34.985   2.432
88927W        W54187  32.925  33.484   4.815
88928W        W54188  40.075  13.228  12.064
88929W        W54189  13.363  38.661   4.778
88930W        W54190  20.619  16.699   2.340
88931W        W54191  30.644   0.821  12.890
88932W        W54192  42.763  26.576  11.972
88933W        W54193  31.504  32.905   3.784
88934W        W54194  37.004  19.887   4.978
88935W        W54195  11.792   5.709   2.338
88936W        W54196  22.311  21.127   3.155
88937W        W54197   2.870  29.616   1.953
88938W        W54198  19.683  38.526   4.138
88939W        W54199   2.175  33.500  11.075
88940W        W54200  37.406  34.729  12.121
88941W        W54201   5.597  34.521  11.783
88942W        W54202  11.875  42.230  13.902
88943W        W54203  18.715   2.875   0.875
88944W        W54204   8.884  33.166  14.258
88945W        W54205  29.065  26.987   3.279
88946W        W54206  17.196  19.476  13.376
88947W        W54207  41.339   3.393   4.340
88948W        W54208  21.997  13.246   1.210
88949W        W54209  32.075  43.321  14.486
88950W        W54210  14.355  13.989   0.485
88951W        W54211  10.681  36.274   3.331
88952W        W54212  11.567  37.150  12.043
88953W        W54213  39.267  10.748   3.561
88954W        W54214   7.058  16.422   3.650
88955W        W54215   2.226   1.290   3.744
88956W        W54216  19.079  22.663   0.808
88957W        W54217  41.300  19.634  14.542
88958W        W54218  15.546   7.290  11.316
88959W        W54219  35.599  44.458   0.336
88960W        W54220   2.790  27.309  14.795
88961W        W54221  41.743  12.654  10.456
88962W        W54222   1.992  28.344   0.795
88963W        W54223  27.232   3.786  12.629
88964W        W54224  37.658   8.877  14.464
88965W        W54225  35.540  29.373  11.935
88966W        W54226  16.429   3.399   2.626
88967W        W54227  31.148  28.514   4.239
88968W        W54228  36.551  42.236   1.322
88969W        W54229  16.249  30.549  11.434
88970W        W54230   2.029  42.255  14.726
88971W        W54231  24.743  44.894   2.525
88972W        W54232   3.199  10.762   0.902
88973W        W54233   0.375   2.763  13.394
88974W        W54234  21.124   0.324   0.651
88975W        W54235   7.129  20.264  12.961
88976W        W54236  21.262   0.901  14.589
88977W        W54237  22.394  17.372   2.243
88978W        W54238  18.214  26.216  10.698
88979W        W54239  25.703  18.965   0.022
88980W        W54240  11.412   4.362   4.680
88981W        W54241  30.869  26.618   0.361
88982W        W54242  22.225   4.323  13.906
88983W        W54243   8.009  21.058   0.502
88984W        W54244  39.547  15.146  12.291
88985W        W54245   0.065  41.847  13.855
88986W        W54246  23.472  37.605  13.441
88987W        W54247  22.440  10.833   2.700
88988W        W54248   3.056  44.287   5.047
88989W        W54249  35.139  28.868  13.530
88990W        W54250  15.929  26.575   4.445
88991W        W54251  31.018  40.654   4.301
88992W        W54252  33.010  16.647  12.630
88993W        W54253  29.955   5.705   3.347
88994W        W54254  36.052  28.177   1.753
88995W        W54255  43.575  33.018   2.094
88996W        W54256  31.035  13.789  13.973
88997W        W54257  38.005  22.109   0.294
88998W        W54258   7.896  23.465   3.927
88999W        W54259  43.510  30.507  13.252
89000W        W54260   5.112   5.277   3.075
89001W        W54261   3.929  19.779  11.924
89002W        W54262   7.814  14.025   4.033
89003W        W54263  41.445  27.098   2.665
89004W        W54264  41.551   7.465  11.198
89005W        W54265  37.073   1.727  13.481
89006W        W54266  19.492  25.616  13.884
89007W        W54267  10.836  17.324   1.247
89008W        W54268  42.872  35.053  14.446
89009W        W54269   0.534   5.892   4.689
89010W        W54270  38.043  39.730   2.002
89011W        W54271  36.080  40.428  10.520
89012W        W54272   3.605  30.972   2.700
89013W        W54273  12.783   5.964   1.812
89014W        W54274  31.404  23.224   0.433
89015W        W54275  37.049   1.997  14.941
89016W        W54276  15.743   5.840  12.806
89017W        W54277   2.894  17.088  13.556
89018W        W54278  27.729  17.234   4.224
89019W        W54279  15.949  38.388  11.249
89020W        W54280  22.198  39.425   4.141
89021W        W54281  35.576  27.052  12.519
89022W        W54282  13.301  12.197   1.821
89023W        W54283  25.748  22.742   4.141
89024W        W54284  23.516   3.042  10.338
89025W        W54285  22.686  25.140   2.869
89026W        W54286  33.631  40.514  12.073
89027W        W54287  35.819  19.020  14.352
89028W        W54288  30.704  24.872  10.822
89029W        W54289   7.451  44.778  13.882
89030W        W54290   2.234  31.432   1.377
89031W        W54291  26.890  19.533   0.978
89032W        W54292  31.475  38.894   0.105
89033W        W54293   8.775   6.997  10.562
89034W        W54294   1.492  26.475   0.980
89035W        W54295  35.273  34.238  11.547
89036W        W54296  13.683  27.711  10.638
89037W        W54297  41.779  27.589   1.768
89038W        W54298  42.953  10.336  13.073
89039W        W54299  35.139  43.331   0.318
89040W        W54300  35.595   6.512   2.740
89041W        W54301   2.776  34.717  11.120
89042W        W54302  24.915  41.868   4.578
89043W        W54303  30.070   1.980   1.322
89044W        W54304   5.435  22.984  11.110
89045W        W54305   5.472  26.008  14.534
89046W        W54306   4.798  28.633   1.953
89047W        W54307  20.516  43.902  11.617
89048W        W54308   5.586  42.763   1.513
89049W        W54309   0.428   9.458  14.434
89050W        W54310  13.758  28.208  14.438
89051W        W54311  29.224  26.609  13.124
89052W        W54312  27.538   8.646   4.729
89053W        W54313  38.513  27.104   1.179
89054W        W54314  41.075  37.433  10.551
89055W        W54315  15.736  15.253  10.465
89056W        W54316   4.835  17.751   0.355
89057W        W54317  11.486   3.875   0.884
89058W        W54318  33.122  23.587  13.793
89059W        W54319  14.181  14.929   2.583
89060W        W54320  39.616   7.686   1.876
89061W        W54321  26.113  35.165   0.276
89062W        W54322   7.206   9.955   0.801
89063W        W54323   2.021  18.663   2.797
89064W        W54324  32.610  21.230   3.264
89065W        W54325  10.698   4.534   3.758
89066W        W54326   9.210  18.883   2.887
89067W        W54327  23.996  19.227   2.782
89068W        W54328  42.555  39.179   0.849
89069W        W54329   7.192  25.179  10.808
89070W        W54330  23.952  37.959  11.657
89071W        W54331  41.429  27.451  13.484
89072W        W54332  18.540  40.876  13.273
89073W        W54333  43.561  40.857  14.904
89074W        W54334  35.350  34.522  11.941
89075W        W54335  15.616   6.172  13.645
89076W        W54336  21.288  22.620  10.709
89077W        W54337  37.532  22.821   2.556
89078W        W54338   6.720  11.829  10.791
89079W        W54339  22.177  42.273   3.685
89080W        W54340  25.485  39.432  13.468
89081W        W54341  44.363  44.508  14.035
89082W        W54342  36.040  25.633   0.512
89083W        W54343  35.028  15.634   3.101
89084W        W54344  34.867  43.154  13.250
89085W        W54345  10.454   5.387  13.340
89086W        W54346  34.641  38.318   1.647
89087W        W54347  18.186  30.969  11.228
89088W        W54348  43.394  39.517   1.223
89089W        W54349  32.040  23.521   1.008
89090W        W54350  12.733  26.720   0.806
89091W        W54351   2.688  34.128  12.612
89092W        W54352  42.561  36.858  12.137
89093W        W54353   5.815   0.429  14.252
89094W        W54354   9.654  29.602   3.221
89095W        W54355   1.188  37.883   1.664
89096W        W54356  26.307   5.200   3.730
89097W        W54357   0.820   5.758  10.565
89098W        W54358  20.408  25.486  14.872
89099W        W54359  33.112  25.211  12.909
89100W        W54360  14.221  43.302  13.014
89101W        W54361  36.894  10.704  14.351
89102W        W54362   6.627   7.792  14.136
89103W        W54363   6.377  13.316  10.761
89104W        W54364   3.180  40.855  10.727
89105W        W54365   0.411  19.795   3.675
89106W        W54366  28.030  39.565  10.219
89107W        W54367  18.613  20.068   1.134
89108W        W54368  23.725   0.411   1.961
89109W        W54369  29.731  29.523   2.715
89110W        W54370  17.314  38.936   0.017
89111W        W54371  26.112  24.449   4.708
89112W        W54372  14.963  10.269   2.282
89113W        W54373   7.351  42.959   1.810
89114W        W54374  24.567  15.213  12.919
89115W        W54375  13.443  42.735   5.237
89116W        W54376  27.453  26.598  10.933
89117W        W54377  35.555  18.585   4.084
89118W        W54378   4.571  35.892  13.046
89119W        W54379  24.603  29.431  12.650
89120W        W54380  37.363   4.274  14.897
89121W        W54381  31.035  39.353  12.223
89122W        W54382  33.908   8.180   4.083
89123W        W54383  43.077   1.955   2.221
89124W        W54384  32.683  35.198  13.705
89125W        W54385  38.626  18.067  14.405
89126W        W54386   3.570  34.162   2.400
89127W        W54387  27.945  14.795   0.876
89128W        W54388  25.648  17.303   0.981
89129W        W54389  23.219   8.993   1.659
89130W        W54390   6.230  36.994  12.700
89131W        W54391  34.372   2.821   3.238
89132W        W54392  17.613  16.142  14.572
89133W        W54393  28.538  25.204   4.067
89134W        W54394  27.995   6.019  13.481
89135W        W54395  27.912  10.263  14.401
89136W        W54396  13.906  38.127   2.745
89137W        W54397  21.106   5.641   2.869
89138W        W54398   7.296  12.784   3.889
89139W        W54399  25.990  25.306  10.066
89140W        W54400  30.686   4.813  13.927
89141W        W54401   1.278   9.329  13.021
89142W        W54402  27.535  42.817  11.074
89143W        W54403   6.638   1.756  13.050
89144W        W54404  36.922   2.622  12.271
89145W        W54405  34.573  26.998   4.680
89146W        W54406  28.068   9.694   3.152
89147W        W54407  20.990   4.238   4.691
89148W        W54408  44.769   8.318   3.385
89149W        W54409   0.720  22.619   2.033
89150W        W54410  16.268  26.011   3.828
89151W        W54411  15.599   1.939  10.750
89152W        W54412  28.603   0.239   1.804
89153W        W54413  17.794  27.134  13.862
89154W        W54414   1.446  13.314  11.913
89155W        W54415  42.673  27.085   2.965
89156W        W54416  31.092  42.906  11.656
89157W        W54417  11.759  41.538   1.375
89158W        W54418  26.165  36.539  11.976
89159W        W54419  28.737  16.600  11.372
89160W        W54420  19.418  12.427  10.752
89161W        W54421  38.032  43.447  14.309
89162W        W54422   9.371  12.722   3.392
89163W        W54423   4.215  28.232   1.247
89164W        W54424  14.153  29.524  11.055
89165W        W54425  26.234  37.343   2.633
89166W        W54426  17.093  25.457   0.381
89167W        W54427  25.850  19.996   0.702
89168W        W54428  22.126   9.940  12.171
89169W        W54429   6.196  44.418   2.341
89170W        W54430  30.247  44.013   4.475
89171W        W54431  25.829  33.602   4.462
89172W        W54432   3.425  21.430  13.547
89173W        W54433  15.837   6.033   1.221
89174W        W54434  40.335  22.944   4.746
89175W        W54435  10.265  28.657   1.361
89176W        W54436   7.445  10.389   1.938
89177W        W54437  25.897  41.511   1.317
89178W        W54438  37.248  25.633  13.478
89179W        W54439  37.416  28.030  10.908
89180W        W54440  36.997  32.191   1.412
89181W        W54441  14.399  12.555   2.860
89182W        W54442  42.960  17.845  12.478
89183W        W54443  13.453  10.116   4.363
89184W        W54444  17.682  41.753  14.561
89185W        W54445   9.720  41.165  11.912
89186W        W54446  44.598  21.818  11.069
89187W        W54447  25.504  36.134   2.872
89188W        W54448  18.104  23.542  11.617
89189W        W54449   0.561  37.049   2.755
89190W        W54450   0.832  35.448  11.544
89191W        W54451  16.099  40.555   3.432
89192W        W54452  26.520  41.284   0.275
89193W        W54453  19.348   2.480  13.034
89194W        W54454  36.948  11.471   1.450
89195W        W54455  32.541   2.358  10.762
89196W        W54456  43.786  34.893   3.293
89197W        W54457  44.704   7.176   2.265
89198W        W54458   3.903  43.395   4.596
89199W        W54459  34.588  31.552   1.245
89200W        W54460   2.700  32.981  11.712
89201W        W54461  44.155  10.078  14.039
89202W        W54462  24.177  23.021   0.814
89203W        W54463  17.596  30.442  13.422
89204W        W54464  34.330  44.503   0.885
89205W        W54465  34.389  35.380  14.317
89206W        W54466  28.008  30.670   1.838
89207W        W54467  31.678   5.993   0.779
89208W        W54468   2.835  25.225  13.822
89209W        W54469   5.386   8.323   4.167
89210W        W54470  13.812  31.182  10.808
89211W        W54471   1.290   4.915   0.979
89212W        W54472   6.684  39.109  12.603
89213W        W54473  31.893  20.839   2.889
89214W        W54474  16.176  12.276  12.449
89215W        W54475   2.453  40.733   3.714
89216W        W54476  38.763   6.644   3.284
89217W        W54477   3.420   4.854  12.893
89218W        W54478  33.458  28.873   4.538
89219W        W54479  25.550   9.680   3.806
89220W        W54480   9.132  32.073   1.738
89221W        W54481   8.720  39.721  12.159
89222W        W54482  31.923  35.294  13.938
89223W        W54483  16.568  25.437   3.589
89224W        W54484  14.125  40.563   4.903
89225W        W54485  40.797  43.958  10.989
89226W        W54486   1.957  10.759  10.841
89227W        W54487  16.620  15.106  13.131
89228W        W54488   3.931   5.873   1.903
89229W        W54489  23.728  26.736  12.892
89230W        W54490  20.021  10.314   2.350
89231W        W54491  34.107   3.838  12.777
89232W        W54492  40.523   6.429   3.461
89233W        W54493  36.447  37.476  10.786
89234W        W54494  10.063  39.938   1.481
89235W        W54495   8.841  22.961   1.328
89236W        W54496   8.956  31.582   9.851
89237W        W54497  22.523   1.327  10.541
89238W        W54498  24.064  10.268  13.574
89239W        W54499   7.447   7.125  14.502
89240W        W54500  31.065  18.240   1.234
89241W        W54501  20.260  38.107   3.187
89242W        W54502  27.196  14.758  14.831
89243W        W54503  25.741   6.737  11.255
89244W        W54504  38.146  24.756  11.033
89245W        W54505  13.113   8.196   2.878
89246W        W54506   6.986  42.193   0.304
89247W        W54507  41.455  33.563  11.791
89248W        W54508  30.098  35.427  12.750
89249W        W54509   2.927  40.334   1.171
89250W        W54510  23.758  40.941   1.042
89251W        W54511   8.454  19.810  12.468
89252W        W54512  36.835  33.532  12.116
89253W        W54513   9.420   2.184  14.813
89254W        W54514  30.343  12.651   4.566
89255W        W54515  15.576  26.896  10.007
89256W        W54516  26.456   9.667   0.399
89257W        W54517  19.097   3.217   4.628
89258W        W54518  13.930  36.349   0.831
89259W        W54519   5.378  32.049   1.979
89260W        W54520  23.312  12.648   1.258
89261W        W54521  23.617  37.257   1.159
89262W        W54522  23.654  21.080  13.510
89263W        W54523   4.555  37.529  13.506
89264W        W54524  12.519  20.158  11.602
89265W        W54525  34.314  13.085   1.267
89266W        W54526   0.057  19.274   1.113
89267W        W54527  26.890  13.769  14.281
89268W        W54528   4.803  22.689  12.641
89269W        W54529   9.340  22.173  10.776
89270W        W54530  21.494  13.104   4.310
89271W        W54531  33.548  10.123   2.830
89272W        W54532  27.951  15.281  12.382
89273W        W54533  38.879   5.677   2.267
89274W        W54534  40.046  11.254  14.754
89275W        W54535  43.797  29.643   3.195
89276W        W54536  11.607  15.564   3.231
89277W        W54537  28.052  31.057  10.188
89278W        W54538  21.158   7.849  12.013
89279W        W54539  17.993  36.293  11.124
89280W        W54540  26.248   3.366   0.622
89281W        W54541  16.336  39.523   3.349
89282W        W54542  11.700  14.618  12.383
89283W        W54543  38.042  24.735   4.282
89284W        W54544  43.694  17.712  12.793
89285W        W54545  16.722   8.306   4.133
89286W        W54546  33.571   0.058   1.650
89287W        W54547  24.004  15.854  12.028
89288W        W54548  20.149   9.874   1.477
89289W        W54549   4.754  34.847   0.850
89290W        W54550  25.901  16.030   2.192
89291W        W54551  38.441   3.898  11.980
89292W        W54552  20.470  27.643   4.110
89293W        W54553  23.537  44.877   3.676
89294W        W54554  39.418  12.091  13.449
89295W        W54555  12.255  21.888  13.007
89296W        W54556  25.157  18.604  13.543
89297W        W54557  11.689  17.824  11.625
89298W        W54558  38.324  32.527   4.544
89299W        W54559  44.470   9.386  12.389
89300W        W54560  29.389  10.899  14.319
89301W        W54561   8.798  14.395   1.283
89302W        W54562  16.581  12.396   2.173
89303W        W54563   3.547   4.153   2.517
89304W        W54564  27.488  16.600   1.014
89305W        W54565  25.032  22.071  11.969
89306W        W54566  27.751  23.671   2.826
89307W        W54567  35.054  19.496  12.246
89308W        W54568   9.888   3.933   0.984
89309W        W54569  14.750  17.881   3.328
89310W        W54570   1.841   3.202  14.462
89311W        W54571   7.355   0.016   1.348
89312W        W54572  32.194  18.802   3.578
89313W        W54573  28.318   4.736  12.995
89314W        W54574  25.347  24.202   4.706
89315W        W54575  31.629  31.729  13.542
89316W        W54576  29.637  41.070   5.085
89317W        W54577  21.719  44.144   2.178
89318W        W54578  12.860  43.076  11.851
89319W        W54579  26.617  23.125   1.793
89320W        W54580  12.679  13.431   1.826
89321W        W54581  30.553   7.332   0.296
89322W        W54582   1.124   6.820   0.202
89323W        W54583  33.761   8.319  10.424
89324W        W54584  29.833   9.856   2.637
89325W        W54585  10.219  14.808   4.661
89326W        W54586   7.243  43.180   3.367
89327W        W54587  18.306  42.807   4.829
89328W        W54588  13.226   6.249  14.224
89329W        W54589  41.276  10.256  10.613
89330W        W54590  29.872  19.742  11.561
89331W        W54591   9.430  31.046   0.674
89332W        W54592  30.642  41.572   3.591
89333W        W54593  11.624  43.868   0.346
89334W        W54594  29.058   2.184  13.890
89335W        W54595  43.046   1.326  10.681
89336W        W54596   9.951  23.453   3.113
89337W        W54597   0.447  11.177   0.323
89338W        W54598   6.676  27.139  11.581
89339W        W54599  44.676  14.040   2.573
89340W        W54600  34.553   8.817   2.355
89341W        W54601  19.034  12.218   4.440
89342W        W54602  26.871   7.763  11.527
89343W        W54603  35.814   3.810  11.024
89344W        W54604   8.191   2.451  10.879
89345W        W54605  20.500  32.642  11.912
89346W        W54606  40.853  35.874  14.491
89347W        W54607  31.967   1.262  13.549
89348W        W54608  11.170  10.886   2.251
89349W        W54609   0.738   1.434  13.544
89350W        W54610  28.004  16.145   4.395
89351W        W54611  26.618  18.477  11.422
89352W        W54612   0.898  42.725   4.318
89353W        W54613  39.130   0.919   1.300
89354W        W54614  25.999  40.851   3.550
89355W        W54615   5.361  23.212  10.658
89356W        W54616   8.355  19.599   4.555
89357W        W54617  28.204   9.318  12.539
89358W        W54618  27.008  11.037   1.297
89359W        W54619  44.778  22.117  13.977
89360W        W54620   3.521  23.607   1.431
89361W        W54621  19.741   4.910   2.724
89362W        W54622   1.284  15.181  10.939
89363W        W54623  26.099  40.327   0.811
89364W        W54624  34.336  42.317   3.618
89365W        W54625  34.920  35.435  13.641
89366W        W54626  44.968  15.288  13.369
89367W        W54627  10.366   7.409  14.945
89368W        W54628  23.318  11.096   0.345
89369W        W54629  16.562   0.000  14.844
89370W        W54630  44.908  17.709  12.882
89371W        W54631  11.920  16.351  11.042
89372W        W54632  32.075  37.743  11.654
89373W        W54633  43.006  12.740   3.234
89374W        W54634  10.320  42.923  10.195
89375W        W54635  30.301  10.844  13.079
89376W        W54636  33.938  40.885   4.083
89377W        W54637  43.153  29.368   0.012
89378W        W54638   7.169  42.331   3.527
89379W        W54639   3.383  21.796  13.920
89380W        W54640  36.346  35.395  11.916
89381W        W54641  25.127  22.992   0.477
89382W        W54642  13.572  22.655  14.355
89383W        W54643  36.012  36.976   0.324
89384W        W54644   6.511  32.147   3.110
89385W        W54645  35.433  41.978   0.387
89386W        W54646  35.643  41.899   1.327
89387W        W54647  25.120  31.986   0.505
89388W        W54648  37.014  37.374   0.672
89389W        W54649  31.034   7.215   2.402
89390W        W54650  14.214  20.536  13.032
89391W        W54651   2.816  30.014   1.591
89392W        W54652  24.662  35.133  13.126
89393W        W54653  11.910   0.705   4.944
89394W        W54654  19.626  15.965   4.573
89395W        W54655  11.608  37.836   3.675
89396W        W54656  20.484  31.192   0.477
89397W        W54657  41.370  20.688  10.808
89398W        W54658  23.167  32.882   4.127
89399W        W54659  36.929  33.017  10.614
89400W        W54660   7.264  33.600   1.384
89401W        W54661  18.071  39.090  12.484
89402W        W54662  37.076  44.967   1.224
89403W        W54663  39.712  22.843  11.432
89404W        W54664  24.767  25.063   0.033
89405W        W54665  23.113   9.648  11.103
89406W        W54666  27.540  35.600   3.782
89407W        W54667  36.836  15.015  12.944
89408W        W54668  18.457  43.096   2.641
89409W        W54669  43.228  30.693  11.398
89410W        W54670  21.599  34.167  12.053
89411W        W54671  31.725   4.662  14.055
89412W        W54672   5.274   9.803   1.138
89413W        W54673  36.041  31.236  14.402
89414W        W54674  15.790  36.466   1.508
89415W        W54675   9.931  18.574   3.103
89416W        W54676  15.985  20.572   1.282
89417W        W54677   9.357  38.244   1.679
89418W        W54678  11.073  16.783   1.744
89419W        W54679  24.656  36.081   1.412
89420W        W54680  37.984   2.867  12.254
89421W        W54681   3.359  17.796   4.601
89422W        W54682  34.332  42.043   1.031
89423W        W54683  30.475   1.892  12.478
89424W        W54684  19.513  26.245   4.065
89425W        W54685  30.593  40.641   4.025
89426W        W54686  41.842   9.053  11.060
89427W        W54687  23.379  28.181  10.682
89428W        W54688  34.435  10.331   1.759
89429W        W54689   1.422   3.772  14.831
89430W        W54690  30.625   0.224   4.522
89431W        W54691  21.544  11.715   3.773
89432W        W54692   3.611  43.858   4.617
89433W        W54693  30.017  43.493   3.186
89434W        W54694   4.795  18.551   1.315
89435W        W54695   5.017  28.879  10.449
89436W        W54696  11.215  21.159  12.395
89437W        W54697  37.982  12.807  10.759
89438W        W54698  11.969  30.396  12.465
89439W        W54699   6.785  17.194   4.146
89440W        W54700  42.701  12.308  13.231
89441W        W54701   8.838  35.544   1.866
89442W        W54702  34.506  18.986   3.082
89443W        W54703  25.938   9.372  13.141
89444W        W54704  28.576  25.141  11.634
89445W        W54705  13.512  11.110   5.072
89446W        W54706  25.629  29.066  12.639
89447W        W54707  34.921   2.526  11.346
89448W        W54708  10.807  18.270   0.314
89449W        W54709  34.623  31.227  11.006
89450W        W54710   7.292  16.796   0.461
89451W        W54711   5.450  37.378   1.983
89452W        W54712  36.912   1.693  12.545
89453W        W54713  17.236  12.196   4.751
89454W        W54714  35.393  25.433   2.954
89455W        W54715   0.417  33.297  13.503
89456W        W54716  16.643  19.850  12.594
89457W        W54717  41.039  33.573  14.871
89458W        W54718   6.587   9.241   0.407
89459W        W54719  12.291   6.796  12.309
89460W        W54720   4.884  30.417   0.026
89461W        W54721  14.832  41.406   3.795
89462W        W54722  16.913   7.099  14.945
89463W        W54723  26.009  30.508   2.925
89464W        W54724  15.700  31.369   3.513
89465W        W54725   2.862  11.862   1.771
89466W        W54726  22.728  11.780  13.025
89467W        W54727  27.498  11.428  12.284
89468W        W54728  17.371  41.106  11.587
89469W        W54729  12.445  10.221   5.234
89470W        W54730   0.644  29.297   2.688
89471W        W54731   9.051  31.124  12.976
89472W        W54732  38.340  41.490   0.687
89473W        W54733  24.179  10.637   4.950
89474W        W54734  20.241  26.435   2.810
89475W        W54735  19.082  22.573   2.290
89476W        W54736  22.313  38.118   0.760
89477W        W54737  41.406  18.652   2.279
89478W        W54738  21.824  29.004   4.097
89479W        W54739  32.841   4.383   1.925
89480W        W54740  12.287  28.762   0.966
89481W        W54741  35.252  26.079  12.648
89482W        W54742  21.582  33.211   2.139
89483W        W54743   5.654   1.798   0.725
89484W        W54744  10.717  18.768   0.438
89485W        W54745  42.437  28.767   2.774
89486W        W54746  30.569  36.833   3.754
89487W        W54747   1.506  35.964  14.393
89488W        W54748  20.122  13.848  13.418
89489W        W54749  19.710  37.874  11.916
89490W        W54750  19.585   7.471   4.568
89491W        W54751  21.968   8.227   4.685
89492W        W54752  31.019  38.446  11.565
89493W        W54753   1.314  18.879  14.911
89494W        W54754   5.960  40.001  14.873
89495W        W54755  44.265  44.735  14.711
89496W        W54756  21.136  20.507  12.658
89497W        W54757  39.711  18.291  12.525
89498W        W54758  24.665  38.987   1.228
89499W        W54759  27.316   5.531  12.554
89500W        W54760  20.796  22.123   4.730
89501W        W54761  28.067   8.603   2.005
89502W        W54762   6.195  25.731   0.102
89503W        W54763  31.377   9.992  11.585
89504W        W54764  26.309  15.144   2.434
89505W        W54765  21.620  10.756   3.424
89506W        W54766  27.141   6.324   4.071
89507W        W54767  17.804  14.672  10.943
89508W        W54768  19.033  42.343   2.759
89509W        W54769  38.374  28.923  11.461
89510W        W54770  20.746  34.149   2.269
89511W        W54771   3.636   5.816   3.868
89512W        W54772   3.643  42.969   3.832
89513W        W54773  13.185  32.630  12.334
89514W        W54774  41.737   4.352   2.269
89515W        W54775  10.935   6.647   2.209
89516W        W54776   3.102  37.302  12.022
89517W        W54777  26.895  24.893   0.919
89518W        W54778  25.060  35.869   2.682
89519W        W54779  31.010   8.617   0.609
89520W        W54780  40.263  23.645  10.100
89521W        W54781  31.923  42.239   2.732
89522W        W54782   9.310   5.870   4.244
89523W        W54783  26.740  22.092  14.397
89524W        W54784  44.113  26.908   1.240
89525W        W54785  25.173  28.990  13.170
89526W        W54786   9.734  37.080   2.708
89527W        W54787  10.488  44.731  14.192
89528W        W54788  31.585  30.262  11.417
89529W        W54789   2.476   6.928   0.266
89530W        W54790   5.989  10.315   1.465
89531W        W54791  39.274  13.364  13.009
89532W        W54792  15.215   7.839  10.597
89533W        W54793  15.249  38.623   1.252
89534W        W54794   9.331  25.729   0.830
89535W        W54795   0.845   1.901   4.117
89536W        W54796   7.848  27.751  14.870
89537W        W54797  32.675  17.768  12.092
89538W        W54798  14.673  44.625  13.495
89539W        W54799  29.465   7.193  14.398
89540W        W54800  11.836  19.223  14.740
89541W        W54801  31.509  40.946  10.770
89542W        W54802  33.942  15.569  14.002
89543W        W54803  21.281   6.943  14.345
89544W        W54804   0.472  14.699   4.580
89545W        W54805  38.152  14.669   1.359
89546W        W54806   5.383  20.769   3.721
89547W        W54807  32.911  28.989   2.228
89548W        W54808   8.361  41.793   3.282
89549W        W54809  11.657  15.091   2.455
89550W        W54810  40.906   5.185   3.862
89551W        W54811   0.259  21.826  14.785
89552W        W54812  36.554  41.256  13.383
89553W        W54813   1.313  26.988   1.860
89554W        W54814  41.503  37.479   4.518
89555W        W54815   9.664  23.654   0.418
89556W        W54816  21.710  20.833   4.896
89557W        W54817   5.482  24.472  12.842
89558W        W54818  39.820  36.258   2.560
89559W        W54819  17.052  44.026   4.092
89560W        W54820  34.578   1.234  12.495
89561W        W54821   8.274  36.560  14.543
89562W        W54822  19.554  16.040   4.080
89563W        W54823  16.761  43.966  10.913
89564W        W54824  22.758  23.298  13.545
89565W        W54825  17.294  37.001   3.719
89566W        W54826   5.997   2.484   2.190
89567W        W54827  19.823  29.016   2.219
89568W        W54828   6.322  22.761   1.043
89569W        W54829  34.553   1.340   4.518
89570W        W54830  22.137  13.543  11.228
89571W        W54831  24.164  10.330   2.299
89572W        W54832  27.690  23.115   0.852
89573W        W54833  12.314  10.894  13.227
89574W        W54834   2.897  38.120  14.306
89575W        W54835  44.037  14.711  10.803
89576W        W54836   5.788  21.736   4.439
89577W        W54837  10.732   9.953   2.711
89578W        W54838  40.283  17.232  12.042
89579W        W54839  44.860  10.640   4.095
89580W        W54840  13.224  44.378  11.438
89581W        W54841   7.698  25.809  13.115
89582W        W54842  44.244  10.616  12.110
89583W        W54843  29.811  28.150   9.975
89584W        W54844  43.925  43.011   4.649
89585W        W54845  40.212   8.950   3.818
89586W        W54846  14.798  35.555  12.035
89587W        W54847  25.382  20.486   0.331
89588W        W54848  27.628  39.947   3.526
89589W        W54849  35.117  27.432  11.099
89590W        W54850  12.636  35.605   2.707
89591W        W54851  31.014  31.683   4.536
89592W        W54852  39.995   2.695   2.717
89593W        W54853  32.029  29.450  13.819
89594W        W54854  18.894  10.258  11.563
89595W        W54855  40.865  34.711   1.302
89596W        W54856  16.070  25.057  11.199
89597W        W54857   3.490  22.726  10.693
89598W        W54858  36.353   8.909   0.720
89599W        W54859  34.922  35.454  14.165
89600W        W54860   7.278  25.602   4.098
89601W        W54861  33.498  23.687   2.793
89602W        W54862  28.089  12.793   1.868
89603W        W54863   1.904   6.371  14.932
89604W        W54864  37.015  13.894   1.302
89605W        W54865  22.652  43.861   2.162
89606W        W54866   6.843  24.972  12.164
89607W        W54867  39.180  11.364  10.263
89608W        W54868   1.931  33.638  13.150
89609W        W54869  18.104  40.449  14.400
89610W        W54870  26.052  38.777   3.854
89611W        W54871   6.442  30.432  12.854
89612W        W54872   1.025  11.247   2.549
89613W        W54873  35.928  28.031   4.652
89614W        W54874  13.436  30.197  13.879
89615W        W54875  37.577  25.723  13.109
89616W        W54876  16.336  35.598   3.314
89617W        W54877  15.401   4.004  14.721
89618W        W54878  17.853   7.789   1.876
89619W        W54879  43.211  19.295  12.327
89620W        W54880  11.668   0.370   1.915
89621W        W54881  12.349  14.274  13.407
89622W        W54882  17.325   0.802   4.378
89623W        W54883  24.509  42.947   3.726
89624W        W54884  19.834   8.659   1.295
89625W        W54885  15.615  30.882   1.393
89626W        W54886  18.141  16.528  11.187
89627W        W54887  21.363  22.040   2.741
89628W        W54888  41.878   9.260   1.868
89629W        W54889  33.949  10.445  12.905
89630W        W54890  37.066   0.473  11.753
89631W        W54891   8.625  27.088  14.996
89632W        W54892  26.739  44.335  12.911
89633W        W54893  33.395  11.594  11.643
89634W        W54894  43.237  40.443  14.819
89635W        W54895   1.245   2.771   1.651
89636W        W54896  14.811  22.857   5.089
89637W        W54897  32.526  30.264  14.780
89638W        W54898   9.237  16.251   2.371
89639W        W54899  26.552  26.701  11.023
89640W        W54900  35.816  11.192  13.377
89641W        W54901  18.515  23.680   0.435
89642W        W54902   4.258  21.643   1.841
89643W        W54903  23.754   2.605   1.382
89644W        W54904   5.648   4.841  12.491
89645W        W54905   7.632  39.909  14.344
89646W        W54906  31.239  22.426   4.498
89647W        W54907  37.822  40.088   0.750
89648W        W54908  34.564  12.264  13.259
89649W        W54909   3.447  18.312  13.470
89650W        W54910  30.378  16.831   1.234
89651W        W54911  41.968  31.396  13.732
89652W        W54912  17.339  36.442  11.461
89653W        W54913  22.138  23.547   3.367
89654W        W54914   5.751  40.234   0.338
89655W        W54915  44.484  34.027  10.427
89656W        W54916   4.880   8.747   0.775
89657W        W54917  21.168  39.320   4.240
89658W        W54918  44.281  12.932  10.749
89659W        W54919  41.343  23.254   0.368
89660W        W54920   1.726  16.142  13.961
89661W        W54921  26.751  34.829   0.762
89662W        W54922   6.325  28.797   5.103
89663W        W54923  38.933  10.440  12.531
89664W        W54924  41.705  28.168  14.014
89665W        W54925  30.823  37.611   3.763
89666W        W54926  31.449   5.922  12.061
89667W        W54927   7.876   7.292   2.723
89668W        W54928  31.597  18.704  11.083
89669W        W54929  25.788  30.103   2.634
89670W        W54930  44.906  32.157   3.181
89671W        W54931  25.351  18.172  11.336
89672W        W54932  43.886  35.338  13.025
89673W        W54933   6.455  11.375   0.890
89674W        W54934  28.655  40.756   4.305
89675W        W54935  19.177  27.970  11.508
89676W        W54936   7.797  33.563   2.815
89677W        W54937  36.372   2.968  12.436
89678W        W54938  14.252  19.222  11.481
89679W        W54939   9.200  44.125  12.522
89680W        W54940  15.543  20.669  13.580
89681W        W54941  31.126  17.063   0.938
89682W        W54942   0.818  42.872  13.471
89683W        W54943  39.869  21.516  12.122
89684W        W54944  39.865   6.746  14.517
89685W        W54945  12.662  36.389   2.159
89686W        W54946  10.203   1.884  10.675
89687W        W54947   4.887  22.073   3.560
89688W        W54948  22.168  38.063   3.263
89689W        W54949  18.065  31.881  12.117
89690W        W54950  28.560   6.535  11.690
89691W        W54951  11.443  23.673   0.863
89692W        W54952  33.154  22.650  12.009
89693W        W54953   9.210  15.621  12.938
89694W        W54954  36.533  29.139  14.888
89695W        W54955  23.778  31.419  12.666
89696W        W54956  32.129  31.069  12.956
89697W        W54957  18.184  13.846   1.338
89698W        W54958  27.401  43.031   0.944
89699W        W54959  20.211  12.570  12.828
89700W        W54960   0.318  40.402  11.622
89701W        W54961  19.468  13.172  12.897
89702W        W54962  14.522  40.284   1.187
89703W        W54963   2.068  13.315   1.127
89704W        W54964  11.189  44.531  14.757
89705W        W54965  29.544  17.435   2.447
89706W        W54966  26.892  35.554  11.473
89707W        W54967  43.219  35.768  11.147
89708W        W54968  32.162  31.247  14.725
89709W        W54969  33.506  28.360   4.414
89710W        W54970   8.835  32.065   2.750
89711W        W54971   3.393  38.712  10.845
89712W        W54972  13.518  21.042  13.173
89713W        W54973   7.824  16.328  12.807
89714W        W54974  37.863  28.541  14.687
89715W        W54975  13.753  33.680  14.383
89716W        W54976   3.513  38.220  14.831
89717W        W54977  31.518   3.858  11.949
89718W        W54978   4.434   8.018  12.144
89719W        W54979  14.289   0.956   2.120
89720W        W54980  40.966   4.790   2.219
89721W        W54981  14.450   6.217   2.413
89722W        W54982  28.205  16.197  12.952
89723W        W54983  10.389  20.013  11.497
89724W        W54984  40.033   6.742   1.286
89725W        W54985  44.462  14.888  10.555
89726W        W54986  27.499  29.144   1.296
89727W        W54987   7.420   9.340   4.464
89728W        W54988  22.918  40.463   4.176
89729W        W54989  31.815  14.823  12.549
89730W        W54990  44.549  23.415  10.089
89731W        W54991   2.838   6.024   4.588
89732W        W54992  32.904   4.334   0.023
89733W        W54993  20.110  12.758   4.298
89734W        W54994  29.445  38.510  12.588
89735W        W54995  35.934  28.649  13.008
89736W        W54996   8.309  33.003   0.469
89737W        W54997  16.791  37.322   1.230
89738W        W54998  32.032  28.201  12.775
89739W        W54999  44.011  21.088   5.165
89740W        W55000  18.808  10.760  11.496
89741W        W55001  36.830  44.776  11.548
89742W        W55002   8.358  25.142   0.234
89743W        W55003  11.106  26.021   1.229
89744W        W55004   1.828  30.924   2.744
89745W        W55005  42.014  13.785   2.179
89746W        W55006  14.656  30.158  10.708
89747W        W55007  21.747  33.410  11.644
89748W        W55008  16.118  19.031   0.181
89749W        W55009  19.024   0.690   2.218
89750W        W55010   8.493  18.045   1.010
89751W        W55011  27.469  24.024  11.203
89752W        W55012  42.366  38.354  12.874
89753W        W55013  12.154  11.543   0.785
89754W        W55014  35.474  41.874   2.805
89755W        W55015  27.950   4.550   1.617
89756W        W55016   5.258  16.030  13.926
89757W        W55017  32.194  23.237   3.671
89758W        W55018  15.655  33.207  14.890
89759W        W55019   7.088  42.909   2.391
89760W        W55020  16.453  42.445  10.730
89761W        W55021  44.033  33.109  14.922
89762W        W55022  43.557  14.078  12.890
89763W        W55023  21.048  26.677  12.045
89764W        W55024   4.134  44.774   2.819
89765W        W55025  15.186  22.475   3.695
89766W        W55026  31.631  40.945   3.786
89767W        W55027   0.417  27.080  11.614
89768W        W55028  20.744  20.794   1.281
89769W        W55029  41.005  18.740   4.393
89770W        W55030  26.005   3.835   0.701
89771W        W55031  24.509  18.062  12.581
89772W        W55032  15.483  15.235   3.734
89773W        W55033  11.262  30.655  11.656
89774W        W55034  25.587  33.122  10.400
89775W        W55035   2.663  36.938  11.091
89776W        W55036  18.133  12.863   2.791
89777W        W55037   6.292  14.768   1.832
89778W        W55038  21.532  16.571   4.941
89779W        W55039  44.240  23.688  14.356
89780W        W55040   7.690  39.496   2.455
89781W        W55041  32.965   9.504  12.051
89782W        W55042  35.190  15.153   1.921
89783W        W55043   9.335  19.775   2.986
89784W        W55044  10.346  23.200   4.651
89785W        W55045  42.336  18.425   5.148
89786W        W55046  40.979  21.466   0.329
89787W        W55047   0.898   8.795   0.385
89788W        W55048  37.829   6.821   0.799
89789W        W55049  40.308  44.448  11.617
89790W        W55050  17.954  37.903  13.645
89791W        W55051  11.248  39.290  14.313
89792W        W55052   2.635  33.428   2.413
89793W        W55053  41.434  14.454   0.407
89794W        W55054  44.295  44.625  10.856
89795W        W55055  17.291  19.646  14.726
89796W        W55056   4.215  26.538   3.013
89797W        W55057   2.202  18.616   3.287
89798W        W55058  26.466  10.331  12.220
89799W        W55059  38.527  41.758  14.486
89800W        W55060  32.488  10.330  14.048
89801W        W55061   6.170  21.017  12.934
89802W        W55062   1.801  39.734  12.388
89803W        W55063  37.842  17.586   1.203
89804W        W55064  34.052  28.583  14.914
89805W        W55065  32.608  28.143   4.055
89806W        W55066  23.049  30.697  13.461
89807W        W55067   7.650  37.823  13.882
89808W        W55068  40.727  22.743   2.864
89809W        W55069  15.269   7.946  14.003
89810W        W55070  27.240  38.511   4.106
89811W        W55071   0.330   8.748   2.360
89812W        W55072  38.555  31.197  14.376
89813W        W55073  14.710  31.493   3.812
89814W        W55074  23.063  19.280   1.726
89815W        W55075  44.958  31.504  11.436
89816W        W55076  44.048  14.682   4.595
89817W        W55077  42.999  44.726  14.941
89818W        W55078   5.201   5.269  14.066
89819W        W55079   1.804  29.147   0.366
89820W        W55080  14.668  21.706   5.016
89821W        W55081  20.996  36.938   3.270
89822W        W55082  25.787  25.176   0.993
89823W        W55083  42.469  31.660   4.149
89824W        W55084  12.863  10.817   0.836
89825W        W55085   5.284  14.406  13.791
89826W        W55086  41.712  28.928   3.751
89827W        W55087  18.865  25.599   4.903
89828W        W55088   4.799  27.167   3.332
89829W        W55089  44.386  36.006   1.330
89830W        W55090  43.850  22.963   1.408
89831W        W55091   5.027  43.684  13.410
89832W        W55092  34.356  17.216  12.621
89833W        W55093  16.329  43.068  13.891
89834W        W55094  15.243  25.072  14.487
89835W        W55095  24.052  43.450  12.018
89836W        W55096  43.755  14.163   2.121
89837W        W55097  32.678  22.056  12.422
89838W        W55098  32.790   5.718   3.112
89839W        W55099  28.830  12.911   3.703
89840W        W55100  28.972  43.454   3.573
89841W        W55101  23.060  12.643   2.615
89842W        W55102  19.096  28.937  11.424
89843W        W55103  40.633  27.179   2.164
89844W        W55104  34.017  43.458  13.502
89845W        W55105  20.673  12.632   1.350
89846W        W55106  38.959  21.558   1.881
89847W        W55107  29.520   3.214  10.065
89848W        W55108  42.265  16.908   1.165
89849W        W55109  29.990  15.301   2.942
89850W        W55110  39.608   8.397  11.056
89851W        W55111  31.588  31.026  13.051
89852W        W55112  15.504  31.355   1.629
89853W        W55113  25.314  39.539   9.709
89854W        W55114   4.778   6.221   0.023
89855W        W55115  12.921  20.089   0.923
89856W        W55116  34.465  18.551   4.581
89857W        W55117  35.978  19.014  12.064
89858W        W55118  34.664  27.654  14.886
89859W        W55119  41.789  11.218   4.537
89860W        W55120  41.433  21.748   2.229
89861W        W55121  11.091  35.380   2.117
89862W        W55122  44.522  28.123  10.839
89863W        W55123  26.983  13.408  14.626
89864W        W55124   5.285  12.355  11.132
89865W        W55125  28.641  15.438   3.077
89866W        W55126  21.062   8.743   4.718
89867W        W55127  39.874   4.677  10.680
89868W        W55128  41.030  13.232   3.651
89869W        W55129  41.310   2.332   2.643
89870W        W55130  12.120   7.002   1.316
89871W        W55131  26.510  42.983  14.485
89872W        W55132  27.516  26.696   4.605
89873W        W55133  24.746  15.488  13.893
89874W        W55134  37.843  12.843  12.785
89875W        W55135  32.653  20.864   0.388
89876W        W55136  25.392  25.695  11.861
89877W        W55137   4.803  34.523  11.885
89878W        W55138   1.677   8.841   4.125
89879W        W55139   5.271   9.918  13.338
89880W        W55140  30.194  19.035  11.124
89881W        W55141  31.178   6.252  11.771
89882W        W55142  14.237  28.389  13.791
89883W        W55143  42.286  34.036  14.747
89884W        W55144  34.067   5.776   1.292
89885W        W55145  27.597  25.722  14.206
89886W        W55146  34.481   9.872   0.858
89887W        W55147   4.178  41.950  14.433
89888W        W55148  36.946  23.105  13.966
89889W        W55149  26.966  34.038   3.210
89890W        W55150  28.948  28.980   4.946
89891W        W55151  23.493  12.878   0.232
89892W        W55152   4.350  32.767   0.448
89893W        W55153   3.379  20.103   0.427
89894W        W55154   4.349  14.736   4.169
89895W        W55155  16.109   6.312  10.565
89896W        W55156  28.303   6.808   2.414
89897W        W55157   8.801   4.663  12.908
89898W        W55158  40.460  37.379  12.441
89899W        W55159  16.728   7.189  13.551
89900W        W55160  30.562  43.736  11.855
89901W        W55161  41.467  14.767   3.876
89902W        W55162  25.606   0.877  13.970
89903W        W55163  24.655  23.523  14.074
89904W        W55164  15.113   0.431  13.078
89905W        W55165  27.450  12.463  12.449
89906W        W55166  16.699  36.611  14.570
89907W        W55167   6.682  38.573  12.501
89908W        W55168  10.249  21.022   2.927
89909W        W55169  10.790  28.044   0.857
89910W        W55170   0.828   9.370   1.034
89911W        W55171  42.498  42.290  14.354
89912W        W55172  35.374  32.911  11.598
89913W        W55173  28.139  44.725   0.326
89914W        W55174   1.795   2.185   4.087
89915W        W55175   7.184  40.098   2.108
89916W        W55176  22.701  43.340  11.701
89917W        W55177  27.399  25.470   4.127
89918W        W55178  32.463  27.880   1.768
89919W        W55179   7.396  20.711  12.799
89920W        W55180  33.844  14.303  11.182
89921W        W55181  38.889   7.259  13.450
89922W        W55182  30.338   4.311  14.917
89923W        W55183  35.439  40.429  12.829
89924W        W55184   6.071  28.086  12.888
89925W        W55185  33.634  19.042   3.068
89926W        W55186  10.090   0.108  12.036
89927W        W55187  23.057   1.136  14.928
89928W        W55188  17.737  28.389  10.605
89929W        W55189  18.141  14.843  11.573
89930W        W55190   9.653  12.804  14.356
89931W        W55191   1.640  36.712   0.722
89932W        W55192   8.675  40.956  11.510
89933W        W55193  44.486  43.686  13.061
89934W        W55194  11.101  18.561   4.028
89935W        W55195   3.395  10.880   3.624
89936W        W55196   8.502  11.741   2.487
89937W        W55197  42.896  42.762  14.062
89938W        W55198  25.369  36.170  13.490
89939W        W55199  23.713  21.216   1.774
89940W        W55200  32.199   9.952  14.235
89941W        W55201  39.571   5.223  12.182
89942W        W55202  13.216  34.608  13.069
89943W        W55203  36.887  39.696   0.827
89944W        W55204  11.419  27.757   2.237
89945W        W55205   8.133  30.254  13.323
89946W        W55206  36.274  28.247  14.880
89947W        W55207  25.421  18.273   2.180
89948W        W55208  29.432  30.140   3.338
89949W        W55209  13.186  11.662   3.203
89950W        W55210  40.248  25.473   0.889
89951W        W55211  11.898  21.514   1.303
89952W        W55212  33.927  35.523  13.425
89953W        W55213  34.515  34.470  10.565
89954W        W55214  39.960  30.791   0.947
89955W        W55215  30.211  21.662  14.043
89956W        W55216   7.886  11.607   0.742
89957W        W55217  34.436  29.660   2.052
89958W        W55218  36.969   2.221  12.644
89959W        W55219  28.058  21.389   1.609
89960W        W55220  30.184  32.123   3.356
89961W        W55221  21.530  37.042  13.472
89962W        W55222  28.142  17.975  11.883
89963W        W55223  27.738   5.579  13.644
89964W        W55224   9.199   3.805   2.385
89965W        W55225  28.511  17.358  13.626
89966W        W55226  33.317  26.453   2.729
89967W        W55227  29.178  27.636   3.569
89968W        W55228   7.470   0.815   0.800
89969W        W55229  30.985  17.646   3.269
89970W        W55230  44.980  13.315   2.234
89971W        W55231  29.945  15.409   4.842
89972W        W55232   1.484  44.031  12.720
89973W        W55233  22.242   7.374   2.642
89974W        W55234  13.579  28.994  12.399
89975W        W55235  40.970  14.800   4.660
89976W        W55236   2.812   0.239   3.205
89977W        W55237   1.965  40.257  13.041
89978W        W55238  37.113  35.427   4.662
89979W        W55239  15.433  42.474  10.729
89980W        W55240  34.303  36.584   3.926
89981W        W55241  10.366  40.332   2.284
89982W        W55242  40.050  13.128   1.941
89983W        W55243  17.480   1.243  12.369
89984W        W55244  15.135   3.475  12.709
89985W        W55245  35.308  37.871  11.969
89986W        W55246  26.593  12.127   1.749
89987W        W55247  16.005   5.849  14.228
89988W        W55248  30.419  38.901   4.337
89989W        W55249  17.303  25.575   2.172
89990W        W55250  34.368   0.606   3.083
89991W        W55251  26.360  37.878  11.033
89992W        W55252   2.119  43.238  11.156
89993W        W55253  16.670  41.295   4.881
89994W        W55254   0.968  27.263   2.659
89995W        W55255  19.741  19.575  11.970
89996W        W55256  37.925  12.456  12.088
89997W        W55257  29.190   0.399  10.386
89998W        W55258  43.893   9.351  11.711
89999W        W55259  44.500  38.359   4.145
90000W        W55260  43.905   5.723  10.426
90001W        W55261   8.069  15.786   1.553
90002W        W55262   6.755  44.510   4.225
90003W        W55263   3.423  19.058   2.506
90004W        W55264  21.164  39.310  14.413
90005W        W55265  12.832  29.275   4.063
90006W        W55266  29.174   4.270  10.900
90007W        W55267  39.934  42.057   4.131
90008W        W55268   7.815  15.320   3.788
90009W        W55269  25.509  33.659  14.379
90010W        W55270  41.523  23.788   2.651
90011W        W55271  34.609  11.355  11.175
90012W        W55272  26.100   0.690  14.085
90013W        W55273  10.235  12.392  11.705
90014W        W55274  13.026  20.138  11.722
90015W        W55275  35.964   4.983  12.937
90016W        W55276  24.589   1.443  12.944
90017W        W55277  26.436   8.090  12.038
90018W        W55278  18.005  42.304   3.213
90019W        W55279  31.297   8.633   1.848
90020W        W55280  19.907  27.688  14.360
90021W        W55281  40.385   9.365   2.382
90022W        W55282   7.303   9.058   3.492
90023W        W55283  27.278  27.535   3.651
90024W        W55284  41.382  28.526  11.951
90025W        W55285  19.786  21.693  14.329
90026W        W55286  21.618  10.402  10.909
90027W        W55287  34.296  22.464   2.082
90028W        W55288  37.852  14.876   4.897
90029W        W55289  26.626   4.969   2.582
90030W        W55290   4.961  32.730  12.362
90031W        W55291   9.866  33.410   4.566
90032W        W55292   5.395  24.734  14.727
90033W        W55293  30.638  21.117   3.187
90034W        W55294  18.700  43.844  11.143
90035W        W55295  19.193  21.608   2.305
90036W        W55296  29.302  18.658   0.344
90037W        W55297  27.831  13.412   5.208
90038W        W55298   7.598  29.864  14.266
90039W        W55299  26.539  39.756  13.040
90040W        W55300  44.341  29.479  14.717
90041W        W55301  15.598   5.741   2.855
90042W        W55302   7.482  28.536   0.949
90043W        W55303  40.541  44.566   3.596
90044W        W55304   6.827  41.369   2.414
90045W        W55305   7.260  40.570  13.911
90046W        W55306  43.032   2.444   2.819
90047W        W55307  28.079   5.272   1.472
90048W        W55308  18.161  30.951   1.414
90049W        W55309  17.111  25.935  13.453
90050W        W55310  30.216  22.738   3.819
90051W        W55311  19.284   7.383  10.771
90052W        W55312  40.204   0.042   2.608
90053W        W55313  20.355  21.681  11.079
90054W        W55314  26.135  37.592   3.080
90055W        W55315  28.487  25.915   0.787
90056W        W55316  13.988  29.656   3.755
90057W        W55317  34.924  26.273  14.033
90058W        W55318  32.576  38.419   3.795
90059W        W55319  43.950   5.223   0.531
90060W        W55320  44.909  18.357   0.958
90061W        W55321  23.274  35.003   3.991
90062W        W55322  28.281  18.857  11.968
90063W        W55323  15.882   8.907  13.371
90064W        W55324  32.897  35.501  13.279
90065W        W55325  12.496  36.964   0.262
90066W        W55326  31.961  24.256   2.487
90067W        W55327   3.046  42.850   1.699
90068W        W55328  27.998   5.637  11.161
90069W        W55329  19.092  35.001  14.435
90070W        W55330  19.749   1.749   4.235
90071W        W55331   7.372  40.071   1.238
90072W        W55332  17.256   2.459   4.700
90073W        W55333  35.316   6.931  14.860
90074W        W55334  12.686  29.834  14.222
90075W        W55335  10.579   6.127   1.235
90076W        W55336  43.045  34.831   0.746
90077W        W55337  33.467  40.445  11.090
90078W        W55338   2.339  10.473   1.763
90079W        W55339  19.163  33.685  11.165
90080W        W55340  43.458  10.425  10.687
90081W        W55341  43.607  30.041  14.646
90082W        W55342  18.816  44.324   0.907
90083W        W55343   3.390  17.055   2.865
90084W        W55344  42.265  43.926   0.806
90085W        W55345  24.895  13.152  11.525
90086W        W55346  40.378  35.552  14.853
90087W        W55347  16.591  29.985  11.438
90088W        W55348  22.742   7.888   0.004
90089W        W55349   3.184  29.182  13.951
90090W        W55350  19.808  24.001   0.935
90091W        W55351  13.716  43.465   3.371
90092W        W55352   0.371   4.496   1.329
90093W        W55353  13.332  26.511  13.882
90094W        W55354   5.456  41.447   3.661
90095W        W55355  35.470   0.587  12.212
90096W        W55356   3.669  18.240   4.301
90097W        W55357  33.254  29.608   2.516
90098W        W55358  32.588  31.953   2.319
90099W        W55359  10.894   3.868  11.427
90100W        W55360  35.585  28.453   4.410
90101W        W55361   2.274  24.252   5.214
90102W        W55362  31.925  30.378  13.573
90103W        W55363  17.940  29.572  13.962
90104W        W55364   0.184  38.822  11.102
90105W        W55365   8.091   1.704  10.611
90106W        W55366  38.841  36.282   2.571
90107W        W55367  39.032  24.982   3.294
90108W        W55368  10.741  13.343  14.739
90109W        W55369   0.155   1.962  13.929
90110W        W55370  34.448  17.830   3.891
90111W        W55371   6.940  23.739  12.436
90112W        W55372   4.772  35.391   0.551
90113W        W55373  31.882  27.027   2.829
90114W        W55374  36.999  27.008   0.858
90115W        W55375   6.209   6.095   5.174
90116W        W55376  39.499  15.755  13.896
90117W        W55377  36.043  31.664  13.504
90118W        W55378  20.634  43.479   3.701
90119W        W55379   2.040  36.582   1.083
90120W        W55380  27.900  17.588   0.837
90121W        W55381  28.985   3.763  12.271
90122W        W55382  42.878   2.013  11.187
90123W        W55383  16.797  41.852   4.235
90124W        W55384   0.610  40.346   0.396
90125W        W55385  27.964  16.192  13.797
90126W        W55386   8.121  10.224  10.656
90127W        W55387  43.889  26.874  12.622
90128W        W55388  20.696  16.142   4.536
90129W        W55389  20.218   2.541   4.347
90130W        W55390   1.242   6.246   1.261
90131W        W55391  11.878  41.848  12.502
90132W        W55392  27.158  25.602  11.205
90133W        W55393  39.859  20.650   4.487
90134W        W55394  32.475  39.028   0.435
90135W        W55395   0.380  38.924  14.748
90136W        W55396  26.482  26.210  10.818
90137W        W55397   9.951  29.916  10.862
90138W        W55398   5.745  44.799  12.939
90139W        W55399  12.117   1.461  14.410
90140W        W55400  28.126  32.847   2.546
90141W        W55401  31.082  34.659   3.225
90142W        W55402  30.593  41.927  13.778
90143W        W55403  37.772  35.882  13.330
90144W        W55404  22.521  35.279   0.765
90145W        W55405  37.788  33.678  13.269
90146W        W55406  31.777  44.384   0.523
90147W        W55407   7.463  23.144   0.410
90148W        W55408  12.969  12.790  14.099
90149W        W55409  11.364  32.073  10.530
90150W        W55410  42.381   0.563   0.757
90151W        W55411  25.674  25.077  11.418
90152W        W55412  11.384  31.564  13.401
90153W        W55413  23.127   3.876  12.451
90154W        W55414   5.020  25.230  12.505
90155W        W55415  31.547   2.255   1.953
90156W        W55416  27.383  37.591   3.713
90157W        W55417  22.245  11.243  11.921
90158W        W55418  35.335  23.071   1.114
90159W        W55419  10.317  20.293   1.277
90160W        W55420  20.699  44.948  12.537
90161W        W55421  35.449  40.480   3.586
90162W        W55422  22.010  44.033   4.552
90163W        W55423  22.243  31.108   4.272
90164W        W55424  17.573  30.209  10.419
90165W        W55425  18.626  44.696  11.125
90166W        W55426  37.412  43.368   0.104
90167W        W55427  16.544  24.465  14.380
90168W        W55428  38.991  14.000   0.390
90169W        W55429  30.029  23.635   2.332
90170W        W55430  30.316  15.771   4.908
90171W        W55431  28.305  32.507  11.626
90172W        W55432   7.202  25.633  11.570
90173W        W55433   1.678   2.787   1.294
90174W        W55434   9.333  18.709  11.299
90175W        W55435  36.012  42.006   1.842
90176W        W55436  43.153   9.749  12.494
90177W        W55437  34.348  16.245  14.301
90178W        W55438  26.527  24.718  11.755
90179W        W55439  14.346  42.660   1.534
90180W        W55440  41.924  39.062  12.039
90181W        W55441  29.181  29.106  11.667
90182W        W55442  40.699  29.917  12.077
90183W        W55443  38.976  10.868   1.700
90184W        W55444  13.913   7.002   5.176
90185W        W55445  34.878  17.308  13.259
90186W        W55446   7.867  33.517   9.645
90187W        W55447  10.493  32.377  10.235
90188W        W55448  17.255  26.575  14.450
90189W        W55449   1.847  20.806  14.779
90190W        W55450  41.117  15.106   5.115
90191W        W55451   3.979  15.695   2.603
90192W        W55452  36.865  40.934   1.597
90193W        W55453  32.732  24.210  14.015
90194W        W55454  16.272  31.086   3.812
90195W        W55455  41.270  33.905  13.464
90196W        W55456   0.678   3.424  10.285
90197W        W55457  35.316  36.939  13.496
90198W        W55458  31.864  16.200  13.396
90199W        W55459  44.819  30.651   3.254
90200W        W55460  14.983   1.355  11.599
90201W        W55461  35.094  27.214   1.052
90202W        W55462  37.048  36.602  13.505
90203W        W55463  31.585  43.088  14.450
90204W        W55464  12.746  19.339   4.741
90205W        W55465  25.041  25.611   0.830
90206W        W55466  40.846  29.037  14.958
90207W        W55467  38.975  37.245  11.917
90208W        W55468   0.011  39.583  12.400
90209W        W55469  24.216  43.375   2.585
90210W        W55470  10.404  15.794  13.456
90211W        W55471  36.861   5.508   1.834
90212W        W55472  27.659  15.978   4.922
90213W        W55473  14.697  17.425  14.189
90214W        W55474  43.582  28.957   4.175
90215W        W55475  43.959   9.266   3.882
90216W        W55476  18.647  16.660   0.288
90217W        W55477  43.613  30.686  10.481
90218W        W55478   0.257  43.787   2.169
90219W        W55479  33.817  31.643  14.512
90220W        W55480  40.829   1.439  12.113
90221W        W55481  15.204   6.441  10.812
90222W        W55482  35.001  42.788  11.198
90223W        W55483  29.258  24.976   0.325
90224W        W55484  38.043  31.504  12.933
90225W        W55485   3.206  19.127  13.898
90226W        W55486  37.928  29.774   4.189
90227W        W55487   0.333  43.395   4.348
90228W        W55488  16.840  21.575  12.450
90229W        W55489   7.760  34.323  12.825
90230W        W55490  21.147  15.383  10.513
90231W        W55491  37.333  14.925   4.945
90232W        W55492  15.533  16.180  11.926
90233W        W55493  13.142  28.101  11.200
90234W        W55494  23.627  35.643  14.040
90235W        W55495  20.228   0.356  10.751
90236W        W55496  36.583  43.398   4.949
90237W        W55497  18.514  13.814  11.659
90238W        W55498   3.087  26.960  14.511
90239W        W55499  42.179   6.892  13.475
90240W        W55500   9.222  28.534   0.253
90241W        W55501  13.032  12.810   0.202
90242W        W55502  33.955  42.314   4.729
90243W        W55503  43.821  33.832  11.115
90244W        W55504  30.616  18.081   4.313
90245W        W55505  32.656  17.370  12.796
90246W        W55506  18.219   7.349  14.259
90247W        W55507   6.622   8.660  12.157
90248W        W55508  20.623   5.794  10.165
90249W        W55509  43.043  14.303  14.419
90250W        W55510  10.774  11.804  14.740
90251W        W55511  42.234  20.601  13.526
90252W        W55512  39.555  18.873  11.260
90253W        W55513   2.148  32.432   1.116
90254W        W55514  15.607  23.195  11.155
90255W        W55515  40.504  36.057   4.110
90256W        W55516  18.234   8.203   0.237
90257W        W55517  17.194  36.932   4.222
90258W        W55518  42.888  42.544   1.525
90259W        W55519  31.967  12.109   1.207
90260W        W55520  37.451  22.657  10.833
90261W        W55521  34.507  36.089  12.126
90262W        W55522  14.331  42.688  14.763
90263W        W55523   3.673   7.927   2.194
90264W        W55524  12.111  37.262   3.706
90265W        W55525  43.022   6.367   0.355
90266W        W55526   4.026  18.037  11.729
90267W        W55527  10.261  25.115   0.475
90268W        W55528   6.212  11.274   3.159
90269W        W55529  33.004   5.388   4.579
90270W        W55530   0.744  42.160  12.525
90271W        W55531  19.207   2.262   2.749
90272W        W55532   7.589  34.274   2.339
90273W        W55533   1.765  39.797  13.862
90274W        W55534  33.984  39.388   0.778
90275W        W55535   8.208  36.075  14.792
90276W        W55536  34.554   4.609   1.135
90277W        W55537  13.193  18.064   4.155
90278W        W55538  26.638   9.846   4.390
90279W        W55539  24.957  13.537  12.957
90280W        W55540   5.740  38.663  13.347
90281W        W55541  12.783   6.436  14.044
90282W        W55542  23.570  36.853  11.520
90283W        W55543   7.338   6.385   2.749
90284W        W55544  42.258  28.458  13.180
90285W        W55545  34.970  39.834  12.571
90286W        W55546  34.029  38.338  12.296
90287W        W55547  16.742  40.023  14.280
90288W        W55548  23.226  32.215   2.192
90289W        W55549   3.445  19.763  10.703
90290W        W55550  12.606   7.013   3.122
90291W        W55551  44.331  25.439  12.037
90292W        W55552  15.568  30.494   0.754
90293W        W55553   0.817  34.285  13.568
90294W        W55554  37.564  41.122  13.955
90295W        W55555  34.634  15.801  14.471
90296W        W55556   5.139   9.178   4.144
90297W        W55557   0.032  21.388  12.436
90298W        W55558   0.195   2.701   4.079
90299W        W55559  38.480  28.043   3.785
90300W        W55560  39.918  37.614   1.486
90301W        W55561  41.938  24.990   0.524
90302W        W55562  13.754  22.443  10.483
90303W        W55563  20.465  11.581  14.685
90304W        W55564  18.765  23.587  13.082
90305W        W55565  33.004  26.397  11.003
90306W        W55566   7.133  34.985   4.030
90307W        W55567  19.147  29.837   0.039
90308W        W55568   6.636   3.090   1.849
90309W        W55569   8.961  10.608   3.147
90310W        W55570  28.944  26.196   2.836
90311W        W55571  12.822  15.574   5.011
90312W        W55572  43.000  15.537   2.453
90313W        W55573   2.294  18.227  10.676
90314W        W55574  39.637   7.111  13.023
90315W        W55575   5.306  30.840  11.803
90316W        W55576  32.927  35.617  14.255
90317W        W55577  24.590   0.930   4.423
90318W        W55578  10.129   8.236   0.174
90319W        W55579  23.104  27.465  13.648
90320W        W55580  28.489  38.917  12.403
90321W        W55581  21.357   1.186   1.222
90322W        W55582   7.699   6.695  13.842
90323W        W55583  16.987  20.736   1.285
90324W        W55584  37.125   6.368  13.430
90325W        W55585  26.520  28.489  11.884
90326W        W55586   5.319  19.197  12.555
90327W        W55587  24.608  41.054   0.980
90328W        W55588  23.602  37.140   5.132
90329W        W55589  20.115   0.178   0.356
90330W        W55590  28.664  18.824   5.050
90331W        W55591   9.311  13.239  10.817
90332W        W55592  18.052  37.811   1.308
90333W        W55593  37.836  23.995  13.495
90334W        W55594   6.592  24.822  11.731
90335W        W55595  32.129  36.825   2.902
90336W        W55596  12.246  28.478  11.169
90337W        W55597  19.809  24.214   4.196
90338W        W55598  14.769   6.860  14.220
90339W        W55599  15.564  40.579  13.434
90340W        W55600  39.782   8.773  10.133
90341W        W55601  31.176  21.872   0.787
90342W        W55602  32.025   3.227   3.337
90343W        W55603  30.069   3.870   1.319
90344W        W55604  44.456  39.927   3.408
90345W        W55605  21.863  11.712  11.677
90346W        W55606  10.793  33.133   2.810
90347W        W55607   6.563  22.984  12.917
90348W        W55608   9.809  27.717  12.454
90349W        W55609  22.479  29.405  11.217
90350W        W55610  10.863  16.006   0.860
90351W        W55611   3.503  25.374  13.429
90352W        W55612  44.519  15.524   0.813
90353W        W55613  25.110  27.479   2.836
90354W        W55614  15.618  41.561  14.904
90355W        W55615   9.372  36.521   4.355
90356W        W55616  19.579  21.710  13.862
90357W        W55617  29.680   7.652   2.413
90358W        W55618  29.905  21.184   1.927
90359W        W55619  25.245  42.829  12.067
90360W        W55620  25.927   5.271  13.604
90361W        W55621  24.554  14.121  14.643
90362W        W55622  31.055  11.424   4.552
90363W        W55623  31.142   6.454  13.268
90364W        W55624  34.882  21.102   0.200
90365W        W55625  27.374  28.994   0.316
90366W        W55626  21.464  25.578  11.180
90367W        W55627   0.202  29.654  14.427
90368W        W55628  26.347  13.875   0.749
90369W        W55629  23.734   6.017   3.197
90370W        W55630   3.958  37.446  12.610
90371W        W55631  34.529  21.085  13.441
90372W        W55632  40.817  10.057   0.010
90373W        W55633  39.790  38.424   3.813
90374W        W55634  34.824  44.931   3.563
90375W        W55635  18.207  30.468   0.613
90376W        W55636  18.647   8.913  13.378
90377W        W55637  20.312  27.108  12.548
90378W        W55638  12.212  28.483   2.811
90379W        W55639  36.573  10.401   4.560
90380W        W55640  30.307  14.445   1.373
90381W        W55641  16.009   3.894  14.013
90382W        W55642  27.539  15.492  12.890
90383W        W55643   3.936  32.456   3.219
90384W        W55644   2.316  33.410   4.444
90385W        W55645  19.178  13.311   4.568
90386W        W55646   0.939   7.351  14.991
90387W        W55647  29.423   4.186   2.883
90388W        W55648  40.994   3.057   4.118
90389W        W55649  24.532  12.366  10.469
90390W        W55650   1.141  10.825   1.937
90391W        W55651  16.124  44.993   1.505
90392W        W55652  27.685  11.914  13.769
90393W        W55653  15.126   1.823   0.241
90394W        W55654   8.802  14.092  11.055
90395W        W55655  41.993  42.571  13.366
90396W        W55656  29.345   6.719   4.493
90397W        W55657  13.189  37.875   0.820
90398W        W55658   9.780  20.573   0.345
90399W        W55659  29.122   1.238  13.482
90400W        W55660  13.524  38.441  12.938
90401W        W55661  39.514  39.855   4.917
90402W        W55662  19.228   7.688   4.946
90403W        W55663  22.055  24.903   4.115
90404W        W55664  25.066  14.070  14.819
90405W        W55665  15.219  34.148   3.264
90406W        W55666  15.861  32.400  11.574
90407W        W55667  29.178  30.206  11.928
90408W        W55668  15.316  14.760   1.170
90409W        W55669  19.345  24.940   4.459
90410W        W55670  14.861  43.321  14.386
90411W        W55671  24.967  28.724   1.890
90412W        W55672   6.040  27.779  11.199
90413W        W55673  33.364  39.378   2.423
90414W        W55674  11.883  19.008  11.186
90415W        W55675  10.879   2.818  12.956
90416W        W55676   1.710  35.181  14.323
90417W        W55677  26.897  25.128  12.006
90418W        W55678  35.440  29.349   4.309
90419W        W55679  32.683   7.848   2.406
90420W        W55680  40.539  15.801  11.002
90421W        W55681   2.368   0.705   1.242
90422W        W55682  14.230  16.578   4.790
90423W        W55683  42.577  25.499   0.835
90424W        W55684  23.060  27.977   2.669
90425W        W55685  13.577   8.271   2.649
90426W        W55686  23.415  43.854   2.823
90427W        W55687  32.578   9.577   1.403
90428W        W55688  35.451  44.866   4.181
90429W        W55689  11.128  42.352   4.576
90430W        W55690  31.628   0.035   1.634
90431W        W55691  17.237  44.223  12.139
90432W        W55692  38.866  39.272  11.489
90433W        W55693  39.362  12.846  12.966
90434W        W55694  15.684  28.067  14.283
90435W        W55695  10.361  30.524   2.963
90436W        W55696  43.510  27.548  13.638
90437W        W55697  13.783   3.736   2.342
90438W        W55698   3.813  15.212   4.952
90439W        W55699  30.004  11.170  12.087
90440W        W55700  12.720   3.916  13.590
90441W        W55701  13.920  32.404   0.824
90442W        W55702  23.197  40.533  14.105
90443W        W55703   1.373  44.293   4.761
90444W        W55704   0.028  29.877  12.665
90445W        W55705  36.930  23.521  13.318
90446W        W55706  30.382  21.522  13.515
90447W        W55707  15.149  34.868   1.125
90448W        W55708   3.198  13.004  10.252
90449W        W55709  25.708  41.494  10.841
90450W        W55710   6.813  38.497   1.698
90451W        W55711  12.038  13.284  12.882
90452W        W55712  33.408  12.641  13.936
90453W        W55713   7.711  32.422   4.534
90454W        W55714  43.812  42.955   0.890
90455W        W55715  30.184  18.299   4.514
90456W        W55716  38.567  24.519   2.628
90457W        W55717  43.521  41.732   0.772
90458W        W55718  43.485  32.506   3.551
90459W        W55719  32.663  28.934   4.558
90460W        W55720  23.083  30.023  10.697
90461W        W55721  43.551   9.625  12.815
90462W        W55722  22.073  37.061  14.678
90463W        W55723   2.419  35.708   4.207
90464W        W55724  26.236  10.798   1.679
90465W        W55725  32.476  34.180   3.072
90466W        W55726  43.585  32.142   1.855
90467W        W55727  38.453  18.141   2.194
90468W        W55728   1.516  36.361  12.582
90469W        W55729  28.083   6.665   4.568
90470W        W55730   4.446  11.549  13.968
90471W        W55731  39.507  37.659  10.535
90472W        W55732  17.678  36.809   4.064
90473W        W55733   5.935  36.421   3.739
90474W        W55734   0.737  29.596   4.650
90475W        W55735  31.602   3.851  14.870
90476W        W55736  28.917  10.206  10.959
90477W        W55737  22.485  31.171   1.797
90478W        W55738  42.387  16.276  12.924
90479W        W55739  22.338  37.831  11.314
90480W        W55740  28.658  12.277   2.407
90481W        W55741  43.961   3.912  12.244
90482W        W55742  18.382   6.959   2.781
90483W        W55743   7.767  26.174  14.470
90484W        W55744   1.363  30.244   5.630
90485W        W55745  11.299   9.004   4.452
90486W        W55746   1.623   3.401  10.855
90487W        W55747  28.420  44.106  11.519
90488W        W55748  42.801   4.717  14.600
90489W        W55749  13.638   6.759   2.238
90490W        W55750  44.284  21.688  13.456
90491W        W55751   0.575  27.634   2.574
90492W        W55752  14.593  25.161   2.207
90493W        W55753  23.155  24.519  13.817
90494W        W55754  25.210  41.424  10.707
90495W        W55755  11.772  37.962   2.724
90496W        W55756   6.475   0.918  14.295
90497W        W55757  39.978  29.948  12.592
90498W        W55758   5.900  13.438  11.037
90499W        W55759  25.203  34.017  11.163
90500W        W55760  22.533  43.785  13.060
90501W        W55761   0.865   1.686   2.132
90502W        W55762  32.279  26.708   2.695
90503W        W55763  29.614   3.319   2.674
90504W        W55764  16.686   8.689   1.867
90505W        W55765  30.206  35.675   0.323
90506W        W55766  22.234  16.483   3.209
90507W        W55767  40.066  38.923   3.096
90508W        W55768  40.307  15.753   1.141
90509W        W55769  16.881  23.594   1.379
90510W        W55770  37.554  18.040  12.029
90511W        W55771   9.582  42.104  11.351
90512W        W55772  14.331   2.972   3.870
90513W        W55773  22.757   2.238  12.098
90514W        W55774  25.511  20.320  11.864
90515W        W55775   5.875   2.772   4.365
90516W        W55776  44.171  18.565   3.297
90517W        W55777  31.646   6.485  13.426
90518W        W55778  13.243  34.800   2.401
90519W        W55779  30.466  39.513   1.324
90520W        W55780   0.418  21.086  12.311
90521W        W55781   2.231  43.697   2.828
90522W        W55782  40.976  11.582  12.044
90523W        W55783  38.897   0.875   3.972
90524W        W55784  14.774  10.933  10.581
90525W        W55785  24.957  12.049  11.011
90526W        W55786  17.388  27.133   0.174
90527W        W55787  37.492  34.361   1.298
90528W        W55788  14.680  33.922  14.032
90529W        W55789  16.101  20.996  12.865
90530W        W55790   8.825  32.038   3.736
90531W        W55791  43.352  32.441   4.585
90532W        W55792  14.597  15.782  14.958
90533W        W55793   9.789  38.749   1.025
90534W        W55794   2.057  34.108   2.183
90535W        W55795  33.112   7.868   2.830
90536W        W55796  15.651   1.894   3.812
90537W        W55797  18.913  43.354  11.163
90538W        W55798  11.137   3.482   3.731
90539W        W55799  37.003  20.147  11.016
90540W        W55800  16.234  20.428  13.739
90541W        W55801  19.267   1.909  13.440
90542W        W55802  42.951   0.296   1.335
90543W        W55803  44.365  36.575  13.944
90544W        W55804   5.866  24.808  12.401
90545W        W55805  38.096  29.985   0.851
90546W        W55806  18.238  11.887  11.190
90547W        W55807  11.983  37.053   0.178
90548W        W55808   6.916  20.286  11.855
90549W        W55809   2.291   2.074   4.046
90550W        W55810  30.983  22.503   1.924
90551W        W55811  32.563  33.517  14.512
90552W        W55812  40.728   9.848  12.446
90553W        W55813  38.757  15.379  10.214
90554W        W55814  44.918   9.900  14.925
90555W        W55815  38.082  38.753  14.032
90556W        W55816  38.673  42.977   0.060
90557W        W55817  40.674  22.625  12.200
90558W        W55818  35.012  10.784   3.200
90559W        W55819  31.621  44.290  13.793
90560W        W55820  40.835   0.565   3.319
90561W        W55821   0.928  36.974   4.161
90562W        W55822   3.990  31.692  13.404
90563W        W55823   5.935  23.627   0.754
90564W        W55824   5.404   6.733  12.962
90565W        W55825  13.665  17.619   0.585
90566W        W55826  39.094  13.403   1.693
90567W        W55827  34.624   7.942   3.941
90568W        W55828  30.926   6.218   1.372
90569W        W55829  31.678  42.766   4.303
90570W        W55830  37.519  21.037  14.328
90571W        W55831   6.271   1.057   2.263
90572W        W55832  31.072  21.979   4.296
90573W        W55833  17.845  17.124   3.192
90574W        W55834  23.110  23.117  12.389
90575W        W55835   8.272  22.718   4.098
90576W        W55836  32.940  24.094  10.890
90577W        W55837  14.077   1.049   1.229
90578W        W55838  17.496  14.870   3.796
90579W        W55839  21.455  39.322  12.236
90580W        W55840   8.424  27.741  13.531
90581W        W55841  31.988  16.757  14.524
90582W        W55842  32.793   9.650   4.472
90583W        W55843   5.910  31.365  10.740
90584W        W55844  21.794  16.862  12.978
90585W        W55845  31.515  27.245  11.066
90586W        W55846   2.058  16.144   0.351
90587W        W55847  19.577  42.772  12.943
90588W        W55848  28.591  37.606  14.147
90589W        W55849  38.418  29.419   3.373
90590W        W55850  23.917  27.582  12.076
90591W        W55851  43.406  15.248   0.375
90592W        W55852  21.743  27.618  13.226
90593W        W55853   6.754  27.664   3.288
90594W        W55854  44.378  34.806  14.491
90595W        W55855  40.173   1.353  12.818
90596W        W55856   6.636  17.217   2.808
90597W        W55857  15.709  44.391   4.433
90598W        W55858   1.100  41.423  14.506
90599W        W55859   5.850  26.546  12.644
90600W        W55860  36.607  38.424   4.105
90601W        W55861  28.632   3.508   1.449
90602W        W55862  35.269  20.930   2.191
90603W        W55863  20.808  10.244  10.301
90604W        W55864  37.125  24.310   1.284
90605W        W55865  28.143  33.954  11.298
90606W        W55866  41.880  26.946   0.752
90607W        W55867  31.204   8.330   4.184
90608W        W55868  34.070   3.598  13.233
90609W        W55869  28.644  15.465  13.972
90610W        W55870  28.463  14.133   4.431
90611W        W55871  21.969  28.722  13.855
90612W        W55872   6.933  10.904  12.641
90613W        W55873   7.298   2.941   2.424
90614W        W55874   0.460  23.760   0.417
90615W        W55875   3.909  16.206   2.898
90616W        W55876  24.274  15.200   1.920
90617W        W55877  27.596  43.268  14.271
90618W        W55878  29.795  23.070   1.902
90619W        W55879  31.039  14.400   1.647
90620W        W55880  29.063  32.179   3.993
90621W        W55881  37.494  34.958   5.220
90622W        W55882   1.292  28.600   0.583
90623W        W55883  43.287  14.372   3.001
90624W        W55884  27.204   3.385   0.864
90625W        W55885  25.629  26.562  10.381
90626W        W55886  34.182  29.806   2.610
90627W        W55887  16.745   4.752   3.890
90628W        W55888  23.031  34.050  11.973
90629W        W55889  15.512   0.979   1.049
90630W        W55890  14.312  20.607  14.313
90631W        W55891   2.226  32.569   0.574
90632W        W55892  22.817  36.304   0.349
90633W        W55893  13.311  37.055   1.511
90634W        W55894  20.059   5.870   2.665
90635W        W55895  16.608  24.078   4.071
90636W        W55896  25.456  31.273   1.758
90637W        W55897  10.748  36.859   1.873
90638W        W55898  36.991  24.512   0.038
90639W        W55899  42.361  40.141  10.673
90640W        W55900  30.800  11.153  13.600
90641W        W55901  26.151  38.537  12.101
90642W        W55902  38.397  21.574   3.433
90643W        W55903  13.181  19.927  14.010
90644W        W55904  21.087   5.425   2.302
90645W        W55905   3.085  37.336   3.789
90646W        W55906   7.876  40.310   0.350
90647W        W55907  34.880  29.916   4.579
90648W        W55908  18.616   4.865  14.537
90649W        W55909  39.393  27.790  13.071
90650W        W55910  40.755  14.779  14.312
90651W        W55911  29.239  33.538  14.316
90652W        W55912  31.155  35.091   1.124
90653W        W55913  27.036  28.457  11.838
90654W        W55914  39.328   4.619   4.109
90655W        W55915  25.432   0.555  11.566
90656W        W55916  13.899   7.997   9.833
90657W        W55917  24.416   9.115  13.024
90658W        W55918  40.010  19.748  13.271
90659W        W55919   0.379  44.040  10.757
90660W        W55920  38.028   6.218  13.926
90661W        W55921  41.786  33.122  12.996
90662W        W55922  19.005  14.891   2.785
90663W        W55923  18.484  40.309  13.483
90664W        W55924   4.125   3.850   0.513
90665W        W55925  23.005  16.533   3.847
90666W        W55926  43.293  36.820   3.216
90667W        W55927   9.156  28.554   4.007
90668W        W55928   0.764  24.265   0.082
90669W        W55929  16.639  31.884   3.517
90670W        W55930  12.785   7.495   3.219
90671W        W55931  24.369   6.673   4.923
90672W        W55932  17.628  14.491   4.171
90673W        W55933  42.770  36.370   0.858
90674W        W55934   5.433  36.531  14.958
90675W        W55935  40.929  28.664  12.936
90676W        W55936   5.776  43.516   4.213
90677W        W55937   4.157   2.633   4.194
90678W        W55938  38.227  43.684  14.988
90679W        W55939  29.632  40.026  10.596
90680W        W55940   8.342   8.338  14.435
90681W        W55941  36.924  29.050   2.420
90682W        W55942  33.266   5.903   3.053
90683W        W55943   1.582  15.240   5.126
90684W        W55944  18.830  15.563   1.331
90685W        W55945   4.979  20.054  11.137
90686W        W55946  21.323  43.461  13.616
90687W        W55947  20.712  26.064  12.657
90688W        W55948   4.409  31.535  10.625
90689W        W55949  35.973  16.318   2.701
90690W        W55950  38.427  26.104   4.591
90691W        W55951  25.078  37.962   4.174
90692W        W55952  22.499   8.140  10.730
90693W        W55953  25.621  31.479   4.666
90694W        W55954  21.786  33.385   3.274
90695W        W55955  27.084  11.632  12.517
90696W        W55956  23.285  30.107   1.500
90697W        W55957  32.972  37.513  11.977
90698W        W55958   7.425   6.830   2.354
90699W        W55959  28.001  10.754   4.701
90700W        W55960  22.932  35.410   1.740
90701W        W55961  30.970  39.917   3.029
90702W        W55962  22.442  16.656   0.233
90703W        W55963  42.894   0.984  14.475
90704W        W55964  24.030  14.208   1.366
90705W        W55965  34.851   8.359   0.916
90706W        W55966   7.744  16.171  12.000
90707W        W55967  41.870  39.837  12.545
90708W        W55968   1.502  17.379   2.877
90709W        W55969  23.425  14.250  10.551
90710W        W55970  41.807  37.259   4.121
90711W        W55971  34.775  19.080   0.963
90712W        W55972  37.863  37.713  13.910
90713W        W55973  17.730  15.755  11.617
90714W        W55974  19.601  23.945   3.798
90715W        W55975   4.812  21.460  13.366
90716W        W55976  15.153  18.105   1.184
90717W        W55977  18.943  44.333  13.794
90718W        W55978  26.637   5.464   2.740
90719W        W55979  27.934  24.566  13.915
90720W        W55980   3.261  23.571   2.917
90721W        W55981  24.165  19.980   0.578
90722W        W55982  17.212  23.292  10.277
90723W        W55983  21.770  29.626  10.696
90724W        W55984   0.895   3.251  12.749
90725W        W55985  17.094  36.842  10.290
90726W        W55986  44.545  24.036   0.718
90727W        W55987   8.332  13.840  13.497
90728W        W55988   9.963   0.698  11.176
90729W        W55989   9.464  24.578  10.309
90730W        W55990   2.256   4.953   1.742
90731W        W55991  40.924  30.682   3.311
90732W        W55992  38.514  25.680   0.001
90733W        W55993  16.241  13.158   0.453
90734W        W55994   7.664  37.302   1.260
90735W        W55995  34.947  28.735  14.713
90736W        W55996  13.563  26.470  13.397
90737W        W55997  30.668  12.352  11.969
90738W        W55998  30.912   1.546   2.364
90739W        W55999  42.806  22.860   0.502
90740W        W56000  16.826  32.052  11.139
90741W        W56001  19.599  27.580  10.371
90742W        W56002  29.891  24.199  14.737
90743W        W56003  43.690   1.960   4.812
90744W        W56004   9.258   7.277  14.003
90745W        W56005   6.912   2.468  13.914
90746W        W56006  40.605  20.184  13.508
90747W        W56007  31.376   4.384   4.354
90748W        W56008   7.279  17.268   4.121
90749W        W56009  14.266  40.451   3.885
90750W        W56010  21.716  37.156  10.246
90751W        W56011  21.619  36.561   2.723
90752W        W56012  20.525  14.303  13.958
90753W        W56013   7.738  30.340  14.120
90754W        W56014  19.925   5.252   4.584
90755W        W56015  38.319  24.218   3.343
90756W        W56016  31.120   1.473   1.377
90757W        W56017  44.324  33.214   2.819
90758W        W56018   3.226  22.792   0.311
90759W        W56019  16.193  26.414  14.108
90760W        W56020   3.364  30.121   4.316
90761W        W56021  24.670  44.442  13.235
90762W        W56022  12.723  15.683  13.963
90763W        W56023  33.662  41.887  12.891
90764W        W56024   9.753  39.594  14.111
90765W        W56025  25.889  38.130   1.320
90766W        W56026  10.443   3.161  11.399
90767W        W56027  39.842  31.443   2.601
90768W        W56028  36.867  32.971   3.852
90769W        W56029  40.444  17.553  10.347
90770W        W56030  14.193  10.337   3.598
90771W        W56031  12.561  43.197   0.391
90772W        W56032  34.282  41.259   0.390
90773W        W56033  37.493  31.624   2.697
90774W        W56034  41.575  42.232  13.314
90775W        W56035  14.090  13.192   3.993
90776W        W56036  30.086  35.938  10.982
90777W        W56037  34.262  10.383   0.256
90778W        W56038   1.309  14.207  13.262
90779W        W56039   0.111   8.584   1.038
90780W        W56040  29.933   4.174   2.661
90781W        W56041  25.028  20.698  12.551
90782W        W56042  36.417   2.594  10.259
90783W        W56043  22.726  20.292  13.337
90784W        W56044   7.621  14.290   3.647
90785W        W56045  30.064  29.398  12.674
90786W        W56046  13.262  35.765   4.629
90787W        W56047  42.743  18.118   0.395
90788W        W56048  25.946  13.129  10.708
90789W        W56049  38.876  18.767  12.362
90790W        W56050  27.534  40.133  12.016
90791W        W56051  14.324  35.907  14.504
90792W        W56052  22.818   1.846  14.334
90793W        W56053   6.638   6.266   4.507
90794W        W56054  22.778  24.278   2.314
90795W        W56055  12.661  32.675   3.716
90796W        W56056  11.545  28.115  14.256
90797W        W56057  30.754  23.438  11.614
90798W        W56058  23.070   2.958   1.257
90799W        W56059   3.457  21.129  10.909
90800W        W56060   6.844   6.884  13.771
90801W        W56061   1.388  18.738   0.505
90802W        W56062  12.151  24.043  11.689
90803W        W56063  41.185  36.020  14.090
90804W        W56064   9.200  23.197   1.941
90805W        W56065   4.116   9.165   0.910
90806W        W56066  32.339  40.321  11.642
90807W        W56067   9.576  30.093   0.488
90808W        W56068  27.652  31.110  13.794
90809W        W56069  28.682   6.383  12.892
90810W        W56070  13.466  27.058   0.427
90811W        W56071  10.051  20.535   1.664
90812W        W56072  16.873   9.169  14.283
90813W        W56073  18.449   3.230   1.143
90814W        W56074  16.131  33.510  12.039
90815W        W56075  24.364  21.800  12.990
90816W        W56076   0.649  44.923   3.941
90817W        W56077  13.121  42.388   2.763
90818W        W56078  22.640  15.288   1.724
90819W        W56079  23.920   1.409   0.553
90820W        W56080  24.163  43.745  10.674
90821W        W56081   6.162  13.744  10.573
90822W        W56082  31.580  40.177   1.734
90823W        W56083  43.122   2.011   3.150
90824W        W56084  39.554  32.008  12.443
90825W        W56085  22.004  17.604   1.881
90826W        W56086  44.078  42.774   1.308
90827W        W56087  26.674  19.798   1.741
90828W        W56088  37.954  15.526   1.680
90829W        W56089  10.434  44.163   9.853
90830W        W56090  41.917  12.669  14.516
90831W        W56091   8.335  19.966   4.916
90832W        W56092   1.460  20.270   0.307
90833W        W56093  34.657  39.121   0.791
90834W        W56094   2.365  30.852   3.629
90835W        W56095  13.611   0.560  11.163
90836W        W56096  42.624  39.863  12.901
90837W        W56097  22.088   6.381   3.521
90838W        W56098  22.642  39.906   4.740
90839W        W56099   9.152  31.577  12.266
90840W        W56100   1.449  42.031   1.299
90841W        W56101  40.945  26.441  10.497
90842W        W56102  21.509   3.232   4.213
90843W        W56103  21.389  23.796  14.027
90844W        W56104   6.326  33.862   1.216
90845W        W56105   7.450  27.722  11.548
90846W        W56106  16.756  43.493  14.799
90847W        W56107  39.295  26.111   2.881
90848W        W56108  37.832  44.838   1.836
90849W        W56109  20.833   9.226   1.044
90850W        W56110  28.764  20.648  14.497
90851W        W56111  10.833  33.000   1.418
90852W        W56112  11.300   0.825  10.768
90853W        W56113  38.475  21.793   1.869
90854W        W56114   0.357  15.188   4.774
90855W        W56115  41.396  23.212  12.151
90856W        W56116  28.566  26.243   1.778
90857W        W56117  37.128  28.406  12.423
90858W        W56118  27.918  16.022  12.562
90859W        W56119  34.083  43.262   1.867
90860W        W56120  33.542  21.962   4.448
90861W        W56121  11.173  21.328  10.621
90862W        W56122  20.218  10.375  12.089
90863W        W56123   8.203  41.988   3.747
90864W        W56124  29.553  10.540  12.428
90865W        W56125   2.316   7.361   1.358
90866W        W56126  40.375  10.865   2.167
90867W        W56127  19.773   0.175  12.027
90868W        W56128  27.199  34.442   4.317
90869W        W56129  28.570  32.553  10.638
90870W        W56130  25.781  13.044  14.292
90871W        W56131   9.800   5.458   2.692
90872W        W56132  13.412   7.834  10.045
90873W        W56133  17.753  27.025  11.661
90874W        W56134  11.849  41.796   4.940
90875W        W56135  41.185  25.998  13.018
90876W        W56136  21.299  26.194  14.539
90877W        W56137  37.438  22.504   2.147
90878W        W56138  13.035  31.336   0.014
90879W        W56139  36.016  16.170   1.194
90880W        W56140  41.613   4.955  12.892
90881W        W56141   1.177  20.206   4.715
90882W        W56142  30.946  19.460   2.776
90883W        W56143  15.255  22.146   2.818
90884W        W56144  12.921  17.214   1.250
90885W        W56145  24.944  26.742  13.650
90886W        W56146  20.792  38.867  11.442
90887W        W56147  42.214  28.989   3.658
90888W        W56148  39.576  13.313   4.495
90889W        W56149  19.516   9.585   2.244
90890W        W56150  41.025  43.360   0.960
90891W        W56151  37.865  20.605  14.385
90892W        W56152   8.303  42.061   2.859
90893W        W56153  20.054   1.763  13.898
90894W        W56154  37.588  27.071  14.907
90895W        W56155  42.888  29.902  14.742
90896W        W56156  12.084  12.129   1.818
90897W        W56157  30.601  21.097   2.576
90898W        W56158  29.038  37.619   4.412
90899W        W56159  41.310  12.765   1.870
90900W        W56160  36.057  24.433  13.900
90901W        W56161  20.422  44.330   3.181
90902W        W56162   9.585  21.388   4.045
90903W        W56163  36.042  21.254  12.514
90904W        W56164   5.519   4.841  14.804
90905W        W56165  13.628   9.437  13.243
90906W        W56166  43.474  19.192   1.910
90907W        W56167  35.379  34.632   0.428
90908W        W56168  32.984  17.826   0.840
90909W        W56169  28.199  11.409   3.453
90910W        W56170  11.244  29.189  12.615
90911W        W56171   4.349  26.637  12.439
90912W        W56172  38.778  33.618  13.589
90913W        W56173  20.701  19.136   1.874
90914W        W56174  44.305  21.429  14.833
90915W        W56175  23.370  12.404  11.200
90916W        W56176  10.126   4.911   0.904
90917W        W56177  10.095   3.701   4.649
90918W        W56178  27.989  10.692  14.069
90919W        W56179  36.900  17.972   2.411
90920W        W56180  41.323  17.356  11.254
90921W        W56181   6.250  26.589   4.919
90922W        W56182  16.839  11.090  11.828
90923W        W56183   3.381  18.301  13.988
90924W        W56184  20.832  43.579   4.172
90925W        W56185   5.228  33.539   4.344
90926W        W56186   2.074  44.485   2.383
90927W        W56187   1.174  30.594  11.645
90928W        W56188  19.529  26.206  11.016
90929W        W56189  14.301   6.178   0.680
90930W        W56190  40.145  35.454   2.841
90931W        W56191  14.184   2.935   2.410
90932W        W56192  26.274  36.127  11.417
90933W        W56193  29.072  17.125   4.643
90934W        W56194  43.128  30.056  14.331
90935W        W56195  39.872  32.573   3.131
90936W        W56196  21.050  15.022   1.315
90937W        W56197  41.147  40.506   2.637
90938W        W56198   7.108   6.260   1.120
90939W        W56199  41.984  19.722  12.438
90940W        W56200  13.706  11.712   4.446
90941W        W56201   4.583  30.142  11.073
90942W        W56202  29.607  43.027  12.595
90943W        W56203  36.101   4.477  11.521
90944W        W56204  24.704   1.723  12.497
90945W        W56205  36.490  14.581   3.237
90946W        W56206  28.456  42.403  12.442
90947W        W56207  38.932   1.738   0.951
90948W        W56208  27.017  10.612   2.358
90949W        W56209  19.603  38.329  12.121
90950W        W56210   0.736  35.327   4.626
90951W        W56211  11.195   5.707  10.326
90952W        W56212  43.566  37.584   3.868
90953W        W56213   8.672  18.179   4.411
90954W        W56214   6.951  34.245   3.598
90955W        W56215   5.903  32.165  13.908
90956W        W56216  34.851   4.875   4.633
90957W        W56217   7.256  21.570   0.422
90958W        W56218  40.304  19.762  12.229
90959W        W56219  11.698  11.789   1.446
90960W        W56220  17.766  39.067   9.935
90961W        W56221   5.151   6.344   3.132
90962W        W56222  22.139  10.301  11.225
90963W        W56223  44.007   6.327   2.230
90964W        W56224  43.934   1.778  12.514
90965W        W56225  20.289  40.849  13.764
90966W        W56226   7.904   2.334   3.604
90967W        W56227   5.844  22.129   0.393
90968W        W56228  25.166  30.622  10.411
90969W        W56229  31.119  13.128  12.022
90970W        W56230  31.046  43.770   1.687
90971W        W56231  41.841  36.011   2.939
90972W        W56232  18.486  28.496   3.009
90973W        W56233  38.853  39.442   1.277
90974W        W56234  26.175  12.249   2.363
90975W        W56235  23.238  32.806   3.269
90976W        W56236  27.773  16.897   0.045
90977W        W56237   6.727  13.382   3.135
90978W        W56238   9.046  39.816   4.584
90979W        W56239   4.811  18.824   4.652
90980W        W56240  30.134  35.728  12.338
90981W        W56241  32.821  40.295  12.934
90982W        W56242  16.330   6.904   1.518
90983W        W56243  31.710  34.660  12.317
90984W        W56244  41.597  27.450   3.262
90985W        W56245  25.215  40.942   1.428
90986W        W56246  22.160  22.663  11.244
90987W        W56247  32.966  13.502   3.035
90988W        W56248  13.538  17.128  11.694
90989W        W56249  33.614   8.851  13.878
90990W        W56250  11.724   9.645  14.459
90991W        W56251   8.258  44.716  12.949
90992W        W56252  18.231  14.888  12.535
90993W        W56253  35.349  30.036   3.237
90994W        W56254  28.517   8.190   1.863
90995W        W56255  17.528  23.563  14.182
90996W        W56256  23.214   0.654  11.473
90997W        W56257  29.459  25.837   9.630
90998W        W56258  40.893  43.960   0.400
90999W        W56259  35.635  31.502   2.324
91000W        W56260   5.417  14.761  14.623
91001W        W56261  26.609  37.333   0.442
91002W        W56262  19.229  39.876   1.449
91003W        W56263   8.648  30.831  12.405
91004W        W56264   1.472  30.551   4.153
91005W        W56265  14.197  25.901  14.981
91006W        W56266  37.516   3.792   3.084
91007W        W56267  34.468  28.563   1.758
91008W        W56268  14.122  25.582  14.437
91009W        W56269   8.562   0.590  12.418
91010W        W56270   4.254  24.302  11.574
91011W        W56271  18.258  34.359   3.559
91012W        W56272  25.833   9.960   2.074
91013W        W56273  13.158  35.032   1.130
91014W        W56274   7.363  12.137  12.726
91015W        W56275  36.452  28.494  13.635
91016W        W56276  38.110  38.909  14.945
91017W        W56277  43.056  29.860   4.250
91018W        W56278  26.647  24.748  12.255
91019W        W56279   1.609  34.404  12.886
91020W        W56280  24.863  17.021   2.821
91021W        W56281  35.140  35.962   3.226
91022W        W56282  14.285  28.176   1.867
91023W        W56283  18.011  40.926   3.557
91024W        W56284   3.932  33.327   2.371
91025W        W56285  31.202  18.005   1.678
91026W        W56286  31.649  22.193  13.395
91027W        W56287  19.229   1.797  10.442
91028W        W56288  14.810  35.178  13.424
91029W        W56289  17.337   5.534  10.679
91030W        W56290  21.817  26.073  11.126
91031W        W56291  36.589   0.024  11.176
91032W        W56292  10.707  36.354   0.295
91033W        W56293   0.774   3.269  14.085
91034W        W56294   0.674  25.436   3.071
91035W        W56295  22.963  15.199   1.296
91036W        W56296  44.372   9.571  13.488
91037W        W56297  13.040  24.879   4.186
91038W        W56298   7.201  38.538   2.326
91039W        W56299   5.630  31.363  11.180
91040W        W56300  37.606  41.837   2.798
91041W        W56301  33.958  17.252   9.856
91042W        W56302   9.237  17.837   0.972
91043W        W56303  42.102   3.952   2.115
91044W        W56304  10.638  38.971  14.409
91045W        W56305   5.464  24.517  10.200
91046W        W56306  18.673   1.433  13.015
91047W        W56307  32.964  12.840  14.815
91048W        W56308   2.267  33.382   2.805
91049W        W56309  31.722   9.650  11.757
91050W        W56310  34.063   9.694   4.122
91051W        W56311  13.567   9.337   3.317
91052W        W56312  31.954  13.704  14.962
91053W        W56313  38.622  24.196   4.229
91054W        W56314  16.754  17.508  13.562
91055W        W56315  12.555  44.496  14.412
91056W        W56316  21.813  22.285   2.856
91057W        W56317  32.184  10.528   0.421
91058W        W56318  11.799   0.981  13.959
91059W        W56319  41.967  22.443  12.376
91060W        W56320   4.550  32.588  12.106
91061W        W56321   1.472   1.133   2.374
91062W        W56322  29.671  28.429  14.373
91063W        W56323   6.692   6.057   4.993
91064W        W56324   3.484  33.177   2.141
91065W        W56325  12.692   8.703   0.382
91066W        W56326  22.538  44.072   0.405
91067W        W56327  21.168  34.131   4.128
91068W        W56328   1.482  30.144  12.408
91069W        W56329  11.947  44.289   0.298
91070W        W56330  17.640  29.863   0.798
91071W        W56331   5.995  25.842  11.081
91072W        W56332  20.171   5.019  12.456
91073W        W56333  30.743   2.054  12.880
91074W        W56334  38.032  11.664   2.420
91075W        W56335  30.167  16.703  14.395
91076W        W56336  15.086   1.183   2.705
91077W        W56337  11.994  34.373  12.333
91078W        W56338  16.135   7.524  13.014
91079W        W56339   9.389  31.307   5.493
91080W        W56340   4.335  39.056   0.054
91081W        W56341  32.071   0.258  11.685
91082W        W56342  25.278  23.564  14.892
91083W        W56343  16.309  29.748  14.787
91084W        W56344   1.912  24.963   2.290
91085W        W56345  33.659  42.349  13.543
91086W        W56346   6.336  41.972   1.461
91087W        W56347  42.831   3.321  14.927
91088W        W56348  23.051  14.561   1.903
91089W        W56349  13.811  18.615  14.075
91090W        W56350  41.907  24.067   1.641
91091W        W56351  20.149  41.490   0.478
91092W        W56352  31.078   3.888  13.887
91093W        W56353  44.736   7.387   1.355
91094W        W56354  15.041  38.327   4.666
91095W        W56355  14.161  13.883   2.763
91096W        W56356  11.652  33.560  14.933
91097W        W56357   9.488  11.415  14.741
91098W        W56358  34.463  20.653  13.997
91099W        W56359   9.895  29.150   3.338
91100W        W56360  10.818  10.917   3.702
91101W        W56361  22.695  16.571   2.599
91102W        W56362  15.102  20.219  10.614
91103W        W56363  43.353   6.645  11.973
91104W        W56364   2.347   4.810  12.997
91105W        W56365   9.401  25.602   2.319
91106W        W56366  18.469  38.042   2.443
91107W        W56367  37.129  12.453   1.342
91108W        W56368  11.810   8.842   0.217
91109W        W56369  11.326  18.023  13.564
91110W        W56370   9.639  35.227   0.248
91111W        W56371   2.995  24.325   4.984
91112W        W56372   6.490   3.218   4.143
91113W        W56373   6.330   9.977   3.026
91114W        W56374  16.122   6.110  13.520
91115W        W56375  41.102  25.305   3.704
91116W        W56376  35.980   1.262  14.292
91117W        W56377  21.771   4.199   1.364
91118W        W56378  15.096  43.331   1.236
91119W        W56379  22.577  12.260  12.962
91120W        W56380   2.460   5.365   3.890
91121W        W56381  27.585  38.142  11.060
91122W        W56382  33.023   3.316  10.651
91123W        W56383  16.891  33.326  14.559
91124W        W56384   2.799  20.422   3.767
91125W        W56385  39.737  24.580  14.766
91126W        W56386  38.076  14.421   0.624
91127W        W56387  18.057  11.165  10.672
91128W        W56388  14.544  21.724   9.758
91129W        W56389  34.369  10.858  10.439
91130W        W56390  44.000  39.348   4.453
91131W        W56391  11.352  28.678  12.572
91132W        W56392  24.205  38.508  14.733
91133W        W56393  44.214  44.537  10.362
91134W        W56394   4.203  23.290  12.472
91135W        W56395  12.156  34.080   1.315
91136W        W56396  11.237   2.269  10.748
91137W        W56397  13.630  35.378   4.595
91138W        W56398  25.031  27.964   5.055
91139W        W56399  31.093  43.695   3.171
91140W        W56400   5.417  37.434   3.563
91141W        W56401   0.218  35.589   2.470
91142W        W56402   7.278  40.104   4.049
91143W        W56403  40.929  10.835  14.040
91144W        W56404   2.367  25.493   3.784
91145W        W56405  10.399  27.365  10.169
91146W        W56406  26.264  37.302  12.995
91147W        W56407  34.489  13.870  11.463
91148W        W56408   5.513   7.680   3.779
91149W        W56409   7.467  39.528  12.796
91150W        W56410  13.794  25.669  11.367
91151W        W56411  18.022  27.564  14.727
91152W        W56412  24.020  27.183   3.655
91153W        W56413   9.328  23.678   0.988
91154W        W56414  38.617  25.246  14.748
91155W        W56415  38.254  31.109  12.160
91156W        W56416  35.524  41.765  10.730
91157W        W56417  35.924  10.146   2.776
91158W        W56418   3.175  18.736   0.768
91159W        W56419  24.957  38.984   3.312
91160W        W56420  38.961  15.649  13.878
91161W        W56421  21.106   0.505  11.012
91162W        W56422  39.141  38.426  10.745
91163W        W56423  10.298  33.253   1.473
91164W        W56424  36.608  20.568  14.833
91165W        W56425  27.142  21.312  14.074
91166W        W56426   5.789  24.117  14.138
91167W        W56427  22.640   2.584  11.248
91168W        W56428  44.693  36.994   1.001
91169W        W56429  14.652  31.407  12.604
91170W        W56430  17.560  29.698  12.827
91171W        W56431  25.162   4.310   5.096
91172W        W56432   3.345  26.669   1.662
91173W        W56433  26.507  23.618  14.536
91174W        W56434   0.319  18.950   2.775
91175W        W56435  21.762   8.914  12.298
91176W        W56436  19.671  26.401   2.293
91177W        W56437  11.280  28.994   2.765
91178W        W56438  22.747   9.837   2.789
91179W        W56439  39.300  30.838   0.391
91180W        W56440  34.349  25.112  14.740
91181W        W56441   4.717  11.733   3.645
91182W        W56442  22.356  42.708   3.959
91183W        W56443   3.295  37.085   2.614
91184W        W56444  36.839  30.588   2.516
91185W        W56445  41.406  15.524  10.740
91186W        W56446  12.852  16.124   3.672
91187W        W56447   7.937  19.467   2.600
91188W        W56448   1.809  35.972  11.207
91189W        W56449   1.211  25.535   0.708
91190W        W56450   3.810  37.876   2.995
91191W        W56451  29.187  35.724  13.966
91192W        W56452  22.734  37.840  13.037
91193W        W56453  30.128  25.216  14.516
91194W        W56454  25.378   3.778   4.470
91195W        W56455   0.432  37.278   3.913
91196W        W56456  42.006  21.183  10.776
91197W        W56457  25.273  20.196   2.391
91198W        W56458  12.115  10.530  11.906
91199W        W56459   8.766  12.336  14.063
91200W        W56460  37.466  25.077  14.344
91201W        W56461  17.461  23.976  14.505
91202W        W56462   0.301  33.118   3.694
91203W        W56463  14.778   1.762  11.968
91204W        W56464   3.978  37.896   4.401
91205W        W56465  21.902  12.313   4.421
91206W        W56466   8.305   0.392  13.836
91207W        W56467  43.859   3.581  13.947
91208W        W56468  23.298   3.349  13.788
91209W        W56469  41.510  19.358   2.882
91210W        W56470   8.435  36.033  13.795
91211W        W56471  21.553   9.287   4.495
91212W        W56472  15.260  18.701   1.357
91213W        W56473  40.301  35.791  13.910
91214W        W56474  17.521   9.749   0.741
91215W        W56475  13.215  27.600  11.391
91216W        W56476  21.508  22.074   4.008
91217W        W56477  16.840  35.137  14.325
91218W        W56478  28.008  37.094   3.277
91219W        W56479  26.923   3.754   2.375
91220W        W56480  40.291   5.850  13.932
91221W        W56481  32.157  16.673   4.126
91222W        W56482  29.940  10.308  12.052
91223W        W56483  23.158   7.203  10.723
91224W        W56484  39.011   9.419   4.155
91225W        W56485   4.894  44.715  10.609
91226W        W56486  43.863  42.961   3.280
91227W        W56487  21.025  21.982  11.236
91228W        W56488  43.158  37.622  10.234
91229W        W56489  38.954  38.833   0.285
91230W        W56490  30.257  23.263   1.641
91231W        W56491  12.333   0.276   0.807
91232W        W56492  20.525   0.045   1.166
91233W        W56493   2.735  21.034  10.694
91234W        W56494  14.413  41.511  10.547
91235W        W56495  10.878  20.792  12.568
91236W        W56496  10.401  30.975   3.273
91237W        W56497  12.631  40.964  14.380
91238W        W56498  34.265   0.940   2.684
91239W        W56499  13.747  11.199  14.580
91240W        W56500   7.026  19.579  12.569
91241W        W56501  15.786  12.996   3.669
91242W        W56502  27.379  31.435   0.969
91243W        W56503  28.183  13.240  11.459
91244W        W56504  41.213  27.024   1.341
91245W        W56505  40.539  38.512  11.700
91246W        W56506  32.196  20.213   1.375
91247W        W56507  20.830  25.671  13.581
91248W        W56508  24.270  10.737  14.961
91249W        W56509   1.752  24.363  10.851
91250W        W56510  16.684  12.668  12.077
91251W        W56511  36.964  39.477   1.712
91252W        W56512  32.614  16.186   1.822
91253W        W56513  18.512  40.423  12.538
91254W        W56514  43.828  35.082  10.628
91255W        W56515  42.409  13.768   2.636
91256W        W56516  16.732  13.812  10.706
91257W        W56517   1.846   7.782  11.167
91258W        W56518  41.366  25.958   4.836
91259W        W56519  37.215  15.573   1.180
91260W        W56520  11.167  34.016  14.128
91261W        W56521   9.306  32.005  10.673
91262W        W56522  33.944  35.525   1.705
91263W        W56523  37.370  43.472  11.638
91264W        W56524  33.566  30.387   2.798
91265W        W56525  28.163   4.193   2.560
91266W        W56526  12.625  24.166  10.815
91267W        W56527   2.363  25.143   1.667
91268W        W56528  40.460  27.125  10.558
91269W        W56529  37.795  31.864   1.790
91270W        W56530   8.371  32.769  12.760
91271W        W56531  28.064  43.968  14.963
91272W        W56532  29.304   9.090   2.708
91273W        W56533  29.189  31.120  14.776
91274W        W56534  44.009  42.149  12.193
91275W        W56535  14.376   6.532  14.909
91276W        W56536  31.061  34.482   1.778
91277W        W56537   1.063  22.901   2.310
91278W        W56538  37.915  42.266   2.813
91279W        W56539  33.949  35.027   0.970
91280W        W56540   4.100  12.645   0.325
91281W        W56541  18.916  26.927   0.598
91282W        W56542  16.744  41.075   3.169
91283W        W56543   4.470  38.166  10.988
91284W        W56544  39.929  34.773   0.332
91285W        W56545  16.567  21.600  12.014
91286W        W56546  17.283  43.298   0.684
91287W        W56547   8.787  19.836   1.749
91288W        W56548  44.036  13.503  13.970
91289W        W56549  22.229  39.371  12.707
91290W        W56550  43.048  14.825  14.409
91291W        W56551   0.734  14.425  11.382
91292W        W56552  34.145   4.207   3.599
91293W        W56553   7.405  26.965  12.094
91294W        W56554  30.425  42.863  12.863
91295W        W56555  36.829  42.883  13.450
91296W        W56556   2.771  31.194   3.741
91297W        W56557  19.610  42.277  11.452
91298W        W56558  39.091  39.061  11.072
91299W        W56559  40.962  42.103  14.076
91300W        W56560  21.278  28.858   0.227
91301W        W56561  32.497   7.167  11.037
91302W        W56562  37.939  19.041  12.009
91303W        W56563  12.893   3.175  13.799
91304W        W56564  29.733  17.284  14.762
91305W        W56565  40.281  14.697  14.588
91306W        W56566  26.465  32.907   1.386
91307W        W56567  25.219  32.385   3.729
91308W        W56568   0.331  25.111  12.933
91309W        W56569  10.052  24.316   2.187
91310W        W56570   3.418  40.422   5.006
91311W        W56571  10.138  19.094  14.547
91312W        W56572   1.166  11.818  12.574
91313W        W56573  32.470  24.125  13.566
91314W        W56574   0.394  43.139  13.388
91315W        W56575   7.660  32.122  13.605
91316W        W56576   6.627  23.817   1.951
91317W        W56577  25.426  14.372   1.120
91318W        W56578  40.027   6.878  14.024
91319W        W56579   5.370  31.487   4.190
91320W        W56580   2.090  36.926  12.939
91321W        W56581  42.762  41.587   2.686
91322W        W56582  23.295   9.691   0.214
91323W        W56583   5.822   0.059  10.897
91324W        W56584  37.636  35.460   4.660
91325W        W56585  23.240  22.739   0.269
91326W        W56586  24.882  28.294  14.400
91327W        W56587  31.889  39.159   2.805
91328W        W56588  31.054  43.370   4.089
91329W        W56589  19.495   3.307  14.378
91330W        W56590  20.157   7.027  14.892
91331W        W56591  11.931  22.726   3.743
91332W        W56592  21.205   8.832   1.237
91333W        W56593   0.606  24.652  14.779
91334W        W56594  31.273  35.470  11.138
91335W        W56595  14.750   5.232  14.737
91336W        W56596  43.936  27.695   3.725
91337W        W56597  44.052  43.514  14.477
91338W        W56598  36.312   3.712   2.845
91339W        W56599  19.164   9.287  12.008
91340W        W56600  37.857  11.307  12.620
91341W        W56601  39.343  37.010   1.315
91342W        W56602  23.109  13.100  14.472
91343W        W56603   0.611  41.080  12.218
91344W        W56604  23.221  37.568  11.164
91345W        W56605   3.030  41.742  10.839
91346W        W56606   2.298  19.610   0.284
91347W        W56607  10.246  40.009  11.605
91348W        W56608  32.424  17.027   2.222
91349W        W56609  12.656  20.218   1.353
91350W        W56610  38.044  13.784  13.583
91351W        W56611  19.522  20.806  14.036
91352W        W56612   2.923  30.012  11.701
91353W        W56613  36.113  21.474   3.793
91354W        W56614  38.862  20.450  13.496
91355W        W56615   3.574  14.782   4.788
91356W        W56616  40.482   9.374   3.238
91357W        W56617  39.828  11.780   1.752
91358W        W56618  28.817   6.709   4.525
91359W        W56619  20.028  19.131  12.832
91360W        W56620   5.005   1.488  12.399
91361W        W56621  42.058  19.238   4.721
91362W        W56622  44.320  40.833   3.938
91363W        W56623  31.173  17.548   1.901
91364W        W56624  14.574  29.954   2.683
91365W        W56625  24.113  44.993  10.732
91366W        W56626   4.002  25.208  11.791
91367W        W56627  25.768   6.177   4.749
91368W        W56628  21.715  11.658   2.898
91369W        W56629  19.135  21.168   1.894
91370W        W56630   9.891  14.162   3.287
91371W        W56631  18.778   0.572   1.006
91372W        W56632  35.808  42.871   2.219
91373W        W56633  21.756  19.659  11.957
91374W        W56634   3.918  19.273  13.534
91375W        W56635  32.302  12.658  10.747
91376W        W56636  11.471  29.090   4.235
91377W        W56637  17.166  23.759   0.972
91378W        W56638  24.910  13.786  13.480
91379W        W56639  28.929   9.690   4.649
91380W        W56640  35.937  32.117  12.913
91381W        W56641   0.922  19.462   1.424
91382W        W56642  43.321  24.264   1.991
91383W        W56643  25.902  34.911   3.322
91384W        W56644  26.788  25.383   1.354
91385W        W56645  33.759  37.947   2.113
91386W        W56646  33.788  15.595   2.710
91387W        W56647  41.902  22.461  14.880
91388W        W56648  40.761  29.669   4.171
91389W        W56649  24.867  12.674  12.690
91390W        W56650   7.641  30.818   1.273
91391W        W56651  21.482  26.668  14.222
91392W        W56652   0.438   5.007   1.136
91393W        W56653  22.632   7.229   0.346
91394W        W56654  33.124   2.517  14.281
91395W        W56655  39.592   8.910   4.583
91396W        W56656  38.837   6.191   0.285
91397W        W56657   7.454   9.334  10.822
91398W        W56658  41.818  27.495   2.736
91399W        W56659   4.182  36.052   2.109
91400W        W56660  18.785  25.624   0.961
91401W        W56661  11.255  12.040  14.766
91402W        W56662  38.610   9.323  10.731
91403W        W56663  44.962   1.332   4.182
91404W        W56664   0.880  33.486   4.969
91405W        W56665  24.277  26.146   2.898
91406W        W56666  18.770  14.692   0.769
91407W        W56667   9.817  21.636  12.408
91408W        W56668   7.614  14.838   2.898
91409W        W56669   8.265  36.008   3.372
91410W        W56670  43.721   8.853  11.114
91411W        W56671   3.216  10.275   4.615
91412W        W56672   0.740  24.566   1.279
91413W        W56673  35.005  33.267  14.243
91414W        W56674  34.486  43.613  14.770
91415W        W56675  16.085  25.765  12.574
91416W        W56676  25.599  22.027   0.709
91417W        W56677   0.353  36.326   2.916
91418W        W56678  16.322  28.127   2.761
91419W        W56679   8.100  40.523  13.492
91420W        W56680  23.844  13.938   3.655
91421W        W56681  29.179   5.160   0.403
91422W        W56682  22.692   1.362  11.084
91423W        W56683  31.470  31.836  11.116
91424W        W56684  24.487   4.444   3.080
91425W        W56685  15.610  37.253  12.853
91426W        W56686  10.621   9.208  14.944
91427W        W56687  44.344  40.949  13.125
91428W        W56688  40.272  11.123   4.152
91429W        W56689  16.905  40.108   3.474
91430W        W56690  12.927  31.512   2.631
91431W        W56691  12.182  19.609  14.988
91432W        W56692  32.633   2.892   2.900
91433W        W56693  43.263  10.338  13.488
91434W        W56694   9.736  24.210   2.604
91435W        W56695  12.041  38.282   4.224
91436W        W56696  42.032  41.326  11.275
91437W        W56697  19.741   4.689   4.551
91438W        W56698  41.373  43.293   4.405
91439W        W56699   5.720  15.502   0.785
91440W        W56700  11.504  41.284   3.731
91441W        W56701  31.304  23.383  14.959
91442W        W56702  26.206  44.883  12.126
91443W        W56703   3.249  23.331   2.455
91444W        W56704  29.037  17.649   4.584
91445W        W56705  16.644  27.575   4.317
91446W        W56706  15.903  37.056  12.417
91447W        W56707  23.702  37.057  13.494
91448W        W56708  24.552   9.923   4.609
91449W        W56709   6.466  30.058   4.066
91450W        W56710  15.462  38.086   4.234
91451W        W56711  29.880  36.120  14.489
91452W        W56712  27.068  44.048   0.753
91453W        W56713  35.366   8.123  14.069
91454W        W56714   4.131  37.434  12.123
91455W        W56715  26.157   9.906   3.063
91456W        W56716  15.802  39.940   0.774
91457W        W56717  43.290  39.093  13.930
91458W        W56718  43.303   1.315  14.294
91459W        W56719  11.127  44.956  12.904
91460W        W56720  21.565   8.474   1.418
91461W        W56721  12.695   9.836   3.058
91462W        W56722   1.921   0.419  12.036
91463W        W56723  41.721  14.216   3.235
91464W        W56724  22.119   3.342   1.824
91465W        W56725   8.902   5.127   4.950
91466W        W56726   3.210  13.710   2.890
91467W        W56727  30.165   5.218  13.483
91468W        W56728  14.841  25.978  13.186
91469W        W56729  34.410  36.086   4.181
91470W        W56730   2.257   6.200  11.909
91471W        W56731   3.371   5.129  14.961
91472W        W56732  30.209  35.932   2.894
91473W        W56733  26.565   0.061   4.083
91474W        W56734  25.734  11.062   4.783
91475W        W56735  35.562  11.859   4.123
91476W        W56736   1.930  10.430   3.353
91477W        W56737  16.202  41.331   4.611
91478W        W56738  22.728  41.605   1.563
91479W        W56739   2.475   2.814   0.481
91480W        W56740  18.016  20.189   3.243
91481W        W56741  30.951   9.444   3.866
91482W        W56742  14.608   9.906   1.761
91483W        W56743  10.861  24.501  12.668
91484W        W56744   5.414  32.030  14.951
91485W        W56745  39.293  12.185   2.372
91486W        W56746  38.478   3.055  12.428
91487W        W56747  30.538  21.001  11.117
91488W        W56748  29.771  22.867   9.860
91489W        W56749  17.297  42.435   2.162
91490W        W56750  26.676  31.631  14.342
91491W        W56751   7.432  30.185   2.141
91492W        W56752   7.581  35.638  10.634
91493W        W56753  10.264  12.877  10.767
91494W        W56754  40.564  16.345   4.460
91495W        W56755  27.146   7.146  10.347
91496W        W56756   4.161  42.003  13.027
91497W        W56757  14.532  11.030  14.285
91498W        W56758  30.808  12.443   4.136
91499W        W56759  21.283  43.953  14.403
91500W        W56760   9.624  23.116  13.842
91501W        W56761  20.728  43.337   0.844
91502W        W56762  28.461  41.591   0.118
91503W        W56763  28.125  16.722  10.972
91504W        W56764  35.333  34.138  14.295
91505W        W56765   1.658  31.862  11.544
91506W        W56766  21.774  14.800  10.829
91507W        W56767  42.950  40.871  13.541
91508W        W56768   0.051  27.897   3.759
91509W        W56769  28.512  15.475   1.258
91510W        W56770  15.702  35.921  14.179
91511W        W56771  16.639  44.548   0.286
91512W        W56772   4.432  20.781  14.254
91513W        W56773  32.459  14.075   3.494
91514W        W56774   9.929  17.186  14.556
91515W        W56775  40.444  12.304  12.067
91516W        W56776   8.142  15.205   0.706
91517W        W56777  31.433   2.221   1.453
91518W        W56778  43.666   9.866  12.365
91519W        W56779   7.872  31.771   1.366
91520W        W56780   5.427  10.137   3.627
91521W        W56781  43.232  15.029   4.742
91522W        W56782   7.554  24.452  12.370
91523W        W56783  18.281   4.333  10.617
91524W        W56784  35.740  25.645  11.138
91525W        W56785  41.387   5.340  13.785
91526W        W56786   5.947  22.608  14.516
91527W        W56787  10.642   5.989  14.099
91528W        W56788   0.804  31.588   0.361
91529W        W56789  30.949  16.190   1.417
91530W        W56790  25.444   6.463   3.827
91531W        W56791  38.108   9.860   4.510
91532W        W56792  28.993  17.885   0.985
91533W        W56793  25.626  19.329  10.055
91534W        W56794  38.700  36.344   4.540
91535W        W56795  44.873   8.885   0.296
91536W        W56796  15.236  18.740  11.950
91537W        W56797  25.385  34.550   3.810
91538W        W56798   3.984  44.925   0.711
91539W        W56799   0.003  30.755  11.153
91540W        W56800  22.041  20.523  14.897
91541W        W56801  19.294  13.420  12.125
91542W        W56802  43.984  16.017   0.323
91543W        W56803  43.709  18.608   3.018
91544W        W56804  26.075  43.709   2.259
91545W        W56805  19.538  31.984   3.189
91546W        W56806  30.287  21.772   4.403
91547W        W56807   2.785  10.440   1.030
91548W        W56808  44.192  32.292  12.996
91549W        W56809  35.226   7.454  14.943
91550W        W56810   2.375  14.311   3.677
91551W        W56811  16.685  27.381  12.958
91552W        W56812  14.484  35.746   3.301
91553W        W56813  18.082   3.587   1.101
91554W        W56814  15.325  11.924  13.075
91555W        W56815  44.387  39.002  10.692
91556W        W56816  30.477  15.510  12.902
91557W        W56817  36.504  41.082  13.924
91558W        W56818  29.048  35.958   1.279
91559W        W56819  18.829  24.016   1.794
91560W        W56820  33.876  33.998  12.356
91561W        W56821  21.075  43.989  10.313
91562W        W56822  13.633   9.232   0.379
91563W        W56823  41.251   9.679   3.726
91564W        W56824   6.823  16.058   0.312
91565W        W56825  30.205   2.760  11.682
91566W        W56826   9.855   2.996  13.562
91567W        W56827  35.557  40.576   4.510
91568W        W56828  24.248  26.929   0.276
91569W        W56829   2.045   6.405  12.926
91570W        W56830   0.319  22.115  10.588
91571W        W56831  16.676  32.921   4.523
91572W        W56832   2.863  25.092  14.372
91573W        W56833  10.919  13.787  14.917
91574W        W56834  21.839  28.959   3.150
91575W        W56835   4.856  44.347   0.169
91576W        W56836  37.003  40.679   1.146
91577W        W56837  13.655  42.379   2.696
91578W        W56838  23.992  35.148   0.891
91579W        W56839  12.511   5.626  10.673
91580W        W56840  28.878  20.705   2.180
91581W        W56841  20.477  30.001   4.154
91582W        W56842  37.369   4.461   1.323
91583W        W56843  17.759  22.928   4.960
91584W        W56844  11.144  43.806  11.698
91585W        W56845  19.350  22.499   3.383
91586W        W56846  33.917  43.470   1.393
91587W        W56847  20.723  29.600   2.016
91588W        W56848  33.126  11.011  14.454
91589W        W56849   2.112  42.754   4.690
91590W        W56850  37.603  15.345  12.441
91591W        W56851  39.355   0.379  11.644
91592W        W56852   8.873  43.204  14.015
91593W        W56853  33.360  36.949   1.947
91594W        W56854  38.911  39.440   2.140
91595W        W56855  19.058   4.428  12.865
91596W        W56856  20.261  44.943   2.371
91597W        W56857  41.329  27.639  10.416
91598W        W56858   8.700   9.382  14.529
91599W        W56859  18.768   3.379  14.884
91600W        W56860  44.673  11.748   1.792
91601W        W56861   6.729   0.547   3.764
91602W        W56862  22.122  18.139  13.949
91603W        W56863  31.586  23.743   0.273
91604W        W56864   5.642  19.762   3.786
91605W        W56865   3.449  20.998  12.523
91606W        W56866   9.621  30.810  10.354
91607W        W56867  25.881   8.379   0.195
91608W        W56868  23.231  24.988   3.625
91609W        W56869  10.682  16.524   4.803
91610W        W56870   2.485  40.009  14.581
91611W        W56871   3.658  26.348   5.374
91612W        W56872   8.398  41.362   1.912
91613W        W56873   3.215  40.979   2.338
91614W        W56874  12.115  16.804  13.285
91615W        W56875  41.889  34.703  13.720
91616W        W56876  31.957  38.698  11.284
91617W        W56877  44.241   9.849  11.648
91618W        W56878  12.166  36.221  14.536
91619W        W56879  39.399  24.935  10.967
91620W        W56880   2.160  26.235  13.016
91621W        W56881   1.153  11.292   4.926
91622W        W56882   4.191  32.439  12.413
91623W        W56883   0.218   9.209   3.218
91624W        W56884  29.730  18.593  14.251
91625W        W56885  23.656   2.927  11.202
91626W        W56886  20.271  22.425  11.542
91627W        W56887   2.341  24.374  14.459
91628W        W56888  23.392   3.246   9.884
91629W        W56889  41.042   2.154  11.451
91630W        W56890  22.649  23.634  13.939
91631W        W56891  40.744   1.518   2.378
91632W        W56892  11.268   5.193   2.672
91633W        W56893  17.150  38.987   1.046
91634W        W56894   7.721   4.153  12.042
91635W        W56895  38.169   6.423  10.680
91636W        W56896  44.426  35.895  12.443
91637W        W56897   3.910   1.338  11.566
91638W        W56898  31.627  11.571   0.060
91639W        W56899   2.005   1.927   0.844
91640W        W56900  38.504  28.636  13.963
91641W        W56901  18.249  30.562  10.374
91642W        W56902   4.899  21.689   0.655
91643W        W56903  38.348  29.866  12.491
91644W        W56904  22.973  42.388  11.061
91645W        W56905  37.338  35.682   2.466
91646W        W56906  33.111  12.009   3.734
91647W        W56907  19.916   4.061   0.239
91648W        W56908  33.890  21.136   3.577
91649W        W56909  43.697   6.528   3.455
91650W        W56910   8.161  22.603   0.760
91651W        W56911   0.989   9.881   0.943
91652W        W56912  30.390  13.954   4.613
91653W        W56913  35.417  32.237   2.835
91654W        W56914  34.331  33.861   4.062
91655W        W56915  44.888  13.796  13.386
91656W        W56916   8.619   4.131   0.218
91657W        W56917  11.041  15.865   4.460
91658W        W56918  30.592  14.671   0.370
91659W        W56919   1.285   8.439  14.386
91660W        W56920   3.713  20.082  13.916
91661W        W56921  42.449   5.996  14.802
91662W        W56922  37.519  37.489  10.983
91663W        W56923   5.135  16.021  14.449
91664W        W56924  32.397  38.885  13.480
91665W        W56925  40.980  17.168  14.292
91666W        W56926  41.956  25.316   4.623
91667W        W56927   8.864  23.302  10.086
91668W        W56928   1.802  32.195   3.096
91669W        W56929   0.861  30.953   1.196
91670W        W56930  23.347   8.341  10.989
91671W        W56931  40.532  24.222  13.714
91672W        W56932  39.293   9.599   0.714
91673W        W56933  17.115  22.351   1.726
91674W        W56934  40.908  23.768  14.532
91675W        W56935  33.331  29.768  12.173
91676W        W56936   0.314  37.818   4.070
91677W        W56937  40.730  26.200   4.188
91678W        W56938   5.974  25.290  12.652
91679W        W56939   5.148  11.265   0.020
91680W        W56940  35.762   1.982   9.744
91681W        W56941  13.625  28.931   4.089
91682W        W56942  14.160  14.595  12.116
91683W        W56943  19.540  35.100   0.247
91684W        W56944  29.601  33.891   3.840
91685W        W56945  20.296   8.663   1.535
91686W        W56946  43.952  37.694   5.058
91687W        W56947   3.947  11.301  13.967
91688W        W56948  31.081  31.894  14.412
91689W        W56949  21.988   3.711   3.592
91690W        W56950  16.820  32.822  14.484
91691W        W56951  39.347   6.144  11.016
91692W        W56952  15.936  33.976  12.005
91693W        W56953  41.530  37.028  11.512
91694W        W56954  12.129  15.533   3.314
91695W        W56955  32.383  33.556   1.305
91696W        W56956   2.953  29.464  10.499
91697W        W56957   9.599  24.947  14.924
91698W        W56958  29.976  40.032   3.284
91699W        W56959   1.246   3.080   4.142
91700W        W56960  28.466  27.254  12.803
91701W        W56961  38.527  18.529  10.686
91702W        W56962  21.025  17.571   0.609
91703W        W56963  41.003  25.939   0.727
91704W        W56964  34.365  25.011   5.147
91705W        W56965  42.720  19.708  13.007
91706W        W56966   4.532  34.818   5.327
91707W        W56967  44.330  18.239   4.212
91708W        W56968   8.154   0.441   4.179
91709W        W56969  40.537  41.312  11.626
91710W        W56970  39.992  27.808   2.647
91711W        W56971  12.467  28.293  10.282
91712W        W56972  16.115  13.060   4.671
91713W        W56973  12.516  41.327  12.976
91714W        W56974  30.417  25.162  11.162
91715W        W56975   5.473  30.661   5.277
91716W        W56976  20.113   4.123  10.623
91717W        W56977  30.389  20.515  11.158
91718W        W56978  35.299  23.288  12.709
91719W        W56979   6.285   3.280  14.579
91720W        W56980  31.871  37.340   9.928
91721W        W56981  30.531  34.547  14.372
91722W        W56982  36.464  23.114   2.230
91723W        W56983  44.711  23.025  12.094
91724W        W56984  43.489  15.111  12.418
91725W        W56985  37.577  28.578  11.255
91726W        W56986  44.851  43.968   1.076
91727W        W56987  35.986  18.619   1.180
91728W        W56988   6.898  14.707  13.173
91729W        W56989  11.790  16.322  13.962
91730W        W56990  38.539  33.088  12.829
91731W        W56991   8.610  17.278   3.318
91732W        W56992  25.028  13.153   2.198
91733W        W56993   5.933   3.260   4.563
91734W        W56994  27.050  43.107   4.890
91735W        W56995  16.007  35.279   0.985
91736W        W56996  15.684  34.384   3.135
91737W        W56997   4.894  26.567  14.368
91738W        W56998  41.099  43.757  11.647
91739W        W56999  27.490  30.739  12.349
91740W        W57000  13.084  34.502  12.040
91741W        W57001  41.899  21.628   0.772
91742W        W57002  21.737  43.759  13.713
91743W        W57003  33.137  29.387  14.380
91744W        W57004  41.940   3.416   2.339
91745W        W57005   2.705   2.151  11.149
91746W        W57006  31.205   1.228   0.905
91747W        W57007  30.200  31.993  10.984
91748W        W57008  40.275  23.540  12.786
91749W        W57009  38.765   1.896  11.103
91750W        W57010  44.308  16.724  10.672
91751W        W57011  41.748  35.017   2.214
91752W        W57012  17.799  33.802   2.151
91753W        W57013  18.319   6.383   1.627
91754W        W57014   7.190  17.722   3.171
91755W        W57015  13.785  43.124  10.637
91756W        W57016  30.707   5.363   4.315
91757W        W57017  20.787  37.805   4.223
91758W        W57018  11.400  33.258   0.267
91759W        W57019  18.237  22.110   4.996
91760W        W57020  26.887  36.528  10.575
91761W        W57021  35.034  29.605   4.079
91762W        W57022  25.130  41.383   0.269
91763W        W57023  43.548  10.957   3.251
91764W        W57024  32.065   0.066   3.565
91765W        W57025  33.938  41.315  12.035
91766W        W57026  13.149  26.399   3.270
91767W        W57027  22.561  14.412  14.902
91768W        W57028  31.545  39.953  13.317
91769W        W57029  17.329   9.644  12.251
91770W        W57030  15.220  42.433   1.305
91771W        W57031  38.730  15.044  11.674
91772W        W57032  38.353  35.761   0.876
91773W        W57033  40.409  24.152   0.175
91774W        W57034  19.546  43.741  10.740
91775W        W57035  11.775  26.587   1.501
91776W        W57036  14.013  25.618   5.008
91777W        W57037  18.579  37.807   4.433
91778W        W57038  28.567   3.482  12.140
91779W        W57039   5.425  29.754   0.323
91780W        W57040   0.662  24.209   1.939
91781W        W57041  37.348   5.191  11.311
91782W        W57042   1.384   2.833  12.195
91783W        W57043  30.191  42.369   1.641
91784W        W57044  10.841  26.003  14.484
91785W        W57045  33.149  33.180   0.611
91786W        W57046  39.016  24.246   1.891
91787W        W57047  25.031   0.512   3.100
91788W        W57048  38.565  24.016   3.746
91789W        W57049  36.887  29.291  10.893
91790W        W57050  15.207  40.506   4.924
91791W        W57051  10.560  30.378   1.690
91792W        W57052   5.210  21.050   0.822
91793W        W57053  15.109  19.741  11.765
91794W        W57054   8.371   3.447  10.787
91795W        W57055  23.539  28.903  11.135
91796W        W57056   3.234   8.221  12.618
91797W        W57057   7.217  10.851  14.249
91798W        W57058  30.405  33.064  13.849
91799W        W57059  14.189   8.462   0.359
91800W        W57060  30.991  38.847  12.010
91801W        W57061  37.091  21.011  10.775
91802W        W57062  18.350  34.924  13.056
91803W        W57063  32.190  14.181  11.365
91804W        W57064  21.221  28.939   1.375
91805W        W57065   0.273   7.056  10.719
91806W        W57066  16.223   3.955   4.656
91807W        W57067  32.007  19.213   1.399
91808W        W57068   3.605  33.957   4.835
91809W        W57069   3.419   5.973  11.187
91810W        W57070   2.257  43.871   3.773
91811W        W57071  15.465  13.190  11.141
91812W        W57072  33.012   0.585   2.502
91813W        W57073  24.143  19.233  14.550
91814W        W57074   3.236  29.206   2.777
91815W        W57075  15.325  39.433   1.840
91816W        W57076  15.024   5.601  14.418
91817W        W57077  29.108  44.284  11.536
91818W        W57078  32.789  35.091   3.847
91819W        W57079  27.954  17.929   3.139
91820W        W57080  36.349  14.837  11.272
91821W        W57081  16.513   4.210  12.145
91822W        W57082  11.721  35.086   4.585
91823W        W57083  17.663  32.460  14.006
91824W        W57084  40.422  43.094  10.782
91825W        W57085  15.602  37.459   3.833
91826W        W57086  20.237  12.323   1.185
91827W        W57087  32.094  42.891  14.205
91828W        W57088  25.236  41.593   3.264
91829W        W57089   9.649  21.589   1.255
91830W        W57090  36.776   2.924  13.924
91831W        W57091  30.898  23.989   5.051
91832W        W57092  15.864  17.927  14.479
91833W        W57093  43.701  32.470  12.061
91834W        W57094   9.217  14.238  13.570
91835W        W57095  33.555  12.390  11.185
91836W        W57096  11.752   1.683   1.925
91837W        W57097  41.547  14.924   0.704
91838W        W57098  25.609   4.243  12.158
91839W        W57099   8.207  12.675  14.471
91840W        W57100  23.217  30.174  13.381
91841W        W57101  10.505  37.377  11.918
91842W        W57102   6.314  39.745   3.279
91843W        W57103  29.333  42.856   1.676
91844W        W57104  18.630  37.772   4.970
91845W        W57105  12.187   9.385  11.066
91846W        W57106  34.170   3.735   2.441
91847W        W57107  19.699  28.309  13.789
91848W        W57108   1.993   4.741  13.957
91849W        W57109  30.927  12.665  12.974
91850W        W57110  16.007  18.677  10.791
91851W        W57111  24.544  39.859  12.078
91852W        W57112   6.786   9.732   0.587
91853W        W57113  13.506   4.840  11.126
91854W        W57114  24.722  15.763  13.432
91855W        W57115  12.184  30.881  12.610
91856W        W57116  12.097  10.106  14.919
91857W        W57117  38.842  13.082   3.626
91858W        W57118   8.771  22.491   3.177
91859W        W57119  39.517  28.509  14.780
91860W        W57120  31.098  40.918   0.432
91861W        W57121   0.541  24.414  12.046
91862W        W57122  14.017   7.044   9.605
91863W        W57123   1.740  26.001   0.096
91864W        W57124  33.966  40.612  14.898
91865W        W57125  14.140  27.542  13.650
91866W        W57126   9.151  23.617   0.500
91867W        W57127  39.314  38.412   3.154
91868W        W57128  17.616  41.421  13.799
91869W        W57129   7.904  39.902   1.699
91870W        W57130  35.500   7.138  12.372
91871W        W57131  30.628  37.851   0.259
91872W        W57132   8.400  14.756  14.941
91873W        W57133   0.963  15.646   1.710
91874W        W57134  16.089  22.899   3.748
91875W        W57135  25.685  23.812  12.377
91876W        W57136  11.223  11.908  12.137
91877W        W57137  29.981  24.722  13.032
91878W        W57138   8.646  24.734   4.562
91879W        W57139  21.306  25.826   5.005
91880W        W57140  14.927   3.785  14.795
91881W        W57141  18.134   3.284   1.974
91882W        W57142  10.568  28.480  13.762
91883W        W57143  24.616  30.552   1.500
91884W        W57144   6.884  24.666   2.930
91885W        W57145  18.516  40.026   0.203
91886W        W57146  38.600   2.891   1.728
91887W        W57147   8.731  11.780   0.349
91888W        W57148  30.699  13.148  12.917
91889W        W57149  41.911  11.195   3.070
91890W        W57150  16.796  10.793  14.273
91891W        W57151  27.587  44.058   2.822
91892W        W57152  37.310  26.534   9.733
91893W        W57153  28.686   1.003   4.738
91894W        W57154   4.914  43.318   2.701
91895W        W57155  23.861  30.635   4.683
91896W        W57156  14.463   2.416   2.909
91897W        W57157   0.324  11.223  13.080
91898W        W57158  20.596   6.498   2.177
91899W        W57159  23.180   7.071  13.880
91900W        W57160  27.950  35.129   2.289
91901W        W57161  15.636  18.372   3.666
91902W        W57162  44.648  24.787  11.197
91903W        W57163  21.039  38.509  11.724
91904W        W57164  25.221  14.504  12.865
91905W        W57165  27.465  12.759  11.737
91906W        W57166  12.740  39.522  11.053
91907W        W57167  24.775  12.222   2.770
91908W        W57168  23.528  44.237  14.579
91909W        W57169  18.023  40.376  12.406
91910W        W57170  33.828   2.504   4.562
91911W        W57171  28.094   3.676  12.046
91912W        W57172  38.970  38.292   0.276
91913W        W57173   5.298  34.557   3.186
91914W        W57174  33.837  29.668   4.416
91915W        W57175  17.301   2.174   1.852
91916W        W57176  39.866  44.452   0.250
91917W        W57177  30.981  16.119  11.587
91918W        W57178  43.814  43.288  11.550
91919W        W57179  44.444  18.215   1.163
91920W        W57180   7.967  18.649   3.596
91921W        W57181  29.977   1.656   2.708
91922W        W57182  28.133  42.899  14.934
91923W        W57183  13.756  30.054  14.561
91924W        W57184  44.201  31.941   4.563
91925W        W57185  16.769  12.998  13.907
91926W        W57186   8.885  23.113  13.336
91927W        W57187   8.880  37.968   4.125
91928W        W57188   8.871  25.739   4.510
91929W        W57189  24.639  32.136  14.390
91930W        W57190  26.891  34.995  12.951
91931W        W57191   5.893   2.286  13.830
91932W        W57192  32.395  42.500  14.934
91933W        W57193  20.876  19.385  10.263
91934W        W57194  26.276  29.530  12.686
91935W        W57195   5.747   1.670   0.191
91936W        W57196  14.106  44.919  14.268
91937W        W57197  21.841  22.223   3.631
91938W        W57198   7.757  40.057   4.221
91939W        W57199  26.085  29.585  14.197
91940W        W57200  12.116  21.061   1.446
91941W        W57201   4.187  30.572   4.311
91942W        W57202  20.674  27.458  11.971
91943W        W57203  22.962  38.111  11.616
91944W        W57204  10.052  11.286   2.625
91945W        W57205  25.520   1.885  12.953
91946W        W57206  30.983   0.878  11.598
91947W        W57207   8.489  30.370  12.572
91948W        W57208  19.292   8.220  13.363
91949W        W57209   8.409  18.032  12.576
91950W        W57210  30.695   3.589   0.894
91951W        W57211  36.487  20.192   0.709
91952W        W57212   5.910   1.523   2.569
91953W        W57213  31.002  27.010  11.102
91954W        W57214   0.226  17.057   0.261
91955W        W57215  29.957   3.877  14.082
91956W        W57216  29.122  27.899  14.710
91957W        W57217  35.027  34.632   1.326
91958W        W57218  15.805   0.944   0.628
91959W        W57219  35.803  44.802   3.795
91960W        W57220  27.676  27.464  10.737
91961W        W57221  28.190  22.406   1.877
91962W        W57222  19.672   8.906   0.869
91963W        W57223  29.037   5.472   3.285
91964W        W57224  24.251  14.481  11.596
91965W        W57225   3.411   4.626  12.432
91966W        W57226  26.897  15.300  13.984
91967W        W57227  35.727   9.807  14.941
91968W        W57228  22.993  26.256   3.189
91969W        W57229  36.762  41.624  11.936
91970W        W57230  24.546  30.174   4.116
91971W        W57231  41.049  15.852   4.519
91972W        W57232  32.092  32.647   2.234
91973W        W57233   7.234  34.982   1.198
91974W        W57234  14.532  38.709  10.563
91975W        W57235  36.552  37.417   0.919
91976W        W57236   3.939  15.032   0.406
91977W        W57237  38.537  38.942   4.249
91978W        W57238  33.031  37.790   2.859
91979W        W57239  22.684  26.517   0.214
91980W        W57240  34.575  14.473  11.393
91981W        W57241  34.318  12.248  12.268
91982W        W57242  44.058  24.215   0.799
91983W        W57243   4.663   9.627  10.841
91984W        W57244  15.741   1.379   3.940
91985W        W57245  42.692  21.183  13.922
91986W        W57246  32.403  20.135  13.331
91987W        W57247  39.432  17.512   3.223
91988W        W57248   7.256  16.408   1.792
91989W        W57249  22.668  33.000   4.150
91990W        W57250  26.079  30.422  13.042
91991W        W57251  44.805  26.134   2.935
91992W        W57252   6.380   2.062   1.408
91993W        W57253  18.077  11.850   4.699
91994W        W57254  40.613  31.373  12.018
91995W        W57255  35.079   2.344  12.172
91996W        W57256   5.777  22.194   4.198
91997W        W57257  30.914   4.176   1.766
91998W        W57258  35.142  22.031  12.199
91999W        W57259  21.730  30.079   0.218
92000W        W57260  19.150  21.169   5.055
92001W        W57261  43.585  36.546  12.024
92002W        W57262  38.717  19.499   2.986
92003W        W57263  35.113  27.412  14.202
92004W        W57264  35.475  26.386   2.904
92005W        W57265  15.165  20.601  11.930
92006W        W57266   7.462   6.430  12.446
92007W        W57267  17.374   6.727   0.416
92008W        W57268   0.821  33.252  13.831
92009W        W57269   2.744  42.545   0.232
92010W        W57270  11.260   3.154   2.370
92011W        W57271   2.548  26.156   0.405
92012W        W57272   0.048  38.655   3.616
92013W        W57273  41.256  16.128   1.373
92014W        W57274  24.009  29.591  11.545
92015W        W57275  31.647  15.827  11.468
92016W        W57276  42.736  10.251  13.544
92017W        W57277  41.443  32.517   4.961
92018W        W57278   5.053  30.885  14.801
92019W        W57279  36.907  18.724   3.304
92020W        W57280   8.964  10.788  10.794
92021W        W57281  27.502  39.261  14.411
92022W        W57282  44.973  44.925   4.737
92023W        W57283   7.961  13.616  11.052
92024W        W57284  27.883  26.384  13.530
92025W        W57285   0.233  42.110   3.927
92026W        W57286  27.597   1.829   1.941
92027W        W57287  43.580   4.711   1.323
92028W        W57288   3.555  42.815   1.629
92029W        W57289  34.321   4.296   1.719
92030W        W57290  22.640  13.090  12.177
92031W        W57291   2.856  15.384   3.970
92032W        W57292  14.775  37.580   2.868
92033W        W57293  19.786  23.050  14.506
92034W        W57294   8.923  29.292   1.902
92035W        W57295  25.564  43.264  11.969
92036W        W57296   0.053  16.983   2.701
92037W        W57297  25.230  13.649   0.522
92038W        W57298   6.721  27.981  10.809
92039W        W57299  15.814  10.376   4.298
92040W        W57300  40.435   4.296   3.669
92041W        W57301  26.976  42.742  13.353
92042W        W57302  11.811  42.732  13.786
92043W        W57303   7.451   0.206   1.861
92044W        W57304  38.781  31.986  11.994
92045W        W57305   5.844  19.445  13.601
92046W        W57306  29.851   0.809   2.327
92047W        W57307  37.947  43.211   5.073
92048W        W57308  11.270  25.757   3.232
92049W        W57309   9.121  37.725  11.291
92050W        W57310   7.161   0.441   4.037
92051W        W57311  19.102  30.661  13.501
92052W        W57312   4.002  22.366  10.395
92053W        W57313  40.064  25.065  12.065
92054W        W57314  37.851  26.330  14.610
92055W        W57315  42.419  15.337   1.186
92056W        W57316  26.110  30.583   3.812
92057W        W57317  44.343  31.435  10.808
92058W        W57318   8.196   9.344   1.949
92059W        W57319  23.778  30.823  12.167
92060W        W57320  14.825  30.454  12.469
92061W        W57321  12.830  13.238  13.781
92062W        W57322  25.968  19.008  11.852
92063W        W57323   7.265  14.895  12.876
92064W        W57324  13.186  27.147  12.166
92065W        W57325   3.338  29.076  10.735
92066W        W57326  10.487  14.698   1.879
92067W        W57327  33.318  11.218   2.759
92068W        W57328  14.070  27.759   0.877
92069W        W57329  14.323  20.424  12.304
92070W        W57330   6.449   9.313   2.654
92071W        W57331  30.276  34.582   4.470
92072W        W57332  31.097   2.714  14.260
92073W        W57333  13.145  11.312  11.569
92074W        W57334  38.965  39.317   3.861
92075W        W57335  29.072  38.400  13.342
92076W        W57336  39.963  15.251   2.499
92077W        W57337  37.605  27.747   0.687
92078W        W57338  18.192  21.596  14.709
92079W        W57339  20.712  16.803   1.277
92080W        W57340  44.630  39.431  14.409
92081W        W57341  24.757  24.319   4.715
92082W        W57342  40.810  33.151   1.836
92083W        W57343  40.081  12.150   2.770
92084W        W57344  10.835  29.904  14.767
92085W        W57345   0.286   1.329   3.777
92086W        W57346   8.256  32.190  11.585
92087W        W57347  29.616  24.283  13.423
92088W        W57348   3.352  33.859   3.362
92089W        W57349   0.420   0.715  12.090
92090W        W57350  37.348  21.842   2.724
92091W        W57351  17.638  27.002   3.618
92092W        W57352  25.203   2.167   2.135
92093W        W57353  31.171   3.024  12.858
92094W        W57354  33.508  42.380   2.404
92095W        W57355  37.274  36.944   3.358
92096W        W57356   2.395  30.643  12.629
92097W        W57357  33.942   8.305  14.615
92098W        W57358  34.133  39.394   2.907
92099W        W57359  35.599  27.121  14.876
92100W        W57360  11.303  13.340  10.613
92101W        W57361  42.884   2.454   0.407
92102W        W57362   2.195  15.639   0.320
92103W        W57363  28.975  16.646   1.187
92104W        W57364   6.705   9.858   1.084
92105W        W57365  19.028  32.415  14.205
92106W        W57366  26.499  20.118  13.338
92107W        W57367  17.852  31.528  12.491
92108W        W57368  41.278  21.440   1.701
92109W        W57369  19.036  38.479   3.850
92110W        W57370  33.598  40.311   3.361
92111W        W57371  25.646   1.937   2.301
92112W        W57372  22.561  35.994   2.767
92113W        W57373  12.928  35.897   0.008
92114W        W57374   0.944   8.264   0.316
92115W        W57375  43.378   6.894   3.299
92116W        W57376   7.598  32.493  12.584
92117W        W57377   2.006  41.070   3.275
92118W        W57378  29.968  22.815  11.386
92119W        W57379  12.131   2.192  11.231
92120W        W57380  20.125  22.348  12.275
92121W        W57381  40.340  40.483   2.212
92122W        W57382  26.161  16.992   5.061
92123W        W57383   5.926  35.740   2.846
92124W        W57384  13.546   1.331  13.793
92125W        W57385  32.865  11.744  13.894
92126W        W57386  13.271  15.041  12.957
92127W        W57387  30.992   5.936   2.900
92128W        W57388  29.054  19.264   4.431
92129W        W57389  30.236  17.749  11.100
92130W        W57390  36.091  28.489  14.454
92131W        W57391  43.523  36.513  10.732
92132W        W57392   1.226   6.641  11.257
92133W        W57393  22.007  34.697   1.236
92134W        W57394  26.983  20.734  10.956
92135W        W57395  44.414  30.189  11.578
92136W        W57396  31.542  14.662   1.520
92137W        W57397   7.618  35.618   3.857
92138W        W57398  21.538  36.600   1.429
92139W        W57399  43.987   4.339  10.482
92140W        W57400  15.172   9.486  12.806
92141W        W57401   4.322  38.772   2.259
92142W        W57402  26.095  30.149   1.356
92143W        W57403  22.635  42.385  13.943
92144W        W57404  34.906  13.129   3.063
92145W        W57405   0.149  25.611   1.922
92146W        W57406   7.322  24.745  11.419
92147W        W57407  35.643  39.318  13.772
92148W        W57408  19.041   4.489  11.140
92149W        W57409  18.399  10.978   2.573
92150W        W57410   8.255   7.777  14.439
92151W        W57411  31.414  13.242   4.152
92152W        W57412  32.898  40.269  10.602
92153W        W57413  12.758  43.015  14.677
92154W        W57414  12.330   0.862   3.263
92155W        W57415  23.060  31.943  12.904
92156W        W57416  22.639  31.754  11.356
92157W        W57417  17.607   4.522  14.980
92158W        W57418  28.957  44.319   3.214
92159W        W57419   2.037   7.648  10.712
92160W        W57420  39.487  28.873   2.065
92161W        W57421   6.750  32.999   3.390
92162W        W57422  34.165  15.863  12.370
92163W        W57423  25.232  28.526  11.683
92164W        W57424   4.052  25.027  11.044
92165W        W57425   7.986  17.997   0.941
92166W        W57426  25.311  31.816   2.716
92167W        W57427   6.937  22.701   3.320
92168W        W57428  35.455   2.855   2.197
92169W        W57429  30.039  27.970   1.799
92170W        W57430   5.591   2.861  11.092
92171W        W57431  17.769  26.531   2.202
92172W        W57432  23.051  31.089  12.530
92173W        W57433  21.139  16.677   1.017
92174W        W57434  31.980   0.970   3.316
92175W        W57435  19.719  32.310  12.491
92176W        W57436  27.391  41.259   4.520
92177W        W57437   3.430  19.784   4.995
92178W        W57438  40.329  14.127   4.505
92179W        W57439  35.952  44.269   3.203
92180W        W57440  39.974  18.786   2.008
92181W        W57441  12.380  42.035   3.163
92182W        W57442  31.136  15.086  14.156
92183W        W57443  22.298  44.890   4.664
92184W        W57444  22.313  44.404  11.488
92185W        W57445  32.558  21.539   3.694
92186W        W57446  44.870  15.013  12.067
92187W        W57447   5.506   8.172  12.904
92188W        W57448  17.664  28.843   4.043
92189W        W57449   0.220  38.496   1.723
92190W        W57450  31.011  38.971   4.587
92191W        W57451  26.482   8.422   2.297
92192W        W57452  21.030  27.694   4.760
92193W        W57453  13.721  20.776  14.857
92194W        W57454  24.165  27.994   2.093
92195W        W57455   1.697  20.445   4.121
92196W        W57456  18.209   9.946   2.660
92197W        W57457   2.375  36.429   4.954
92198W        W57458  31.504  17.792  13.023
92199W        W57459   2.447  30.373  14.894
92200W        W57460  40.655   2.121   5.003
92201W        W57461  35.469   3.524  11.316
92202W        W57462   2.428  21.106  12.597
92203W        W57463  12.070  16.682   3.685
92204W        W57464  20.014   7.519  11.141
92205W        W57465  41.946  28.388  11.379
92206W        W57466  33.611  18.653   0.084
92207W        W57467   3.253  35.112  14.454
92208W        W57468  13.831  19.795  12.337
92209W        W57469  36.923  20.671   2.429
92210W        W57470   5.452  15.823   4.634
92211W        W57471  34.960  16.801  13.149
92212W        W57472  44.963  39.076  12.417
92213W        W57473  13.153  20.395   3.683
92214W        W57474  37.047  19.667   3.812
92215W        W57475  15.765  35.806  12.956
92216W        W57476  39.392  36.461  13.535
92217W        W57477  17.225  42.810   0.420
92218W        W57478  26.569  40.682  10.907
92219W        W57479   4.182   0.223   1.085
92220W        W57480   6.415   1.525  10.252
92221W        W57481  14.607  36.464   2.606
92222W        W57482  39.295  41.847  10.643
92223W        W57483  26.083  40.949  13.024
92224W        W57484   0.856   6.258   4.534
92225W        W57485  11.687  37.281  12.530
92226W        W57486  21.269  15.625  14.018
92227W        W57487  24.271  24.154  14.349
92228W        W57488  10.644  20.220   2.834
92229W        W57489  22.240  32.205   3.776
92230W        W57490  40.966  42.477   2.716
92231W        W57491  29.618  38.237  11.117
92232W        W57492  23.094  27.437   0.032
92233W        W57493   4.928   8.686   9.481
92234W        W57494  34.032  22.540  10.720
92235W        W57495  41.278  31.767  11.512
92236W        W57496  15.666  33.370  12.921
92237W        W57497  25.589  15.528   0.417
92238W        W57498  16.378  14.787   3.127
92239W        W57499   1.988   5.913   1.879
92240W        W57500  43.731  27.946  10.631
92241W        W57501   9.720  26.591   1.390
92242W        W57502  19.770  33.930  10.721
92243W        W57503  12.248  44.706  10.912
92244W        W57504  17.320  26.439   4.307
92245W        W57505  14.017  44.850   1.819
92246W        W57506  41.336  29.298   4.647
92247W        W57507  22.924   3.700  11.980
92248W        W57508  35.863  34.775  11.272
92249W        W57509  31.917  23.958   4.175
92250W        W57510  18.329  28.982   3.234
92251W        W57511  20.809   6.152  13.222
92252W        W57512  44.804   4.185   3.617
92253W        W57513  17.539   3.886   1.737
92254W        W57514  37.589   4.030  14.504
92255W        W57515  41.924  30.704  12.002
92256W        W57516  38.136   2.908   4.223
92257W        W57517  39.083  32.130   3.848
92258W        W57518  31.629  37.139  12.063
92259W        W57519  28.725   4.419  13.972
92260W        W57520  21.825  38.914  14.839
92261W        W57521   3.440  42.906  10.722
92262W        W57522   1.632  22.362  10.270
92263W        W57523   3.839  19.598   3.771
92264W        W57524  18.289  38.789  11.121
92265W        W57525  13.147  14.766  13.848
92266W        W57526  12.243   8.000  11.282
92267W        W57527  15.916  31.177  10.807
92268W        W57528  25.450   9.738  14.979
92269W        W57529  27.136  16.378  14.833
92270W        W57530  44.536  26.582   1.356
92271W        W57531  11.693  43.327   1.943
92272W        W57532  29.831  19.767  12.903
92273W        W57533  38.447  26.564   0.501
92274W        W57534   0.902  22.598  13.416
92275W        W57535  39.272   6.687   3.219
92276W        W57536  30.228   2.448   4.647
92277W        W57537  44.783  36.946  12.717
92278W        W57538  21.055   3.504   3.341
92279W        W57539  13.806  35.813  14.388
92280W        W57540  40.332  20.667  11.510
92281W        W57541  41.832  32.134   0.314
92282W        W57542  39.270  26.418   3.321
92283W        W57543  13.990  25.449  10.943
92284W        W57544  29.980   5.695  11.022
92285W        W57545   5.868   2.990  12.077
92286W        W57546  40.139   1.452   1.933
92287W        W57547  14.883  39.956   2.416
92288W        W57548   9.807  23.354  12.590
92289W        W57549  32.659  12.386  14.862
92290W        W57550  14.540  31.524  13.653
92291W        W57551  25.413  41.325  12.899
92292W        W57552  35.030  17.571  14.236
92293W        W57553  13.695   1.498  11.147
92294W        W57554  41.287  11.671   5.028
92295W        W57555  41.379  33.611   1.907
92296W        W57556  42.191  18.029   2.293
92297W        W57557  37.233  33.664  13.066
92298W        W57558  15.295  44.919  11.609
92299W        W57559  14.001  15.839   3.098
92300W        W57560  19.497  43.856   4.080
92301W        W57561   6.173   4.091   1.775
92302W        W57562  40.072  43.245   2.364
92303W        W57563  27.613   4.792   0.793
92304W        W57564   3.952  44.556   2.225
92305W        W57565  35.159  24.474  12.533
92306W        W57566  36.993   0.960  14.782
92307W        W57567  37.028  15.396   3.304
92308W        W57568  21.460  40.518   4.140
92309W        W57569  28.561  24.690  14.429
92310W        W57570  37.560  36.056   4.215
92311W        W57571  18.051  15.811  12.573
92312W        W57572  11.638  16.470   3.444
92313W        W57573   9.693  17.618   0.804
92314W        W57574  34.625   5.654  13.774
92315W        W57575  38.959  34.114   1.851
92316W        W57576  26.174  18.703   1.303
92317W        W57577  14.398  23.149   4.379
92318W        W57578  25.464   2.230  14.714
92319W        W57579   9.372   5.942   2.286
92320W        W57580  20.597  37.261   3.297
92321W        W57581  43.714  42.566   1.657
92322W        W57582  29.199  15.140  13.288
92323W        W57583  29.064  15.122  13.798
92324W        W57584  16.329  33.601   0.278
92325W        W57585   4.048  14.774   4.586
92326W        W57586  12.854   3.106   2.300
92327W        W57587  10.109  40.373  11.943
92328W        W57588   3.958  26.558  13.979
92329W        W57589   7.449   4.163   4.473
92330W        W57590  31.484  13.094  14.916
92331W        W57591  14.773   0.744  11.962
92332W        W57592  13.856  20.041   2.772
92333W        W57593  20.662   0.462   0.429
92334W        W57594   5.501   4.949   0.752
92335W        W57595   5.842  29.171   1.230
92336W        W57596   8.301  44.356  13.801
92337W        W57597   8.419  26.905  12.131
92338W        W57598  40.622  34.814  10.870
92339W        W57599   7.651  19.166  13.548
92340W        W57600   8.750   9.804  11.719
92341W        W57601   7.396  29.207   4.516
92342W        W57602  25.393   6.446  13.218
92343W        W57603  43.430  11.436  12.907
92344W        W57604  33.777  44.044  13.695
92345W        W57605  43.433  35.598  13.033
92346W        W57606  44.436  40.733  11.911
92347W        W57607  43.453  23.688   2.608
92348W        W57608   9.234  15.886  10.768
92349W        W57609  20.159  32.367   1.408
92350W        W57610  28.607  21.840  11.878
92351W        W57611  18.728  18.347  10.293
92352W        W57612  11.642  12.468  10.657
92353W        W57613  22.529  25.999  12.398
92354W        W57614  28.426   7.401  13.039
92355W        W57615  28.928  22.034  12.404
92356W        W57616  29.206  18.021   2.887
92357W        W57617  30.068  36.586  10.773
92358W        W57618   2.526  19.719  11.882
92359W        W57619   8.950   4.415  13.881
92360W        W57620  21.470  10.792   0.465
92361W        W57621   0.427  26.565   3.936
92362W        W57622   0.957   9.608   2.788
92363W        W57623  28.241  39.357  12.530
92364W        W57624  41.950   4.952   4.550
92365W        W57625  44.991  25.688  12.208
92366W        W57626  13.088  19.527   2.790
92367W        W57627  31.387  18.947   3.745
92368W        W57628  37.775   9.896  12.782
92369W        W57629  18.676  35.050   2.611
92370W        W57630   3.442  38.479   3.393
92371W        W57631  23.158  28.199   1.709
92372W        W57632   6.642   7.458   2.534
92373W        W57633  32.165  43.704  10.309
92374W        W57634  14.325  14.734  10.795
92375W        W57635  21.489  14.864   0.213
92376W        W57636  33.899  24.585   3.091
92377W        W57637  38.071  27.202  12.011
92378W        W57638  31.868  42.329  11.384
92379W        W57639   0.741  26.799  13.277
92380W        W57640  31.915  28.457  12.326
92381W        W57641  36.457   3.744  14.943
92382W        W57642  38.962  15.560   4.547
92383W        W57643   8.766  29.490   2.947
92384W        W57644  31.823  28.070   4.687
92385W        W57645  21.747  10.060  13.745
92386W        W57646   5.863   0.417   2.694
92387W        W57647  36.085  43.653   0.368
92388W        W57648  30.423  14.216  10.689
92389W        W57649  37.506   3.266  14.913
92390W        W57650  33.839  40.752   1.343
92391W        W57651  37.071  29.202  14.590
92392W        W57652  19.994  28.405  10.658
92393W        W57653  32.672  23.711   5.050
92394W        W57654  23.872  16.678   3.976
92395W        W57655   8.866   1.848   4.901
92396W        W57656  12.267   0.828   2.751
92397W        W57657   7.221  18.522   1.314
92398W        W57658  27.698  16.175   3.621
92399W        W57659  23.387  33.026  11.590
92400W        W57660   1.844  32.952   3.920
92401W        W57661   2.257  38.325  10.729
92402W        W57662   7.155  15.773  12.911
92403W        W57663   6.175  15.125  11.149
92404W        W57664  20.157  10.847   1.280
92405W        W57665  27.395  34.956  13.024
92406W        W57666   8.347  31.679  11.423
92407W        W57667   7.802  29.564   1.458
92408W        W57668  35.583  21.617  13.572
92409W        W57669  41.840  35.330   1.808
92410W        W57670  38.990  41.518   0.021
92411W        W57671   7.749  38.489  11.582
92412W        W57672  22.264  38.572  12.460
92413W        W57673  22.100  23.526   3.902
92414W        W57674  17.231  38.783   2.638
92415W        W57675  20.660  33.549   1.818
92416W        W57676  30.825  17.302   4.938
92417W        W57677  38.476  40.946   3.312
92418W        W57678  24.460  18.021  11.698
92419W        W57679  39.451  15.178  12.785
92420W        W57680  36.883  29.479   0.670
92421W        W57681  34.138  33.393   0.466
92422W        W57682   9.814  24.417   3.165
92423W        W57683  16.309  35.302   0.125
92424W        W57684  20.663  44.468   0.832
92425W        W57685   4.702  25.704  11.534
92426W        W57686   0.104  44.891  13.571
92427W        W57687  11.642   6.321   1.298
92428W        W57688   9.285  18.483   0.388
92429W        W57689  37.411   1.155   1.865
92430W        W57690   1.978  26.068   4.724
92431W        W57691  40.527   7.809   0.266
92432W        W57692  32.646  30.841   3.625
92433W        W57693  25.306  39.939  11.573
92434W        W57694  22.875  30.745  14.407
92435W        W57695  30.462  32.330  12.523
92436W        W57696  32.078  13.174  11.732
92437W        W57697  40.763  15.794  14.424
92438W        W57698  41.564  22.211   4.179
92439W        W57699  27.704  35.971  13.833
92440W        W57700  43.581  22.858   0.964
92441W        W57701   1.217   5.484  10.905
92442W        W57702  34.182  37.537  11.270
92443W        W57703  18.945  10.370  12.648
92444W        W57704  37.300  39.272  14.450
92445W        W57705   3.973  35.308   0.932
92446W        W57706  41.266  21.329   0.762
92447W        W57707  22.616  39.028   0.246
92448W        W57708  24.103   4.226  12.656
92449W        W57709  23.108  35.075   1.185
92450W        W57710   7.253  17.807  11.634
92451W        W57711  33.952  16.122  11.557
92452W        W57712  43.606  20.756  11.099
92453W        W57713  12.741  11.232   1.123
92454W        W57714  32.336   3.437   1.185
92455W        W57715  17.041   5.422   4.540
92456W        W57716  44.787   6.769   0.430
92457W        W57717  27.154  22.733   3.199
92458W        W57718  35.281  43.058   1.297
92459W        W57719  21.163  26.254  12.992
92460W        W57720  22.997  28.552   4.595
92461W        W57721   6.725   9.869   2.700
92462W        W57722  18.697   7.966  11.082
92463W        W57723  11.373  23.977  11.244
92464W        W57724  13.697   5.268  10.917
92465W        W57725  13.701  26.592   1.684
92466W        W57726  24.011   0.248   1.273
92467W        W57727   4.419  10.870   3.190
92468W        W57728  41.381  20.421   2.850
92469W        W57729  37.969  32.168  13.589
92470W        W57730  43.522  21.723   0.511
92471W        W57731  18.802   0.999  11.527
92472W        W57732   6.895  22.776  12.555
92473W        W57733  28.980   4.290   2.626
92474W        W57734  42.168  17.188   4.024
92475W        W57735  40.106  39.891  13.465
92476W        W57736  27.146  18.214   3.683
92477W        W57737  25.131   0.937   0.700
92478W        W57738  41.110  40.007   1.881
92479W        W57739   7.459  38.365   2.811
92480W        W57740  18.350  14.187  11.286
92481W        W57741  38.364  40.017  11.185
92482W        W57742  31.503  34.799  10.708
92483W        W57743   2.954   8.095  13.056
92484W        W57744   3.794   8.170  14.822
92485W        W57745   9.993  40.723  12.796
92486W        W57746   1.762  29.854  10.984
92487W        W57747   2.562  30.925   3.109
92488W        W57748  28.572  30.698  10.652
92489W        W57749  20.271  24.635   1.311
92490W        W57750  21.674  25.820   0.379
92491W        W57751  32.984  40.317   0.253
92492W        W57752  21.611  20.317  10.911
92493W        W57753   3.466  34.103   2.912
92494W        W57754  37.288   6.095  11.153
92495W        W57755   9.408  17.528   0.362
92496W        W57756   3.626  43.463   4.142
92497W        W57757  16.383  40.979  11.503
92498W        W57758   8.760   3.777   1.006
92499W        W57759   6.346  34.705  11.101
92500W        W57760  41.035   3.948   4.210
92501W        W57761   7.969  15.453   9.975
92502W        W57762  27.606  40.041  14.902
92503W        W57763  20.564   7.781   3.695
92504W        W57764  17.610  11.662  11.936
92505W        W57765  20.174  10.826  10.871
92506W        W57766  17.530  11.181  10.672
92507W        W57767  41.481   2.263   5.136
92508W        W57768  40.250  42.744  10.427
92509W        W57769   4.690  12.025  13.337
92510W        W57770  28.300  25.224  14.567
92511W        W57771  20.818  18.316   3.801
92512W        W57772  44.037  35.127  12.584
92513W        W57773  26.112  43.085   4.653
92514W        W57774  22.630  21.445  14.354
92515W        W57775  21.166  34.940  13.906
92516W        W57776   0.774  20.710  12.175
92517W        W57777  21.293  18.689  12.916
92518W        W57778  33.364  39.532  10.761
92519W        W57779  25.153   4.907  13.536
92520W        W57780  15.097  18.878   2.840
92521W        W57781  23.332  35.900   3.515
92522W        W57782  34.861   0.963  14.451
92523W        W57783  14.393  30.010  11.154
92524W        W57784  41.968  36.559   0.300
92525W        W57785  22.318   2.972   0.278
92526W        W57786   9.839  40.879  14.710
92527W        W57787  37.626  44.502   2.431
92528W        W57788  40.768  30.170   2.716
92529W        W57789  26.718   4.174   2.176
92530W        W57790  31.175  28.117  12.403
92531W        W57791   1.741  35.198   3.294
92532W        W57792   5.788  14.571  13.795
92533W        W57793  25.193  35.557   0.426
92534W        W57794  10.486  42.795  11.695
92535W        W57795   8.208  30.650   2.895
92536W        W57796   0.654   0.872  10.664
92537W        W57797  25.522  26.294   0.063
92538W        W57798   2.448  17.347   1.845
92539W        W57799  29.023  26.151  14.960
92540W        W57800  38.139  27.450   0.244
92541W        W57801  39.558  19.080  12.533
92542W        W57802  31.988   4.059  13.491
92543W        W57803   8.474  28.983  14.783
92544W        W57804  28.038  30.127  10.508
92545W        W57805   0.999   7.878   1.327
92546W        W57806  11.664  10.700  14.029
92547W        W57807  38.853  39.282  10.654
92548W        W57808  32.460  19.211  11.238
92549W        W57809  38.972  29.836  13.369
92550W        W57810  30.412  38.983   3.825
92551W        W57811  16.989   0.073   3.317
92552W        W57812  15.116  17.274  13.384
92553W        W57813  26.936   2.175  13.948
92554W        W57814  33.347  32.605   2.906
92555W        W57815  28.602   2.439  13.998
92556W        W57816  15.917   1.142   1.339
92557W        W57817   7.625  43.473  14.303
92558W        W57818  36.798  16.265  14.997
92559W        W57819  21.456  39.591   3.890
92560W        W57820  30.479   1.403   2.043
92561W        W57821  20.079   2.292  13.787
92562W        W57822  12.563   5.254   3.234
92563W        W57823   1.540   6.819  14.331
92564W        W57824  36.471  25.421  14.391
92565W        W57825   4.137  27.588   0.836
92566W        W57826  42.510   9.709  13.430
92567W        W57827  30.047   7.225   3.193
92568W        W57828  44.006  31.426  12.095
92569W        W57829  21.673   4.241  11.552
92570W        W57830  26.155   1.474   0.857
92571W        W57831  40.842  12.522  13.394
92572W        W57832  24.344  23.022   5.119
92573W        W57833  35.932  29.149   2.663
92574W        W57834  20.584  27.730   1.754
92575W        W57835  36.793   0.113   0.102
92576W        W57836  30.389   8.187  11.679
92577W        W57837  22.118   6.229  12.571
92578W        W57838  27.244  24.459   0.861
92579W        W57839  38.828  29.904   2.096
92580W        W57840  24.665  28.918  12.467
92581W        W57841  44.347  22.648   2.817
92582W        W57842  41.107   1.577  13.130
92583W        W57843  33.573  12.716   4.623
92584W        W57844  31.647  31.697   2.433
92585W        W57845  41.830  34.364  10.925
92586W        W57846  27.010  30.662   2.707
92587W        W57847  31.441  19.027  12.293
92588W        W57848   3.006  14.692   2.653
92589W        W57849  25.631  15.848   4.522
92590W        W57850  41.090   0.129   0.852
92591W        W57851  17.183  31.108   2.295
92592W        W57852   8.740   4.331   1.908
92593W        W57853  39.799  29.682   1.713
92594W        W57854   3.894  20.044  13.017
92595W        W57855  16.712  11.248  12.816
92596W        W57856  34.813  29.599  13.781
92597W        W57857  25.571  26.589   1.675
92598W        W57858  13.329  31.588   4.348
92599W        W57859  35.013  19.210   0.527
92600W        W57860  16.644  11.753  14.513
92601W        W57861   7.394   4.956  13.157
92602W        W57862   6.321  37.941  14.522
92603W        W57863  30.743  13.876  10.437
92604W        W57864  14.815   9.075  14.251
92605W        W57865   5.737  23.695   4.788
92606W        W57866  18.171   4.609   4.893
92607W        W57867  24.745   9.299  11.753
92608W        W57868  31.112  28.845  13.969
92609W        W57869  14.870  35.616  10.665
92610W        W57870  13.185  20.481  14.961
92611W        W57871  33.572  16.477  10.254
92612W        W57872   2.964   6.794  11.978
92613W        W57873  14.182  16.270  11.110
92614W        W57874   8.171   0.183  10.293
92615W        W57875  30.655  41.056   3.711
92616W        W57876  43.327  27.773   0.316
92617W        W57877  24.822  13.305  14.322
92618W        W57878  44.773  17.731   2.921
92619W        W57879  23.177  43.633   4.480
92620W        W57880  13.343  36.600   0.341
92621W        W57881  22.581  34.324  13.889
92622W        W57882  39.884  23.117  13.554
92623W        W57883  28.232  29.544   2.676
92624W        W57884  15.730  25.082  11.618
92625W        W57885  12.795  44.484   0.306
92626W        W57886  12.215  15.647  11.934
92627W        W57887   1.039   9.958   2.432
92628W        W57888   0.890   7.795   3.785
92629W        W57889  40.972  25.060  13.310
92630W        W57890  22.178  37.806  13.025
92631W        W57891  12.310  32.845  10.796
92632W        W57892  31.408  13.794  14.402
92633W        W57893  19.256  24.784   1.799
92634W        W57894  25.471  32.342  14.782
92635W        W57895   7.658  38.820   0.320
92636W        W57896  34.433  22.845   3.573
92637W        W57897  38.275  32.992   0.328
92638W        W57898   5.388  37.986  10.952
92639W        W57899  39.740   0.376   3.133
92640W        W57900  34.886  23.056  14.791
92641W        W57901  18.641   9.048   1.144
92642W        W57902   9.020  13.132  12.346
92643W        W57903  24.354  26.270  11.166
92644W        W57904  38.287  44.038   1.393
92645W        W57905  34.538  35.556   1.045
92646W        W57906  18.231   5.794   4.135
92647W        W57907  28.088  16.769  14.255
92648W        W57908   3.399  25.427   0.001
92649W        W57909  12.391  35.023  11.603
92650W        W57910  29.373  25.032   5.022
92651W        W57911  32.504  13.879  12.078
92652W        W57912  24.517  39.057  14.847
92653W        W57913   6.763   9.752  13.388
92654W        W57914  41.044  42.358  14.519
92655W        W57915  12.328  37.860   4.309
92656W        W57916  16.244  23.071  12.023
92657W        W57917  15.970  21.305  10.744
92658W        W57918   9.923  21.863  11.531
92659W        W57919   0.964  19.519   0.141
92660W        W57920  44.484  28.897   2.274
92661W        W57921  12.138  37.856   0.477
92662W        W57922  15.449   8.350   9.752
92663W        W57923   6.159  13.338   2.372
92664W        W57924  43.775  42.447   0.745
92665W        W57925  35.631  14.825  14.403
92666W        W57926  42.608  17.642   1.750
92667W        W57927  29.419  39.363   1.598
92668W        W57928  14.960  24.218  13.006
92669W        W57929  20.300  28.483   2.759
92670W        W57930  14.260  27.165  11.916
92671W        W57931  27.236  42.798   0.500
92672W        W57932  35.925  29.610   4.624
92673W        W57933  39.598  17.849  13.417
92674W        W57934  22.713   1.768  12.480
92675W        W57935   3.886   0.668  11.250
92676W        W57936  22.043  39.887   0.373
92677W        W57937  23.201  25.195   4.455
92678W        W57938  20.505  29.939   3.225
92679W        W57939   3.195  36.560  11.552
92680W        W57940  40.961  26.061  12.428
92681W        W57941  33.929  27.484   2.370
92682W        W57942  24.633  13.238   4.394
92683W        W57943  18.491  22.244  12.113
92684W        W57944   1.727  27.264   1.812
92685W        W57945  40.513  32.128  12.526
92686W        W57946  44.792   2.787  14.314
92687W        W57947  40.803  13.206   1.243
92688W        W57948  39.452   4.760   4.582
92689W        W57949  11.528  10.909   3.145
92690W        W57950   1.294  17.542  12.327
92691W        W57951   7.652  21.360   2.833
92692W        W57952   3.477   8.410  12.211
92693W        W57953  15.744  39.289  14.354
92694W        W57954  13.675  37.086   3.231
92695W        W57955   2.495  17.603   1.316
92696W        W57956   2.857  14.789   1.644
92697W        W57957   5.405  25.531  13.501
92698W        W57958  21.707  22.898  12.476
92699W        W57959  27.588  20.366  11.624
92700W        W57960  39.982   5.273   3.871
92701W        W57961   3.056  25.489   0.795
92702W        W57962  44.176  10.399   2.291
92703W        W57963   3.767  41.355   1.326
92704W        W57964  35.747  26.554  13.815
92705W        W57965  21.890  44.701   0.985
92706W        W57966  17.984   5.688   4.575
92707W        W57967  10.263  10.757   0.924
92708W        W57968  39.027   0.546  14.835
92709W        W57969   9.766   7.226  14.260
92710W        W57970  32.213  27.856   9.830
92711W        W57971  13.668  37.565   0.320
92712W        W57972   8.324   9.614   2.372
92713W        W57973   9.627   4.931   4.588
92714W        W57974  41.689  43.346  12.948
92715W        W57975  27.034  31.690   2.861
92716W        W57976  37.914   6.609  12.923
92717W        W57977  24.978  20.189   0.268
92718W        W57978  33.813  31.135   0.296
92719W        W57979  38.538  15.979   2.206
92720W        W57980  21.128  23.016   0.518
92721W        W57981  25.045  42.110   4.141
92722W        W57982   0.466  12.341  12.271
92723W        W57983   3.683  17.734  12.001
92724W        W57984  35.288   4.330   1.220
92725W        W57985  42.769  19.192   3.138
92726W        W57986   1.759  30.830  10.563
92727W        W57987  11.382  35.331  14.367
92728W        W57988   5.899  26.671   2.702
92729W        W57989   8.913  32.978   1.810
92730W        W57990  37.896  16.527   2.686
92731W        W57991   6.145   3.833  13.405
92732W        W57992  20.709  23.231  11.605
92733W        W57993  32.976   9.628  14.872
92734W        W57994  14.120   2.683   4.241
92735W        W57995  26.072  20.538   2.568
92736W        W57996   6.713  22.124   2.234
92737W        W57997  44.538  29.063   3.140
92738W        W57998  18.076   1.756  11.162
92739W        W57999  36.889  36.686  10.783
92740W        W58000   4.003   3.557  14.294
92741W        W58001   2.881  29.498   0.885
92742W        W58002  17.952   4.203   0.251
92743W        W58003  25.529  28.995  12.154
92744W        W58004   1.310  44.963  12.551
92745W        W58005   3.783  42.504  14.728
92746W        W58006   5.683  27.029  14.521
92747W        W58007  34.087  27.174   1.966
92748W        W58008  10.571   1.456   1.539
92749W        W58009   7.953  44.473   2.624
92750W        W58010   9.939  23.485  14.992
92751W        W58011  39.001  42.015  14.411
92752W        W58012  14.660  30.138   0.501
92753W        W58013  11.137   2.048  12.467
92754W        W58014   3.010  18.816   1.535
92755W        W58015  12.598  34.087   4.466
92756W        W58016   5.901  37.058   4.171
92757W        W58017  15.751  22.241   2.720
92758W        W58018   5.157  32.477   1.739
92759W        W58019   0.388  31.189   3.719
92760W        W58020  15.720  27.593   4.070
92761W        W58021   5.224  17.649   3.389
92762W        W58022  16.744   1.409   4.120
92763W        W58023   8.255  35.956  11.783
92764W        W58024  42.295  34.837   2.888
92765W        W58025  20.508  42.973  14.810
92766W        W58026  14.988   9.941  10.437
92767W        W58027  41.357  32.064   4.247
92768W        W58028   3.950   4.197  10.702
92769W        W58029   9.272   6.467   2.326
92770W        W58030  18.724  25.139  11.610
92771W        W58031  14.818  36.951   4.728
92772W        W58032   2.784   4.650  11.181
92773W        W58033  23.354  24.415   4.495
92774W        W58034   1.272  12.306  13.869
92775W        W58035  18.061   3.215   1.468
92776W        W58036   6.546  15.641   0.206
92777W        W58037  33.203  28.699   4.103
92778W        W58038   9.344  13.112   4.785
92779W        W58039  16.616  25.602  11.519
92780W        W58040  24.275  20.247   1.399
92781W        W58041   0.484  43.260  14.340
92782W        W58042  35.083  36.959   2.783
92783W        W58043   6.009  39.602  13.969
92784W        W58044  17.394  34.112  14.948
92785W        W58045  29.380  10.198  13.322
92786W        W58046  32.551   3.465  14.011
92787W        W58047  17.073  27.449   1.596
92788W        W58048  37.444  35.908  11.989
92789W        W58049  30.588   4.690   4.474
92790W        W58050   9.322  43.940  11.090
92791W        W58051   2.797  13.346  10.656
92792W        W58052   6.923   5.728   4.677
92793W        W58053  26.385  22.779  14.917
92794W        W58054   4.822  19.513  13.442
92795W        W58055  42.267   2.008  10.995
92796W        W58056  42.464  25.233   4.667
92797W        W58057   6.976  13.733  13.483
92798W        W58058   6.739  22.658   1.854
92799W        W58059  27.513  42.693   3.634
92800W        W58060  40.339   7.668   4.571
92801W        W58061  34.403  32.470   1.425
92802W        W58062   0.489   6.580  10.746
92803W        W58063   8.386  28.154   3.109
92804W        W58064   1.653  30.485  11.728
92805W        W58065   6.199  15.833  10.772
92806W        W58066  18.018  21.741   1.630
92807W        W58067  34.932  11.662   3.675
92808W        W58068  28.410  13.280   4.400
92809W        W58069  22.336   6.299  12.110
92810W        W58070  36.428   2.566  11.641
92811W        W58071   5.699  30.629   0.336
92812W        W58072  35.429  10.032  12.447
92813W        W58073  26.091  41.091  11.214
92814W        W58074  17.651  43.256  11.584
92815W        W58075   9.485  17.258  13.172
92816W        W58076  36.030   5.663  14.288
92817W        W58077   4.237  10.572  10.607
92818W        W58078   6.196   9.780  11.523
92819W        W58079  29.376  41.863  10.745
92820W        W58080  23.700  14.465   3.633
92821W        W58081  32.584  12.179   3.394
92822W        W58082  44.832  27.732  13.348
92823W        W58083  37.412  28.227   2.142
92824W        W58084  24.066  36.920  14.710
92825W        W58085   1.247  30.327  14.307
92826W        W58086  26.495  41.725  11.938
92827W        W58087  11.686  36.038  14.365
92828W        W58088  27.841   5.231   2.827
92829W        W58089  14.761  23.467  14.766
92830W        W58090   0.202  28.676   1.314
92831W        W58091  32.025  26.574   1.144
92832W        W58092  26.172  13.550  10.516
92833W        W58093   8.873  33.139   2.358
92834W        W58094  40.489   6.412   0.441
92835W        W58095  10.277  40.044   3.310
92836W        W58096  14.782   8.328  11.682
92837W        W58097   7.245   5.489   2.458
92838W        W58098  42.488   2.267   2.757
92839W        W58099  39.021  10.257  13.469
92840W        W58100  36.053  40.731   4.643
92841W        W58101  33.191   4.076   0.477
92842W        W58102  44.962   1.870   1.898
92843W        W58103   8.614  40.916  13.243
92844W        W58104  42.284  14.227   2.214
92845W        W58105  39.872  13.289   1.484
92846W        W58106  41.043   1.969   4.120
92847W        W58107  32.870  33.110   0.150
92848W        W58108  18.522  44.801   2.239
92849W        W58109  36.175   0.414  14.421
92850W        W58110  38.719  16.972  12.821
92851W        W58111  41.945  30.267  10.304
92852W        W58112   4.741  42.082  10.535
92853W        W58113  18.809  10.672  13.025
92854W        W58114  23.436  23.733   2.385
92855W        W58115  36.515  25.860   0.534
92856W        W58116  36.790  13.820   1.998
92857W        W58117   7.873   7.965  12.015
92858W        W58118  22.628  24.495   3.584
92859W        W58119  29.014  21.069   1.193
92860W        W58120  21.166  30.994   2.297
92861W        W58121  27.581  26.998   2.333
92862W        W58122  19.326  31.647  14.736
92863W        W58123  36.651   6.248  13.664
92864W        W58124   7.323  22.447  12.474
92865W        W58125   8.103   7.440  12.589
92866W        W58126   5.489   0.968  10.597
92867W        W58127   3.180  19.919   2.313
92868W        W58128  18.009  19.062  14.105
92869W        W58129  30.471  14.372  14.404
92870W        W58130  25.305  30.107  13.357
92871W        W58131  22.749   8.229  14.562
92872W        W58132   7.187  13.187   3.118
92873W        W58133  18.167  42.755  13.909
92874W        W58134  25.138  19.237   3.051
92875W        W58135  28.508  12.300   0.191
92876W        W58136  43.741  14.258   2.627
92877W        W58137  41.826   2.485  10.674
92878W        W58138  20.676  18.759   0.966
92879W        W58139  14.054  20.644   2.222
92880W        W58140   2.986  18.788  12.113
92881W        W58141  37.109  43.340  13.478
92882W        W58142  16.324  16.526   3.839
92883W        W58143  14.673  38.098  11.946
92884W        W58144  21.136   4.298  11.579
92885W        W58145  23.989  18.699   2.851
92886W        W58146   7.779  20.481   2.280
92887W        W58147  11.034  34.616   3.985
92888W        W58148  21.956   0.320   4.564
92889W        W58149  11.152  24.210  13.020
92890W        W58150   4.894  43.189  13.307
92891W        W58151  26.015  22.486   4.563
92892W        W58152  44.957  26.526   3.279
92893W        W58153  39.070  35.110   4.223
92894W        W58154   4.669  13.601   3.698
92895W        W58155   6.350  17.803  11.662
92896W        W58156  41.822  17.673   2.198
92897W        W58157  20.734  39.332   1.289
92898W        W58158  23.059  22.608  10.707
92899W        W58159   9.513  31.099  14.363
92900W        W58160  33.124   4.210   2.325
92901W        W58161  13.930  13.937  11.080
92902W        W58162  18.807  11.134   2.291
92903W        W58163  29.143  18.605  12.541
92904W        W58164  17.095  19.262   2.930
92905W        W58165  10.617  25.340  10.333
92906W        W58166   9.117  33.900  10.584
92907W        W58167   1.656  42.523   4.693
92908W        W58168  41.718   0.510  13.467
92909W        W58169  11.200   8.335   2.050
92910W        W58170   5.739  10.524  10.197
92911W        W58171   4.978  29.276   4.882
92912W        W58172  22.974   2.025  14.814
92913W        W58173  20.019  17.769   2.538
92914W        W58174  38.482  16.370  12.824
92915W        W58175   1.347  35.379  12.905
92916W        W58176  34.908  23.003  12.118
92917W        W58177   1.321  24.002   5.401
92918W        W58178   1.507  29.577   1.777
92919W        W58179  38.417  21.416  10.850
92920W        W58180  39.537   3.941   2.162
92921W        W58181  19.045  34.328   2.702
92922W        W58182  15.272  23.681  14.764
92923W        W58183   5.132  43.376   4.946
92924W        W58184  43.644  27.209   3.742
92925W        W58185  40.045  10.108  10.936
92926W        W58186  16.362   2.758   2.662
92927W        W58187  41.561  30.971   1.825
92928W        W58188  42.935  25.631   5.077
92929W        W58189  37.859  34.852   3.679
92930W        W58190   2.215  40.452  13.513
92931W        W58191   7.696  19.469   0.446
92932W        W58192  33.679  15.290   0.015
92933W        W58193  28.165   6.963   0.334
92934W        W58194  11.303   8.378  12.385
92935W        W58195   7.399  30.625   2.402
92936W        W58196  15.252  37.469  12.498
92937W        W58197  11.443  39.927  11.105
92938W        W58198  13.347  29.547   1.097
92939W        W58199  26.222  32.986  11.635
92940W        W58200  16.613  34.816   4.581
92941W        W58201  26.195  40.811   2.195
92942W        W58202  13.570  16.006  12.913
92943W        W58203   2.224  38.385   2.845
92944W        W58204  38.515  28.520   2.869
92945W        W58205  30.209  41.794   4.581
92946W        W58206   9.711  27.242  11.772
92947W        W58207  22.492  38.198   3.724
92948W        W58208  19.803  25.981  12.396
92949W        W58209  20.310  28.153  13.800
92950W        W58210  37.598  35.950   3.204
92951W        W58211   2.763  33.697   3.288
92952W        W58212   7.799   5.752   1.191
92953W        W58213  16.689  29.002   2.905
92954W        W58214  26.636  24.357   4.786
92955W        W58215   3.102  14.532  14.607
92956W        W58216   4.995   0.860   4.582
92957W        W58217  21.324   4.079  13.583
92958W        W58218   7.659  10.887   1.712
92959W        W58219  34.816  36.929   1.821
92960W        W58220  34.501  34.094  12.613
92961W        W58221  14.330  26.753  12.591
92962W        W58222  44.710   1.323   4.637
92963W        W58223   4.638   9.220   0.809
92964W        W58224  28.401  27.463   0.047
92965W        W58225  28.673  33.398  10.749
92966W        W58226  26.321  18.387  14.750
92967W        W58227  27.551  35.100  12.554
92968W        W58228  22.187  33.145  11.649
92969W        W58229  11.992   0.220  11.892
92970W        W58230  19.632   4.707   3.198
92971W        W58231   1.147  10.719  10.225
92972W        W58232  40.775  24.315   3.785
92973W        W58233   4.346  20.904   3.974
92974W        W58234  31.665   5.283  11.416
92975W        W58235  35.426  28.794   3.222
92976W        W58236   6.366  24.524   0.744
92977W        W58237  43.921  37.467  11.279
92978W        W58238   7.814   4.425   0.302
92979W        W58239  17.566  26.092  12.081
92980W        W58240   1.941  20.096  14.443
92981W        W58241  28.558  37.440   4.271
92982W        W58242  43.851   7.894   4.834
92983W        W58243  11.552   3.905  10.491
92984W        W58244  14.434  33.885  11.029
92985W        W58245  40.366   1.490   3.737
92986W        W58246  39.515  33.109   5.012
92987W        W58247   1.837  15.225  13.083
92988W        W58248  23.013  40.896   4.429
92989W        W58249  16.961  23.774   3.263
92990W        W58250  38.063   3.423   3.836
92991W        W58251  21.753  18.570  12.523
92992W        W58252  34.596  40.357   0.373
92993W        W58253   8.153   2.975   0.956
92994W        W58254  41.907  27.024  11.384
92995W        W58255  29.955  29.655  10.567
92996W        W58256  36.905  27.979  11.659
92997W        W58257  29.661   6.031  13.701
92998W        W58258  10.746  13.094  11.524
92999W        W58259  40.596  39.349  12.131
93000W        W58260  14.057  21.231  12.577
93001W        W58261  28.514  42.067   0.403
93002W        W58262  18.745  43.280  14.541
93003W        W58263  24.700  23.189  11.772
93004W        W58264   9.623  16.206  11.898
93005W        W58265  33.995  40.307  12.422
93006W        W58266  25.145   5.928   4.289
93007W        W58267  34.530  26.995  13.398
93008W        W58268  14.826  28.617  12.667
93009W        W58269   7.163  28.469   1.937
93010W        W58270  38.031  14.037   2.070
93011W        W58271   4.237  26.073  12.016
93012W        W58272  20.043   9.139  13.033
93013W        W58273  29.500   0.772  11.462
93014W        W58274  35.989  39.412   4.369
93015W        W58275  20.691  30.583   4.920
93016W        W58276  35.327  35.602   0.392
93017W        W58277   7.179  12.966  11.107
93018W        W58278  44.655  38.350  12.711
93019W        W58279  24.952  26.101   0.579
93020W        W58280   6.779  13.748   1.426
93021W        W58281  15.706  38.980   0.813
93022W        W58282  40.828  20.989  14.472
93023W        W58283  29.949   2.021   3.125
93024W        W58284  11.371  21.267   0.965
93025W        W58285  26.140  39.913   5.053
93026W        W58286   7.509  20.006  10.935
93027W        W58287   0.874  33.494   1.199
93028W        W58288  30.942  38.094  10.757
93029W        W58289  32.154  34.616   2.334
93030W        W58290  11.559  44.299   2.170
93031W        W58291   6.252  27.210   0.386
93032W        W58292  18.095  15.524  13.907
93033W        W58293  13.129  16.565   3.811
93034W        W58294  11.108  38.308  14.492
93035W        W58295  30.405  39.785  14.396
93036W        W58296  33.456  36.547   0.678
93037W        W58297  42.540   4.912   2.210
93038W        W58298  17.468  32.219   0.394
93039W        W58299  12.689   5.619   3.562
93040W        W58300   3.061  21.476   4.641
93041W        W58301  10.550  27.098  12.881
93042W        W58302  15.819  33.373  10.762
93043W        W58303   3.463  41.994  12.110
93044W        W58304   3.303  43.710  14.940
93045W        W58305  15.522   5.349  13.468
93046W        W58306  14.235   0.288  12.542
93047W        W58307  24.613  28.905  14.014
93048W        W58308   7.788   7.157   9.900
93049W        W58309  27.557  27.215   4.500
93050W        W58310  20.528  20.133  13.035
93051W        W58311   6.233   8.868   3.576
93052W        W58312  25.086  39.851   2.965
93053W        W58313  31.114  38.894  11.389
93054W        W58314  36.196  42.290   0.935
93055W        W58315  10.404  32.748   1.442
93056W        W58316  23.626   6.894   5.160
93057W        W58317   8.877  19.545   4.336
93058W        W58318  31.513  42.494   4.841
93059W        W58319   1.321  31.064   3.800
93060W        W58320  15.612  27.562  11.905
93061W        W58321  19.079  17.749   2.963
93062W        W58322  24.259   1.842   2.722
93063W        W58323  15.019   5.669   1.795
93064W        W58324  43.042   9.404  10.653
93065W        W58325  17.841  27.160   4.801
93066W        W58326  21.604   7.818   3.042
93067W        W58327  17.238  25.679  10.913
93068W        W58328  29.784  39.212  11.401
93069W        W58329  12.993  39.896   4.189
93070W        W58330  36.844   9.272  14.162
93071W        W58331  40.394  15.364   2.218
93072W        W58332  13.929  17.213  11.397
93073W        W58333   5.762  20.006  13.538
93074W        W58334  19.731  10.123   0.058
93075W        W58335  20.536  42.863   0.736
93076W        W58336  10.181  24.545  14.520
93077W        W58337  32.538  31.147   4.494
93078W        W58338   2.924   0.061   1.651
93079W        W58339  38.447  19.863   0.974
93080W        W58340  23.695  36.742  13.068
93081W        W58341   5.316  26.973   5.050
93082W        W58342  43.224   8.946   4.258
93083W        W58343  20.259  39.134   1.511
93084W        W58344  37.582   8.804   3.228
93085W        W58345   9.165  28.748  14.396
93086W        W58346   5.198  25.647  13.991
93087W        W58347  19.618  42.671   3.596
93088W        W58348  38.025  29.798   2.825
93089W        W58349  40.873  37.863  13.042
93090W        W58350  39.617  33.602  11.360
93091W        W58351  40.263  32.378  12.120
93092W        W58352  31.926  28.228  11.120
93093W        W58353  32.659   2.421  13.964
93094W        W58354   5.047  22.623   4.670
93095W        W58355   6.629   0.721  14.798
93096W        W58356  17.248  16.792  14.894
93097W        W58357   6.645  16.243   3.395
93098W        W58358  34.576  14.828  14.707
93099W        W58359  22.880  13.205   3.163
93100W        W58360  21.535   6.947   1.422
93101W        W58361  31.485  26.150   2.268
93102W        W58362  10.858  20.536   0.044
93103W        W58363   1.238   1.484   0.018
93104W        W58364  12.103   8.923   5.067
93105W        W58365  26.538  38.366   1.880
93106W        W58366   0.620  18.799   4.277
93107W        W58367  43.573  11.220  14.975
93108W        W58368  23.635  42.781  14.874
93109W        W58369  30.108  31.461   1.426
93110W        W58370  20.709  26.000   3.437
93111W        W58371  13.548   2.726   1.800
93112W        W58372  25.081  13.033  13.013
93113W        W58373  36.358   9.287   3.387
93114W        W58374  16.587  22.664  12.080
93115W        W58375  29.107  13.512  14.662
93116W        W58376   9.813  23.548   4.594
93117W        W58377  26.093  26.472  11.658
93118W        W58378  32.587  20.172  10.686
93119W        W58379  44.078  17.472   1.307
93120W        W58380   1.427  42.974   3.167
93121W        W58381  42.390  15.871   1.104
93122W        W58382  41.825   6.405   3.152
93123W        W58383  30.480  29.070   0.365
93124W        W58384  15.300  41.487   2.405
93125W        W58385   7.202   4.942  11.617
93126W        W58386  38.916  16.700  11.549
93127W        W58387  38.383  42.049  11.560
93128W        W58388  39.975  33.737  11.692
93129W        W58389  20.426  41.873  14.595
93130W        W58390  34.387  35.395   3.246
93131W        W58391  12.646   1.701  12.330
93132W        W58392  38.042   3.317  14.004
93133W        W58393  23.628  15.713  12.955
93134W        W58394  43.733  26.491  12.319
93135W        W58395  29.560  40.509  10.766
93136W        W58396  11.583  24.745   2.715
93137W        W58397  20.083  13.668  10.730
93138W        W58398  32.047  10.138  14.998
93139W        W58399  30.782  11.856  13.838
93140W        W58400   1.428   7.156  14.945
93141W        W58401  15.083  26.118   2.364
93142W        W58402  15.658  18.069  13.248
93143W        W58403  25.178  32.889   0.484
93144W        W58404   7.871  36.020   4.070
93145W        W58405  37.596  14.647   3.562
93146W        W58406  21.932  12.483  12.672
93147W        W58407  11.262  31.473   0.321
93148W        W58408   9.386  13.566  14.851
93149W        W58409  12.078  20.093   3.670
93150W        W58410  15.036   7.450   2.282
93151W        W58411  25.414   8.173  12.048
93152W        W58412   1.470  24.841   3.707
93153W        W58413  28.274  43.036   2.197
93154W        W58414  17.261  40.248  13.445
93155W        W58415  44.916  39.947   2.641
93156W        W58416   3.876   6.654  14.006
93157W        W58417   7.796  36.588  10.786
93158W        W58418  30.104  24.429  13.434
93159W        W58419   0.972  44.043  14.760
93160W        W58420  34.897   2.999   4.094
93161W        W58421  14.727   2.905  13.259
93162W        W58422  17.968  23.685  12.107
93163W        W58423  42.733  27.589   2.837
93164W        W58424  36.093  30.223  10.992
93165W        W58425   6.298  20.726   2.092
93166W        W58426  10.184  41.754   2.211
93167W        W58427  28.548   7.335   4.416
93168W        W58428  40.020  23.598  10.580
93169W        W58429  14.425  34.418  11.541
93170W        W58430  27.991   0.514   2.613
93171W        W58431   0.182   9.836  12.853
93172W        W58432  20.849  28.635  11.570
93173W        W58433   7.881  29.454   0.972
93174W        W58434   3.863  21.646  14.067
93175W        W58435  10.907  29.917   2.839
93176W        W58436  13.819  34.078   3.142
93177W        W58437  22.461  34.424   1.354
93178W        W58438  35.889   2.743   2.936
93179W        W58439   8.671  14.719   2.850
93180W        W58440  11.307  35.489  10.722
93181W        W58441  11.453  31.630  12.505
93182W        W58442  37.892  19.639  14.370
93183W        W58443  37.140   0.286   3.800
93184W        W58444   7.144  32.542   2.765
93185W        W58445  25.232  11.086   4.494
93186W        W58446   5.244   7.749  11.033
93187W        W58447  15.765  40.307   3.123
93188W        W58448  30.380   2.474  12.848
93189W        W58449   4.196  29.723  13.969
93190W        W58450   5.788  21.321   1.666
93191W        W58451  12.430  20.676  11.595
93192W        W58452  11.907   3.269  13.831
93193W        W58453  27.564  10.572   0.366
93194W        W58454  15.878  39.407  11.628
93195W        W58455   3.917  43.781  11.929
93196W        W58456  16.838  30.535  10.625
93197W        W58457  24.398  25.274   4.680
93198W        W58458   5.718  11.356  12.368
93199W        W58459  18.077  27.454  11.700
93200W        W58460  32.828  18.567  14.477
93201W        W58461   4.506   9.982  14.996
93202W        W58462  18.382  29.512   3.181
93203W        W58463   1.893  19.968  10.735
93204W        W58464  35.022  32.347   0.239
93205W        W58465  22.643  35.942   1.042
93206W        W58466  23.476  12.374  12.063
93207W        W58467  44.821  19.094  11.492
93208W        W58468  32.657  26.085  11.190
93209W        W58469  11.765  32.339   5.037
93210W        W58470   9.774  33.367   4.028
93211W        W58471   1.286  34.430   2.333
93212W        W58472  10.185  25.874  11.569
93213W        W58473  16.373  37.374   1.756
93214W        W58474  18.112  44.857  11.105
93215W        W58475  28.399  24.929   0.367
93216W        W58476  42.968  38.787   0.135
93217W        W58477  40.458  16.665  10.627
93218W        W58478  38.913  28.673   4.130
93219W        W58479  42.564   8.475   1.305
93220W        W58480   1.440  23.187  10.295
93221W        W58481   6.643  18.351   4.590
93222W        W58482  15.590  17.178  13.556
93223W        W58483  44.906  16.791  14.788
93224W        W58484  13.133  31.190  11.571
93225W        W58485  11.933  40.847   4.623
93226W        W58486  24.756   2.597   3.757
93227W        W58487  22.574  34.410   3.547
93228W        W58488  18.976  21.221   2.581
93229W        W58489   5.234  39.528  13.474
93230W        W58490  15.612  10.105  12.884
93231W        W58491  27.968  24.653   1.328
93232W        W58492   8.283  42.054   0.071
93233W        W58493   4.079  23.122  13.195
93234W        W58494   2.884   1.356   4.402
93235W        W58495  11.735  31.734   3.178
93236W        W58496  28.124  18.345   3.863
93237W        W58497   8.927  20.064  12.456
93238W        W58498  23.103   7.590  14.788
93239W        W58499   7.806   6.409  14.348
93240W        W58500  42.449  36.604   1.192
93241W        W58501  38.490  41.558   0.164
93242W        W58502  30.703  40.113   1.702
93243W        W58503  14.624  19.621  13.907
93244W        W58504  42.885   1.986   1.372
93245W        W58505  43.369  40.275   0.752
93246W        W58506  30.861   6.872  13.456
93247W        W58507  35.417  21.599  11.995
93248W        W58508  18.144  30.981  10.670
93249W        W58509  41.835   1.743   0.817
93250W        W58510  10.440  26.399   1.703
93251W        W58511   6.357  14.837   4.224
93252W        W58512  31.635  40.290   3.123
93253W        W58513  13.508  28.140   1.444
93254W        W58514  21.124  21.833  13.925
93255W        W58515   7.318  28.380   1.448
93256W        W58516  21.703  42.274  11.513
93257W        W58517  28.074  26.462   0.317
93258W        W58518  24.039  14.893   0.739
93259W        W58519  18.053   2.771   1.769
93260W        W58520  23.243  17.145   2.150
93261W        W58521   2.876  18.396   1.237
93262W        W58522   1.505  38.376  11.223
93263W        W58523  41.342  29.720  13.820
93264W        W58524  44.599  23.473  11.500
93265W        W58525  13.744  10.704  13.845
93266W        W58526  39.462  27.473  10.546
93267W        W58527   0.213  24.458   4.480
93268W        W58528  33.148  31.611  13.570
93269W        W58529  25.480  13.598  12.965
93270W        W58530   7.460  36.458  12.165
93271W        W58531   5.900  26.673  12.147
93272W        W58532  22.081  38.308   0.320
93273W        W58533  13.615   7.699  12.480
93274W        W58534  42.418  24.197   3.898
93275W        W58535  32.473  16.785  11.991
93276W        W58536  43.998  37.517   2.487
93277W        W58537  22.006   3.532   2.307
93278W        W58538  27.735  22.704  14.486
93279W        W58539   1.809   4.649  12.928
93280W        W58540  15.875  19.307  14.772
93281W        W58541  14.462  28.659   1.233
93282W        W58542   3.987  14.297   2.944
93283W        W58543  30.984  31.516   3.054
93284W        W58544  10.182  33.889  13.399
93285W        W58545   2.357   6.125   3.282
93286W        W58546  39.526  39.370  11.159
93287W        W58547  44.619  39.718   0.853
93288W        W58548  14.115  18.577   3.175
93289W        W58549   4.480  25.545   3.895
93290W        W58550  23.107  40.588   1.994
93291W        W58551  33.008  30.124  14.956
93292W        W58552  19.230  41.069   2.135
93293W        W58553  35.832  24.716   2.911
93294W        W58554  20.232  11.574  14.038
93295W        W58555  40.463  33.522   4.535
93296W        W58556  36.711   2.771  10.655
93297W        W58557  24.130   1.034   3.084
93298W        W58558  26.967   6.091  10.426
93299W        W58559  21.868   7.185  11.100
93300W        W58560  10.404  18.292  12.439
93301W        W58561  15.336   0.843   4.541
93302W        W58562   3.192  23.074  12.688
93303W        W58563  44.639  11.285  11.611
93304W        W58564  31.037  21.019   0.286
93305W        W58565  17.571   2.890   3.699
93306W        W58566  16.060  30.222  12.139
93307W        W58567  34.212   0.386   4.247
93308W        W58568  31.385  43.811  12.920
93309W        W58569  19.672  27.484   4.546
93310W        W58570   3.573  30.441  10.346
93311W        W58571  41.089  40.011   3.184
93312W        W58572   7.184  15.360   2.114
93313W        W58573   5.604   5.245  13.516
93314W        W58574  40.952  10.412   4.663
93315W        W58575  35.911  16.549  14.016
93316W        W58576   0.167   8.760  14.896
93317W        W58577  43.859  27.625   2.417
93318W        W58578  42.789  27.419   1.268
93319W        W58579  16.530  12.868  11.624
93320W        W58580   9.075  16.791   2.324
93321W        W58581  22.455  14.181   2.594
93322W        W58582  20.742  13.798   2.279
93323W        W58583  16.657  20.131  13.037
93324W        W58584  12.212   3.798  13.924
93325W        W58585  18.006  13.244  11.176
93326W        W58586  33.249  18.238  10.755
93327W        W58587  16.636  26.144   0.780
93328W        W58588  12.454  30.741   4.060
93329W        W58589   2.056  22.693  14.976
93330W        W58590   4.846  40.526  12.646
93331W        W58591  36.395  21.977  14.964
93332W        W58592  10.837  12.300  11.992
93333W        W58593  42.365  34.141  11.538
93334W        W58594  44.820   6.892  10.916
93335W        W58595   0.436   2.503  11.099
93336W        W58596  35.519   5.803  11.368
93337W        W58597  38.694  15.873  14.422
93338W        W58598   9.837  33.080  14.468
93339W        W58599  33.989  18.780   0.769
93340W        W58600  32.930  26.759  13.055
93341W        W58601  44.656  20.483  12.556
93342W        W58602  28.970  16.196  14.513
93343W        W58603  30.153  16.729   3.105
93344W        W58604  44.122  35.503  10.716
93345W        W58605  29.928  13.741  11.463
93346W        W58606   9.415  31.317  12.614
93347W        W58607  16.275   3.152   0.258
93348W        W58608  34.055  24.006   0.252
93349W        W58609   5.664  22.165  14.022
93350W        W58610   7.113  25.328  13.384
93351W        W58611  15.335  25.403  13.865
93352W        W58612  18.017  36.324   0.327
93353W        W58613  35.098  20.565   4.634
93354W        W58614  31.240  13.959   3.375
93355W        W58615  21.495  22.594  13.389
93356W        W58616   0.335  36.519  12.599
93357W        W58617  31.134  12.231  11.521
93358W        W58618   1.375  42.416  13.971
93359W        W58619  30.467  18.767  10.492
93360W        W58620   0.920  19.236   4.592
93361W        W58621   2.015  42.588  12.932
93362W        W58622   3.445  42.004   0.437
93363W        W58623  31.438  18.280   4.946
93364W        W58624  40.776   8.343   2.184
93365W        W58625  22.075   3.513  13.533
93366W        W58626  24.956  31.931   3.655
93367W        W58627  22.722  24.909   1.640
93368W        W58628  25.051   9.189  13.434
93369W        W58629  12.185  18.090  14.834
93370W        W58630  20.571  26.427   1.247
93371W        W58631   9.425  19.382   0.848
93372W        W58632  12.065  43.725   4.035
93373W        W58633  22.909  35.508  14.418
93374W        W58634  25.594   8.098  10.242
93375W        W58635   9.917   7.400  12.893
93376W        W58636  40.177  38.016   2.039
93377W        W58637  20.985  38.309   4.082
93378W        W58638  36.978   5.945  14.696
93379W        W58639  26.554  33.672   1.540
93380W        W58640  34.786  36.552   3.721
93381W        W58641  38.619  29.014   1.192
93382W        W58642  26.359  26.073  14.790
93383W        W58643  39.501  11.759   1.322
93384W        W58644  28.692  35.064   1.277
93385W        W58645  40.917   2.267   4.531
93386W        W58646   9.096  14.316   0.836
93387W        W58647  26.174  21.032   2.699
93388W        W58648  15.719  23.037   3.120
93389W        W58649  19.760  35.965   3.183
93390W        W58650   4.296  36.857   3.656
93391W        W58651  21.100   4.387   2.535
93392W        W58652   5.193  12.891  11.074
93393W        W58653  13.672   8.287  10.209
93394W        W58654  24.088  24.920  10.639
93395W        W58655  22.090   3.343  14.410
93396W        W58656  10.585   1.184   0.362
93397W        W58657  29.979  22.509  14.966
93398W        W58658  34.431  40.427  12.835
93399W        W58659  14.696  39.924  11.807
93400W        W58660   5.702  28.451   1.211
93401W        W58661   5.890  16.291   2.169
93402W        W58662  43.736  44.629   2.353
93403W        W58663  16.859  22.707  12.548
93404W        W58664  40.454  37.895  12.345
93405W        W58665   3.749  13.208  13.056
93406W        W58666  10.835  18.313  11.539
93407W        W58667  21.867  17.862  13.107
93408W        W58668  43.248  12.823   0.365
93409W        W58669   8.270  22.805  10.643
93410W        W58670  22.011  31.174   2.950
93411W        W58671  34.964  26.337  14.542
93412W        W58672  43.921  28.652   1.817
93413W        W58673  17.761   9.779  12.911
93414W        W58674   6.215  14.938  10.659
93415W        W58675  19.594  13.580  12.537
93416W        W58676   7.209  31.830  13.752
93417W        W58677  22.072  16.845  11.223
93418W        W58678  18.565  17.376  12.599
93419W        W58679  25.124  40.603   4.240
93420W        W58680  24.462  12.813   4.595
93421W        W58681  35.607  39.814   3.824
93422W        W58682  21.074  17.222  12.432
93423W        W58683   4.435  29.557  13.469
93424W        W58684  10.755  25.399   2.149
93425W        W58685  22.709  18.859  12.227
93426W        W58686   4.146  43.512   4.131
93427W        W58687   3.667  29.899  11.231
93428W        W58688  12.635  27.535  14.058
93429W        W58689  31.801  15.108   1.315
93430W        W58690  18.622  13.319   2.461
93431W        W58691   1.275  20.036   1.327
93432W        W58692  24.695   7.996   1.950
93433W        W58693  28.391  43.308  12.086
93434W        W58694  14.761  30.939   1.841
93435W        W58695  20.177  44.080   1.187
93436W        W58696  11.673   2.483   0.891
93437W        W58697   1.159  27.486  12.216
93438W        W58698  25.584  34.458   0.411
93439W        W58699  24.450  17.652   0.544
93440W        W58700   0.329  37.510   1.650
93441W        W58701   5.647  37.510   4.095
93442W        W58702   8.744  34.431   3.789
93443W        W58703   8.587  11.221  13.531
93444W        W58704   9.930  16.198   0.799
93445W        W58705  33.342  13.799   0.831
93446W        W58706  36.890   3.248   0.288
93447W        W58707  20.622  28.223   4.061
93448W        W58708  28.698   2.446  14.895
93449W        W58709  35.895  31.172  10.592
93450W        W58710  43.241  31.362   0.408
93451W        W58711  41.442  36.605   0.377
93452W        W58712  22.069  21.657   4.894
93453W        W58713  22.765  27.639  13.305
93454W        W58714  29.168   6.828   1.226
93455W        W58715  39.484  15.632  12.460
93456W        W58716  39.692  42.998  14.851
93457W        W58717  35.655  41.246   4.109
93458W        W58718  34.844   2.964   0.277
93459W        W58719  21.581  37.971   1.260
93460W        W58720  32.057  44.905   0.413
93461W        W58721  14.585   4.408  14.499
93462W        W58722  22.617  37.682   0.893
93463W        W58723  16.252  40.619  10.702
93464W        W58724  37.776   9.241   3.043
93465W        W58725  33.992  41.032   1.849
93466W        W58726   0.280  28.988  11.530
93467W        W58727  28.466  21.778  10.650
93468W        W58728  32.919  33.020  14.091
93469W        W58729  21.064  21.164   9.764
93470W        W58730  22.383   2.920  11.517
93471W        W58731   6.751   7.388  13.845
93472W        W58732  34.922  34.964  13.410
93473W        W58733  26.012  10.442  11.476
93474W        W58734  41.429  43.929   3.248
93475W        W58735  29.461  21.535   1.817
93476W        W58736  19.368  20.971   2.341
93477W        W58737  17.854  18.689   4.070
93478W        W58738  27.651   9.175   1.782
93479W        W58739  18.132  40.273   3.866
93480W        W58740  32.225  27.080   3.254
93481W        W58741  17.219  39.464   3.254
93482W        W58742  15.672  40.498   5.185
93483W        W58743  29.705  12.406   0.334
93484W        W58744  28.470  20.219   3.642
93485W        W58745   5.896  43.803   0.428
93486W        W58746  14.761  23.600   0.308
93487W        W58747  18.771  23.771   2.771
93488W        W58748   0.633   9.426  11.112
93489W        W58749  15.290  20.595  14.550
93490W        W58750  30.427   7.059   2.868
93491W        W58751  27.778  13.501   2.689
93492W        W58752  30.987  16.550  13.918
93493W        W58753  11.400  15.262   2.882
93494W        W58754   6.852  21.078   3.554
93495W        W58755  34.723  39.818  12.097
93496W        W58756  44.824  24.647   2.869
93497W        W58757  13.797  22.105   2.607
93498W        W58758   3.872  40.540   0.430
93499W        W58759  19.132  33.877   3.628
93500W        W58760  23.195   2.670  13.369
93501W        W58761  38.797  14.301   1.809
93502W        W58762  36.001  37.500  11.452
93503W        W58763  37.227  21.492   1.120
93504W        W58764  39.754  22.075   1.516
93505W        W58765  12.970   9.164   0.769
93506W        W58766   1.488  28.449  10.207
93507W        W58767   8.587  20.290   2.808
93508W        W58768  24.485  13.672   4.183
93509W        W58769  23.732   1.708   9.978
93510W        W58770   2.427  29.521  11.429
93511W        W58771   6.147  16.782  11.616
93512W        W58772  39.494  44.527  13.572
93513W        W58773  10.862  37.065  13.617
93514W        W58774  41.053  24.101  12.941
93515W        W58775  43.830   9.375  11.213
93516W        W58776  43.162  36.400  11.641
93517W        W58777  41.430   3.632   1.822
93518W        W58778  20.988  17.792  14.290
93519W        W58779  35.859   0.071   1.011
93520W        W58780  34.761  43.235   3.570
93521W        W58781  41.906  15.816  12.517
93522W        W58782   8.730  16.441  13.886
93523W        W58783  33.510  17.487   0.885
93524W        W58784  22.051  32.128  11.479
93525W        W58785  13.169  25.700   4.649
93526W        W58786   9.704  41.884   3.389
93527W        W58787  23.085  17.683   0.892
93528W        W58788  41.273  19.120   3.274
93529W        W58789  42.013  37.351  14.768
93530W        W58790   0.691  38.814  11.136
93531W        W58791  37.233   0.147   4.962
93532W        W58792   7.286  16.682  14.510
93533W        W58793  29.875  36.043   3.720
93534W        W58794  11.624  11.618  13.603
93535W        W58795  35.206  33.035   4.574
93536W        W58796  44.946  41.903   0.499
93537W        W58797   9.684  17.781  13.829
93538W        W58798  40.524   1.015  10.314
93539W        W58799  41.542   9.292  13.985
93540W        W58800   5.376  11.325   1.871
93541W        W58801  14.867  32.744   4.205
93542W        W58802  30.194  18.637   1.841
93543W        W58803  26.921  17.295   4.942
93544W        W58804  30.593  11.614  14.819
93545W        W58805  23.908   0.689   1.559
93546W        W58806  30.090  24.412  14.288
93547W        W58807  44.450  44.755  12.072
93548W        W58808   5.344  26.510  11.519
93549W        W58809  25.559  12.894  13.841
93550W        W58810  15.702  21.567  14.482
93551W        W58811  33.598  14.759   4.516
93552W        W58812  22.059  16.073  14.161
93553W        W58813  14.613  26.894   4.668
93554W        W58814  35.643  21.225   3.680
93555W        W58815   4.967  23.727  10.263
93556W        W58816  41.245  27.639  14.617
93557W        W58817  37.951  36.985   4.102
93558W        W58818  11.970   7.622  11.037
93559W        W58819   2.249   5.290  12.360
93560W        W58820  11.705  14.069  10.305
93561W        W58821   9.593  26.162   1.723
93562W        W58822  39.792   1.616   1.199
93563W        W58823   0.143   2.531   2.789
93564W        W58824  21.487  32.287   4.046
93565W        W58825  23.982   1.395   2.743
93566W        W58826  31.461  39.101  12.006
93567W        W58827  42.544  15.737  12.957
93568W        W58828  39.098  38.933   4.173
93569W        W58829  34.974   9.714   0.737
93570W        W58830   1.393   7.607   2.202
93571W        W58831  41.508  11.755  13.462
93572W        W58832  26.758  15.689  14.864
93573W        W58833  12.397  13.261   1.266
93574W        W58834  39.455  37.821   1.651
93575W        W58835  37.804  24.381   3.316
93576W        W58836   2.954  14.365   1.918
93577W        W58837   8.894   3.284   0.271
93578W        W58838  12.384  11.197  14.559
93579W        W58839  37.927  22.638  13.799
93580W        W58840   5.857  20.591  13.007
93581W        W58841  22.221  36.396  13.899
93582W        W58842   8.567  16.857  14.671
93583W        W58843   1.076   0.962  10.955
93584W        W58844   1.197   2.786   1.133
93585W        W58845  44.369  36.541   1.696
93586W        W58846   3.061  33.920   4.866
93587W        W58847   8.727   6.585   0.455
93588W        W58848  26.351  35.870  13.545
93589W        W58849  17.300  25.245  12.589
93590W        W58850  36.090  44.186   0.488
93591W        W58851  33.803  27.120   0.671
93592W        W58852  12.873  36.237  12.446
93593W        W58853   0.959  36.099   1.810
93594W        W58854  25.642   6.882  14.364
93595W        W58855  36.883  44.963  12.052
93596W        W58856   2.227  29.886  14.935
93597W        W58857  33.858  11.233   4.840
93598W        W58858  36.791  34.146   4.540
93599W        W58859  36.137  26.318   3.657
93600W        W58860  23.413  37.203  13.093
93601W        W58861  36.213  19.712   4.918
93602W        W58862  19.286  44.733  14.233
93603W        W58863   1.906  11.427   2.418
93604W        W58864  29.031  26.563   4.146
93605W        W58865  43.875  44.836   3.305
93606W        W58866  41.423  37.684   2.723
93607W        W58867  26.011  32.442  10.945
93608W        W58868  41.094  14.228  11.483
93609W        W58869  21.540  34.488   4.155
93610W        W58870  27.147  33.832   3.656
93611W        W58871  12.807  16.744   4.156
93612W        W58872   7.431  23.626   0.956
93613W        W58873  18.562  37.005  14.828
93614W        W58874   9.852  34.091  12.741
93615W        W58875  35.643  21.735   3.736
93616W        W58876  19.610  42.271   0.058
93617W        W58877  10.437  22.266   1.316
93618W        W58878   9.170  26.437  12.136
93619W        W58879  20.515   1.888   1.958
93620W        W58880  25.891   9.695   0.250
93621W        W58881  38.894  41.873  12.214
93622W        W58882  29.826   4.418   3.105
93623W        W58883  42.991  15.966   2.150
93624W        W58884   2.515  15.847  14.019
93625W        W58885  31.168  29.941   3.161
93626W        W58886  18.306  43.893  13.277
93627W        W58887  20.932  42.346   3.723
93628W        W58888  34.649  30.739   1.534
93629W        W58889  35.594   2.035   0.875
93630W        W58890  37.980  39.904   3.586
93631W        W58891  33.140  10.796   1.650
93632W        W58892  27.277   4.553   2.131
93633W        W58893  37.563  13.543  13.496
93634W        W58894  29.911   5.977   2.914
93635W        W58895  11.480  13.314   2.683
93636W        W58896  39.872   0.725  13.577
93637W        W58897  34.025  42.272   0.661
93638W        W58898  15.468  38.610  11.134
93639W        W58899  16.221  29.256  14.708
93640W        W58900  35.468  12.260   2.113
93641W        W58901  20.353  27.712  14.091
93642W        W58902  24.296   9.817   4.148
93643W        W58903  13.702  38.450  14.992
93644W        W58904  33.504  30.018  13.455
93645W        W58905  38.457  27.464  11.495
93646W        W58906  21.780   3.586   2.758
93647W        W58907  30.625  22.164   4.552
93648W        W58908  22.510  10.612   3.193
93649W        W58909  17.188   9.446  13.948
93650W        W58910   2.393  22.438   0.287
93651W        W58911  39.320  25.733  12.771
93652W        W58912  15.264  31.141   3.274
93653W        W58913  22.519   1.381   0.860
93654W        W58914  34.832  40.429   1.440
93655W        W58915   1.720  41.534   2.393
93656W        W58916  23.480  33.619   4.308
93657W        W58917  26.874  26.968  14.376
93658W        W58918  10.243   8.079   0.649
93659W        W58919  44.823  14.281   4.932
93660W        W58920   7.797  22.530  10.689
93661W        W58921  33.981  32.414   1.105
93662W        W58922   9.702  33.110   0.347
93663W        W58923   0.296  37.863  12.291
93664W        W58924  27.870  29.407  14.337
93665W        W58925  40.796  35.072   0.569
93666W        W58926   9.144  34.912   3.151
93667W        W58927  42.295  21.130   1.322
93668W        W58928   5.667   8.645  14.765
93669W        W58929  34.981  35.907   9.885
93670W        W58930  14.706   7.635   5.454
93671W        W58931  42.363  35.315   1.778
93672W        W58932  27.445   2.747  13.268
93673W        W58933  22.381  35.066   4.142
93674W        W58934  10.555  40.168  11.208
93675W        W58935  16.636  40.398   4.797
93676W        W58936  12.638  19.009  10.642
93677W        W58937   0.263  27.826   1.740
93678W        W58938  39.746  10.164   4.219
93679W        W58939   8.428   6.831   2.283
93680W        W58940  31.961   3.219   0.889
93681W        W58941   2.541  42.798   1.864
93682W        W58942  29.992  21.398   1.417
93683W        W58943  13.150  37.304  14.050
93684W        W58944   2.750  28.373  14.542
93685W        W58945  32.511   4.760   4.128
93686W        W58946  32.051  27.490  11.613
93687W        W58947  41.775  29.553   4.431
93688W        W58948  35.204  39.527   2.690
93689W        W58949  40.052  14.910  10.676
93690W        W58950  23.924  20.605   1.448
93691W        W58951  27.231  26.179   0.417
93692W        W58952  16.057  10.533   3.726
93693W        W58953   5.222  21.039   2.404
93694W        W58954  19.163   8.919  14.605
93695W        W58955   0.328  41.563  13.453
93696W        W58956  14.691  27.180  12.606
93697W        W58957   1.437  40.019  12.158
93698W        W58958  11.601  10.324  12.726
93699W        W58959  13.362  23.230   1.413
93700W        W58960  23.658  16.240   0.882
93701W        W58961  11.548  24.910   3.186
93702W        W58962  33.633  12.166  13.971
93703W        W58963  29.650  13.815   0.265
93704W        W58964   6.249  38.385   3.220
93705W        W58965  36.824  44.301  14.404
93706W        W58966  30.040  20.789   3.839
93707W        W58967   5.479  27.125  14.984
93708W        W58968   2.481  37.024  11.577
93709W        W58969  21.120  39.029  11.952
93710W        W58970  42.359   3.244   4.141
93711W        W58971  43.327  40.449  10.665
93712W        W58972  42.861  28.199   3.729
93713W        W58973   8.909  25.031  12.012
93714W        W58974  37.278  39.498  11.458
93715W        W58975  42.363  33.058  11.681
93716W        W58976  16.545  15.998   0.215
93717W        W58977   6.453   0.807   0.793
93718W        W58978  16.037  37.824   0.355
93719W        W58979  18.397  35.708   1.866
93720W        W58980  19.959  14.158   4.021
93721W        W58981  34.937  26.772   3.592
93722W        W58982  31.458  10.884  11.109
93723W        W58983  39.313  33.704   4.700
93724W        W58984  11.612  14.846   0.335
93725W        W58985  44.062  24.619  13.438
93726W        W58986  25.157  44.822   2.859
93727W        W58987   5.408  22.147  12.631
93728W        W58988  16.831  14.654  12.956
93729W        W58989  23.598  35.120  14.797
93730W        W58990  44.270  14.715  13.044
93731W        W58991  14.068  30.931  12.088
93732W        W58992  21.746  18.937   3.114
93733W        W58993   7.992   5.287   4.110
93734W        W58994  27.491  37.873  11.510
93735W        W58995   3.356  22.286  12.064
93736W        W58996   7.844  39.770   0.210
93737W        W58997  39.249  39.754   3.769
93738W        W58998   3.282  42.966  14.499
93739W        W58999  32.009  21.072   0.238
93740W        W59000  24.644   4.820  13.538
93741W        W59001   9.643  31.340  10.494
93742W        W59002  18.730  28.574   1.356
93743W        W59003  18.563  32.328  14.469
93744W        W59004  22.673  37.677   4.329
93745W        W59005  39.912  36.058   3.073
93746W        W59006  41.275   0.723   1.975
93747W        W59007  28.643  19.725   1.707
93748W        W59008  14.412  17.191   0.566
93749W        W59009  11.672  37.642  11.239
93750W        W59010   2.233  27.773   0.798
93751W        W59011  20.914  27.985   0.329
93752W        W59012  14.854  42.261  11.913
93753W        W59013  27.976   8.106   4.601
93754W        W59014   2.823  40.448  10.757
93755W        W59015  14.629  30.635  13.062
93756W        W59016  33.009  22.209  11.195
93757W        W59017   2.757  20.001  10.728
93758W        W59018  33.877   6.348  11.097
93759W        W59019   7.854  10.129  12.067
93760W        W59020  42.269  30.424   4.296
93761W        W59021  29.460  37.947  10.704
93762W        W59022  25.668  15.069   4.042
93763W        W59023  14.201   2.841   4.723
93764W        W59024  26.719  20.283  11.156
93765W        W59025  31.624  43.464  11.357
93766W        W59026  26.801   9.114   0.951
93767W        W59027  29.707  35.215  14.810
93768W        W59028  19.067  17.022  10.977
93769W        W59029   8.849  31.658  10.355
93770W        W59030  20.165  27.694   4.604
93771W        W59031  19.184  43.247   1.805
93772W        W59032  44.279   9.589   5.149
93773W        W59033   0.393  37.653   2.142
93774W        W59034   6.946  11.250   3.786
93775W        W59035   7.925  18.964   0.824
93776W        W59036   3.960   5.687  12.091
93777W        W59037  16.813   9.468   1.228
93778W        W59038   8.886   4.979   0.070
93779W        W59039  39.576  15.092  11.793
93780W        W59040  12.967  34.150  13.986
93781W        W59041  21.342   1.346  11.168
93782W        W59042  12.444  16.287  10.999
93783W        W59043  36.418  38.323  14.980
93784W        W59044  26.129  42.274   4.173
93785W        W59045  11.927  39.777  10.971
93786W        W59046  32.411  30.630  12.876
93787W        W59047  41.032   1.283  14.370
93788W        W59048   5.838  37.439   2.318
93789W        W59049  16.062  44.550  13.366
93790W        W59050  26.968  34.033   4.104
93791W        W59051  18.300  11.788  13.408
93792W        W59052  23.935  34.521   3.825
93793W        W59053  21.822  16.703  11.648
93794W        W59054  12.656  16.246  12.691
93795W        W59055   7.285  22.007  14.724
93796W        W59056  35.820  21.769  11.607
93797W        W59057  17.226  25.051  13.067
93798W        W59058  23.887  44.177  12.798
93799W        W59059   6.033  44.978   4.057
93800W        W59060  44.489  22.916  13.982
93801W        W59061   3.584  43.514  13.224
93802W        W59062  17.226  16.532   0.461
93803W        W59063  27.416  28.584  14.987
93804W        W59064  18.313  21.070   3.250
93805W        W59065  26.055   1.676   1.474
93806W        W59066  20.626  40.126   2.760
93807W        W59067  31.707  22.640  13.016
93808W        W59068  30.068   6.819   0.435
93809W        W59069  17.496  20.660   2.293
93810W        W59070  15.383  24.764   1.710
93811W        W59071  20.443  34.459  12.396
93812W        W59072  39.374   5.254   2.581
93813W        W59073  21.687  14.211   0.930
93814W        W59074  43.912  20.148   2.609
93815W        W59075  27.983  29.340  13.547
93816W        W59076   0.042  26.629  12.020
93817W        W59077  21.073   8.889   2.816
93818W        W59078   8.175  24.609  11.470
93819W        W59079   7.522  10.681   3.227
93820W        W59080  19.693  12.627  12.137
93821W        W59081  31.088  32.915  14.259
93822W        W59082  36.581  20.839  12.019
93823W        W59083   7.796  23.273   0.796
93824W        W59084  44.351  22.818  11.130
93825W        W59085  15.855   3.997   2.273
93826W        W59086  37.927   9.105  13.611
93827W        W59087   5.765  30.489   3.014
93828W        W59088  35.593   7.802  12.918
93829W        W59089  31.249  38.860   1.960
93830W        W59090  10.363   4.182  12.444
93831W        W59091   7.706   7.415   3.197
93832W        W59092   0.490   6.898   1.501
93833W        W59093  32.364  10.174  11.558
93834W        W59094  15.312   3.514  14.583
93835W        W59095  22.729  25.808   3.231
93836W        W59096   0.992  40.863  11.888
93837W        W59097  19.704  17.621  12.069
93838W        W59098  14.386  20.189  11.105
93839W        W59099  27.946  43.008   0.942
93840W        W59100  42.869  39.686   2.576
93841W        W59101  34.294  34.645   1.842
93842W        W59102   5.358  32.038  12.955
93843W        W59103  31.435  43.740   4.450
93844W        W59104  16.239  20.432   0.826
93845W        W59105  20.282  34.791   2.571
93846W        W59106  31.651  35.004   4.571
93847W        W59107  34.984   6.195   1.585
93848W        W59108  15.432  42.873   3.939
93849W        W59109  28.040  38.528   1.751
93850W        W59110  40.505   4.244  13.417
93851W        W59111  44.724  27.364   0.731
93852W        W59112  42.441  14.645   1.911
93853W        W59113  10.067  16.635  12.615
93854W        W59114   9.883   6.136   3.691
93855W        W59115  29.733  37.846   3.702
93856W        W59116   5.924  13.819   2.785
93857W        W59117   4.032  37.474  14.441
93858W        W59118  41.003  29.729   1.848
93859W        W59119  13.905  17.027  14.453
93860W        W59120  39.445  28.138   0.573
93861W        W59121  12.678  16.055   0.796
93862W        W59122  21.810  27.202   2.721
93863W        W59123  22.745   6.153   0.056
93864W        W59124  26.221   0.204  12.927
93865W        W59125  20.127  38.784  13.295
93866W        W59126  20.619  11.644  12.348
93867W        W59127  36.606  41.988   1.850
93868W        W59128  23.746  31.701  11.479
93869W        W59129  33.396   9.186   3.773
93870W        W59130  20.662  30.886   3.590
93871W        W59131  37.925  26.723  11.787
93872W        W59132  41.186   8.206  13.407
93873W        W59133  15.351  21.386  13.505
93874W        W59134  38.581  12.198   0.791
93875W        W59135  30.599  26.562  13.930
93876W        W59136  35.296   7.868   1.909
93877W        W59137  23.204  36.518   0.937
93878W        W59138  15.355  26.053   4.329
93879W        W59139   7.801   7.135   0.545
93880W        W59140  36.571  12.440  11.462
93881W        W59141  23.941  38.712  13.152
93882W        W59142  41.974  34.491   4.507
93883W        W59143  31.071  41.595  10.432
93884W        W59144  31.147  11.327  12.589
93885W        W59145  30.086  40.085  10.912
93886W        W59146   0.081  35.162  13.382
93887W        W59147  16.481  30.182   0.026
93888W        W59148   1.893  28.492  14.234
93889W        W59149  35.467  11.323  14.200
93890W        W59150   9.445   8.494  11.463
93891W        W59151  35.828   3.777   2.992
93892W        W59152  24.042  43.455  14.765
93893W        W59153  16.146  11.640  10.671
93894W        W59154  20.091  34.838  10.421
93895W        W59155  43.432  28.807  14.040
93896W        W59156  26.508  41.080   3.803
93897W        W59157  20.484  24.649   0.010
93898W        W59158  18.202  31.059   2.282
93899W        W59159  38.585  21.119   2.799
93900W        W59160  33.546  10.577   1.422
93901W        W59161   6.711  27.043   5.526
93902W        W59162  12.305  36.400   4.700
93903W        W59163  17.528   9.993   2.819
93904W        W59164  16.194  41.078  13.882
93905W        W59165  13.125  34.110  11.331
93906W        W59166  14.480  15.813   2.928
93907W        W59167  32.405  21.749  13.206
93908W        W59168   6.395  12.273   3.810
93909W        W59169  34.027  22.023  10.697
93910W        W59170  20.277  18.034   3.875
93911W        W59171  31.147  33.422   4.115
93912W        W59172  42.977  36.065   3.706
93913W        W59173   9.291  34.898   0.548
93914W        W59174  14.378  29.514   2.479
93915W        W59175   4.803  20.147   2.659
93916W        W59176  15.283  20.211  13.569
93917W        W59177  36.111  23.637  12.965
93918W        W59178  37.580   7.584   1.334
93919W        W59179  31.609  43.950  12.484
93920W        W59180  21.458  14.348   0.229
93921W        W59181  24.385  15.263  12.428
93922W        W59182  18.085  39.028   2.183
93923W        W59183  41.567   1.855   4.116
93924W        W59184  31.388  13.219  13.584
93925W        W59185  14.044  43.953   1.799
93926W        W59186  35.557  27.630  10.900
93927W        W59187  35.683  29.855  11.208
93928W        W59188  21.171   5.024   1.165
93929W        W59189  14.849  27.684  12.411
93930W        W59190  12.796   5.386   0.925
93931W        W59191  10.774  14.845  14.281
93932W        W59192   7.164  24.259   2.803
93933W        W59193  17.032  11.908  13.373
93934W        W59194   2.563  16.037   0.404
93935W        W59195  25.238  29.204  11.171
93936W        W59196  44.469  17.165  14.263
93937W        W59197  19.335  15.191  11.171
93938W        W59198   6.730  15.273   1.631
93939W        W59199  13.650   4.289   3.384
93940W        W59200  15.599   9.122  10.981
93941W        W59201  44.980  29.590  13.941
93942W        W59202  25.259  38.344  11.438
93943W        W59203  11.326   1.818  12.054
93944W        W59204  18.544  22.733  11.987
93945W        W59205  34.358  36.977  13.731
93946W        W59206  10.741  43.190  12.963
93947W        W59207   1.298   6.174   3.184
93948W        W59208  41.997  42.300  12.477
93949W        W59209  28.182  43.933   2.375
93950W        W59210   2.328   1.414   3.090
93951W        W59211   9.938  39.076  14.732
93952W        W59212  19.717  39.831   3.662
93953W        W59213  10.921  38.464   3.481
93954W        W59214   5.280  29.237   1.217
93955W        W59215  32.065  25.769  13.037
93956W        W59216  17.110  38.056  10.667
93957W        W59217   9.373  12.533  14.755
93958W        W59218  16.933  21.290   3.261
93959W        W59219  39.788  27.826   0.333
93960W        W59220  29.616  35.997  11.184
93961W        W59221   2.773  12.486  14.733
93962W        W59222  28.776  11.096  12.436
93963W        W59223   5.401   8.323   3.256
93964W        W59224   1.837  18.544   0.723
93965W        W59225   3.826  26.610  12.501
93966W        W59226  20.680  12.714  13.042
93967W        W59227  27.260   9.215  10.727
93968W        W59228  34.556  13.593  12.572
93969W        W59229   4.854   3.859  10.607
93970W        W59230  13.559  30.898  12.013
93971W        W59231  28.973   2.875  10.930
93972W        W59232   8.108  24.623   3.685
93973W        W59233  16.743  33.413   1.313
93974W        W59234  14.286  34.421  13.331
93975W        W59235   5.422  31.618  11.972
93976W        W59236  37.300  21.747  14.898
93977W        W59237  19.170  41.884  13.038
93978W        W59238   6.926  12.454   0.151
93979W        W59239  21.308  12.116   2.444
93980W        W59240  26.086  19.324  10.416
93981W        W59241  16.068   4.412  13.004
93982W        W59242  44.979   0.396  12.721
93983W        W59243  36.631   3.324  14.613
93984W        W59244  16.844  37.334  13.857
93985W        W59245   6.677  11.961   1.701
93986W        W59246   3.473  26.449  10.365
93987W        W59247   4.904  23.756  11.180
93988W        W59248  24.063  20.297   4.168
93989W        W59249   3.317  30.512  14.556
93990W        W59250  11.577  41.471  11.029
93991W        W59251  20.204  14.894   0.025
93992W        W59252  36.919  44.829   4.686
93993W        W59253  28.599  22.300  12.071
93994W        W59254  15.526  37.693   3.377
93995W        W59255  33.641  38.298   0.022
93996W        W59256  14.035   4.512   4.264
93997W        W59257  43.855   0.240  13.900
93998W        W59258  34.108  27.193  14.409
93999W        W59259  12.318  30.842  14.815
94000W        W59260  21.923  42.599  12.021
94001W        W59261  41.770  39.467   3.322
94002W        W59262  11.957  27.479   5.255
94003W        W59263   9.099  23.157  13.810
94004W        W59264  33.770  14.147  14.434
94005W        W59265  36.344   0.236   0.940
94006W        W59266  27.536  34.171  14.489
94007W        W59267  34.365  31.563   4.459
94008W        W59268  31.371  21.771  12.406
94009W        W59269  13.697  20.785  11.890
94010W        W59270  25.493  30.759  14.876
94011W        W59271  14.608  14.319   5.192
94012W        W59272  10.678  39.847  14.321
94013W        W59273  27.671  33.951  12.890
94014W        W59274  19.804  29.099   4.658
94015W        W59275  37.294  41.669   4.985
94016W        W59276  35.852  16.448  12.053
94017W        W59277  43.508   8.095  14.429
94018W        W59278  31.560   8.145  11.209
94019W        W59279   2.924  36.846   3.465
94020W        W59280  17.263   0.465  13.486
94021W        W59281  19.907   7.392   0.511
94022W        W59282   0.719  38.315  11.650
94023W        W59283  29.194  33.395  10.689
94024W        W59284   6.421   3.753   4.030
94025W        W59285  26.232  31.493   3.508
94026W        W59286  16.871  21.625   2.136
94027W        W59287  16.085  25.801  14.876
94028W        W59288  35.356  10.342   4.031
94029W        W59289  19.138  44.670   3.705
94030W        W59290  23.239  13.744   1.369
94031W        W59291  22.717  17.148   0.688
94032W        W59292  18.733  15.699   0.479
94033W        W59293  41.893   5.690  11.131
94034W        W59294   4.829  32.593   0.382
94035W        W59295  31.390  24.804   5.607
94036W        W59296  18.751  30.617  12.456
94037W        W59297   1.982  41.818  12.488
94038W        W59298   2.900   6.892   0.811
94039W        W59299  36.915  17.259  11.726
94040W        W59300  15.739  40.461   0.855
94041W        W59301   4.209   7.001  12.213
94042W        W59302  41.219  15.306   0.771
94043W        W59303  37.165   0.580  10.753
94044W        W59304  23.484  17.710  10.614
94045W        W59305   7.626  22.178  12.896
94046W        W59306   0.994  40.525  13.896
94047W        W59307   8.114   1.838  11.501
94048W        W59308  38.906   4.731   4.752
94049W        W59309   1.938  39.359   0.342
94050W        W59310  17.584   1.054   1.044
94051W        W59311  15.839  25.845   1.651
94052W        W59312  34.000  24.650   4.057
94053W        W59313  10.495  13.172   1.784
94054W        W59314  34.528  29.035   0.264
94055W        W59315  24.046  15.494  10.702
94056W        W59316  29.139  11.680   0.601
94057W        W59317  10.116   8.477   3.954
94058W        W59318  30.584  40.806   0.322
94059W        W59319  17.707   0.297   3.408
94060W        W59320  12.086  32.113  11.242
94061W        W59321   5.499  28.661  12.967
94062W        W59322  43.032   7.761  10.670
94063W        W59323  11.142   4.269   3.648
94064W        W59324  32.159   4.725   0.896
94065W        W59325  34.641  31.116  12.450
94066W        W59326  22.220   7.524   0.421
94067W        W59327   7.918   1.742   0.712
94068W        W59328   7.921  19.297  14.989
94069W        W59329  42.363  36.913   0.762
94070W        W59330  17.993  11.820  11.640
94071W        W59331   8.292  43.993  11.219
94072W        W59332  35.422   5.675   0.841
94073W        W59333  33.994  30.429  11.568
94074W        W59334  11.122  23.922  11.700
94075W        W59335  21.131  24.986   1.036
94076W        W59336  30.467   1.883  13.783
94077W        W59337  36.992   9.325  13.156
94078W        W59338  20.593   0.465  11.678
94079W        W59339  33.103  33.798   2.300
94080W        W59340  37.409  10.748  12.897
94081W        W59341   2.843   9.119   1.308
94082W        W59342   8.632  15.279   4.628
94083W        W59343  27.123  12.590   0.163
94084W        W59344  10.147  32.078   3.228
94085W        W59345  15.153  21.566   4.078
94086W        W59346  14.438   3.292  10.206
94087W        W59347  11.599  30.360  14.300
94088W        W59348   9.514  19.689  14.464
94089W        W59349  34.647   2.475  14.287
94090W        W59350  35.867   6.349   4.264
94091W        W59351  29.598  16.645  13.561
94092W        W59352  28.453  29.036  13.023
94093W        W59353  25.220  25.888  13.445
94094W        W59354   6.913  23.099  12.149
94095W        W59355  39.828  20.082   1.135
94096W        W59356  19.243   7.943   1.013
94097W        W59357  28.554  28.851   4.601
94098W        W59358  23.194  24.956  12.988
94099W        W59359  29.514  28.015  12.460
94100W        W59360   7.214  40.381  11.658
94101W        W59361  28.903   6.869  10.776
94102W        W59362  26.977   8.879   3.362
94103W        W59363  18.287  12.786  11.223
94104W        W59364  20.699  29.888  12.442
94105W        W59365   1.195  31.463   2.281
94106W        W59366  32.921   9.809  10.720
94107W        W59367   8.124  18.323   4.530
94108W        W59368  14.716   4.863   1.200
94109W        W59369  11.216  18.802  13.809
94110W        W59370  21.839  26.734   3.571
94111W        W59371  44.284  44.984   2.769
94112W        W59372  38.316   3.105  14.429
94113W        W59373   9.776  43.421  10.780
94114W        W59374  10.802  42.508  11.291
94115W        W59375  10.880  13.082   1.459
94116W        W59376  32.170  37.308   3.195
94117W        W59377  12.280  19.173  14.366
94118W        W59378  23.557  42.994   9.830
94119W        W59379   8.765  41.881   2.337
94120W        W59380  42.002  23.586   2.400
94121W        W59381  10.079  21.557  14.148
94122W        W59382  22.039  25.641   1.795
94123W        W59383   5.689  11.362   2.294
94124W        W59384  30.023  30.094   4.608
94125W        W59385  17.702  13.121   1.160
94126W        W59386  36.438  14.652   1.737
94127W        W59387  37.136  23.010  14.468
94128W        W59388   0.259   7.832   0.691
94129W        W59389   5.071  16.959  14.909
94130W        W59390  10.752  37.953  10.680
94131W        W59391  23.513  37.824   2.345
94132W        W59392   8.371  14.385   3.181
94133W        W59393  33.326   0.981  11.191
94134W        W59394  12.917  10.770  11.254
94135W        W59395  40.972  42.499  11.174
94136W        W59396   4.471  43.035  11.935
94137W        W59397  20.726  12.165   0.437
94138W        W59398  39.550  19.604  14.781
94139W        W59399  29.421  13.287   4.967
94140W        W59400  19.519   5.755  13.857
94141W        W59401  10.355  18.803   1.236
94142W        W59402  30.799  24.574   1.827
94143W        W59403  38.411  15.695  14.031
94144W        W59404  30.350  37.762   2.872
94145W        W59405  13.783   0.983   0.826
94146W        W59406  35.389  11.814  13.140
94147W        W59407  15.205  21.202  13.034
94148W        W59408  23.656   1.872  12.766
94149W        W59409  26.197   0.922   1.704
94150W        W59410  11.700  12.992  10.659
94151W        W59411  27.216  19.210   2.237
94152W        W59412  24.566  12.293  12.856
94153W        W59413  14.407  34.851   3.149
94154W        W59414  43.925  36.416  13.096
94155W        W59415  25.012  23.764   4.605
94156W        W59416  37.029  29.312  12.410
94157W        W59417  27.669   2.223   0.179
94158W        W59418  23.447  24.752  14.504
94159W        W59419   9.079  16.536   2.776
94160W        W59420   5.389   6.059   1.065
94161W        W59421  17.560   2.760  12.096
94162W        W59422  41.521  12.174  13.894
94163W        W59423  20.846  17.504  13.101
94164W        W59424  39.865  37.325  11.915
94165W        W59425  41.937  13.097   1.371
94166W        W59426   3.849  21.192  13.713
94167W        W59427  22.207  41.704  11.938
94168W        W59428  16.719  26.146   4.543
94169W        W59429  36.530  22.494  14.982
94170W        W59430  37.610   2.809   4.291
94171W        W59431  43.801  17.618  13.272
94172W        W59432   5.253  16.827   2.896
94173W        W59433  37.907  32.999  14.933
94174W        W59434  26.864   6.724   4.320
94175W        W59435  31.409  39.807  14.014
94176W        W59436  30.828  38.568   1.805
94177W        W59437  29.472  44.377  11.098
94178W        W59438   0.760  27.495  11.628
94179W        W59439  31.972  36.020   1.401
94180W        W59440  37.505   8.676  12.024
94181W        W59441  44.552   5.807  14.858
94182W        W59442   6.637  16.667   2.190
94183W        W59443  34.562  16.676  14.511
94184W        W59444  33.888  11.620   2.009
94185W        W59445  34.021  37.035  11.159
94186W        W59446  36.923  11.883   2.745
94187W        W59447  44.072  15.688  13.531
94188W        W59448  40.620  31.976  13.884
94189W        W59449  37.476  17.850   1.947
94190W        W59450  30.769  22.265  13.004
94191W        W59451  27.082  15.175   4.043
94192W        W59452  17.563   0.053   4.884
94193W        W59453  33.932   7.191  10.714
94194W        W59454  38.205  26.968   3.622
94195W        W59455   3.620  23.153   2.766
94196W        W59456  16.613  40.387   0.414
94197W        W59457   0.670  19.249   1.846
94198W        W59458  18.296  24.917  14.825
94199W        W59459   0.680  27.321  12.109
94200W        W59460  24.151  17.342  12.888
94201W        W59461  22.881   7.353  11.130
94202W        W59462   6.152  10.676  11.049
94203W        W59463  20.982  37.517  11.524
94204W        W59464  42.338   8.825   1.877
94205W        W59465  12.308   7.766  14.203
94206W        W59466  13.467  44.024  11.130
94207W        W59467  21.325  16.232   0.826
94208W        W59468   5.816  39.424  12.645
94209W        W59469  44.527  18.556  12.368
94210W        W59470   1.134  29.335  14.559
94211W        W59471   7.225   3.508  11.632
94212W        W59472   0.640  17.260  12.860
94213W        W59473  18.207   6.489  13.323
94214W        W59474   9.880   7.831   0.945
94215W        W59475  34.917  34.935  11.462
94216W        W59476  38.157   6.622   1.608
94217W        W59477  32.957  24.764   4.568
94218W        W59478  39.835  10.975   0.427
94219W        W59479  32.020  10.381  14.492
94220W        W59480  44.167  42.262   4.861
94221W        W59481  27.510  35.777   4.382
94222W        W59482   7.369  29.881   1.299
94223W        W59483   2.861  27.931  13.574
94224W        W59484   6.825  32.451  14.496
94225W        W59485   4.340  23.629   4.140
94226W        W59486  33.058  16.298   0.897
94227W        W59487  42.094   0.006   3.784
94228W        W59488  39.915  44.447   1.830
94229W        W59489  34.404  27.696   2.131
94230W        W59490   3.728   1.216  12.890
94231W        W59491   2.305  11.445  10.638
94232W        W59492  21.624  32.063  14.033
94233W        W59493   7.653  24.545   1.257
94234W        W59494  15.229  10.697  14.550
94235W        W59495   5.198  31.592  11.032
94236W        W59496   5.976  24.563  13.940
94237W        W59497  35.155  39.799   2.199
94238W        W59498  15.920   6.780   4.777
94239W        W59499  36.955  16.342  11.640
94240W        W59500  43.337   3.175  11.534
94241W        W59501  17.296  36.893   3.188
94242W        W59502  11.643   8.928  11.575
94243W        W59503  24.687  11.824  13.030
94244W        W59504  21.460  17.629   2.407
94245W        W59505  19.617  38.415  13.967
94246W        W59506  27.585  12.331   0.327
94247W        W59507  41.329  27.582   2.815
94248W        W59508  37.944   9.424  13.201
94249W        W59509  21.507   2.796   3.860
94250W        W59510  24.817  18.296   2.886
94251W        W59511  38.930  27.167   0.767
94252W        W59512  31.429  32.201  13.777
94253W        W59513   4.807  22.781  13.146
94254W        W59514  13.902   3.433  14.896
94255W        W59515  31.845  31.522  12.877
94256W        W59516   2.781  14.460  13.188
94257W        W59517  33.099  40.334  14.734
94258W        W59518   3.577  18.656   5.166
94259W        W59519  37.972  31.591   2.883
94260W        W59520  22.144  31.311   2.478
94261W        W59521  38.855  18.164  13.950
94262W        W59522   7.405  19.720   2.155
94263W        W59523   7.881  11.549  14.288
94264W        W59524  32.152  42.109   3.193
94265W        W59525  33.409  15.745  11.971
94266W        W59526  17.181  13.993   4.551
94267W        W59527   4.662   6.262  12.932
94268W        W59528  35.580  36.048   0.417
94269W        W59529   1.840   7.658   2.866
94270W        W59530  36.706  43.007  10.295
94271W        W59531  15.561  34.046   2.757
94272W        W59532  17.595  44.433   3.090
94273W        W59533  13.605  27.151   3.914
94274W        W59534  30.035  18.714  10.761
94275W        W59535   3.181  33.591  11.063
94276W        W59536  14.669  21.051   4.633
94277W        W59537   8.662  27.158   0.817
94278W        W59538  34.990  17.673   1.208
94279W        W59539  35.265  25.907   5.545
94280W        W59540  40.227  35.360  12.140
94281W        W59541  11.788  37.155  10.383
94282W        W59542  37.363  44.987   1.661
94283W        W59543  22.790   0.049  14.442
94284W        W59544  42.507  13.914  11.272
94285W        W59545  21.489  41.305   3.206
94286W        W59546  36.514  14.663  14.808
94287W        W59547  37.603  27.627  10.638
94288W        W59548  15.247  23.111   2.850
94289W        W59549  43.836  26.595   4.750
94290W        W59550  40.095  28.311  13.285
94291W        W59551  29.204   7.872   2.310
94292W        W59552  24.927  10.216   3.415
94293W        W59553  36.338  22.759   3.271
94294W        W59554  43.440  30.613   1.648
94295W        W59555  32.680  23.839   0.364
94296W        W59556  15.506  26.147  10.895
94297W        W59557   1.934   4.407   4.644
94298W        W59558   3.337   3.359  12.623
94299W        W59559  18.811   5.085  12.813
94300W        W59560  22.484  31.159  13.425
94301W        W59561   2.172  18.897   1.909
94302W        W59562  37.521   2.404   1.241
94303W        W59563  35.385  42.558  10.900
94304W        W59564  24.108  17.114  11.534
94305W        W59565  40.765  31.203   0.059
94306W        W59566  11.168   3.997  14.860
94307W        W59567  27.938  11.263  12.078
94308W        W59568  27.237  43.418   1.785
94309W        W59569  38.729  12.343  12.522
94310W        W59570  18.155  41.370   4.424
94311W        W59571  36.541  13.798   3.725
94312W        W59572  26.930  14.685   4.123
94313W        W59573  35.506  32.682   4.282
94314W        W59574   4.960  14.935  13.302
94315W        W59575   7.226  15.322  12.162
94316W        W59576   1.212  38.439  14.499
94317W        W59577  38.858  13.108   2.348
94318W        W59578  13.921  23.299  13.777
94319W        W59579  27.802  41.674  14.301
94320W        W59580  34.863  13.643  13.917
94321W        W59581  31.944  25.705   1.765
94322W        W59582  10.267  25.125  10.676
94323W        W59583  42.051  25.574   2.682
94324W        W59584   6.351  40.554  11.645
94325W        W59585  44.206  16.822  13.449
94326W        W59586  44.509   0.541  11.288
94327W        W59587  21.997   6.414  14.488
94328W        W59588  17.318  35.463  11.832
94329W        W59589   9.311  23.956  11.018
94330W        W59590   6.951   5.452  13.835
94331W        W59591   5.598  35.856   1.004
94332W        W59592  17.131  33.095   2.015
94333W        W59593  22.606  26.901   1.880
94334W        W59594  13.646  11.269   0.972
94335W        W59595  29.131  15.382   0.480
94336W        W59596  41.813   1.306   4.799
94337W        W59597  13.200  35.057  10.949
94338W        W59598  12.659  15.351  12.564
94339W        W59599  21.506  11.031   0.971
94340W        W59600   0.312  18.017   0.772
94341W        W59601  39.731  38.080  11.503
94342W        W59602  18.089  39.575  14.085
94343W        W59603  24.443  41.380  13.889
94344W        W59604  39.638   9.049   1.332
94345W        W59605  36.966  43.778  14.459
94346W        W59606  29.162   4.683   2.892
94347W        W59607   1.365  37.914  11.434
94348W        W59608  25.564   7.660   2.120
94349W        W59609   9.652  15.246   0.894
94350W        W59610  32.407  36.170   4.087
94351W        W59611  36.827  42.869   4.028
94352W        W59612  16.096  25.385  13.386
94353W        W59613  25.300   0.529  13.071
94354W        W59614  42.273  34.075   1.228
94355W        W59615  28.751  36.481   2.901
94356W        W59616  22.713   4.180  13.999
94357W        W59617  26.298  21.772   4.557
94358W        W59618  11.411  27.571  11.537
94359W        W59619  34.569  37.963   0.181
94360W        W59620   9.644  15.201   4.623
94361W        W59621  29.099  37.339  14.910
94362W        W59622  27.681   8.323  11.643
94363W        W59623   5.292  24.836   0.792
94364W        W59624  35.431  39.414  14.683
94365W        W59625  23.628   3.468  11.362
94366W        W59626   1.149  17.126  13.291
94367W        W59627  11.732  43.454  14.445
94368W        W59628  25.134  19.233   0.771
94369W        W59629  39.036  20.553   4.507
94370W        W59630  30.930  18.738   1.273
94371W        W59631  39.014  29.921  11.094
94372W        W59632  11.524  11.842   3.289
94373W        W59633  34.325  14.186  11.087
94374W        W59634   8.644   9.610  13.066
94375W        W59635  12.246   0.739  12.477
94376W        W59636  21.306  42.083  10.720
94377W        W59637  24.833   7.302  14.545
94378W        W59638  30.187  30.985   1.233
94379W        W59639   3.472  41.852   1.292
94380W        W59640  16.532  28.214  10.866
94381W        W59641  25.562  36.522   2.319
94382W        W59642  38.877  31.713   3.592
94383W        W59643   3.901   1.848   4.833
94384W        W59644  42.374  34.909  13.557
94385W        W59645  15.345  11.401  13.043
94386W        W59646  43.273  22.204  13.054
94387W        W59647  25.495   8.470  11.036
94388W        W59648  34.579  41.043   4.877
94389W        W59649   5.205  41.539  13.996
94390W        W59650   2.508  32.164  11.272
94391W        W59651  44.879   4.253   3.127
94392W        W59652  29.016  43.943   2.857
94393W        W59653  23.230   1.319   1.852
94394W        W59654  22.049   8.429   1.693
94395W        W59655  28.181  28.496   4.202
94396W        W59656  25.864   0.825  10.263
94397W        W59657  40.185   7.946  11.481
94398W        W59658   7.090  26.062  10.596
94399W        W59659  35.324  34.002   2.395
94400W        W59660  23.233  39.413   2.341
94401W        W59661  28.246  13.747  12.596
94402W        W59662  34.199  32.531   4.433
94403W        W59663  34.297  13.107  12.567
94404W        W59664  33.262  37.110   2.418
94405W        W59665  33.898  27.541   0.398
94406W        W59666  21.172  28.381   0.024
94407W        W59667  39.059  44.025  14.168
94408W        W59668  30.443   7.252  13.029
94409W        W59669  25.295   9.800  10.951
94410W        W59670  39.890  11.714  10.202
94411W        W59671   1.864   0.490  13.534
94412W        W59672  33.852   3.200  11.413
94413W        W59673  35.797  24.511  10.252
94414W        W59674  33.894  23.091   1.411
94415W        W59675  34.038  28.429   1.470
94416W        W59676  25.083  24.812   1.768
94417W        W59677   7.124  16.702   4.112
94418W        W59678  31.373   2.757   0.291
94419W        W59679  16.722  36.467  13.101
94420W        W59680  10.322  21.595   2.693
94421W        W59681  11.746  25.793  11.109
94422W        W59682   7.203  18.680  12.069
94423W        W59683   9.199  15.404  12.393
94424W        W59684  34.591  40.228  13.328
94425W        W59685  24.582  19.923   4.062
94426W        W59686  34.117  32.170   3.197
94427W        W59687  44.708  26.853   0.586
94428W        W59688  26.723  27.063  13.852
94429W        W59689  14.335  29.983   3.946
94430W        W59690   4.409  16.980  13.860
94431W        W59691   5.796  23.235   1.653
94432W        W59692  32.216   7.763   4.607
94433W        W59693   5.375  31.593   0.225
94434W        W59694  31.109  27.916   2.303
94435W        W59695   3.526  35.630  11.109
94436W        W59696  22.521  10.001   4.151
94437W        W59697  25.266   6.904  11.424
94438W        W59698  35.545  16.480  12.458
94439W        W59699  29.613  36.460   2.193
94440W        W59700  42.122  41.938   3.812
94441W        W59701   2.488  44.068  11.940
94442W        W59702  33.576   8.078  13.852
94443W        W59703  21.356  25.313   3.800
94444W        W59704  10.524  10.622  10.858
94445W        W59705   8.714  41.435  10.597
94446W        W59706  28.029   4.756  13.523
94447W        W59707  29.068   4.553  14.786
94448W        W59708  36.594  17.321   0.737
94449W        W59709   4.578  36.917  10.823
94450W        W59710   0.686   8.240  13.573
94451W        W59711  16.118   7.209  12.012
94452W        W59712   0.777  21.441   4.170
94453W        W59713   5.252  39.860   4.517
94454W        W59714   4.402  28.582   2.280
94455W        W59715  16.577  44.756  14.351
94456W        W59716  12.217  17.013  11.957
94457W        W59717  22.714   0.589   0.450
94458W        W59718  19.944  41.433   3.970
94459W        W59719  15.041  13.911   1.886
94460W        W59720  43.984  40.174   1.426
94461W        W59721  10.114   8.359  10.164
94462W        W59722  44.292  18.199   2.365
94463W        W59723  18.954  38.073   4.205
94464W        W59724  23.455  33.600  13.067
94465W        W59725   2.766  28.435   4.597
94466W        W59726  39.301   9.432   3.706
94467W        W59727  38.307  27.897  13.482
94468W        W59728  40.300  21.495  13.015
94469W        W59729  35.045  28.409  14.323
94470W        W59730  21.483   4.895  13.697
94471W        W59731  40.520  25.987   0.941
94472W        W59732   1.419  27.007   0.950
94473W        W59733  44.058  30.012   2.286
94474W        W59734  44.478  33.136   0.209
94475W        W59735   2.429  30.350   3.757
94476W        W59736   4.900  43.417   1.748
94477W        W59737  39.505  14.146   0.198
94478W        W59738  30.179  24.964  10.734
94479W        W59739  38.772  32.472   0.034
94480W        W59740  16.115  41.597   3.612
94481W        W59741  24.114  15.729   1.311
94482W        W59742  28.978  20.058   4.490
94483W        W59743  35.521   1.498  13.751
94484W        W59744  29.381  20.643  11.201
94485W        W59745  13.332   8.201  14.866
94486W        W59746   1.948  18.110   2.649
94487W        W59747  35.036  17.986   2.445
94488W        W59748  12.427  32.498  11.161
94489W        W59749  19.173  23.634   4.684
94490W        W59750  25.293  21.970   4.648
94491W        W59751   1.368   4.937  11.025
94492W        W59752  13.699  44.381  11.645
94493W        W59753  31.611  27.205   4.315
94494W        W59754  41.267  38.535   1.738
94495W        W59755  20.572  37.844  11.397
94496W        W59756   8.301  13.564  13.062
94497W        W59757  17.276  10.326  13.601
94498W        W59758  11.318  33.830   1.698
94499W        W59759  11.456   7.322  12.535
94500W        W59760   9.186   8.495   4.755
94501W        W59761   1.251  13.283   3.604
94502W        W59762   7.680  14.361  13.856
94503W        W59763   6.274  13.906   3.172
94504W        W59764  37.634   2.426   3.573
94505W        W59765  32.346  30.394   1.432
94506W        W59766   9.439  30.578  11.567
94507W        W59767  26.004   5.700  13.891
94508W        W59768   1.050  22.266   3.265
94509W        W59769  34.470  14.786  11.761
94510W        W59770   7.515   3.491  11.203
94511W        W59771  22.572  22.612  10.465
94512W        W59772  27.193  44.929   4.337
94513W        W59773   2.839  20.493  14.864
94514W        W59774   7.674  39.924   2.168
94515W        W59775  12.550  27.040  13.962
94516W        W59776  37.943  43.858  13.527
94517W        W59777  12.213  12.708  14.482
94518W        W59778  27.448  17.681   1.423
94519W        W59779   1.317  26.460  10.166
94520W        W59780   4.747  27.679   4.598
94521W        W59781  24.574  21.213  10.743
94522W        W59782  34.940  10.373   1.900
94523W        W59783  25.686  42.862  12.906
94524W        W59784  11.764  39.499   4.715
94525W        W59785  10.869  39.458   2.589
94526W        W59786   2.496  15.201   1.271
94527W        W59787  26.172   5.966  13.452
94528W        W59788  36.651  22.288   0.434
94529W        W59789  25.974  35.483  13.517
94530W        W59790  19.311  38.460  13.575
94531W        W59791  20.709  11.091  11.122
94532W        W59792  27.847  11.188   0.806
94533W        W59793  39.973  33.703  14.292
94534W        W59794  17.628  23.017  14.769
94535W        W59795  10.596  37.559   4.467
94536W        W59796   9.153  29.629  14.192
94537W        W59797  15.804  16.066   3.188
94538W        W59798   3.295  18.558   1.909
94539W        W59799   7.885  14.112  13.421
94540W        W59800  11.958  21.677  14.811
94541W        W59801  15.810  35.855   4.493
94542W        W59802  24.618  14.834  10.715
94543W        W59803  28.405  15.986   1.237
94544W        W59804   8.044  24.336  12.426
94545W        W59805  37.288  13.632  10.644
94546W        W59806  37.869  23.209   4.510
94547W        W59807  38.910  36.807   4.399
94548W        W59808   8.246  16.655   1.455
94549W        W59809  36.456  37.965   2.247
94550W        W59810  38.369  43.271  10.638
94551W        W59811  15.057  40.771   2.960
94552W        W59812   4.903   6.766   0.974
94553W        W59813  32.367  25.143   1.405
94554W        W59814  23.068  34.905  11.633
94555W        W59815   1.702   3.424   2.893
94556W        W59816  36.578  36.369   1.724
94557W        W59817  43.994  19.633  12.889
94558W        W59818  39.445  44.156   3.317
94559W        W59819   8.153  41.591   1.534
94560W        W59820  22.697  34.115  14.781
94561W        W59821  15.309  35.349  10.729
94562W        W59822  27.681  29.432   0.875
94563W        W59823  40.498  27.185   4.102
94564W        W59824   2.791  41.930  13.301
94565W        W59825  32.913  20.116  13.405
94566W        W59826  11.758  13.156  12.364
94567W        W59827  23.066  29.893  14.080
94568W        W59828  33.134  11.286   0.354
94569W        W59829  31.192  33.020  13.391
94570W        W59830  20.326  15.158  13.910
94571W        W59831  12.259  20.851   4.084
94572W        W59832  32.445  30.788  13.837
94573W        W59833  21.561  18.750   0.925
94574W        W59834  32.480   8.669  10.780
94575W        W59835  21.795  24.634  12.032
94576W        W59836   4.209   5.372   4.076
94577W        W59837  30.924  29.413   2.262
94578W        W59838   9.335  13.808   0.767
94579W        W59839  38.390  20.453   2.339
94580W        W59840  19.590   0.253  12.953
94581W        W59841  21.007  35.382  11.986
94582W        W59842  34.102  38.845   2.318
94583W        W59843   4.866  32.358   3.959
94584W        W59844  42.299  27.340   2.709
94585W        W59845  26.571  33.141  11.298
94586W        W59846  22.889  27.353   4.102
94587W        W59847  43.035  33.114  12.981
94588W        W59848  20.927  26.068   4.271
94589W        W59849  35.011   1.715  13.798
94590W        W59850   8.621  37.990   4.576
94591W        W59851  35.684  19.672   3.564
94592W        W59852  23.714   9.635   3.388
94593W        W59853  19.171  44.510   4.557
94594W        W59854  14.089   5.927   2.656
94595W        W59855  28.945  39.999   3.057
94596W        W59856  19.592  40.150  10.781
94597W        W59857  43.078  30.492   2.005
94598W        W59858  26.563  36.831   0.499
94599W        W59859  13.644  30.670   3.862
94600W        W59860   4.938  12.605  11.438
94601W        W59861  35.072  10.624   2.345
94602W        W59862   3.649  42.132  12.991
94603W        W59863  35.159   5.473  14.542
94604W        W59864  23.203  11.100  12.646
94605W        W59865  23.643  29.906  12.018
94606W        W59866  17.793  37.202  11.557
94607W        W59867  26.056  31.841   2.087
94608W        W59868   6.254  21.696   1.744
94609W        W59869  28.397  16.393  13.987
94610W        W59870  12.277   3.443   9.854
94611W        W59871   1.538  25.211  12.404
94612W        W59872  25.887  27.482  11.140
94613W        W59873  35.078  26.339   1.231
94614W        W59874  17.599  15.583   1.573
94615W        W59875   1.366  32.071   0.816
94616W        W59876  32.368   6.664   4.184
94617W        W59877  24.782  17.206  10.384
94618W        W59878   3.122  23.756   3.414
94619W        W59879  43.882  40.914   3.087
94620W        W59880  41.585  26.167  11.155
94621W        W59881  29.146  18.262  13.940
94622W        W59882  14.318   0.876  11.696
94623W        W59883  42.410   4.176  13.014
94624W        W59884  29.578   5.634  14.006
94625W        W59885  13.600   0.845  10.709
94626W        W59886  26.933  20.774   4.151
94627W        W59887  29.390   8.357   0.478
94628W        W59888  12.897  31.129  13.032
94629W        W59889  20.566   1.256  12.095
94630W        W59890  36.069  11.315   2.683
94631W        W59891  41.882  16.298  10.715
94632W        W59892  36.512   8.303   4.892
94633W        W59893  12.641  14.162  14.782
94634W        W59894   7.135  23.915   1.944
94635W        W59895  33.167   4.694  12.672
94636W        W59896  42.458   7.847  14.783
94637W        W59897  27.444  14.296  14.887
94638W        W59898  15.462  18.062  11.444
94639W        W59899  24.655  34.416  14.075
94640W        W59900  41.946  35.482   4.462
94641W        W59901  30.186  10.733  11.842
94642W        W59902   1.210  28.930   1.217
94643W        W59903  12.556   1.508  14.699
94644W        W59904  17.851  25.654   3.997
94645W        W59905  36.870  30.757  10.514
94646W        W59906  15.462  16.632  12.157
94647W        W59907   7.806  26.240   0.970
94648W        W59908  18.738   6.470   2.769
94649W        W59909  28.656   4.222   4.101
94650W        W59910  19.681   2.214   2.142
94651W        W59911  17.837   6.454   1.850
94652W        W59912  35.231   4.425  14.583
94653W        W59913  17.495  38.803   1.396
94654W        W59914  32.382  30.103   4.585
94655W        W59915  22.394   7.774  12.361
94656W        W59916  21.101  31.449  13.621
94657W        W59917  30.679  12.868  12.055
94658W        W59918   6.845  39.279  13.067
94659W        W59919  21.010  19.265   5.559
94660W        W59920  19.842  43.130  13.377
94661W        W59921   2.452  39.855   3.753
94662W        W59922   5.206  24.468  11.970
94663W        W59923   8.267  41.747  13.399
94664W        W59924  39.131   7.140  13.011
94665W        W59925   5.319  32.808  11.551
94666W        W59926  38.481  40.856   2.333
94667W        W59927  30.827  37.133   3.276
94668W        W59928  17.705  40.776   3.144
94669W        W59929  31.920   7.744  12.076
94670W        W59930  30.118  30.279   2.783
94671W        W59931  43.909  36.346  13.979
94672W        W59932  37.968  23.602  14.224
94673W        W59933  15.756  40.355  12.981
94674W        W59934  41.007  37.033  11.552
94675W        W59935  10.270  29.342  14.324
94676W        W59936  30.081  30.926   2.205
94677W        W59937  10.707  35.946  14.430
94678W        W59938   4.956  25.682   2.816
94679W        W59939  40.528  18.749  12.530
94680W        W59940  25.201  22.158   0.401
94681W        W59941  26.138  43.860   2.749
94682W        W59942  25.311   4.100  11.702
94683W        W59943  25.520   1.722  14.832
94684W        W59944   4.684  43.573   9.992
94685W        W59945  14.411   0.412  10.795
94686W        W59946  13.760  12.642   4.620
94687W        W59947  37.883  34.348   2.931
94688W        W59948  44.993  22.702   3.966
94689W        W59949  29.362  28.069  13.776
94690W        W59950  34.527   7.875  13.581
94691W        W59951  15.508  38.547  12.830
94692W        W59952   6.408  17.952  13.928
94693W        W59953  42.776   0.662   1.691
94694W        W59954  39.604   9.344  14.016
94695W        W59955  21.810  12.087   2.620
94696W        W59956  40.427  28.891   0.859
94697W        W59957   4.366  41.616   3.144
94698W        W59958  27.188   8.881  12.875
94699W        W59959  37.448  21.730  10.731
94700W        W59960  32.677  31.586   3.263
94701W        W59961  20.696   3.715   1.597
94702W        W59962  41.024  15.571  12.147
94703W        W59963   8.713  34.061   0.276
94704W        W59964   9.918   1.283   3.166
94705W        W59965  44.214  15.545  11.620
94706W        W59966   4.758  30.365  10.648
94707W        W59967  40.897  20.094   0.262
94708W        W59968  15.924  11.114  11.892
94709W        W59969  43.375  18.967  14.369
94710W        W59970  23.579  32.579  12.475
94711W        W59971  12.300  28.142  13.030
94712W        W59972  34.383   0.129   2.874
94713W        W59973  19.230  42.086  12.094
94714W        W59974  28.743  11.730  12.013
94715W        W59975  39.039  41.831   3.565
94716W        W59976  19.726   0.407  10.678
94717W        W59977   2.364  19.905   2.774
94718W        W59978  23.732   5.282   2.745
94719W        W59979   1.245  43.493  13.040
94720W        W59980  35.379  43.425  11.458
94721W        W59981  20.577  36.540   4.611
94722W        W59982  34.868  25.039  14.732
94723W        W59983  42.615   1.231  14.898
94724W        W59984   0.521  35.141  11.814
94725W        W59985  24.020  13.173  14.061
94726W        W59986  41.291  34.023   0.963
94727W        W59987  22.743  18.080   0.749
94728W        W59988  31.407  14.796  11.562
94729W        W59989  22.996  20.390  13.771
94730W        W59990  26.140  20.184   2.930
94731W        W59991  19.687  17.125   0.391
94732W        W59992   3.818  27.072  14.058
94733W        W59993  13.312  16.546   2.323
94734W        W59994  23.241  17.361   1.266
94735W        W59995  22.750  18.495   9.926
94736W        W59996  10.826  34.510   1.180
94737W        W59997   3.628  34.114  14.547
94738W        W59998  13.886  25.795  14.010
94739W        W59999  13.823  12.914   1.360
94740W        W60000   5.012  41.077   3.643
94741W        W60001  15.176  11.570  11.710
94742W        W60002   3.112   3.663  12.275
94743W        W60003   7.676  22.585  12.054
94744W        W60004  42.514  10.822   0.475
94745W        W60005   4.465  42.048  11.827
94746W        W60006  25.403  27.574  12.078
94747W        W60007  23.081   4.378   0.161
94748W        W60008  27.419  23.290   2.719
94749W        W60009  24.253  16.710   1.870
94750W        W60010   2.707  33.632  12.399
94751W        W60011   1.001  23.956  14.297
94752W        W60012  33.521   4.932  13.903
94753W        W60013   9.739  28.608   1.375
94754W        W60014   2.787  29.939  10.775
94755W        W60015  13.158  37.457   1.199
94756W        W60016  37.653  12.600  13.253
94757W        W60017  40.762  21.651   1.702
94758W        W60018  21.574  41.022   0.126
94759W        W60019  15.313  10.375   1.915
94760W        W60020  41.083  37.390   3.632
94761W        W60021  21.145  13.294   0.817
94762W        W60022  21.205  22.357  14.010
94763W        W60023   6.397  43.783   1.201
94764W        W60024  19.735  24.053   5.009
94765W        W60025  36.486   0.015   4.486
94766W        W60026  25.187  37.491  11.400
94767W        W60027  25.126  16.987  10.051
94768W        W60028  12.662  27.995  10.657
94769W        W60029  11.648   2.396   3.955
94770W        W60030  20.811  27.503  14.836
94771W        W60031  35.027   5.229   3.854
94772W        W60032  25.178  24.091   3.846
94773W        W60033  35.939  31.010  14.863
94774W        W60034  26.346  17.830  14.725
94775W        W60035  29.117   3.977   4.102
94776W        W60036   0.745  25.611   0.938
94777W        W60037  26.518  16.055   4.272
94778W        W60038  25.031  24.695   0.876
94779W        W60039  33.168  11.768  12.550
94780W        W60040  11.255  28.025  13.296
94781W        W60041  31.923  40.822   3.288
94782W        W60042  31.066  37.854  13.075
94783W        W60043  25.526   4.915   5.476
94784W        W60044  29.160  43.415  11.536
94785W        W60045  19.565  18.637  14.956
94786W        W60046  26.986  31.690   1.901
94787W        W60047   7.572  38.521  10.825
94788W        W60048  14.834   6.323  11.611
94789W        W60049  18.089   4.964   2.828
94790W        W60050   6.104   9.178  11.185
94791W        W60051  25.439   3.006   0.891
94792W        W60052  23.558  15.257  12.711
94793W        W60053  17.489   8.266   4.808
94794W        W60054  28.963  29.246  12.153
94795W        W60055   8.841  35.368  10.753
94796W        W60056  36.087  16.285  11.620
94797W        W60057   4.184  37.624   9.827
94798W        W60058   8.450  33.111   4.601
94799W        W60059  37.001  14.126  12.873
94800W        W60060   4.712  16.743  14.409
94801W        W60061  43.959  22.606  13.279
94802W        W60062  23.295  28.101   4.548
94803W        W60063  26.996  14.797  13.080
94804W        W60064  12.119  14.026  12.585
94805W        W60065  32.190  27.878  14.904
94806W        W60066   9.896  10.340  12.908
94807W        W60067  20.113   1.192  10.793
94808W        W60068   1.804  18.516   1.794
94809W        W60069  27.634  26.249  13.101
94810W        W60070   5.635  42.776   2.120
94811W        W60071  29.665  11.160  10.773
94812W        W60072  11.640  33.512   2.616
94813W        W60073   9.838  25.917   3.466
94814W        W60074  15.282  15.870  10.337
94815W        W60075  23.454  36.860   9.779
94816W        W60076  33.369  37.546   4.612
94817W        W60077  39.192  24.584  13.051
94818W        W60078   0.684  18.336  12.061
94819W        W60079   8.327  29.599   0.771
94820W        W60080  44.451  11.262   1.680
94821W        W60081  36.157  41.345   3.998
94822W        W60082  41.809  12.708   0.900
94823W        W60083   9.810  25.559  10.159
94824W        W60084   0.664  16.083  14.891
94825W        W60085  40.484  11.333  11.128
94826W        W60086  31.058   7.856   2.744
94827W        W60087  16.265   8.929  14.886
94828W        W60088  18.053  12.350  11.076
94829W        W60089   5.758  35.283   0.357
94830W        W60090  42.594  34.888  12.092
94831W        W60091  22.294  24.945  13.068
94832W        W60092   4.996  19.942  12.501
94833W        W60093   0.004  22.224   4.141
94834W        W60094  20.041  29.103   2.678
94835W        W60095   3.195   4.350  12.874
94836W        W60096  37.570  17.083   3.300
94837W        W60097  30.507   3.681  11.369
94838W        W60098  14.215   6.746  10.838
94839W        W60099  38.081  20.000  13.447
94840W        W60100  24.075  27.451  13.049
94841W        W60101   7.431  22.962  13.423
94842W        W60102  24.597  32.529  10.435
94843W        W60103  41.774  38.034   3.665
94844W        W60104  31.461   8.316  13.982
94845W        W60105  12.658  35.012  10.749
94846W        W60106  11.045  22.617  12.049
94847W        W60107  18.983  17.085  11.976
94848W        W60108  18.009  21.963  12.890
94849W        W60109  35.564   5.703  10.856
94850W        W60110  21.565  19.451   3.221
94851W        W60111  14.713   5.397   2.777
94852W        W60112  16.132  12.796  13.393
94853W        W60113  25.404  26.047   3.673
94854W        W60114  37.338  33.640   1.779
94855W        W60115  14.065   2.194   4.028
94856W        W60116   5.821   5.865   0.768
94857W        W60117  40.778  20.712  13.473
94858W        W60118  15.204   7.369  10.955
94859W        W60119   8.835  34.339  10.775
94860W        W60120  12.870  22.238  11.654
94861W        W60121  18.319  27.873   5.045
94862W        W60122  43.940   8.835  13.043
94863W        W60123   7.346  34.156   1.888
94864W        W60124  36.427   5.360   4.780
94865W        W60125  32.439  33.264   0.877
94866W        W60126  21.789  30.064   1.418
94867W        W60127  18.548   2.438  10.690
94868W        W60128   6.621  44.549   1.045
94869W        W60129  35.439  38.246  12.362
94870W        W60130   8.291  23.464  13.439
94871W        W60131  20.989  39.391   3.252
94872W        W60132  36.550  33.084  12.166
94873W        W60133   6.900  26.537  14.061
94874W        W60134  43.408  19.807   0.517
94875W        W60135  33.307  16.114  10.553
94876W        W60136  24.072   2.313   2.852
94877W        W60137   4.915  26.446   5.049
94878W        W60138   2.086  12.746   0.721
94879W        W60139   7.078  18.093   4.501
94880W        W60140  39.928  15.415  12.636
94881W        W60141  14.814   1.824  13.933
94882W        W60142  26.882  17.593  12.509
94883W        W60143  29.396  27.592  13.049
94884W        W60144  28.509  30.780   4.010
94885W        W60145  44.494  19.333   3.674
94886W        W60146   5.198  44.926  14.928
94887W        W60147   9.726  14.845   2.351
94888W        W60148  36.804  37.850  12.397
94889W        W60149  20.503   6.209   1.682
94890W        W60150  10.932  20.483   3.386
94891W        W60151   4.326  26.144  13.757
94892W        W60152  43.681   5.504   0.924
94893W        W60153   0.765  37.003  12.436
94894W        W60154   4.529  25.896  12.843
94895W        W60155  42.048  10.147   3.831
94896W        W60156   0.580  16.548  13.591
94897W        W60157   7.730  21.954   1.346
94898W        W60158  18.935  31.416  11.118
94899W        W60159  30.862  11.076   2.144
94900W        W60160  30.630  35.114   2.810
94901W        W60161   7.234  26.031   1.156
94902W        W60162  12.281  19.304  12.438
94903W        W60163  41.421   9.152   1.521
94904W        W60164  29.631  12.207   2.872
94905W        W60165  18.282  11.094  11.943
94906W        W60166  34.540  41.090  10.373
94907W        W60167   1.456  24.534  12.056
94908W        W60168  43.339  41.884  10.886
94909W        W60169  41.556  20.328  11.145
94910W        W60170  36.030  11.145  14.907
94911W        W60171  36.272  35.906   4.698
94912W        W60172  23.150  10.276  10.665
94913W        W60173   9.306  22.015  13.503
94914W        W60174   9.248  24.033  12.304
94915W        W60175  13.235  13.681  12.659
94916W        W60176  15.052  42.086   1.832
94917W        W60177  16.609  34.952   2.718
94918W        W60178  33.465  19.309  14.535
94919W        W60179  31.491  29.594  13.653
94920W        W60180  36.544  15.587   3.302
94921W        W60181  34.409  35.925   0.053
94922W        W60182   9.181  43.522  14.797
94923W        W60183  25.184  26.406   1.368
94924W        W60184  39.940  43.887  14.583
94925W        W60185  20.485  30.700  12.134
94926W        W60186  12.710   8.925  12.586
94927W        W60187  29.772   8.862   3.467
94928W        W60188   3.747  23.634  13.832
94929W        W60189   1.530  39.241  13.530
94930W        W60190  28.951  18.311   4.165
94931W        W60191  17.694  41.911  10.639
94932W        W60192   7.770  42.020  11.762
94933W        W60193  11.632  20.136  12.094
94934W        W60194   7.079  36.372   1.804
94935W        W60195   6.951  36.109  10.604
94936W        W60196  12.667   7.454   2.325
94937W        W60197  21.870   3.755   0.584
94938W        W60198   1.776  14.549  14.966
94939W        W60199  25.065  15.777  10.484
94940W        W60200  42.350  29.145  14.842
94941W        W60201   6.788  18.037  11.384
94942W        W60202   3.580  32.537  11.782
94943W        W60203  13.855  30.891  11.563
94944W        W60204  29.692  32.002  10.928
94945W        W60205  22.708  36.257  14.045
94946W        W60206  38.572  19.924   3.262
94947W        W60207  41.659  20.977  13.874
94948W        W60208  12.159  11.739   2.230
94949W        W60209  43.385  27.525   4.078
94950W        W60210  26.939  27.552   0.254
94951W        W60211  25.742   0.344  12.917
94952W        W60212   3.188  29.364   0.482
94953W        W60213  43.965  23.851   4.448
94954W        W60214  34.088  34.422   0.823
94955W        W60215  12.644  25.481  11.274
94956W        W60216   8.260  32.783   2.475
94957W        W60217   6.199  19.113   0.401
94958W        W60218  27.248  13.633  12.444
94959W        W60219  15.459  15.337   2.176
94960W        W60220   3.047  21.098  13.449
94961W        W60221  34.049  25.519  12.087
94962W        W60222  34.383  35.089  11.115
94963W        W60223   1.522  13.137  12.374
94964W        W60224  29.941  24.732  10.323
94965W        W60225  11.881   3.132   3.152
94966W        W60226  25.159  44.516   4.189
94967W        W60227  39.971  28.673   1.833
94968W        W60228  32.060  32.806  12.078
94969W        W60229  18.344  37.334  10.193
94970W        W60230  22.486  40.910   3.705
94971W        W60231  11.082  44.908   1.859
94972W        W60232  27.641  20.320  14.974
94973W        W60233  14.167  18.169  11.687
94974W        W60234  32.678  26.060   1.681
94975W        W60235   5.568  32.073   5.041
94976W        W60236  18.283   1.309   0.987
94977W        W60237  10.014  17.999  10.295
94978W        W60238   5.882  34.508  12.857
94979W        W60239   7.508  23.759  14.984
94980W        W60240  27.561   5.002  14.297
94981W        W60241  20.287   8.322  14.911
94982W        W60242  13.707   9.346  14.072
94983W        W60243  20.679   5.443  11.635
94984W        W60244   6.900   4.903   3.664
94985W        W60245   0.926   2.373  13.757
94986W        W60246  23.641   8.713  12.164
94987W        W60247  38.082  39.119  14.433
94988W        W60248   7.277  43.946   1.405
94989W        W60249  32.453  11.147   2.336
94990W        W60250  10.763   9.403   2.719
94991W        W60251  13.697   0.410  12.530
94992W        W60252  14.517  31.156   2.244
94993W        W60253  35.228  17.024   3.340
94994W        W60254  30.782   4.404   1.305
94995W        W60255  28.216  36.295   0.809
94996W        W60256   5.343  27.966  12.548
94997W        W60257  24.260   0.958   3.574
94998W        W60258   5.676  35.775   0.477
94999W        W60259  40.643   1.345  14.722
95000W        W60260  35.147   2.970   1.785
95001W        W60261  41.805  35.450  10.531
95002W        W60262  34.040  24.546   1.100
95003W        W60263  27.843  40.603   4.053
95004W        W60264   5.892  38.357  14.364
95005W        W60265   2.855   6.209  13.143
95006W        W60266  42.341  24.635   3.611
95007W        W60267  41.283   3.464  12.941
95008W        W60268  14.417  38.757  14.671
95009W        W60269  25.295  15.217   0.737
95010W        W60270  14.336   8.432  11.143
95011W        W60271  27.052   5.604   3.028
95012W        W60272   5.105   9.702  12.106
95013W        W60273  24.540  11.148  11.222
95014W        W60274  41.477   2.441  14.780
95015W        W60275  35.064   0.253  12.026
95016W        W60276  25.939  39.620   4.668
95017W        W60277  11.103  30.015   0.186
95018W        W60278  27.767  35.334   4.188
95019W        W60279  15.129  14.976  14.985
95020W        W60280   5.920  33.982  13.016
95021W        W60281  41.849  18.154  13.161
95022W        W60282   6.244   5.758   2.380
95023W        W60283  38.062  29.071  14.477
95024W        W60284  32.381  22.539   0.683
95025W        W60285  33.138  29.174  13.479
95026W        W60286   9.447  19.947   1.150
95027W        W60287  40.453  36.708   4.551
95028W        W60288  12.664  25.821  13.070
95029W        W60289  18.962  13.307  12.946
95030W        W60290  33.195  41.994   3.202
95031W        W60291  22.693   0.537  11.563
95032W        W60292  37.290  10.388  14.473
95033W        W60293  31.371   7.823   4.202
95034W        W60294   9.291  42.838  12.870
95035W        W60295  19.587  35.708   1.220
95036W        W60296  27.650   0.160  14.855
95037W        W60297  38.404   6.258   0.560
95038W        W60298  22.065  36.052   1.338
95039W        W60299  42.015   2.039   2.236
95040W        W60300  21.735  40.979  10.976
95041W        W60301  12.594  38.334   1.289
95042W        W60302  39.908  36.440  11.428
95043W        W60303  20.328   0.759  14.214
95044W        W60304  11.434  17.793   3.665
95045W        W60305  27.567  14.474   1.095
95046W        W60306  39.263  28.397   1.379
95047W        W60307  11.308  35.398   4.669
95048W        W60308  22.114  26.962  12.415
95049W        W60309  25.285  44.004   4.212
95050W        W60310   4.209   6.711   3.207
95051W        W60311   5.828  30.092   0.319
95052W        W60312  31.569  33.674   2.394
95053W        W60313   4.381  11.868   1.732
95054W        W60314  19.595  37.369  12.587
95055W        W60315  15.834  39.341   1.745
95056W        W60316   9.237   6.774  11.777
95057W        W60317  41.565  31.533  11.130
95058W        W60318  19.610   6.706   1.852
95059W        W60319  38.664  44.390   1.450
95060W        W60320  10.698  29.928  10.641
95061W        W60321  26.694  23.632   2.015
95062W        W60322  43.745  40.792  12.599
95063W        W60323  18.300  38.296  14.547
95064W        W60324  21.490  42.087   1.846
95065W        W60325  44.872  13.489   0.519
95066W        W60326  37.597  11.197  12.186
95067W        W60327  18.815  17.855  11.166
95068W        W60328  34.618   8.372   3.627
95069W        W60329  43.276  38.705   1.313
95070W        W60330   1.028  39.628   0.749
95071W        W60331  44.302   9.287  14.479
95072W        W60332  39.992  18.548   4.758
95073W        W60333  43.283  36.731   4.134
95074W        W60334  42.600   3.451   1.335
95075W        W60335  41.705  17.759   0.821
95076W        W60336   7.762  37.661  13.025
95077W        W60337  34.176  27.545  14.944
95078W        W60338  33.136  15.741  11.537
95079W        W60339   8.532  44.488   4.054
95080W        W60340  28.643  15.191  14.416
95081W        W60341  21.824  19.900   1.931
95082W        W60342  14.296  16.723  12.843
95083W        W60343  29.846  11.844   4.978
95084W        W60344  31.931  23.677  13.579
95085W        W60345  22.139  13.399  14.911
95086W        W60346  14.520  27.504  13.297
95087W        W60347   0.513  16.575  11.562
95088W        W60348   0.351  15.066  11.077
95089W        W60349  10.675   9.844   1.751
95090W        W60350   8.193  40.368   1.771
95091W        W60351  26.548  20.699   2.384
95092W        W60352   4.694  39.405   4.122
95093W        W60353  10.425  39.328   2.312
95094W        W60354  43.251  28.535  12.594
95095W        W60355   5.410   2.009  13.780
95096W        W60356   3.336  37.757  11.155
95097W        W60357   4.612  32.010  13.957
95098W        W60358  41.204  38.793  10.258
95099W        W60359  25.521  34.978  13.142
95100W        W60360  21.563  22.540   3.221
95101W        W60361  18.599  26.142   3.677
95102W        W60362  10.398   4.711   2.706
95103W        W60363   3.285  14.728   3.871
95104W        W60364  20.580  44.575   1.360
95105W        W60365  30.655   1.957   2.142
95106W        W60366   8.167  34.865   1.488
95107W        W60367  26.167  18.592  11.632
95108W        W60368  22.786   8.519   4.273
95109W        W60369  15.786  40.562  14.987
95110W        W60370  22.689  28.589   0.011
95111W        W60371  28.399   7.930  12.980
95112W        W60372  17.529  10.042  12.536
95113W        W60373  11.304  35.049   2.879
95114W        W60374  15.005  17.974   1.824
95115W        W60375  28.969  34.135  11.105
95116W        W60376  33.230  43.384   3.601
95117W        W60377  14.758  20.326   4.163
95118W        W60378  27.413  10.168  14.523
95119W        W60379  37.491  19.604  13.047
95120W        W60380  43.755   2.329  11.702
95121W        W60381  12.589  35.078   4.276
95122W        W60382   3.872  44.333   4.758
95123W        W60383  12.195  39.799  14.157
95124W        W60384  14.278  30.114  14.500
95125W        W60385  20.231  17.179  10.377
95126W        W60386  17.292  39.281   1.856
95127W        W60387  11.662  24.228  10.913
95128W        W60388  23.156  32.249   1.489
95129W        W60389  20.400  38.398  10.213
95130W        W60390  16.330   6.180  11.087
95131W        W60391  12.480  21.612  14.780
95132W        W60392   2.676   0.707  14.901
95133W        W60393  30.357   3.464   4.379
95134W        W60394  30.940  27.892  12.006
95135W        W60395  16.358  44.933  10.372
95136W        W60396  40.366  44.615  10.461
95137W        W60397  14.019  42.991  14.431
95138W        W60398  33.918  16.134   1.565
95139W        W60399  11.448  28.571  14.034
95140W        W60400   4.161   1.197   1.372
95141W        W60401  17.984   6.851   4.405
95142W        W60402  35.910  25.843   3.699
95143W        W60403   6.749  41.560  12.477
95144W        W60404  27.446  28.082   0.474
95145W        W60405  40.853  15.533  12.631
95146W        W60406  13.981  14.563   1.321
95147W        W60407  23.579  25.992  12.604
95148W        W60408  37.894   8.911  13.125
95149W        W60409   1.791   8.912  14.682
95150W        W60410  18.250  35.435   1.358
95151W        W60411   5.468  42.365  12.242
95152W        W60412  24.269  13.680   1.329
95153W        W60413  22.118   1.728   2.647
95154W        W60414  37.058  35.956  12.888
95155W        W60415  42.027   0.548   2.423
95156W        W60416  28.154  31.518   1.399
95157W        W60417  15.081   5.449  13.186
95158W        W60418  43.202  13.310  11.800
95159W        W60419  16.656  28.691  13.186
95160W        W60420  24.275  19.866  11.633
95161W        W60421  19.514  25.083   0.930
95162W        W60422   0.859  38.958  12.502
95163W        W60423   0.328   4.898  14.226
95164W        W60424  42.533   1.451  12.566
95165W        W60425   5.183  24.234   2.183
95166W        W60426  10.108  39.818  10.762
95167W        W60427  20.917  14.193   2.991
95168W        W60428  31.490  14.854  12.958
95169W        W60429  33.312  40.636  11.535
95170W        W60430   0.925   2.928   2.913
95171W        W60431  13.454  24.288   0.440
95172W        W60432  35.741  24.418   5.480
95173W        W60433  39.949   7.678   3.668
95174W        W60434  30.121  20.234  12.860
95175W        W60435  12.596   4.449   2.757
95176W        W60436  16.323   3.500   4.424
95177W        W60437  14.878  32.376  12.709
95178W        W60438  22.615  44.720  11.775
95179W        W60439  39.057  39.916   2.015
95180W        W60440  30.166  43.465  13.112
95181W        W60441  26.522   0.643  10.661
95182W        W60442   3.793  43.287  10.761
95183W        W60443  31.209  20.945   4.181
95184W        W60444  33.625   1.668  14.380
95185W        W60445  25.174  26.092  12.458
95186W        W60446   9.750  34.748  10.577
95187W        W60447  36.671   4.887   3.103
95188W        W60448  35.062  29.170  13.936
95189W        W60449   4.545  30.860  13.589
95190W        W60450   3.680  24.981   0.311
95191W        W60451  37.819   2.949   5.188
95192W        W60452  26.912  39.668  13.384
95193W        W60453  16.374  28.083   3.258
95194W        W60454   6.937  20.216   4.135
95195W        W60455  35.910   9.234   0.749
95196W        W60456  31.989  17.855   4.217
95197W        W60457   0.492   5.503   3.390
95198W        W60458  12.760  43.482   3.310
95199W        W60459  28.519  26.884  14.078
95200W        W60460  27.680  40.546  14.897
95201W        W60461  29.199   2.137   0.774
95202W        W60462  43.967  21.593   2.771
95203W        W60463   2.494   3.829  12.896
95204W        W60464  15.769  40.377  11.451
95205W        W60465  41.260  30.688   4.561
95206W        W60466  21.172  24.584  12.513
95207W        W60467  42.108  10.227  12.532
95208W        W60468  18.587  43.522  14.072
95209W        W60469  35.779  15.129   0.939
95210W        W60470  26.226  41.777  14.165
95211W        W60471  18.073  12.342  12.432
95212W        W60472  19.693  30.582  10.719
95213W        W60473  26.698  26.977   2.253
95214W        W60474   5.340  10.331   3.144
95215W        W60475  16.245  40.936   3.126
95216W        W60476  23.512  11.735   1.440
95217W        W60477  15.232  32.534  10.706
95218W        W60478  24.178  18.181  13.047
95219W        W60479  27.524   4.543   1.301
95220W        W60480   0.696  30.496   1.359
95221W        W60481   3.150   7.478  14.675
95222W        W60482   8.945  19.604  11.153
95223W        W60483  43.120  39.518  14.425
95224W        W60484   2.668   1.428   1.047
95225W        W60485  35.797   7.383  13.637
95226W        W60486   8.174  41.474   3.629
95227W        W60487   7.071  17.660  14.384
95228W        W60488  21.749  42.003   3.524
95229W        W60489  43.806  33.163   2.771
95230W        W60490  19.770   1.274   3.253
95231W        W60491  13.624  38.857   3.655
95232W        W60492   8.558  13.626   2.756
95233W        W60493  44.008  35.646  12.601
95234W        W60494  13.873  43.052   4.546
95235W        W60495  33.995   0.838   4.068
95236W        W60496  17.031  33.053   2.541
95237W        W60497  18.633   9.827   3.939
95238W        W60498   6.904  10.875   0.447
95239W        W60499   4.017  19.478  13.062
95240W        W60500   3.983   0.276   0.269
95241W        W60501  37.340   1.412   0.311
95242W        W60502   5.443   7.785  14.279
95243W        W60503  44.044  13.708   2.115
95244W        W60504   0.769  27.192  14.994
95245W        W60505  38.424  28.703   0.811
95246W        W60506  33.958   5.665  14.920
95247W        W60507  12.829   5.373   0.001
95248W        W60508  31.683  22.761   1.349
95249W        W60509  27.787  32.557   2.250
95250W        W60510  29.629  18.560  13.265
95251W        W60511  30.539  13.513  13.238
95252W        W60512   7.162  40.425   2.828
95253W        W60513   4.910  22.489   4.184
95254W        W60514  11.370   8.481   1.175
95255W        W60515  11.323  26.977  13.399
95256W        W60516  14.660  13.290  13.909
95257W        W60517   8.486   0.738   1.019
95258W        W60518  20.730   4.729  13.086
95259W        W60519  18.425  27.446  11.310
95260W        W60520   3.592  15.651  11.683
95261W        W60521  41.452  42.665   2.730
95262W        W60522   7.938   1.891   4.660
95263W        W60523   6.666  31.545   4.636
95264W        W60524  12.166   7.694   1.904
95265W        W60525  28.890  40.879   1.400
95266W        W60526  39.455  22.400  12.863
95267W        W60527  14.650  18.931  11.622
95268W        W60528  42.247  25.971  14.127
95269W        W60529  33.659  24.609  11.185
95270W        W60530  10.327  34.157  12.977
95271W        W60531  43.369  40.244  13.428
95272W        W60532   1.067  27.801   2.651
95273W        W60533  24.868  10.203  14.346
95274W        W60534  43.019  35.523   1.961
95275W        W60535   8.823  13.214  14.733
95276W        W60536  13.813  21.780  14.829
95277W        W60537  13.379  21.679  10.573
95278W        W60538   7.429  27.767  13.918
95279W        W60539  31.042   1.509  13.489
95280W        W60540  14.832   7.343   9.837
95281W        W60541  25.240  22.633  11.140
95282W        W60542  16.217  33.169   4.518
95283W        W60543  23.709   9.238   4.219
95284W        W60544   8.780  10.807   4.641
95285W        W60545   2.068  12.262  14.266
95286W        W60546  35.408  44.329  11.434
95287W        W60547  38.482  40.967   3.822
95288W        W60548   0.373  39.484   1.460
95289W        W60549   3.052  25.117  12.352
95290W        W60550  42.864  41.928  13.584
95291W        W60551  39.442   3.970  12.397
95292W        W60552  31.100  40.253  11.371
95293W        W60553  37.776   5.475   0.793
95294W        W60554  44.004  18.978  11.075
95295W        W60555  14.231  17.784  13.322
95296W        W60556   7.645  44.420  11.157
95297W        W60557  20.465  31.451   4.413
95298W        W60558  27.228  13.329  13.129
95299W        W60559  28.993  29.821  13.750
95300W        W60560  16.818  26.557   4.255
95301W        W60561  10.121   0.125   2.029
95302W        W60562  17.049  11.225  11.373
95303W        W60563   0.947   5.837  12.403
95304W        W60564  35.586  21.548   3.246
95305W        W60565   2.477  13.162  11.044
95306W        W60566  37.769  27.589  14.919
95307W        W60567  31.445  22.989  13.288
95308W        W60568   9.788   1.818   1.835
95309W        W60569  15.505  14.186   4.078
95310W        W60570   8.819  31.162  10.144
95311W        W60571  10.903   5.208   0.806
95312W        W60572  26.591  12.094   2.650
95313W        W60573  17.619   0.184  14.005
95314W        W60574  20.148  29.986   3.701
95315W        W60575  42.019   2.794   1.493
95316W        W60576  33.795  11.722   4.700
95317W        W60577  10.516   4.177  11.560
95318W        W60578   9.622  20.159   2.809
95319W        W60579  23.385  38.380   3.872
95320W        W60580  36.388  30.598   2.749
95321W        W60581  12.679   0.414  12.540
95322W        W60582  44.373  24.122  12.526
95323W        W60583  14.276  29.181  12.161
95324W        W60584  12.787  17.765   0.047
95325W        W60585   3.263  28.940  11.649
95326W        W60586   3.144  29.064  12.135
95327W        W60587  39.506  28.994   4.136
95328W        W60588  21.686   2.979   1.928
95329W        W60589   8.845  40.461   4.154
95330W        W60590  16.077   7.239   1.201
95331W        W60591  19.426  33.902   4.058
95332W        W60592   6.550  19.740  12.626
95333W        W60593  24.584  22.706  11.599
95334W        W60594   2.324  11.833   1.853
95335W        W60595  14.878  38.792  12.468
95336W        W60596  10.420  23.769   0.871
95337W        W60597  28.623  27.460   0.924
95338W        W60598  38.297  27.005  12.451
95339W        W60599  27.469   3.307  14.328
95340W        W60600  13.256  36.522  12.206
95341W        W60601  40.294  16.188  12.860
95342W        W60602  38.641   2.730   4.180
95343W        W60603  12.390  37.873   2.021
95344W        W60604  11.045  44.481   2.197
95345W        W60605  24.566  17.572  14.655
95346W        W60606   0.242  13.126  14.912
95347W        W60607   8.971  14.034   2.282
95348W        W60608  19.219  11.271   0.889
95349W        W60609   6.226  30.671   1.157
95350W        W60610  10.197  38.611  14.646
95351W        W60611  19.671  43.594   2.800
95352W        W60612  42.364  14.282   2.754
95353W        W60613  40.238  17.122  12.899
95354W        W60614  25.192   2.192   4.448
95355W        W60615  26.429  35.918   0.835
95356W        W60616  15.587  29.007  11.930
95357W        W60617  39.958  11.656  11.914
95358W        W60618  26.368  23.002   0.389
95359W        W60619  35.865  38.412   4.440
95360W        W60620  13.760  43.750   0.419
95361W        W60621   3.282  25.300   2.555
95362W        W60622   6.795  15.164  14.332
95363W        W60623   6.304   1.793  14.006
95364W        W60624  39.783  26.256   3.279
95365W        W60625  31.127  22.998   1.833
95366W        W60626  43.857  22.393   3.581
95367W        W60627  21.982  26.036   3.885
95368W        W60628  28.229  19.473   4.626
95369W        W60629  12.827  36.596   4.542
95370W        W60630  39.443  38.596   1.190
95371W        W60631  13.830  28.762   0.850
95372W        W60632  42.458  27.550   4.134
95373W        W60633  40.258   0.121  10.380
95374W        W60634  18.710   4.199   1.263
95375W        W60635  14.068   2.310  12.517
95376W        W60636   4.441  25.699   2.873
95377W        W60637   1.492  35.498   4.434
95378W        W60638   3.812  13.534  10.397
95379W        W60639  11.810  35.583   4.955
95380W        W60640  43.079  29.609   1.758
95381W        W60641   6.883  23.468   3.652
95382W        W60642  20.751   7.801   1.186
95383W        W60643  36.997  17.564  10.864
95384W        W60644   9.134  32.450   2.918
95385W        W60645  30.837  21.232   1.342
95386W        W60646  42.298   8.573  12.284
95387W        W60647  43.300   0.265   2.887
95388W        W60648   9.200  35.936   4.066
95389W        W60649   5.182  21.182  14.499
95390W        W60650  13.074  34.199  10.807
95391W        W60651  19.993   3.838   1.918
95392W        W60652  26.133   9.752   1.712
95393W        W60653   1.513  25.995   1.835
95394W        W60654  36.600  19.793  11.049
95395W        W60655  44.246  24.501  14.446
95396W        W60656  11.387  31.685  10.147
95397W        W60657   7.420   7.859   2.689
95398W        W60658   0.892  31.938   3.535
95399W        W60659  26.998  22.045   4.539
95400W        W60660  31.002  36.129  14.684
95401W        W60661  26.329  25.474  14.331
95402W        W60662  37.634  28.723   3.335
95403W        W60663  18.694  35.367   1.120
95404W        W60664  40.497  14.516  13.293
95405W        W60665  28.403  31.887  11.721
95406W        W60666   2.160  35.365  11.977
95407W        W60667  44.289  36.434   2.835
95408W        W60668   6.253   7.933  11.667
95409W        W60669  26.016  44.385   0.419
95410W        W60670  14.451  26.812  10.091
95411W        W60671  34.084  28.850   0.914
95412W        W60672   4.211  31.258  13.573
95413W        W60673  17.511  19.179  13.876
95414W        W60674   1.343  18.147   2.362
95415W        W60675  40.554  33.183   0.324
95416W        W60676  29.972  22.925  12.317
95417W        W60677  15.804  11.798   5.029
95418W        W60678   8.136  22.351   1.394
95419W        W60679  40.856  25.869  11.564
95420W        W60680   4.196  43.271   2.308
95421W        W60681   3.354  16.831  12.934
95422W        W60682   4.439   8.807  12.417
95423W        W60683  13.680  25.782   4.652
95424W        W60684  17.664   8.296   0.092
95425W        W60685  39.481  13.135  12.569
95426W        W60686  15.680  42.296  10.235
95427W        W60687  41.490  30.626  13.377
95428W        W60688  24.666   1.398   4.228
95429W        W60689   5.511  17.805  11.933
95430W        W60690  43.468   7.300   0.940
95431W        W60691  24.613  35.850   1.913
95432W        W60692  23.046  44.869   2.218
95433W        W60693   2.363   3.664  14.669
95434W        W60694  33.936   6.746   3.253
95435W        W60695  38.655  40.833  11.274
95436W        W60696  37.414   7.102   4.196
95437W        W60697  19.211  36.568   0.955
95438W        W60698   4.406   0.446  11.467
95439W        W60699  26.743  19.307   1.968
95440W        W60700   4.373  29.705  14.874
95441W        W60701   6.334  15.105  14.537
95442W        W60702  21.996  24.858   1.042
95443W        W60703   3.707  37.654   0.702
95444W        W60704  30.676   1.525  14.872
95445W        W60705   1.836  14.050  14.935
95446W        W60706  26.245  31.895  10.291
95447W        W60707  42.441  41.059   4.258
95448W        W60708  37.089  26.593  13.694
95449W        W60709   1.980  18.032  12.517
95450W        W60710  18.256  19.637  14.264
95451W        W60711  23.890  20.221   2.504
95452W        W60712  26.597   7.901   1.421
95453W        W60713  41.282  44.436   3.129
95454W        W60714  42.590  33.076   4.914
95455W        W60715  32.133  15.770  13.466
95456W        W60716  42.424   1.372  13.096
95457W        W60717  28.054  29.838  13.403
95458W        W60718  30.654  30.866   0.927
95459W        W60719  38.003  32.670   2.293
95460W        W60720  15.021  21.098  11.732
95461W        W60721  32.696  23.103   3.079
95462W        W60722  26.747  42.108   0.886
95463W        W60723  28.097  28.978   3.408
95464W        W60724  22.211  34.700  11.551
95465W        W60725  44.779  39.207   2.209
95466W        W60726  20.175  35.570  12.165
95467W        W60727  30.147   3.789  13.615
95468W        W60728  15.218   7.700   1.847
95469W        W60729  36.944  12.206   1.749
95470W        W60730  31.627  35.045   0.914
95471W        W60731  18.763   1.852  13.313
95472W        W60732  22.271   8.811   2.065
95473W        W60733  23.706   9.445   0.412
95474W        W60734  37.899  40.001  10.985
95475W        W60735  37.030  19.093  12.971
95476W        W60736  36.458  12.838  10.062
95477W        W60737  27.057  36.193   0.445
95478W        W60738  32.212  22.650  12.890
95479W        W60739  38.868  10.967   0.371
95480W        W60740  28.189   8.964  12.162
95481W        W60741  10.826  36.585   4.737
95482W        W60742  18.347  35.383  13.872
95483W        W60743  35.119  20.516  14.619
95484W        W60744   1.414  36.576  10.929
95485W        W60745   7.297  19.498   4.083
95486W        W60746  11.676   9.043   5.313
95487W        W60747  17.982  37.030   0.915
95488W        W60748  19.906  15.396   5.073
95489W        W60749  10.523  41.396   3.438
95490W        W60750  40.059  16.213  11.852
95491W        W60751  33.010  12.651   0.755
95492W        W60752   9.401  18.007   0.535
95493W        W60753  23.532  16.999  12.602
95494W        W60754  30.706  29.682   1.859
95495W        W60755  42.742   2.696  12.595
95496W        W60756  11.809  19.872  11.188
95497W        W60757  39.668  44.069   3.802
95498W        W60758  20.498  26.018   2.695
95499W        W60759  28.718  23.251   0.829
95500W        W60760  31.723  20.185   2.214
95501W        W60761  44.514  33.822  14.686
95502W        W60762   9.941  44.712   4.168
95503W        W60763   1.964   1.677   4.165
95504W        W60764  21.285  13.215   1.721
95505W        W60765  23.114  14.626  11.566
95506W        W60766  13.115  42.911  14.310
95507W        W60767  14.201  20.606  10.854
95508W        W60768  18.701  16.819  10.149
95509W        W60769  39.827   9.545   0.752
95510W        W60770  13.879  41.263   3.600
95511W        W60771  24.166  23.717  14.071
95512W        W60772  43.337  36.785   2.286
95513W        W60773  32.198   7.346  13.439
95514W        W60774  25.657  27.968   0.721
95515W        W60775  38.415   6.373  12.064
95516W        W60776  27.571  33.666  12.466
95517W        W60777  43.503   8.492  10.758
95518W        W60778   5.001  39.414  13.912
95519W        W60779  24.112  19.596   2.144
95520W        W60780   4.920   6.666   4.279
95521W        W60781  44.738  23.706  14.520
95522W        W60782   7.613   4.625   4.209
95523W        W60783  13.515  11.240   4.183
95524W        W60784   2.283  22.051  14.924
95525W        W60785  34.858   8.312  12.998
95526W        W60786  42.992  11.116   0.931
95527W        W60787   5.125  43.939  14.836
95528W        W60788  34.010  31.281   3.735
95529W        W60789  41.904  30.159  13.885
95530W        W60790  20.556   7.393  14.958
95531W        W60791  29.272  13.009  14.684
95532W        W60792   5.787  33.162  13.847
95533W        W60793  31.072  16.300   2.811
95534W        W60794   0.630  38.449   1.378
95535W        W60795   9.673  32.471   4.163
95536W        W60796  39.893  18.243   0.711
95537W        W60797  24.500  31.946  13.916
95538W        W60798  22.091  44.759  13.909
95539W        W60799  10.955  39.040  10.732
95540W        W60800  19.692  31.063  10.918
95541W        W60801  21.248  36.427   1.029
95542W        W60802  29.556   8.770   0.215
95543W        W60803  13.354  27.065  13.148
95544W        W60804  33.897  43.002   2.510
95545W        W60805  12.256  25.915  10.968
95546W        W60806   2.746  13.020  12.024
95547W        W60807  34.958  11.695  13.791
95548W        W60808  38.118  39.249  13.900
95549W        W60809  31.369  28.260   3.287
95550W        W60810  41.508  21.189  10.850
95551W        W60811  32.972  28.670  11.508
95552W        W60812  20.287  15.460  10.962
95553W        W60813  30.859   5.092  12.110
95554W        W60814  37.945  15.197  14.701
95555W        W60815   0.664   6.998  11.177
95556W        W60816  14.299  13.636   1.342
95557W        W60817  33.927   8.203   4.604
95558W        W60818  20.816   9.807  11.639
95559W        W60819   5.925  26.436   4.358
95560W        W60820  13.241  17.052   4.080
95561W        W60821  35.845  42.352  11.134
95562W        W60822   6.802  22.075  10.999
95563W        W60823  29.140   1.093   5.037
95564W        W60824  43.466  10.367  13.981
95565W        W60825  27.067  42.748   4.471
95566W        W60826  15.731  36.939   0.283
95567W        W60827  40.988  12.128  13.807
95568W        W60828  15.846  18.979   1.864
95569W        W60829  40.415  32.965  12.134
95570W        W60830  34.288  33.582  13.428
95571W        W60831  19.252  31.941   3.861
95572W        W60832  26.995  36.698   4.549
95573W        W60833   6.868  39.861  11.888
95574W        W60834  28.539  10.636  12.490
95575W        W60835  25.015  18.190  12.548
95576W        W60836  24.905  13.234   0.345
95577W        W60837  12.154  36.671  14.843
95578W        W60838  32.404   3.752  13.590
95579W        W60839  40.294   4.098  10.630
95580W        W60840   8.835  38.846  11.189
95581W        W60841  17.920  24.721   3.253
95582W        W60842  39.347  15.290  13.759
95583W        W60843  12.776   4.920  11.629
95584W        W60844   8.849  43.414  11.901
95585W        W60845   2.705   2.396  11.942
95586W        W60846  29.262   1.908  10.934
95587W        W60847  44.973  17.503   1.371
95588W        W60848  13.223  34.283  10.305
95589W        W60849  26.087   2.214   1.504
95590W        W60850  32.689  42.777  12.898
95591W        W60851  31.446  42.114  11.601
95592W        W60852  14.871  41.665  11.097
95593W        W60853  17.811  22.063   1.291
95594W        W60854  33.362  12.896   1.067
95595W        W60855  16.516   6.188  11.663
95596W        W60856  24.844  38.024   0.930
95597W        W60857   2.133  29.633  14.484
95598W        W60858  11.878   6.204  11.067
95599W        W60859   2.253  25.199  14.769
95600W        W60860  43.957  22.496   1.828
95601W        W60861   6.187   2.304   3.653
95602W        W60862   6.400  36.307  13.015
95603W        W60863  29.879  40.309   0.911
95604W        W60864  43.722  43.594   2.646
95605W        W60865  22.010  32.562  14.269
95606W        W60866  21.179  18.075   0.668
95607W        W60867  44.499   3.917   1.311
95608W        W60868  20.165   7.743   4.889
95609W        W60869  40.335  11.709   2.799
95610W        W60870  43.494  10.560   0.755
95611W        W60871  16.756   1.140   1.395
95612W        W60872  36.429  12.439   2.432
95613W        W60873  23.953  31.443  11.093
95614W        W60874   5.663   2.210  13.364
95615W        W60875  25.460  13.546   3.272
95616W        W60876  18.663  20.154   1.760
95617W        W60877   0.321  21.373  11.044
95618W        W60878  43.889  12.429   1.798
95619W        W60879  20.294  14.757   4.614
95620W        W60880   6.632   3.705   1.301
95621W        W60881  13.197   6.177   3.121
95622W        W60882  21.608  34.879   0.916
95623W        W60883  36.535  28.646  14.649
95624W        W60884  11.065  35.259  13.429
95625W        W60885   3.349  42.438  10.517
95626W        W60886  30.992  25.453   2.787
95627W        W60887  33.931  27.597   4.196
95628W        W60888   6.173  20.013   0.362
95629W        W60889  34.127  18.768  14.872
95630W        W60890  15.261  40.600   3.868
95631W        W60891  10.817  13.943  11.213
95632W        W60892   7.625   9.877   3.374
95633W        W60893   8.328  19.157  14.011
95634W        W60894  33.870   5.196   1.818
95635W        W60895   6.811  26.248  10.199
95636W        W60896  16.583  11.388   4.085
95637W        W60897  27.510  32.941   1.662
95638W        W60898  44.380   0.073  11.100
95639W        W60899  40.351  19.622   4.063
95640W        W60900  17.059  18.692  14.982
95641W        W60901  41.454  26.768   1.724
95642W        W60902  33.336   9.678   2.891
95643W        W60903  20.185  31.106  11.078
95644W        W60904  37.246  17.582   2.394
95645W        W60905  40.290  37.170  12.879
95646W        W60906  21.051  31.866   4.624
95647W        W60907   5.636   1.471  11.915
95648W        W60908  26.243  27.640   4.142
95649W        W60909  21.327  16.620   1.489
95650W        W60910  44.367  19.489  10.476
95651W        W60911  23.514  15.175   0.373
95652W        W60912  10.529  16.278   3.635
95653W        W60913  39.865  40.399   1.235
95654W        W60914  39.469  39.094   0.290
95655W        W60915   7.993   1.451  13.983
95656W        W60916  41.111  31.921  12.010
95657W        W60917  32.932  35.080  10.883
95658W        W60918  33.580  13.686   1.328
95659W        W60919  41.776  12.176  10.150
95660W        W60920  25.033  25.739   1.925
95661W        W60921  16.324  33.491   3.751
95662W        W60922  21.749  12.883  12.383
95663W        W60923   8.468  35.102   2.767
95664W        W60924   6.427  26.152   0.305
95665W        W60925  14.761  24.676   0.324
95666W        W60926  34.851  14.640   2.750
95667W        W60927  13.911  17.404  14.803
95668W        W60928  17.750  28.335   4.102
95669W        W60929  44.274   3.244  11.638
95670W        W60930  39.626  34.945   0.818
95671W        W60931  18.556  26.283  13.327
95672W        W60932   4.592  28.534   4.590
95673W        W60933  15.583   7.724   4.150
95674W        W60934  41.918  33.589   3.094
95675W        W60935  19.805  14.600   3.167
95676W        W60936  24.583   2.682  10.812
95677W        W60937   1.323  27.250   3.228
95678W        W60938  27.033   8.798   2.309
95679W        W60939  17.273  29.571   1.382
95680W        W60940  41.041   8.172   3.103
95681W        W60941  27.512   5.502  11.032
95682W        W60942  44.780  43.726  14.931
95683W        W60943   2.292  32.400  13.127
95684W        W60944  26.636   0.792   3.694
95685W        W60945  17.591   1.244  13.717
95686W        W60946  38.861  14.610  11.947
95687W        W60947  23.686  24.739   4.304
95688W        W60948   6.418  26.494  13.788
95689W        W60949  39.859   2.770   2.221
95690W        W60950  30.513  30.669  13.125
95691W        W60951   3.486  12.195   1.868
95692W        W60952   6.125   1.810   0.523
95693W        W60953  23.949  36.539   1.825
95694W        W60954  32.574  37.107   2.906
95695W        W60955  42.694  37.695  10.001
95696W        W60956  38.251  12.106   2.236
95697W        W60957  24.110  31.218  11.570
95698W        W60958  25.719  12.024   4.715
95699W        W60959   8.282  32.625   3.445
95700W        W60960  25.271  44.421   0.837
95701W        W60961  13.344  16.643  11.595
95702W        W60962  14.547  38.594   2.669
95703W        W60963  30.474  35.966   3.761
95704W        W60964  18.518  13.134   1.477
95705W        W60965   7.119  38.940  13.400
95706W        W60966  18.858   1.843   4.385
95707W        W60967  10.235  40.457   5.022
95708W        W60968  44.309  34.936  11.881
95709W        W60969  43.370  34.903  11.492
95710W        W60970  37.618  24.914  11.597
95711W        W60971  18.083  39.795   0.358
95712W        W60972  44.945  30.007  11.605
95713W        W60973  43.538  21.165  10.442
95714W        W60974  37.465   6.744   1.157
95715W        W60975  31.729  31.090  14.350
95716W        W60976  37.008  32.431   2.938
95717W        W60977  13.077  40.046  14.238
95718W        W60978  32.026  18.876  14.437
95719W        W60979  20.194  20.250   3.890
95720W        W60980   7.452  11.740   4.582
95721W        W60981  21.767   6.317  11.604
95722W        W60982  20.943  19.614   0.836
95723W        W60983   1.604  24.008   3.653
95724W        W60984   1.245   8.744   3.800
95725W        W60985   0.267  43.006  12.903
95726W        W60986  21.465  39.577   1.915
95727W        W60987  18.812  10.112  13.880
95728W        W60988  39.823  15.777   3.301
95729W        W60989  44.302  26.051  10.635
95730W        W60990   3.010  17.592   2.598
95731W        W60991  15.475  13.648   2.002
95732W        W60992  31.508  36.932  11.059
95733W        W60993   0.840  21.995  10.706
95734W        W60994   0.236   0.819   3.798
95735W        W60995   0.428  39.955   1.200
95736W        W60996   8.900  35.983  11.007
95737W        W60997  21.705   5.786   3.558
95738W        W60998  33.120  22.266   2.906
95739W        W60999  32.615   7.138   3.227
95740W        W61000  33.317  44.265  14.279
95741W        W61001  13.105   8.408   3.864
95742W        W61002   4.685  39.062   0.849
95743W        W61003  40.603  16.579  11.544
95744W        W61004   1.322  41.488   2.720
95745W        W61005   9.637   3.159   3.740
95746W        W61006  25.781  35.265  14.871
95747W        W61007  33.457   0.525   1.335
95748W        W61008  29.091   3.786   2.757
95749W        W61009  20.175  15.249   4.647
95750W        W61010  23.033  12.361   3.539
95751W        W61011   3.684  32.187   1.924
95752W        W61012  14.087  11.707  13.564
95753W        W61013  19.220  37.004  12.622
95754W        W61014   2.857   8.730  14.937
95755W        W61015  25.800  27.081   2.414
95756W        W61016   8.949  28.987   4.756
95757W        W61017  19.078   1.213   3.646
95758W        W61018  40.345  20.234  13.963
95759W        W61019  33.929   5.632   4.204
95760W        W61020   8.646  21.472   3.251
95761W        W61021  34.816  37.738  11.892
95762W        W61022  34.963  41.813   0.514
95763W        W61023   3.795  44.369   0.350
95764W        W61024  29.229  44.907  11.967
95765W        W61025  18.125  33.547   0.736
95766W        W61026  18.517  25.226   5.001
95767W        W61027  28.727  36.332   0.712
95768W        W61028   6.141  15.303   4.085
95769W        W61029  16.864  37.099  12.475
95770W        W61030  27.460  21.981   2.192
95771W        W61031   9.286  42.244  14.442
95772W        W61032  30.536  16.128   4.563
95773W        W61033  22.221   1.293   1.721
95774W        W61034  24.748  15.660  11.436
95775W        W61035  27.038   3.274  14.852
95776W        W61036  23.566  22.132   3.384
95777W        W61037   5.398   5.832   1.538
95778W        W61038  18.670  34.135   3.753
95779W        W61039   0.127  33.172   1.131
95780W        W61040   0.597  42.989   2.614
95781W        W61041  10.144  38.004   1.003
95782W        W61042  14.552  17.653  10.207
95783W        W61043  37.409   9.860  12.395
95784W        W61044   9.962   1.016  13.315
95785W        W61045  42.476  31.435   1.744
95786W        W61046  16.650  27.661   2.032
95787W        W61047  21.969  42.654   4.611
95788W        W61048  11.031  12.466  13.909
95789W        W61049  11.400  12.211   1.294
95790W        W61050  32.160  20.051  13.770
95791W        W61051  35.102  33.529   1.379
95792W        W61052   4.486  43.829  11.198
95793W        W61053  28.177  27.218   0.985
95794W        W61054  21.824  42.106  10.725
95795W        W61055  18.422  16.693   3.726
95796W        W61056  38.863  34.380  10.850
95797W        W61057  25.741   4.103  13.527
95798W        W61058  21.644  30.913   2.689
95799W        W61059  21.218  24.662  13.007
95800W        W61060   8.811  40.529   1.889
95801W        W61061   2.709  11.846   3.391
95802W        W61062  23.919  26.134  12.042
95803W        W61063   5.135  24.472   2.634
95804W        W61064  23.094   5.869   2.059
95805W        W61065  42.135  37.062  11.329
95806W        W61066   7.121  37.462   4.957
95807W        W61067   9.341   1.890   0.286
95808W        W61068  22.032  37.468  13.898
95809W        W61069  12.118  33.507   4.893
95810W        W61070  26.026  10.350   3.297
95811W        W61071  38.676   2.708  14.392
95812W        W61072  41.421  32.993   4.679
95813W        W61073  25.298  11.445   4.131
95814W        W61074  10.339  41.283   4.154
95815W        W61075  41.471  42.222  14.252
95816W        W61076  19.547  25.257  14.313
95817W        W61077  27.237   2.299  11.769
95818W        W61078   8.646  17.181   0.054
95819W        W61079  43.815  29.032   1.414
95820W        W61080  19.779   0.755   3.199
95821W        W61081  11.800  18.308   1.405
95822W        W61082  19.868  24.282   3.284
95823W        W61083  15.540  16.545   3.286
95824W        W61084   6.241  21.704   3.658
95825W        W61085  10.775   5.937   0.478
95826W        W61086  43.066  40.500   2.009
95827W        W61087  23.679   8.199  14.494
95828W        W61088  26.445  15.741  10.821
95829W        W61089  35.984   7.388   4.310
95830W        W61090  12.257   3.131   5.059
95831W        W61091  28.930  11.053  13.832
95832W        W61092  40.208   7.888   5.020
95833W        W61093  31.363  39.009  13.492
95834W        W61094   1.952  18.835   1.428
95835W        W61095   6.812  22.222  14.970
95836W        W61096  33.845  17.727  13.001
95837W        W61097  39.787  13.344   0.351
95838W        W61098  11.764   5.769   4.463
95839W        W61099  37.022  17.123   4.852
95840W        W61100  34.360   9.793  12.500
95841W        W61101   4.746  15.484   3.794
95842W        W61102  14.661  27.545  13.841
95843W        W61103  12.212  29.627   3.336
95844W        W61104  11.215  10.714  12.378
95845W        W61105  10.184  19.957  14.812
95846W        W61106   8.772  31.376  11.579
95847W        W61107  19.432  38.111  13.231
95848W        W61108  10.730  25.205   0.711
95849W        W61109  36.932  44.720   0.385
95850W        W61110   9.797  35.358  13.084
95851W        W61111  18.904  11.379   0.479
95852W        W61112  42.862  32.159  11.846
95853W        W61113  23.277  44.199  12.606
95854W        W61114  34.323  28.837   4.660
95855W        W61115  11.835  40.103   1.789
95856W        W61116  44.812  22.661   1.640
95857W        W61117  18.277   8.093   1.964
95858W        W61118  19.930   4.363  12.306
95859W        W61119  13.710  34.364   4.748
95860W        W61120   4.505  17.128  11.527
95861W        W61121  42.478   6.767   2.192
95862W        W61122   8.150  18.488   0.851
95863W        W61123   8.148  28.124   4.011
95864W        W61124   6.962   3.574  13.254
95865W        W61125  16.527  17.620   4.531
95866W        W61126  33.185   7.572  12.500
95867W        W61127  12.642  13.943   1.907
95868W        W61128  11.254  41.350   1.288
95869W        W61129  10.862   1.051  14.486
95870W        W61130   6.711   3.363   3.228
95871W        W61131  30.243   1.362  11.494
95872W        W61132  13.840  44.804   1.305
95873W        W61133  27.907  24.240  10.949
95874W        W61134  29.150  35.958  11.503
95875W        W61135  44.757  34.696  11.926
95876W        W61136  25.986  29.402   0.159
95877W        W61137  35.846   5.136  10.397
95878W        W61138  41.121   6.815  14.125
95879W        W61139  18.312  19.775   0.782
95880W        W61140  10.134   5.678   3.777
95881W        W61141   9.658  37.286  11.587
95882W        W61142  14.929  16.520   0.819
95883W        W61143  29.326  24.479  10.868
95884W        W61144   4.985  34.750  11.187
95885W        W61145  24.189  21.334  12.912
95886W        W61146  14.554  13.333  12.153
95887W        W61147  44.769  27.947   0.084
95888W        W61148  25.114  20.800  10.801
95889W        W61149  34.715  14.302  14.693
95890W        W61150  42.405   3.881   1.143
95891W        W61151  36.105   3.943  11.440
95892W        W61152  32.963  22.735  14.133
95893W        W61153  17.060   8.205  13.330
95894W        W61154  39.483  25.582  14.783
95895W        W61155   6.883  14.431   3.047
95896W        W61156  42.907  29.160   4.692
95897W        W61157  37.177  22.870   1.516
95898W        W61158  17.897  22.937   3.202
95899W        W61159  34.406  35.601  11.055
95900W        W61160  32.423   8.246   1.153
95901W        W61161  18.153  27.579  12.181
95902W        W61162  41.875  34.612  12.684
95903W        W61163  23.599  41.000  13.304
95904W        W61164  11.152  28.612   1.913
95905W        W61165  17.347  18.002   9.873
95906W        W61166   1.955  32.879  12.435
95907W        W61167  43.940  25.563  10.061
95908W        W61168  39.846  11.900   0.363
95909W        W61169  26.016  39.010   3.395
95910W        W61170  12.411  29.517  10.064
95911W        W61171  16.887  22.894  14.261
95912W        W61172  18.423   2.721   3.434
95913W        W61173   2.004  30.445   2.540
95914W        W61174  40.112  38.273   0.655
95915W        W61175  20.717  29.102   1.348
95916W        W61176  15.247  28.810  11.498
95917W        W61177  37.397   1.850   1.320
95918W        W61178  22.662  29.497   3.788
95919W        W61179  11.427  26.317   4.096
95920W        W61180   9.032  23.856   4.597
95921W        W61181  15.546  13.645   1.044
95922W        W61182  26.362  27.069   2.636
95923W        W61183  15.205  36.476  14.802
95924W        W61184  34.465   2.727   4.171
95925W        W61185  15.738  31.622   1.986
95926W        W61186  39.379  38.920   0.757
95927W        W61187  15.325  34.778   5.021
95928W        W61188  44.059  11.154  14.723
95929W        W61189  43.311  41.402  13.884
95930W        W61190  39.402  40.888   3.268
95931W        W61191  13.543  34.876   1.459
95932W        W61192  17.243  44.745  10.749
95933W        W61193  13.273  39.967   4.610
95934W        W61194  21.174   7.351   0.738
95935W        W61195  14.681  32.926  13.795
95936W        W61196  40.064  15.451   2.958
95937W        W61197  42.075   1.741   4.180
95938W        W61198  37.385   2.385  10.976
95939W        W61199  32.297  36.556   4.782
95940W        W61200  26.656   1.039   4.189
95941W        W61201  28.502  43.789  11.908
95942W        W61202  26.982  35.134  12.451
95943W        W61203  31.898   7.078   4.243
95944W        W61204  19.147  39.382  10.589
95945W        W61205  32.554  18.160   3.065
95946W        W61206  36.518   9.125  11.894
95947W        W61207  31.603  23.631  11.484
95948W        W61208   7.006  36.445  11.852
95949W        W61209  28.228  16.295   0.824
95950W        W61210  34.526   7.545   3.624
95951W        W61211  37.871  15.808  12.239
95952W        W61212  30.392  21.636  11.575
95953W        W61213  24.846   0.444   2.631
95954W        W61214  31.020  36.335   0.156
95955W        W61215  43.383   6.698  14.684
95956W        W61216  16.698  37.810   3.703
95957W        W61217   6.728   5.369  12.877
95958W        W61218  42.348   5.302   3.613
95959W        W61219  18.523  28.918   2.692
95960W        W61220   8.409  19.110   4.741
95961W        W61221  23.134   8.687  12.830
95962W        W61222   8.730  28.832   1.715
95963W        W61223  28.523  33.643   2.632
95964W        W61224  44.995  33.743  14.802
95965W        W61225  20.539  34.499   3.576
95966W        W61226  22.046  30.233   1.844
95967W        W61227  19.118  38.775   2.109
95968W        W61228  43.349  38.084   2.671
95969W        W61229  39.789  39.068  10.739
95970W        W61230  37.574  34.825  11.653
95971W        W61231  25.825   1.152  12.435
95972W        W61232  21.855  28.695   2.652
95973W        W61233  24.481  10.644  10.589
95974W        W61234  27.985  36.577   0.446
95975W        W61235  43.190  22.284   2.703
95976W        W61236  43.532  10.460   4.204
95977W        W61237  12.643  40.426   2.890
95978W        W61238  22.846  34.793   4.200
95979W        W61239  33.121  37.435  12.464
95980W        W61240   9.394  17.839  14.535
95981W        W61241  35.125   4.861  11.531
95982W        W61242  42.495   6.075  10.454
95983W        W61243  15.272  22.602  12.433
95984W        W61244  37.507   8.293   2.291
95985W        W61245  20.687  42.707  13.541
95986W        W61246  19.440  38.095   2.705
95987W        W61247  38.906  16.046  12.996
95988W        W61248   4.335  22.136   1.978
95989W        W61249  12.220   1.643   2.140
95990W        W61250  30.536  40.326   2.485
95991W        W61251  17.558   4.525   1.812
95992W        W61252  34.910   2.529   1.929
95993W        W61253  12.713  32.500   2.759
95994W        W61254  36.611  23.140   3.487
95995W        W61255  24.505   6.734  13.407
95996W        W61256  33.976  13.671   2.624
95997W        W61257  26.464  35.230  11.595
95998W        W61258  15.608  25.562   0.785
95999W        W61259  38.037   2.487  13.730
96000W        W61260  21.804  23.934   2.254
96001W        W61261   6.679   4.686  13.466
96002W        W61262  44.632  30.787  11.981
96003W        W61263  29.925  42.074  11.315
96004W        W61264   8.972  11.047  13.854
96005W        W61265  39.657  38.097   2.047
96006W        W61266  35.722  10.563   3.720
96007W        W61267  24.655  33.537  13.936
96008W        W61268  18.779  15.156   1.662
96009W        W61269   0.444  29.859  11.659
96010W        W61270   0.568  11.653   0.094
96011W        W61271  37.037   2.472   0.886
96012W        W61272  14.606  43.272   3.839
96013W        W61273   4.407  10.408  11.085
96014W        W61274  36.107   7.638   0.263
96015W        W61275   6.064  25.249   4.550
96016W        W61276  15.268  23.273  11.561
96017W        W61277  22.003  28.018  14.733
96018W        W61278  11.625  23.293   2.909
96019W        W61279   3.336  33.109  11.048
96020W        W61280  28.052  27.114  10.612
96021W        W61281  40.825  18.010  12.079
96022W        W61282  10.684  39.436   3.666
96023W        W61283   7.587   4.643  13.865
96024W        W61284  27.258   5.065  11.003
96025W        W61285  38.115  41.283  14.938
96026W        W61286  28.695  18.727  12.315
96027W        W61287  15.647  39.551  14.816
96028W        W61288   8.624  19.082   3.127
96029W        W61289  11.754  16.303  13.432
96030W        W61290  32.070  30.061   0.307
96031W        W61291  11.284  21.846   3.638
96032W        W61292  26.645   3.016  13.030
96033W        W61293  31.614  24.404   2.147
96034W        W61294  44.340  39.204   4.038
96035W        W61295  14.307  20.028  13.896
96036W        W61296  14.574  27.932   2.236
96037W        W61297  17.718  33.680   0.454
96038W        W61298   4.659  42.603   4.549
96039W        W61299  40.803  23.464  10.982
96040W        W61300  43.522  25.706  10.368
96041W        W61301  36.979   6.694   4.533
96042W        W61302  36.341  22.696  12.499
96043W        W61303  15.052  11.948   1.379
96044W        W61304  18.649  29.279   0.744
96045W        W61305   8.935   2.805   3.121
96046W        W61306   4.915  15.961   5.036
96047W        W61307  33.415  32.263   2.135
96048W        W61308  21.774  28.084  12.964
96049W        W61309  32.617  40.943   4.643
96050W        W61310  27.483  33.677  13.292
96051W        W61311  13.645   7.671   3.775
96052W        W61312  26.667  25.589  12.021
96053W        W61313  33.608  37.582   3.144
96054W        W61314  12.303  34.687  13.157
96055W        W61315  25.550  44.711   4.773
96056W        W61316  36.572   9.790   2.680
96057W        W61317  22.190  17.998   0.020
96058W        W61318  26.588   5.975  10.107
96059W        W61319  32.404  44.488   1.148
96060W        W61320  42.951  31.887   4.117
96061W        W61321  36.506   5.815   4.016
96062W        W61322  30.072   2.191  12.449
96063W        W61323  27.008  18.357  14.448
96064W        W61324  11.788  27.567  13.010
96065W        W61325  43.962  19.992  13.927
96066W        W61326  18.798   9.390   0.270
96067W        W61327  38.567  25.064  10.365
96068W        W61328  30.627  41.437   1.384
96069W        W61329  37.258   8.222  10.799
96070W        W61330  27.524  38.289   1.755
96071W        W61331  10.364  39.667   1.859
96072W        W61332  42.048  19.663   5.030
96073W        W61333   3.249  44.776  12.478
96074W        W61334  12.059  29.220   0.311
96075W        W61335  10.752  29.167  14.406
96076W        W61336  15.825   3.772  14.495
96077W        W61337  41.414  12.356   2.158
96078W        W61338  33.478  38.631  14.380
96079W        W61339  19.034   8.420  11.563
96080W        W61340   4.740  39.751  11.860
96081W        W61341   5.344  30.513   0.764
96082W        W61342  34.929  37.139  14.866
96083W        W61343   1.974  11.081  11.679
96084W        W61344  16.409   3.236  12.883
96085W        W61345  44.809  13.552   2.692
96086W        W61346   3.221  24.054   1.966
96087W        W61347   9.744  29.812  13.530
96088W        W61348  35.436  42.526  12.385
96089W        W61349  25.167  42.795  14.588
96090W        W61350   8.742  32.489   1.699
96091W        W61351  42.360  41.319   1.337
96092W        W61352   1.499  18.061   0.351
96093W        W61353   0.842   9.653   3.585
96094W        W61354  33.424   0.424   4.616
96095W        W61355  44.191  39.507   4.923
96096W        W61356  43.944   5.194  10.473
96097W        W61357  10.829   4.263   1.905
96098W        W61358   0.206  11.960  12.087
96099W        W61359  39.441  36.609  11.544
96100W        W61360  43.032  38.782   3.706
96101W        W61361  37.305  36.507   4.174
96102W        W61362  41.187  17.771   4.680
96103W        W61363  32.187  13.629  12.551
96104W        W61364  22.022  21.205   2.601
96105W        W61365   1.779   7.219  10.585
96106W        W61366  22.573  19.336   0.287
96107W        W61367  17.795   1.265   3.177
96108W        W61368  42.048   8.739   0.514
96109W        W61369   9.256  19.076  14.044
96110W        W61370   5.361  29.208   3.839
96111W        W61371  34.093  24.072  14.406
96112W        W61372   5.786  14.409  14.504
96113W        W61373  20.805  31.558  11.744
96114W        W61374  28.944  33.858  10.675
96115W        W61375   2.318  30.039   1.343
96116W        W61376  16.020  31.900  11.509
96117W        W61377  15.852  40.367  10.938
96118W        W61378  32.907  31.344   0.448
96119W        W61379  27.067  12.861   1.925
96120W        W61380  40.509  40.907   4.226
96121W        W61381  22.894  39.934  10.761
96122W        W61382  30.409  16.399   1.532
96123W        W61383  20.013  32.064   3.355
96124W        W61384  29.043  11.143   3.300
96125W        W61385  41.684   6.469   1.817
96126W        W61386   3.977  37.801   2.496
96127W        W61387  26.717   6.037   3.805
96128W        W61388  44.803   2.745   1.396
96129W        W61389  23.731  34.268   5.676
96130W        W61390  34.965   6.960  10.815
96131W        W61391  44.775   0.882   3.986
96132W        W61392   0.506   8.358   2.696
96133W        W61393   6.273   4.212   2.276
96134W        W61394   5.866  14.699   2.147
96135W        W61395  14.154  14.879  14.449
96136W        W61396  22.344  23.938   2.255
96137W        W61397  32.851  43.313  10.664
96138W        W61398   6.929  12.998   0.108
96139W        W61399  30.714  21.040   4.185
96140W        W61400  23.551  29.518  12.582
96141W        W61401  19.205  20.410  13.910
96142W        W61402  35.135  37.464   0.366
96143W        W61403   0.877  25.239  13.947
96144W        W61404   3.278  39.824  10.571
96145W        W61405   7.960  32.592  13.416
96146W        W61406  35.146   9.406   3.012
96147W        W61407  32.243  43.005   1.212
96148W        W61408  10.232  30.452   4.977
96149W        W61409  16.360  14.862  12.756
96150W        W61410   1.973  21.286   0.897
96151W        W61411  31.903  34.985  14.358
96152W        W61412   1.444   2.263   3.708
96153W        W61413  31.682  16.372  13.852
96154W        W61414  14.829  29.928  14.042
96155W        W61415  12.148   7.244   3.221
96156W        W61416  28.666  42.908  13.737
96157W        W61417  15.988  15.240   0.160
96158W        W61418   8.094  30.165   1.710
96159W        W61419   5.400  41.024   3.308
96160W        W61420   0.705   1.441  14.756
96161W        W61421   4.132  10.333   0.022
96162W        W61422  33.578  11.429   3.197
96163W        W61423   5.891  18.127  14.012
96164W        W61424  33.944  41.886   3.584
96165W        W61425   1.926  13.127  13.951
96166W        W61426   2.844  16.097  12.666
96167W        W61427   7.691  31.058  10.937
96168W        W61428  23.471  26.488  14.758
96169W        W61429  23.465   9.748  12.014
96170W        W61430  14.346  36.059   1.971
96171W        W61431  39.511   9.274   4.183
96172W        W61432  36.893  31.505  14.510
96173W        W61433   2.705  19.626  12.449
96174W        W61434  29.701  12.019  11.981
96175W        W61435  40.843  37.165   1.282
96176W        W61436  23.462  32.963   2.708
96177W        W61437  25.782  23.631  14.940
96178W        W61438  10.214   3.818  13.994
96179W        W61439  14.777  44.129  14.392
96180W        W61440   5.898  43.097   1.781
96181W        W61441   2.531   1.103   4.114
96182W        W61442  12.348  21.470   1.767
96183W        W61443  40.981  34.869  13.358
96184W        W61444  10.660  10.421   3.625
96185W        W61445   6.207  11.628  11.694
96186W        W61446  39.834  20.110   2.053
96187W        W61447  40.850  42.563  12.045
96188W        W61448   1.157  24.277   3.687
96189W        W61449  41.721  11.447  10.668
96190W        W61450   2.841  20.962   3.776
96191W        W61451   1.902  24.136  13.517
96192W        W61452  28.605   5.329   1.720
96193W        W61453  24.248  27.530   1.843
96194W        W61454  13.831  22.538   2.330
96195W        W61455  42.499  22.408  13.490
96196W        W61456  22.671  43.072   3.649
96197W        W61457  20.704  32.489   1.541
96198W        W61458  36.407  43.754   4.298
96199W        W61459  21.141   4.248  10.706
96200W        W61460  19.833  38.361  13.455
96201W        W61461  25.459   6.140  10.572
96202W        W61462  26.938  22.463  14.956
96203W        W61463  36.503  14.127  14.752
96204W        W61464  33.640  19.979  10.724
96205W        W61465  21.918  38.538   4.161
96206W        W61466  25.743  39.280  12.525
96207W        W61467   2.150  24.006   2.199
96208W        W61468  16.597  42.280   4.818
96209W        W61469   6.449   7.831  13.649
96210W        W61470  30.366  14.314   3.318
96211W        W61471  30.388  13.221   1.572
96212W        W61472  11.667  33.634   3.630
96213W        W61473  25.778  23.601   3.246
96214W        W61474  25.477  44.917  12.836
96215W        W61475  26.898  14.033  12.487
96216W        W61476  10.601  18.079  12.916
96217W        W61477  38.356  35.466   2.124
96218W        W61478  37.274  44.808   0.776
96219W        W61479  18.633  40.473  13.973
96220W        W61480   6.786  23.337  11.006
96221W        W61481  44.549  23.446   2.414
96222W        W61482  27.138  38.084   2.105
96223W        W61483  21.665   7.833  11.530
96224W        W61484  26.207  21.060  14.876
96225W        W61485  31.653  15.685  10.725
96226W        W61486  38.528  37.141   3.829
96227W        W61487   4.308  18.299  12.074
96228W        W61488  17.830  18.216  13.804
96229W        W61489   4.471  17.513   2.318
96230W        W61490  16.894  33.084  12.025
96231W        W61491  15.504   3.885  11.387
96232W        W61492  12.157   1.702  12.493
96233W        W61493  16.091  29.200   0.591
96234W        W61494  39.562  22.249  14.690
96235W        W61495  35.891  37.986  14.754
96236W        W61496  31.031  10.297   4.198
96237W        W61497  28.018   8.759   4.525
96238W        W61498  15.391  28.223  12.218
96239W        W61499  41.673  13.591  11.437
96240W        W61500   8.585  13.282   5.022
96241W        W61501  13.064  40.459  13.233
96242W        W61502  26.437  39.275  11.049
96243W        W61503  19.008  37.377  14.272
96244W        W61504  37.487  37.339   0.415
96245W        W61505  42.097  43.313  12.126
96246W        W61506  42.050  31.897  14.904
96247W        W61507  15.998  12.349   1.944
96248W        W61508  14.718  40.369  11.436
96249W        W61509  15.519  11.830   4.599
96250W        W61510   8.592  43.268   4.971
96251W        W61511  37.466  38.132  11.717
96252W        W61512  29.965  37.794   0.755
96253W        W61513   4.210  44.976  14.803
96254W        W61514  23.682  12.262  10.803
96255W        W61515  39.569   9.941   1.801
96256W        W61516  39.141   7.011   1.390
96257W        W61517  18.197  31.182   0.924
96258W        W61518  42.826  44.973   2.371
96259W        W61519  30.998   0.387   2.715
96260W        W61520   2.153  33.081  11.613
96261W        W61521  37.934  25.259   2.800
96262W        W61522   8.694  43.869   1.770
96263W        W61523  39.530  41.457  13.809
96264W        W61524  27.035  27.787  14.790
96265W        W61525  43.237   7.450  12.371
96266W        W61526   4.077  11.812  13.380
96267W        W61527  17.706  20.713  11.501
96268W        W61528   3.030  16.694  14.929
96269W        W61529  30.641   4.814  13.023
96270W        W61530   8.149  33.593  10.645
96271W        W61531  36.058   0.327   0.528
96272W        W61532  11.270  23.306  10.593
96273W        W61533  32.187  10.415  13.641
96274W        W61534  21.828  31.661   3.088
96275W        W61535  17.535  26.078   2.171
96276W        W61536  28.742   2.422   0.785
96277W        W61537  23.736  20.874  13.974
96278W        W61538  19.527   4.461  13.058
96279W        W61539  19.584   0.977   3.638
96280W        W61540   3.778  33.576  12.313
96281W        W61541  36.843  22.781   3.189
96282W        W61542  33.397  31.650  12.077
96283W        W61543  29.541  32.662   1.330
96284W        W61544  36.349  27.166  13.146
96285W        W61545  32.353  33.903  11.607
96286W        W61546   0.320   7.608  12.999
96287W        W61547   8.483   2.775  11.199
96288W        W61548  19.446  18.300   9.843
96289W        W61549   7.966  34.505   4.507
96290W        W61550  32.054  24.663   2.186
96291W        W61551  23.663  10.708   1.827
96292W        W61552  32.877  30.979   4.055
96293W        W61553   1.974  18.804  12.073
96294W        W61554  24.539  23.155  12.718
96295W        W61555  38.017  28.495  11.512
96296W        W61556  12.511  20.394   0.852
96297W        W61557  20.636   9.253   1.952
96298W        W61558  24.890  18.325  14.907
96299W        W61559  20.752  35.933  14.272
96300W        W61560  39.941  14.404  10.689
96301W        W61561  19.196  27.801   1.905
96302W        W61562  12.719  19.994  14.230
96303W        W61563  27.489  44.951   3.120
96304W        W61564  33.117   8.113   2.331
96305W        W61565  31.111  19.628   4.622
96306W        W61566  13.770  40.506   3.248
96307W        W61567  30.571  37.286  10.431
96308W        W61568  42.294   1.916   0.596
96309W        W61569  12.610   9.116  13.647
96310W        W61570  17.223  36.796  14.755
96311W        W61571  18.682   0.083   0.901
96312W        W61572  41.133  29.939  13.380
96313W        W61573  43.973   5.202  13.080
96314W        W61574  22.631   5.697   0.903
96315W        W61575  27.532   0.953   4.604
96316W        W61576  29.953  32.907   0.380
96317W        W61577   1.230  28.448  11.942
96318W        W61578  14.749   0.984  14.881
96319W        W61579  24.039  18.046   0.921
96320W        W61580  40.093  11.851   2.335
96321W        W61581  30.735  11.215   3.869
96322W        W61582  29.065  38.334  12.279
96323W        W61583  28.969  39.827  12.004
96324W        W61584  31.100  13.763   2.897
96325W        W61585  38.302  12.060  12.576
96326W        W61586  32.719  27.125   2.072
96327W        W61587  23.906   9.143  12.855
96328W        W61588  14.538  30.084  14.995
96329W        W61589  33.031  10.048  13.264
96330W        W61590  25.690  42.506   3.462
96331W        W61591  35.857  11.189  11.570
96332W        W61592  18.689  38.030   0.250
96333W        W61593  19.317  18.135   2.698
96334W        W61594   7.784  41.498   3.273
96335W        W61595  16.996  27.674  13.863
96336W        W61596  35.540  38.181   3.881
96337W        W61597   7.237  39.298  11.539
96338W        W61598  10.393  38.100  13.506
96339W        W61599   3.193  28.530  13.962
96340W        W61600  17.325  13.656  14.954
96341W        W61601  17.637   6.169   4.718
96342W        W61602  22.014   7.197   1.361
96343W        W61603  14.630  14.838   3.309
96344W        W61604  24.121  38.263  12.354
96345W        W61605  16.570  39.814  10.557
96346W        W61606  19.807  39.231   1.267
96347W        W61607  41.769   5.561  12.417
96348W        W61608  24.150  28.377  10.707
96349W        W61609  17.205  33.012  13.345
96350W        W61610   7.900  31.440  11.286
96351W        W61611  11.556   5.964  10.705
96352W        W61612  30.173  20.143   4.102
96353W        W61613  25.126  32.452   0.782
96354W        W61614  33.298   9.509  11.604
96355W        W61615  16.307  10.454   3.254
96356W        W61616  34.589  38.934   4.149
96357W        W61617  18.133  33.088  14.949
96358W        W61618  19.081   5.302   3.284
96359W        W61619  30.609  30.170  11.023
96360W        W61620  19.403  24.971  10.885
96361W        W61621  37.835  39.874   2.615
96362W        W61622   4.491   5.637  13.564
96363W        W61623  34.425  27.973   4.829
96364W        W61624  25.125  28.008  12.592
96365W        W61625  40.082  32.578   0.869
96366W        W61626  43.310  28.676   3.147
96367W        W61627  33.595  35.924  11.703
96368W        W61628   6.754  44.304  12.942
96369W        W61629   0.972  43.104  10.119
96370W        W61630   1.943  13.388   3.406
96371W        W61631  35.386  22.155  13.957
96372W        W61632   1.886  29.554   2.446
96373W        W61633   4.924  10.323  10.741
96374W        W61634  38.682   1.851   3.010
96375W        W61635  21.072  42.779  12.613
96376W        W61636  34.386  19.485  14.444
96377W        W61637   7.692  40.793  11.227
96378W        W61638  41.715   4.839   0.849
96379W        W61639  33.894  11.158  14.946
96380W        W61640  28.446  43.106   4.362
96381W        W61641  43.919  29.849  10.673
96382W        W61642  11.690  32.399  13.561
96383W        W61643  15.296  24.301  11.613
96384W        W61644  25.091  43.466  13.927
96385W        W61645  36.646  16.854   1.370
96386W        W61646  40.903  34.890  11.864
96387W        W61647   5.456   0.698  11.562
96388W        W61648  12.596   4.715   3.220
96389W        W61649  14.041   4.882  11.099
96390W        W61650  31.901  38.892  12.621
96391W        W61651  35.648  15.894   1.435
96392W        W61652  13.988  42.600  10.511
96393W        W61653  35.241  39.397  13.474
96394W        W61654  38.590   5.442  11.136
96395W        W61655  30.017  15.750   1.461
96396W        W61656  44.350   8.364  12.568
96397W        W61657  16.147   4.406  11.358
96398W        W61658  35.765  30.492  12.288
96399W        W61659  41.664  17.185   4.245
96400W        W61660  30.459  28.411  11.321
96401W        W61661   2.797  13.690  14.905
96402W        W61662   5.730  36.904  12.543
96403W        W61663  15.101  17.497   4.416
96404W        W61664   8.499  12.746   4.329
96405W        W61665  36.917  31.997  14.233
96406W        W61666   3.281   1.311   2.493
96407W        W61667  17.345  32.502   3.431
96408W        W61668  42.348  22.731  14.774
96409W        W61669  32.474  30.019   2.697
96410W        W61670  12.239   8.572   4.731
96411W        W61671  38.672  31.343   3.324
96412W        W61672   0.371  12.521  14.362
96413W        W61673   4.208  18.507   2.833
96414W        W61674   5.044  25.302  11.130
96415W        W61675  43.267   5.704  13.394
96416W        W61676   4.949  13.386  11.060
96417W        W61677  19.969   4.983  11.039
96418W        W61678   0.126  24.126  12.824
96419W        W61679  36.683  39.872   1.408
96420W        W61680   3.061  39.642  12.179
96421W        W61681  28.511   7.141  14.023
96422W        W61682  31.926  27.536  12.094
96423W        W61683  21.190  12.409   0.799
96424W        W61684  27.552  27.980   3.697
96425W        W61685   5.932   9.655  11.125
96426W        W61686  10.713  11.797  11.990
96427W        W61687   5.501   8.818   4.089
96428W        W61688  34.161  11.360  11.984
96429W        W61689  29.495  35.308  13.982
96430W        W61690  44.431   4.306  10.744
96431W        W61691  11.061  29.264  12.160
96432W        W61692  44.129  39.482   3.370
96433W        W61693   4.566  23.667   2.365
96434W        W61694  23.255  38.508  10.713
96435W        W61695  13.353  22.846  12.092
96436W        W61696  25.847   4.807  10.121
96437W        W61697   1.907  11.075   4.694
96438W        W61698  32.544   5.659  11.237
96439W        W61699   4.910   2.476  12.938
96440W        W61700  32.793  25.281  13.797
96441W        W61701  34.127  35.036  13.486
96442W        W61702   9.900  21.520   3.610
96443W        W61703   3.127  44.501  14.341
96444W        W61704  21.737  17.620   3.375
96445W        W61705  13.282  19.981  14.928
96446W        W61706  18.102  30.699  13.000
96447W        W61707   5.384  22.566  13.794
96448W        W61708  11.453  41.929  12.186
96449W        W61709  29.699  19.191  10.983
96450W        W61710  30.615  20.631  10.709
96451W        W61711  25.149  29.511  14.488
96452W        W61712   6.961  20.346   0.814
96453W        W61713   9.237  34.832   2.121
96454W        W61714  38.568  33.107   0.776
96455W        W61715  20.568  12.685   0.481
96456W        W61716  15.807  34.513   2.654
96457W        W61717  14.426  24.874  14.938
96458W        W61718  12.096  41.548   2.271
96459W        W61719  28.270   4.622   2.277
96460W        W61720  37.900  37.061   0.209
96461W        W61721   1.843   4.723  11.125
96462W        W61722  36.473  23.691   4.640
96463W        W61723  43.159   5.518   0.925
96464W        W61724  28.164  41.275   3.276
96465W        W61725   9.311  23.377   4.495
96466W        W61726  15.410  36.982  12.470
96467W        W61727  19.557  30.730  11.701
96468W        W61728  12.228  22.598   0.867
96469W        W61729  33.125  25.950  14.362
96470W        W61730  31.629  24.882   1.925
96471W        W61731   0.277  23.782   0.923
96472W        W61732  31.925  18.804  10.676
96473W        W61733  37.597  30.937   0.857
96474W        W61734  33.078  39.394   1.976
96475W        W61735   5.893  35.635  12.507
96476W        W61736  20.133  24.428  11.133
96477W        W61737  28.742  22.789  10.811
96478W        W61738  13.828  35.955   1.888
96479W        W61739   8.621  29.311   4.488
96480W        W61740   6.727  26.992  12.506
96481W        W61741  18.689  36.112   0.335
96482W        W61742  38.030  41.440  13.945
96483W        W61743  32.516   2.521  13.117
96484W        W61744   3.236   5.889   0.272
96485W        W61745  38.514  31.935   2.144
96486W        W61746  34.181  23.697  14.867
96487W        W61747  10.790  39.404   3.134
96488W        W61748   6.819  17.890  13.376
96489W        W61749   2.191  41.564  11.245
96490W        W61750  34.157  23.589   2.155
96491W        W61751  41.493  37.323  14.002
96492W        W61752   9.124  44.742  10.607
96493W        W61753  12.662   7.010   2.607
96494W        W61754  23.104  31.085   1.273
96495W        W61755  40.359   1.262   0.152
96496W        W61756  27.975  32.492  13.529
96497W        W61757  21.462  31.577   4.771
96498W        W61758   6.758  43.462  13.361
96499W        W61759   1.808  33.544   3.108
96500W        W61760   2.972   3.249   4.574
96501W        W61761  15.835  21.610   3.225
96502W        W61762  37.799  34.418   1.846
96503W        W61763  23.581  37.439   5.547
96504W        W61764  31.005  13.317  14.919
96505W        W61765  30.941  21.778  12.957
96506W        W61766  13.653  39.933  11.960
96507W        W61767  37.895  36.395  13.399
96508W        W61768  30.317  12.579  11.652
96509W        W61769  11.789   6.052   5.221
96510W        W61770  32.337  15.964  14.964
96511W        W61771  13.971  39.789   0.325
96512W        W61772   3.173  10.276   0.713
96513W        W61773  26.457  30.439   1.118
96514W        W61774  12.980  17.045   4.529
96515W        W61775   7.154  22.026  13.812
96516W        W61776  24.896   3.850  10.363
96517W        W61777  12.102   4.200   3.563
96518W        W61778  16.638  36.332   0.957
96519W        W61779  43.198  31.926   4.730
96520W        W61780  19.620   9.113  11.596
96521W        W61781  33.135   7.168   3.173
96522W        W61782  24.212  16.056  10.331
96523W        W61783  12.675  43.969   3.425
96524W        W61784  38.731  41.010   5.036
96525W        W61785  43.127   8.355   1.432
96526W        W61786   0.065   7.562   2.168
96527W        W61787  30.534   2.202   1.299
96528W        W61788  34.287   2.413  12.909
96529W        W61789  37.542  12.084  11.654
96530W        W61790  28.740  41.952   4.803
96531W        W61791  17.067  29.913   3.228
96532W        W61792  15.620  15.304  13.360
96533W        W61793  13.262  38.751  11.141
96534W        W61794   3.787  38.844  10.538
96535W        W61795  37.302  15.756   3.598
96536W        W61796   7.653   2.517   0.329
96537W        W61797  16.711  13.354   0.665
96538W        W61798  22.032  42.738   1.392
96539W        W61799  18.485  41.835   2.239
96540W        W61800  25.946  31.473  14.784
96541W        W61801  42.717  16.010  14.980
96542W        W61802  35.772  33.860  14.200
96543W        W61803  18.156  42.474   1.676
96544W        W61804  15.769  19.564   2.808
96545W        W61805   0.280  36.052   4.194
96546W        W61806   0.887  34.264   4.552
96547W        W61807  39.078  13.623  14.438
96548W        W61808  30.986  44.015   2.159
96549W        W61809  21.211  12.271   0.303
96550W        W61810   7.496  31.716  11.461
96551W        W61811   6.748  20.239  13.338
96552W        W61812   2.621  19.511  10.859
96553W        W61813   6.460  19.680   2.238
96554W        W61814  35.590  17.908  12.540
96555W        W61815  32.828  12.209  12.499
96556W        W61816  29.373   7.370  11.194
96557W        W61817  23.948  17.212   2.655
96558W        W61818  17.704  39.790  10.970
96559W        W61819  11.281  34.711   1.411
96560W        W61820  44.797  41.409  13.752
96561W        W61821  21.497  40.540   2.864
96562W        W61822  39.879  39.980   0.925
96563W        W61823  32.542   2.439  12.629
96564W        W61824  18.737  40.482   4.162
96565W        W61825   0.584   8.525  10.204
96566W        W61826  20.042  34.915  14.356
96567W        W61827  10.369  14.899  12.157
96568W        W61828  41.198  37.515   3.147
96569W        W61829  33.303   4.399  11.164
96570W        W61830  29.695  29.664  14.045
96571W        W61831  43.778  24.060  13.026
96572W        W61832  26.985  21.785   3.264
96573W        W61833  37.064   4.592   4.048
96574W        W61834  17.365  31.554  11.535
96575W        W61835  36.692  44.072   1.344
96576W        W61836  37.757   4.136   2.760
96577W        W61837  42.380  16.478  11.581
96578W        W61838  36.897  27.178  13.058
96579W        W61839  38.812   9.881  10.114
96580W        W61840  11.980   9.915  13.395
96581W        W61841  25.758  37.470  13.041
96582W        W61842  34.456  24.577   1.395
96583W        W61843  17.843  29.070   0.382
96584W        W61844  22.811  32.348   0.271
96585W        W61845   4.361  37.139   0.660
96586W        W61846  16.337   1.353  12.476
96587W        W61847  34.349   1.245   4.056
96588W        W61848  32.112  15.580   1.283
96589W        W61849   3.738  25.048   2.599
96590W        W61850  29.920  13.115   1.369
96591W        W61851  22.253  26.253  13.312
96592W        W61852  21.187  40.375  12.354
96593W        W61853  30.115  21.178  13.847
96594W        W61854  43.272  20.745   3.569
96595W        W61855  39.386   4.474   3.615
96596W        W61856  30.373   1.861  11.554
96597W        W61857  26.235  20.026   1.088
96598W        W61858  22.715  33.408   2.191
96599W        W61859  40.424  43.976   4.550
96600W        W61860   9.038   0.766   4.051
96601W        W61861  14.135  28.200  12.012
96602W        W61862  21.703  32.747  13.505
96603W        W61863  32.447  26.046  10.317
96604W        W61864  35.679  36.493   1.239
96605W        W61865  20.595   7.959  13.455
96606W        W61866  35.730  28.691   2.813
96607W        W61867  43.310   1.317  11.910
96608W        W61868  15.220  11.153  13.483
96609W        W61869   7.886  13.708  12.083
96610W        W61870  18.017  33.038   4.629
96611W        W61871  35.911  15.220   4.752
96612W        W61872  19.626  14.657   1.831
96613W        W61873  36.141  10.801  13.468
96614W        W61874  11.205  40.396   4.847
96615W        W61875  16.569   3.978  10.733
96616W        W61876  30.957  42.247  13.639
96617W        W61877  20.300   0.957   1.360
96618W        W61878  30.961   7.285  13.147
96619W        W61879  16.709  16.834  13.773
96620W        W61880  43.798  30.986  13.936
96621W        W61881  29.736  16.777   0.525
96622W        W61882  21.499  30.427  11.146
96623W        W61883   6.890   0.228   2.367
96624W        W61884   5.380  27.101   4.047
96625W        W61885  42.794  27.187   2.474
96626W        W61886  36.235   1.888   2.689
96627W        W61887  23.592   5.004   3.192
96628W        W61888  41.331  25.412   5.033
96629W        W61889  37.118  28.385  10.542
96630W        W61890  38.781  17.736   2.214
96631W        W61891   1.044  30.620   3.853
96632W        W61892  37.721   0.353   1.583
96633W        W61893  11.190  29.999  14.301
96634W        W61894  32.044  24.899   4.431
96635W        W61895  37.985   7.910   2.660
96636W        W61896  32.514  19.626   2.503
96637W        W61897  44.330  33.486  11.058
96638W        W61898  18.367  34.456  10.603
96639W        W61899  26.023  26.276  13.942
96640W        W61900  43.309  23.508  13.390
96641W        W61901  22.180  35.342  14.882
96642W        W61902  32.304  30.614  11.099
96643W        W61903  35.833   7.470   1.212
96644W        W61904  11.819  14.439   4.092
96645W        W61905   7.051   0.586  13.509
96646W        W61906  30.910   9.747   4.286
96647W        W61907  13.838  20.588   3.087
96648W        W61908  20.991  42.166   0.219
96649W        W61909   5.398  31.142   2.472
96650W        W61910  27.798   8.907  11.471
96651W        W61911   8.311  39.585  14.465
96652W        W61912  25.447   9.863  13.870
96653W        W61913  30.228  43.579   0.401
96654W        W61914  31.088  38.532  13.508
96655W        W61915  14.885  34.887  14.281
96656W        W61916  10.649  22.795   9.870
96657W        W61917   5.355  33.318   2.638
96658W        W61918  32.686  33.499  10.210
96659W        W61919  35.356  24.951   4.689
96660W        W61920  38.834  37.545   0.711
96661W        W61921   4.969   0.518  13.764
96662W        W61922  42.005  21.648  10.581
96663W        W61923  35.125  14.159  11.985
96664W        W61924  38.416  18.723   0.859
96665W        W61925  22.550  14.306   1.144
96666W        W61926   6.730  32.138  14.904
96667W        W61927  31.557  19.744  11.068
96668W        W61928   7.572  38.518   1.578
96669W        W61929   8.425  14.720  11.016
96670W        W61930  11.869   1.513  13.071
96671W        W61931  29.884   8.229  11.604
96672W        W61932  42.478  34.978   4.912
96673W        W61933  32.849  15.721   0.790
96674W        W61934  42.481  28.667  12.184
96675W        W61935  38.110  29.393  12.402
96676W        W61936   3.372   2.093   0.729
96677W        W61937  17.225  15.883   5.040
96678W        W61938  10.086   5.878   3.291
96679W        W61939  10.219  18.388   0.821
96680W        W61940  33.239   8.297  12.027
96681W        W61941  25.173   3.002  12.442
96682W        W61942   1.525  15.353  10.077
96683W        W61943   5.801  37.490   0.042
96684W        W61944  27.475   3.228   1.725
96685W        W61945   3.279  40.928   1.437
96686W        W61946  26.022  22.409   5.337
96687W        W61947  32.943  36.931   3.245
96688W        W61948  11.122  25.521  14.387
96689W        W61949   0.520  23.786  12.881
96690W        W61950   2.813  40.708   1.478
96691W        W61951  20.619  33.151  10.685
96692W        W61952  23.200  21.174   0.991
96693W        W61953  38.412  19.920   2.230
96694W        W61954  38.491   8.046   4.642
96695W        W61955  34.086  29.320   2.243
96696W        W61956   2.629  39.355   2.057
96697W        W61957  32.492   3.916   0.926
96698W        W61958  44.863  41.327   1.431
96699W        W61959  30.949  40.256  13.354
96700W        W61960  44.302  14.312   4.844
96701W        W61961   7.675  31.560  13.183
96702W        W61962   1.184   0.769   2.136
96703W        W61963  39.686  12.661  13.937
96704W        W61964  25.300   1.795   4.771
96705W        W61965  26.636  33.582   3.380
96706W        W61966   9.340  16.149   0.759
96707W        W61967  20.268  34.626  14.789
96708W        W61968   3.291  43.804  12.911
96709W        W61969  27.462  29.054  14.356
96710W        W61970  30.482  30.305  12.482
96711W        W61971  17.844  15.047  13.478
96712W        W61972   4.923  43.875   1.112
96713W        W61973  23.214  21.131   1.920
96714W        W61974  22.595   0.101   2.494
96715W        W61975  16.626   5.706   0.453
96716W        W61976  15.943   6.482   0.391
96717W        W61977  27.601  10.739   0.963
96718W        W61978   8.157  41.343   4.815
96719W        W61979  37.567  33.849  14.950
96720W        W61980  31.179  42.286   3.237
96721W        W61981  24.254   1.381  11.175
96722W        W61982  20.234  26.936   5.070
96723W        W61983   1.994  18.211  14.834
96724W        W61984  30.684  40.966  11.905
96725W        W61985  37.525  22.728  13.429
96726W        W61986  18.533   1.539   1.959
96727W        W61987  28.390   9.759   4.623
96728W        W61988  39.092   7.678   2.376
96729W        W61989  30.100  24.460  12.594
96730W        W61990  21.027   9.372  12.197
96731W        W61991  28.533  36.428   1.745
96732W        W61992  12.150   4.132   4.066
96733W        W61993  19.722   3.997  10.256
96734W        W61994  31.575  24.288   0.465
96735W        W61995  41.211  30.347  14.173
96736W        W61996  25.599  22.018   1.699
96737W        W61997  41.985  23.351   4.546
96738W        W61998  21.297  41.806   4.153
96739W        W61999  39.295  27.281   1.312
96740W        W62000  39.822   8.354  10.496
96741W        W62001  35.457   7.303  11.890
96742W        W62002  26.652   9.856  11.071
96743W        W62003  35.086  17.826   0.680
96744W        W62004  30.155  40.513   4.785
96745W        W62005  29.493  22.270   3.738
96746W        W62006  38.412  14.724   3.091
96747W        W62007  38.856  20.829   4.109
96748W        W62008  37.450  43.665   4.097
96749W        W62009  12.893   2.626   0.625
96750W        W62010   4.109  36.797  13.802
96751W        W62011  42.258  23.623   3.299
96752W        W62012  43.538   5.510   1.714
96753W        W62013   1.321   0.350  14.974
96754W        W62014   5.699  12.290   0.026
96755W        W62015   1.469   4.438  11.395
96756W        W62016   3.810  36.932   3.419
96757W        W62017  24.578  10.891   0.356
96758W        W62018   4.764  40.087  10.811
96759W        W62019  18.918  38.209   2.868
96760W        W62020  38.950  34.293   1.355
96761W        W62021  38.482   5.386   3.267
96762W        W62022  38.977  31.411   2.662
96763W        W62023  19.671  17.355  12.543
96764W        W62024  35.637  12.325   1.615
96765W        W62025  19.523  42.990   0.590
96766W        W62026  12.791   5.994  12.788
96767W        W62027   9.100  10.245  12.563
96768W        W62028  37.992  26.373  10.535
96769W        W62029  42.833   5.637  14.608
96770W        W62030   2.599  13.192   4.139
96771W        W62031  29.551  10.053  12.292
96772W        W62032  36.336  18.320  14.105
96773W        W62033  16.620  29.662   1.910
96774W        W62034  10.063   6.460  11.492
96775W        W62035  20.276   1.136   1.859
96776W        W62036  11.105  11.381   4.562
96777W        W62037  44.512   5.174  12.982
96778W        W62038  43.275  32.811  11.665
96779W        W62039  43.715   5.865   2.322
96780W        W62040  35.626  13.227   1.666
96781W        W62041   2.030  25.618  14.953
96782W        W62042  17.158   4.618   2.690
96783W        W62043  18.119  34.024  10.751
96784W        W62044  10.363   3.027   1.924
96785W        W62045  31.313  12.207  12.469
96786W        W62046  33.002  28.996  14.015
96787W        W62047  28.333  31.977   4.037
96788W        W62048  24.613  17.434   4.625
96789W        W62049  14.121  12.738   0.018
96790W        W62050  25.228  16.542   0.948
96791W        W62051   5.485  37.865   1.738
96792W        W62052  16.800  12.035   3.188
96793W        W62053  41.869  37.864  13.973
96794W        W62054  39.863  14.295   3.010
96795W        W62055  36.073   2.347   0.241
96796W        W62056  37.875  19.970   4.558
96797W        W62057  30.198  33.215   2.191
96798W        W62058  33.109  26.987   3.379
96799W        W62059  16.261  40.017   2.093
96800W        W62060   7.471  36.159  10.435
96801W        W62061  32.626  23.216  12.475
96802W        W62062  25.653  39.755   0.870
96803W        W62063  40.257  13.938   3.653
96804W        W62064   6.755   3.130  14.744
96805W        W62065   3.963  42.947   0.695
96806W        W62066  41.408   9.602  14.400
96807W        W62067  31.515  33.734  10.725
96808W        W62068  18.145   6.495  11.906
96809W        W62069   7.308  12.581  13.868
96810W        W62070  18.718  38.071  14.369
96811W        W62071  44.741   4.640   5.166
96812W        W62072   4.864  13.235  13.239
96813W        W62073  22.601  34.792   0.599
96814W        W62074  21.196  13.760   3.080
96815W        W62075  28.676  28.692   4.069
96816W        W62076  35.368  36.037  12.064
96817W        W62077   8.143  39.650   2.203
96818W        W62078  35.102  25.528   0.509
96819W        W62079  42.390  30.002   4.575
96820W        W62080  23.160  23.920  12.975
96821W        W62081   7.588  26.133   1.906
96822W        W62082  34.977  19.015  13.955
96823W        W62083  34.482   0.345   0.536
96824W        W62084   3.708   0.551   1.199
96825W        W62085  21.164  25.386  12.102
96826W        W62086  29.020  15.613  14.333
96827W        W62087  24.058  13.859   1.761
96828W        W62088  27.465  23.594  14.510
96829W        W62089   1.159  39.739  11.084
96830W        W62090   1.763  18.978  12.502
96831W        W62091  31.430  18.808   0.067
96832W        W62092  10.001  41.722  12.726
96833W        W62093  29.117   1.427   3.726
96834W        W62094  24.904  11.821  12.522
96835W        W62095  21.519  14.243  13.883
96836W        W62096  41.022   6.312  11.521
96837W        W62097   2.014   5.130   0.366
96838W        W62098   3.351  13.675  11.090
96839W        W62099  24.644   0.910  13.620
96840W        W62100  31.870  13.261   2.812
96841W        W62101  35.476  14.413   1.630
96842W        W62102  33.942  40.070  14.934
96843W        W62103  36.059  25.238  12.869
96844W        W62104  29.679  41.546   1.421
96845W        W62105  37.674   1.855  10.276
96846W        W62106  44.350   4.654  13.042
96847W        W62107  42.811  32.682  13.785
96848W        W62108   5.764  41.863   1.704
96849W        W62109  35.339  25.677  13.414
96850W        W62110  21.982   4.903  13.600
96851W        W62111  14.422  21.515   4.574
96852W        W62112  38.606   8.701   3.153
96853W        W62113  35.231  22.722   1.454
96854W        W62114  13.408  38.067   2.450
96855W        W62115  41.333  11.787  10.766
96856W        W62116  24.496  11.131  13.053
96857W        W62117  30.093  38.051  10.944
96858W        W62118  38.858  27.663   2.607
96859W        W62119  28.164  11.173  14.791
96860W        W62120  26.512  31.974   4.490
96861W        W62121  43.287  15.109  10.615
96862W        W62122  11.549  39.169  12.049
96863W        W62123   9.471   0.469   2.683
96864W        W62124  28.850   8.828   3.282
96865W        W62125  41.901  16.282  11.605
96866W        W62126  38.591   6.448   0.995
96867W        W62127  24.396  35.888  12.691
96868W        W62128  21.217  25.473   0.932
96869W        W62129   3.730   9.249  11.715
96870W        W62130  23.097  26.390  12.980
96871W        W62131   3.688  39.846  11.595
96872W        W62132   5.818   7.695  12.976
96873W        W62133  23.248  26.716  14.353
96874W        W62134   2.511  34.142  14.068
96875W        W62135   5.905  38.281  12.095
96876W        W62136  25.685  18.780  13.918
96877W        W62137   4.842  41.725  11.917
96878W        W62138  21.021  15.252   2.837
96879W        W62139  17.183   8.204  14.292
96880W        W62140  34.451  28.698   1.253
96881W        W62141  13.359  28.729   4.768
96882W        W62142  33.603   3.219  12.188
96883W        W62143  27.580  35.139  14.234
96884W        W62144  18.100  32.137   3.058
96885W        W62145  28.287   1.664  13.431
96886W        W62146  13.213   8.903   3.982
96887W        W62147  38.215   5.131  14.368
96888W        W62148  33.334  24.647   0.744
96889W        W62149  43.815   6.573  14.974
96890W        W62150   2.684  29.082  13.992
96891W        W62151  22.795  40.887  13.983
96892W        W62152  36.448  22.781  14.544
96893W        W62153  31.125  19.100   0.983
96894W        W62154  26.117   8.416  13.691
96895W        W62155  22.935   6.875  12.487
96896W        W62156  16.448   0.398  10.635
96897W        W62157   5.370  31.291  11.601
96898W        W62158   4.928  20.672   2.121
96899W        W62159   8.906  29.492  13.005
96900W        W62160   4.941  27.206  14.947
96901W        W62161  15.654   3.531  14.049
96902W        W62162  29.374  30.645  10.674
96903W        W62163  38.704   0.136   4.926
96904W        W62164  40.524  24.132   1.673
96905W        W62165  33.426  16.121  12.606
96906W        W62166  22.551  36.528   2.630
96907W        W62167  38.075  25.943  13.861
96908W        W62168  18.303  42.829   1.294
96909W        W62169  22.345  14.612  14.019
96910W        W62170  30.553  18.764   4.144
96911W        W62171   1.706  20.685  12.050
96912W        W62172  44.719   8.801  11.074
96913W        W62173  34.771  17.095   0.354
96914W        W62174  13.833  36.945   3.724
96915W        W62175  28.158  38.628   3.444
96916W        W62176  19.336  15.661   3.246
96917W        W62177  33.391  44.583  11.386
96918W        W62178  19.500  34.259  13.477
96919W        W62179  12.500  18.356   2.293
96920W        W62180  37.981  44.329   1.760
96921W        W62181  41.409  40.486  12.832
96922W        W62182   7.899  18.801   2.058
96923W        W62183   2.968  11.789   2.396
96924W        W62184  15.030  28.063   2.397
96925W        W62185  33.560  28.889   2.919
96926W        W62186  27.194  43.864   4.256
96927W        W62187  41.813  22.955  10.887
96928W        W62188  35.387  42.463   4.604
96929W        W62189  21.873   6.188  13.039
96930W        W62190  10.694  38.558  14.769
96931W        W62191  10.319  13.423  12.464
96932W        W62192  17.075  19.575  12.553
96933W        W62193  21.750  43.216  14.948
96934W        W62194  22.906  30.500  11.964
96935W        W62195  39.076  14.819  12.464
96936W        W62196  23.148  22.324  14.476
96937W        W62197  37.504   4.530  14.430
96938W        W62198  21.045  19.698   3.034
96939W        W62199  11.413  32.731  14.938
96940W        W62200  26.727  30.260  14.589
96941W        W62201  16.615  21.335   4.308
96942W        W62202  44.836  28.115   1.740
96943W        W62203  15.115  42.329  13.632
96944W        W62204  34.842  23.063  13.919
96945W        W62205  31.583  13.426  11.096
96946W        W62206  34.012  14.813   1.455
96947W        W62207  43.824  19.705   1.253
96948W        W62208   6.930  37.969   2.211
96949W        W62209   1.231  37.169  13.706
96950W        W62210  33.947   3.117   1.216
96951W        W62211   5.460  20.060   1.688
96952W        W62212  12.845  10.849   3.061
96953W        W62213  39.769  14.588   3.876
96954W        W62214  15.237  38.050   2.461
96955W        W62215  21.128   5.894  10.247
96956W        W62216  22.737  44.309   0.853
96957W        W62217   2.245  41.200  11.606
96958W        W62218  12.314  39.656  12.690
96959W        W62219   3.136  15.678  10.665
96960W        W62220  33.377  12.140  14.455
96961W        W62221  27.156  30.579   0.499
96962W        W62222  31.831  25.569   0.818
96963W        W62223  43.059   1.092  11.147
96964W        W62224  33.457  16.013   4.527
96965W        W62225  43.815  14.506  13.007
96966W        W62226  28.020  21.429  13.254
96967W        W62227  18.709  33.282  10.252
96968W        W62228  41.771  15.263   3.253
96969W        W62229  34.027   3.414   4.131
96970W        W62230   1.106  38.740   1.529
96971W        W62231  24.126   0.599   3.938
96972W        W62232  22.033   1.547   4.076
96973W        W62233  11.360  40.886   2.258
96974W        W62234   1.257  18.436   3.058
96975W        W62235  34.622  33.039  11.134
96976W        W62236  30.663  15.692  14.801
96977W        W62237  13.757  15.944   3.552
96978W        W62238   2.920  37.113  13.459
96979W        W62239  31.831  39.799   4.593
96980W        W62240  23.970  24.603  13.313
96981W        W62241  29.837  11.644   2.814
96982W        W62242  11.528  29.396   2.017
96983W        W62243  42.782  44.718   4.334
96984W        W62244  33.964   6.748   1.063
96985W        W62245  27.788  22.971  14.031
96986W        W62246  43.014   8.852   2.785
96987W        W62247  27.441  35.540   2.875
96988W        W62248  21.528  41.432   4.727
96989W        W62249  22.289  25.423  11.500
96990W        W62250  15.583   4.943  12.441
96991W        W62251  41.962  11.594   2.231
96992W        W62252   3.370  38.578   0.504
96993W        W62253  19.771  25.132  13.831
96994W        W62254  17.317   1.296  12.856
96995W        W62255   6.237  20.242   2.346
96996W        W62256  18.939  22.951   4.706
96997W        W62257   5.082   9.298  10.901
96998W        W62258  18.066  31.409  10.994
96999W        W62259  40.579  18.683   4.683
97000W        W62260  25.078   4.932  12.202
97001W        W62261  21.714  22.749   3.728
97002W        W62262  33.798  12.895  13.340
97003W        W62263  30.177  12.362   2.234
97004W        W62264  10.905  41.592  12.175
97005W        W62265  10.949  39.815  12.151
97006W        W62266   5.438  31.648   1.257
97007W        W62267   2.345   4.242   1.057
97008W        W62268  41.436  38.589  13.066
97009W        W62269  33.082  28.758   2.674
97010W        W62270  22.726  27.607  11.525
97011W        W62271  41.361  15.802   0.015
97012W        W62272  27.585  25.088   3.024
97013W        W62273  16.413  43.121   0.942
97014W        W62274  33.100   2.824   1.650
97015W        W62275  38.564  10.903   4.108
97016W        W62276  32.825  24.464   4.985
97017W        W62277  17.569  44.273   0.429
97018W        W62278  32.311  26.994   0.913
97019W        W62279  10.327   4.483  11.993
97020W        W62280  19.012  26.182  11.047
97021W        W62281   7.661  28.245   0.176
97022W        W62282  19.678  40.533  13.883
97023W        W62283   0.824  16.391   0.295
97024W        W62284   4.382  29.251   1.242
97025W        W62285  37.916  38.292   1.679
97026W        W62286  32.589  43.533  13.849
97027W        W62287  33.014  19.348  14.755
97028W        W62288  36.122  38.930   1.244
97029W        W62289  44.871   3.762   0.372
97030W        W62290  28.983  22.132   2.802
97031W        W62291   5.910  32.044  11.929
97032W        W62292  40.236  27.154   1.311
97033W        W62293  25.613  38.152   3.604
97034W        W62294  25.984  10.309   0.801
97035W        W62295   3.886  42.096  13.879
97036W        W62296  26.208  27.112  13.848
97037W        W62297  24.257  21.639  13.912
97038W        W62298  23.130  17.044   3.287
97039W        W62299  40.327  40.034   0.654
97040W        W62300  18.646  42.882  11.265
97041W        W62301  41.311  10.721  14.917
97042W        W62302  24.439  41.350   1.375
97043W        W62303  10.436  19.070   1.756
97044W        W62304  38.560  42.269  14.502
97045W        W62305  28.592  10.869   3.153
97046W        W62306  36.397  39.172  12.054
97047W        W62307  41.634  22.203   0.512
97048W        W62308  22.404   9.004  10.265
97049W        W62309  28.895  36.898  12.240
97050W        W62310  32.356   3.367  14.860
97051W        W62311   4.992   3.844   1.046
97052W        W62312  33.664   6.459   3.603
97053W        W62313  32.319  15.070  10.916
97054W        W62314  43.135   4.155  13.490
97055W        W62315   9.898  40.411  14.509
97056W        W62316  14.073  31.811   3.244
97057W        W62317   5.733   8.123  10.619
97058W        W62318   7.595  39.030  10.744
97059W        W62319  19.979  40.287  12.595
97060W        W62320   2.113   3.680   1.317
97061W        W62321  34.526   1.035  14.836
97062W        W62322  21.099   3.496   2.211
97063W        W62323  30.267  43.141   4.648
97064W        W62324  42.577  31.059  12.635
97065W        W62325  42.262  17.288  12.938
97066W        W62326   0.387  13.359   0.858
97067W        W62327  25.928  11.747  12.438
97068W        W62328  18.822  24.458  12.636
97069W        W62329  30.075  14.683   0.421
97070W        W62330  13.159  15.700   4.636
97071W        W62331  10.730  38.980   2.832
97072W        W62332  17.393  39.325   4.065
97073W        W62333   4.234  42.346   3.731
97074W        W62334  40.606  13.413  13.497
97075W        W62335  24.757  31.690  12.808
97076W        W62336   5.973  29.952  11.472
97077W        W62337  27.984  40.083   1.803
97078W        W62338  35.473  14.492   2.175
97079W        W62339  43.028  27.124   0.278
97080W        W62340  28.821  36.971   2.635
97081W        W62341  34.818   6.018  11.975
97082W        W62342   4.920  27.129  11.126
97083W        W62343   9.564  37.048  12.884
97084W        W62344  29.524  25.505  14.990
97085W        W62345  21.294  22.240   0.747
97086W        W62346  10.181  40.427  13.158
97087W        W62347  26.953  16.077  12.425
97088W        W62348  43.878   7.155  10.867
97089W        W62349  26.619  24.145   2.157
97090W        W62350  43.158  44.261  12.464
97091W        W62351   1.832   6.423  13.495
97092W        W62352  43.984  15.093  14.267
97093W        W62353  37.359   3.434  10.506
97094W        W62354  37.133   8.865   0.366
97095W        W62355  10.163   6.330  13.150
97096W        W62356   6.987  27.516  12.304
97097W        W62357  29.401  22.459  12.983
97098W        W62358  32.456  11.848   1.085
97099W        W62359   5.296  29.105  14.423
97100W        W62360  22.798  28.077   1.356
97101W        W62361  41.920   6.641   1.335
97102W        W62362  39.948  14.050  14.512
97103W        W62363  32.011  11.720  12.383
97104W        W62364  10.142  18.682   3.670
97105W        W62365  30.852  30.703   2.665
97106W        W62366   0.567  12.942  11.135
97107W        W62367  32.933  26.738  14.808
97108W        W62368  14.276  37.941   1.858
97109W        W62369  40.864  12.598  12.056
97110W        W62370  32.164   5.005   2.827
97111W        W62371  15.014  26.310  11.686
97112W        W62372  20.329  27.677   3.339
97113W        W62373  21.043   3.345  14.492
97114W        W62374  10.839  39.434  14.571
97115W        W62375   6.673  34.233   0.480
97116W        W62376   4.272   7.172  10.735
97117W        W62377  14.049  21.255   2.886
97118W        W62378  12.473  44.604  12.558
97119W        W62379  37.019   6.825   3.995
97120W        W62380  41.365  32.202  11.232
97121W        W62381   4.656  24.464   1.335
97122W        W62382  10.822  10.441   2.528
97123W        W62383  17.276  12.923  13.072
97124W        W62384   1.696  14.168  11.576
97125W        W62385  26.446   1.864   4.042
97126W        W62386   1.896   2.710   5.126
97127W        W62387  10.762  28.594   0.239
97128W        W62388  40.397  30.578  12.273
97129W        W62389  35.890  13.097   1.194
97130W        W62390  10.296  43.566   3.680
97131W        W62391  16.865  35.841   0.928
97132W        W62392  33.055  25.729  12.922
97133W        W62393  37.787   3.300   4.241
97134W        W62394  35.012  14.605   3.238
97135W        W62395  10.282  11.722  14.591
97136W        W62396  16.695   4.830   2.881
97137W        W62397   4.198  36.411  11.585
97138W        W62398  17.200  31.704   4.533
97139W        W62399  42.396  33.544   4.668
97140W        W62400  38.013  30.865  14.985
97141W        W62401  38.835  42.669  12.052
97142W        W62402   3.275   5.622  14.816
97143W        W62403  24.905  44.392  10.784
97144W        W62404  34.358  27.250   4.239
97145W        W62405  38.300   0.185  14.002
97146W        W62406   1.831   0.906   3.540
97147W        W62407   2.950  44.068  13.829
97148W        W62408  43.736  24.846   4.598
97149W        W62409  19.691  32.099   4.096
97150W        W62410  25.586  33.530  12.927
97151W        W62411  27.865  19.423   1.741
97152W        W62412  22.279  43.372  14.858
97153W        W62413   5.516   9.161   4.514
97154W        W62414  43.007   0.553  11.111
97155W        W62415  14.199  29.204  13.573
97156W        W62416  42.790  11.259   0.446
97157W        W62417  15.118  14.387  10.450
97158W        W62418  39.144  10.903  12.683
97159W        W62419  31.990  23.983  10.746
97160W        W62420  16.624  24.537  11.505
97161W        W62421  17.390  21.360  14.582
97162W        W62422  34.620  37.972   3.817
97163W        W62423   4.209   3.385   3.212
97164W        W62424  31.025   5.642  13.553
97165W        W62425  12.496   9.905  13.317
97166W        W62426   4.947  42.877  14.047
97167W        W62427  23.105   9.059  11.735
97168W        W62428  17.793  15.340   1.147
97169W        W62429   7.479  11.870  14.381
97170W        W62430  39.357   1.879  11.979
97171W        W62431  27.194   0.127   4.852
97172W        W62432  22.032  29.554  14.366
97173W        W62433  26.262  20.577  12.548
97174W        W62434  27.627   1.331  13.608
97175W        W62435   9.134  13.793  14.456
97176W        W62436  37.045  15.158  13.428
97177W        W62437   5.975  42.741   4.089
97178W        W62438  29.516   0.412  12.596
97179W        W62439   7.676   3.876  11.566
97180W        W62440  14.171  24.920   3.645
97181W        W62441  28.397  23.805  12.030
97182W        W62442  21.045   6.359   4.128
97183W        W62443  29.146  30.662  14.505
97184W        W62444  23.961  42.398   0.037
97185W        W62445   1.201  26.020   2.623
97186W        W62446  34.379  24.030  11.168
97187W        W62447  14.555  43.276  12.495
97188W        W62448  39.772  28.883  10.646
97189W        W62449  27.833  39.916   4.425
97190W        W62450  17.432  31.562  14.302
97191W        W62451  30.530   1.397  12.608
97192W        W62452  34.646  26.568  12.015
97193W        W62453  40.543  17.281   3.509
97194W        W62454  22.218  24.480   3.890
97195W        W62455  18.584  26.014   4.720
97196W        W62456  27.054  24.460  14.522
97197W        W62457  35.406   7.144   1.348
97198W        W62458  16.595  38.912  13.851
97199W        W62459   2.663   4.311  12.935
97200W        W62460  14.996  14.498  12.541
97201W        W62461  19.657   9.175  14.471
97202W        W62462  27.085  19.153   0.701
97203W        W62463  21.935   0.877   0.348
97204W        W62464  16.497  12.939   3.070
97205W        W62465  41.270  17.283   1.877
97206W        W62466  15.868   9.429  10.649
97207W        W62467  32.030  34.986   3.165
97208W        W62468   6.505   6.819  14.907
97209W        W62469   6.143  15.058  14.044
97210W        W62470  43.635  34.827   0.238
97211W        W62471  38.354   6.965   3.346
97212W        W62472   8.374  16.459   1.928
97213W        W62473  29.145  24.660  14.923
97214W        W62474  42.319  29.088  12.490
97215W        W62475  16.102  35.454   2.860
97216W        W62476   8.796  25.232   4.566
97217W        W62477  38.923   7.467   2.809
97218W        W62478  30.045   3.879   2.230
97219W        W62479  38.620   0.766   1.274
97220W        W62480  21.268  43.845   4.088
97221W        W62481   5.863   4.425  11.193
97222W        W62482  15.103  31.069   4.603
97223W        W62483  24.140  20.690  11.190
97224W        W62484  11.213   3.143   0.386
97225W        W62485   8.733  23.788  11.735
97226W        W62486   4.672  13.708  13.355
97227W        W62487  17.255  40.598  11.659
97228W        W62488  18.704  39.632  14.307
97229W        W62489  19.274  25.768  11.193
97230W        W62490  33.913   1.323  10.148
97231W        W62491  12.752  33.167  11.936
97232W        W62492  25.939  32.581  11.441
97233W        W62493  41.428  15.841   0.543
97234W        W62494   7.305  22.671  12.919
97235W        W62495  36.120   2.950   0.888
97236W        W62496   0.893  17.984  10.659
97237W        W62497  19.596  35.926   4.113
97238W        W62498  31.206  19.197   2.429
97239W        W62499  27.485  43.421   1.309
97240W        W62500   7.382  20.056  13.891
97241W        W62501  17.217   8.755  11.179
97242W        W62502  32.095   3.845   3.991
97243W        W62503   8.593   6.251  11.706
97244W        W62504  12.423  28.461   3.731
97245W        W62505   8.600  18.536   1.115
97246W        W62506  13.245  43.575  14.016
97247W        W62507  20.958   6.683   2.817
97248W        W62508  34.851   3.490   4.188
97249W        W62509  18.308   9.610  12.641
97250W        W62510  29.284   1.492   4.211
97251W        W62511  27.600  25.056  13.455
97252W        W62512  31.586   5.605  14.889
97253W        W62513  43.188  39.354  12.092
97254W        W62514  28.701  16.261  11.987
97255W        W62515   7.748  26.750   0.051
97256W        W62516  41.758  23.374   1.401
97257W        W62517  19.210  29.018  12.940
97258W        W62518   9.609  36.438   2.475
97259W        W62519  28.953  33.861  13.910
97260W        W62520  23.214  16.992  13.959
97261W        W62521   0.785  42.982  11.500
97262W        W62522   0.683  43.699  14.497
97263W        W62523  40.357  18.247  12.036
97264W        W62524  27.675   8.885   0.678
97265W        W62525   2.298  23.271  12.065
97266W        W62526   2.393  44.402   1.986
97267W        W62527  30.884   9.246  11.370
97268W        W62528  29.430  27.101  13.878
97269W        W62529   0.435  18.191   3.124
97270W        W62530   3.025   4.398   1.797
97271W        W62531  18.809  16.673  14.774
97272W        W62532  30.126   1.157  12.362
97273W        W62533   3.263  31.352   0.415
97274W        W62534  35.322  32.040   0.825
97275W        W62535   2.319  25.289  13.750
97276W        W62536   2.188  42.405   3.401
97277W        W62537   6.869  17.083   0.381
97278W        W62538  29.232   7.088   1.919
97279W        W62539   5.929  10.637  11.936
97280W        W62540  24.995  34.490   4.143
97281W        W62541  19.268  16.078  13.425
97282W        W62542  37.746  38.517  14.988
97283W        W62543  10.727  34.001   1.235
97284W        W62544  33.462  10.632  12.892
97285W        W62545  23.144  18.405   2.139
97286W        W62546  38.765  27.609  11.886
97287W        W62547  17.285  10.167  10.629
97288W        W62548  18.491  14.739   2.746
97289W        W62549  17.152  32.928   3.630
97290W        W62550  22.512  17.726   5.011
97291W        W62551  16.162   5.329   0.871
97292W        W62552   9.613   3.502   2.301
97293W        W62553  31.957  24.488  12.468
97294W        W62554   6.191  17.991  13.085
97295W        W62555   4.721  24.508   3.289
97296W        W62556   0.626  32.594  10.719
97297W        W62557  28.164  31.538  10.378
97298W        W62558  27.712   8.788  14.163
97299W        W62559  34.395  34.290   4.869
97300W        W62560  43.579  15.900   0.870
97301W        W62561   7.323  14.211   0.242
97302W        W62562  18.992  38.914   1.189
97303W        W62563  30.356  23.155  13.814
97304W        W62564  17.443  36.870  11.732
97305W        W62565  15.965  38.530   0.838
97306W        W62566  32.357  10.407  11.093
97307W        W62567  33.981  20.796   0.399
97308W        W62568  44.452  10.147   1.922
97309W        W62569  27.391  21.857  11.570
97310W        W62570   8.398  29.191   2.005
97311W        W62571  34.132   2.153  10.628
97312W        W62572  27.147  10.094   2.376
97313W        W62573  35.449  18.839   3.633
97314W        W62574   2.019  18.101   0.366
97315W        W62575  24.910  21.752   0.573
97316W        W62576  39.555  22.227   3.202
97317W        W62577  41.180  32.417  14.446
97318W        W62578  37.972  44.915   2.833
97319W        W62579   3.990  33.715  10.105
97320W        W62580   7.727  27.383  14.519
97321W        W62581  17.323   9.098  13.507
97322W        W62582   5.620  23.613   2.216
97323W        W62583  34.547  25.304  10.726
97324W        W62584  22.763   2.653   5.216
97325W        W62585   5.840  35.369  14.840
97326W        W62586   3.740  15.360   2.304
97327W        W62587  18.180  33.549   0.213
97328W        W62588  29.706  32.832   0.851
97329W        W62589  22.038  16.508  13.269
97330W        W62590  30.299  26.172   1.355
97331W        W62591  16.575  37.943  12.561
97332W        W62592  18.872  20.235  11.605
97333W        W62593   5.373  15.629   1.226
97334W        W62594  39.384  41.886   2.227
97335W        W62595  14.357  27.016  14.485
97336W        W62596   8.915  44.898   2.762
97337W        W62597   1.902  28.873  13.010
97338W        W62598  33.001   6.123  12.420
97339W        W62599  40.820  13.750  12.547
97340W        W62600  27.680  21.762   4.836
97341W        W62601  14.728  39.776   4.517
97342W        W62602  19.560  25.663   2.745
97343W        W62603   0.337   4.431  13.991
97344W        W62604  13.960  30.504   1.920
97345W        W62605   2.345  20.228   0.480
97346W        W62606  17.628   7.762   0.809
97347W        W62607  28.233   4.147   0.750
97348W        W62608  10.812   3.428  11.164
97349W        W62609  35.914   2.840  14.367
97350W        W62610   4.917   4.213   0.474
97351W        W62611  25.511  40.772  13.465
97352W        W62612  28.941  25.482  10.774
97353W        W62613  19.105   6.277  13.461
97354W        W62614  22.224   9.136   4.143
97355W        W62615  25.591  38.380  13.505
97356W        W62616  44.413   0.048  11.626
97357W        W62617  20.016  13.911   1.162
97358W        W62618  37.542  18.005   0.364
97359W        W62619  28.605   2.723  12.647
97360W        W62620  16.905   5.927   2.369
97361W        W62621  40.906   1.618   0.686
97362W        W62622  38.420  16.490  10.663
97363W        W62623   7.853  42.148  10.753
97364W        W62624   0.408  22.735   3.685
97365W        W62625  11.509  33.777  10.097
97366W        W62626  11.237  40.538   2.855
97367W        W62627  16.141  34.450  12.118
97368W        W62628  10.380  42.986   0.972
97369W        W62629  42.526  23.997  11.429
97370W        W62630  35.147   2.771  12.987
97371W        W62631  24.787  36.937  10.338
97372W        W62632  23.187  35.558   1.317
97373W        W62633  24.608  27.583  14.867
97374W        W62634   0.766  36.563  14.867
97375W        W62635  39.060  10.595   0.818
97376W        W62636  24.348   4.839  13.085
97377W        W62637  43.871  34.975  12.133
97378W        W62638  42.908  41.457  11.909
97379W        W62639  16.082   8.640   4.994
97380W        W62640  26.634  21.578   1.669
97381W        W62641  26.417   4.747   3.526
97382W        W62642  11.811  13.324   1.724
97383W        W62643  23.545  38.362   3.217
97384W        W62644  41.522  27.284   1.007
97385W        W62645   6.181  10.237   0.255
97386W        W62646  20.265  42.970  11.290
97387W        W62647  40.022  42.246  12.541
97388W        W62648  33.530  22.224  12.516
97389W        W62649  26.163  44.780   4.332
97390W        W62650  26.245   0.671  13.107
97391W        W62651  12.647  12.635  11.205
97392W        W62652   5.710  26.275  11.210
97393W        W62653  23.544  28.206  13.048
97394W        W62654  14.145  32.458   0.359
97395W        W62655  40.265   5.249   1.707
97396W        W62656  32.823  11.142   0.731
97397W        W62657  12.730   9.424   3.415
97398W        W62658   2.897  32.573  14.752
97399W        W62659  31.761  16.788  12.864
97400W        W62660  12.120  27.141  11.491
97401W        W62661  39.467  37.082  12.228
97402W        W62662  42.438  17.111   2.494
97403W        W62663  35.649  16.005  12.296
97404W        W62664  44.310  15.883  14.846
97405W        W62665   4.771  17.339   1.789
97406W        W62666   5.230  42.578  13.065
97407W        W62667  28.988   5.848  11.192
97408W        W62668  36.522   3.935  12.374
97409W        W62669  14.009  15.181   4.737
97410W        W62670  19.640  16.839  12.487
97411W        W62671  19.787   7.849  14.279
97412W        W62672  41.084  27.525   3.265
97413W        W62673  11.603  22.264   3.756
97414W        W62674  13.431  44.085   1.174
97415W        W62675  37.784  24.508   3.841
97416W        W62676  15.898  44.366   0.939
97417W        W62677  38.979   9.966   4.277
97418W        W62678  11.354  43.000  12.891
97419W        W62679  22.623  20.610   1.459
97420W        W62680  36.119   4.711   3.182
97421W        W62681  13.144  37.824  14.874
97422W        W62682  40.561  43.964   3.654
97423W        W62683  10.015  18.055   1.353
97424W        W62684  21.489  18.758  14.960
97425W        W62685  38.243  38.996  13.125
97426W        W62686  18.210  25.052  12.818
97427W        W62687  32.376  22.663  14.788
97428W        W62688   8.692  42.514  13.533
97429W        W62689  40.364   7.377   5.012
97430W        W62690   0.449  33.469  11.179
97431W        W62691   5.868   5.184   1.052
97432W        W62692  12.379  38.865   0.362
97433W        W62693  37.359  12.776   3.736
97434W        W62694  21.104  38.882   1.205
97435W        W62695  19.540  36.992  10.462
97436W        W62696  12.912   5.748   3.133
97437W        W62697   2.760  36.619   4.567
97438W        W62698  16.806   9.091  11.053
97439W        W62699  28.729  12.352  12.517
97440W        W62700  41.740   1.809  12.990
97441W        W62701  29.676  16.562   2.960
97442W        W62702  41.347   4.185   0.017
97443W        W62703  22.246  33.188  12.510
97444W        W62704  10.196  33.016   4.709
97445W        W62705  42.447  41.373   0.225
97446W        W62706  23.467  15.351  11.336
97447W        W62707  38.533   6.759   3.775
97448W        W62708  16.081  27.122   0.322
97449W        W62709  28.700  42.899  11.939
97450W        W62710   8.121  34.060  13.085
97451W        W62711  11.629  16.725   1.652
97452W        W62712  14.289  42.159  11.331
97453W        W62713  40.295  16.384   0.496
97454W        W62714  14.665  18.197  12.920
97455W        W62715   6.317  13.805  14.896
97456W        W62716  39.106  18.035   3.874
97457W        W62717  40.324   6.329  12.073
97458W        W62718  24.230   5.192  12.560
97459W        W62719  18.989  27.063  12.895
97460W        W62720   2.759  15.511  14.373
97461W        W62721  38.143  26.501  12.599
97462W        W62722  23.990  23.130   3.425
97463W        W62723  29.159  35.455   4.281
97464W        W62724   6.258  23.610   1.166
97465W        W62725  27.625   6.885   3.279
97466W        W62726  14.655   9.368   3.166
97467W        W62727  44.002  23.020  10.786
97468W        W62728   4.023  43.749  11.425
97469W        W62729  13.492   2.371   3.818
97470W        W62730  41.502  41.281  13.886
97471W        W62731  21.438  10.969   4.415
97472W        W62732  32.066  16.631   2.246
97473W        W62733  43.960  10.005   1.959
97474W        W62734  34.957  38.291   3.133
97475W        W62735  21.932  13.724   0.910
97476W        W62736  28.974  27.987   0.468
97477W        W62737   1.765  30.480   2.992
97478W        W62738  23.658  24.203  13.036
97479W        W62739   6.295  40.993  13.024
97480W        W62740  41.047  17.296  11.680
97481W        W62741   5.972  29.646  11.048
97482W        W62742   2.757  42.732   5.206
97483W        W62743   4.924  17.017   4.335
97484W        W62744  20.910  35.552   4.176
97485W        W62745  16.616   9.583   3.328
97486W        W62746  30.100  31.866  14.318
97487W        W62747  33.864   1.000   1.962
97488W        W62748  24.991  13.170  10.700
97489W        W62749  44.953   5.332   0.512
97490W        W62750   8.861   4.595   0.461
97491W        W62751  19.466  23.098   3.515
97492W        W62752  33.314  24.233  14.829
97493W        W62753   9.615  30.402   1.728
97494W        W62754  24.242  36.546   0.959
97495W        W62755   1.290   6.830   4.793
97496W        W62756   1.823  20.519  10.655
97497W        W62757   8.748   3.057  13.888
97498W        W62758  39.474   6.613  13.867
97499W        W62759  16.323  27.630  11.096
97500W        W62760  40.931  37.556   4.121
97501W        W62761   2.458  34.571  12.425
97502W        W62762  30.954   9.138  13.129
97503W        W62763  28.073   1.925   0.291
97504W        W62764  43.524  15.350  11.032
97505W        W62765   0.105  14.392   0.417
97506W        W62766  34.435  10.701   1.398
97507W        W62767  36.876   5.518  14.952
97508W        W62768  21.251  35.077   4.102
97509W        W62769   8.445  28.660  11.588
97510W        W62770  18.778   7.608   3.554
97511W        W62771  25.586  44.875  13.813
97512W        W62772  19.502  29.779  11.292
97513W        W62773  42.277  10.882  14.999
97514W        W62774   2.467  25.534  13.319
97515W        W62775  26.217  20.193  14.696
97516W        W62776   8.200  37.824   1.814
97517W        W62777  30.142  22.952   1.185
97518W        W62778  30.474   4.926   1.705
97519W        W62779   2.569  36.067   0.221
97520W        W62780  30.631  20.134  10.894
97521W        W62781  13.641  11.691  13.855
97522W        W62782  18.211  17.597  10.295
97523W        W62783  22.083  15.926  11.240
97524W        W62784   5.338   9.305  11.866
97525W        W62785  16.998  12.689   2.081
97526W        W62786   7.287   7.833  11.561
97527W        W62787  29.456   6.953  13.931
97528W        W62788  36.872  18.704   1.920
97529W        W62789  33.524   4.787   1.761
97530W        W62790  18.635   6.764   2.345
97531W        W62791  38.363   6.440  13.606
97532W        W62792  43.582  37.635   2.816
97533W        W62793  18.074  43.701   3.217
97534W        W62794   4.024  36.569  12.502
97535W        W62795  31.704  10.581  12.355
97536W        W62796  28.071  13.021  10.622
97537W        W62797  14.532  27.454  11.508
97538W        W62798  28.343  30.450   2.738
97539W        W62799  31.167   5.335  11.769
97540W        W62800  12.968   3.431  10.278
97541W        W62801  27.416  38.091   3.789
97542W        W62802  29.519  41.299   4.602
97543W        W62803  11.989  18.346   2.217
97544W        W62804  32.180  34.017   1.204
97545W        W62805  12.365  10.237   3.129
97546W        W62806   1.541  22.981  14.228
97547W        W62807   4.798  42.302   1.825
97548W        W62808  27.576  32.636   1.238
97549W        W62809  40.257  14.421  13.745
97550W        W62810   3.903  10.235   2.838
97551W        W62811  44.849   3.755   4.989
97552W        W62812  15.051  39.852   1.955
97553W        W62813  38.823  40.648   4.670
97554W        W62814  36.515  38.237   1.788
97555W        W62815  14.237   3.183  14.434
97556W        W62816  28.058  21.502   4.598
97557W        W62817   8.474  18.744  14.321
97558W        W62818  43.246  39.776   0.800
97559W        W62819  24.325   5.903   5.441
97560W        W62820  35.555  31.822  12.757
97561W        W62821  41.045  26.586   2.008
97562W        W62822  15.607  16.136   0.239
97563W        W62823  25.781  30.082   3.175
97564W        W62824   9.200  13.358   4.245
97565W        W62825  17.208  27.157   4.798
97566W        W62826  24.160  24.880   4.426
97567W        W62827  15.762  42.522   3.618
97568W        W62828  24.480   7.691  10.743
97569W        W62829  22.219  21.591   3.390
97570W        W62830  13.501  12.734   2.672
97571W        W62831  27.966  13.265   1.635
97572W        W62832  37.995  30.748  13.492
97573W        W62833  42.676  14.449   3.645
97574W        W62834  36.455  17.735  12.112
97575W        W62835  31.305  33.521  14.994
97576W        W62836  17.749  37.109   3.085
97577W        W62837  16.641  39.060   4.187
97578W        W62838   2.254  12.842   0.202
97579W        W62839  17.600  26.290   1.711
97580W        W62840  31.763  43.245   1.413
97581W        W62841  39.995  16.011   3.740
97582W        W62842  21.699  19.072   2.079
97583W        W62843   0.250  12.409   0.959
97584W        W62844  43.785  37.743   0.291
97585W        W62845   2.957   4.358  11.564
97586W        W62846  23.668  17.404  10.221
97587W        W62847  22.255  44.466  13.453
97588W        W62848  39.775  19.149   0.695
97589W        W62849  20.901  22.420   0.003
97590W        W62850  22.513   8.901   0.895
97591W        W62851  27.619   3.730   1.860
97592W        W62852  26.429  28.710   0.714
97593W        W62853  29.156  31.181  11.512
97594W        W62854  25.112   6.134   0.287
97595W        W62855  25.937  15.158  11.478
97596W        W62856  15.060   8.545   5.604
97597W        W62857  39.119  25.747  10.941
97598W        W62858  36.860  33.497   0.872
97599W        W62859  23.014  15.279  12.649
97600W        W62860   1.862  33.286  10.687
97601W        W62861  12.665  34.029   1.073
97602W        W62862  33.927  36.354   3.654
97603W        W62863  42.822  20.043   0.169
97604W        W62864  39.876  38.918   0.576
97605W        W62865  36.574  18.316   2.180
97606W        W62866  11.278  41.282  11.410
97607W        W62867  14.880   9.389  14.918
97608W        W62868  14.637  39.249  10.634
97609W        W62869  26.967  23.027   2.719
97610W        W62870  13.576  15.348  11.280
97611W        W62871  10.294   7.408  12.550
97612W        W62872  33.438   5.449  13.043
97613W        W62873  11.666   3.946   4.294
97614W        W62874  36.480  16.546   4.178
97615W        W62875  39.737   2.368   0.356
97616W        W62876  12.796  29.936  11.528
97617W        W62877  29.286  33.566  11.907
97618W        W62878  24.549   8.017  11.586
97619W        W62879  17.711  16.995   2.680
97620W        W62880   1.730  27.517  11.509
97621W        W62881  27.703  39.845   0.905
97622W        W62882  13.723  24.589   3.352
97623W        W62883  35.006  23.170  13.099
97624W        W62884  23.501  30.011   3.539
97625W        W62885  32.715  43.221   1.261
97626W        W62886  24.506  31.009   0.748
97627W        W62887  23.943  26.930  11.680
97628W        W62888  28.633  34.871  13.165
97629W        W62889  18.956  13.329   1.637
97630W        W62890  15.843   1.486  12.519
97631W        W62891  28.961  44.867   1.830
97632W        W62892  18.496  22.177  12.960
97633W        W62893  24.038  41.336   2.686
97634W        W62894  34.630  15.341  11.172
97635W        W62895   0.623  35.086   0.871
97636W        W62896  23.832  38.218   3.633
97637W        W62897  24.652   9.881   0.171
97638W        W62898  36.170  42.743   4.579
97639W        W62899   1.476  21.975   2.156
97640W        W62900  28.539  37.019  11.427
97641W        W62901  34.400  27.059   0.780
97642W        W62902  17.462  14.169  14.903
97643W        W62903   4.438   5.522  12.533
97644W        W62904  26.603  34.380  12.069
97645W        W62905   5.413   9.502  10.574
97646W        W62906  42.891  26.471   2.176
97647W        W62907  31.299  41.108  11.687
97648W        W62908  41.826  42.822  14.426
97649W        W62909  37.195   5.884  14.223
97650W        W62910  25.249  14.140  10.618
97651W        W62911  24.568  26.612  12.889
97652W        W62912  11.221  40.506   3.372
97653W        W62913  22.853  24.301   3.161
97654W        W62914  30.580   5.594  10.194
97655W        W62915  33.470  31.207  12.749
97656W        W62916  23.438  10.049   3.172
97657W        W62917   3.258  33.549  12.512
97658W        W62918  41.515  31.448   0.653
97659W        W62919  26.494  25.253   5.079
97660W        W62920   5.334  19.627   0.671
97661W        W62921  31.484  35.845   1.407
97662W        W62922  17.769  42.500   2.382
97663W        W62923  33.342  13.768   3.285
97664W        W62924  11.327  11.344   0.313
97665W        W62925   8.503  19.054  12.963
97666W        W62926  24.479  28.110  14.682
97667W        W62927  20.598  11.726   0.166
97668W        W62928   7.585  30.202   2.945
97669W        W62929  41.440  15.215  14.311
97670W        W62930   6.870  32.412  12.023
97671W        W62931  24.155   1.980   3.235
97672W        W62932   7.980  12.653  11.626
97673W        W62933   8.400  35.470  12.026
97674W        W62934  42.936  17.549  12.880
97675W        W62935  11.783  33.976  14.490
97676W        W62936  21.146  35.908  14.610
97677W        W62937  24.736  27.806  14.305
97678W        W62938   8.183   0.837  11.711
97679W        W62939   2.185  38.832   1.920
97680W        W62940  16.804  39.988  12.364
97681W        W62941  13.734   2.648   4.631
97682W        W62942  28.011  10.699  12.469
97683W        W62943  27.144  15.381   3.577
97684W        W62944   0.895  42.668   3.787
97685W        W62945  16.123   2.932   1.701
97686W        W62946  16.174  35.900  12.102
97687W        W62947  20.708  34.673   0.299
97688W        W62948  18.542  20.242   3.217
97689W        W62949   7.294   3.505  12.841
97690W        W62950  30.281  36.451   0.946
97691W        W62951  21.041  10.749   1.320
97692W        W62952   0.737  36.067   3.282
97693W        W62953  44.586  14.713   4.659
97694W        W62954   1.754  19.744   1.376
97695W        W62955  17.202  44.084  12.634
97696W        W62956   9.629  18.729   2.618
97697W        W62957  12.909  25.986   2.679
97698W        W62958  23.302  44.895  12.438
97699W        W62959  13.773  44.466   3.352
97700W        W62960   9.302  10.692   3.533
97701W        W62961  42.047  10.726  13.425
97702W        W62962  32.119  21.720  11.843
97703W        W62963   2.935   8.868  10.814
97704W        W62964   9.693  22.397   2.465
97705W        W62965   3.661  14.037   2.634
97706W        W62966  32.481  31.177   0.154
97707W        W62967  33.118  24.304   1.640
97708W        W62968  21.423  23.517  13.388
97709W        W62969  20.351   5.455   5.141
97710W        W62970   5.279  17.335   3.794
97711W        W62971   7.406  28.760  11.663
97712W        W62972  24.526   8.859  14.934
97713W        W62973  22.076  12.474  11.940
97714W        W62974  44.372  13.925   5.540
97715W        W62975  27.535  22.387  11.580
97716W        W62976  25.788   7.312   2.443
97717W        W62977   0.320  30.536  10.785
97718W        W62978  19.784  15.045   4.267
97719W        W62979   6.449  19.459  14.795
97720W        W62980  11.818  18.404  11.626
97721W        W62981  15.147  44.406  13.635
97722W        W62982  27.433   6.882  12.434
97723W        W62983  13.791  12.603  11.063
97724W        W62984  42.077   5.896  13.950
97725W        W62985   0.663  39.026   4.299
97726W        W62986  20.565  42.353   4.165
97727W        W62987  19.446  35.528   1.725
97728W        W62988  42.293   5.385   2.272
97729W        W62989  18.718  22.351  11.653
97730W        W62990  36.626  23.157  12.495
97731W        W62991   7.898  31.180   2.725
97732W        W62992   9.320  27.687  13.552
97733W        W62993   1.360  19.203   4.279
97734W        W62994  27.851  21.593   3.563
97735W        W62995  24.200  35.644   2.166
97736W        W62996  15.251  22.091  14.837
97737W        W62997  16.901  16.698   5.447
97738W        W62998  39.480  16.537  12.284
97739W        W62999  28.645  27.682   2.812
97740W        W63000   5.860  13.223  12.072
97741W        W63001  32.372  32.748   2.833
97742W        W63002  23.628  28.894   0.286
97743W        W63003  19.184  22.273  14.708
97744W        W63004  43.057  17.151   4.222
97745W        W63005   0.946   4.250  10.691
97746W        W63006  16.801   3.732   3.353
97747W        W63007  18.166  11.693   3.615
97748W        W63008   9.845  10.922  14.094
97749W        W63009  12.321  31.482   1.872
97750W        W63010  37.631  16.046  12.834
97751W        W63011  33.921  25.175   2.682
97752W        W63012  15.798  29.854   1.275
97753W        W63013   8.224  19.183   2.198
97754W        W63014  38.910  41.402  10.658
97755W        W63015  10.075  22.663  14.895
97756W        W63016  15.569   6.814   4.357
97757W        W63017  25.515   1.144  13.521
97758W        W63018  13.328  30.883  14.945
97759W        W63019  37.979  37.573   0.252
97760W        W63020  44.812  10.209  10.634
97761W        W63021  21.977  11.188   1.834
97762W        W63022   4.062  10.948   3.563
97763W        W63023  18.253  34.038   1.859
97764W        W63024  29.866   4.486  14.890
97765W        W63025   6.240  37.776  12.393
97766W        W63026   6.299  30.248  13.561
97767W        W63027  33.180  30.471   0.279
97768W        W63028  11.898  12.728  10.271
97769W        W63029  21.785  13.270   1.674
97770W        W63030  33.927   7.697  13.841
97771W        W63031   4.134  41.020  11.488
97772W        W63032  36.922  29.402   2.812
97773W        W63033   6.933  14.056  11.974
97774W        W63034  25.601   6.443  12.724
97775W        W63035  27.537  36.190  14.322
97776W        W63036   3.104  23.917  13.003
97777W        W63037  38.253  12.576   0.873
97778W        W63038  21.138  36.806   1.699
97779W        W63039  30.974  13.011   2.398
97780W        W63040   9.391  33.377  11.043
97781W        W63041  39.724  26.371   0.697
97782W        W63042   8.621  20.383   4.873
97783W        W63043  25.290  10.747  11.035
97784W        W63044  31.843  29.559   3.809
97785W        W63045  40.695  26.664   0.547
97786W        W63046  19.232  20.178  13.404
97787W        W63047  43.766   7.477  11.671
97788W        W63048   5.650  20.725   4.150
97789W        W63049   5.284   7.503  11.616
97790W        W63050  35.080  12.252   4.974
97791W        W63051   6.131   8.310  11.353
97792W        W63052  22.154  34.618  10.692
97793W        W63053  11.763  36.125  11.122
97794W        W63054   8.170  24.594  14.470
97795W        W63055  23.243   7.305  12.436
97796W        W63056   9.493  17.854   1.798
97797W        W63057  37.203  42.896  10.371
97798W        W63058  18.599  11.864   4.637
97799W        W63059  22.311  16.864  13.030
97800W        W63060  29.864   7.717   3.918
97801W        W63061  44.378  12.720   3.368
97802W        W63062  17.789  29.581  11.117
97803W        W63063  33.311  32.636  13.002
97804W        W63064  32.892   6.707   3.300
97805W        W63065  36.037  42.840   5.074
97806W        W63066   4.733  37.866  13.170
97807W        W63067  25.152  17.971   1.826
97808W        W63068  41.908  41.931   0.858
97809W        W63069  41.978   5.788  14.952
97810W        W63070  32.203  28.196  10.692
97811W        W63071  36.991  42.891   0.763
97812W        W63072  30.172  12.143  11.260
97813W        W63073   5.634  30.679  12.161
97814W        W63074  19.267   6.900   0.719
97815W        W63075  38.352  20.422  14.321
97816W        W63076   6.687  18.187   1.268
97817W        W63077  12.563   1.376   0.523
97818W        W63078  32.113  19.387  14.549
97819W        W63079  12.133  12.621   2.303
97820W        W63080   0.140  42.114  10.666
97821W        W63081  16.736  44.416   2.225
97822W        W63082  42.366   9.024  11.054
97823W        W63083   0.544   0.750  14.045
97824W        W63084  32.698   7.340  13.458
97825W        W63085  31.515  31.333  10.960
97826W        W63086  11.206  14.846  11.212
97827W        W63087   5.171  19.198   3.205
97828W        W63088   8.593   9.938   1.423
97829W        W63089  34.698  19.104   4.223
97830W        W63090  11.815  26.008   3.959
97831W        W63091  38.367  16.771   2.847
97832W        W63092   0.228  15.476   3.239
97833W        W63093  39.354  21.618  12.051
97834W        W63094  18.474   3.268  11.518
97835W        W63095  29.079   5.485  13.971
97836W        W63096  29.472  34.498  13.606
97837W        W63097   2.032   0.425  13.039
97838W        W63098   0.865  23.454  13.115
97839W        W63099  24.315  24.173   2.161
97840W        W63100  43.677  38.502  13.474
97841W        W63101  34.026  44.304  10.809
97842W        W63102  42.985  17.499   2.036
97843W        W63103  21.957   4.108   2.673
97844W        W63104  20.036  27.923   0.245
97845W        W63105  36.955  25.118   2.268
97846W        W63106  37.097  18.231   2.849
97847W        W63107  26.728   8.859  14.375
97848W        W63108  43.839  27.615  13.233
97849W        W63109  27.433  36.486  13.052
97850W        W63110  26.550  33.078  14.888
97851W        W63111  12.224  28.369  12.559
97852W        W63112  41.362   0.874  14.297
97853W        W63113  37.586  29.350  12.492
97854W        W63114  13.122   6.072   4.090
97855W        W63115  34.012   0.074  11.188
97856W        W63116  43.969  31.506  13.148
97857W        W63117  13.837  14.523   4.310
97858W        W63118  38.968  40.379   0.252
97859W        W63119   8.067  17.080  14.645
97860W        W63120  28.596  13.708   4.142
97861W        W63121   3.997  28.279   3.752
97862W        W63122  16.485   9.827   0.734
97863W        W63123  20.505  38.747  11.032
97864W        W63124  13.879  25.973  13.135
97865W        W63125  44.009  42.538   3.564
97866W        W63126  11.290  36.310  11.187
97867W        W63127   1.368  38.853  14.770
97868W        W63128   6.081  33.407   1.660
97869W        W63129  40.564  41.471   0.385
97870W        W63130  20.345  44.534  12.983
97871W        W63131  35.635  27.520  10.417
97872W        W63132  33.673  31.080  11.971
97873W        W63133  16.500  40.873   4.580
97874W        W63134  34.337  14.441   1.270
97875W        W63135  10.139   5.172   0.455
97876W        W63136  27.070  40.372  13.788
97877W        W63137  24.133  36.674   2.301
97878W        W63138  26.626  20.528   3.410
97879W        W63139  28.196   3.866  13.014
97880W        W63140  23.902   8.313   1.817
97881W        W63141   6.339  20.805   9.930
97882W        W63142   1.798  19.411   4.037
97883W        W63143  24.419  32.003  13.060
97884W        W63144  10.888  30.803   3.341
97885W        W63145  29.008  42.368   2.781
97886W        W63146  35.497  23.997  11.648
97887W        W63147  36.068  27.534  10.715
97888W        W63148   5.872   8.658  12.048
97889W        W63149  26.695  43.566  14.380
97890W        W63150   5.634  38.824  14.369
97891W        W63151   2.526  16.798  13.911
97892W        W63152  28.403   4.914   0.364
97893W        W63153   8.021  18.816  12.215
97894W        W63154  41.937  16.818  14.459
97895W        W63155  17.356  31.015   1.777
97896W        W63156  23.166  12.243  11.664
97897W        W63157  12.626  12.551  11.693
97898W        W63158  12.368  28.480  13.962
97899W        W63159   2.829  42.842   2.350
97900W        W63160  26.418   8.633  14.023
97901W        W63161  31.911   9.810   4.223
97902W        W63162  35.014  25.045  10.546
97903W        W63163  41.307  24.052   4.214
97904W        W63164  40.097  24.273  14.341
97905W        W63165  26.655   3.924  14.399
97906W        W63166   8.870  12.291  11.057
97907W        W63167   8.129   6.406   9.913
97908W        W63168  10.294  28.851  11.743
97909W        W63169   7.441  35.960  13.961
97910W        W63170  12.446  14.701   3.710
97911W        W63171  22.251  10.601  12.754
97912W        W63172   4.399  13.673   4.131
97913W        W63173  20.406   9.434   2.363
97914W        W63174  41.535  32.144  11.720
97915W        W63175  18.124  34.899  10.732
97916W        W63176   4.826  42.943  12.304
97917W        W63177  44.189  43.984   4.660
97918W        W63178  28.075   1.192  13.370
97919W        W63179   9.755  22.507  14.508
97920W        W63180  43.525  29.924   4.037
97921W        W63181  37.604  21.360   0.149
97922W        W63182  22.578  12.178   1.962
97923W        W63183  15.792  30.085  13.024
97924W        W63184  37.014  44.258  13.673
97925W        W63185  25.030  17.160   4.483
97926W        W63186  40.533  19.316  14.884
97927W        W63187   2.129  34.879  11.189
97928W        W63188  37.361   3.539  10.009
97929W        W63189  12.211  17.132   4.640
97930W        W63190  34.120  20.689  14.400
97931W        W63191  39.948   4.206  14.767
97932W        W63192  11.984  40.896   0.694
97933W        W63193  25.444  32.667   2.321
97934W        W63194   9.033  28.461   1.970
97935W        W63195  19.144  42.741   1.911
97936W        W63196  21.749  20.818   3.856
97937W        W63197   1.202  30.701  13.968
97938W        W63198  32.130  16.768   3.228
97939W        W63199  12.634  41.581   0.943
97940W        W63200  41.361  43.621   1.228
97941W        W63201  20.261  36.556   2.693
97942W        W63202  27.973  39.008   3.145
97943W        W63203  29.036  32.326   2.799
97944W        W63204  18.613  32.839   1.647
97945W        W63205  26.628  19.484  10.377
97946W        W63206  16.659  29.465   0.921
97947W        W63207   8.324  42.067   4.720
97948W        W63208   7.229  24.644   2.487
97949W        W63209  31.626  14.199  12.386
97950W        W63210   3.887   3.493   2.305
97951W        W63211  40.747   8.923  13.939
97952W        W63212  24.642  10.450   2.159
97953W        W63213  20.740  10.437   4.212
97954W        W63214  12.925  34.577   3.766
97955W        W63215  36.373  34.613   1.288
97956W        W63216   9.879  10.067   3.205
97957W        W63217  24.928  20.650  13.892
97958W        W63218  22.075  17.780  10.533
97959W        W63219  39.137   2.350  12.019
97960W        W63220  15.662  24.495   4.874
97961W        W63221  10.315  23.566  12.485
97962W        W63222   9.160   9.803  10.735
97963W        W63223  16.816  13.376   2.134
97964W        W63224  37.086  13.094   2.049
97965W        W63225  16.996  37.911   2.716
97966W        W63226   4.230  36.092  11.183
97967W        W63227  30.445  37.290   3.605
97968W        W63228  20.044  16.205   0.388
97969W        W63229  43.297  13.067  14.910
97970W        W63230  21.285   1.765   0.921
97971W        W63231  35.009  19.512   4.122
97972W        W63232  21.219   6.513  11.605
97973W        W63233  24.517  21.827  14.349
97974W        W63234   0.147  21.216   2.232
97975W        W63235  14.484  27.518   1.288
97976W        W63236  31.737  34.510  11.066
97977W        W63237  14.187  21.223   4.167
97978W        W63238  19.702  32.142   0.245
97979W        W63239  40.522  32.952   3.543
97980W        W63240  38.260  41.146   4.860
97981W        W63241  21.683  34.517  13.490
97982W        W63242  21.505   2.035  11.753
97983W        W63243   0.351  20.748   0.244
97984W        W63244  29.106  20.215  13.305
97985W        W63245  36.428  37.543  10.288
97986W        W63246  15.538  41.986   2.740
97987W        W63247   2.613  14.095  11.609
97988W        W63248  12.399  41.072  14.875
97989W        W63249  24.516  20.954  12.964
97990W        W63250  21.987  27.014  11.913
97991W        W63251  28.708   7.860   0.513
97992W        W63252  13.356  23.766   3.708
97993W        W63253  19.037  21.402   3.794
97994W        W63254  23.479  34.594   4.210
97995W        W63255  17.704  38.758  14.261
97996W        W63256  43.967  42.029  14.891
97997W        W63257  16.882  23.697   4.307
97998W        W63258  22.951   6.859   1.732
97999W        W63259  22.715  10.563  12.442
98000W        W63260  28.907  11.249  13.328
98001W        W63261   1.553  13.493   1.222
98002W        W63262  28.970  29.018   2.971
98003W        W63263   4.714  39.428  13.411
98004W        W63264   3.038   8.139  13.955
98005W        W63265  44.754  15.808  12.304
98006W        W63266   0.957  43.099   0.940
98007W        W63267  11.845  27.635   4.106
98008W        W63268  15.187  32.325   1.837
98009W        W63269  13.751   1.381  13.313
98010W        W63270  20.570  42.962   3.587
98011W        W63271  35.400  20.086  14.478
98012W        W63272  12.637   9.430  14.861
98013W        W63273   9.721   7.052   2.682
98014W        W63274   5.171  37.887  12.881
98015W        W63275  43.761  12.076  12.423
98016W        W63276  38.417   4.574   4.004
98017W        W63277  20.560  19.000   5.480
98018W        W63278  22.876  23.164  11.081
98019W        W63279  32.204  40.484   0.908
98020W        W63280  27.490  33.139   0.253
98021W        W63281  41.745  32.513  11.078
98022W        W63282  11.457   4.409  10.535
98023W        W63283   1.908  27.215   2.707
98024W        W63284   3.498  39.281  12.942
98025W        W63285  40.022  28.159   1.756
98026W        W63286  33.082  24.514  13.801
98027W        W63287  40.753  35.428  12.247
98028W        W63288   5.693  38.330   1.199
98029W        W63289  23.737  13.203  13.333
98030W        W63290   9.135  44.698   3.191
98031W        W63291  13.604  38.949  12.920
98032W        W63292  10.567   1.858   1.194
98033W        W63293   1.264  37.126   0.674
98034W        W63294  44.573   3.326   0.369
98035W        W63295  37.396  17.864   3.122
98036W        W63296  21.600  29.571   1.506
98037W        W63297  41.669  34.407  14.971
98038W        W63298  33.113  21.227   1.666
98039W        W63299  35.911  30.855  13.099
98040W        W63300  37.516  35.206   2.396
98041W        W63301  38.678  41.151   4.557
98042W        W63302   8.541   4.714   3.780
98043W        W63303  16.542  17.366   4.051
98044W        W63304   4.611  10.844   3.690
98045W        W63305  15.926  23.067  13.369
98046W        W63306  28.516  33.531   1.728
98047W        W63307  29.481   9.605   1.389
98048W        W63308  14.219   1.740   0.670
98049W        W63309  18.360   4.135   1.625
98050W        W63310  27.441  44.026  12.989
98051W        W63311  12.056  31.633   2.430
98052W        W63312  39.573   3.654  11.436
98053W        W63313  24.600  20.235  11.406
98054W        W63314  30.184  33.844  13.334
98055W        W63315  32.870   9.587   3.189
98056W        W63316  24.775   9.368  12.474
98057W        W63317   3.441   2.456  13.968
98058W        W63318  25.609  18.802  10.724
98059W        W63319  30.513  24.508   0.471
98060W        W63320  14.247   5.687   0.553
98061W        W63321  36.783  35.492  14.812
98062W        W63322  35.653  20.757   0.794
98063W        W63323  23.554  42.891   4.669
98064W        W63324  24.257  44.715   2.715
98065W        W63325  41.071  30.134  11.129
98066W        W63326   6.407  26.975   2.795
98067W        W63327  34.871  28.142  14.900
98068W        W63328  21.511   3.650  14.028
98069W        W63329  28.601  18.334   5.010
98070W        W63330  39.541  37.517   4.092
98071W        W63331  26.095   5.730   3.300
98072W        W63332  22.054  18.637  11.120
98073W        W63333  27.208  35.529   3.350
98074W        W63334  27.501  25.616   0.793
98075W        W63335  35.640  14.034   1.296
98076W        W63336  25.556  11.512   4.624
98077W        W63337  41.393  17.197   0.643
98078W        W63338  19.748  12.597  11.126
98079W        W63339  12.919  43.096   3.585
98080W        W63340  10.439  30.914  10.107
98081W        W63341  22.727   2.000  12.992
98082W        W63342  19.472   6.937   2.809
98083W        W63343  41.077  39.070  11.551
98084W        W63344  24.483  31.445   1.453
98085W        W63345  34.991  36.947   0.359
98086W        W63346  26.405  27.971  11.610
98087W        W63347   9.114  22.129  10.318
98088W        W63348  10.152  25.115   4.259
98089W        W63349  37.455  26.584   2.757
98090W        W63350  18.549   1.393  11.310
98091W        W63351  11.154  13.683  11.994
98092W        W63352  14.712  19.663  13.394
98093W        W63353  10.154  27.978   2.014
98094W        W63354  27.068  42.595  11.107
98095W        W63355  31.910  36.424  11.208
98096W        W63356  11.994  17.707  11.055
98097W        W63357  25.259  21.633   1.595
98098W        W63358  25.092  30.443  14.283
98099W        W63359  43.280  13.742   0.330
98100W        W63360  23.468  21.846  11.319
98101W        W63361  43.733  43.918  14.246
98102W        W63362  16.755  40.906  14.564
98103W        W63363   2.802  20.565   1.975
98104W        W63364  30.569   5.973  12.316
98105W        W63365  25.263  23.001  13.235
98106W        W63366  14.421  41.771   4.132
98107W        W63367  32.671  41.562   4.962
98108W        W63368  21.520  31.235  10.610
98109W        W63369  41.424  13.353   2.262
98110W        W63370  43.036  44.943   3.932
98111W        W63371  19.658  15.349   0.690
98112W        W63372  19.534  28.352  10.464
98113W        W63373   0.433   8.447  14.541
98114W        W63374  35.938   0.212  10.110
98115W        W63375  12.978  22.337   4.221
98116W        W63376  39.929   9.206   2.229
98117W        W63377   7.401  12.057   4.162
98118W        W63378  31.605  15.599   1.219
98119W        W63379  19.444   5.129   4.493
98120W        W63380  22.952  17.455   5.042
98121W        W63381  43.538  24.704   1.795
98122W        W63382  36.023   4.497  14.957
98123W        W63383   2.005  38.812   0.394
98124W        W63384  27.520  41.545   0.183
98125W        W63385  21.682   2.227  10.749
98126W        W63386  15.685  15.311  14.297
98127W        W63387  11.754  38.098   0.894
98128W        W63388  30.676  29.544   0.228
98129W        W63389  32.997  20.824   1.984
98130W        W63390  17.743   9.279  14.848
98131W        W63391   0.782  18.737  13.845
98132W        W63392   1.802  12.202  14.717
98133W        W63393   3.436  24.533   1.934
98134W        W63394  24.432  17.002  12.607
98135W        W63395  31.890   0.429   1.399
98136W        W63396  44.402  19.944  14.589
98137W        W63397  40.909  27.020   1.762
98138W        W63398  18.245   7.021  11.908
98139W        W63399  12.260  42.941   2.306
98140W        W63400  29.744  16.206  13.807
98141W        W63401   4.327  30.896   0.748
98142W        W63402  20.753  13.595   4.218
98143W        W63403  13.164  17.739   2.389
98144W        W63404  43.354  32.412   2.627
98145W        W63405  23.548  30.817  14.974
98146W        W63406  24.203  29.208  11.230
98147W        W63407  20.363  22.185   3.743
98148W        W63408  19.738  19.344   1.570
98149W        W63409   1.248   5.368  14.420
98150W        W63410  25.727  38.804   2.991
98151W        W63411  42.561   3.338   0.399
98152W        W63412   7.002  20.026  11.070
98153W        W63413  36.448  44.335  14.729
98154W        W63414  41.913  13.532  14.414
98155W        W63415  40.794  24.075   4.338
98156W        W63416  11.387  24.329   4.455
98157W        W63417  38.727   8.724   0.940
98158W        W63418  12.856  29.939  14.687
98159W        W63419  25.191  32.113  12.011
98160W        W63420   7.925   2.732   2.272
98161W        W63421   0.087  40.026   4.797
98162W        W63422  11.799  34.601  13.289
98163W        W63423  41.390  38.137   0.209
98164W        W63424  17.087   5.254   0.806
98165W        W63425  23.599  14.726   4.542
98166W        W63426  38.847  18.745  10.243
98167W        W63427   7.365   2.189  12.539
98168W        W63428  39.523  21.881  12.516
98169W        W63429   8.863  25.766  12.504
98170W        W63430  40.215   3.232  11.428
98171W        W63431  28.626  19.194  13.487
98172W        W63432  44.996  31.983   0.847
98173W        W63433  37.955  12.951  12.259
98174W        W63434  44.010  39.840   4.247
98175W        W63435   4.362  18.832   1.331
98176W        W63436  37.855  43.091   2.174
98177W        W63437  16.811   7.276  14.490
98178W        W63438  40.550  22.056   2.624
98179W        W63439  19.311  36.148  12.000
98180W        W63440  36.100  44.961  12.915
98181W        W63441  17.271  26.737   0.976
98182W        W63442  13.808   4.429  11.127
98183W        W63443  41.448  13.307  14.388
98184W        W63444  22.260  37.988   1.848
98185W        W63445   4.717  24.978   1.296
98186W        W63446   3.970   9.090   0.143
98187W        W63447   6.679  13.275  13.893
98188W        W63448   7.780  20.506  12.485
98189W        W63449   1.893   5.044  12.047
98190W        W63450  30.390  16.853  10.675
98191W        W63451  26.522  32.149   2.277
98192W        W63452  33.360   8.990  10.665
98193W        W63453  26.873  23.646   0.663
98194W        W63454  13.148   5.377   0.444
98195W        W63455  31.664  33.390  11.620
98196W        W63456  29.451  43.539  14.021
98197W        W63457  15.822   1.151   4.894
98198W        W63458  10.159  12.940  10.261
98199W        W63459  22.343  28.961  14.958
98200W        W63460   0.279  13.542  14.377
98201W        W63461  40.526   5.809  10.531
98202W        W63462   2.669  36.177  13.257
98203W        W63463   9.122   0.860   1.348
98204W        W63464   2.167  18.838  13.372
98205W        W63465  11.427   7.993  10.366
98206W        W63466   9.895  26.215   2.532
98207W        W63467  16.919  14.272  14.901
98208W        W63468   5.961  13.707  11.961
98209W        W63469  30.139  32.521   3.042
98210W        W63470  31.677  10.707  13.762
98211W        W63471   9.476  31.393  14.893
98212W        W63472  29.819  11.056  13.232
98213W        W63473   2.849  41.747  12.813
98214W        W63474  31.184  16.648   3.186
98215W        W63475  17.267  25.517   3.289
98216W        W63476  25.433  36.933  12.664
98217W        W63477  14.393  28.005   0.498
98218W        W63478  27.966   1.508   1.262
98219W        W63479  15.198  13.149  13.464
98220W        W63480  20.681  33.998   4.038
98221W        W63481   8.473  39.403   3.148
98222W        W63482  11.519  40.906  11.615
98223W        W63483  23.135  12.267   4.034
98224W        W63484  40.799   4.424  13.001
98225W        W63485  39.678  41.359   0.513
98226W        W63486   0.427   7.103   2.727
98227W        W63487   0.580  29.570  13.056
98228W        W63488  26.935   8.045  11.965
98229W        W63489   3.166  26.472  14.874
98230W        W63490  43.046  20.670  13.033
98231W        W63491  13.636  21.084   0.302
98232W        W63492  11.847  19.942   3.251
98233W        W63493   4.329  13.940  14.722
98234W        W63494   0.880  24.621  11.391
98235W        W63495   7.032   1.817  12.137
98236W        W63496  34.914   4.382  13.607
98237W        W63497   0.932  13.432   4.508
98238W        W63498  20.082  33.415   0.468
98239W        W63499   2.967  27.511   3.782
98240W        W63500  25.424  35.266   0.841
98241W        W63501  15.855  33.128  12.506
98242W        W63502  10.879  35.784   2.401
98243W        W63503  11.437  24.431  13.454
98244W        W63504  33.535  40.698  13.246
98245W        W63505  36.580  36.456  13.419
98246W        W63506  25.258  20.046  10.346
98247W        W63507  40.228  20.067   4.942
98248W        W63508  25.396  19.786  11.953
98249W        W63509  27.498  25.253  14.963
98250W        W63510  41.048   2.830   1.673
98251W        W63511  17.921  19.451   1.711
98252W        W63512  30.561   9.943   3.073
98253W        W63513  35.078  12.706  12.450
98254W        W63514  28.099  24.573  11.408
98255W        W63515  36.358  24.876   3.670
98256W        W63516  14.892  44.700   0.304
98257W        W63517  43.341  10.600   1.658
98258W        W63518   5.734  15.098   2.589
98259W        W63519  42.043  17.514   2.683
98260W        W63520  31.484   3.514   4.642
98261W        W63521  42.573  28.262   2.758
98262W        W63522  40.203  34.453   1.790
98263W        W63523  41.104  12.244   2.656
98264W        W63524  21.595  18.632  13.462
98265W        W63525  16.301   3.700   2.243
98266W        W63526  21.736  43.630   2.029
98267W        W63527   2.456  30.587  12.104
98268W        W63528   1.255  23.759  13.889
98269W        W63529   7.204  15.358   0.756
98270W        W63530  38.599  19.225   4.810
98271W        W63531  26.544   7.142  12.875
98272W        W63532  35.362  28.391  13.068
98273W        W63533  27.228  11.154  14.838
98274W        W63534  26.568  37.537  11.361
98275W        W63535  41.468  22.519   2.685
98276W        W63536  15.584  29.263   0.478
98277W        W63537  10.379  36.577  13.037
98278W        W63538  42.617   8.860   2.309
98279W        W63539  14.915  41.527  14.302
98280W        W63540   1.483   6.649  14.821
98281W        W63541  28.213  10.829  12.021
98282W        W63542  16.580  42.329   4.290
98283W        W63543   8.343  15.790  10.625
98284W        W63544   5.924  10.763  14.064
98285W        W63545  14.945  34.359  11.560
98286W        W63546   2.280  41.867  14.506
98287W        W63547  34.774   9.381  11.943
98288W        W63548  41.589   2.688  11.918
98289W        W63549  18.631  19.552  13.867
98290W        W63550  30.362   4.935   0.698
98291W        W63551  26.113  10.867  11.736
98292W        W63552  39.510   2.791   1.725
98293W        W63553  33.325  30.476   3.814
98294W        W63554  13.095   9.183   2.597
98295W        W63555   3.274  41.805  13.106
98296W        W63556  17.003  27.101   0.533
98297W        W63557  42.495  32.645   4.040
98298W        W63558  43.173   7.258   2.389
98299W        W63559   8.278  18.140  10.575
98300W        W63560  28.060  29.496   2.120
98301W        W63561  33.819   4.339   1.642
98302W        W63562  38.240  16.828  12.798
98303W        W63563  11.824   8.323  11.453
98304W        W63564  27.366  36.550  10.726
98305W        W63565  42.797  31.495   1.330
98306W        W63566  35.275  44.533  12.920
98307W        W63567  19.024  36.369  10.744
98308W        W63568  10.318   0.437   3.559
98309W        W63569  23.299  28.113   3.094
98310W        W63570  23.488   6.619  10.904
98311W        W63571  15.809  36.627  10.646
98312W        W63572   9.932  22.093   1.406
98313W        W63573   5.349  13.859   3.196
98314W        W63574  28.133  15.786  10.626
98315W        W63575  44.764  21.587   2.288
98316W        W63576   9.306  18.590   1.392
98317W        W63577   9.993   4.404   2.145
98318W        W63578  26.945  14.568  14.435
98319W        W63579  19.254  26.560   1.451
98320W        W63580   9.604  36.983   4.223
98321W        W63581  21.561  17.250  10.255
98322W        W63582  34.920  27.113   0.570
98323W        W63583   5.324  22.389   2.113
98324W        W63584  35.434   2.456  10.678
98325W        W63585  36.434  17.813   0.836
98326W        W63586   1.360  26.102  14.796
98327W        W63587  33.529   1.522   1.199
98328W        W63588   2.346   7.142   0.728
98329W        W63589  39.825  34.760   1.623
98330W        W63590   5.891  40.855  10.353
98331W        W63591   8.800  37.276   0.449
98332W        W63592  19.646   0.462   1.966
98333W        W63593  14.103   9.394   3.196
98334W        W63594  22.801   2.400   1.312
98335W        W63595   0.925  19.462   2.309
98336W        W63596   8.269  23.261  14.334
98337W        W63597  29.376  44.390  10.251
98338W        W63598  40.290  22.285  13.934
98339W        W63599  20.126  37.438  10.245
98340W        W63600  40.495  20.168   0.833
98341W        W63601  14.105  30.110  12.127
98342W        W63602  39.446  40.120   0.327
98343W        W63603  27.192   7.309  14.115
98344W        W63604  16.509  42.904  14.464
98345W        W63605  20.595  28.396   3.166
98346W        W63606  28.163  30.149   0.948
98347W        W63607  19.844   5.422  10.726
98348W        W63608  40.482  36.867  12.463
98349W        W63609  40.902   2.765   1.168
98350W        W63610  35.779  21.264  11.614
98351W        W63611  31.577  10.003  12.119
98352W        W63612  26.732  35.405   4.241
98353W        W63613  21.133  31.835  11.032
98354W        W63614  16.356  13.617   2.153
98355W        W63615  28.133  31.611  14.419
98356W        W63616  26.739  19.974   1.257
98357W        W63617  21.486  37.825  14.918
98358W        W63618   0.507  40.572   1.770
98359W        W63619  41.104   0.360   4.166
98360W        W63620  25.497  27.580   0.393
98361W        W63621   4.923  42.792   0.109
98362W        W63622   5.736  26.162  12.074
98363W        W63623  22.970  25.680   1.748
98364W        W63624  15.893  15.536   3.137
98365W        W63625   1.354  19.603   1.679
98366W        W63626  15.348   6.706   0.838
98367W        W63627   9.362  15.987  11.501
98368W        W63628  13.065  21.702  10.979
98369W        W63629  23.232  35.382  11.601
98370W        W63630   5.990  20.046  10.967
98371W        W63631  15.168  34.361  13.416
98372W        W63632   6.990   9.588  11.130
98373W        W63633   2.663  19.109  14.763
98374W        W63634  21.791  42.501   3.381
98375W        W63635  38.486  14.572  13.384
98376W        W63636  39.389  20.290  12.332
98377W        W63637  20.734  21.464   3.188
98378W        W63638  20.100  40.946  10.744
98379W        W63639  33.325  12.257  12.616
98380W        W63640   6.751  33.652  10.740
98381W        W63641  20.457  22.403   0.790
98382W        W63642  39.348  40.756   4.147
98383W        W63643  25.043   5.726   2.498
98384W        W63644  15.330  30.453  12.423
98385W        W63645  39.370  37.526  11.014
98386W        W63646  19.013  16.073   3.219
98387W        W63647  11.610  43.453   0.971
98388W        W63648  36.127   8.834  12.093
98389W        W63649  44.130  13.716  12.647
98390W        W63650  14.776  29.931  12.407
98391W        W63651  21.062  14.607  10.835
98392W        W63652   1.103  39.582   3.393
98393W        W63653  26.089  21.118  10.378
98394W        W63654  28.122  23.957   1.901
98395W        W63655  39.851  34.217   0.453
98396W        W63656   6.927  39.996   0.508
98397W        W63657  26.401  37.641  11.850
98398W        W63658   8.868  11.835  14.283
98399W        W63659  19.434  33.391  14.996
98400W        W63660  32.078  26.618  14.752
98401W        W63661  30.443  37.559   1.048
98402W        W63662  39.234  35.656   1.016
98403W        W63663  10.141  10.337  14.435
98404W        W63664   4.106   0.172   2.510
98405W        W63665  29.578  37.849  13.908
98406W        W63666  17.651  44.414   4.122
98407W        W63667  25.063  23.068  14.937
98408W        W63668   4.977  41.432  14.448
98409W        W63669  31.483  28.315  12.036
98410W        W63670  10.605  21.435   2.255
98411W        W63671  40.301  28.600  11.657
98412W        W63672  16.133   7.246   2.553
98413W        W63673  33.877   6.026   2.693
98414W        W63674  25.076  21.292   4.055
98415W        W63675   6.361  34.107   2.285
98416W        W63676  16.523  18.148   2.891
98417W        W63677  40.009   5.899   0.402
98418W        W63678   1.433   7.411  11.552
98419W        W63679  33.399  27.314   3.108
98420W        W63680   7.752  22.070   2.290
98421W        W63681   0.193  42.276   0.227
98422W        W63682  25.292  29.407  12.912
98423W        W63683  22.553   9.326   2.773
98424W        W63684  40.617  37.996  11.826
98425W        W63685  42.370  20.120  10.884
98426W        W63686  35.541  10.217  11.227
98427W        W63687  25.184  10.238  11.930
98428W        W63688  28.459  29.253   1.773
98429W        W63689  37.906  36.832  11.423
98430W        W63690  42.032  43.733  12.852
98431W        W63691  44.039  10.580  14.030
98432W        W63692  17.569  32.367   1.411
98433W        W63693  40.724   8.378  13.301
98434W        W63694  41.915  29.944   5.148
98435W        W63695  20.448  42.333  10.746
98436W        W63696  33.444  41.478   2.694
98437W        W63697  24.155   2.046  14.047
98438W        W63698  31.596   3.378  13.948
98439W        W63699  39.182  14.309  12.290
98440W        W63700  36.622  33.716  10.323
98441W        W63701  12.069  18.534  11.187
98442W        W63702  18.111  12.340   2.821
98443W        W63703  37.474   9.195  11.987
98444W        W63704   5.188  40.043   0.976
98445W        W63705  13.767  19.270  12.156
98446W        W63706  15.199  10.461  10.199
98447W        W63707  35.013  36.488  12.486
98448W        W63708   1.260  19.860   2.129
98449W        W63709  33.535  15.641  10.557
98450W        W63710  18.820  42.051  11.615
98451W        W63711   2.953  11.080   5.345
98452W        W63712  44.350  27.563  13.275
98453W        W63713  42.921  29.399  14.549
98454W        W63714  12.850  29.718  12.320
98455W        W63715  43.276  32.010   2.270
98456W        W63716  44.883  20.283  12.057
98457W        W63717  29.498   5.928  11.081
98458W        W63718  16.048  11.259  11.166
98459W        W63719  38.566  10.375   0.899
98460W        W63720  21.875   8.975   2.361
98461W        W63721   2.094   2.380   3.642
98462W        W63722  12.711  41.412  14.631
98463W        W63723   5.990  36.950  14.456
98464W        W63724   2.533   9.104  12.124
98465W        W63725  33.500  34.498  10.185
98466W        W63726  18.685  31.343  11.810
98467W        W63727  17.790  31.393  11.965
98468W        W63728   5.298  12.599  12.336
98469W        W63729  13.282  21.255  10.271
98470W        W63730  42.141  43.165  10.225
98471W        W63731  18.818  28.044  13.955
98472W        W63732  35.304  31.893   2.292
98473W        W63733  33.457  34.167   4.144
98474W        W63734   7.137   2.533   0.461
98475W        W63735  31.565   2.465  11.682
98476W        W63736  21.581   2.905  13.312
98477W        W63737  40.962   3.408   1.822
98478W        W63738  33.077  21.562   0.823
98479W        W63739  41.834   7.767   2.449
98480W        W63740  32.719  19.050  11.678
98481W        W63741  17.983  13.750   2.718
98482W        W63742   5.445  19.713  13.801
98483W        W63743  25.354   6.055   2.789
98484W        W63744  15.795   9.662   2.414
98485W        W63745  24.631  43.728  13.991
98486W        W63746  22.070  25.778   1.268
98487W        W63747   9.284   1.448   4.483
98488W        W63748  37.919   3.734   2.449
98489W        W63749  16.548  26.829  13.448
98490W        W63750  12.297  41.324  12.124
98491W        W63751  24.482  33.588   3.894
98492W        W63752   8.082  36.838   3.433
98493W        W63753  29.458  28.634   0.670
98494W        W63754  34.496  43.240  11.912
98495W        W63755   9.884  34.577   4.560
98496W        W63756  10.516  28.866   5.064
98497W        W63757  24.565  37.900   0.452
98498W        W63758   4.195  39.391  13.429
98499W        W63759  23.699  43.318   4.956
98500W        W63760  11.415  11.328   2.326
98501W        W63761   1.493   3.928   3.085
98502W        W63762  11.954   8.844   2.587
98503W        W63763  39.365  25.564   0.295
98504W        W63764  33.060  32.109   2.900
98505W        W63765  44.463  35.584   1.700
98506W        W63766   3.817   5.588   4.318
98507W        W63767  29.640   6.295   4.310
98508W        W63768  42.349   1.147  13.946
98509W        W63769  23.747  20.189  13.293
98510W        W63770  19.905  24.669  13.443
98511W        W63771   6.780  14.291  10.642
98512W        W63772   6.875  25.000   0.459
98513W        W63773   0.233  13.135   0.414
98514W        W63774  34.850   1.300   0.477
98515W        W63775  43.490  21.757  12.867
98516W        W63776  31.293  22.079  10.703
98517W        W63777  31.495  21.093  10.716
98518W        W63778  16.803   9.229  10.487
98519W        W63779   8.630   5.651   3.687
98520W        W63780   3.698  34.557   2.734
98521W        W63781  15.784  24.551   0.375
98522W        W63782  28.239  44.423  13.038
98523W        W63783  20.639  16.353  12.936
98524W        W63784  41.501  31.142  12.603
98525W        W63785  14.107  37.669  11.440
98526W        W63786  14.282  26.626  13.880
98527W        W63787  18.156  24.625  14.404
98528W        W63788   8.206  33.939   0.480
98529W        W63789   7.306  44.135  11.486
98530W        W63790  38.546  37.265  10.831
98531W        W63791   0.476  42.593  12.672
98532W        W63792  39.041  22.309   3.146
98533W        W63793  17.344  13.539   3.350
98534W        W63794  16.718  15.036   1.181
98535W        W63795  37.937  21.859  13.344
98536W        W63796  28.618  24.009  12.529
98537W        W63797  44.268  44.114  10.760
98538W        W63798  25.240  20.728  11.688
98539W        W63799   6.756  34.788   4.764
98540W        W63800  20.518   4.988   5.015
98541W        W63801   5.676  14.933  10.658
98542W        W63802   7.780  39.093   2.745
98543W        W63803  37.963  37.482  10.029
98544W        W63804  11.690  43.469  12.960
98545W        W63805   5.973  37.096  11.158
98546W        W63806  30.054  28.522  11.611
98547W        W63807   5.425  28.764   0.411
98548W        W63808  41.427  24.255   2.876
98549W        W63809  37.155  32.997  14.339
98550W        W63810  12.340   4.627   4.969
98551W        W63811   6.579  25.349   2.199
98552W        W63812  39.487  22.511   2.251
98553W        W63813  28.050   5.207  14.778
98554W        W63814  21.696  13.440  14.618
98555W        W63815  11.129  11.947  13.002
98556W        W63816  35.183   4.273   3.676
98557W        W63817  15.329  38.551   3.344
98558W        W63818  13.011  17.549  10.480
98559W        W63819  32.478   0.858   1.795
98560W        W63820  43.244  19.839  13.076
98561W        W63821  27.237  34.822   0.916
98562W        W63822   6.323  26.520  12.400
98563W        W63823  31.717   8.221   4.201
98564W        W63824  38.412  13.897  13.965
98565W        W63825  29.734   6.046   2.423
98566W        W63826  37.791  24.232   1.808
98567W        W63827  10.440  30.408  11.436
98568W        W63828  37.474  40.499  11.722
98569W        W63829   4.405  43.984  11.689
98570W        W63830  27.619  35.071  11.243
98571W        W63831   6.865  20.625   3.831
98572W        W63832  22.519  21.720  13.242
98573W        W63833   0.835  37.536  10.179
98574W        W63834  38.872  11.235   2.877
98575W        W63835  22.730  44.310  14.432
98576W        W63836  12.909  37.988  14.436
98577W        W63837  28.465  34.311  11.073
98578W        W63838   9.161  25.423   1.338
98579W        W63839  40.904   0.073  12.919
98580W        W63840  31.600   4.712  14.988
98581W        W63841  38.436  36.661  11.510
98582W        W63842  40.608  21.986  12.080
98583W        W63843  23.284  40.111   4.178
98584W        W63844  30.179  36.963  12.026
98585W        W63845  28.940  20.465  11.398
98586W        W63846  39.923   4.640  12.970
98587W        W63847  18.861   5.905  14.925
98588W        W63848  25.498  25.146  14.609
98589W        W63849   1.605  24.145  13.952
98590W        W63850  28.152   6.723   3.203
98591W        W63851  18.097  23.307  14.874
98592W        W63852  32.656  30.634   4.413
98593W        W63853   3.104  26.721   2.151
98594W        W63854   1.896  10.270   1.929
98595W        W63855  20.398   7.513   2.048
98596W        W63856   8.650  12.573  10.374
98597W        W63857  18.137  42.873   0.417
98598W        W63858  37.332  29.667  14.075
98599W        W63859  12.582  36.644  12.490
98600W        W63860   9.803  25.200   2.654
98601W        W63861  11.695  31.455   2.749
98602W        W63862   9.123  14.667   0.437
98603W        W63863  15.127  44.140   3.902
98604W        W63864  13.794   4.340   0.220
98605W        W63865  28.055  25.485   1.707
98606W        W63866  22.020   0.029  12.085
98607W        W63867  35.436  35.404  14.924
98608W        W63868  34.866  38.266  14.132
98609W        W63869   8.886   6.637  14.447
98610W        W63870  34.914  41.440  10.303
98611W        W63871   0.964  29.683   2.821
98612W        W63872  28.220  20.644  14.310
98613W        W63873  20.757  28.933   0.545
98614W        W63874  13.446  39.459  11.525
98615W        W63875   8.731   4.908  11.565
98616W        W63876  25.012   3.505  12.460
98617W        W63877  26.356  44.466  10.985
98618W        W63878   8.201  34.220   3.324
98619W        W63879   2.303  38.996  14.793
98620W        W63880  44.615  34.813  11.435
98621W        W63881  35.815   1.332   3.184
98622W        W63882   2.323  25.193  12.914
98623W        W63883  33.182   6.249   3.438
98624W        W63884  20.352  10.239  13.452
98625W        W63885  20.517  28.972   2.773
98626W        W63886  28.203   7.384   1.079
98627W        W63887  37.884   8.766   0.649
98628W        W63888  36.146  30.147   2.814
98629W        W63889  11.721  43.088   1.314
98630W        W63890  17.359   7.684   1.264
98631W        W63891  43.394  32.786  14.418
98632W        W63892   6.189  32.377  11.581
98633W        W63893  34.904  15.760   0.892
98634W        W63894   8.109  30.734  14.164
98635W        W63895  15.083  14.538   0.254
98636W        W63896  25.684  41.242  12.053
98637W        W63897   6.914  17.061   1.319
98638W        W63898  41.767  38.166  12.998
98639W        W63899  14.629   2.822  10.335
98640W        W63900  29.843   3.712  12.616
98641W        W63901  39.096  28.119   0.951
98642W        W63902  26.210   7.799  10.922
98643W        W63903   0.972   8.326   2.437
98644W        W63904   4.843  14.817  12.047
98645W        W63905  13.053  34.211   0.783
98646W        W63906  41.977   4.867  10.689
98647W        W63907  33.677   9.367  13.693
98648W        W63908  26.514  39.722  12.163
98649W        W63909  39.980  10.235   2.276
98650W        W63910  20.156  20.120   0.862
98651W        W63911  44.376  20.243  11.963
98652W        W63912  26.950  26.141  12.525
98653W        W63913  21.006  15.303   0.875
98654W        W63914  38.829  35.164  13.551
98655W        W63915  27.530  35.617  11.085
98656W        W63916  43.868  41.887  11.175
98657W        W63917   4.685  23.103  12.366
98658W        W63918   3.436  11.659   1.690
98659W        W63919  16.867  12.142   3.701
98660W        W63920  36.887   8.824   3.817
98661W        W63921   4.994  31.498   1.036
98662W        W63922  23.176  33.978  12.848
98663W        W63923  33.592  32.945  13.964
98664W        W63924  28.299  25.424   2.618
98665W        W63925  15.851  10.421  10.665
98666W        W63926   8.751  37.301   2.302
98667W        W63927  19.163  33.254   2.791
98668W        W63928  31.496  10.211   0.027
98669W        W63929   1.489  34.347   2.867
98670W        W63930  18.801  18.358   3.197
98671W        W63931  26.060   4.795  13.807
98672W        W63932  28.150  43.492   4.598
98673W        W63933  11.201  35.014  11.621
98674W        W63934  20.075  16.809   4.510
98675W        W63935   6.889   5.440   2.870
98676W        W63936  21.530  22.048  11.473
98677W        W63937  17.819  26.455  10.393
98678W        W63938  44.435  19.391  11.692
98679W        W63939  17.490  36.351   4.270
98680W        W63940  39.600  40.346  11.175
98681W        W63941   8.368  23.437  10.258
98682W        W63942  40.293  44.106  12.565
98683W        W63943  25.072  39.530  11.368
98684W        W63944   6.250  21.958  12.640
98685W        W63945  28.166  22.530   0.383
98686W        W63946   1.582  35.572   3.935
98687W        W63947  17.566  44.504   1.349
98688W        W63948   9.846   6.277   0.826
98689W        W63949  31.912  16.575   4.582
98690W        W63950  36.330   5.278  14.451
98691W        W63951  39.114  40.802  10.608
98692W        W63952  31.557  39.398  12.406
98693W        W63953  15.756   9.790  13.970
98694W        W63954  12.830   8.363   1.611
98695W        W63955  26.522  40.564   3.961
98696W        W63956  38.014  24.049  11.187
98697W        W63957   9.763  19.048   4.871
98698W        W63958  13.233  40.331   0.645
98699W        W63959   7.909  43.076  10.869
98700W        W63960  24.242  32.624   3.640
98701W        W63961  24.210  21.743   4.160
98702W        W63962   7.758  34.236  11.810
98703W        W63963   6.742  43.265   3.224
98704W        W63964  10.932  39.411   4.133
98705W        W63965  24.000  29.852   3.566
98706W        W63966  25.088  40.510  13.047
98707W        W63967  44.530   9.203   2.123
98708W        W63968  20.153  36.083  14.931
98709W        W63969  24.111  27.756  14.738
98710W        W63970  22.042  31.117  11.634
98711W        W63971  39.246  43.272  10.664
98712W        W63972  29.954  29.072   0.376
98713W        W63973   5.860  28.125   3.178
98714W        W63974  10.362  12.143  14.296
98715W        W63975  29.504  37.281   1.821
98716W        W63976   7.713  17.818   3.398
98717W        W63977  10.721  21.982  11.137
98718W        W63978  10.931  41.555   5.130
98719W        W63979  11.399  14.391   4.473
98720W        W63980  44.906   5.732   3.618
98721W        W63981  14.709  27.420  11.988
98722W        W63982  35.939  29.680  12.045
98723W        W63983  11.080  36.673  10.820
98724W        W63984  19.793  43.553   3.793
98725W        W63985  35.327   7.596  14.011
98726W        W63986  31.649  23.264   3.141
98727W        W63987  36.043  38.958   3.086
98728W        W63988  30.472  39.039  14.873
98729W        W63989  21.296  38.342   2.643
98730W        W63990   0.355  37.451  13.218
98731W        W63991   1.335   0.995   4.507
98732W        W63992   1.799  10.326  10.592
98733W        W63993  14.579   7.106   0.452
98734W        W63994   9.848   4.032   3.397
98735W        W63995  41.452  24.239   0.956
98736W        W63996  11.017  16.641  12.441
98737W        W63997  33.373  33.065  10.609
98738W        W63998  27.428  36.804   2.798
98739W        W63999  26.363  31.575   0.775
98740W        W64000  25.724   5.718  11.142
98741W        W64001  10.969  21.124   4.024
98742W        W64002  35.623   8.787   2.207
98743W        W64003  10.711  30.476  13.934
98744W        W64004  20.498  32.639  10.983
98745W        W64005  18.365  22.820  12.530
98746W        W64006  27.010  26.680   3.689
98747W        W64007  34.342  35.267   1.462
98748W        W64008  11.652   1.066  10.416
98749W        W64009  32.580  44.982   2.849
98750W        W64010  16.572  15.718  12.355
98751W        W64011  24.612   2.995   1.285
98752W        W64012   9.988  17.409  13.094
98753W        W64013  35.782  16.179  10.678
98754W        W64014   8.786  35.856   4.941
98755W        W64015  29.213  26.038   0.965
98756W        W64016   5.228  21.051   4.142
98757W        W64017  16.367  16.703   4.636
98758W        W64018  37.531   6.812   3.796
98759W        W64019  21.298   8.084  14.881
98760W        W64020  19.774   3.110  10.635
98761W        W64021  10.642  30.974  13.905
98762W        W64022  11.155  44.733   2.818
98763W        W64023  17.318  34.579   3.821
98764W        W64024  22.588  23.736   4.047
98765W        W64025  35.678  17.637  13.467
98766W        W64026  19.434  34.338   1.463
98767W        W64027   0.713  30.230   3.937
98768W        W64028  24.496  11.968   3.757
98769W        W64029  27.234  28.459  10.502
98770W        W64030  32.834  19.997  12.031
98771W        W64031   4.735   0.829   2.347
98772W        W64032  18.736  37.051   1.562
98773W        W64033   8.227  43.832   4.159
98774W        W64034  22.172  25.282   4.445
98775W        W64035  15.426  23.094  13.431
98776W        W64036  11.322   0.785   1.699
98777W        W64037  44.310  22.536  10.088
98778W        W64038  10.752   0.174  14.252
98779W        W64039  10.592  17.810  10.998
98780W        W64040  22.579  27.205  12.476
98781W        W64041  44.181  25.462   2.183
98782W        W64042  38.852  12.788   4.496
98783W        W64043  42.269   0.034  11.396
98784W        W64044  28.248  19.891  13.864
98785W        W64045  27.191  31.461  10.682
98786W        W64046  27.127   1.817   0.214
98787W        W64047  39.429   9.931   4.566
98788W        W64048  21.023   6.364  11.033
98789W        W64049  24.714  18.216   1.294
98790W        W64050   2.021  36.250   2.326
98791W        W64051  16.628   6.278  10.683
98792W        W64052  11.406  12.171  14.274
98793W        W64053  34.483  27.925  12.029
98794W        W64054  44.665  22.908   5.146
98795W        W64055  38.482  38.991  13.614
98796W        W64056   0.844  25.117  13.128
98797W        W64057  37.334  18.858  11.064
98798W        W64058  26.665  28.400   2.896
98799W        W64059  20.988  37.778  11.077
98800W        W64060  20.641  27.969   4.996
98801W        W64061  23.697  40.444   0.900
98802W        W64062  12.640  23.383   1.969
98803W        W64063  28.034  12.496   2.849
98804W        W64064  16.791   6.579   4.984
98805W        W64065  24.686  14.741  11.660
98806W        W64066  37.885  16.595   4.578
98807W        W64067  27.810  40.627   1.395
98808W        W64068  13.748  11.200  14.047
98809W        W64069  27.561   8.266   2.288
98810W        W64070   6.468  24.107   0.389
98811W        W64071  16.837   0.188  14.432
98812W        W64072  11.684  18.097   4.518
98813W        W64073  10.916  40.128  13.481
98814W        W64074  26.255   5.393   0.985
98815W        W64075  26.271   9.930   4.043
98816W        W64076  22.136  30.959   1.200
98817W        W64077  38.634  16.470   1.123
98818W        W64078  10.849  31.303  10.174
98819W        W64079  30.362  19.764   3.355
98820W        W64080   1.170   7.229   3.273
98821W        W64081   7.325   6.894   4.252
98822W        W64082  35.678   4.146   3.682
98823W        W64083  37.447  18.064  10.598
98824W        W64084  31.536  19.213   3.327
98825W        W64085  14.605  27.636   0.789
98826W        W64086   1.721  15.652  14.383
98827W        W64087  43.559  35.507   0.384
98828W        W64088  16.589  12.714   1.713
98829W        W64089  17.082  20.286  14.861
98830W        W64090   4.381   7.694  13.449
98831W        W64091  12.111  30.576   3.590
98832W        W64092  16.818  22.709   1.351
98833W        W64093  10.961  36.807   3.143
98834W        W64094  16.778  36.027  12.817
98835W        W64095  37.294  21.706   3.874
98836W        W64096  28.696  24.157   4.271
98837W        W64097  29.832   3.435  14.863
98838W        W64098  32.589  35.982  13.151
98839W        W64099  24.104   6.483   3.228
98840W        W64100   6.744  44.464  10.747
98841W        W64101  41.257  39.514   3.190
98842W        W64102  19.519  36.598  12.049
98843W        W64103  35.400  42.489   0.503
98844W        W64104  42.442  20.420   3.078
98845W        W64105   9.776  44.587   1.258
98846W        W64106  10.909  11.031  12.691
98847W        W64107  17.818  16.973  14.295
98848W        W64108  31.441  40.077   4.371
98849W        W64109  13.248  19.764  10.491
98850W        W64110   9.585   8.177   4.613
98851W        W64111  19.065  28.927  14.779
98852W        W64112   6.550   5.106  13.791
98853W        W64113   6.327  19.526  13.034
98854W        W64114  14.569  20.777   0.969
98855W        W64115   0.492  43.547  10.766
98856W        W64116  11.120  16.164  12.171
98857W        W64117  36.942   8.249  13.982
98858W        W64118  36.059  11.598   1.267
98859W        W64119   6.409  39.441  13.329
98860W        W64120  23.481  14.793   2.110
98861W        W64121  19.576  26.508  13.990
98862W        W64122  32.223   0.000  10.688
98863W        W64123   8.323   7.636  11.224
98864W        W64124   6.135  35.737  11.110
98865W        W64125  34.800  35.788  11.337
98866W        W64126   9.322  36.941  12.378
98867W        W64127  27.076  23.987  14.329
98868W        W64128  34.050  24.097  13.510
98869W        W64129  42.405  10.064  11.998
98870W        W64130  25.075  11.554   3.667
98871W        W64131   0.751  20.533   3.965
98872W        W64132  44.011  32.784  12.950
98873W        W64133   5.430   2.554  13.827
98874W        W64134  42.316   1.487  13.585
98875W        W64135   0.032  25.246  13.381
98876W        W64136  41.564  32.118  14.848
98877W        W64137  10.900   0.416   2.509
98878W        W64138  32.425  26.295  12.509
98879W        W64139  30.672  37.337   2.827
98880W        W64140   5.908  40.119   3.098
98881W        W64141  37.265  28.230  11.949
98882W        W64142  43.026   1.243  12.342
98883W        W64143  23.586  27.882   2.731
98884W        W64144  17.714  38.621   4.223
98885W        W64145  28.471  23.475   4.494
98886W        W64146  16.912  16.976   3.263
98887W        W64147  30.444  24.110   4.102
98888W        W64148  23.370   1.055   3.231
98889W        W64149  24.509   9.944   0.885
98890W        W64150  42.536  27.637   2.352
98891W        W64151  42.157  33.917   4.368
98892W        W64152  18.919  27.007   4.817
98893W        W64153  30.284  32.103   4.219
98894W        W64154   5.784  17.470   1.926
98895W        W64155  32.912   8.273   0.951
98896W        W64156  12.906  28.417   3.621
98897W        W64157  42.655   4.997  13.429
98898W        W64158  22.634  14.125  13.148
98899W        W64159  21.123  11.659   2.722
98900W        W64160  44.344  40.373  14.750
98901W        W64161   6.911  36.879   1.857
98902W        W64162  37.612  25.739  10.994
98903W        W64163  20.713   6.709   4.350
98904W        W64164  40.804  24.186  10.695
98905W        W64165  38.671   0.068  12.957
98906W        W64166  23.402  34.135  10.270
98907W        W64167   2.096  26.478   0.675
98908W        W64168   3.118  38.844  12.903
98909W        W64169  28.017  36.310  14.077
98910W        W64170  25.739   0.700   1.633
98911W        W64171  41.242  34.938   2.226
98912W        W64172   3.812  43.868  12.922
98913W        W64173  24.685  24.140  14.724
98914W        W64174   1.080  32.250  13.955
98915W        W64175  35.691  43.435  11.064
98916W        W64176  39.868  22.014   0.971
98917W        W64177  40.422  43.810  13.865
98918W        W64178   8.252   2.157  12.366
98919W        W64179  10.117  19.601   0.300
98920W        W64180  41.843  29.442  12.112
98921W        W64181  22.484  31.349   3.825
98922W        W64182  29.229  18.300   3.734
98923W        W64183   3.635  24.973  14.789
98924W        W64184  27.553   9.359  11.152
98925W        W64185  27.110  43.113  11.104
98926W        W64186  36.836  15.677   0.811
98927W        W64187  15.732  29.112  14.001
98928W        W64188   2.555  36.849   0.792
98929W        W64189  40.525  32.155  11.567
98930W        W64190  19.351   8.839  11.215
98931W        W64191  40.585  32.452   2.675
98932W        W64192   6.137  13.562  12.593
98933W        W64193  30.389   1.751   2.992
98934W        W64194  23.675  38.712   3.579
98935W        W64195  35.581  19.253  14.760
98936W        W64196  33.124  28.547  14.807
98937W        W64197   3.208  32.420   1.830
98938W        W64198  41.969  40.782  12.394
98939W        W64199  16.041  16.557  14.028
98940W        W64200   2.881  20.991  14.802
98941W        W64201  34.600   6.745   2.323
98942W        W64202  30.633  11.603   4.189
98943W        W64203  17.138  12.915  13.565
98944W        W64204  26.095  32.024   1.547
98945W        W64205  32.328  15.703   0.808
98946W        W64206  36.105  20.065   2.689
98947W        W64207  28.655  28.921  14.039
98948W        W64208  43.106  26.602   3.134
98949W        W64209   3.803   2.587   3.398
98950W        W64210  44.400  39.478   1.261
98951W        W64211  35.816  35.622   0.219
98952W        W64212  28.871   7.603   3.631
98953W        W64213  23.110  13.194   2.687
98954W        W64214   9.901  20.174  11.653
98955W        W64215  11.747  11.809  12.210
98956W        W64216   4.899  35.380  14.487
98957W        W64217   8.314  10.689  11.479
98958W        W64218  15.125   6.240   4.978
98959W        W64219  18.526  20.346  12.032
98960W        W64220  27.523  15.235   4.361
98961W        W64221  14.056  22.991   3.412
98962W        W64222  44.433   3.096   0.824
98963W        W64223   6.411  12.140  10.518
98964W        W64224   4.877  28.326  14.199
98965W        W64225  26.502   2.331  12.443
98966W        W64226  31.588  20.245   0.477
98967W        W64227  27.526  29.520  11.472
98968W        W64228  40.087  31.451  13.022
98969W        W64229   7.029  26.611   5.590
98970W        W64230   9.907  29.587  12.538
98971W        W64231  23.082   0.269   0.240
98972W        W64232  34.039  19.648   4.572
98973W        W64233  40.482  17.116  14.455
98974W        W64234  15.290  34.071  11.294
98975W        W64235  35.604   6.146   1.513
98976W        W64236  21.472  13.859  14.400
98977W        W64237  25.035  14.319   3.344
98978W        W64238  30.103  40.400   2.213
98979W        W64239  33.765  25.066  13.939
98980W        W64240  12.707  28.247   4.117
98981W        W64241  26.502  26.606  14.786
98982W        W64242  44.943  26.681   2.794
98983W        W64243  16.864  42.475   1.906
98984W        W64244  36.433  29.000  12.917
98985W        W64245   4.473  22.649   3.414
98986W        W64246   6.778  41.440   1.493
98987W        W64247  31.234   1.470  14.840
98988W        W64248   0.789   4.698   3.614
98989W        W64249  42.980   9.803   4.143
98990W        W64250  29.611  40.431  12.260
98991W        W64251  41.679  24.070  11.060
98992W        W64252  34.527  42.098   0.554
98993W        W64253  20.216   3.219  13.466
98994W        W64254  34.461   4.841   0.156
98995W        W64255  28.005  43.855   1.895
98996W        W64256   0.387   1.664   4.144
98997W        W64257  15.991  22.237   1.695
98998W        W64258   1.795  30.011   2.721
98999W        W64259  15.116  36.114  13.981
99000W        W64260  38.398  14.714   0.029
99001W        W64261  17.276  31.054  14.406
99002W        W64262  27.389  38.361  12.471
99003W        W64263  31.830   7.241   1.234
99004W        W64264  28.287  17.757   5.518
99005W        W64265  13.675  20.236   4.348
99006W        W64266  38.511  34.464  11.700
99007W        W64267  16.658  12.121  12.464
99008W        W64268  35.001  26.367   5.453
99009W        W64269  44.920   3.880   2.764
99010W        W64270  27.591  39.022  12.969
99011W        W64271  29.879  37.152  12.412
99012W        W64272  32.161   9.955   3.634
99013W        W64273  29.714  20.967  14.178
99014W        W64274  36.115   2.106  14.802
99015W        W64275  36.770  21.564  14.952
99016W        W64276  38.895   4.272  14.072
99017W        W64277  25.768  39.332  10.654
99018W        W64278  28.944   4.300  10.286
99019W        W64279  42.905   5.941   0.043
99020W        W64280  16.115  36.893  11.948
99021W        W64281  19.347   4.716   0.854
99022W        W64282  32.734   6.398   1.457
99023W        W64283  37.338   0.859   0.366
99024W        W64284  22.685   1.333  12.045
99025W        W64285   8.490  25.609   3.623
99026W        W64286  19.760  29.532   2.765
99027W        W64287  23.596   8.184   0.902
99028W        W64288  16.594   5.695  12.481
99029W        W64289  29.578   2.991   0.652
99030W        W64290  31.647  33.684   3.278
99031W        W64291  20.300   0.597   1.746
99032W        W64292   5.601   3.525   0.253
99033W        W64293  15.878  19.282   4.656
99034W        W64294  19.321  38.860   4.018
99035W        W64295  23.754  29.442  13.877
99036W        W64296  22.916  26.428  10.172
99037W        W64297  35.426  33.662   2.787
99038W        W64298  14.374  11.005   4.082
99039W        W64299  29.189  20.226   1.065
99040W        W64300  21.258  17.007   2.750
99041W        W64301  32.343  43.857   2.910
99042W        W64302  32.206   2.189  12.011
99043W        W64303  12.795   3.020  13.033
99044W        W64304  17.873  32.697  11.325
99045W        W64305  43.938  26.867   3.483
99046W        W64306   9.668  28.098  12.120
99047W        W64307  26.355  16.673   3.832
99048W        W64308  29.886  23.299  11.498
99049W        W64309   4.893  26.507   0.255
99050W        W64310  40.501  41.527   2.257
99051W        W64311  25.473   8.665   0.023
99052W        W64312   0.870   8.153  14.494
99053W        W64313  18.731  17.338  14.981
99054W        W64314  30.358  27.483  13.430
99055W        W64315  31.955  44.891  11.124
99056W        W64316  12.601  23.862   2.176
99057W        W64317  41.983  17.293  14.228
99058W        W64318  22.881  30.652   2.222
99059W        W64319  37.962  34.417   3.430
99060W        W64320  44.715   8.503  14.882
99061W        W64321  35.354   4.172  11.893
99062W        W64322  10.713  20.995   0.265
99063W        W64323  18.180   1.414  14.035
99064W        W64324  38.073  40.932  14.009
99065W        W64325  24.462  19.291   1.911
99066W        W64326  40.720   9.345  12.596
99067W        W64327  16.131  12.549   1.478
99068W        W64328  32.980  14.248  13.552
99069W        W64329  44.571  33.672   2.823
99070W        W64330  14.283  23.591  10.736
99071W        W64331  25.165  27.971   0.446
99072W        W64332  36.346  38.989  10.864
99073W        W64333  16.246  42.992   0.480
99074W        W64334  31.663  13.730  10.664
99075W        W64335  10.919  33.135   4.584
99076W        W64336  29.039   2.985   2.302
99077W        W64337   2.710  20.259   1.447
99078W        W64338  40.364   6.207  13.347
99079W        W64339  20.124  17.045  12.442
99080W        W64340  14.252   6.638  14.410
99081W        W64341  36.064   3.994   0.749
99082W        W64342  41.282  15.218  14.828
99083W        W64343  24.798  21.192  12.490
99084W        W64344  20.764  10.214  10.829
99085W        W64345  36.690  28.060   3.814
99086W        W64346   1.222   0.859   1.280
99087W        W64347  37.975  42.981  10.764
99088W        W64348  24.323  37.283   1.970
99089W        W64349   3.301  26.681  12.456
99090W        W64350   8.355   2.601  12.601
99091W        W64351  30.763  43.406   4.979
99092W        W64352  20.842  34.956  14.303
99093W        W64353  25.542  27.285   4.812
99094W        W64354   9.548  12.254  12.487
99095W        W64355  36.480  30.180  11.372
99096W        W64356  24.864  15.769   1.503
99097W        W64357   4.927  15.657   1.557
99098W        W64358  32.113  21.992  10.715
99099W        W64359  21.244   0.299  10.553
99100W        W64360  42.067  44.506   3.622
99101W        W64361   1.414  43.034   2.288
99102W        W64362  37.568  10.292  12.135
99103W        W64363  37.934  22.729  12.419
99104W        W64364  32.976  34.196   3.525
99105W        W64365  11.093  32.940   3.303
99106W        W64366  24.604  22.536   2.338
99107W        W64367   5.974  30.997  12.348
99108W        W64368  34.515  27.365   0.335
99109W        W64369  28.154  25.274   4.879
99110W        W64370  36.203  35.030  14.425
99111W        W64371  11.027  37.323  12.046
99112W        W64372  11.856  19.161   2.862
99113W        W64373   6.312  28.966   1.884
99114W        W64374  24.534  44.505  11.136
99115W        W64375  40.900  34.635  14.076
99116W        W64376  18.704  14.595  12.650
99117W        W64377  34.793  41.298  11.183
99118W        W64378  27.316  35.431   9.947
99119W        W64379  34.107  14.421  14.762
99120W        W64380   5.464  12.089   3.940
99121W        W64381   5.471  34.093   1.227
99122W        W64382  22.172  18.298   3.728
99123W        W64383  38.667  44.389   2.336
99124W        W64384  33.417  32.400  14.268
99125W        W64385  34.440  10.809   2.362
99126W        W64386  41.878  26.726   1.222
99127W        W64387  14.540  33.090  10.659
99128W        W64388  21.742   1.675  11.464
99129W        W64389  37.500   2.730  13.493
99130W        W64390  38.131  33.365  13.020
99131W        W64391  34.669  33.447  12.378
99132W        W64392   1.698  18.287  12.064
99133W        W64393  16.764  42.408   0.716
99134W        W64394  38.039  18.098   4.334
99135W        W64395  29.784  43.712  13.417
99136W        W64396  41.785  41.732   2.946
99137W        W64397  38.427   7.737   2.927
99138W        W64398   3.349  44.212   4.120
99139W        W64399   5.963  42.325   0.231
99140W        W64400  16.655  25.351  14.529
99141W        W64401  32.871  37.121   2.084
99142W        W64402  22.661   2.785  13.331
99143W        W64403  36.923   2.851  10.191
99144W        W64404  38.746  12.136   1.447
99145W        W64405  42.259   4.931   0.912
99146W        W64406  43.034  11.845  12.938
99147W        W64407  28.787  33.824  11.936
99148W        W64408  32.418  12.112   2.918
99149W        W64409  34.685  16.355   3.310
99150W        W64410  19.596  14.817  14.260
99151W        W64411   8.614  37.436   3.233
99152W        W64412  43.516  43.949  11.623
99153W        W64413  12.232  20.290   3.218
99154W        W64414  12.717  14.595   2.907
99155W        W64415  44.917  18.157   3.283
99156W        W64416   4.969  32.882  12.843
99157W        W64417  36.111  20.197   4.145
99158W        W64418  42.964  16.550  12.783
99159W        W64419   1.478  20.924   3.051
99160W        W64420  34.895  12.953   0.312
99161W        W64421  37.780  15.107  11.554
99162W        W64422  24.190  36.443  10.842
99163W        W64423  11.368  13.889  10.651
99164W        W64424  43.994  15.189  11.123
99165W        W64425  16.213  38.950  11.654
99166W        W64426  32.879  25.117  14.532
99167W        W64427  21.218   2.328  13.914
99168W        W64428  29.926  20.050   2.595
99169W        W64429  14.548  23.773   3.296
99170W        W64430  40.775  15.036   1.427
99171W        W64431  15.629   0.875   4.123
99172W        W64432  29.426   2.017   1.973
99173W        W64433  30.483  32.369   0.467
99174W        W64434  16.413  27.331  13.420
99175W        W64435  39.246  41.135   0.363
99176W        W64436  27.569  35.177  10.753
99177W        W64437  19.189  33.050   3.580
99178W        W64438  22.712   6.845   3.125
99179W        W64439   6.902  43.228   1.758
99180W        W64440  30.819   3.408  14.879
99181W        W64441  29.712  32.411  12.099
99182W        W64442  25.033  12.687  12.194
99183W        W64443  18.613  33.152   4.739
99184W        W64444   2.908  36.114  10.424
99185W        W64445  43.039  17.178  10.374
99186W        W64446  43.919   9.730  10.850
99187W        W64447   4.702  24.056   2.050
99188W        W64448  14.539  21.493   2.879
99189W        W64449   9.048  20.631  13.479
99190W        W64450  26.100  31.681   2.969
99191W        W64451  27.531  27.434  14.496
99192W        W64452  29.125  31.218  12.864
99193W        W64453  39.816  30.054  11.734
99194W        W64454  31.925  33.777  11.859
99195W        W64455  30.480  19.464  13.924
99196W        W64456  35.673   8.320  10.982
99197W        W64457  28.721   8.657  14.006
99198W        W64458  17.223  16.586  13.356
99199W        W64459  22.996  20.038   4.466
99200W        W64460  38.729  44.764  14.733
99201W        W64461  18.277  28.086  12.467
99202W        W64462  21.351  17.759  13.014
99203W        W64463  23.307  28.228  11.633
99204W        W64464  23.571  20.576  14.752
99205W        W64465  17.229   1.121  14.571
99206W        W64466  41.544  14.569  11.578
99207W        W64467  41.210  41.765  11.999
99208W        W64468  14.706  38.763   0.098
99209W        W64469  32.493  29.242  14.005
99210W        W64470  41.882  22.493   0.907
99211W        W64471  20.173  39.511  14.315
99212W        W64472   1.375  30.246   3.211
99213W        W64473  32.940  16.631  12.128
99214W        W64474  33.663  24.269   0.870
99215W        W64475  32.035  41.269   3.667
99216W        W64476  18.890   8.868   3.072
99217W        W64477  34.527  24.172   4.769
99218W        W64478  42.702  42.884   1.148
99219W        W64479  11.887  37.379  11.654
99220W        W64480   2.522  22.687   0.940
99221W        W64481   7.193  30.156   4.816
99222W        W64482  37.569  11.095  10.256
99223W        W64483   6.325  41.800   2.337
99224W        W64484   2.926   5.973   0.987
99225W        W64485  10.107  43.922  14.872
99226W        W64486  32.899  28.915   3.747
99227W        W64487  31.504  22.520   1.780
99228W        W64488  29.483  32.147  10.475
99229W        W64489  10.997  43.946   3.186
99230W        W64490  28.646  28.458   4.943
99231W        W64491   0.920  36.823   0.308
99232W        W64492  31.877  24.057   1.008
99233W        W64493  31.094  12.131   1.237
99234W        W64494  17.801  23.175   0.704
99235W        W64495  41.792  25.123   1.398
99236W        W64496  27.680   1.908   3.711
99237W        W64497  14.629   4.170  14.960
99238W        W64498  38.093   8.139  11.180
99239W        W64499   9.090  32.455  14.393
99240W        W64500  17.481  35.374  14.154
99241W        W64501  35.476  24.573   2.363
99242W        W64502  40.188  35.845  10.259
99243W        W64503  10.558  27.710   1.822
99244W        W64504  34.263  43.719   1.702
99245W        W64505  17.786   2.725  11.644
99246W        W64506  17.256  24.794   0.930
99247W        W64507  17.666  16.654   4.114
99248W        W64508  38.927  29.319  14.778
99249W        W64509  22.499  11.497   0.034
99250W        W64510  29.675  20.352   2.252
99251W        W64511   2.851   5.458   0.963
99252W        W64512  15.674  27.003  11.944
99253W        W64513  35.551   4.688  14.904
99254W        W64514  13.717  23.151  14.253
99255W        W64515  28.458  32.627  13.334
99256W        W64516  32.427  33.149  14.859
99257W        W64517  14.341  13.879  14.580
99258W        W64518  35.141  36.614   2.316
99259W        W64519  27.740  35.018  12.079
99260W        W64520  22.463  33.200   2.825
99261W        W64521  29.931  22.125  14.377
99262W        W64522  16.980  36.467   4.271
99263W        W64523  13.702  32.405  14.210
99264W        W64524  23.120  32.900  11.024
99265W        W64525  22.844   6.248  12.127
99266W        W64526  20.904   8.154  12.772
99267W        W64527  33.165  42.885  10.644
99268W        W64528  15.745  17.063  10.607
99269W        W64529   9.313  41.951   4.549
99270W        W64530  29.213  24.690   0.753
99271W        W64531   1.126  22.885  12.075
99272W        W64532  31.398  40.800   3.210
99273W        W64533   4.361   9.322  12.406
99274W        W64534  35.452  26.958   5.299
99275W        W64535  22.858  40.859   3.342
99276W        W64536  10.952  29.311   5.020
99277W        W64537  25.857   5.493   3.695
99278W        W64538   9.763   7.407   0.291
99279W        W64539  28.943  42.541   3.672
99280W        W64540  40.582   9.908   3.220
99281W        W64541  27.082   1.399  11.388
99282W        W64542   6.305   2.046  10.201
99283W        W64543  29.108   9.725  14.007
99284W        W64544   3.358  29.733   1.812
99285W        W64545  43.989  19.790  14.835
99286W        W64546  39.739  40.991  13.099
99287W        W64547  44.876  29.958  10.708
99288W        W64548   2.052  42.520  11.701
99289W        W64549  19.265  36.639   3.206
99290W        W64550   9.902  29.378   1.873
99291W        W64551  29.171  21.112  13.420
99292W        W64552   3.276  43.496   0.409
99293W        W64553  23.558  41.365   2.843
99294W        W64554   6.953  28.021  14.007
99295W        W64555   1.793  37.921  11.148
99296W        W64556  39.631  36.268  11.034
99297W        W64557  20.561  23.078   1.891
99298W        W64558  37.045   0.707  11.271
99299W        W64559  17.515  24.185   2.354
99300W        W64560   9.716  21.305  14.722
99301W        W64561   8.850  21.512  12.858
99302W        W64562  32.352  19.789  12.089
99303W        W64563   2.727  30.392   4.997
99304W        W64564  15.081   3.721  12.096
99305W        W64565  21.279  31.058  13.904
99306W        W64566  16.867   5.373  10.591
99307W        W64567  26.772  11.079  13.418
99308W        W64568   0.953   3.674  13.031
99309W        W64569  29.033   5.461   4.184
99310W        W64570  44.976  43.285  14.302
99311W        W64571  14.392   5.782  10.765
99312W        W64572  42.769  31.636   3.682
99313W        W64573   9.721  26.682   2.335
99314W        W64574  23.200  43.085  14.952
99315W        W64575  43.807  13.654  14.404
99316W        W64576   5.109   2.017  12.493
99317W        W64577  25.140  38.278   3.770
99318W        W64578  24.399   7.400   1.253
99319W        W64579  36.626  44.008   5.256
99320W        W64580  26.544  23.961   3.046
99321W        W64581  42.805  21.548   4.391
99322W        W64582  30.428  42.512  14.913
99323W        W64583  10.645  44.762   4.566
99324W        W64584  41.449   6.172  13.443
99325W        W64585  44.481  26.606  12.916
99326W        W64586   9.593  12.391   3.033
99327W        W64587  10.609  15.678   3.271
99328W        W64588  44.186  32.300  12.077
99329W        W64589  17.389   4.303   4.507
99330W        W64590  19.804  35.771  10.269
99331W        W64591  30.201  10.762   2.613
99332W        W64592  14.276   3.352  13.341
99333W        W64593   6.635  10.305  11.595
99334W        W64594  10.518  36.307  13.942
99335W        W64595  24.758  30.707  10.696
99336W        W64596  13.673   3.016   3.626
99337W        W64597  39.373  22.726  14.824
99338W        W64598  25.428  10.894   3.988
99339W        W64599   1.319   9.631   4.422
99340W        W64600  39.496  13.032   4.039
99341W        W64601  44.273  18.429   1.602
99342W        W64602  23.444   7.679  10.701
99343W        W64603  10.690  15.771   4.084
99344W        W64604   9.866  42.568   0.294
99345W        W64605   8.943   5.658   4.607
99346W        W64606  19.036  43.818  12.066
99347W        W64607   7.935  38.295  11.135
99348W        W64608   0.559   6.937   0.976
99349W        W64609  23.982  26.303   2.491
99350W        W64610  36.945  24.329  11.706
99351W        W64611  44.740  34.168   2.827
99352W        W64612  32.701  23.130   5.026
99353W        W64613  40.819  11.243   0.784
99354W        W64614  41.490  39.119  10.619
99355W        W64615   4.896   0.038   0.971
99356W        W64616   4.648  31.885   3.226
99357W        W64617  41.772  16.979   3.651
99358W        W64618   7.200  26.535  11.869
99359W        W64619  23.494  36.111  13.417
99360W        W64620   2.819  16.185  11.229
99361W        W64621  26.232  41.941  10.976
99362W        W64622  39.410  10.587  10.771
99363W        W64623   9.038   4.950   0.813
99364W        W64624  28.548   5.448  11.980
99365W        W64625  10.428  22.654   4.602
99366W        W64626  43.821   4.928   2.640
99367W        W64627  23.075  44.769   0.390
99368W        W64628  33.547  27.419  12.515
99369W        W64629  30.655  14.818   3.390
99370W        W64630  13.318  31.655  11.439
99371W        W64631  26.712  34.131   3.668
99372W        W64632  42.233  35.371  12.892
99373W        W64633  35.286  40.035  10.647
99374W        W64634  32.934  14.113   4.045
99375W        W64635  43.391  43.991   2.730
99376W        W64636  43.136  11.787   3.428
99377W        W64637  34.603  12.669   1.439
99378W        W64638  27.477  30.133   1.407
99379W        W64639  28.543  22.465   3.196
99380W        W64640  36.034  43.238  12.043
99381W        W64641  19.310  39.586   2.432
99382W        W64642  13.159  38.409  13.869
99383W        W64643  12.220  43.569   0.490
99384W        W64644   5.682  10.675   0.970
99385W        W64645  20.269  15.305   3.621
99386W        W64646  41.005  17.195  10.900
99387W        W64647  42.106  25.682  13.287
99388W        W64648  39.055  34.282  14.299
99389W        W64649  30.962  15.050  11.560
99390W        W64650  34.547  36.596  12.239
99391W        W64651   7.775   1.724  11.077
99392W        W64652   8.653  34.244  12.062
99393W        W64653  28.685  36.672  13.447
99394W        W64654  26.743  38.303  12.941
99395W        W64655  26.657  31.438  11.529
99396W        W64656  40.994  34.446   2.847
99397W        W64657   9.187   5.761   0.552
99398W        W64658  16.775  13.170   2.629
99399W        W64659  36.927  16.052  11.191
99400W        W64660   0.782  43.667   3.640
99401W        W64661  25.558  22.307  11.389
99402W        W64662   7.400  25.745  12.396
99403W        W64663  34.442  41.264   1.842
99404W        W64664  34.453  24.801  10.659
99405W        W64665  21.763  12.589  14.693
99406W        W64666  25.097  12.890   1.768
99407W        W64667  43.580  28.887   0.958
99408W        W64668  25.525  12.705   5.336
99409W        W64669  20.121  16.301   3.783
99410W        W64670  27.953  31.066  14.592
99411W        W64671  14.706   7.662  13.203
99412W        W64672   3.456  40.312  11.510
99413W        W64673  30.542  34.154   4.666
99414W        W64674  29.628   5.612  13.395
99415W        W64675   2.429  33.598   0.563
99416W        W64676  11.371  37.545  11.667
99417W        W64677  26.250  35.482  12.052
99418W        W64678  37.024   6.872  10.413
99419W        W64679  10.285  30.582  13.589
99420W        W64680   3.801  42.505   3.960
99421W        W64681   2.177  38.804   1.280
99422W        W64682  41.352   3.998   2.207
99423W        W64683  13.725  42.719   0.417
99424W        W64684  16.500   5.817  14.380
99425W        W64685  18.657   5.227  10.620
99426W        W64686  17.787  30.817  11.978
99427W        W64687  36.235  34.022  11.997
99428W        W64688  26.507   6.106  11.695
99429W        W64689  40.433   4.795  13.011
99430W        W64690  18.630  12.590  10.329
99431W        W64691  27.441  23.119   4.662
99432W        W64692  37.977  19.721   0.749
99433W        W64693  29.978   5.279   3.654
99434W        W64694  24.867  38.046  11.307
99435W        W64695  29.964  37.577  10.748
99436W        W64696   7.001  37.020   0.497
99437W        W64697   1.280  31.208   1.831
99438W        W64698  27.605  14.526  12.061
99439W        W64699  17.902  19.865   3.657
99440W        W64700  21.020  21.215  14.808
99441W        W64701  19.358  26.687  12.131
99442W        W64702  32.530  18.361   4.925
99443W        W64703  43.387  38.063  10.932
99444W        W64704   4.813  17.025  10.086
99445W        W64705   5.202  19.649   4.076
99446W        W64706   8.375   5.861  14.972
99447W        W64707   4.697  44.858  14.947
99448W        W64708  14.861  18.483   0.340
99449W        W64709  30.151  10.832   1.698
99450W        W64710  23.919  39.866  10.686
99451W        W64711  12.206   6.522   2.138
99452W        W64712   4.659  25.543   2.411
99453W        W64713  38.549  42.840   1.960
99454W        W64714  24.685  22.247   1.879
99455W        W64715  17.486  34.458  14.190
99456W        W64716   3.435  40.801  13.831
99457W        W64717  40.419  29.066   3.592
99458W        W64718  36.621  17.643   4.178
99459W        W64719  11.089   7.584  12.835
99460W        W64720  43.900  11.607  12.945
99461W        W64721   7.000  31.401  11.313
99462W        W64722  42.062   2.494  13.575
99463W        W64723   7.696  13.111   0.830
99464W        W64724   7.361  26.496  14.787
99465W        W64725  13.237  38.525  13.367
99466W        W64726  28.546  39.564  14.977
99467W        W64727  41.380  24.496  13.014
99468W        W64728   0.942  16.257  11.653
99469W        W64729  38.831  31.790   3.004
99470W        W64730  29.535  27.716  14.985
99471W        W64731  37.599  39.362  11.052
99472W        W64732  31.841  15.089  11.661
99473W        W64733  44.356  14.078  13.482
99474W        W64734  42.020   0.343  14.444
99475W        W64735  10.344  36.309  14.509
99476W        W64736  14.374  18.046   3.652
99477W        W64737   1.839  12.149   4.885
99478W        W64738   9.245  32.946  11.989
99479W        W64739   9.305  31.585  13.043
99480W        W64740  42.120  25.855  14.595
99481W        W64741  18.304   6.361   3.575
99482W        W64742  10.722  29.094  12.546
99483W        W64743  31.239  10.495   4.946
99484W        W64744  25.178  26.198   4.625
99485W        W64745  41.422  14.342  14.884
99486W        W64746  28.800  21.095  12.501
99487W        W64747  22.131  16.679   3.703
99488W        W64748  14.190  33.825   0.377
99489W        W64749  35.315  25.495   3.449
99490W        W64750   9.579   7.471  10.124
99491W        W64751  12.712  35.160  13.835
99492W        W64752  39.536  15.188   3.823
99493W        W64753  19.673  41.260  13.040
99494W        W64754  33.158  12.330  14.889
99495W        W64755  28.572  33.018   1.652
99496W        W64756   2.136  40.084   4.154
99497W        W64757  43.087  40.927  14.053
99498W        W64758  31.977  31.068   0.518
99499W        W64759   7.320  29.983  12.060
99500W        W64760  43.608  15.836   1.665
99501W        W64761  34.594  22.038  14.309
99502W        W64762  13.189  39.060  14.369
99503W        W64763  41.167  21.939   0.347
99504W        W64764   2.700  39.537   4.081
99505W        W64765  25.965  36.605   0.460
99506W        W64766  14.075  18.033   1.425
99507W        W64767  27.099  13.377   1.867
99508W        W64768  25.716  28.574   4.573
99509W        W64769  44.873  36.063   0.022
99510W        W64770  26.229  41.443  10.855
99511W        W64771   5.431   7.306  12.501
99512W        W64772  33.072  29.075  12.953
99513W        W64773   1.545  20.557   1.521
99514W        W64774   4.822  12.998   4.259
99515W        W64775  19.742   0.249   4.160
99516W        W64776  40.317  26.864   4.474
99517W        W64777  42.472  34.374   0.458
99518W        W64778  19.821  39.340  12.993
99519W        W64779  11.977  40.453   4.121
99520W        W64780  38.971  13.110   0.983
99521W        W64781  20.700  34.155  14.031
99522W        W64782  42.256  10.199  11.526
99523W        W64783  34.406  41.317  12.978
99524W        W64784   0.733  14.349  13.945
99525W        W64785  36.947  27.095  12.543
99526W        W64786   5.794  37.777  12.133
99527W        W64787  32.513  29.112  12.565
99528W        W64788  12.538  39.236  13.957
99529W        W64789  15.739   5.650   3.366
99530W        W64790   2.152   8.141  14.837
99531W        W64791  41.331  21.230   3.237
99532W        W64792  44.393   2.735  11.849
99533W        W64793  40.443   5.229   3.637
99534W        W64794  40.840  14.107   1.477
99535W        W64795   4.019  31.084   3.006
99536W        W64796  40.068  26.399  12.418
99537W        W64797  31.010  36.090  13.390
99538W        W64798  42.861   2.895  14.514
99539W        W64799   8.661  14.144   1.746
99540W        W64800  33.294  27.708  12.881
99541W        W64801  29.270  40.324   1.458
99542W        W64802  44.181  30.418  14.920
99543W        W64803  28.549  29.976   2.738
99544W        W64804  42.779  32.932  12.556
99545W        W64805   3.775  37.753  14.075
99546W        W64806   2.462  14.669   1.328
99547W        W64807  41.058  22.107  14.818
99548W        W64808  42.805   5.105   1.344
99549W        W64809   9.333  27.638   3.193
99550W        W64810  16.340  31.650   4.714
99551W        W64811  21.778  37.839   2.066
99552W        W64812  20.628   9.638   1.599
99553W        W64813   0.470  34.551   4.369
99554W        W64814   5.512   4.888  13.909
99555W        W64815  29.071  35.779   4.686
99556W        W64816  20.461  41.460   3.989
99557W        W64817  28.447   9.769   1.538
99558W        W64818   3.087  19.430  14.771
99559W        W64819  34.259   4.514   2.826
99560W        W64820  23.644  23.576   0.498
99561W        W64821   4.027  27.416   0.365
99562W        W64822  33.370  15.861  11.013
99563W        W64823  15.675  17.205   1.459
99564W        W64824  34.522   8.847   0.850
99565W        W64825  44.426  12.275   2.676
99566W        W64826  22.709   4.183  13.481
99567W        W64827  21.811  39.264  13.551
99568W        W64828   1.781  28.709   2.345
99569W        W64829  30.005   1.505   3.234
99570W        W64830   3.257  29.065   5.318
99571W        W64831  34.375  41.293   2.642
99572W        W64832  27.164  29.184  11.613
99573W        W64833   2.528   2.408  12.884
99574W        W64834  23.954  28.075   3.647
99575W        W64835  14.822  41.421   0.277
99576W        W64836   4.211  33.540  11.067
99577W        W64837  33.863  34.869  12.548
99578W        W64838  44.923  42.729   4.657
99579W        W64839  39.868   1.783  12.944
99580W        W64840  43.745  32.731   2.498
99581W        W64841   7.119  10.406  11.568
99582W        W64842   6.878  14.741  11.755
99583W        W64843  43.971   4.255  10.987
99584W        W64844  29.406  43.857  11.608
99585W        W64845  14.023   3.418   3.564
99586W        W64846  40.495  16.688   2.762
99587W        W64847   7.942  34.012  13.588
99588W        W64848  12.904  42.597  11.999
99589W        W64849  21.845   8.294   3.090
99590W        W64850  18.542  17.503   0.880
99591W        W64851   8.705  24.608  13.181
99592W        W64852  32.881  22.433   4.152
99593W        W64853  37.930  22.531   1.364
99594W        W64854  44.786  32.060  13.866
99595W        W64855   0.468  29.620   4.154
99596W        W64856   2.225  13.378  14.520
99597W        W64857  28.781  17.720   2.758
99598W        W64858  43.340  43.403   3.315
99599W        W64859  14.700  19.459  11.589
99600W        W64860  28.594  44.859   0.570
99601W        W64861  14.870  19.225  10.177
99602W        W64862  17.136  40.593   2.357
99603W        W64863  10.941   0.715  12.431
99604W        W64864  15.650  32.194   0.069
99605W        W64865  29.730  28.369  12.984
99606W        W64866  22.690  31.408   1.358
99607W        W64867  39.049   2.847   4.871
99608W        W64868  13.345  23.097   1.918
99609W        W64869  29.101   9.393  10.698
99610W        W64870  22.462   1.041   0.379
99611W        W64871  33.560  38.823   4.133
99612W        W64872  32.914  12.584   3.239
99613W        W64873   4.786  37.019  12.612
99614W        W64874   1.736  25.668  12.299
99615W        W64875  27.497   1.965   2.947
99616W        W64876  41.436  32.964  13.801
99617W        W64877  27.081  31.698  11.575
99618W        W64878  16.944  38.964   4.628
99619W        W64879  10.536  35.047  10.810
99620W        W64880  36.933  38.967  11.622
99621W        W64881   2.229  29.123  11.715
99622W        W64882  16.551  29.502   4.120
99623W        W64883  37.036  21.241   3.799
99624W        W64884  31.648  10.104   3.760
99625W        W64885  23.817  41.003   4.908
99626W        W64886  15.290   3.326  13.725
99627W        W64887  14.364   9.215   0.800
99628W        W64888  31.859  41.078   1.811
99629W        W64889   0.350  26.002   2.210
99630W        W64890  40.884  10.323  13.636
99631W        W64891  38.899  23.595  12.521
99632W        W64892  13.156  24.657  13.840
99633W        W64893  19.103  26.625  10.009
99634W        W64894  31.602  13.802   4.651
99635W        W64895  44.651  29.406   3.547
99636W        W64896  42.100  32.242  10.149
99637W        W64897  10.147  44.105  13.507
99638W        W64898  16.320  32.142  10.244
99639W        W64899  24.598  26.403   3.277
99640W        W64900  23.124  11.813  13.911
99641W        W64901  37.302  34.654   1.704
99642W        W64902   0.866  42.772   1.345
99643W        W64903  10.909  31.744  13.549
99644W        W64904  27.153  14.175   2.252
99645W        W64905  26.727   4.102   2.715
99646W        W64906  36.837   1.907  13.019
99647W        W64907  14.276  32.850   1.657
99648W        W64908  26.740  26.562  13.436
99649W        W64909  13.171  40.748   5.136
99650W        W64910  43.750  19.027  11.501
99651W        W64911  29.493   5.704   1.199
99652W        W64912  35.055  37.984   0.364
99653W        W64913  19.851   2.663   2.355
99654W        W64914  22.161  20.144  12.071
99655W        W64915   1.154  16.703  12.435
99656W        W64916  27.694  13.198  12.953
99657W        W64917  26.070  16.109  14.985
99658W        W64918   4.143  13.740  13.407
99659W        W64919  18.226  14.572  12.951
99660W        W64920  21.114  30.971   4.341
99661W        W64921   8.843  41.938   3.387
99662W        W64922  32.608  32.449  11.477
99663W        W64923  24.397  15.594  14.987
99664W        W64924  26.974  33.675  13.237
99665W        W64925  19.294   5.170  12.188
99666W        W64926   1.348  42.423   3.153
99667W        W64927   6.707  10.806  14.535
99668W        W64928   9.304  35.826   3.202
99669W        W64929  36.995  38.092   3.222
99670W        W64930  20.889  28.495  12.069
99671W        W64931  17.667  32.608   0.902
99672W        W64932   0.293  19.274  13.463
99673W        W64933  35.375   3.274  13.140
99674W        W64934  37.682  12.357   0.435
99675W        W64935   2.905  32.099   9.967
99676W        W64936  27.058   3.800  14.968
99677W        W64937   0.880  42.428   1.728
99678W        W64938  14.544   7.630   4.139
99679W        W64939  15.843  11.746  11.081
99680W        W64940   8.173  12.736   1.753
99681W        W64941  38.511  27.515  10.966
99682W        W64942   0.702  36.959  11.455
99683W        W64943   4.341   6.913   2.732
99684W        W64944  42.539  28.596   3.785
99685W        W64945  13.054  13.358   3.691
99686W        W64946  37.417  36.320  12.977
99687W        W64947  19.166  37.933   1.922
99688W        W64948  33.548  19.211  11.217
99689W        W64949  36.605  44.249  12.546
99690W        W64950  15.194  41.399   4.626
99691W        W64951  15.672   2.171  13.313
99692W        W64952  13.382  17.248   1.638
99693W        W64953  25.470  30.512   3.039
99694W        W64954  32.142  26.384  11.997
99695W        W64955  20.133  27.211   2.388
99696W        W64956  39.845   3.665  13.096
99697W        W64957  27.973  39.500  13.485
99698W        W64958   3.412  34.880   1.306
99699W        W64959  37.277  30.607   1.648
99700W        W64960  27.196  24.282  11.606
99701W        W64961  13.680   9.717   4.090
99702W        W64962   7.824  13.011  14.403
99703W        W64963   0.360  40.229  14.389
99704W        W64964  37.451  43.506  14.609
99705W        W64965   1.289  26.468   1.850
99706W        W64966  34.556  39.822  11.141
99707W        W64967  32.047  13.809   3.360
99708W        W64968  40.398  33.457   1.736
99709W        W64969  20.317  33.381  11.273
99710W        W64970   3.730  40.593   2.672
99711W        W64971   0.389   2.215   1.929
99712W        W64972  22.696  39.439   0.543
99713W        W64973  32.734  20.904  11.097
99714W        W64974  31.934  26.651   2.179
99715W        W64975  43.125  23.514   1.554
99716W        W64976   8.646  27.781   2.461
99717W        W64977  18.664  36.917  12.030
99718W        W64978  44.881  36.424  12.854
99719W        W64979  42.491  16.254  12.032
99720W        W64980  17.717  26.029  10.730
99721W        W64981  39.420  20.257   4.324
99722W        W64982  39.564   1.853  13.970
99723W        W64983  25.031  41.884   1.045
99724W        W64984  30.434  42.010   2.728
99725W        W64985  24.672  15.459   0.535
99726W        W64986  26.114  38.135   2.220
99727W        W64987  34.654  32.438  13.897
99728W        W64988   9.549  36.914   4.750
99729W        W64989   0.812  20.681  13.555
99730W        W64990  42.033  27.532   2.266
99731W        W64991  32.107  35.493  12.636
99732W        W64992  24.020   7.053   4.880
99733W        W64993  26.677  29.397  10.878
99734W        W64994  23.861  30.645  12.899
99735W        W64995   7.292  27.682   2.302
99736W        W64996  23.640  10.292  14.395
99737W        W64997  19.060   2.040  12.935
99738W        W64998   4.672  43.474   2.218
99739W        W64999   2.488  13.632   1.312
99740W        W65000  41.318  17.116   1.156
99741W        W65001  28.134  43.550  12.969
99742W        W65002  34.071   8.367   1.371
99743W        W65003   3.723  17.994  13.764
99744W        W65004  11.381  32.301   2.680
99745W        W65005  24.257  27.008   1.179
99746W        W65006  20.419  14.494   0.326
99747W        W65007   2.487  12.690   1.089
99748W        W65008  38.228   4.367  11.927
99749W        W65009  35.387  33.406  14.838
99750W        W65010   1.877   1.451  13.791
99751W        W65011   3.539  26.791   4.651
99752W        W65012  31.749  32.503   0.194
99753W        W65013  39.496  16.145  14.574
99754W        W65014  12.640  42.502  11.577
99755W        W65015   8.312  36.786   1.759
99756W        W65016  37.558  16.803   3.744
99757W        W65017   1.468   9.825   2.759
99758W        W65018  26.169  29.514  14.709
99759W        W65019  12.797  38.861   4.158
99760W        W65020  13.768  36.075   2.877
99761W        W65021   5.190  44.410  11.214
99762W        W65022  23.156   0.855  13.279
99763W        W65023  36.424  38.179  13.902
99764W        W65024  31.227   2.398  12.419
99765W        W65025  25.611  16.183  11.405
99766W        W65026   3.172  43.307  14.106
99767W        W65027  18.718   6.606   1.860
99768W        W65028  16.763  38.814   3.756
99769W        W65029   1.761  40.577   4.959
99770W        W65030   2.505  21.054  11.180
99771W        W65031  25.046   0.424  10.654
99772W        W65032  21.970  20.406   4.591
99773W        W65033  14.081  27.557   4.540
99774W        W65034  20.222  17.827   2.071
99775W        W65035  13.760  42.438   0.866
99776W        W65036  15.717   7.407  12.280
99777W        W65037  36.929  19.779  12.637
99778W        W65038   1.525  37.075   3.511
99779W        W65039   7.093  31.868  11.110
99780W        W65040   8.543  28.521   0.824
99781W        W65041   6.843   8.695   1.328
99782W        W65042  10.292   8.819  13.832
99783W        W65043  12.889  42.151   3.169
99784W        W65044  18.391  39.456  12.669
99785W        W65045  35.123  25.287   1.263
99786W        W65046  42.556   2.791  13.045
99787W        W65047  13.239  32.955  11.954
99788W        W65048  43.740  17.033   2.177
99789W        W65049   9.074  12.207   0.046
99790W        W65050   5.640   9.850   0.762
99791W        W65051  37.303  25.614   0.952
99792W        W65052  34.505  22.606   2.555
99793W        W65053   6.308   2.965   0.964
99794W        W65054  18.439  30.584  13.996
99795W        W65055  18.125   5.995   1.916
99796W        W65056   2.212  15.699  11.587
99797W        W65057  29.919  43.896  11.656
99798W        W65058   5.612  20.796  10.598
99799W        W65059  19.491  35.426   3.966
99800W        W65060  35.332  41.907   0.903
99801W        W65061   3.391  36.868   1.122
99802W        W65062  15.029   7.740  13.601
99803W        W65063  15.307   1.504  14.434
99804W        W65064   1.400  13.355   4.709
99805W        W65065  13.345  36.917   2.857
99806W        W65066  36.895  30.453   0.732
99807W        W65067   5.022  27.611   2.066
99808W        W65068  40.049  14.443  12.414
99809W        W65069  15.843  26.754  12.483
99810W        W65070  14.693  37.234  11.518
99811W        W65071  31.425  19.297  12.819
99812W        W65072  19.134  30.076   2.356
99813W        W65073  18.280  27.106  14.825
99814W        W65074   0.909  32.090   0.409
99815W        W65075  41.299   0.992  14.799
99816W        W65076  44.723  26.666  12.458
99817W        W65077  39.119  20.007  13.524
99818W        W65078  30.159  21.206  14.374
99819W        W65079  35.577  25.457   2.470
99820W        W65080   0.271   2.770   2.241
99821W        W65081   1.443  28.757  10.659
99822W        W65082  14.588  23.346   9.753
99823W        W65083  44.679  28.167  12.538
99824W        W65084  20.173   6.805  10.753
99825W        W65085  24.033  25.690   2.557
99826W        W65086   2.974  24.734   3.657
99827W        W65087  22.765  16.384   2.124
99828W        W65088  28.226  12.331   3.318
99829W        W65089   5.210  36.109   2.214
99830W        W65090  18.356  18.026  13.043
99831W        W65091  16.198  16.552   1.845
99832W        W65092  16.629  39.979  14.799
99833W        W65093   1.020  29.010   3.489
99834W        W65094  39.418  34.591  12.066
99835W        W65095   5.968   1.918   4.579
99836W        W65096  14.671  34.073   3.124
99837W        W65097  25.060  32.102  11.147
99838W        W65098  17.775  26.673   0.873
99839W        W65099  28.522  22.750   0.858
99840W        W65100  39.526  40.633  13.900
99841W        W65101  23.762  38.094  13.568
99842W        W65102   8.300   7.237  13.579
99843W        W65103  39.321  43.655  13.930
99844W        W65104  18.259  26.576  11.141
99845W        W65105   8.792  19.574   3.825
99846W        W65106  24.445  37.407  13.429
99847W        W65107  38.148  38.567   0.338
99848W        W65108  41.471   9.727  11.642
99849W        W65109   2.836  11.393   3.617
99850W        W65110  34.360  10.093   3.161
99851W        W65111   9.755  32.942   4.399
99852W        W65112  38.498  40.119  13.039
99853W        W65113  16.338  26.389   4.181
99854W        W65114   1.041   0.948   4.080
99855W        W65115  29.030  26.606   0.871
99856W        W65116  13.800  31.889   2.799
99857W        W65117  44.664  33.626   4.192
99858W        W65118  28.951  15.085   2.878
99859W        W65119   5.688   8.376   2.834
99860W        W65120  16.172   2.972  14.157
99861W        W65121   1.555  15.298   3.294
99862W        W65122  23.689  25.672  12.233
99863W        W65123  31.852  12.665  13.943
99864W        W65124   7.783  36.917   4.638
99865W        W65125  12.203  29.697  14.389
99866W        W65126  17.045   5.938  12.527
99867W        W65127   4.527  19.413  12.999
99868W        W65128  35.844   8.358  14.169
99869W        W65129  20.649   5.110  13.528
99870W        W65130  16.505  28.436   4.488
99871W        W65131   7.900  27.939  11.623
99872W        W65132  24.112  28.979   2.385
99873W        W65133   4.734   7.197  14.710
99874W        W65134  29.539   4.763  14.568
99875W        W65135  16.806  32.690   1.744
99876W        W65136  18.080  39.461   3.852
99877W        W65137  35.886  29.484   4.119
99878W        W65138   9.418  33.548  12.805
99879W        W65139  29.308  20.977  12.422
99880W        W65140  30.596  36.807  10.950
99881W        W65141  13.651  14.218  14.794
99882W        W65142   9.857  25.711   1.650
99883W        W65143  24.960  42.066   5.044
99884W        W65144   2.499  22.232   4.978
99885W        W65145  35.610   2.524   2.571
99886W        W65146  30.142  23.938   0.137
99887W        W65147  33.521   1.398  10.882
99888W        W65148  40.301   8.129  13.462
99889W        W65149  15.702  22.952   4.964
99890W        W65150  27.448  12.008   4.898
99891W        W65151  44.259  20.628   4.169
99892W        W65152  24.999   9.019   4.222
99893W        W65153  33.336  17.002  11.527
99894W        W65154  25.357  43.729  11.901
99895W        W65155  13.800  36.939   4.729
99896W        W65156  36.395  28.481  13.121
99897W        W65157  13.406  11.605   2.733
99898W        W65158  37.483   8.143  12.034
99899W        W65159  28.962   2.718  11.404
99900W        W65160   6.822  36.819   1.326
99901W        W65161  35.872  42.537  11.662
99902W        W65162  26.584   3.779   3.677
99903W        W65163  25.006  25.502  14.895
99904W        W65164  12.487  23.663  11.552
99905W        W65165  36.554   6.149   1.289
99906W        W65166  12.877  39.463   2.620
99907W        W65167  16.388   6.789  10.603
99908W        W65168  32.537  27.041  14.436
99909W        W65169  20.203  40.620   0.224
99910W        W65170  35.001   3.722   2.479
99911W        W65171  12.012  33.014   1.931
99912W        W65172   0.285  29.003  12.443
99913W        W65173  33.030  23.538  12.421
99914W        W65174  10.341  27.970  11.943
99915W        W65175  20.038  18.236   4.273
99916W        W65176  44.334  14.034  14.476
99917W        W65177  44.813  27.527  14.723
99918W        W65178  37.867  16.584   2.186
99919W        W65179   1.709  23.225  13.369
99920W        W65180  12.235  26.575  14.706
99921W        W65181  12.245   8.644  13.129
99922W        W65182  20.711  10.704   3.206
99923W        W65183  11.271  43.319  11.515
99924W        W65184  28.086  24.943   1.745
99925W        W65185  39.996  34.316  12.443
99926W        W65186  43.481   2.117   2.814
99927W        W65187   7.916  11.365  12.391
99928W        W65188  28.433  10.732   2.320
99929W        W65189  11.730   9.734   4.182
99930W        W65190  24.949  32.481  14.674
99931W        W65191  12.809   5.902   5.280
99932W        W65192  40.265   4.287  12.004
99933W        W65193   4.967  11.812  12.536
99934W        W65194  37.491   8.017  12.548
99935W        W65195  14.397  18.584   3.704
99936W        W65196  33.929   2.903   5.359
99937W        W65197   3.794   7.144  13.900
99938W        W65198  25.099  38.338  13.738
99939W        W65199  39.371  18.773  12.136
99940W        W65200  29.720   6.278  12.787
99941W        W65201  35.978  25.171  11.120
99942W        W65202  25.559   2.428  12.944
99943W        W65203   9.559  14.585   2.766
99944W        W65204   5.407  28.282  11.157
99945W        W65205  37.812   4.644  10.770
99946W        W65206  23.456  13.564   0.938
99947W        W65207  12.356   7.904  10.779
99948W        W65208  35.964   7.149  11.785
99949W        W65209   8.337  27.970   1.358
99950W        W65210  42.234  32.738   2.145
99951W        W65211  18.638   3.291  13.234
99952W        W65212  38.189  24.030  14.490
99953W        W65213  20.659  44.433  12.426
99954W        W65214  16.421  13.039   0.924
99955W        W65215  25.616  10.457  12.531
99956W        W65216   0.323   4.449   4.515
99957W        W65217  35.224  10.180   0.467
99958W        W65218  11.190  15.213   0.766
99959W        W65219   8.678  12.226   2.814
99960W        W65220   4.688  23.645   0.489
99961W        W65221  27.442  44.418   0.377
99962W        W65222  42.006  18.697  11.874
99963W        W65223  15.647   0.973   3.622
99964W        W65224  38.011  17.789  11.686
99965W        W65225  29.493  21.243   1.320
99966W        W65226  19.782  29.689  10.886
99967W        W65227  11.777  20.539   2.237
99968W        W65228  20.988  41.377  13.902
99969W        W65229  38.039  22.271  11.561
99970W        W65230  11.065   0.543  14.503
99971W        W65231  41.901  42.061   1.391
99972W        W65232   4.026  29.702   4.073
99973W        W65233  19.688  37.651   4.954
99974W        W65234  20.619  13.316   0.908
99975W        W65235  14.796   0.266  12.271
99976W        W65236   0.333  41.220   2.752
99977W        W65237  15.866  24.119  10.794
99978W        W65238  17.632  23.697  11.445
99979W        W65239  34.045  33.413   3.937
99980W        W65240   2.733   8.172  13.540
99981W        W65241  29.996  20.265  14.949
99982W        W65242  28.580  16.379   3.172
99983W        W65243  17.696   8.750  12.320
99984W        W65244  37.237  40.566   2.662
99985W        W65245  24.739  26.500  14.459
99986W        W65246  26.535  10.348  11.209
99987W        W65247  38.268  11.363   4.173
99988W        W65248  42.011  27.543  11.204
99989W        W65249  32.227  26.662   9.704
99990W        W65250  28.351  33.152  12.982
99991W        W65251  15.209  32.127  10.371
99992W        W65252  27.922   7.371   0.580
99993W        W65253  37.852  29.308   1.911
99994W        W65254  44.347   9.708  14.945
99995W        W65255  39.264  16.677   2.306
99996W        W65256  29.739  18.318   4.774
99997W        W65257  39.388   4.719   0.786
99998W        W65258   0.783  10.724   1.559
99999W        W65259  21.327  19.143   2.906
    0W        W65260  32.045  15.281   1.730
    1W        W65261  29.991  38.185  13.867
    2W        W65262  12.474  13.771   0.077
    3W        W65263  15.588  19.062   2.794
    4W        W65264  11.919  37.145  11.187
    5W        W65265  18.466   6.660  14.020
    6W        W65266  40.911  27.643   0.040
    7W        W65267  24.674  31.852   0.256
    8W        W65268  19.337  32.602  12.690
    9W        W65269  22.290  30.428  13.049
   10W        W65270  16.804   0.383   2.386
   11W        W65271  15.209  27.721   1.855
   12W        W65272   0.334  44.740   2.288
   13W        W65273   5.845  22.455  13.443
   14W        W65274  10.655   4.793  14.482
   15W        W65275  30.544   1.683   1.230
   16W        W65276  27.036  21.513   4.603
   17W        W65277  20.129  22.892   1.648
   18W        W65278  13.666   0.398  13.565
   19W        W65279   5.100  27.002  10.668
   20W        W65280  18.842   5.506  14.550
   21W        W65281  38.561  29.910  10.821
   22W        W65282  44.912  40.062  11.564
   23W        W65283   7.413   0.715  14.133
   24W        W65284  11.760  35.951   3.600
   25W        W65285  34.964  28.755  11.678
   26W        W65286  28.816  31.138   0.485
   27W        W65287   7.951   0.269   3.574
   28W        W65288   8.905  17.403   2.460
   29W        W65289   5.685  26.089   4.632
   30W        W65290  13.887  24.657  11.579
   31W        W65291  16.851  26.307   2.734
   32W        W65292   9.374  40.469  13.059
   33W        W65293  34.683  11.182   0.887
   34W        W65294  41.919   7.288  14.699
   35W        W65295  39.274  11.407  14.914
   36W        W65296  23.233  25.109  11.133
   37W        W65297  38.043  24.547  14.450
   38W        W65298  33.571   4.847  14.830
   39W        W65299   4.733  26.690   0.774
   40W        W65300  33.726  27.650  13.811
   41W        W65301  24.607  44.470  11.856
   42W        W65302  12.903  43.376   0.029
   43W        W65303  40.382  28.557   2.662
   44W        W65304  13.405  43.594   1.316
   45W        W65305  11.149  33.082  12.956
   46W        W65306  30.419  42.578  13.979
   47W        W65307  14.194   3.211   0.966
   48W        W65308  42.985  15.291   4.257
   49W        W65309  35.316  12.326   2.600
   50W        W65310  18.609  26.801  12.656
   51W        W65311  32.389   0.291   3.222
   52W        W65312   9.791  42.504  13.110
   53W        W65313  34.898   1.486   1.005
   54W        W65314  28.436  11.943  14.355
   55W        W65315  23.199   0.540  10.680
   56W        W65316   5.380  30.041   3.845
   57W        W65317  26.021  39.030  12.132
   58W        W65318  22.605  32.134  10.999
   59W        W65319  39.553   7.793   0.347
   60W        W65320  28.032  25.721   4.595
   61W        W65321  39.354   3.261  11.144
   62W        W65322   0.051  12.676  12.660
   63W        W65323  41.010   0.635   0.803
   64W        W65324   4.654   8.370  11.808
   65W        W65325   4.289   3.138   0.941
   66W        W65326   7.332   6.996  13.600
   67W        W65327  31.392  23.568   3.622
   68W        W65328  42.911  32.371   3.301
   69W        W65329  32.358  25.631   0.774
   70W        W65330  21.799  23.509  14.268
   71W        W65331  20.028   8.313   4.182
   72W        W65332  41.138  43.588  11.146
   73W        W65333  30.706  20.614   3.416
   74W        W65334  39.857  31.724   4.478
   75W        W65335   4.352  17.598   0.220
   76W        W65336  10.510   8.905  10.758
   77W        W65337  42.239  19.619  14.348
   78W        W65338  25.726  28.036  14.208
   79W        W65339  35.805  30.496  14.738
   80W        W65340  33.013  37.161  11.594
   81W        W65341  34.361  31.053   4.317
   82W        W65342  12.660   7.939  12.076
   83W        W65343  22.003  44.052   3.390
   84W        W65344   0.731   0.906  14.823
   85W        W65345  31.641  35.338   1.347
   86W        W65346   3.858  29.486   0.984
   87W        W65347  40.493  12.003   0.174
   88W        W65348  31.647  44.012   4.813
   89W        W65349  27.585  42.577   3.129
   90W        W65350  10.284  18.477   4.125
   91W        W65351  31.654   3.966   3.689
   92W        W65352  18.065  44.590   1.798
   93W        W65353  30.970   5.722  12.057
   94W        W65354  24.295  33.622  13.513
   95W        W65355  41.105  11.253   1.907
   96W        W65356  18.727  21.778  14.439
   97W        W65357  19.650   2.917  12.860
   98W        W65358   2.974  24.731  14.006
   99W        W65359  31.279  43.291   5.088
  100W        W65360  12.100  37.604   1.029
  101W        W65361   0.946   4.916  12.993
  102W        W65362  18.090  19.150   4.181
  103W        W65363  37.542  15.189   1.602
  104W        W65364  40.823  36.876  14.512
  105W        W65365  37.079  33.577   0.177
  106W        W65366   0.152  13.845  12.415
  107W        W65367  16.863  27.973   3.329
  108W        W65368  38.954  29.833  14.613
  109W        W65369  42.121  43.767   2.183
  110W        W65370  39.648   2.080   3.474
  111W        W65371  10.082  39.808  13.759
  112W        W65372   3.363  38.986  13.336
  113W        W65373  39.342  15.830  11.589
  114W        W65374  13.763  15.298   1.375
  115W        W65375  19.952  42.596  11.139
  116W        W65376  29.209  13.202   1.398
  117W        W65377  39.901  13.565  14.074
  118W        W65378  19.751  25.812   1.431
  119W        W65379  24.439  31.401   0.378
  120W        W65380  37.029  31.962  11.230
  121W        W65381  27.613  19.974   3.262
  122W        W65382  43.297  27.994   3.892
  123W        W65383  34.531  17.829   1.480
  124W        W65384  31.035  18.107   4.610
  125W        W65385  36.085  15.842   3.232
  126W        W65386  17.270  10.765   3.218
  127W        W65387  22.416  39.319   3.650
  128W        W65388  20.940   7.525   4.838
  129W        W65389   2.427  35.927  10.453
  130W        W65390  37.566   3.333   3.735
  131W        W65391  35.953  28.938  10.756
  132W        W65392   4.230  19.921  11.513
  133W        W65393  40.497  28.406   3.154
  134W        W65394   6.604  38.767   3.151
  135W        W65395   3.718  39.502   2.845
  136W        W65396  27.650  14.597  12.600
  137W        W65397  35.449  44.804  14.969
  138W        W65398  38.027  42.043  11.204
  139W        W65399  31.068  21.327  14.872
  140W        W65400   0.993  31.332  12.341
  141W        W65401  14.608  43.803  13.911
  142W        W65402  15.824  19.089  13.438
  143W        W65403  44.834  25.280  13.908
  144W        W65404  11.573  23.717  10.806
  145W        W65405  23.603  31.895  13.815
  146W        W65406   7.326  38.081   1.376
  147W        W65407  31.410  20.656   2.955
  148W        W65408  12.791  14.134   4.536
  149W        W65409  17.350   6.142  11.272
  150W        W65410  15.524  30.567  10.922
  151W        W65411  32.183  28.681   0.730
  152W        W65412  42.869  24.423  12.978
  153W        W65413  32.129  42.842   4.563
  154W        W65414  30.714  44.470  14.723
  155W        W65415  32.829   4.355   3.996
  156W        W65416  41.575  16.489   3.655
  157W        W65417  30.593  27.817  13.086
  158W        W65418  43.627  33.528  12.041
  159W        W65419  38.012  14.770   4.405
  160W        W65420  18.487  20.604   1.145
  161W        W65421  39.811   2.391   1.675
  162W        W65422  36.921  19.349   1.239
  163W        W65423  28.677  19.548   0.456
  164W        W65424  39.175   2.846   3.370
  165W        W65425  42.272  25.703   0.342
  166W        W65426  33.932   2.721   2.296
  167W        W65427  29.566  18.941  12.365
  168W        W65428   2.833  35.523  14.729
  169W        W65429   8.750  14.071  14.275
  170W        W65430   0.833  34.653   3.214
  171W        W65431  25.755   8.838   0.420
  172W        W65432  30.411  23.653  11.145
  173W        W65433  35.589  16.700  14.393
  174W        W65434   2.826  27.467  13.326
  175W        W65435  25.155  11.612  12.973
  176W        W65436  32.626  22.463   3.679
  177W        W65437   4.230  13.227   2.438
  178W        W65438   2.811  11.431   2.069
  179W        W65439  18.170  43.559   2.683
  180W        W65440  12.102  21.407  12.795
  181W        W65441   4.283  12.686  14.845
  182W        W65442  43.404  28.194   2.946
  183W        W65443   8.176  31.627   0.415
  184W        W65444   3.027  24.552   2.727
  185W        W65445   8.118   6.776   5.016
  186W        W65446  30.665  29.643  13.803
  187W        W65447  18.012  42.248  12.500
  188W        W65448   3.393  17.089  14.011
  189W        W65449  27.978  10.338   5.068
  190W        W65450  11.192  37.485  12.523
  191W        W65451  38.914  43.193  13.888
  192W        W65452  37.602  14.087   4.259
  193W        W65453   3.184   7.255   1.850
  194W        W65454  35.410  26.810   3.306
  195W        W65455  26.399  31.024   1.467
  196W        W65456  34.487  23.787  10.721
  197W        W65457   4.887  25.137  10.670
  198W        W65458  34.057  43.905   2.622
  199W        W65459  35.043   7.690   0.451
  200W        W65460   4.364  41.735  10.420
  201W        W65461  43.856  34.611   1.463
  202W        W65462  39.782  20.848   0.287
  203W        W65463  41.171  16.877   2.224
  204W        W65464  34.839  25.513  13.384
  205W        W65465  19.513  18.467   1.890
  206W        W65466  19.993   3.487   0.433
  207W        W65467  28.860  19.101   1.699
  208W        W65468   2.939   4.483  12.451
  209W        W65469  40.387  39.514   4.004
  210W        W65470   6.452  22.645  10.356
  211W        W65471  34.693  27.620  10.873
  212W        W65472   6.196   8.307  13.562
  213W        W65473  29.842  42.461   1.136
  214W        W65474   6.948  10.639   2.327
  215W        W65475   2.570  19.776   5.028
  216W        W65476   5.807  12.657   2.889
  217W        W65477  32.938  20.603   4.407
  218W        W65478  33.964  39.934  14.421
  219W        W65479  36.747  37.905   0.828
  220W        W65480  34.344  39.279   1.497
  221W        W65481   8.369  44.408   2.916
  222W        W65482  16.037  26.119  12.037
  223W        W65483  24.407   1.820   2.193
  224W        W65484   8.324   8.617  10.988
  225W        W65485   8.515  43.797  12.054
  226W        W65486   9.419   5.846  11.995
  227W        W65487  43.750  25.026   5.098
  228W        W65488   4.788  39.973   2.260
  229W        W65489  40.215   7.126  10.768
  230W        W65490  17.018   5.269  14.605
  231W        W65491  33.529  38.336  10.090
  232W        W65492  32.038   5.385   0.556
  233W        W65493  36.603  30.460  13.560
  234W        W65494  42.370   2.938  14.345
  235W        W65495   7.090  30.083  12.533
  236W        W65496   0.821   6.888  13.647
  237W        W65497  24.644  17.125  11.452
  238W        W65498  18.854   0.005  14.487
  239W        W65499  37.480  11.188  11.684
  240W        W65500  32.090  22.034   2.925
  241W        W65501   5.375  29.899  12.191
  242W        W65502   4.293  14.992   0.784
  243W        W65503  39.270   5.000   4.991
  244W        W65504   4.388  26.411  11.106
  245W        W65505  34.482  22.138   1.274
  246W        W65506  36.868  13.792  14.934
  247W        W65507  31.383  13.609  11.559
  248W        W65508   8.413  15.864  13.263
  249W        W65509   3.215  12.224   2.309
  250W        W65510  37.746  32.150  14.570
  251W        W65511  36.593  21.771  11.040
  252W        W65512   4.146  38.966  10.871
  253W        W65513  32.934  40.854   4.227
  254W        W65514   8.740  28.722   2.768
  255W        W65515  12.739  42.500   4.434
  256W        W65516   1.812  27.989  11.673
  257W        W65517  15.333   2.352   1.322
  258W        W65518  37.443   2.814   0.936
  259W        W65519  27.741  12.807  13.977
  260W        W65520  21.570  22.296  14.389
  261W        W65521  26.797  28.955  11.098
  262W        W65522  30.409  16.535  14.829
  263W        W65523   9.705  38.750  14.406
  264W        W65524  41.568   5.886  13.875
  265W        W65525  21.175  26.100   3.217
  266W        W65526  33.491  43.026  14.052
  267W        W65527  28.942  17.500  11.576
  268W        W65528  22.586  17.999   3.651
  269W        W65529  41.307  36.931  14.290
  270W        W65530  38.204  11.668   0.959
  271W        W65531  40.900   1.385  12.655
  272W        W65532  31.504  33.717   0.902
  273W        W65533  15.882  24.539   4.369
  274W        W65534  28.245  41.227   0.921
  275W        W65535   4.285  30.561  12.477
  276W        W65536  17.659  39.545   1.538
  277W        W65537  23.656   5.801   0.928
  278W        W65538  37.595   5.865   1.955
  279W        W65539  29.720   7.326  11.573
  280W        W65540  32.512  32.589  11.965
  281W        W65541  22.862  12.008   3.204
  282W        W65542   1.173   5.707  11.428
  283W        W65543  29.422   2.941   1.952
  284W        W65544  26.837  30.147  13.021
  285W        W65545  30.179   2.251   0.474
  286W        W65546   4.631  25.463  10.096
  287W        W65547   6.540  19.000   2.716
  288W        W65548  40.301  13.064   4.118
  289W        W65549   3.035  22.184   1.358
  290W        W65550  31.999  15.853  14.437
  291W        W65551  24.036  19.617  14.220
  292W        W65552  40.602  42.564  10.766
  293W        W65553  44.311   0.829   1.278
  294W        W65554  21.084  21.514   0.273
  295W        W65555  36.863  43.535   3.641
  296W        W65556   2.505  10.390   9.911
  297W        W65557  41.030   9.572   3.249
  298W        W65558   0.260  37.038  12.909
  299W        W65559  37.507  43.405  12.120
  300W        W65560  25.434  29.269   2.189
  301W        W65561  37.914  20.731   1.669
  302W        W65562  24.496   0.474  13.380
  303W        W65563  13.894  28.006   2.813
  304W        W65564  26.134   1.991  12.404
  305W        W65565  29.681  40.483   3.065
  306W        W65566   1.649  40.981   2.339
  307W        W65567   5.818  28.468  14.226
  308W        W65568   9.149  38.837  12.715
  309W        W65569  29.346  29.894   0.445
  310W        W65570  27.005   5.801   1.672
  311W        W65571   4.911  19.134   2.740
  312W        W65572   3.721  38.298  10.730
  313W        W65573  18.749   4.856   1.622
  314W        W65574   9.717   5.166  10.927
  315W        W65575  18.038  40.132  10.761
  316W        W65576  37.894  32.645   0.416
  317W        W65577  11.208  22.125  11.969
  318W        W65578   5.937   2.321   4.100
  319W        W65579  21.782   1.159   3.306
  320W        W65580   4.373  26.231   2.100
  321W        W65581   6.967  19.190   0.873
  322W        W65582  10.281  12.916   3.845
  323W        W65583  12.626  15.742  14.494
  324W        W65584  28.574  13.679   4.676
  325W        W65585  25.796  31.457   4.141
  326W        W65586  17.762  30.089  13.984
  327W        W65587  28.617  21.446   1.161
  328W        W65588  42.129  24.584   4.121
  329W        W65589  41.953  34.105   2.341
  330W        W65590  21.014  23.303   1.506
  331W        W65591  15.394  28.180   5.091
  332W        W65592   2.880  38.179  13.442
  333W        W65593  17.885   4.781   0.947
  334W        W65594  35.908  18.066   3.733
  335W        W65595  34.789  10.206  14.287
  336W        W65596  36.877  14.691  10.633
  337W        W65597   1.804  20.306  14.915
  338W        W65598   1.279  22.537   4.567
  339W        W65599  32.822  38.859   2.835
  340W        W65600  18.989  11.617  14.158
  341W        W65601  15.801  11.841  13.621
  342W        W65602   7.373  11.371  14.247
  343W        W65603  28.229  44.199   3.578
  344W        W65604  18.899  11.758   0.862
  345W        W65605   4.364   4.306  13.069
  346W        W65606   0.132   6.316   3.828
  347W        W65607  19.612  26.203  14.415
  348W        W65608   1.496   3.980   4.057
  349W        W65609  15.534  35.679   2.092
  350W        W65610   1.292  27.363  11.732
  351W        W65611   7.967  23.072  10.296
  352W        W65612  29.640  43.212   3.805
  353W        W65613  12.722  19.219   3.226
  354W        W65614   3.586  11.830  11.988
  355W        W65615  44.871  10.079   2.886
  356W        W65616  33.090  22.018   1.046
  357W        W65617   1.035  44.356   2.288
  358W        W65618  28.027  33.419   0.864
  359W        W65619  22.637   0.199  14.971
  360W        W65620  17.139  35.036  13.382
  361W        W65621   8.144  37.260   3.152
  362W        W65622  41.053  40.196  12.117
  363W        W65623  33.087  37.335  11.096
  364W        W65624  33.625  26.421   2.222
  365W        W65625  20.352  12.799   2.336
  366W        W65626   0.012   3.244  11.264
  367W        W65627  42.457  30.169   3.131
  368W        W65628  13.260  16.639  14.553
  369W        W65629  24.063   1.482  12.111
  370W        W65630  43.715  12.194   3.322
  371W        W65631   1.218  38.836  11.188
  372W        W65632   5.650   3.319   2.142
  373W        W65633  44.698  25.025   4.692
  374W        W65634  11.716  32.031   3.690
  375W        W65635   6.799  23.478  14.504
  376W        W65636  25.198  11.688  13.492
  377W        W65637  31.462  35.284  13.429
  378W        W65638  38.955  19.148   2.280
  379W        W65639   1.294   6.625  13.485
  380W        W65640  16.814  29.434   3.237
  381W        W65641  28.303  27.722  12.627
  382W        W65642  23.241  10.686   4.622
  383W        W65643  28.443   3.582   4.616
  384W        W65644  12.811  30.654  13.216
  385W        W65645  28.420   3.942  14.012
  386W        W65646  21.476  22.124   9.750
  387W        W65647  11.873  40.879   1.894
  388W        W65648  13.128  10.058   2.895
  389W        W65649   3.528  26.006   3.288
  390W        W65650  41.442  44.048  13.949
  391W        W65651  15.767  11.305   3.880
  392W        W65652  44.450  39.094   3.467
  393W        W65653  21.953  16.076   3.272
  394W        W65654   5.755  33.487   2.375
  395W        W65655   8.409   4.610   4.639
  396W        W65656  14.068  44.395  14.321
  397W        W65657  40.306   8.110  10.544
  398W        W65658  13.858  11.157   1.952
  399W        W65659  26.394  22.430   2.849
  400W        W65660  26.993   4.831  13.512
  401W        W65661   3.898  40.627  13.085
  402W        W65662  29.904  37.707  12.516
  403W        W65663  14.689  19.398  12.551
  404W        W65664  23.056  41.721  13.395
  405W        W65665  31.082  12.163   2.775
  406W        W65666  34.949  30.295   2.260
  407W        W65667  24.778  27.672   3.708
  408W        W65668   1.253   5.453   0.905
  409W        W65669   3.208  13.043  13.039
  410W        W65670  21.567  21.190  12.162
  411W        W65671  24.007  27.697  12.578
  412W        W65672  21.822  37.834  12.053
  413W        W65673   6.260  21.717  13.107
  414W        W65674  33.067  36.097  12.442
  415W        W65675  26.261   1.912   3.127
  416W        W65676  13.820  29.091  13.258
  417W        W65677   5.566   4.203  11.769
  418W        W65678  31.839  42.869  11.221
  419W        W65679  43.494  20.148   2.273
  420W        W65680  23.457  26.039   3.822
  421W        W65681  32.455  30.982   0.657
  422W        W65682  34.499  35.795   0.543
  423W        W65683  14.226  22.155   3.082
  424W        W65684  35.984  35.424  10.686
  425W        W65685  19.065   9.926  10.750
  426W        W65686  40.514  37.420   4.444
  427W        W65687  42.266   7.529   0.859
  428W        W65688  22.968  31.985  11.973
  429W        W65689  38.375  37.937  13.911
  430W        W65690  33.199   4.982  13.099
  431W        W65691  31.852  34.481   4.648
  432W        W65692  20.666  18.239  12.636
  433W        W65693  41.627   9.807  13.976
  434W        W65694   0.338  22.409  12.037
  435W        W65695  37.872  34.833   4.731
  436W        W65696  22.258   6.834   3.364
  437W        W65697  20.292  20.018  13.505
  438W        W65698  11.206  40.939  12.056
  439W        W65699  14.254  34.779  11.112
  440W        W65700  37.566  11.266  10.754
  441W        W65701  35.865  34.839   4.583
  442W        W65702  29.169  10.841  12.634
  443W        W65703  31.754   3.193  10.467
  444W        W65704  40.552   5.128  11.202
  445W        W65705  24.022   3.911   0.963
  446W        W65706   3.006  23.191  13.695
  447W        W65707   1.488  26.241  14.292
  448W        W65708  26.271  12.991   4.064
  449W        W65709  29.287  29.663  13.102
  450W        W65710  35.050  31.142   3.259
  451W        W65711   3.292  30.462  12.824
  452W        W65712  35.181  10.316  12.066
  453W        W65713   8.453   6.897  13.956
  454W        W65714  26.195   9.747   3.568
  455W        W65715  11.092  22.308   3.832
  456W        W65716  10.142  23.655  14.488
  457W        W65717  35.458  13.105   4.563
  458W        W65718  39.998  17.634   0.023
  459W        W65719  26.504  27.134   4.629
  460W        W65720  36.517   4.402   3.242
  461W        W65721  42.392  28.092  12.817
  462W        W65722   1.312  27.758  10.772
  463W        W65723  28.085  21.012  10.469
  464W        W65724  35.554  31.831  12.071
  465W        W65725  23.126  18.170   9.739
  466W        W65726  24.617  35.095   1.163
  467W        W65727  19.540  12.148  12.395
  468W        W65728  30.442   5.120   4.720
  469W        W65729  15.530  43.894   1.824
  470W        W65730   3.629  42.449  11.499
  471W        W65731  40.745  35.917   1.499
  472W        W65732  32.040  38.988   2.141
  473W        W65733   0.745  27.742  13.541
  474W        W65734   1.004  41.231   1.422
  475W        W65735   5.817  20.641   2.297
  476W        W65736  20.116  39.036   4.640
  477W        W65737  29.585   5.622   2.688
  478W        W65738   0.227   4.489   3.584
  479W        W65739  39.339  43.105   3.719
  480W        W65740  13.794   4.374  13.430
  481W        W65741   7.835   1.845  14.553
  482W        W65742  16.228  19.312   1.756
  483W        W65743  32.815  35.134  11.830
  484W        W65744  26.685  29.348  11.395
  485W        W65745  36.430  33.108   3.203
  486W        W65746  23.946  13.078   3.064
  487W        W65747  11.325  17.200  13.092
  488W        W65748  31.868  41.737  12.064
  489W        W65749   6.394  36.911   1.912
  490W        W65750  32.992  19.455   1.695
  491W        W65751  29.065  10.811   0.153
  492W        W65752   8.095  15.722  13.890
  493W        W65753  16.543  17.565  14.809
  494W        W65754  12.277   6.415  14.453
  495W        W65755   4.396  16.964   0.982
  496W        W65756  39.600  42.342   3.359
  497W        W65757  24.566  16.190  13.117
  498W        W65758   9.105  37.798   4.585
  499W        W65759  29.182  22.592   0.421
  500W        W65760   0.362  29.245  11.092
  501W        W65761  19.357  11.202  11.270
  502W        W65762  38.891   6.883  11.044
  503W        W65763   4.162   6.267  12.870
  504W        W65764  16.938  20.750   3.221
  505W        W65765  32.084   5.845  14.612
  506W        W65766   6.801  37.230   4.614
  507W        W65767  24.418  44.373  12.795
  508W        W65768  42.612  14.780  11.162
  509W        W65769  22.137  33.873  10.307
  510W        W65770  13.744  29.491   3.139
  511W        W65771   7.850  25.590  10.319
  512W        W65772  21.962  25.459  11.101
  513W        W65773  29.490  38.927  14.882
  514W        W65774  43.959  34.848   0.641
  515W        W65775  13.635  21.939   1.564
  516W        W65776  43.587  26.122  12.015
  517W        W65777  24.790  38.940   0.703
  518W        W65778  33.938   4.233  11.432
  519W        W65779  16.158  24.414  13.647
  520W        W65780  41.727  17.074  13.807
  521W        W65781  44.428  43.296   1.888
  522W        W65782  22.291  40.725   1.399
  523W        W65783   0.798  16.231   3.612
  524W        W65784  43.971  23.465   0.476
  525W        W65785  44.229   9.102  13.353
  526W        W65786   7.504   0.924  14.601
  527W        W65787  21.669   6.871  10.750
  528W        W65788  26.020  31.850   4.699
  529W        W65789  36.815  11.714  11.669
  530W        W65790  39.019   1.249  14.432
  531W        W65791  22.041  24.412   4.366
  532W        W65792   4.454  12.277   0.574
  533W        W65793   0.785  24.267   4.089
  534W        W65794  13.716  27.369  13.380
  535W        W65795  33.627   0.547  11.077
  536W        W65796  38.054  20.074  14.662
  537W        W65797   1.067  34.231  12.869
  538W        W65798  40.312  17.282  11.207
  539W        W65799  18.198  13.299  10.702
  540W        W65800  37.334   6.585   2.812
  541W        W65801  17.782  43.327   0.512
  542W        W65802  19.278  26.401   3.172
  543W        W65803   9.074   8.759  13.090
  544W        W65804   1.675   8.383   3.274
  545W        W65805  34.793   7.070   0.633
  546W        W65806  38.530   6.308  14.558
  547W        W65807  39.783   4.886  12.542
  548W        W65808  29.068  10.345   1.996
  549W        W65809  40.168  37.074   0.145
  550W        W65810  15.870   6.729  14.955
  551W        W65811  22.755  19.494  14.415
  552W        W65812  31.503  28.514   4.610
  553W        W65813  22.528  23.011   1.648
  554W        W65814   6.858  18.717   4.266
  555W        W65815  37.050   7.175  14.092
  556W        W65816  31.609  15.577   1.744
  557W        W65817  41.758  38.271  14.331
  558W        W65818  15.636   0.705   2.162
  559W        W65819  27.229  32.453  12.978
  560W        W65820  39.461  44.192   1.345
  561W        W65821  34.860  22.021  14.761
  562W        W65822  17.177  28.940   4.192
  563W        W65823  14.116  19.610   2.593
  564W        W65824  10.087  19.742   1.261
  565W        W65825  26.305  40.883   1.337
  566W        W65826  14.590  40.694   5.075
  567W        W65827  22.752  26.715   3.114
  568W        W65828   6.474  10.320   1.154
  569W        W65829   1.946   2.492   2.375
  570W        W65830  43.511  18.937   1.419
  571W        W65831   9.957   1.196  12.023
  572W        W65832   4.257  12.379  12.972
  573W        W65833   6.852  41.322  14.301
  574W        W65834  31.399  35.452   4.422
  575W        W65835  17.523  24.467  14.738
  576W        W65836  44.394  28.697  14.932
  577W        W65837  20.737  10.294  11.877
  578W        W65838   5.199  31.203   1.435
  579W        W65839  27.756  19.643   2.875
  580W        W65840  16.753  18.358   2.463
  581W        W65841   2.455  44.165  12.778
  582W        W65842  23.633  29.974  14.487
  583W        W65843  18.225   9.463  11.850
  584W        W65844  44.925  25.520  14.444
  585W        W65845   0.734   0.586   1.918
  586W        W65846  11.872  20.756  13.499
  587W        W65847  14.068  26.482   3.172
  588W        W65848  36.025  15.663   0.478
  589W        W65849  25.123  15.700   3.963
  590W        W65850  41.413   3.506   2.331
  591W        W65851  36.290  34.163   3.644
  592W        W65852  22.436  13.764   0.964
  593W        W65853  36.242  14.904  11.757
  594W        W65854  19.065  22.415   4.769
  595W        W65855   4.241  29.104   0.371
  596W        W65856  21.648   4.317  10.712
  597W        W65857  25.936  35.180  12.879
  598W        W65858  37.131  15.877   4.095
  599W        W65859  25.539  43.428   3.796
  600W        W65860  33.992  14.395   3.103
  601W        W65861  40.401   0.501   4.670
  602W        W65862  39.637  39.308  14.848
  603W        W65863  41.537  43.471  11.510
  604W        W65864  27.961   6.706  12.426
  605W        W65865  29.519  33.371   1.644
  606W        W65866  43.721  26.923   4.372
  607W        W65867  11.171  23.506  14.433
  608W        W65868   2.657  18.116  13.035
  609W        W65869  11.519   7.258   0.859
  610W        W65870  20.538  24.722   4.081
  611W        W65871  16.150   5.594  12.226
  612W        W65872   0.221  33.124   2.288
  613W        W65873  32.852  13.086   3.354
  614W        W65874  43.660  22.840  14.807
  615W        W65875  14.286  14.199  10.777
  616W        W65876  36.637  28.520  11.430
  617W        W65877   1.380  14.852   1.826
  618W        W65878  32.917  43.884   1.847
  619W        W65879  26.986   8.324   0.536
  620W        W65880  10.440  32.386   3.523
  621W        W65881  10.926  28.062  11.930
  622W        W65882  30.392  12.521   3.814
  623W        W65883  41.139  25.767   3.192
  624W        W65884  38.702   6.916   2.452
  625W        W65885  39.818  43.891   1.033
  626W        W65886  25.649  10.642   3.564
  627W        W65887  29.550  31.137  10.673
  628W        W65888  14.965  29.558  11.493
  629W        W65889  18.161  16.099   1.008
  630W        W65890  31.041  24.955  12.583
  631W        W65891   7.168  27.965   2.729
  632W        W65892   1.861  34.024  11.806
  633W        W65893  30.388  32.215  13.904
  634W        W65894  35.972  38.457   0.260
  635W        W65895   4.223   3.171  11.569
  636W        W65896  34.405  17.163   1.951
  637W        W65897   7.428   7.854   2.169
  638W        W65898  19.199   9.638   0.529
  639W        W65899  36.963  15.710   1.969
  640W        W65900  31.561   1.035  10.692
  641W        W65901  31.764  17.229  12.524
  642W        W65902  15.604  41.561   0.805
  643W        W65903  26.096   8.467  13.001
  644W        W65904  11.688  12.859  14.414
  645W        W65905   2.359   9.444  11.767
  646W        W65906   5.686  18.207  14.494
  647W        W65907  16.237  44.985  10.881
  648W        W65908  21.347   6.276  13.076
  649W        W65909   1.355  24.561   1.084
  650W        W65910  31.152  36.959   2.726
  651W        W65911  22.562  38.393  12.938
  652W        W65912   7.666  26.036   2.734
  653W        W65913  35.556  22.749   1.834
  654W        W65914  39.326  10.825  14.475
  655W        W65915   7.372  38.000  12.871
  656W        W65916  42.320   8.149  12.944
  657W        W65917  25.573  39.472   0.420
  658W        W65918  11.314  31.775   2.681
  659W        W65919  39.712  13.173   2.317
  660W        W65920   8.321  10.397  13.941
  661W        W65921  25.033   1.440   2.923
  662W        W65922  31.479  17.218   2.649
  663W        W65923   1.913   3.321  14.957
  664W        W65924  43.214   1.828  12.042
  665W        W65925  16.172  13.565   4.518
  666W        W65926   9.474   2.942  11.830
  667W        W65927  30.549  33.184   1.733
  668W        W65928   8.115  20.300  13.547
  669W        W65929  33.454  28.236   0.529
  670W        W65930  35.119  40.108  13.041
  671W        W65931  43.896  13.334   2.772
  672W        W65932   6.575  14.027   4.908
  673W        W65933  13.511  22.520   4.157
  674W        W65934  28.213  24.638  14.972
  675W        W65935  26.692   9.787  12.920
  676W        W65936  39.410  24.390   4.500
  677W        W65937  32.774   1.597   2.358
  678W        W65938  22.104   2.735   2.691
  679W        W65939  22.484   3.734  13.788
  680W        W65940  36.301  11.114   4.086
  681W        W65941  34.156  11.075  13.265
  682W        W65942  21.781   5.155  14.901
  683W        W65943   4.686  42.368   0.807
  684W        W65944  41.853  18.671  10.574
  685W        W65945   9.669  37.071   1.905
  686W        W65946  36.891  37.921  13.917
  687W        W65947  37.951   3.794  12.044
  688W        W65948  30.696  35.072   4.694
  689W        W65949   8.767  23.023  12.822
  690W        W65950  32.937  27.560   4.060
  691W        W65951  44.849  38.385   0.769
  692W        W65952   0.740  28.158   1.790
  693W        W65953  26.443  11.765  12.532
  694W        W65954   6.213  42.967   2.775
  695W        W65955   7.889  34.960  13.182
  696W        W65956  12.540  41.513   1.859
  697W        W65957  24.232  27.586   2.821
  698W        W65958   4.811  14.388   3.220
  699W        W65959  32.232  34.198   2.615
  700W        W65960  32.497   0.212  13.392
  701W        W65961  44.926  17.525   3.935
  702W        W65962  15.466  43.925  10.761
  703W        W65963  22.397   7.029  12.564
  704W        W65964  38.577   1.427  11.993
  705W        W65965   2.893  36.590  13.534
  706W        W65966  10.306  25.745  12.832
  707W        W65967  21.177   0.793  11.484
  708W        W65968  13.210   2.081   0.694
  709W        W65969  17.570  33.590   4.669
  710W        W65970  38.611   8.559   4.524
  711W        W65971  38.979   0.166   1.233
  712W        W65972  15.369  38.450  13.689
  713W        W65973   4.627  43.459   3.176
  714W        W65974  38.029  26.916  12.885
  715W        W65975  32.013  34.831  11.938
  716W        W65976   7.004  42.778  11.652
  717W        W65977  34.998  23.788  11.645
  718W        W65978  41.796  37.925   4.638
  719W        W65979   9.781  32.398  13.943
  720W        W65980  40.454  40.976  10.556
  721W        W65981   3.112  23.587  11.372
  722W        W65982  24.413  43.805  14.958
  723W        W65983  15.819  11.331   2.025
  724W        W65984   5.023  21.736   4.572
  725W        W65985  26.461  18.699  14.335
  726W        W65986  40.771  10.799   0.513
  727W        W65987  37.752  33.868   2.754
  728W        W65988  28.520  36.056   2.144
  729W        W65989  29.030  22.821   0.862
  730W        W65990  28.539  26.668  13.537
  731W        W65991  39.996  32.542  10.732
  732W        W65992  14.603  23.597   4.849
  733W        W65993  10.407  22.748   2.200
  734W        W65994  18.493  26.196  12.402
  735W        W65995  42.314  16.316  14.890
  736W        W65996  37.119  22.492   3.507
  737W        W65997   7.283  40.802   3.185
  738W        W65998   4.349   6.210   1.975
  739W        W65999  44.365  27.108  13.531
  740W        W66000  35.646  35.936   3.246
  741W        W66001  36.998  32.536  13.576
  742W        W66002   8.541  41.712   5.038
  743W        W66003  24.508  24.789   3.997
  744W        W66004  28.912  16.277  13.550
  745W        W66005  25.997  26.005  13.480
  746W        W66006  38.396   0.657   3.046
  747W        W66007  34.838  23.646  11.160
  748W        W66008   8.841   4.648  11.135
  749W        W66009   9.666   7.865   5.015
  750W        W66010   7.729  31.334   3.624
  751W        W66011  28.454  14.100   0.521
  752W        W66012  25.566  25.512   2.656
  753W        W66013   8.908   7.287  12.555
  754W        W66014  36.810  19.298  10.105
  755W        W66015  15.500   1.543   1.876
  756W        W66016   7.979  32.486  12.928
  757W        W66017  43.193  30.903   4.643
  758W        W66018  16.255  10.662   1.501
  759W        W66019  37.503  25.116   3.030
  760W        W66020  37.989  31.159   1.310
  761W        W66021  12.801  30.252   3.177
  762W        W66022  37.993  21.762  10.793
  763W        W66023  22.756  35.449   0.336
  764W        W66024  40.509  14.716   1.890
  765W        W66025   9.849  38.454  12.888
  766W        W66026  12.843   9.155  14.436
  767W        W66027  35.559  12.223   3.051
  768W        W66028  10.271  22.037  12.502
  769W        W66029  14.792   5.859   2.285
  770W        W66030  34.032  33.688  14.978
  771W        W66031  27.222   1.278   3.527
  772W        W66032  13.626  15.703   2.289
  773W        W66033  35.557   1.950   3.217
  774W        W66034  44.298  26.666   0.339
  775W        W66035  23.164   4.241   3.220
  776W        W66036  44.808  20.271  13.487
  777W        W66037  40.165  22.693  11.607
  778W        W66038  43.822  25.337   4.609
  779W        W66039  35.073   6.617  13.755
  780W        W66040  32.650  39.858  13.151
  781W        W66041  24.167  31.591  12.373
  782W        W66042  13.320  13.990   4.466
  783W        W66043  39.481  43.385  11.439
  784W        W66044  14.996  11.617   2.369
  785W        W66045   2.287  15.880  13.542
  786W        W66046  17.116  33.691   3.944
  787W        W66047  15.690  32.562  13.350
  788W        W66048  40.365  28.958   1.721
  789W        W66049   8.365  10.056  12.040
  790W        W66050   4.969  26.046  14.410
  791W        W66051  10.276  33.160   3.216
  792W        W66052   1.309  15.680   5.139
  793W        W66053  28.476  38.322   3.711
  794W        W66054  27.370   8.164   4.792
  795W        W66055  40.020   2.264  13.011
  796W        W66056   7.565   4.374  14.846
  797W        W66057  36.601  27.189  11.133
  798W        W66058  35.005   4.327  10.724
  799W        W66059  14.252  33.093  12.043
  800W        W66060  13.976  36.245   9.601
  801W        W66061   4.132   9.903   0.365
  802W        W66062  31.970   8.871  13.376
  803W        W66063  22.915  10.612  11.006
  804W        W66064  19.530  19.124  14.081
  805W        W66065   7.036  32.111   0.799
  806W        W66066  10.842  22.702  12.529
  807W        W66067  41.014  27.105  14.337
  808W        W66068   5.900  14.622   2.669
  809W        W66069  34.040   9.638  13.381
  810W        W66070  25.990  44.275  14.291
  811W        W66071  26.372  41.402   1.426
  812W        W66072   4.457   5.831   4.166
  813W        W66073  17.541  14.873  14.313
  814W        W66074  12.367  11.642  10.389
  815W        W66075  23.610  14.681  10.784
  816W        W66076  42.728  34.579  13.797
  817W        W66077  40.207   0.806  11.603
  818W        W66078  27.094  37.307   2.710
  819W        W66079  33.340  37.855   1.389
  820W        W66080  17.988  43.981  11.407
  821W        W66081   6.186  34.641   4.189
  822W        W66082  19.684  16.247  11.226
  823W        W66083  28.542  26.863  10.187
  824W        W66084  18.270  32.050  11.307
  825W        W66085  40.658  28.055  13.866
  826W        W66086  13.169   9.254   3.617
  827W        W66087  21.660   9.778   1.913
  828W        W66088  18.352  17.002   3.316
  829W        W66089   8.963   6.673   4.552
  830W        W66090   2.700  38.385  11.625
  831W        W66091  18.082   2.847  12.626
  832W        W66092   1.720  38.868  11.164
  833W        W66093   5.829  32.133   2.292
  834W        W66094   1.830  31.362  13.357
  835W        W66095  39.825  23.543   3.660
  836W        W66096  36.885  36.941   0.932
  837W        W66097   5.036  18.073  13.542
  838W        W66098   5.878   7.798   2.251
  839W        W66099  30.093  36.911  13.081
  840W        W66100  15.718  29.097  13.475
  841W        W66101  33.615  31.153  14.412
  842W        W66102  34.447  34.048   0.999
  843W        W66103   8.795  14.514   2.241
  844W        W66104   2.782  23.446  11.972
  845W        W66105  28.065  24.979   3.942
  846W        W66106  34.655  39.079   5.130
  847W        W66107  23.438  29.891  14.994
  848W        W66108   2.924  37.382  11.056
  849W        W66109  37.001  21.526   2.510
  850W        W66110  11.045  25.173   0.272
  851W        W66111  33.101  32.526   4.583
  852W        W66112  11.479   3.344  12.304
  853W        W66113  43.565  18.007  10.719
  854W        W66114  33.937  30.622  12.048
  855W        W66115  11.146  13.859   0.374
  856W        W66116  37.912  17.909   3.095
  857W        W66117   9.794   2.288  14.293
  858W        W66118  42.272  37.935   3.643
  859W        W66119  28.551   0.722  12.801
  860W        W66120  28.133  30.058   9.644
  861W        W66121  29.504  31.635  10.569
  862W        W66122  15.137  19.524  12.249
  863W        W66123  33.708  43.611   1.887
  864W        W66124  41.149  22.432   0.200
  865W        W66125  22.053  10.859   1.453
  866W        W66126  21.463  27.964  11.131
  867W        W66127   2.409  11.799  14.165
  868W        W66128  20.546  43.818   1.901
  869W        W66129  18.164  18.903   3.714
  870W        W66130   9.128  27.194   3.005
  871W        W66131  27.044  12.131  12.592
  872W        W66132   3.518  17.271   1.390
  873W        W66133  16.404  11.782   0.831
  874W        W66134  38.804  35.541   4.193
  875W        W66135  17.038   3.340  13.598
  876W        W66136  10.812   3.907  10.390
  877W        W66137  26.975   2.818   3.155
  878W        W66138  10.242  22.221  12.013
  879W        W66139  35.175  20.950   5.017
  880W        W66140  16.079   5.172   3.666
  881W        W66141  29.896  13.860  14.325
  882W        W66142   4.703  10.202   0.899
  883W        W66143  24.478   5.620  13.853
  884W        W66144  16.333  24.923  13.458
  885W        W66145  39.556  18.547  11.676
  886W        W66146  21.619  24.223   0.847
  887W        W66147  32.236  29.546   0.276
  888W        W66148  20.180   0.325  13.970
  889W        W66149  32.948  10.146  14.828
  890W        W66150  36.491  21.012   3.171
  891W        W66151  10.340  18.464   5.037
  892W        W66152   3.991  36.908   4.811
  893W        W66153  19.091  10.648   2.121
  894W        W66154  37.225   7.161  14.829
  895W        W66155   4.814   1.281   4.284
  896W        W66156  41.183  38.027   1.932
  897W        W66157  35.951  23.049   3.575
  898W        W66158  25.412  19.861   5.585
  899W        W66159  26.352  40.457  10.483
  900W        W66160  20.515  17.801  11.534
  901W        W66161  33.677  12.204   4.551
  902W        W66162  23.257  26.028  14.952
  903W        W66163  13.314  15.064  14.284
  904W        W66164  32.543  19.052  12.570
  905W        W66165   7.259  32.111  14.543
  906W        W66166  27.938  12.633  14.497
  907W        W66167  28.328   8.813   3.201
  908W        W66168  39.094  22.163  14.888
  909W        W66169   5.270  24.760  10.651
  910W        W66170   3.013  30.790  13.120
  911W        W66171   9.320  21.977   2.320
  912W        W66172   8.938  25.003   5.433
  913W        W66173  14.436  11.821  14.807
  914W        W66174  21.183  37.157  12.228
  915W        W66175  26.967  39.858  13.865
  916W        W66176  38.041  23.471   2.144
  917W        W66177   7.399  44.279   1.855
  918W        W66178  12.260  17.258   2.892
  919W        W66179  12.682  38.217   5.175
  920W        W66180  26.541  33.995   0.758
  921W        W66181  17.084  19.002   3.417
  922W        W66182   4.286  26.490   3.537
  923W        W66183  12.856  36.711   3.553
  924W        W66184  43.995  26.656   2.529
  925W        W66185   2.663  31.625   2.232
  926W        W66186  22.683  14.324  11.643
  927W        W66187  29.147  17.699  12.038
  928W        W66188  14.269   6.912   3.486
  929W        W66189  15.348  42.033  13.274
  930W        W66190  10.645  16.675   4.330
  931W        W66191  15.553  24.756   3.528
  932W        W66192  40.925  20.565  11.036
  933W        W66193  22.087  11.361  14.260
  934W        W66194  41.596  11.489  13.008
  935W        W66195  11.178  25.217  12.937
  936W        W66196  20.988   9.960   4.133
  937W        W66197   1.289  23.070  11.195
  938W        W66198  44.045  14.046  13.067
  939W        W66199  24.173  40.314   2.740
  940W        W66200  38.055  20.534  14.895
  941W        W66201  27.147   7.125   3.228
  942W        W66202   0.386  26.165   1.201
  943W        W66203  19.620  11.726   4.615
  944W        W66204  10.090  31.910  12.520
  945W        W66205  25.593   1.905  13.821
  946W        W66206  23.030  30.596   4.137
  947W        W66207   1.332  31.622  11.182
  948W        W66208  21.795  27.553  11.141
  949W        W66209  35.827  17.093  13.011
  950W        W66210  22.209  19.679   1.141
  951W        W66211  41.646  15.900  12.953
  952W        W66212  40.168  30.147   1.278
  953W        W66213   1.359   1.374  11.612
  954W        W66214  16.397   0.680   4.527
  955W        W66215   5.191  36.158   1.218
  956W        W66216  21.944  10.370   1.620
  957W        W66217   4.444  40.429   1.931
  958W        W66218   2.426   7.940  14.418
  959W        W66219  20.185  15.267   1.387
  960W        W66220  27.427  28.038   2.256
  961W        W66221   7.419  30.005  13.806
  962W        W66222  29.979  38.454  14.326
  963W        W66223  17.775  40.570  10.502
  964W        W66224   0.151  24.101   1.369
  965W        W66225  44.662  12.355  14.969
  966W        W66226  17.575   3.632   3.225
  967W        W66227  23.152  44.558  10.926
  968W        W66228   4.636  26.453   1.210
  969W        W66229   5.661   6.342  14.891
  970W        W66230  25.420  16.685   4.164
  971W        W66231   1.697  13.050   3.701
  972W        W66232  17.674  30.911   2.360
  973W        W66233   9.860  26.668  12.236
  974W        W66234  19.283  18.154   3.226
  975W        W66235  22.473  23.680  11.894
  976W        W66236  20.252  30.873  11.550
  977W        W66237  42.312  44.363   4.118
  978W        W66238  28.532   9.331  12.004
  979W        W66239  30.943  15.285   4.295
  980W        W66240   3.454  41.666  11.221
  981W        W66241  19.819  17.090   4.071
  982W        W66242   9.583  33.454   0.721
  983W        W66243  10.853  32.109   3.683
  984W        W66244  10.465  14.088   0.347
  985W        W66245  25.515  44.426  14.467
  986W        W66246  44.901  32.135  10.739
  987W        W66247  25.533  33.670   1.956
  988W        W66248   1.323  27.449  13.007
  989W        W66249  31.030   7.699   1.861
  990W        W66250  40.018  30.082  11.270
  991W        W66251   2.299   3.922  11.102
  992W        W66252  29.992  43.162   2.180
  993W        W66253  10.703  27.931   1.366
  994W        W66254  22.074  21.290   1.220
  995W        W66255  30.165  30.412   2.260
  996W        W66256   1.770  20.206  13.030
  997W        W66257  26.616  15.243   2.861
  998W        W66258  36.766  29.113   1.942
  999W        W66259   0.689  41.468  14.189
 1000W        W66260  22.587  39.551  12.364
 1001W        W66261   8.882  25.956  13.680
 1002W        W66262  39.679   1.399  11.155
 1003W        W66263  20.524  18.383   4.216
 1004W        W66264  16.535  14.375  13.800
 1005W        W66265  40.422  22.591  10.732
 1006W        W66266  18.732  41.294   1.670
 1007W        W66267  28.586  29.058   1.289
 1008W        W66268  33.628  33.056  12.919
 1009W        W66269  34.128  23.507   0.375
 1010W        W66270  43.421   4.704  12.549
 1011W        W66271  10.983   3.656   4.937
 1012W        W66272  32.199  27.687  10.712
 1013W        W66273   7.637   6.834   2.822
 1014W        W66274   2.116  36.387   4.484
 1015W        W66275  25.511   3.822  14.869
 1016W        W66276  43.225  33.542  13.912
 1017W        W66277  27.924  30.153  11.057
 1018W        W66278  35.752  25.942   5.700
 1019W        W66279  22.667  40.057   1.762
 1020W        W66280  26.720  34.231  13.902
 1021W        W66281  12.905   7.984   1.962
 1022W        W66282  15.763  41.311   3.894
 1023W        W66283  10.213  43.559   2.811
 1024W        W66284  31.696  14.749   4.715
 1025W        W66285   0.360   8.984  12.664
 1026W        W66286  43.107   7.163   4.151
 1027W        W66287   7.333  10.185  11.989
 1028W        W66288   0.353  10.390   2.735
 1029W        W66289  19.074  27.140  11.914
 1030W        W66290  33.225  38.460   4.379
 1031W        W66291  41.045  40.922   4.293
 1032W        W66292  16.492  36.658   4.263
 1033W        W66293  36.464  44.719   1.752
 1034W        W66294   0.519  20.285   3.505
 1035W        W66295  41.349  26.069  11.596
 1036W        W66296  27.962  15.127  10.400
 1037W        W66297  10.072  16.081  13.181
 1038W        W66298   4.158  27.155  11.534
 1039W        W66299  26.057  24.673   0.001
 1040W        W66300  33.050  23.113  10.676
 1041W        W66301  44.447   5.423   0.531
 1042W        W66302   4.421  32.297   0.287
 1043W        W66303  20.310  26.036  12.995
 1044W        W66304  16.226   1.871   1.128
 1045W        W66305  18.511  10.449  13.360
 1046W        W66306   2.440  17.168  14.439
 1047W        W66307  33.201  33.974   1.089
 1048W        W66308  44.852  31.887   4.084
 1049W        W66309  15.667  12.289  10.975
 1050W        W66310  37.820   5.445  11.162
 1051W        W66311   3.827  18.096  11.273
 1052W        W66312  33.651  28.710  13.017
 1053W        W66313  17.396  41.290   2.884
 1054W        W66314  25.548   7.666   9.926
 1055W        W66315  37.500  43.502   2.326
 1056W        W66316  31.293  28.365  13.824
 1057W        W66317  35.370  21.840   4.173
 1058W        W66318  12.649  12.229  10.877
 1059W        W66319  33.968  31.583  13.331
 1060W        W66320  31.823  10.196   2.261
 1061W        W66321  14.199  33.132  13.767
 1062W        W66322  33.952   3.688  11.344
 1063W        W66323   3.483  14.301   3.101
 1064W        W66324  20.727   7.214   1.759
 1065W        W66325  10.591  15.306  13.552
 1066W        W66326  31.177  27.097   1.411
 1067W        W66327  34.925   2.862   2.320
 1068W        W66328  41.982   2.913   2.461
 1069W        W66329  13.899  38.368   0.987
 1070W        W66330  13.439  44.013  13.338
 1071W        W66331  32.934   5.390  12.907
 1072W        W66332  23.249   6.554  12.056
 1073W        W66333  28.719   1.701  12.634
 1074W        W66334  33.318  12.897   3.386
 1075W        W66335  30.283  43.264   1.326
 1076W        W66336   4.399   6.358   0.351
 1077W        W66337  12.262  42.599  12.862
 1078W        W66338  31.540   7.369   3.999
 1079W        W66339  17.517  17.634  13.025
 1080W        W66340  32.944   4.385   2.786
 1081W        W66341  22.565  42.808   2.665
 1082W        W66342  35.067  19.980  12.460
 1083W        W66343  33.325  18.096  13.993
 1084W        W66344  44.983   6.356  12.728
 1085W        W66345  21.035  10.729   4.625
 1086W        W66346  43.957  16.680   2.873
 1087W        W66347  20.721  19.399   4.172
 1088W        W66348  15.242  41.936  11.771
 1089W        W66349  20.333  20.547   3.321
 1090W        W66350  31.349   6.055  13.536
 1091W        W66351  44.554   3.458  14.556
 1092W        W66352  30.015  18.751  13.573
 1093W        W66353  44.365  24.061   1.213
 1094W        W66354  30.055   9.833  10.616
 1095W        W66355  13.719  38.512  13.969
 1096W        W66356  33.593  19.199  11.762
 1097W        W66357  27.950  15.317   4.677
 1098W        W66358  42.391  19.910   2.924
 1099W        W66359  25.723   6.255  13.567
 1100W        W66360   0.039  21.125   0.006
 1101W        W66361  18.034  15.865   1.852
 1102W        W66362  35.137   0.249  14.445
 1103W        W66363  19.472  16.875   2.638
 1104W        W66364  11.375  30.936   3.298
 1105W        W66365  41.883   9.319  11.602
 1106W        W66366   5.103  21.637   2.751
 1107W        W66367  26.037  10.956  13.167
 1108W        W66368  28.592  25.832   2.757
 1109W        W66369  41.493  33.616  14.588
 1110W        W66370  25.968  16.425  14.564
 1111W        W66371  20.605  21.101   3.534
 1112W        W66372  34.117  21.237  11.151
 1113W        W66373  42.871  15.226   0.973
 1114W        W66374  37.898   7.225   3.653
 1115W        W66375  10.711  30.448   5.720
 1116W        W66376  15.728  26.555   0.784
 1117W        W66377   1.955   1.996  10.668
 1118W        W66378  34.170  15.032  12.112
 1119W        W66379  34.463  36.614  14.072
 1120W        W66380  19.759   7.164  10.762
 1121W        W66381  36.931  18.023  11.164
 1122W        W66382  13.698  10.864   3.207
 1123W        W66383   0.566  42.312  14.407
 1124W        W66384   3.692  12.537   4.719
 1125W        W66385  27.956   9.764  12.454
 1126W        W66386  23.202  20.077   3.993
 1127W        W66387  44.460  41.561   2.299
 1128W        W66388   5.718  21.986   0.868
 1129W        W66389   3.352  30.977  12.762
 1130W        W66390   2.404  19.289  14.343
 1131W        W66391  17.737   8.710  12.816
 1132W        W66392   8.109  12.336  11.004
 1133W        W66393  44.876  18.791   0.045
 1134W        W66394  27.012  19.705   2.196
 1135W        W66395  42.412  18.140  14.346
 1136W        W66396  24.743  29.722   3.957
 1137W        W66397  19.012  27.060   4.280
 1138W        W66398  39.382  41.227  14.602
 1139W        W66399  18.496   2.273   3.142
 1140W        W66400  30.868   0.541  13.350
 1141W        W66401  34.339  11.871   0.443
 1142W        W66402   1.700  22.184   3.542
 1143W        W66403  37.343  16.686  11.648
 1144W        W66404   6.776  43.178  12.887
 1145W        W66405   5.394  25.408  12.094
 1146W        W66406   1.913  22.988   1.299
 1147W        W66407  42.981  21.485   2.720
 1148W        W66408   2.474   0.315   2.419
 1149W        W66409  35.317  24.222  10.637
 1150W        W66410  33.442  33.408  12.187
 1151W        W66411  32.935   7.485   0.749
 1152W        W66412  20.166   6.358   2.619
 1153W        W66413   5.754  32.184   1.136
 1154W        W66414  38.382  20.002   4.232
 1155W        W66415  43.789  15.637   2.467
 1156W        W66416  10.097  25.124   4.781
 1157W        W66417  23.051  36.059   0.719
 1158W        W66418   0.684  17.887   1.268
 1159W        W66419  39.842   0.817   4.120
 1160W        W66420  13.757  19.687  11.847
 1161W        W66421  29.451  37.420  10.778
 1162W        W66422  24.962   8.080   4.488
 1163W        W66423  10.811  40.220   2.588
 1164W        W66424  10.261   5.434  11.532
 1165W        W66425   0.976  34.624   1.880
 1166W        W66426  11.687   8.890   4.786
 1167W        W66427  20.043  29.077   1.297
 1168W        W66428  11.885  35.541   3.902
 1169W        W66429  43.707  28.351  10.961
 1170W        W66430   3.940  44.776  14.386
 1171W        W66431  25.415   9.169   1.462
 1172W        W66432   1.929   9.164   2.809
 1173W        W66433  15.151  41.035   4.274
 1174W        W66434   0.830  16.257   3.087
 1175W        W66435  13.800  13.298  12.545
 1176W        W66436   2.281  18.272   0.828
 1177W        W66437  33.611  17.359   2.679
 1178W        W66438  28.657   4.043  14.474
 1179W        W66439  30.430  32.516  13.472
 1180W        W66440  40.815  23.234  10.504
 1181W        W66441   4.745  36.626   4.274
 1182W        W66442  40.578  23.524  13.218
 1183W        W66443  23.434  18.144  14.363
 1184W        W66444  42.593  16.553   3.604
 1185W        W66445  11.529  20.767   0.840
 1186W        W66446  16.006  11.800  12.536
 1187W        W66447   5.245  31.802   2.880
 1188W        W66448   1.049  38.855   4.619
 1189W        W66449   5.767  30.219   1.962
 1190W        W66450  30.166  29.089  13.091
 1191W        W66451  30.578  36.413  14.811
 1192W        W66452  36.525  18.612   1.257
 1193W        W66453  26.488  23.329  11.251
 1194W        W66454   9.336  40.284  10.803
 1195W        W66455  10.231  20.571  11.584
 1196W        W66456   9.630  33.380  10.242
 1197W        W66457  33.391  16.829  13.848
 1198W        W66458  14.302  40.371  12.890
 1199W        W66459  11.764  43.924   2.536
 1200W        W66460  22.350  31.430  10.456
 1201W        W66461  13.233  27.165   2.260
 1202W        W66462  44.503  43.228  13.347
 1203W        W66463  44.460  38.949   5.068
 1204W        W66464  27.431  43.310  12.770
 1205W        W66465  29.592  17.992  13.877
 1206W        W66466  29.928  17.793   0.154
 1207W        W66467  41.020  36.890   3.765
 1208W        W66468  17.871  22.619  10.738
 1209W        W66469  33.055  44.194  10.767
 1210W        W66470  23.457  15.168   2.480
 1211W        W66471   3.869  23.231   3.213
 1212W        W66472  21.597  16.153   4.184
 1213W        W66473  15.798  15.170   0.655
 1214W        W66474  40.757  33.365   1.355
 1215W        W66475  37.068  34.072   1.283
 1216W        W66476  15.162  16.482   4.690
 1217W        W66477  18.750  15.717   2.420
 1218W        W66478  43.853  13.242   2.273
 1219W        W66479  38.514  11.829  12.151
 1220W        W66480   5.783  19.278   1.382
 1221W        W66481  24.423  41.756   0.439
 1222W        W66482  37.934  37.097  10.420
 1223W        W66483  27.763  31.084  11.463
 1224W        W66484   7.402  16.550  11.139
 1225W        W66485  37.030  17.585  12.811
 1226W        W66486  25.989  31.831   3.864
 1227W        W66487  24.445  20.171   4.521
 1228W        W66488  28.144  39.079   3.738
 1229W        W66489  29.522  26.617  14.081
 1230W        W66490  38.744  35.385   0.279
 1231W        W66491  27.732   1.433   3.923
 1232W        W66492  17.683   4.312  14.020
 1233W        W66493   5.286  20.582  11.366
 1234W        W66494  33.354  14.320   3.834
 1235W        W66495  36.564  12.652   0.301
 1236W        W66496  10.775  25.447  12.101
 1237W        W66497   0.726  44.917  13.962
 1238W        W66498   3.990  24.012  12.111
 1239W        W66499  16.062  20.116   0.448
 1240W        W66500  30.381  10.310  13.212
 1241W        W66501   3.845  23.700   1.006
 1242W        W66502  30.928  41.593   4.010
 1243W        W66503  33.463  19.686  11.443
 1244W        W66504  20.226  31.265   3.091
 1245W        W66505   9.798  44.137  14.469
 1246W        W66506  29.121  32.470   4.420
 1247W        W66507  31.496  29.747   0.976
 1248W        W66508  31.391   4.545   4.844
 1249W        W66509   1.468  28.473  14.538
 1250W        W66510  13.391  27.530  12.473
 1251W        W66511  23.023  11.704  10.527
 1252W        W66512  44.989   5.803   4.109
 1253W        W66513  44.309  27.011  10.665
 1254W        W66514  42.337  14.205  14.040
 1255W        W66515  30.751  43.536   1.321
 1256W        W66516  36.170  34.963   1.699
 1257W        W66517  11.660   7.406   3.117
 1258W        W66518  17.499  20.168  13.566
 1259W        W66519  29.959  20.580   4.318
 1260W        W66520  15.726  35.369  11.030
 1261W        W66521  13.278  19.920  12.645
 1262W        W66522  18.633  39.303   1.312
 1263W        W66523  13.283  42.262   0.880
 1264W        W66524  15.669   4.372  11.555
 1265W        W66525  19.499  43.125   2.686
 1266W        W66526  16.536  20.720  13.433
 1267W        W66527  23.729  14.652  11.636
 1268W        W66528  24.009  25.579   0.852
 1269W        W66529   4.473  16.988  14.828
 1270W        W66530  41.448  35.864  10.610
 1271W        W66531  33.633   3.319   0.824
 1272W        W66532  20.796   5.440  14.820
 1273W        W66533   2.819  39.818   1.277
 1274W        W66534  40.035   4.874   2.606
 1275W        W66535  15.730   7.267  10.075
 1276W        W66536  30.450   3.889   1.878
 1277W        W66537  10.750  31.847  12.803
 1278W        W66538  31.126   4.832   9.922
 1279W        W66539  29.028   5.548  14.885
 1280W        W66540   7.191  20.750  11.910
 1281W        W66541  22.557  29.810  11.553
 1282W        W66542  12.320  34.977   3.310
 1283W        W66543  22.977   9.928  12.150
 1284W        W66544   9.822  38.749   4.217
 1285W        W66545  19.222  23.130   2.260
 1286W        W66546  43.921   1.305  10.616
 1287W        W66547  38.260  12.151   1.200
 1288W        W66548  16.378  28.089   1.884
 1289W        W66549   9.231  27.417  13.111
 1290W        W66550  38.342   7.252  10.760
 1291W        W66551   9.873  12.469   2.217
 1292W        W66552  13.585  13.538  11.195
 1293W        W66553  40.973   1.511   3.297
 1294W        W66554  21.178  30.946   1.323
 1295W        W66555  21.511  28.396   4.594
 1296W        W66556  26.203  17.357  13.236
 1297W        W66557   9.411   0.167  11.664
 1298W        W66558  36.563   3.283   1.880
 1299W        W66559  15.830  12.560  13.064
 1300W        W66560  19.030  28.211  13.510
 1301W        W66561  33.037  42.708   4.783
 1302W        W66562  10.334   7.963   1.138
 1303W        W66563  40.533  34.884   3.378
 1304W        W66564  35.938  29.067  12.631
 1305W        W66565  17.352   2.874  14.823
 1306W        W66566  24.729  31.346  11.567
 1307W        W66567   9.438   7.089   0.507
 1308W        W66568  29.072  36.591  12.613
 1309W        W66569  33.792  12.357   2.812
 1310W        W66570  28.168  10.465   3.786
 1311W        W66571  16.151  42.523  13.082
 1312W        W66572   0.452   8.940   4.403
 1313W        W66573   3.906  20.423  11.168
 1314W        W66574  12.869  35.186   2.444
 1315W        W66575  40.276  37.213   3.363
 1316W        W66576  42.708  44.762  13.986
 1317W        W66577  42.886  33.631   9.968
 1318W        W66578  20.179   0.319  14.852
 1319W        W66579   2.360  42.974  14.889
 1320W        W66580   0.916  34.835   2.367
 1321W        W66581  31.952  23.983  11.616
 1322W        W66582  25.893  18.669   1.759
 1323W        W66583  19.036   5.476  12.505
 1324W        W66584   6.384  23.232   2.944
 1325W        W66585  17.716   7.822  13.766
 1326W        W66586  26.463   9.360   2.275
 1327W        W66587  13.648   9.944  11.209
 1328W        W66588  17.442  28.090   1.016
 1329W        W66589  11.727  28.907  11.721
 1330W        W66590  24.806  15.818   2.016
 1331W        W66591   8.939  30.039  13.926
 1332W        W66592  39.770   2.455  11.303
 1333W        W66593  40.381  33.473   3.518
 1334W        W66594  28.162  27.389  11.058
 1335W        W66595  29.066  21.956   4.729
 1336W        W66596  29.073  22.363   1.863
 1337W        W66597  10.287  43.297  11.456
 1338W        W66598  21.196  35.067  10.296
 1339W        W66599  34.177  38.597   4.919
 1340W        W66600   6.718  28.661   3.104
 1341W        W66601   4.780  39.796  14.236
 1342W        W66602   5.051   6.055  14.260
 1343W        W66603  14.839   4.805   3.754
 1344W        W66604  32.217   4.874  12.497
 1345W        W66605   1.013  10.121   4.441
 1346W        W66606  38.634  33.798   2.167
 1347W        W66607  40.360  42.748  12.909
 1348W        W66608  39.195  28.609  12.421
 1349W        W66609   9.267  25.720  13.957
 1350W        W66610  35.050  26.026  10.621
 1351W        W66611  20.578  30.473   4.384
 1352W        W66612   9.562   8.241   1.024
 1353W        W66613   1.467  31.499  12.100
 1354W        W66614  32.982   5.745  14.293
 1355W        W66615  20.628   8.508  12.091
 1356W        W66616  11.811  17.769  14.936
 1357W        W66617  38.430  36.803  14.487
 1358W        W66618   6.809  17.994  11.902
 1359W        W66619  42.136  11.432   1.749
 1360W        W66620  23.590   5.967  11.553
 1361W        W66621  37.989  38.770  11.585
 1362W        W66622  42.361  29.529  12.197
 1363W        W66623  14.857   6.381   2.773
 1364W        W66624  27.412  44.337  10.943
 1365W        W66625  23.641  43.899   4.659
 1366W        W66626  11.936  27.546   1.548
 1367W        W66627  35.352  36.942  10.765
 1368W        W66628  28.509  26.791   2.677
 1369W        W66629  40.970  41.961   4.596
 1370W        W66630  37.082  11.563   4.259
 1371W        W66631  15.616  14.769  13.974
 1372W        W66632  44.394  43.569  10.757
 1373W        W66633  24.078  39.796   1.880
 1374W        W66634  31.662  26.157  12.060
 1375W        W66635  21.122  29.481   5.080
 1376W        W66636  22.489  27.237  13.526
 1377W        W66637   0.027  40.369   4.357
 1378W        W66638  14.665   2.915   1.734
 1379W        W66639   2.343  35.359  14.758
 1380W        W66640  12.792  40.005  13.265
 1381W        W66641  21.714  41.866   0.273
 1382W        W66642  22.043  26.184   1.586
 1383W        W66643   9.385  17.097   1.351
 1384W        W66644   4.508  20.746  12.490
 1385W        W66645  18.804  12.628  14.971
 1386W        W66646  19.792  37.480   1.378
 1387W        W66647  14.323  28.005   3.100
 1388W        W66648  17.668  19.080  14.481
 1389W        W66649  42.270  38.092  14.212
 1390W        W66650  22.689  12.987  10.639
 1391W        W66651  10.560  22.949  11.161
 1392W        W66652  30.904  41.816   3.208
 1393W        W66653  33.530   6.478   4.562
 1394W        W66654  37.884   5.036  13.155
 1395W        W66655  34.571  17.773  13.949
 1396W        W66656  29.519  36.278   4.080
 1397W        W66657  32.750  44.189   2.692
 1398W        W66658  36.592  19.186   4.620
 1399W        W66659   7.346   4.023  12.688
 1400W        W66660  29.633  29.110  11.394
 1401W        W66661  39.358  27.662   4.607
 1402W        W66662  16.189  14.387  14.194
 1403W        W66663  30.554  31.599   0.011
 1404W        W66664  42.801   5.267  12.361
 1405W        W66665  40.255  35.468   1.595
 1406W        W66666   5.617  30.567   1.618
 1407W        W66667  13.668  43.277  13.858
 1408W        W66668  14.023  38.948   3.331
 1409W        W66669   9.303  36.747   0.822
 1410W        W66670  27.895  37.722   2.738
 1411W        W66671   5.417  15.362  10.750
 1412W        W66672  29.755  30.948   0.875
 1413W        W66673   9.308  27.299   3.980
 1414W        W66674  12.921  29.041   4.832
 1415W        W66675   5.387  39.375   4.297
 1416W        W66676   4.056  26.655   4.598
 1417W        W66677  28.671  31.080  10.978
 1418W        W66678  35.355  26.566  12.517
 1419W        W66679  17.767  16.462  14.199
 1420W        W66680  27.602  27.377  12.149
 1421W        W66681   1.247   8.446  11.588
 1422W        W66682   3.446  14.851  13.448
 1423W        W66683  24.059  22.544  14.785
 1424W        W66684   4.579   0.733  14.901
 1425W        W66685  35.496  43.743   2.751
 1426W        W66686  33.465  14.665  10.735
 1427W        W66687  10.763  14.313  14.301
 1428W        W66688  18.459  40.922   4.332
 1429W        W66689  16.192  36.392   1.808
 1430W        W66690  17.218  16.007   0.380
 1431W        W66691   3.966  35.324  12.861
 1432W        W66692   3.744   6.369   3.237
 1433W        W66693  15.138   9.538   2.393
 1434W        W66694  10.911  14.162   3.232
 1435W        W66695  27.921   0.196   3.620
 1436W        W66696  15.563  44.879  10.745
 1437W        W66697  28.078  18.004   1.786
 1438W        W66698   9.447  16.060   3.378
 1439W        W66699  27.003  24.032  13.759
 1440W        W66700  12.547  35.510   2.189
 1441W        W66701  42.073  20.254   3.453
 1442W        W66702  26.170  30.249  11.905
 1443W        W66703  12.082  19.155  11.982
 1444W        W66704  25.666   0.402  11.040
 1445W        W66705  11.800  39.108   3.298
 1446W        W66706  44.531  33.555   1.011
 1447W        W66707   8.226  23.327   0.245
 1448W        W66708  44.371  31.819  13.030
 1449W        W66709  20.708  29.366  12.036
 1450W        W66710  16.590  41.412  13.297
 1451W        W66711  40.755  29.267   1.807
 1452W        W66712  12.364  17.940   4.533
 1453W        W66713  26.079  41.856   0.941
 1454W        W66714  28.997  23.617  11.142
 1455W        W66715  22.073  10.147  12.638
 1456W        W66716  18.961  40.347   0.902
 1457W        W66717   9.070   5.647   3.260
 1458W        W66718  24.681  15.871  10.141
 1459W        W66719  34.098  33.607  14.420
 1460W        W66720   1.969   2.358  13.852
 1461W        W66721  36.769  24.642  11.350
 1462W        W66722  32.178   8.658   1.456
 1463W        W66723  41.220  40.841   0.479
 1464W        W66724  30.161   0.575  10.843
 1465W        W66725  26.936  24.032   3.759
 1466W        W66726  25.525   4.266  14.432
 1467W        W66727  39.480  42.951   2.802
 1468W        W66728  12.329  17.896   0.322
 1469W        W66729  35.444  11.826  12.643
 1470W        W66730   1.238   0.851   3.605
 1471W        W66731   8.246  34.886  14.469
 1472W        W66732  29.143  40.248  10.526
 1473W        W66733  36.220  38.745   4.283
 1474W        W66734  28.098  17.186  11.251
 1475W        W66735  11.760  39.121  13.010
 1476W        W66736  35.085  27.216   4.733
 1477W        W66737  21.037  19.816  14.450
 1478W        W66738   2.463  17.744  12.661
 1479W        W66739  33.934  39.567  13.186
 1480W        W66740  12.740  19.804   4.518
 1481W        W66741  13.828   2.783  13.040
 1482W        W66742  13.218   0.378   1.721
 1483W        W66743   5.392   4.025   3.236
 1484W        W66744  24.606   9.366   0.052
 1485W        W66745  39.248   4.359  12.036
 1486W        W66746  36.885  23.048   4.159
 1487W        W66747   5.376  41.861   0.925
 1488W        W66748  17.020  18.760   2.815
 1489W        W66749   4.165   3.531   3.708
 1490W        W66750   9.194  42.536  14.863
 1491W        W66751  33.138  16.965  13.013
 1492W        W66752  20.307  19.080  14.749
 1493W        W66753  32.683  31.617   1.397
 1494W        W66754  19.175   4.768   1.901
 1495W        W66755  32.133  17.514  13.350
 1496W        W66756  29.124  27.555   4.069
 1497W        W66757   0.386  44.012   1.148
 1498W        W66758  34.875  16.679  11.973
 1499W        W66759  16.014  43.934   0.486
 1500W        W66760  22.732  38.523   1.443
 1501W        W66761  31.669  26.636  13.406
 1502W        W66762   6.787  23.020  14.276
 1503W        W66763  28.162  40.562   1.780
 1504W        W66764  23.405  30.217   2.314
 1505W        W66765   7.830  40.302  12.110
 1506W        W66766  11.189  30.797   3.756
 1507W        W66767  15.202   0.198   3.675
 1508W        W66768  16.543  42.609   0.294
 1509W        W66769  20.582  39.977   1.275
 1510W        W66770  35.503   6.933   4.552
 1511W        W66771   2.200  37.926   0.885
 1512W        W66772  20.595  25.623   3.749
 1513W        W66773  21.309   4.462  13.911
 1514W        W66774  18.213   9.821   1.250
 1515W        W66775   0.847  40.450  11.591
 1516W        W66776  39.452  11.437  14.017
 1517W        W66777  30.733   0.011   1.372
 1518W        W66778  28.062  16.715  13.701
 1519W        W66779  32.931  10.101   3.161
 1520W        W66780  11.927  24.011  13.368
 1521W        W66781  44.950  44.848   1.980
 1522W        W66782   5.494  42.445   3.879
 1523W        W66783  13.174  40.142  12.364
 1524W        W66784  21.053  13.706  12.027
 1525W        W66785   4.303  21.584   1.304
 1526W        W66786  34.423   8.957   1.871
 1527W        W66787  41.908  14.353  13.006
 1528W        W66788   6.494  30.651   0.710
 1529W        W66789   3.044  19.821   0.738
 1530W        W66790  21.482   6.011   1.166
 1531W        W66791  31.680  44.100  14.391
 1532W        W66792   2.732  38.996  10.957
 1533W        W66793  11.918  26.117   1.678
 1534W        W66794  41.858  30.160  12.570
 1535W        W66795  22.321  22.528   0.809
 1536W        W66796  40.451  14.606  10.618
 1537W        W66797   8.918   7.234  14.775
 1538W        W66798  20.622  26.960  12.111
 1539W        W66799  16.174  12.335   2.759
 1540W        W66800  12.603  19.469   3.681
 1541W        W66801  44.064  41.784   1.481
 1542W        W66802  17.989  35.694  12.103
 1543W        W66803  12.619  18.573   2.773
 1544W        W66804   1.355   2.932   2.629
 1545W        W66805   7.684  21.726   0.867
 1546W        W66806  11.819  12.438   4.081
 1547W        W66807  38.687   4.202  13.444
 1548W        W66808  30.071  40.738  13.399
 1549W        W66809   8.932  33.955   3.705
 1550W        W66810  32.185  24.592  11.988
 1551W        W66811  40.867  34.453  10.593
 1552W        W66812   2.760   7.883   3.742
 1553W        W66813  18.614  21.153   1.833
 1554W        W66814   7.495  29.882  10.597
 1555W        W66815  31.780  30.542   4.414
 1556W        W66816  16.744  26.101   4.008
 1557W        W66817  35.351  30.769   2.851
 1558W        W66818  11.317  39.498  12.917
 1559W        W66819  30.985  21.548  14.298
 1560W        W66820  28.633  20.184   2.287
 1561W        W66821  15.517  35.100   0.351
 1562W        W66822  39.085   1.392   3.881
 1563W        W66823  42.005   9.539   4.202
 1564W        W66824   7.563   5.667   3.907
 1565W        W66825  30.567   7.720  11.889
 1566W        W66826  33.524   2.282   4.210
 1567W        W66827  16.250  44.350   4.468
 1568W        W66828  25.595   6.001  13.981
 1569W        W66829  39.900  10.613  11.025
 1570W        W66830  32.111   0.694   0.980
 1571W        W66831   5.673  15.814  10.748
 1572W        W66832  41.965   9.807  11.773
 1573W        W66833   9.771   2.280  12.463
 1574W        W66834  10.325  24.223   3.143
 1575W        W66835  27.708  32.608   4.256
 1576W        W66836  25.849  24.004   4.656
 1577W        W66837   2.293  23.651  14.891
 1578W        W66838  29.550  33.937  12.504
 1579W        W66839  38.884  35.773   2.746
 1580W        W66840  16.272  36.649  14.876
 1581W        W66841  27.224  44.969  12.099
 1582W        W66842  35.561  25.632   1.983
 1583W        W66843  33.602  42.202   1.449
 1584W        W66844   8.833  29.161  14.267
 1585W        W66845  10.136   6.236   4.470
 1586W        W66846  25.378  21.567   0.716
 1587W        W66847  30.881  40.347  11.862
 1588W        W66848  25.139  12.635   2.786
 1589W        W66849  10.628  38.101   3.758
 1590W        W66850  37.905  17.210   3.720
 1591W        W66851  30.831   5.799  10.631
 1592W        W66852  25.606  42.961  14.764
 1593W        W66853   6.325  30.784  13.765
 1594W        W66854  21.781  20.617  14.373
 1595W        W66855  18.810  21.500  12.557
 1596W        W66856  21.656  36.942  12.099
 1597W        W66857  38.411   4.399  13.864
 1598W        W66858  37.327  14.248  14.555
 1599W        W66859  16.575  29.695  12.885
 1600W        W66860   9.353  23.193   2.742
 1601W        W66861  39.414   0.909  12.927
 1602W        W66862  17.599  14.727  13.811
 1603W        W66863  20.590  41.785  12.725
 1604W        W66864  42.443  39.601   0.438
 1605W        W66865  17.541  10.752   4.591
 1606W        W66866  24.552  16.616   2.277
 1607W        W66867  34.159   6.847  12.038
 1608W        W66868  23.744  36.329   2.249
 1609W        W66869  44.408   3.498  10.106
 1610W        W66870  19.064  29.434  11.662
 1611W        W66871  33.749  31.334   2.810
 1612W        W66872  15.522  18.019  11.959
 1613W        W66873  43.074   5.783  12.159
 1614W        W66874  22.045  21.427  11.673
 1615W        W66875   2.825  32.288  10.690
 1616W        W66876  20.957  27.853  11.144
 1617W        W66877  24.089  26.647   2.885
 1618W        W66878  13.820  38.502   2.379
 1619W        W66879  40.668  33.536   2.165
 1620W        W66880  34.842  25.071   2.579
 1621W        W66881   0.200   4.638   3.078
 1622W        W66882  25.976  38.319  13.916
 1623W        W66883  18.135  20.148  14.383
 1624W        W66884  29.410  10.288  11.036
 1625W        W66885  39.753  43.942   0.526
 1626W        W66886  42.280  12.738   0.695
 1627W        W66887  35.870  29.971   3.229
 1628W        W66888   6.542  17.639  14.307
 1629W        W66889  36.117  29.184  12.137
 1630W        W66890  30.539  38.479   4.061
 1631W        W66891  36.855  19.839   1.371
 1632W        W66892  36.225  24.839  10.233
 1633W        W66893   5.762  31.904   1.638
 1634W        W66894  19.009  25.579   1.427
 1635W        W66895  32.170  37.519   4.123
 1636W        W66896  36.392  12.126   4.380
 1637W        W66897   9.578  33.083  13.040
 1638W        W66898   6.965  11.285   0.793
 1639W        W66899   5.739  24.748  14.343
 1640W        W66900   2.476  11.343  13.900
 1641W        W66901  19.381  25.022   3.616
 1642W        W66902  27.403  34.910   1.586
 1643W        W66903  10.221  40.460   1.400
 1644W        W66904   6.848  11.553   2.629
 1645W        W66905  24.525  23.328   1.082
 1646W        W66906   6.792   0.395  11.586
 1647W        W66907  36.013  38.498  14.701
 1648W        W66908   4.275  29.454  12.975
 1649W        W66909  13.398  32.997  14.763
 1650W        W66910   5.265  30.297   3.026
 1651W        W66911  23.756  10.848   0.104
 1652W        W66912  34.622  16.759  14.026
 1653W        W66913  38.429   4.855  12.008
 1654W        W66914  30.187  18.525  14.020
 1655W        W66915  29.966  39.458   2.022
 1656W        W66916  38.354  41.780  12.024
 1657W        W66917  23.582  16.130  12.066
 1658W        W66918  19.206   5.697  14.252
 1659W        W66919   9.197  31.420   4.156
 1660W        W66920  36.541  15.228  11.993
 1661W        W66921  14.810  44.041  13.479
 1662W        W66922   8.893  23.673  12.203
 1663W        W66923  43.876  28.115   1.627
 1664W        W66924   8.228  17.634   3.579
 1665W        W66925  29.068  12.654   1.300
 1666W        W66926  26.178  28.713  13.230
 1667W        W66927  29.723  42.457   3.272
 1668W        W66928  35.180  30.644  12.935
 1669W        W66929  31.295  39.475  10.737
 1670W        W66930  34.111   2.899  12.954
 1671W        W66931  16.609   3.031   0.931
 1672W        W66932  18.630  41.994  13.924
 1673W        W66933   6.146  38.824   0.228
 1674W        W66934  21.760  32.007   0.932
 1675W        W66935  15.659  41.994  10.659
 1676W        W66936  34.034  13.228  11.007
 1677W        W66937  38.064  18.032  12.146
 1678W        W66938   8.873  29.790   4.515
 1679W        W66939  43.242  38.854   4.168
 1680W        W66940  31.609   9.886   1.306
 1681W        W66941  12.815  44.332   4.678
 1682W        W66942   3.217   6.340  11.869
 1683W        W66943  16.096   0.316  12.902
 1684W        W66944  39.994   6.688   4.598
 1685W        W66945  27.497  40.568   2.509
 1686W        W66946  18.429  41.549  10.711
 1687W        W66947  10.366  31.768   1.698
 1688W        W66948  17.189  29.516  12.478
 1689W        W66949  24.601   3.417   3.293
 1690W        W66950  14.499  10.301   3.166
 1691W        W66951   7.833   4.797  10.378
 1692W        W66952  12.609  35.691   0.773
 1693W        W66953   8.165  19.063   2.894
 1694W        W66954  21.741   9.766  12.662
 1695W        W66955  12.934  23.561   1.303
 1696W        W66956  32.989   0.839   0.982
 1697W        W66957   9.832   1.914   4.363
 1698W        W66958  42.906  40.839  12.115
 1699W        W66959  37.967  25.427  12.942
 1700W        W66960   2.499   1.050   2.667
 1701W        W66961   6.313  23.536   1.672
 1702W        W66962   1.733  15.061  11.140
 1703W        W66963  24.284  44.806  12.104
 1704W        W66964  21.713  29.466   2.480
 1705W        W66965  12.574   3.296   3.642
 1706W        W66966  31.572  35.617   0.923
 1707W        W66967   3.251  13.773  12.598
 1708W        W66968  36.489   2.491  14.023
 1709W        W66969  18.364  11.396  11.092
 1710W        W66970  38.823  17.770  12.433
 1711W        W66971   2.404  28.706   2.652
 1712W        W66972   8.448   4.620  12.424
 1713W        W66973   8.919  16.730  14.265
 1714W        W66974  26.762  41.154  10.033
 1715W        W66975  38.618  20.682  13.909
 1716W        W66976  24.418  11.240  14.093
 1717W        W66977  36.269  17.989  14.946
 1718W        W66978  21.956  10.283   2.119
 1719W        W66979  36.833   3.798  11.984
 1720W        W66980  42.961  22.930   2.864
 1721W        W66981   2.135  40.609   4.102
 1722W        W66982  19.733   9.823   1.807
 1723W        W66983  21.576  13.393  13.632
 1724W        W66984   1.964  20.835   1.739
 1725W        W66985   0.324  13.386   1.847
 1726W        W66986  17.008   4.908   2.293
 1727W        W66987  12.092  11.430  12.057
 1728W        W66988  35.336  21.582  11.496
 1729W        W66989  40.455   9.654   1.236
 1730W        W66990  23.973  42.780   0.884
 1731W        W66991  32.902  24.209  14.520
 1732W        W66992  10.115   8.682   2.912
 1733W        W66993  12.329  41.198   1.403
 1734W        W66994  42.140  24.420  12.019
 1735W        W66995  44.945  32.444  11.479
 1736W        W66996  14.263   5.687   4.487
 1737W        W66997   8.420  38.953   2.732
 1738W        W66998   6.102  44.168  12.409
 1739W        W66999  20.169   6.184   2.132
 1740W        W67000  10.708   2.773   0.244
 1741W        W67001   3.218  10.272  12.444
 1742W        W67002  41.550  14.753   2.363
 1743W        W67003  34.063  17.000   4.037
 1744W        W67004  31.831  34.998   3.666
 1745W        W67005  24.501  39.304   3.262
 1746W        W67006  43.689   1.940   0.123
 1747W        W67007  23.563  26.680  10.937
 1748W        W67008  33.073  40.096  11.197
 1749W        W67009  31.865  31.896  12.040
 1750W        W67010  17.032  29.921  12.744
 1751W        W67011  27.505  33.484  13.762
 1752W        W67012   5.304  11.854   4.677
 1753W        W67013  37.117   6.522   0.842
 1754W        W67014  44.869   6.769   3.619
 1755W        W67015   5.039  26.216  12.982
 1756W        W67016  28.125  28.163  10.575
 1757W        W67017   0.389  10.238  11.964
 1758W        W67018  39.586   7.344  11.278
 1759W        W67019  27.697  26.350  12.373
 1760W        W67020  11.997   2.439   2.233
 1761W        W67021  39.262  31.545  14.987
 1762W        W67022  18.762  43.836   3.563
 1763W        W67023  27.944   4.848   1.194
 1764W        W67024   8.653   0.706  11.925
 1765W        W67025   8.265   6.305  10.398
 1766W        W67026  23.738   8.150  10.633
 1767W        W67027   0.429  36.948  11.910
 1768W        W67028  17.244  43.080  13.619
 1769W        W67029  31.981   7.882  11.057
 1770W        W67030  43.008  32.381  10.525
 1771W        W67031  35.808  18.980   2.306
 1772W        W67032  22.545  12.262   0.508
 1773W        W67033  20.549  16.576   3.808
 1774W        W67034  38.009  21.297   0.810
 1775W        W67035  28.873  18.689   3.710
 1776W        W67036  26.673  36.066  10.470
 1777W        W67037  30.718   9.773  12.030
 1778W        W67038  32.570   0.480   2.772
 1779W        W67039  16.092  25.322  10.733
 1780W        W67040  13.634  20.172   4.862
 1781W        W67041  29.484  42.317   2.395
 1782W        W67042  33.052  37.484  14.313
 1783W        W67043   8.172  35.992  11.266
 1784W        W67044   6.169   8.834   2.646
 1785W        W67045  23.501  31.598   3.797
 1786W        W67046  10.654  40.751  14.361
 1787W        W67047  40.580  31.916   0.629
 1788W        W67048  17.650  37.897  13.058
 1789W        W67049  25.940  12.576  14.442
 1790W        W67050  36.014  43.762  12.043
 1791W        W67051  10.758   3.004  13.467
 1792W        W67052  23.943  33.839   0.294
 1793W        W67053  20.342  42.051   4.564
 1794W        W67054  16.510  41.843   2.484
 1795W        W67055   3.197  13.107   0.356
 1796W        W67056  10.313   3.566  11.074
 1797W        W67057  20.558  29.218  12.517
 1798W        W67058   7.159   2.356  14.416
 1799W        W67059   6.690  41.072   0.819
 1800W        W67060  35.535   2.283   1.323
 1801W        W67061  20.528   6.974   3.082
 1802W        W67062  30.533  23.346   3.669
 1803W        W67063  17.670  27.590   0.095
 1804W        W67064   6.066  11.770  13.931
 1805W        W67065  18.658   6.956   1.458
 1806W        W67066  34.428  35.525   1.920
 1807W        W67067  38.974  15.337  13.396
 1808W        W67068  26.515  34.102   1.268
 1809W        W67069  10.382  10.569   2.261
 1810W        W67070   4.965   1.956  14.337
 1811W        W67071  42.176  41.807   0.378
 1812W        W67072   3.913   7.368  12.417
 1813W        W67073  42.813  27.234  10.884
 1814W        W67074  24.118   0.469  11.600
 1815W        W67075  32.177  12.565   1.019
 1816W        W67076  11.521   2.378  14.097
 1817W        W67077  24.761   8.178  14.077
 1818W        W67078  19.132  18.321  13.132
 1819W        W67079   3.730  21.662   2.455
 1820W        W67080  25.211  22.979  14.418
 1821W        W67081   4.354  39.533   1.504
 1822W        W67082  39.366   5.501   0.704
 1823W        W67083  14.350   9.105  11.994
 1824W        W67084  43.957   5.950   1.840
 1825W        W67085  14.785  33.818  14.952
 1826W        W67086  22.170  40.787  12.844
 1827W        W67087  12.906  14.770  11.613
 1828W        W67088  43.347  23.144   2.561
 1829W        W67089  29.421  29.936  14.451
 1830W        W67090   4.526  19.450  13.875
 1831W        W67091  17.769  20.010   2.815
 1832W        W67092  40.563  42.572  12.469
 1833W        W67093  41.049  13.061  12.029
 1834W        W67094   9.388  19.402   4.163
 1835W        W67095  25.442   8.174   0.400
 1836W        W67096  17.292  17.568  14.242
 1837W        W67097   1.414  10.888   4.586
 1838W        W67098  23.757  39.268   1.435
 1839W        W67099  34.761   8.979   4.203
 1840W        W67100  11.391  16.325  11.065
 1841W        W67101  11.844  26.109   2.621
 1842W        W67102   3.478   0.670  13.020
 1843W        W67103  36.748  16.790  11.879
 1844W        W67104  15.866  13.104   4.169
 1845W        W67105  37.912  30.458   3.599
 1846W        W67106  42.271  44.038   4.516
 1847W        W67107  37.238  15.280   2.009
 1848W        W67108  18.604  38.792   4.576
 1849W        W67109   8.164  34.153  10.652
 1850W        W67110   7.580  15.704   1.295
 1851W        W67111  33.997   3.341  10.931
 1852W        W67112  42.553  27.040   4.799
 1853W        W67113  24.552   7.679  13.405
 1854W        W67114   3.195  34.070  12.561
 1855W        W67115  41.338  16.661  12.414
 1856W        W67116   7.905  38.212  12.090
 1857W        W67117   8.801  32.964  11.441
 1858W        W67118  16.468  14.670   0.898
 1859W        W67119   3.843  44.987  13.489
 1860W        W67120  30.641   2.433  14.642
 1861W        W67121  43.230  19.793   3.762
 1862W        W67122  43.028  37.879   0.780
 1863W        W67123   5.366  11.707  13.904
 1864W        W67124  12.371  38.104  13.040
 1865W        W67125  35.492  13.644  12.659
 1866W        W67126  22.185  34.281   0.009
 1867W        W67127  24.562   3.822   4.127
 1868W        W67128  32.494  42.385   2.388
 1869W        W67129  42.823  24.924  12.859
 1870W        W67130  42.222  18.005  13.499
 1871W        W67131   9.702   7.375   3.114
 1872W        W67132   0.450  38.956   0.805
 1873W        W67133  10.081   9.205   2.315
 1874W        W67134  13.605  19.039   1.295
 1875W        W67135  37.930  36.097  11.945
 1876W        W67136  24.857   5.915   2.957
 1877W        W67137  19.610   4.860   2.193
 1878W        W67138  13.727  41.016   1.776
 1879W        W67139  29.072  33.478   0.840
 1880W        W67140  31.902  28.704   1.750
 1881W        W67141  32.273   1.882   2.372
 1882W        W67142   7.876  11.805  11.698
 1883W        W67143  22.446   4.141  13.028
 1884W        W67144  19.441  32.648  12.172
 1885W        W67145  41.528  14.881   0.164
 1886W        W67146  26.960   2.735   9.592
 1887W        W67147  15.531  21.919   4.124
 1888W        W67148  37.861  39.405   3.669
 1889W        W67149   3.573   2.272   3.060
 1890W        W67150  24.553  10.830   4.162
 1891W        W67151  35.017  14.109  10.646
 1892W        W67152  10.298  23.749   4.621
 1893W        W67153  40.266   3.757  13.396
 1894W        W67154  28.082   0.736   3.406
 1895W        W67155  32.127   4.882  10.647
 1896W        W67156  14.822  36.017   1.737
 1897W        W67157  25.025  19.876  13.592
 1898W        W67158  43.674  29.116  11.735
 1899W        W67159  14.705  28.488   4.586
 1900W        W67160  43.174  18.111  11.464
 1901W        W67161  36.043  44.679  13.360
 1902W        W67162  13.336   2.422  14.328
 1903W        W67163   9.209  42.409  10.454
 1904W        W67164  43.582  30.044  14.095
 1905W        W67165   2.376  26.645   2.663
 1906W        W67166  24.216  26.978   4.105
 1907W        W67167  25.682  34.764   4.200
 1908W        W67168  38.115   0.381  14.971
 1909W        W67169  18.956   5.354  11.022
 1910W        W67170  23.996  12.139   4.825
 1911W        W67171  32.193  26.312  11.128
 1912W        W67172  10.270  43.856  11.199
 1913W        W67173  37.678   7.668  11.911
 1914W        W67174  22.425  40.749   0.391
 1915W        W67175  22.144  11.622   2.632
 1916W        W67176   6.341  23.015   2.396
 1917W        W67177  24.964   7.885  12.827
 1918W        W67178   4.205   9.525  10.599
 1919W        W67179  31.366  16.606   4.571
 1920W        W67180   1.281  37.382   4.340
 1921W        W67181  16.705  44.021  12.526
 1922W        W67182  19.838  22.063   0.373
 1923W        W67183  31.628  18.772  13.545
 1924W        W67184  27.975  14.577  13.052
 1925W        W67185  11.995  25.590  13.995
 1926W        W67186  14.742   4.458   0.379
 1927W        W67187  31.127   0.330  12.099
 1928W        W67188   7.765  13.392   1.258
 1929W        W67189  35.966  39.685  10.926
 1930W        W67190  43.990   0.306  13.000
 1931W        W67191  29.170  43.492  13.004
 1932W        W67192  16.696  19.686  13.555
 1933W        W67193   6.742  19.579  11.220
 1934W        W67194  14.325  27.918  13.994
 1935W        W67195  38.385  28.497   1.305
 1936W        W67196  38.583  16.230   4.283
 1937W        W67197  29.584  30.424  13.002
 1938W        W67198   6.899  24.494   0.749
 1939W        W67199   9.130  14.719  12.952
 1940W        W67200  16.542  40.844   3.593
 1941W        W67201   2.908  28.637  11.960
 1942W        W67202  12.193  29.473  14.883
 1943W        W67203  14.304  27.005   1.327
 1944W        W67204  32.128   4.682  14.910
 1945W        W67205   7.222  24.258  14.537
 1946W        W67206  24.396  42.158   2.819
 1947W        W67207   8.358   9.725   0.573
 1948W        W67208  16.662  14.076   0.325
 1949W        W67209  23.907   3.392   0.852
 1950W        W67210  10.893  35.712  12.953
 1951W        W67211   2.506  24.026   3.819
 1952W        W67212  29.899  22.570  13.035
 1953W        W67213  40.131   9.234  13.971
 1954W        W67214  38.994  36.167   3.067
 1955W        W67215   1.691  21.250  12.943
 1956W        W67216  42.600  27.467   3.311
 1957W        W67217  18.898  39.907  12.542
 1958W        W67218  44.995   9.193   2.357
 1959W        W67219  36.328  13.725   1.771
 1960W        W67220  17.155  16.174  11.743
 1961W        W67221   3.273  42.526   1.317
 1962W        W67222  21.297  28.983   3.241
 1963W        W67223  28.939  28.048   1.386
 1964W        W67224  41.913  38.039   0.038
 1965W        W67225  21.035  21.249   1.137
 1966W        W67226   2.852   1.480   0.063
 1967W        W67227  39.105  35.201  12.612
 1968W        W67228   2.150  28.619   3.656
 1969W        W67229   9.023  28.221   4.383
 1970W        W67230  18.690   0.417   1.901
 1971W        W67231  23.659  33.102   3.184
 1972W        W67232  44.379  20.192  12.919
 1973W        W67233  26.913  12.064   4.949
 1974W        W67234  21.024  30.195   4.927
 1975W        W67235   4.502  12.785   0.686
 1976W        W67236  18.787   1.178   2.308
 1977W        W67237   1.840  10.560   4.612
 1978W        W67238   6.178  40.253  12.560
 1979W        W67239  21.002  22.107  13.116
 1980W        W67240  28.561  15.032  11.203
 1981W        W67241  18.528  18.581  13.064
 1982W        W67242  32.657   4.898  13.818
 1983W        W67243  20.654   4.490   9.819
 1984W        W67244  37.787  29.217  13.368
 1985W        W67245  16.765  20.886  14.898
 1986W        W67246   3.691  39.825  13.888
 1987W        W67247  31.187   5.936  14.870
 1988W        W67248   9.166   4.377  11.986
 1989W        W67249   6.830  17.131  11.843
 1990W        W67250   3.102  10.908   2.733
 1991W        W67251  16.651  38.328   3.604
 1992W        W67252   0.899  12.689   0.442
 1993W        W67253  18.644  11.652   1.312
 1994W        W67254  14.426  28.129   0.991
 1995W        W67255  20.892  17.152   0.912
 1996W        W67256  33.678  30.565   0.192
 1997W        W67257  23.590  15.896   4.455
 1998W        W67258  14.218  33.943  11.504
 1999W        W67259   8.243  25.669  14.021
 2000W        W67260   3.720   8.857   2.268
 2001W        W67261  24.338   8.489  13.379
 2002W        W67262  33.411  41.413  12.128
 2003W        W67263   0.189  30.723   0.300
 2004W        W67264  27.192  44.819  10.802
 2005W        W67265  32.902   9.182  11.642
 2006W        W67266  17.713   6.137  12.562
 2007W        W67267   4.637   5.378  14.484
 2008W        W67268   0.313  36.687   2.090
 2009W        W67269  23.296  34.640   0.973
 2010W        W67270   9.331  21.397   0.394
 2011W        W67271  23.832  35.840   3.572
 2012W        W67272  28.745  14.845  13.445
 2013W        W67273   8.624  25.115  14.799
 2014W        W67274  25.411  17.037   3.716
 2015W        W67275  11.555  39.680  10.618
 2016W        W67276  34.575  29.959  11.222
 2017W        W67277  20.930  16.277  11.540
 2018W        W67278  36.021   4.262  14.028
 2019W        W67279  15.660  26.696  13.857
 2020W        W67280  36.124  26.894  12.183
 2021W        W67281  19.277  19.042   5.492
 2022W        W67282   0.765   6.865  14.183
 2023W        W67283   9.333  29.319  11.264
 2024W        W67284  23.380  38.915  13.800
 2025W        W67285   9.415  24.077  14.647
 2026W        W67286   7.919   6.742   4.549
 2027W        W67287  43.485  31.124   1.755
 2028W        W67288  23.470  40.009  14.202
 2029W        W67289   4.191  23.502   0.391
 2030W        W67290  36.992  38.298  14.277
 2031W        W67291  29.758  36.340   0.787
 2032W        W67292   3.001  41.926   2.274
 2033W        W67293   5.279  31.377  14.776
 2034W        W67294  36.568  35.606   0.924
 2035W        W67295  37.315  23.499   0.853
 2036W        W67296  28.153  28.614  12.381
 2037W        W67297  14.744  31.028   0.966
 2038W        W67298   9.331  32.840  12.526
 2039W        W67299  20.190  21.249   2.868
 2040W        W67300   8.379  35.936   0.281
 2041W        W67301  11.511  23.255  11.050
 2042W        W67302  42.860  43.308   1.406
 2043W        W67303  17.121  20.252  12.115
 2044W        W67304  25.243   4.963  12.677
 2045W        W67305  27.820   2.389   4.975
 2046W        W67306   0.630  22.807  11.991
 2047W        W67307  37.569  36.311  11.607
 2048W        W67308  13.535  12.645  11.604
 2049W        W67309  26.961  33.329  14.314
 2050W        W67310  27.671  24.040  14.336
 2051W        W67311   4.494  17.866  14.791
 2052W        W67312   4.302   8.764   5.077
 2053W        W67313  21.449  16.982   9.822
 2054W        W67314  20.983   4.418  13.431
 2055W        W67315   6.183  12.575  10.718
 2056W        W67316  14.923  11.195  11.984
 2057W        W67317  26.317   3.285  13.693
 2058W        W67318  16.528  18.757  10.736
 2059W        W67319  17.127  38.969   3.121
 2060W        W67320  13.766  38.888   0.265
 2061W        W67321  26.954  32.954   2.353
 2062W        W67322  31.193  44.261   1.764
 2063W        W67323  26.461  12.604  14.496
 2064W        W67324  33.755   0.957   2.768
 2065W        W67325   6.382  40.831   3.227
 2066W        W67326  44.993   6.246  11.430
 2067W        W67327   5.772  26.985   0.434
 2068W        W67328  43.010  16.730   4.540
 2069W        W67329  38.289  12.619   3.666
 2070W        W67330   3.218  41.184   0.227
 2071W        W67331  42.388  10.176   3.436
 2072W        W67332  28.101   4.647  11.746
 2073W        W67333  10.718  23.701  10.720
 2074W        W67334  31.345  10.253  12.509
 2075W        W67335  37.836  35.756   2.789
 2076W        W67336  29.719   3.001  14.575
 2077W        W67337  20.833  39.105   4.969
 2078W        W67338  41.665  12.464  14.912
 2079W        W67339  43.817  13.705  10.711
 2080W        W67340  31.493  10.451  11.871
 2081W        W67341  18.203  16.725  14.038
 2082W        W67342  25.285  28.663   4.856
 2083W        W67343  43.906  27.984  12.121
 2084W        W67344  33.654   2.778   0.951
 2085W        W67345   3.695  30.337   0.505
 2086W        W67346   9.206  17.755  12.548
 2087W        W67347   3.237  22.060   4.506
 2088W        W67348  19.164  42.865   3.792
 2089W        W67349  34.559  19.741  13.733
 2090W        W67350  23.279  30.021   4.298
 2091W        W67351  40.338  33.440  11.914
 2092W        W67352   0.713  21.089   2.702
 2093W        W67353  27.962   8.738  10.970
 2094W        W67354  26.529  25.661  12.994
 2095W        W67355  36.975  26.493   0.891
 2096W        W67356  34.866  36.728  11.632
 2097W        W67357  14.760   0.822   1.933
 2098W        W67358  13.676   4.873  13.557
 2099W        W67359  23.173  20.494  12.082
 2100W        W67360   5.954  29.293  14.710
 2101W        W67361   1.724  16.883  14.392
 2102W        W67362   7.699  43.096   4.623
 2103W        W67363  32.460   7.370  13.939
 2104W        W67364  29.791  34.360  13.188
 2105W        W67365   1.999   4.502   1.735
 2106W        W67366  13.305  36.562   3.380
 2107W        W67367  31.966   5.940   1.476
 2108W        W67368  28.443  44.745   1.830
 2109W        W67369  36.016  23.441   2.191
 2110W        W67370  42.294   2.135   4.666
 2111W        W67371  16.382   5.752  14.969
 2112W        W67372   4.394   7.636  10.526
 2113W        W67373  11.924  15.372  13.781
 2114W        W67374  43.151   5.608  12.630
 2115W        W67375  32.857   6.222  14.066
 2116W        W67376  19.735  21.525   3.349
 2117W        W67377  32.454  20.247  11.198
 2118W        W67378  43.032  38.859   3.192
 2119W        W67379   9.609  25.261   4.933
 2120W        W67380  32.333  18.187  13.877
 2121W        W67381  30.170  25.073  13.995
 2122W        W67382  36.026  38.051   4.762
 2123W        W67383  24.734  24.177  10.340
 2124W        W67384  27.630  13.556  11.211
 2125W        W67385  37.178  39.403   2.896
 2126W        W67386  31.650  44.964  11.557
 2127W        W67387  15.396  33.224   4.969
 2128W        W67388  24.898  37.088   0.703
 2129W        W67389   8.221  27.938  12.889
 2130W        W67390  26.939  43.875  13.103
 2131W        W67391  27.609  30.124   2.336
 2132W        W67392  28.880  23.903  12.985
 2133W        W67393  13.844   4.020  12.068
 2134W        W67394  20.799   3.795  14.428
 2135W        W67395  19.564  19.805  12.452
 2136W        W67396   5.744  31.658   2.082
 2137W        W67397  36.635  25.356   5.076
 2138W        W67398  18.071  14.887   1.313
 2139W        W67399  37.411  40.526  12.232
 2140W        W67400  12.352  15.169  12.057
 2141W        W67401  44.318   0.459   4.627
 2142W        W67402  14.644  40.338   1.685
 2143W        W67403  19.662  40.697  10.882
 2144W        W67404   2.401  29.604  12.857
 2145W        W67405  44.186  24.482   1.443
 2146W        W67406  15.790  36.129  10.741
 2147W        W67407  28.592  27.897  14.123
 2148W        W67408  42.852  43.308   4.074
 2149W        W67409  37.761   3.664  10.758
 2150W        W67410  42.378  28.770  11.233
 2151W        W67411   3.018  28.387  10.128
 2152W        W67412  19.158  44.137   3.693
 2153W        W67413   3.387  30.417   3.668
 2154W        W67414  19.239  30.615  10.479
 2155W        W67415   0.246  42.227   2.909
 2156W        W67416  41.011  28.950  12.515
 2157W        W67417  41.010  17.515   3.583
 2158W        W67418  25.904   5.698   2.263
 2159W        W67419  33.992  32.924   0.966
 2160W        W67420   5.261  42.719  12.552
 2161W        W67421  24.611  33.662  14.450
 2162W        W67422  32.448  38.892   2.450
 2163W        W67423  24.934  15.794   2.988
 2164W        W67424  21.604  18.042   2.662
 2165W        W67425  16.220  10.159  12.244
 2166W        W67426  21.719  20.417   3.104
 2167W        W67427  27.002  40.548  14.280
 2168W        W67428  27.133  29.307  13.080
 2169W        W67429  39.354   3.230  13.556
 2170W        W67430   7.411  35.051   1.987
 2171W        W67431  37.926  18.303  12.567
 2172W        W67432  33.150  23.815   1.465
 2173W        W67433  38.873  20.218   2.319
 2174W        W67434  31.407  41.187   4.996
 2175W        W67435  27.141  30.493  12.655
 2176W        W67436  17.549  33.146  10.753
 2177W        W67437  10.536  13.511  14.037
 2178W        W67438   7.770  26.494  13.882
 2179W        W67439   2.934  28.650   1.529
 2180W        W67440  41.355  18.353   2.790
 2181W        W67441   5.962   8.681   3.164
 2182W        W67442  16.679  29.760   0.434
 2183W        W67443  10.614  39.827   2.878
 2184W        W67444  11.311  17.133  10.675
 2185W        W67445  27.391  17.674  12.527
 2186W        W67446  37.017  24.590  13.642
 2187W        W67447  30.093  15.121   0.749
 2188W        W67448  42.999  18.739  14.798
 2189W        W67449  28.116  29.729  10.825
 2190W        W67450  44.722  30.154   1.773
 2191W        W67451  20.770   5.313  12.137
 2192W        W67452  36.619  12.907   2.244
 2193W        W67453  40.221  30.904   4.457
 2194W        W67454  36.463   9.341  14.945
 2195W        W67455   5.353  30.784   2.898
 2196W        W67456   5.295  40.185  10.430
 2197W        W67457  39.882  11.534   0.762
 2198W        W67458  23.469  43.573  14.963
 2199W        W67459  28.998  29.582   0.209
 2200W        W67460  44.803  19.622  14.509
 2201W        W67461  23.811  13.768   2.803
 2202W        W67462  11.839   2.788   3.574
 2203W        W67463  38.907  37.900   4.148
 2204W        W67464   5.319  16.803   4.622
 2205W        W67465  25.352  17.674   0.715
 2206W        W67466  21.743  21.249  13.089
 2207W        W67467  15.617  34.496  11.274
 2208W        W67468  26.537   5.291  14.337
 2209W        W67469  31.380  30.555  12.897
 2210W        W67470  18.675  13.337  11.574
 2211W        W67471  34.849  43.443   3.101
 2212W        W67472  11.903   6.681  11.989
 2213W        W67473  22.890  39.352  11.007
 2214W        W67474   4.699  10.768  10.770
 2215W        W67475   4.908  29.450  11.650
 2216W        W67476   1.791  23.602   2.083
 2217W        W67477  22.702  16.025   3.976
 2218W        W67478  36.283  41.431  11.953
 2219W        W67479  17.010  34.219   3.618
 2220W        W67480  39.059   6.017   4.155
 2221W        W67481  17.786  41.409  12.298
 2222W        W67482  29.893  38.751  12.644
 2223W        W67483  22.742   4.192   1.005
 2224W        W67484  41.232  37.023  11.080
 2225W        W67485  30.006  44.121   0.877
 2226W        W67486  27.642  38.610   2.683
 2227W        W67487  14.915  23.414   3.245
 2228W        W67488   5.078  14.058   2.812
 2229W        W67489   5.194  15.908  13.420
 2230W        W67490   2.171   8.795   3.923
 2231W        W67491  40.029  24.849  10.372
 2232W        W67492  37.274  41.060  10.855
 2233W        W67493  21.158  39.759   0.884
 2234W        W67494  32.326  21.004   2.211
 2235W        W67495   0.309  18.011  14.847
 2236W        W67496  25.001  14.979  14.789
 2237W        W67497  26.981  44.189  11.656
 2238W        W67498  22.048  32.410   0.727
 2239W        W67499  40.461  33.577  11.443
 2240W        W67500  44.909  15.318  11.112
 2241W        W67501  19.760  12.115   2.468
 2242W        W67502  26.754  19.352   2.483
 2243W        W67503  24.605   7.286   0.777
 2244W        W67504  32.422   4.256  11.705
 2245W        W67505  27.226  22.155   1.739
 2246W        W67506  39.693  30.474  11.434
 2247W        W67507   1.460  18.781  12.129
 2248W        W67508  42.383  21.613  13.965
 2249W        W67509  34.291  24.664   0.301
 2250W        W67510   0.071  16.392  10.434
 2251W        W67511   9.255  23.550   3.661
 2252W        W67512  29.473  25.940   1.426
 2253W        W67513  31.703  40.823  13.854
 2254W        W67514  12.640   4.932   1.881
 2255W        W67515   9.783   0.291  14.923
 2256W        W67516   0.383  28.565  12.175
 2257W        W67517  41.847  40.922  14.033
 2258W        W67518  27.898  14.805   2.912
 2259W        W67519  24.679  31.981   4.589
 2260W        W67520  40.089  17.664  11.648
 2261W        W67521   5.304  28.730   2.203
 2262W        W67522  25.669  27.174  12.939
 2263W        W67523  32.095  34.287  13.054
 2264W        W67524  39.930  35.030   2.612
 2265W        W67525  10.250   9.979  14.830
 2266W        W67526  16.794   8.175   1.682
 2267W        W67527  23.552   0.205   1.494
 2268W        W67528  26.223   6.201   3.579
 2269W        W67529  15.974  37.613  12.905
 2270W        W67530  29.029  16.503  12.925
 2271W        W67531   9.617  39.234   1.907
 2272W        W67532  18.440  32.548  12.963
 2273W        W67533  34.840  25.744   0.888
 2274W        W67534  17.855  23.478   1.165
 2275W        W67535  10.143  23.034  13.822
 2276W        W67536  21.230  21.631   3.220
 2277W        W67537  42.058  42.525  10.671
 2278W        W67538   6.881  28.049  11.634
 2279W        W67539  27.635  40.585  12.937
 2280W        W67540  42.534  25.723   1.708
 2281W        W67541  24.025  27.887   4.137
 2282W        W67542  44.129  22.638  14.874
 2283W        W67543  12.249  39.784   1.808
 2284W        W67544  43.814  24.310   2.747
 2285W        W67545  31.437  19.767  14.031
 2286W        W67546   4.247  18.328   1.457
 2287W        W67547  28.283  13.391   2.540
 2288W        W67548  40.366  38.415   4.850
 2289W        W67549  36.930  35.860  10.325
 2290W        W67550  11.732  28.467  10.635
 2291W        W67551  37.849  42.590   3.893
 2292W        W67552  21.068  40.931  13.444
 2293W        W67553  12.744   4.465   4.200
 2294W        W67554  28.882   6.698   1.876
 2295W        W67555  36.380  13.163   4.510
 2296W        W67556   8.699  23.142   0.030
 2297W        W67557  30.986  40.452   0.274
 2298W        W67558   9.199   6.018   1.007
 2299W        W67559  26.212   8.246   5.112
 2300W        W67560   0.021  11.184   0.600
 2301W        W67561  38.916  38.058   3.167
 2302W        W67562  44.817   3.475   0.806
 2303W        W67563  25.172  41.873   0.085
 2304W        W67564  39.732  16.165  10.681
 2305W        W67565   5.205  31.639   1.725
 2306W        W67566  16.695  13.444   3.904
 2307W        W67567  28.056  14.549   0.342
 2308W        W67568   5.405   3.382   3.669
 2309W        W67569  40.681  10.285   0.436
 2310W        W67570  36.826   3.237   4.969
 2311W        W67571  26.070  17.527   1.176
 2312W        W67572  41.428  39.453  13.680
 2313W        W67573  33.136  16.434   4.385
 2314W        W67574  38.796  36.964   2.498
 2315W        W67575  21.046  25.405  13.985
 2316W        W67576  11.196  42.272  12.844
 2317W        W67577  36.900  29.039   4.607
 2318W        W67578   4.719  29.213  13.142
 2319W        W67579  33.931   0.355  11.620
 2320W        W67580  32.892  43.127   2.407
 2321W        W67581   6.165  26.527  14.899
 2322W        W67582  13.216  15.382   2.978
 2323W        W67583  18.221  24.759   2.610
 2324W        W67584  16.328  40.179  13.587
 2325W        W67585  10.755   3.378   4.556
 2326W        W67586  33.021  13.789   2.206
 2327W        W67587   7.275  35.118  11.507
 2328W        W67588  31.111  25.004   1.071
 2329W        W67589  20.157  35.671   0.889
 2330W        W67590   9.124  31.039  14.704
 2331W        W67591  21.273   7.217   1.790
 2332W        W67592  12.315  25.172  14.035
 2333W        W67593  30.076  25.573  14.160
 2334W        W67594  39.265  44.949  13.863
 2335W        W67595  25.409  41.474   2.234
 2336W        W67596  26.035   6.628   2.591
 2337W        W67597  10.903  10.052  13.990
 2338W        W67598  42.416  23.702  13.014
 2339W        W67599  14.182  11.307  10.715
 2340W        W67600  10.629   4.349   1.403
 2341W        W67601  33.765  33.944  12.859
 2342W        W67602   7.345   7.003  13.072
 2343W        W67603  41.274  43.770  12.535
 2344W        W67604  28.564  11.364   1.716
 2345W        W67605   3.806  32.609   0.001
 2346W        W67606  42.483  31.557   3.144
 2347W        W67607  19.161  22.535  14.217
 2348W        W67608  37.865   3.173  10.728
 2349W        W67609  37.540   5.429   1.256
 2350W        W67610  18.781   0.801   2.662
 2351W        W67611   1.412  16.823  11.115
 2352W        W67612   9.753   7.691  11.903
 2353W        W67613  26.108   3.917   3.807
 2354W        W67614   6.316  25.632  12.508
 2355W        W67615  27.652  25.921  10.381
 2356W        W67616  40.610  10.723   1.683
 2357W        W67617  33.586  14.854  14.384
 2358W        W67618   1.028  18.314   1.948
 2359W        W67619  30.151  22.955  13.337
 2360W        W67620   8.107  12.361  14.847
 2361W        W67621  13.797   7.360   1.557
 2362W        W67622  44.526  17.204   1.343
 2363W        W67623  34.375   5.700  11.618
 2364W        W67624   3.985  42.148   2.356
 2365W        W67625   2.204  31.932   1.242
 2366W        W67626   9.480  21.755  14.852
 2367W        W67627  23.799   1.815  14.318
 2368W        W67628   7.498  41.515   0.423
 2369W        W67629  29.005  21.327  11.890
 2370W        W67630   1.814   0.553   3.132
 2371W        W67631  17.020   4.370   3.684
 2372W        W67632   1.921   6.917   2.343
 2373W        W67633   6.529  22.384  11.284
 2374W        W67634  29.613  40.067  11.111
 2375W        W67635  13.728  22.657   1.280
 2376W        W67636  12.847  35.546  10.479
 2377W        W67637  29.961  28.210   0.356
 2378W        W67638  19.065   0.406   2.841
 2379W        W67639  16.983   8.528  11.574
 2380W        W67640   0.363  20.047  11.556
 2381W        W67641  24.494  32.521  12.968
 2382W        W67642  22.851  33.904  12.451
 2383W        W67643  25.068  40.399   2.832
 2384W        W67644  11.865   1.955   2.354
 2385W        W67645  12.097  24.731   2.662
 2386W        W67646  13.743  21.823   0.757
 2387W        W67647  17.080  44.693   1.227
 2388W        W67648  18.282  23.206   1.937
 2389W        W67649  25.121  44.792  14.524
 2390W        W67650  12.378  37.471   4.672
 2391W        W67651  11.695  32.367   1.246
 2392W        W67652  28.285  31.643   2.722
 2393W        W67653  20.830  12.323   1.755
 2394W        W67654  27.408  30.902  11.171
 2395W        W67655  28.824  44.233  11.999
 2396W        W67656  22.199   6.785  10.961
 2397W        W67657  20.438  38.899  12.366
 2398W        W67658  15.747  28.419   0.810
 2399W        W67659   4.412  12.710   4.151
 2400W        W67660  43.290  21.368  11.999
 2401W        W67661  16.880  14.579   3.051
 2402W        W67662   4.511  25.765   0.373
 2403W        W67663  20.432  25.541   2.861
 2404W        W67664  17.431  36.930   1.105
 2405W        W67665  35.832  20.254   1.853
 2406W        W67666  44.723  26.572   3.734
 2407W        W67667  41.743   2.468   2.393
 2408W        W67668  16.149  40.348  14.052
 2409W        W67669  19.016   2.974   2.215
 2410W        W67670  43.179  21.838   3.048
 2411W        W67671  43.958   2.447   0.180
 2412W        W67672  14.289  29.109   4.377
 2413W        W67673  30.646   8.048  12.673
 2414W        W67674  40.588  42.750   0.023
 2415W        W67675   3.273  10.802   0.041
 2416W        W67676  27.351  35.123   3.678
 2417W        W67677  31.705  29.683  14.626
 2418W        W67678   7.089   9.727  12.087
 2419W        W67679  10.918  17.199  11.735
 2420W        W67680   0.494  29.120   4.243
 2421W        W67681   5.460  40.872   3.791
 2422W        W67682   5.315  33.718   2.174
 2423W        W67683   8.278  19.945   0.814
 2424W        W67684  21.527  42.410  11.046
 2425W        W67685  11.632  38.414   1.384
 2426W        W67686  32.094  41.017  12.988
 2427W        W67687  14.172   2.199  13.383
 2428W        W67688  42.435   0.962  13.460
 2429W        W67689  29.473   7.241   1.068
 2430W        W67690  13.336   7.654  12.927
 2431W        W67691  13.589  19.220   3.774
 2432W        W67692  39.015  20.822  10.606
 2433W        W67693   3.193  40.538  12.591
 2434W        W67694  10.581   5.322   2.238
 2435W        W67695  18.552  13.381   1.956
 2436W        W67696  16.377  23.507  11.177
 2437W        W67697  32.558  11.856   0.198
 2438W        W67698  23.761  15.601  11.657
 2439W        W67699  39.146  19.227   3.308
 2440W        W67700  38.455  22.541   1.306
 2441W        W67701  25.665  22.692  13.987
 2442W        W67702  31.563  35.320  10.733
 2443W        W67703  23.888  33.114  11.599
 2444W        W67704  13.314   8.659   1.190
 2445W        W67705  15.680   6.374   5.083
 2446W        W67706  41.827  35.273   4.013
 2447W        W67707  37.061  10.234  12.394
 2448W        W67708   0.800   3.701   1.162
 2449W        W67709   2.222   2.821  12.727
 2450W        W67710  32.752   6.765  14.871
 2451W        W67711  28.551  20.648  12.304
 2452W        W67712  34.328  10.271  11.660
 2453W        W67713  13.639  18.142  13.782
 2454W        W67714  13.176  35.362  12.647
 2455W        W67715  24.847   7.232  14.011
 2456W        W67716   4.043  44.934   4.300
 2457W        W67717   2.371   8.823  12.530
 2458W        W67718   2.673  32.424   4.652
 2459W        W67719   5.706  19.756  10.620
 2460W        W67720  32.892  18.164   4.068
 2461W        W67721   4.417   9.232   2.761
 2462W        W67722  25.020  26.642   4.388
 2463W        W67723  43.228  35.878   3.277
 2464W        W67724  40.165  12.564   3.987
 2465W        W67725   8.160   5.666   3.185
 2466W        W67726  22.621   7.676  11.913
 2467W        W67727  36.924   4.904  11.288
 2468W        W67728  22.170  15.549   1.709
 2469W        W67729  15.308  24.520   4.497
 2470W        W67730  13.611  15.773   0.467
 2471W        W67731  23.245  30.899  11.149
 2472W        W67732  41.946  15.239  14.425
 2473W        W67733  13.299  18.040  10.669
 2474W        W67734  33.316  24.210  12.673
 2475W        W67735  22.287   0.964  14.499
 2476W        W67736  18.072   5.012  11.115
 2477W        W67737  31.036  12.625   0.486
 2478W        W67738  32.812  27.254  14.838
 2479W        W67739  35.069  34.325  13.874
 2480W        W67740   5.234  41.928   3.741
 2481W        W67741  26.601  36.513   3.781
 2482W        W67742  14.159  13.391  14.467
 2483W        W67743  26.424  29.609   0.770
 2484W        W67744  27.493  26.206  14.027
 2485W        W67745   2.336  16.522   2.387
 2486W        W67746  26.023  17.698   1.659
 2487W        W67747  12.661  44.424  13.477
 2488W        W67748  14.315  34.116  12.913
 2489W        W67749  11.284  14.340  12.599
 2490W        W67750   1.873  45.000  13.364
 2491W        W67751   2.510  15.634   2.688
 2492W        W67752   9.108  35.467   4.363
 2493W        W67753  15.227  38.154  11.072
 2494W        W67754  32.600  41.056   0.061
 2495W        W67755  11.029  10.804   3.238
 2496W        W67756   8.873   0.947   4.921
 2497W        W67757  20.434  10.261   3.287
 2498W        W67758  34.573   1.962  14.390
 2499W        W67759  32.589  38.045  11.028
 2500W        W67760   3.696  14.284  12.454
 2501W        W67761  28.683  37.173   0.559
 2502W        W67762  41.108  44.593   3.618
 2503W        W67763  18.209  34.180  13.588
 2504W        W67764  23.460  25.238   0.348
 2505W        W67765   6.946  33.944   2.732
 2506W        W67766  17.078  33.081   1.513
 2507W        W67767  39.374  35.839   1.782
 2508W        W67768   4.298  36.398   4.418
 2509W        W67769  29.467  40.776   4.681
 2510W        W67770   6.538   0.166  11.077
 2511W        W67771  19.058  12.893   1.359
 2512W        W67772  19.809  41.493   0.870
 2513W        W67773  21.046  24.602  14.077
 2514W        W67774  41.612  24.673   4.135
 2515W        W67775   5.119  40.470  13.281
 2516W        W67776   0.872  28.746  12.217
 2517W        W67777  35.548  44.578   3.022
 2518W        W67778  17.165  21.918  11.505
 2519W        W67779  13.529  13.128  13.032
 2520W        W67780   9.869  41.811  10.472
 2521W        W67781   5.113  38.426   2.666
 2522W        W67782   9.837   0.484  11.629
 2523W        W67783  44.315  23.188   2.828
 2524W        W67784  20.571  13.200  13.754
 2525W        W67785  30.594  37.308  11.954
 2526W        W67786  31.002   2.493  13.376
 2527W        W67787   2.169  21.214  12.161
 2528W        W67788  24.051   7.245   0.892
 2529W        W67789  26.720   3.073  10.780
 2530W        W67790   7.350  40.547   2.345
 2531W        W67791   3.285  30.902  11.849
 2532W        W67792   2.165  12.304  10.459
 2533W        W67793  17.649  39.278  14.229
 2534W        W67794   0.272   4.552   0.429
 2535W        W67795   9.145  18.739   2.374
 2536W        W67796   9.167  32.532   1.417
 2537W        W67797  39.928   4.846   3.121
 2538W        W67798  31.886  27.082   1.870
 2539W        W67799  21.387  38.848  12.446
 2540W        W67800   8.314  40.106  14.432
 2541W        W67801  17.816  40.129   4.246
 2542W        W67802   2.127   8.428   2.537
 2543W        W67803  13.365  42.578   1.308
 2544W        W67804  17.440  32.490  11.521
 2545W        W67805   8.880  30.148  14.907
 2546W        W67806  33.363  38.081   4.737
 2547W        W67807  22.240  34.184  11.601
 2548W        W67808  22.546  38.562  14.496
 2549W        W67809   4.183  15.223  14.821
 2550W        W67810  44.778   4.221   2.180
 2551W        W67811  44.007  28.901   3.206
 2552W        W67812  28.257  17.031   0.014
 2553W        W67813  43.351  38.599  10.707
 2554W        W67814  35.890   4.887  11.236
 2555W        W67815  11.574  25.745   5.019
 2556W        W67816  27.916  35.027  12.961
 2557W        W67817  43.347   9.613  12.040
 2558W        W67818  13.108  20.430  13.894
 2559W        W67819  10.382   1.745  13.760
 2560W        W67820  23.047  15.205   3.539
 2561W        W67821  14.736  26.199   3.245
 2562W        W67822   6.213   3.597   1.604
 2563W        W67823   5.463   0.823   0.872
 2564W        W67824  25.121  15.369  14.397
 2565W        W67825  19.113   7.097   1.215
 2566W        W67826  33.717   0.249   4.223
 2567W        W67827   5.462  25.043  13.339
 2568W        W67828  30.743  33.786   4.144
 2569W        W67829  20.535  40.107   4.155
 2570W        W67830  22.230  18.082   0.792
 2571W        W67831  16.990  39.202  11.030
 2572W        W67832   2.160  35.486  13.362
 2573W        W67833  11.183  38.976   4.643
 2574W        W67834   9.122  35.447   1.416
 2575W        W67835  41.749  36.923  14.979
 2576W        W67836  31.082  42.802   3.419
 2577W        W67837   2.779  38.267   0.324
 2578W        W67838   8.762   7.775  12.431
 2579W        W67839   2.433  39.402  10.947
 2580W        W67840  29.458  39.354   2.620
 2581W        W67841  26.992  32.434   3.317
 2582W        W67842  10.766  29.357   0.959
 2583W        W67843  41.938   9.684   2.402
 2584W        W67844  15.620  23.058   0.268
 2585W        W67845  11.919  24.492   1.684
 2586W        W67846   8.557  29.109  13.775
 2587W        W67847  26.543   4.912   0.274
 2588W        W67848  41.002  13.072   2.184
 2589W        W67849  39.566  43.942   4.684
 2590W        W67850  14.296   2.702  14.604
 2591W        W67851  34.213   4.195  13.124
 2592W        W67852   5.300  18.728  10.588
 2593W        W67853   4.395   0.760  11.045
 2594W        W67854  44.494  14.094  12.534
 2595W        W67855  41.606  41.420  11.593
 2596W        W67856  43.883  19.149  14.260
 2597W        W67857  34.370  23.080   2.691
 2598W        W67858   4.761   1.463   2.466
 2599W        W67859  37.058  40.988   3.400
 2600W        W67860  42.639  24.593   3.181
 2601W        W67861  39.371  19.937  11.391
 2602W        W67862  39.535  31.058  14.994
 2603W        W67863  27.905  44.434  12.638
 2604W        W67864  23.416   5.875   4.460
 2605W        W67865   9.163  20.806  13.963
 2606W        W67866  44.177  23.510  12.427
 2607W        W67867  17.173  18.448  12.467
 2608W        W67868  15.413   5.303   2.655
 2609W        W67869  28.116  21.226   1.139
 2610W        W67870  16.218  25.650   1.279
 2611W        W67871  33.097  19.567  14.269
 2612W        W67872  26.701  42.607  10.724
 2613W        W67873   4.982  13.138   3.767
 2614W        W67874  39.578  12.114   2.801
 2615W        W67875  33.900  39.213   4.211
 2616W        W67876   8.961  35.962  14.030
 2617W        W67877  33.888  34.079   3.402
 2618W        W67878  17.745  14.073   1.467
 2619W        W67879  12.703  36.816  13.405
 2620W        W67880  33.867   8.951   3.610
 2621W        W67881   4.282  24.823  11.482
 2622W        W67882  38.266  24.079   4.615
 2623W        W67883  10.287  25.726   2.315
 2624W        W67884  42.453   4.186   3.070
 2625W        W67885  31.824  41.328   2.496
 2626W        W67886  24.459   9.900  13.781
 2627W        W67887  27.530  36.615   3.989
 2628W        W67888  20.072  33.945  11.919
 2629W        W67889  21.501  23.592   1.538
 2630W        W67890  24.236  29.087  12.240
 2631W        W67891  33.911  37.056   1.330
 2632W        W67892  41.037  10.240  12.647
 2633W        W67893  24.973  40.975   2.728
 2634W        W67894  40.469  23.422   4.629
 2635W        W67895  16.996  43.422  13.321
 2636W        W67896   1.781  16.540   2.577
 2637W        W67897  24.658  27.134  13.852
 2638W        W67898  19.388  44.387   3.290
 2639W        W67899  41.532  19.488   0.376
 2640W        W67900  18.119   5.677  13.762
 2641W        W67901  35.193  17.026  11.029
 2642W        W67902  16.427   9.641   3.837
 2643W        W67903  33.643  14.502   1.235
 2644W        W67904  12.185  38.156  11.690
 2645W        W67905  34.722  33.841   2.525
 2646W        W67906  15.775  10.118  14.913
 2647W        W67907  14.849  34.317  12.588
 2648W        W67908   2.674  27.174   5.555
 2649W        W67909  44.723  22.292   4.569
 2650W        W67910  34.942   5.875  14.934
 2651W        W67911  20.788   1.932   0.963
 2652W        W67912  29.143  14.563  14.433
 2653W        W67913  26.442  35.404   0.834
 2654W        W67914  44.352  33.051  10.123
 2655W        W67915  25.394  41.277  11.201
 2656W        W67916  14.803  18.508   1.201
 2657W        W67917  10.125  29.931   0.890
 2658W        W67918  20.180  26.891  13.637
 2659W        W67919  37.707  11.721  10.557
 2660W        W67920   8.905  38.467   3.908
 2661W        W67921  23.278   9.397   3.919
 2662W        W67922  36.083  39.954   3.611
 2663W        W67923  44.769  35.805   4.215
 2664W        W67924   3.578  17.681   3.241
 2665W        W67925  42.358   7.435   4.686
 2666W        W67926  39.326  36.332   1.917
 2667W        W67927  40.571  38.770  10.833
 2668W        W67928  32.246  24.143  13.065
 2669W        W67929  28.310   9.882   2.095
 2670W        W67930   5.024  22.816  11.438
 2671W        W67931  22.562   6.460  10.564
 2672W        W67932  35.824  13.512  11.637
 2673W        W67933  19.261  10.808   1.141
 2674W        W67934  39.807  20.933   0.807
 2675W        W67935   4.846  41.600   3.660
 2676W        W67936  42.540  42.878   4.118
 2677W        W67937  36.736  29.573   1.710
 2678W        W67938  43.634   6.631   2.915
 2679W        W67939  25.428  20.640  14.845
 2680W        W67940  36.096  36.040   1.964
 2681W        W67941  28.470  33.065   4.011
 2682W        W67942   1.402  19.022  14.431
 2683W        W67943   4.456   8.527   4.191
 2684W        W67944  28.012  32.900   4.590
 2685W        W67945  38.959  15.077   2.549
 2686W        W67946  26.713  11.073   1.736
 2687W        W67947  16.584   5.921   1.936
 2688W        W67948  35.957   2.076   4.754
 2689W        W67949  13.694  27.959   1.904
 2690W        W67950  31.169  11.188  14.435
 2691W        W67951  19.226  38.329  10.571
 2692W        W67952  39.564  31.103   3.325
 2693W        W67953   1.721  41.906   2.813
 2694W        W67954  15.796  10.386  13.329
 2695W        W67955  10.319   9.183   1.821
 2696W        W67956  40.363  44.839   4.110
 2697W        W67957  28.936  23.711   3.222
 2698W        W67958  31.664  12.682   0.865
 2699W        W67959  38.638  39.070  14.863
 2700W        W67960   8.350  44.431  14.741
 2701W        W67961  32.096   2.321   3.588
 2702W        W67962  14.378   4.698  11.944
 2703W        W67963  11.181  28.393   0.936
 2704W        W67964  35.889   6.615   4.740
 2705W        W67965  20.608  26.429  12.018
 2706W        W67966  20.011   1.738  14.886
 2707W        W67967  40.493  17.785  14.983
 2708W        W67968  30.477  40.765   2.799
 2709W        W67969  16.327   5.474   1.763
 2710W        W67970   2.257   4.273  13.853
 2711W        W67971  37.919  26.890   0.892
 2712W        W67972   8.379  21.176   4.620
 2713W        W67973  16.701   9.624  12.987
 2714W        W67974   3.779  37.153   0.869
 2715W        W67975  23.274   9.338   3.402
 2716W        W67976   1.723  14.404  13.483
 2717W        W67977  40.755   6.646   1.792
 2718W        W67978  40.959  15.221  11.768
 2719W        W67979  24.789  43.435   1.867
 2720W        W67980   2.974  24.209   3.661
 2721W        W67981   7.420  37.284   0.758
 2722W        W67982  24.627  11.860   0.309
 2723W        W67983  21.258  11.233  11.982
 2724W        W67984  14.219  26.681   1.834
 2725W        W67985  23.964  27.387   0.382
 2726W        W67986   1.606  34.892  13.078
 2727W        W67987  10.449  35.033  12.123
 2728W        W67988  27.701  17.271  12.022
 2729W        W67989  32.509  21.334  11.120
 2730W        W67990  33.074  42.122   2.254
 2731W        W67991  39.048  26.179   3.732
 2732W        W67992  29.028   7.180  12.430
 2733W        W67993  39.479  26.719  10.428
 2734W        W67994   3.452  18.579  13.016
 2735W        W67995  21.471  35.719   2.252
 2736W        W67996   7.885  10.758   3.578
 2737W        W67997  23.001   7.424   3.676
 2738W        W67998  13.564   1.584  14.262
 2739W        W67999  21.590   5.734   5.226
 2740W        W68000  12.995  14.965   2.042
 2741W        W68001  18.813  22.842  11.538
 2742W        W68002  28.385   6.817   1.885
 2743W        W68003  12.226  44.052   1.718
 2744W        W68004  37.561  28.517  10.753
 2745W        W68005   3.385  44.745  13.437
 2746W        W68006  37.446  31.438   1.263
 2747W        W68007  37.670  23.171  12.583
 2748W        W68008  43.421   6.108  11.911
 2749W        W68009  36.396   7.385  11.646
 2750W        W68010  32.335   7.317   1.308
 2751W        W68011  27.135  34.553   0.468
 2752W        W68012  19.593  44.964   0.699
 2753W        W68013  16.870   8.252   0.337
 2754W        W68014  43.394   2.786  10.659
 2755W        W68015   0.635   0.842   2.399
 2756W        W68016  40.870  10.642  12.962
 2757W        W68017  22.720  28.453  11.170
 2758W        W68018  40.888   2.203  10.645
 2759W        W68019   9.229  44.230   1.290
 2760W        W68020  34.622  36.597   1.455
 2761W        W68021   5.717  10.574  12.880
 2762W        W68022   7.384  43.390  12.506
 2763W        W68023  30.959  19.186  13.516
 2764W        W68024   2.911  25.130   3.320
 2765W        W68025   6.242  24.330  11.942
 2766W        W68026  24.579  34.124  13.343
 2767W        W68027  24.593  26.095   0.184
 2768W        W68028  43.870   5.151   1.278
 2769W        W68029  10.738  30.626   3.907
 2770W        W68030  34.482   4.077   2.666
 2771W        W68031  18.057  27.120  14.326
 2772W        W68032  39.752  35.214  11.026
 2773W        W68033  20.597  10.550  14.911
 2774W        W68034  40.113   2.896   3.699
 2775W        W68035   2.558  14.107   4.113
 2776W        W68036   6.795  10.624   4.623
 2777W        W68037  23.554  26.955   1.754
 2778W        W68038  31.041  30.501   0.685
 2779W        W68039   9.583  28.162  12.627
 2780W        W68040  11.017  23.089  10.990
 2781W        W68041  42.074  11.576   2.744
 2782W        W68042  34.056  30.609  13.865
 2783W        W68043  26.531  43.577   3.819
 2784W        W68044  26.153  14.574   1.169
 2785W        W68045   2.829  10.117  12.093
 2786W        W68046  41.255   2.583   5.453
 2787W        W68047  22.476  28.744   9.772
 2788W        W68048  38.893  31.671  13.848
 2789W        W68049  33.647  32.581   4.529
 2790W        W68050  27.078  15.297  10.730
 2791W        W68051   4.255  44.363   3.087
 2792W        W68052   0.673   4.791   3.121
 2793W        W68053  16.985   2.816  13.478
 2794W        W68054  34.074  15.677  11.830
 2795W        W68055   5.729  35.561   1.426
 2796W        W68056   4.394  19.464  10.616
 2797W        W68057  35.100  36.829  12.090
 2798W        W68058  21.079  10.327   3.743
 2799W        W68059  23.313  38.047   0.810
 2800W        W68060   2.387  29.091  13.038
 2801W        W68061   6.466  27.061  12.945
 2802W        W68062  13.805   4.202  11.587
 2803W        W68063   9.736  44.325  13.247
 2804W        W68064   6.339  16.077  12.367
 2805W        W68065  42.293   8.514  11.132
 2806W        W68066  25.521   6.925   3.638
 2807W        W68067  19.646  44.940  11.584
 2808W        W68068  35.838  25.266   5.054
 2809W        W68069  19.734  18.946   3.167
 2810W        W68070  34.152  15.767   0.386
 2811W        W68071  20.715  33.078  14.956
 2812W        W68072  32.386  16.778   3.675
 2813W        W68073  10.775  30.484  10.444
 2814W        W68074  29.631  31.425   1.810
 2815W        W68075   1.570  32.972   3.490
 2816W        W68076  40.822  18.211  13.368
 2817W        W68077   0.437  41.251  13.063
 2818W        W68078  36.834  12.011   4.096
 2819W        W68079   3.622  32.715   1.863
 2820W        W68080   3.370  27.689   1.236
 2821W        W68081   1.238  21.945   3.639
 2822W        W68082  42.864   4.264  14.893
 2823W        W68083  43.140  31.109  11.749
 2824W        W68084  32.798  26.756   4.978
 2825W        W68085  44.088   2.232   1.678
 2826W        W68086   3.803  25.477   3.289
 2827W        W68087  16.819  20.225   0.378
 2828W        W68088  25.188   2.734   1.540
 2829W        W68089  34.315  33.103  12.516
 2830W        W68090  10.435  24.697   0.037
 2831W        W68091  39.947  21.011   1.891
 2832W        W68092  32.597  43.974   4.870
 2833W        W68093  33.016   8.738  11.401
 2834W        W68094  24.107  37.072   0.195
 2835W        W68095  34.076   8.593   2.240
 2836W        W68096  16.313   0.880  10.827
 2837W        W68097   0.764   7.763   2.735
 2838W        W68098  25.072   0.909  13.330
 2839W        W68099  31.520  39.014  14.468
 2840W        W68100  24.124  40.624   2.233
 2841W        W68101  16.053  40.951  12.057
 2842W        W68102   5.670  36.989  11.589
 2843W        W68103   4.178  25.729   2.355
 2844W        W68104  44.872  10.751   0.850
 2845W        W68105  34.652  15.225  12.028
 2846W        W68106  42.321   4.234   3.987
 2847W        W68107  18.829  44.915   1.843
 2848W        W68108  37.843  16.161   0.031
 2849W        W68109  34.683  30.182   1.448
 2850W        W68110   6.732  30.379   0.352
 2851W        W68111  15.788  32.943   2.342
 2852W        W68112  37.056  36.340   4.608
 2853W        W68113   7.759  27.737   4.072
 2854W        W68114  25.948   1.819  11.954
 2855W        W68115  13.576   0.344  14.104
 2856W        W68116  33.337  42.421   2.924
 2857W        W68117  40.853  42.854  14.575
 2858W        W68118  25.269  33.502   0.244
 2859W        W68119  31.183  26.094  14.043
 2860W        W68120  21.472  34.186   3.271
 2861W        W68121  24.469  16.784   1.386
 2862W        W68122   9.895   5.205   3.683
 2863W        W68123  44.389  28.012  13.565
 2864W        W68124   5.380  29.745   2.142
 2865W        W68125   2.915  44.975  14.291
 2866W        W68126  28.126  22.907  14.935
 2867W        W68127  33.464  18.832   3.785
 2868W        W68128  42.726  22.618  11.916
 2869W        W68129  30.551  24.153  12.568
 2870W        W68130  16.565  27.103   0.819
 2871W        W68131   2.616   3.746   1.350
 2872W        W68132  29.500   1.967   4.324
 2873W        W68133  36.434  34.541   2.757
 2874W        W68134  34.941  15.362   4.938
 2875W        W68135  34.140  31.479  10.884
 2876W        W68136   1.280  36.518   1.879
 2877W        W68137  21.647  16.627   3.925
 2878W        W68138  15.721   2.705   1.411
 2879W        W68139  23.047  40.107  12.181
 2880W        W68140  34.978  44.596  11.158
 2881W        W68141  10.886  35.233  14.360
 2882W        W68142  32.337   2.834  10.653
 2883W        W68143   4.841  38.547  13.380
 2884W        W68144  27.568  21.659  13.402
 2885W        W68145  18.505   2.525   0.148
 2886W        W68146  20.112  11.843  11.734
 2887W        W68147  25.764  19.188   2.359
 2888W        W68148  20.108  11.394   0.064
 2889W        W68149  11.007  16.863   0.284
 2890W        W68150  16.371   0.419   3.652
 2891W        W68151  27.145   5.832   4.950
 2892W        W68152  38.733  13.272  11.804
 2893W        W68153  10.735  39.915  11.675
 2894W        W68154  22.637  29.187   3.327
 2895W        W68155  13.711  21.070   4.305
 2896W        W68156   7.282  17.277  13.547
 2897W        W68157   4.731  16.051  13.784
 2898W        W68158  17.279  44.228  10.827
 2899W        W68159   2.725   6.762  11.504
 2900W        W68160  24.757  16.636   3.189
 2901W        W68161   9.649  38.270   3.445
 2902W        W68162   4.641  36.857   5.211
 2903W        W68163   4.402   4.325   2.807
 2904W        W68164  20.804  38.240   3.141
 2905W        W68165  27.770  30.610   3.583
 2906W        W68166   0.550   3.347  13.123
 2907W        W68167  43.877  14.127   5.503
 2908W        W68168  42.134  38.975   2.398
 2909W        W68169  28.784  24.671  10.903
 2910W        W68170  15.087  21.744  13.214
 2911W        W68171  18.645  18.536   0.908
 2912W        W68172   8.598  29.679  10.818
 2913W        W68173  39.370  41.148   2.803
 2914W        W68174  24.312  27.873   0.218
 2915W        W68175   5.021  37.736  14.560
 2916W        W68176   7.797  19.597   1.317
 2917W        W68177  11.436  26.180   0.364
 2918W        W68178  28.431  23.378   1.298
 2919W        W68179   6.472   0.662  10.686
 2920W        W68180  22.720  15.061   4.302
 2921W        W68181  17.094   3.519  14.835
 2922W        W68182   1.475   8.363   0.352
 2923W        W68183  41.958  38.013   1.436
 2924W        W68184  19.205  39.104  11.012
 2925W        W68185  22.508  12.684   0.153
 2926W        W68186  33.892  40.887   0.394
 2927W        W68187   1.689  42.984   4.906
 2928W        W68188  19.096   6.411  12.619
 2929W        W68189  26.520   0.887  12.006
 2930W        W68190  18.282  27.935  11.193
 2931W        W68191  40.341  39.903   2.843
 2932W        W68192   7.643  38.059   0.741
 2933W        W68193  22.575   0.081  11.389
 2934W        W68194  11.782  29.928  10.614
 2935W        W68195  22.042  15.374   1.233
 2936W        W68196  27.550   6.857  10.152
 2937W        W68197   5.028   5.209   0.730
 2938W        W68198  41.963  28.859  12.978
 2939W        W68199   8.273  14.638   2.186
 2940W        W68200  15.564  16.790  11.225
 2941W        W68201  29.173  39.633   0.806
 2942W        W68202  23.286  31.601  12.547
 2943W        W68203  13.584  26.138  11.220
 2944W        W68204   7.269  15.906  12.435
 2945W        W68205  23.285  35.325  12.533
 2946W        W68206  43.795  21.259  13.024
 2947W        W68207   9.102   8.683   4.276
 2948W        W68208   4.845  20.602   0.679
 2949W        W68209  33.564  20.973  13.861
 2950W        W68210  21.537   4.542   1.734
 2951W        W68211  34.519  15.591  12.620
 2952W        W68212   7.876   0.037   1.267
 2953W        W68213  18.190  38.543  10.659
 2954W        W68214   1.813  23.716  12.494
 2955W        W68215  18.654  38.288   4.573
 2956W        W68216  27.707  13.837  14.044
 2957W        W68217   4.074  23.275  11.668
 2958W        W68218  15.380  11.248   2.390
 2959W        W68219  40.397  25.544  13.720
 2960W        W68220  35.316  34.648  13.556
 2961W        W68221   8.826  15.575  10.752
 2962W        W68222  44.145  26.108  11.149
 2963W        W68223  39.412  31.714  13.383
 2964W        W68224  30.985  37.105  11.687
 2965W        W68225  14.397   5.319  12.503
 2966W        W68226  40.854  18.215   1.639
 2967W        W68227  31.978  30.646  12.071
 2968W        W68228  10.259  37.241  12.382
 2969W        W68229   4.657   9.753  14.100
 2970W        W68230  26.526  16.216  13.780
 2971W        W68231  44.786  32.450  14.227
 2972W        W68232  37.093  27.561   0.664
 2973W        W68233  24.827  13.913   2.754
 2974W        W68234  27.841  27.573   3.559
 2975W        W68235  38.854  17.474  12.933
 2976W        W68236  13.539  21.060   3.200
 2977W        W68237  25.045  19.146  14.302
 2978W        W68238  16.800   5.325   2.789
 2979W        W68239   2.409  13.600  11.332
 2980W        W68240   7.295  29.712   2.797
 2981W        W68241  13.846  28.771   3.655
 2982W        W68242   9.383   6.514   0.930
 2983W        W68243  10.081  35.119  14.042
 2984W        W68244  31.967  42.357   4.198
 2985W        W68245  12.991  42.969   3.079
 2986W        W68246  14.776   5.303  11.218
 2987W        W68247  40.812  38.391   1.972
 2988W        W68248  33.677  34.993  13.817
 2989W        W68249  35.762   0.570   3.224
 2990W        W68250  30.528  23.273  14.876
 2991W        W68251  36.935  15.869   1.489
 2992W        W68252  36.611   8.304  14.929
 2993W        W68253  27.312  31.220  12.498
 2994W        W68254   0.267  21.145   3.587
 2995W        W68255  34.635   2.418   2.360
 2996W        W68256  24.464  25.378   3.161
 2997W        W68257   5.163   3.513   4.109
 2998W        W68258   3.001  22.793   3.332
 2999W        W68259  39.990  28.195  12.016
 3000W        W68260  14.756  12.261   0.662
 3001W        W68261  17.117  15.048   2.834
 3002W        W68262  11.775  23.266   1.085
 3003W        W68263   3.919  29.429  11.211
 3004W        W68264  36.485  25.945  10.763
 3005W        W68265   8.671  31.651   4.290
 3006W        W68266  40.588  40.432   4.438
 3007W        W68267   4.193  22.660   4.944
 3008W        W68268  17.905  41.935  11.554
 3009W        W68269   5.191  33.808  11.625
 3010W        W68270  21.071  42.977  12.149
 3011W        W68271   0.017  35.891   3.765
 3012W        W68272  25.625  32.271   4.026
 3013W        W68273  40.547  12.591   1.443
 3014W        W68274  44.315   4.389   2.354
 3015W        W68275   7.216  13.580  14.719
 3016W        W68276  17.750  17.475  13.470
 3017W        W68277   8.495  10.163   2.319
 3018W        W68278   7.170  31.036  10.977
 3019W        W68279  15.318  17.301   2.352
 3020W        W68280  35.339   0.558   0.406
 3021W        W68281   1.870  10.650   1.443
 3022W        W68282   8.199  42.457   4.411
 3023W        W68283  10.291  42.588   3.691
 3024W        W68284  12.560  22.053   3.474
 3025W        W68285   5.307   9.627   4.534
 3026W        W68286  38.937  42.804   3.632
 3027W        W68287  14.612  33.632   3.901
 3028W        W68288   9.178  27.721   4.241
 3029W        W68289   4.526  36.555  12.536
 3030W        W68290  44.819   7.382  10.762
 3031W        W68291   0.155  15.791  14.231
 3032W        W68292  22.134  17.761   3.729
 3033W        W68293  40.924  16.080  14.876
 3034W        W68294  35.644   4.846  12.428
 3035W        W68295  34.405   6.476  11.185
 3036W        W68296  25.731   2.160  13.370
 3037W        W68297  10.341  12.256  14.796
 3038W        W68298  14.443  21.510   1.978
 3039W        W68299   7.578  33.682   1.918
 3040W        W68300   3.857  35.816   0.810
 3041W        W68301  40.000  25.532  10.400
 3042W        W68302  31.179  26.406  12.749
 3043W        W68303   8.203   3.222   3.199
 3044W        W68304   3.230   4.845  10.983
 3045W        W68305   5.690   0.540   4.628
 3046W        W68306   2.501  10.823  13.386
 3047W        W68307   7.513  19.062   1.768
 3048W        W68308  43.233  35.089   1.158
 3049W        W68309  28.990   6.171  12.513
 3050W        W68310  43.873  11.084   2.683
 3051W        W68311  30.251  11.213  11.623
 3052W        W68312  28.173   2.838   5.061
 3053W        W68313  41.522  16.349  12.024
 3054W        W68314   5.406  21.531   1.968
 3055W        W68315  37.163   0.196  10.346
 3056W        W68316  29.708  31.274   2.339
 3057W        W68317  41.936  20.692  14.803
 3058W        W68318   9.387   7.762   5.435
 3059W        W68319  10.293   4.290   3.598
 3060W        W68320   9.200   1.979   1.179
 3061W        W68321  43.407  43.887  12.134
 3062W        W68322  22.027  34.271   3.266
 3063W        W68323  20.749  28.485  14.315
 3064W        W68324  33.052   3.797   3.140
 3065W        W68325  37.883  22.375  13.288
 3066W        W68326   2.443  41.038  12.050
 3067W        W68327   4.891   6.717  12.944
 3068W        W68328   4.475  20.225   0.700
 3069W        W68329  16.651  37.856  14.506
 3070W        W68330  43.934  41.984   3.647
 3071W        W68331  17.724  21.554   0.880
 3072W        W68332   0.720   5.388   0.919
 3073W        W68333   8.594  44.499  11.246
 3074W        W68334  15.341  20.036  11.038
 3075W        W68335  33.394  34.040   0.390
 3076W        W68336  26.975  13.442  11.578
 3077W        W68337  15.394  33.467   2.147
 3078W        W68338  24.040  35.838   2.649
 3079W        W68339  16.445   0.966   4.955
 3080W        W68340  27.346  21.665  10.136
 3081W        W68341  23.771  26.069  13.459
 3082W        W68342   3.287  18.623  11.670
 3083W        W68343   4.372  42.476   1.631
 3084W        W68344  21.046   8.750   3.328
 3085W        W68345  35.419  37.329   0.801
 3086W        W68346   3.248  42.379   2.330
 3087W        W68347   6.119  43.195  12.171
 3088W        W68348  27.237  15.154  11.214
 3089W        W68349  29.038  14.242  12.177
 3090W        W68350  19.735  28.557  13.340
 3091W        W68351  20.357  30.033  13.350
 3092W        W68352   4.514  44.386  12.828
 3093W        W68353  32.102   7.253  14.325
 3094W        W68354  21.519  27.428   4.036
 3095W        W68355  22.988   8.598  11.916
 3096W        W68356  32.935  10.324   0.319
 3097W        W68357  26.675  29.597   5.102
 3098W        W68358  32.607  20.571  12.527
 3099W        W68359  23.518  15.323  13.554
 3100W        W68360   7.294  39.342   3.773
 3101W        W68361  28.544  12.393   2.887
 3102W        W68362  25.432   6.161   1.213
 3103W        W68363   2.064   9.059   4.358
 3104W        W68364  40.415  30.165   2.309
 3105W        W68365  16.074  15.619  10.672
 3106W        W68366  24.659  25.053  12.243
 3107W        W68367   4.716  37.991   2.851
 3108W        W68368  17.166  23.053   3.824
 3109W        W68369  31.533  31.241   5.051
 3110W        W68370  20.778  37.065   2.534
 3111W        W68371   2.992  28.829  14.345
 3112W        W68372  43.502   8.690   2.898
 3113W        W68373  24.516  20.979   1.194
 3114W        W68374  15.075  35.342  14.470
 3115W        W68375  26.765  23.790   4.200
 3116W        W68376  28.260  10.300  14.798
 3117W        W68377  26.299   4.832  14.280
 3118W        W68378   5.904  39.787   3.697
 3119W        W68379  41.812  31.441  12.345
 3120W        W68380  16.129  34.474   3.865
 3121W        W68381  23.054  26.465   0.666
 3122W        W68382   4.945  35.043  12.031
 3123W        W68383  23.268   8.959   4.183
 3124W        W68384  27.642   3.411  12.054
 3125W        W68385  14.676  40.335   4.688
 3126W        W68386   6.516  25.480   3.239
 3127W        W68387  24.033  11.387   0.804
 3128W        W68388   8.324   0.715  10.744
 3129W        W68389  29.518  28.956  10.422
 3130W        W68390  43.740  21.605  11.869
 3131W        W68391  11.262  34.111  12.562
 3132W        W68392  29.393  40.856   3.744
 3133W        W68393  44.391  36.941   0.356
 3134W        W68394  17.166  15.276   1.396
 3135W        W68395   5.718   3.440  12.347
 3136W        W68396  13.047  29.895   2.781
 3137W        W68397   3.791  16.019  11.982
 3138W        W68398  43.039  19.573   0.261
 3139W        W68399   5.485  38.813   2.710
 3140W        W68400  22.015  36.301  13.436
 3141W        W68401  15.485  41.343   1.288
 3142W        W68402  31.348  14.304   1.195
 3143W        W68403  11.955  43.752  13.458
 3144W        W68404  19.228  24.465  14.418
 3145W        W68405  44.366  41.944   4.465
 3146W        W68406  20.825  33.166   2.168
 3147W        W68407  28.080  44.908  11.051
 3148W        W68408  24.509  24.946  14.614
 3149W        W68409  21.866  19.315   1.322
 3150W        W68410   1.813  10.129   1.423
 3151W        W68411  24.538  14.361   2.811
 3152W        W68412  22.982  25.326   3.260
 3153W        W68413  19.783   3.333  12.510
 3154W        W68414  21.709   4.578   2.718
 3155W        W68415  21.444   0.505  14.274
 3156W        W68416  37.889  34.401   4.447
 3157W        W68417  37.973  16.313   3.911
 3158W        W68418  13.417  37.560   3.271
 3159W        W68419  39.121  38.557  14.885
 3160W        W68420  14.870  19.641  14.407
 3161W        W68421  43.749  28.041   1.097
 3162W        W68422  42.914  27.327   4.131
 3163W        W68423   0.464   4.743   2.630
 3164W        W68424  22.709  27.466   1.824
 3165W        W68425  21.049  39.317   1.736
 3166W        W68426   5.822  27.682   0.776
 3167W        W68427   8.949  15.715  11.229
 3168W        W68428  25.688  39.322   2.921
 3169W        W68429   6.999  30.457   2.114
 3170W        W68430  42.093  27.467   3.201
 3171W        W68431  37.145  22.639  12.922
 3172W        W68432  25.600  15.204   1.681
 3173W        W68433   0.212  20.687   3.265
 3174W        W68434  44.451  41.997   1.208
 3175W        W68435   6.690   9.910   1.753
 3176W        W68436  27.396  33.429  12.047
 3177W        W68437  33.557  40.254   2.536
 3178W        W68438  18.712  20.724  10.460
 3179W        W68439  26.412   2.900   2.206
 3180W        W68440  35.095  10.170   4.544
 3181W        W68441  15.706  25.670  10.785
 3182W        W68442  22.000   1.862  10.061
 3183W        W68443  36.474  21.964   3.133
 3184W        W68444  38.413   8.100   2.383
 3185W        W68445  38.818  17.989  12.920
 3186W        W68446  30.622   3.959  14.632
 3187W        W68447  36.944  12.416  14.033
 3188W        W68448   3.216  11.263   2.355
 3189W        W68449  33.561  41.178   2.229
 3190W        W68450  34.674   9.302  12.921
 3191W        W68451  38.320  10.587  10.584
 3192W        W68452  42.402  16.338   4.428
 3193W        W68453  20.331   7.896   0.238
 3194W        W68454  14.646  16.078  11.288
 3195W        W68455  27.756  19.672  10.538
 3196W        W68456   9.923  15.158  11.962
 3197W        W68457  12.062  11.676  13.856
 3198W        W68458   8.869  18.739  11.513
 3199W        W68459  18.789  15.057  11.135
 3200W        W68460   5.715  19.056   0.232
 3201W        W68461  20.455  22.965  12.213
 3202W        W68462  28.495  26.200   3.153
 3203W        W68463  39.765   0.428  14.245
 3204W        W68464  35.202  26.654   2.201
 3205W        W68465   7.294  39.791   0.799
 3206W        W68466  25.869  18.004  14.851
 3207W        W68467  17.071   7.170   0.425
 3208W        W68468  14.133  31.731  13.887
 3209W        W68469   6.266   2.743  13.815
 3210W        W68470  12.706  42.990   1.239
 3211W        W68471   2.585   8.450  12.948
 3212W        W68472  37.887   7.753   0.895
 3213W        W68473   4.464  14.598   2.894
 3214W        W68474   5.288  13.905  13.927
 3215W        W68475   2.208  27.631  11.631
 3216W        W68476   2.783  18.238  10.817
 3217W        W68477  34.009  11.786  11.746
 3218W        W68478   3.654  22.189  13.228
 3219W        W68479  41.400  23.982  14.430
 3220W        W68480  40.556  35.311   3.115
 3221W        W68481  10.467  11.895   4.269
 3222W        W68482  15.330  35.303   1.367
 3223W        W68483  33.306  32.965  12.479
 3224W        W68484  19.183  21.980  14.275
 3225W        W68485  18.044  17.727  13.944
 3226W        W68486  37.337  20.498  13.361
 3227W        W68487  21.219  43.939   0.403
 3228W        W68488  36.799  30.502  11.648
 3229W        W68489  11.342  26.274  13.759
 3230W        W68490  11.382  39.908  13.537
 3231W        W68491  35.869  17.076   4.653
 3232W        W68492  35.378   4.873   2.515
 3233W        W68493  33.883   4.636   3.693
 3234W        W68494  33.534  32.116  11.956
 3235W        W68495  34.082  44.950  13.573
 3236W        W68496  40.747  13.794  14.531
 3237W        W68497  10.555  16.592  11.042
 3238W        W68498  29.437   6.183   2.848
 3239W        W68499  11.087  16.799  13.320
 3240W        W68500   5.337  19.270  13.506
 3241W        W68501  30.117  13.275  11.388
 3242W        W68502  35.138  25.860  14.681
 3243W        W68503  17.241  39.621   2.256
 3244W        W68504  23.496  44.320  14.046
 3245W        W68505  36.518  27.610   3.997
 3246W        W68506   4.925  16.919  13.965
 3247W        W68507  38.882  22.548  10.163
 3248W        W68508  39.268   6.900   0.883
 3249W        W68509  28.734  17.153  14.903
 3250W        W68510  32.208  27.916  14.019
 3251W        W68511  40.649   7.261   3.312
 3252W        W68512  31.439  29.420  10.621
 3253W        W68513   5.301   8.647   0.498
 3254W        W68514  44.440  14.218   1.042
 3255W        W68515   6.048   9.333   1.385
 3256W        W68516  32.431   6.470  12.097
 3257W        W68517  11.645  15.864  11.069
 3258W        W68518  10.997   9.240   0.863
 3259W        W68519   2.335  19.931  11.016
 3260W        W68520   2.342  12.287   0.670
 3261W        W68521   2.251  30.163   2.909
 3262W        W68522  28.446   6.693   0.963
 3263W        W68523  31.418  38.576  11.947
 3264W        W68524  24.640  32.652   0.068
 3265W        W68525  44.782  17.289  11.678
 3266W        W68526  35.572  38.883   3.230
 3267W        W68527  21.957  18.258  10.290
 3268W        W68528  29.664  34.099  10.738
 3269W        W68529  19.416  44.940  10.519
 3270W        W68530  15.873   8.223   0.599
 3271W        W68531  23.520  31.938   0.700
 3272W        W68532   4.336  42.875   1.971
 3273W        W68533  12.823  21.942  12.065
 3274W        W68534  13.195  13.303  11.501
 3275W        W68535  32.781   5.134  14.516
 3276W        W68536   8.054   7.794  13.911
 3277W        W68537  29.686  20.447  14.312
 3278W        W68538   7.712   5.607   2.210
 3279W        W68539  21.305   2.885  14.480
 3280W        W68540  40.630   4.025  11.595
 3281W        W68541  43.026  36.591   0.455
 3282W        W68542  16.159  32.794  13.376
 3283W        W68543  18.261   5.175  12.879
 3284W        W68544  30.558  22.028   4.057
 3285W        W68545  17.462  12.630   4.530
 3286W        W68546  41.970  27.207   4.276
 3287W        W68547  32.137  31.730  13.529
 3288W        W68548  27.167  43.885   3.362
 3289W        W68549   8.187  11.331   2.450
 3290W        W68550  40.540  43.645   1.679
 3291W        W68551   4.720   3.249  13.562
 3292W        W68552  17.775  42.307   0.792
 3293W        W68553   7.000  35.077  13.535
 3294W        W68554  18.003  18.718   1.516
 3295W        W68555  19.553  27.048  11.166
 3296W        W68556   4.599   9.123  10.748
 3297W        W68557  11.528  40.037   0.394
 3298W        W68558  23.650  32.837  12.016
 3299W        W68559  31.628  14.700   3.383
 3300W        W68560  42.748   4.200   1.345
 3301W        W68561  36.694  22.715   3.790
 3302W        W68562  25.246  33.011  14.468
 3303W        W68563  42.238   3.843  14.314
 3304W        W68564  42.070  25.413   0.806
 3305W        W68565  16.340   0.522  12.475
 3306W        W68566  18.746   6.280   0.861
 3307W        W68567  16.516   0.812   3.147
 3308W        W68568  43.184  23.329   5.092
 3309W        W68569  24.020  29.217   4.153
 3310W        W68570   8.616   7.772   3.276
 3311W        W68571  30.995  42.388  11.611
 3312W        W68572  38.966  15.537   2.796
 3313W        W68573  30.960  42.401   3.697
 3314W        W68574   6.622  43.757   4.656
 3315W        W68575   1.455  30.720   0.631
 3316W        W68576  34.749  18.256  10.297
 3317W        W68577  14.710  32.560   1.601
 3318W        W68578  35.234  31.267   2.772
 3319W        W68579   0.334  23.368  10.985
 3320W        W68580   5.283  44.260   1.898
 3321W        W68581  29.266   4.389   2.210
 3322W        W68582  26.733  35.645   2.239
 3323W        W68583  21.744   1.681   3.351
 3324W        W68584  35.130  28.622  10.672
 3325W        W68585  37.404  22.489   4.558
 3326W        W68586  34.252  19.281   1.509
 3327W        W68587  19.390  30.810   2.674
 3328W        W68588  43.527  37.065  12.020
 3329W        W68589  30.627   1.741  10.397
 3330W        W68590  26.005  13.406   4.713
 3331W        W68591  30.525  22.996   0.844
 3332W        W68592  25.484   8.118   3.550
 3333W        W68593  34.315  36.590   3.380
 3334W        W68594  15.621  42.959  10.612
 3335W        W68595  13.875  22.147   1.142
 3336W        W68596  27.047  42.030   1.718
 3337W        W68597  18.963  25.585  13.752
 3338W        W68598  43.383  38.165  12.928
 3339W        W68599  27.157  22.211  13.731
 3340W        W68600  15.740  36.431   0.500
 3341W        W68601  14.271  21.680   3.268
 3342W        W68602  22.504  32.605   3.620
 3343W        W68603   1.975  41.915   1.253
 3344W        W68604  24.448  25.140   1.309
 3345W        W68605  12.069  20.563   1.712
 3346W        W68606  29.410  39.310  13.832
 3347W        W68607  25.518   5.479  13.893
 3348W        W68608  26.073  44.907   2.802
 3349W        W68609  42.807  42.358  11.125
 3350W        W68610   3.302  32.170  14.318
 3351W        W68611  19.162  19.393   1.396
 3352W        W68612  35.677  39.804   2.205
 3353W        W68613  23.235   9.157  14.532
 3354W        W68614  32.073  17.598   0.090
 3355W        W68615   5.274   2.777  11.494
 3356W        W68616  37.175   8.719   2.360
 3357W        W68617  31.514  18.714   4.198
 3358W        W68618   7.839   5.749   0.688
 3359W        W68619  26.155  36.001  10.455
 3360W        W68620  15.196  37.391  11.624
 3361W        W68621  16.404  22.230  13.469
 3362W        W68622  28.275  19.762   3.779
 3363W        W68623   4.422  11.087   0.932
 3364W        W68624  27.942  38.176   3.676
 3365W        W68625   7.875  34.187   1.045
 3366W        W68626  25.687   1.702   1.841
 3367W        W68627  20.789  25.207   0.724
 3368W        W68628  23.118  40.920  12.777
 3369W        W68629  21.287  39.123   4.699
 3370W        W68630  23.491  38.351   2.378
 3371W        W68631  21.023   5.419  10.040
 3372W        W68632   6.809  29.986   2.270
 3373W        W68633  30.460  44.065  12.487
 3374W        W68634   6.669   4.786   4.611
 3375W        W68635  35.912  10.903   3.314
 3376W        W68636  10.124  22.985  10.572
 3377W        W68637  34.132   1.491  12.433
 3378W        W68638  38.568   0.033  12.453
 3379W        W68639  10.412  32.913  13.401
 3380W        W68640  20.574  25.890   1.234
 3381W        W68641  14.085  21.733  10.114
 3382W        W68642  32.941  29.642  10.760
 3383W        W68643  30.623   3.029   0.753
 3384W        W68644  12.358   4.220  11.572
 3385W        W68645  33.404   2.041   1.187
 3386W        W68646  42.763  14.402   3.132
 3387W        W68647   9.813  37.332   4.903
 3388W        W68648  33.942  43.524  11.742
 3389W        W68649  34.447  15.378   3.389
 3390W        W68650   1.520  19.163   1.399
 3391W        W68651   4.983   1.197  10.524
 3392W        W68652   7.704  28.004  12.083
 3393W        W68653   6.083  42.951   2.270
 3394W        W68654  15.169  17.180   1.477
 3395W        W68655  33.491   0.426  13.577
 3396W        W68656  41.084  31.420  13.309
 3397W        W68657  39.952  15.284  14.133
 3398W        W68658   7.954   9.707  12.341
 3399W        W68659  23.929  33.166  10.332
 3400W        W68660  42.396   4.615  10.526
 3401W        W68661  23.583  18.000  12.634
 3402W        W68662  37.002  19.051   2.293
 3403W        W68663  38.515  37.304  14.403
 3404W        W68664  17.131  14.836   4.145
 3405W        W68665  10.292  40.839   2.133
 3406W        W68666  20.628  28.386  12.868
 3407W        W68667  21.986   4.450   3.130
 3408W        W68668  24.508  39.711  10.304
 3409W        W68669  21.772   0.959  14.489
 3410W        W68670  42.365   1.081   4.715
 3411W        W68671   0.214  12.772  13.944
 3412W        W68672   6.975  42.793   0.355
 3413W        W68673   6.803   6.735  11.787
 3414W        W68674   2.263  14.821  12.519
 3415W        W68675  43.004  28.690   3.572
 3416W        W68676  38.051   0.295   0.486
 3417W        W68677  15.011  38.232  11.548
 3418W        W68678  26.630   4.422  13.444
 3419W        W68679  35.226  33.562   4.634
 3420W        W68680   2.750  20.642  12.018
 3421W        W68681  27.953  39.354   2.295
 3422W        W68682   0.381  10.296  13.825
 3423W        W68683  30.301  10.690   4.029
 3424W        W68684  32.415  12.113   2.389
 3425W        W68685  29.991  19.769   2.130
 3426W        W68686   3.268  23.650   0.260
 3427W        W68687  36.277   9.147  10.772
 3428W        W68688  40.360  27.097   3.594
 3429W        W68689  31.596  16.686  13.370
 3430W        W68690  40.859  30.448   4.841
 3431W        W68691   6.661  28.728  12.023
 3432W        W68692  40.757   8.477   0.733
 3433W        W68693  37.413  37.971  13.840
 3434W        W68694  25.333  15.036  10.283
 3435W        W68695  14.991   3.409  11.108
 3436W        W68696   0.968  30.797   1.691
 3437W        W68697  29.506   0.303   1.650
 3438W        W68698  32.336   6.173   1.823
 3439W        W68699   4.396  39.837  13.296
 3440W        W68700  36.125  20.564  11.134
 3441W        W68701  41.411  22.037   1.397
 3442W        W68702   6.000   0.101  12.184
 3443W        W68703  26.053   4.721  12.459
 3444W        W68704  35.142  14.382  14.094
 3445W        W68705   5.904  39.019  11.459
 3446W        W68706  24.435   9.195   2.448
 3447W        W68707  40.613  20.526  14.334
 3448W        W68708  42.276  40.371  12.127
 3449W        W68709  28.584  37.977   1.240
 3450W        W68710   5.843  14.089  12.956
 3451W        W68711  21.251  37.766  14.453
 3452W        W68712  30.057   6.350  13.738
 3453W        W68713  11.950   1.999  12.866
 3454W        W68714  40.584   8.774  12.980
 3455W        W68715  31.187   9.617  11.151
 3456W        W68716  37.801  41.109  14.431
 3457W        W68717   8.745  21.508  13.993
 3458W        W68718  43.523  12.895  13.551
 3459W        W68719  24.552  39.550  13.162
 3460W        W68720  36.796  14.068   4.516
 3461W        W68721  34.843  43.806  10.393
 3462W        W68722  20.971  39.322  14.898
 3463W        W68723  16.213  38.489   1.327
 3464W        W68724   6.405  41.132   3.675
 3465W        W68725   6.002  25.199  11.132
 3466W        W68726  25.104  19.511  11.222
 3467W        W68727  19.811  32.558   1.785
 3468W        W68728  13.806   8.867   1.218
 3469W        W68729  16.539  34.893  13.974
 3470W        W68730  44.363   2.836  11.338
 3471W        W68731  15.641  44.312   3.090
 3472W        W68732  28.604  43.246   3.870
 3473W        W68733  42.449   1.220   2.855
 3474W        W68734  10.386  12.109  12.220
 3475W        W68735  24.466  29.171  13.559
 3476W        W68736  26.134  36.298   3.596
 3477W        W68737   0.847  37.455  11.086
 3478W        W68738  33.619  29.145   0.907
 3479W        W68739  16.598  21.098  13.087
 3480W        W68740  22.172  39.785   1.789
 3481W        W68741   3.156  30.248  10.600
 3482W        W68742  38.666  21.291   4.955
 3483W        W68743  12.327   0.382  13.513
 3484W        W68744  16.770  43.630   4.734
 3485W        W68745  34.306   1.966  12.573
 3486W        W68746  17.839  38.582  11.957
 3487W        W68747  15.642   2.788   1.914
 3488W        W68748   5.010  15.881  12.019
 3489W        W68749  40.998  20.104   1.912
 3490W        W68750  38.206  12.570  12.518
 3491W        W68751  22.613   1.353  14.340
 3492W        W68752  31.956  27.010  13.922
 3493W        W68753  28.144   3.824   1.828
 3494W        W68754  14.328  28.128  10.360
 3495W        W68755  20.926  44.035   4.919
 3496W        W68756  35.395  35.621   4.195
 3497W        W68757  32.896  11.225   3.647
 3498W        W68758  34.119  36.298  12.405
 3499W        W68759  32.620  13.658   4.935
 3500W        W68760  27.933   0.591  12.119
 3501W        W68761  15.149  20.350   0.450
 3502W        W68762  33.351  14.417  11.212
 3503W        W68763  20.790  23.535  10.421
 3504W        W68764  21.834  12.366   3.066
 3505W        W68765  25.122  16.405  13.021
 3506W        W68766  24.279  21.220  12.427
 3507W        W68767  41.996   4.713   1.313
 3508W        W68768  34.014  25.697  13.937
 3509W        W68769  16.361  27.059  14.901
 3510W        W68770   9.168  37.368   3.205
 3511W        W68771  29.534  42.720   3.684
 3512W        W68772  11.143   6.701  13.836
 3513W        W68773  26.515  32.137  12.205
 3514W        W68774  26.137  34.611  11.897
 3515W        W68775  27.950  16.080  14.784
 3516W        W68776  23.672  41.563   4.179
 3517W        W68777  16.574  27.279   1.690
 3518W        W68778   5.808   8.694  14.259
 3519W        W68779  16.568  41.055   1.758
 3520W        W68780  26.401  38.485   0.700
 3521W        W68781  20.496  35.595   2.072
 3522W        W68782   1.387  19.217   0.289
 3523W        W68783   0.015  21.732  10.775
 3524W        W68784   7.153   9.649   3.175
 3525W        W68785  26.421  44.094   3.822
 3526W        W68786  41.941  31.186  11.852
 3527W        W68787  39.072  39.980  13.335
 3528W        W68788  13.990   5.888  11.732
 3529W        W68789   8.691  31.599   0.399
 3530W        W68790  33.946  34.450   4.634
 3531W        W68791  44.506   0.290  12.991
 3532W        W68792  32.150  16.938  11.040
 3533W        W68793  11.464   8.454   0.412
 3534W        W68794  15.726  18.291  14.820
 3535W        W68795  33.355   2.499   4.752
 3536W        W68796  25.046   8.774  12.470
 3537W        W68797  42.858  11.791   0.741
 3538W        W68798   0.699  30.697   0.266
 3539W        W68799   0.762   7.119   0.425
 3540W        W68800  30.429  44.217  14.372
 3541W        W68801  44.758  11.864  12.821
 3542W        W68802   6.682  28.090  14.434
 3543W        W68803  15.034  13.378   2.036
 3544W        W68804  37.339  39.093  10.687
 3545W        W68805  24.516  29.639   0.878
 3546W        W68806  42.344  11.961   3.636
 3547W        W68807  10.197  11.108  13.322
 3548W        W68808  14.257   2.753  11.087
 3549W        W68809  37.353  19.163   4.331
 3550W        W68810  19.992  37.726  12.720
 3551W        W68811  27.200  34.013  14.902
 3552W        W68812  39.840  19.186   1.582
 3553W        W68813  43.321  16.278   3.305
 3554W        W68814  34.572  37.434   2.166
 3555W        W68815  30.103   8.737  13.837
 3556W        W68816   5.248  27.930   3.683
 3557W        W68817  15.116  16.187   3.327
 3558W        W68818  24.022  15.077  12.817
 3559W        W68819  25.091  15.238   0.270
 3560W        W68820   6.156  17.598   1.578
 3561W        W68821  13.234   1.230  13.356
 3562W        W68822   8.012   3.144  12.039
 3563W        W68823   0.504  20.701  12.640
 3564W        W68824  23.202   1.893  11.461
 3565W        W68825  19.603  44.787   4.650
 3566W        W68826  43.505  35.369   2.443
 3567W        W68827  40.878   6.282   2.166
 3568W        W68828  31.167   5.403   1.292
 3569W        W68829  33.414   0.595   2.825
 3570W        W68830  40.373  27.382  12.081
 3571W        W68831   3.635  43.939   1.871
 3572W        W68832   1.412  38.515   0.742
 3573W        W68833  24.007  23.697   3.721
 3574W        W68834  26.994  43.670  11.712
 3575W        W68835  13.255  27.501   4.124
 3576W        W68836  12.661  23.966   1.153
 3577W        W68837  17.972  20.160   4.081
 3578W        W68838  36.183  13.021  13.544
 3579W        W68839  13.164  43.771  10.795
 3580W        W68840  24.975  14.309   1.368
 3581W        W68841  17.315  13.746  10.701
 3582W        W68842   6.246   8.719   0.793
 3583W        W68843  28.468  39.318   1.874
 3584W        W68844  39.811   7.348   0.281
 3585W        W68845   8.959  36.895  11.261
 3586W        W68846  14.458  43.704   2.579
 3587W        W68847  12.749  28.919   3.581
 3588W        W68848  17.759  15.260  12.072
 3589W        W68849  24.194  30.209   0.787
 3590W        W68850   0.416  19.068   0.796
 3591W        W68851  15.486  29.623  13.738
 3592W        W68852  43.616  19.305   4.580
 3593W        W68853  40.277  15.828  12.123
 3594W        W68854   6.082  18.068   1.933
 3595W        W68855  12.251  11.216   1.994
 3596W        W68856  19.698  32.459   3.089
 3597W        W68857  36.080   1.392   1.263
 3598W        W68858  39.977  18.310  10.648
 3599W        W68859  33.494  11.865  12.130
 3600W        W68860  31.664  13.676  12.393
 3601W        W68861  44.991  14.689   2.728
 3602W        W68862  43.403  18.052   3.625
 3603W        W68863  20.712  30.403  12.494
 3604W        W68864  36.473  22.267   3.986
 3605W        W68865  12.871   9.163  11.772
 3606W        W68866  40.342  28.820  10.162
 3607W        W68867  40.344  21.743  13.835
 3608W        W68868  31.545  40.680   1.780
 3609W        W68869  23.555   3.569  14.253
 3610W        W68870   1.948  15.234   4.270
 3611W        W68871  40.126  36.505  10.827
 3612W        W68872  14.245  25.832  11.527
 3613W        W68873  40.488  27.897   4.675
 3614W        W68874   4.650   6.862  12.475
 3615W        W68875  28.605  24.134   0.983
 3616W        W68876  26.839  11.646   4.083
 3617W        W68877   3.971  44.574  10.908
 3618W        W68878   1.227  33.567  13.848
 3619W        W68879  44.335  16.597   4.154
 3620W        W68880  14.321  11.861  11.496
 3621W        W68881  35.066  21.979   0.325
 3622W        W68882  31.699   2.571   3.834
 3623W        W68883  10.283  37.558   4.878
 3624W        W68884  23.751   3.237  12.951
 3625W        W68885  26.978  42.320  12.316
 3626W        W68886  26.136  16.136   0.876
 3627W        W68887  10.102  17.724   3.731
 3628W        W68888   7.702  19.669  13.731
 3629W        W68889  21.015   7.348   1.334
 3630W        W68890  26.556   0.827  14.917
 3631W        W68891  30.221  29.058   0.849
 3632W        W68892  39.037  30.444  12.096
 3633W        W68893  19.038   7.789  14.664
 3634W        W68894  38.388  13.399  14.026
 3635W        W68895  26.950   4.414   1.739
 3636W        W68896   7.508  22.559   5.004
 3637W        W68897  42.771  40.728   1.028
 3638W        W68898   5.024  37.956   2.433
 3639W        W68899   5.195   5.394   4.598
 3640W        W68900  25.687  27.022   4.153
 3641W        W68901  25.563  20.543  12.653
 3642W        W68902  23.466  16.661  11.384
 3643W        W68903  24.039  37.895   4.940
 3644W        W68904  12.102   2.373   3.734
 3645W        W68905  10.260   1.928  14.234
 3646W        W68906  22.182  11.663  10.755
 3647W        W68907   9.784  38.139  11.894
 3648W        W68908   7.143  16.611   1.339
 3649W        W68909  23.999  22.571  11.566
 3650W        W68910  12.652  37.437   4.241
 3651W        W68911   0.369   5.134  14.689
 3652W        W68912  37.115  36.989  12.253
 3653W        W68913  10.944  11.302  11.554
 3654W        W68914  31.591  17.393   2.182
 3655W        W68915  11.658  14.262   3.613
 3656W        W68916  17.662  18.788  11.576
 3657W        W68917  37.380  10.621   0.362
 3658W        W68918  13.637  16.771  12.049
 3659W        W68919  33.361  18.264  11.676
 3660W        W68920  40.574  16.200  11.909
 3661W        W68921  22.182   3.330  11.240
 3662W        W68922   2.480   7.644   0.685
 3663W        W68923   4.750  17.651  11.417
 3664W        W68924  17.289  41.166   1.300
 3665W        W68925  42.415  32.508   1.679
 3666W        W68926  37.967  12.782  13.727
 3667W        W68927  13.298   3.188  14.763
 3668W        W68928   5.203  29.103  12.027
 3669W        W68929  21.512  40.069   4.390
 3670W        W68930  23.551  36.361   0.406
 3671W        W68931  31.442  23.504  13.467
 3672W        W68932  43.533  19.629  13.505
 3673W        W68933   0.687  10.032  11.617
 3674W        W68934  32.558  18.628   3.925
 3675W        W68935  36.136  36.087   0.352
 3676W        W68936  18.245  17.410  13.391
 3677W        W68937  41.335  21.702  13.088
 3678W        W68938  16.778  28.588  10.625
 3679W        W68939  10.222  43.583  13.424
 3680W        W68940  43.056  35.555  10.711
 3681W        W68941  27.327   6.513  13.264
 3682W        W68942  42.475  37.402   0.600
 3683W        W68943  31.146  24.971   1.718
 3684W        W68944  26.754  10.731  10.443
 3685W        W68945   4.129   9.720   3.586
 3686W        W68946  35.762  10.201   0.747
 3687W        W68947  27.933   3.726   4.652
 3688W        W68948  21.249  43.294  14.481
 3689W        W68949  28.384  21.716   4.212
 3690W        W68950  39.505  17.101  13.504
 3691W        W68951   1.409  35.879   0.759
 3692W        W68952   8.251  29.540   2.800
 3693W        W68953  37.951  31.483  10.975
 3694W        W68954  36.152  36.545   2.097
 3695W        W68955  25.815  20.599   4.491
 3696W        W68956  41.521  30.066   0.408
 3697W        W68957  16.740  29.157   1.900
 3698W        W68958  44.849  41.872  11.265
 3699W        W68959   8.169  38.776  11.530
 3700W        W68960  31.573  33.238   5.329
 3701W        W68961   6.513   9.275   4.582
 3702W        W68962   7.269  11.847   3.704
 3703W        W68963  27.479   1.894   4.230
 3704W        W68964  32.367  12.334   0.355
 3705W        W68965  14.660  24.281  12.016
 3706W        W68966  15.318  19.492  14.123
 3707W        W68967   2.353   8.992  13.547
 3708W        W68968   5.385  31.018  13.517
 3709W        W68969   5.410  39.761  12.500
 3710W        W68970  23.714  20.129  14.960
 3711W        W68971  24.054   7.691  11.655
 3712W        W68972  18.732  26.051  10.629
 3713W        W68973  34.919  23.737   3.678
 3714W        W68974   5.252  26.047   4.354
 3715W        W68975  33.907  19.993   0.650
 3716W        W68976  11.056  37.210  10.755
 3717W        W68977  21.322  10.113   2.900
 3718W        W68978  17.258   5.877   1.463
 3719W        W68979   2.931  15.141   4.414
 3720W        W68980  43.911  25.054  10.793
 3721W        W68981  13.315  21.483  12.201
 3722W        W68982   1.660  28.414   3.737
 3723W        W68983  24.450  13.021   2.918
 3724W        W68984   5.487  41.329  11.689
 3725W        W68985  25.443  10.654   2.684
 3726W        W68986   9.381   9.402   3.839
 3727W        W68987  17.341  35.586   3.283
 3728W        W68988  32.944  15.706   3.256
 3729W        W68989   4.206  18.180   1.950
 3730W        W68990  27.079  11.090   2.163
 3731W        W68991   3.443  35.561   1.814
 3732W        W68992  34.789  44.285   2.754
 3733W        W68993  29.638  23.377  13.966
 3734W        W68994  24.528   8.344   0.050
 3735W        W68995  32.682  32.126   3.284
 3736W        W68996  30.640   3.302  10.576
 3737W        W68997   4.067   3.390   1.823
 3738W        W68998  22.506  17.258   4.274
 3739W        W68999  42.984  22.076  14.439
 3740W        W69000  18.858  24.491   2.020
 3741W        W69001  44.657  35.679  12.026
 3742W        W69002  41.079  41.740   1.241
 3743W        W69003  20.806  27.630  14.337
 3744W        W69004  34.568  33.489  11.407
 3745W        W69005  26.278  24.542   2.214
 3746W        W69006  44.459  13.709  11.673
 3747W        W69007   8.711   0.404   4.191
 3748W        W69008   3.498  20.445  11.486
 3749W        W69009   4.263   5.615   4.608
 3750W        W69010  24.462  43.016  11.533
 3751W        W69011  39.829   0.192  11.579
 3752W        W69012   2.317   0.759   2.191
 3753W        W69013  29.963  23.130   4.585
 3754W        W69014  41.213   6.352  10.519
 3755W        W69015  15.176  22.630  13.581
 3756W        W69016  16.537  15.113   3.668
 3757W        W69017  29.724  21.016   3.108
 3758W        W69018  38.903  28.169   4.046
 3759W        W69019   4.121  36.821  10.601
 3760W        W69020  33.074  42.992   0.970
 3761W        W69021  35.327  30.499  11.907
 3762W        W69022  31.418  31.522   4.281
 3763W        W69023   2.423  42.715  13.911
 3764W        W69024  18.520   6.886  11.147
 3765W        W69025  31.555   1.541  13.393
 3766W        W69026  20.743  25.172   2.712
 3767W        W69027   9.535  20.439  13.346
 3768W        W69028  36.860  12.810  12.028
 3769W        W69029   6.158   9.184  13.539
 3770W        W69030   0.650  31.089  12.642
 3771W        W69031  31.567   4.554   3.259
 3772W        W69032  23.535  43.256  11.195
 3773W        W69033  39.017  28.579  13.924
 3774W        W69034   9.868  17.791   0.324
 3775W        W69035  27.924  28.931  12.065
 3776W        W69036   1.754  22.817  11.207
 3777W        W69037  20.521   2.916  10.269
 3778W        W69038   2.272  44.316  14.270
 3779W        W69039   9.913  40.835   4.846
 3780W        W69040  34.801  12.212  12.058
 3781W        W69041  26.486  14.627  11.763
 3782W        W69042  32.995  22.960   0.977
 3783W        W69043  38.925  27.149  11.667
 3784W        W69044  19.134  37.617  12.066
 3785W        W69045  23.025  29.785   3.495
 3786W        W69046  13.337   8.456   0.353
 3787W        W69047  17.672  21.107  14.981
 3788W        W69048  38.032  30.303   1.839
 3789W        W69049  22.993   2.237   0.813
 3790W        W69050  10.310  30.670  11.883
 3791W        W69051   7.999  34.419  14.367
 3792W        W69052  12.671  39.555  14.759
 3793W        W69053  28.667  29.884   4.498
 3794W        W69054  43.564  40.552  11.121
 3795W        W69055  19.513  38.958  13.870
 3796W        W69056  44.131  21.241   3.754
 3797W        W69057  44.928  39.039  11.515
 3798W        W69058   1.979  21.947   4.143
 3799W        W69059  11.986  31.652  12.517
 3800W        W69060   9.757  21.089   1.088
 3801W        W69061  14.515   6.114   0.202
 3802W        W69062  26.072  33.209   2.761
 3803W        W69063   6.979  21.369  14.343
 3804W        W69064   5.950  23.335   5.114
 3805W        W69065  25.406  17.357  12.304
 3806W        W69066  18.111  21.745   2.829
 3807W        W69067  43.318  27.725  10.400
 3808W        W69068   8.771  13.783  13.822
 3809W        W69069   4.629  21.781  12.409
 3810W        W69070  33.968  28.044  14.077
 3811W        W69071  43.716  42.081  14.405
 3812W        W69072  27.569  41.569  13.834
 3813W        W69073  32.308   5.757   3.269
 3814W        W69074  13.196  15.902   3.043
 3815W        W69075   9.128  41.935  11.687
 3816W        W69076  27.382  31.946   1.704
 3817W        W69077   6.552  16.143  13.577
 3818W        W69078  23.464  20.479   1.259
 3819W        W69079   1.926   5.333  11.621
 3820W        W69080  26.758  29.861  14.959
 3821W        W69081  28.841  33.931   1.535
 3822W        W69082  21.008  11.093   2.806
 3823W        W69083  13.454  42.320  11.900
 3824W        W69084  10.165  30.842   4.619
 3825W        W69085  43.945   5.958   3.742
 3826W        W69086  32.490   0.027  11.443
 3827W        W69087  19.127  21.877   4.013
 3828W        W69088  39.850  24.115   4.318
 3829W        W69089  29.098   1.982  12.868
 3830W        W69090  12.292  30.686   1.201
 3831W        W69091  15.702  12.861  10.748
 3832W        W69092   3.732  40.835  10.711
 3833W        W69093  26.734  10.138  13.561
 3834W        W69094  10.845  27.529  13.039
 3835W        W69095  16.385  44.537   3.603
 3836W        W69096  41.204   5.977   1.382
 3837W        W69097   7.799  19.524   5.352
 3838W        W69098   4.115  20.031  14.281
 3839W        W69099  35.066  21.958  10.800
 3840W        W69100   6.020  10.267   4.877
 3841W        W69101  25.453   5.953   1.698
 3842W        W69102  42.901   3.800   1.684
 3843W        W69103  40.444   1.218  11.377
 3844W        W69104  34.364  13.848  13.912
 3845W        W69105  18.106   7.378  10.657
 3846W        W69106   1.873  43.715  12.628
 3847W        W69107  27.266   1.767  12.482
 3848W        W69108  30.953  43.417  10.511
 3849W        W69109  10.367  15.810   0.832
 3850W        W69110  23.002  38.131   3.617
 3851W        W69111  42.376  21.240  11.649
 3852W        W69112  31.240  10.917   4.421
 3853W        W69113  35.125  39.890   4.156
 3854W        W69114  12.403   2.909  12.474
 3855W        W69115  20.716  23.301  12.494
 3856W        W69116   6.981   9.919  12.553
 3857W        W69117  24.203   8.943   2.048
 3858W        W69118  24.177   3.817  14.526
 3859W        W69119  22.551  16.318   1.666
 3860W        W69120  11.132  28.403  14.411
 3861W        W69121  38.130  17.264   4.195
 3862W        W69122   4.205  28.656  11.605
 3863W        W69123  11.591  21.158   0.508
 3864W        W69124  23.921  17.702   1.830
 3865W        W69125   7.697  20.015   0.435
 3866W        W69126   2.657  22.972  12.883
 3867W        W69127  38.919   0.488   2.999
 3868W        W69128  15.713  30.141   2.075
 3869W        W69129  24.475  12.311   4.706
 3870W        W69130  14.669  28.483   2.252
 3871W        W69131  41.949  40.833   2.608
 3872W        W69132  17.774  17.183  11.521
 3873W        W69133  39.049  37.991   3.656
 3874W        W69134  16.324   0.984  14.954
 3875W        W69135  15.591  19.392   3.691
 3876W        W69136   5.759  21.624   1.233
 3877W        W69137   2.775   3.324  14.854
 3878W        W69138  35.885  34.549   2.771
 3879W        W69139  40.472   5.397  12.719
 3880W        W69140  12.915   8.772  12.119
 3881W        W69141  14.774  10.428  13.822
 3882W        W69142  37.151  13.544   1.766
 3883W        W69143  28.479  12.691  12.046
 3884W        W69144   1.070  44.947   1.326
 3885W        W69145   9.688  15.666  11.733
 3886W        W69146  32.986  43.164  12.669
 3887W        W69147   8.600   1.443   3.611
 3888W        W69148  25.716  21.978  14.534
 3889W        W69149  13.841   1.317  10.687
 3890W        W69150  20.410  36.770   3.298
 3891W        W69151  26.320  26.107   0.697
 3892W        W69152  10.313  15.827  11.590
 3893W        W69153   2.551  35.155  13.300
 3894W        W69154  44.936  26.705  10.673
 3895W        W69155  42.865  19.807   0.695
 3896W        W69156  32.721  29.181   0.805
 3897W        W69157  12.443   2.634  12.907
 3898W        W69158  21.234  10.543  13.080
 3899W        W69159   3.260  38.785   4.754
 3900W        W69160  34.655   2.987  11.482
 3901W        W69161  19.694  18.655   4.991
 3902W        W69162  39.936  19.199  11.117
 3903W        W69163  19.002  19.732   1.788
 3904W        W69164   2.405   4.673   1.338
 3905W        W69165  39.852  25.744   3.133
 3906W        W69166   9.974  27.009   1.192
 3907W        W69167   0.477   8.156   3.825
 3908W        W69168  37.324  14.430   9.987
 3909W        W69169  15.141  31.266  11.179
 3910W        W69170   4.753   1.450  12.896
 3911W        W69171   2.316   1.472  11.658
 3912W        W69172  17.373  11.267  14.871
 3913W        W69173  33.029  31.150  14.973
 3914W        W69174   8.633  12.528  13.534
 3915W        W69175  11.449  36.478  13.998
 3916W        W69176  14.509  11.162   2.774
 3917W        W69177  25.558  28.533  10.713
 3918W        W69178  38.758   5.294   0.435
 3919W        W69179  25.190  41.736  12.471
 3920W        W69180  40.545  24.652   4.132
 3921W        W69181  39.305  11.460  10.997
 3922W        W69182   5.508  42.800  10.528
 3923W        W69183   7.841  25.063   0.196
 3924W        W69184  23.208  14.579   2.934
 3925W        W69185  33.480   3.813   0.845
 3926W        W69186  11.221  22.544  13.510
 3927W        W69187   4.679  30.842   0.322
 3928W        W69188  17.592  25.767  14.423
 3929W        W69189  28.910  41.501   4.554
 3930W        W69190  16.032  42.281  12.100
 3931W        W69191  28.405  33.831   1.307
 3932W        W69192  29.327   9.629   2.727
 3933W        W69193  29.318  37.135   4.302
 3934W        W69194  27.254   2.773  12.460
 3935W        W69195  25.411  37.716   4.526
 3936W        W69196  34.651  38.907   1.265
 3937W        W69197  24.175  24.189   3.629
 3938W        W69198  24.193  34.474  13.827
 3939W        W69199  18.057  22.422  14.909
 3940W        W69200  23.406  20.642  13.545
 3941W        W69201   1.923  19.846   0.869
 3942W        W69202  28.878  44.220  13.710
 3943W        W69203  29.888   1.824  14.666
 3944W        W69204  13.132  37.609   0.343
 3945W        W69205   1.641  42.136  10.813
 3946W        W69206  28.918  22.979   4.441
 3947W        W69207  32.486  18.997   2.993
 3948W        W69208  14.042  25.481  13.222
 3949W        W69209  36.849  32.890  11.543
 3950W        W69210  25.438  41.455   4.544
 3951W        W69211   6.483  34.471   5.104
 3952W        W69212  12.554  31.308  14.793
 3953W        W69213   5.799  13.694  14.838
 3954W        W69214  35.363  36.114  12.583
 3955W        W69215  31.823  31.096   3.307
 3956W        W69216   5.358   3.957  10.719
 3957W        W69217  43.688  35.056   2.822
 3958W        W69218  22.056  19.928   3.772
 3959W        W69219   4.705  20.974   1.017
 3960W        W69220  43.215  32.037   3.653
 3961W        W69221  12.162  11.925  11.858
 3962W        W69222  22.181  37.541   4.163
 3963W        W69223   3.367   9.061  12.979
 3964W        W69224   2.551  14.637   9.832
 3965W        W69225   5.603  28.689  10.692
 3966W        W69226  35.506  16.661   4.555
 3967W        W69227  42.954  36.952   3.823
 3968W        W69228  38.313  31.083   3.707
 3969W        W69229   2.916   6.729   2.904
 3970W        W69230  44.284  10.865  10.460
 3971W        W69231  40.399   6.092   3.045
 3972W        W69232  17.615  12.769   2.733
 3973W        W69233  15.988  36.826   4.269
 3974W        W69234  36.879  25.599   0.209
 3975W        W69235  34.554   0.837   0.720
 3976W        W69236  20.873  22.807  12.511
 3977W        W69237   1.631   6.288   1.722
 3978W        W69238   9.152   3.748  13.423
 3979W        W69239  18.543  40.061   3.220
 3980W        W69240  12.267   8.939   4.081
 3981W        W69241  15.529  20.560  11.484
 3982W        W69242  27.392  18.577  13.481
 3983W        W69243   1.529  11.202  13.274
 3984W        W69244   1.916  28.943   4.601
 3985W        W69245  28.066  26.647  10.025
 3986W        W69246  18.263  26.714  10.623
 3987W        W69247  38.040  10.783   1.918
 3988W        W69248   0.927   5.609  10.041
 3989W        W69249  37.224  19.710   0.379
 3990W        W69250   6.419   3.700  12.509
 3991W        W69251  26.495  27.901   0.244
 3992W        W69252  39.322   3.542  14.349
 3993W        W69253   9.318  38.274   4.664
 3994W        W69254   9.278  31.926   1.220
 3995W        W69255  41.782  13.647   3.443
 3996W        W69256  12.161  25.925  14.339
 3997W        W69257  41.028  26.943   2.389
 3998W        W69258  15.808  24.943  13.369
 3999W        W69259  37.537  19.151   2.381
 4000W        W69260  19.398  25.638  14.658
 4001W        W69261  15.054   5.158  13.646
 4002W        W69262   5.779  27.447   3.118
 4003W        W69263  35.432  33.391  12.914
 4004W        W69264  37.594  26.705  11.407
 4005W        W69265   1.652  24.124   2.152
 4006W        W69266   0.472  18.555  12.993
 4007W        W69267   1.365  29.562  13.553
 4008W        W69268  17.809  22.689   2.297
 4009W        W69269   4.801  15.214   4.287
 4010W        W69270  15.286   5.823   2.225
 4011W        W69271  27.149  34.920  14.839
 4012W        W69272  25.674  23.721  13.378
 4013W        W69273  21.790  43.315  13.428
 4014W        W69274   5.182  37.110   0.687
 4015W        W69275  36.534  25.635  11.642
 4016W        W69276  20.518  37.620  12.656
 4017W        W69277   3.237  35.307   0.010
 4018W        W69278  15.039  25.127  11.080
 4019W        W69279  35.505  44.837  13.315
 4020W        W69280  12.812  26.901  12.462
 4021W        W69281  16.850  28.138   2.829
 4022W        W69282  39.183   8.481  11.898
 4023W        W69283   4.402  12.379  12.078
 4024W        W69284  21.134  32.940   1.778
 4025W        W69285  44.560  43.381   0.263
 4026W        W69286   3.159  17.983   3.354
 4027W        W69287  36.607  13.942  11.098
 4028W        W69288  10.075  38.719   1.735
 4029W        W69289  44.265  27.786   4.124
 4030W        W69290  35.534  29.420  13.317
 4031W        W69291  11.748  22.760  14.686
 4032W        W69292  21.496  27.410   1.312
 4033W        W69293  28.680  37.926  12.391
 4034W        W69294   3.313  44.082  11.151
 4035W        W69295  38.347  21.029   4.112
 4036W        W69296  37.012   5.391   3.227
 4037W        W69297  20.671  14.433   4.504
 4038W        W69298  12.517  36.901   2.221
 4039W        W69299   5.640  36.597  13.020
 4040W        W69300  27.021  39.880  14.779
 4041W        W69301  21.462  16.194   3.677
 4042W        W69302   6.643  11.687   5.156
 4043W        W69303  32.640  26.906   1.385
 4044W        W69304  31.888  21.056  14.720
 4045W        W69305   4.957  15.608  13.855
 4046W        W69306  22.763  32.869  13.956
 4047W        W69307  23.867   1.449  11.541
 4048W        W69308  29.601  22.610   2.415
 4049W        W69309   0.295  27.500  11.336
 4050W        W69310  43.440   9.196   3.127
 4051W        W69311  33.627  18.509   1.115
 4052W        W69312   2.374  21.597   1.135
 4053W        W69313  41.505  36.890  10.659
 4054W        W69314  34.522  14.376   3.247
 4055W        W69315   8.155  11.474  10.318
 4056W        W69316   1.939  30.872  13.461
 4057W        W69317  33.552   3.283  10.630
 4058W        W69318  32.545  14.026   5.329
 4059W        W69319  35.038  10.706  11.534
 4060W        W69320  28.416  31.924   4.568
 4061W        W69321  29.571   7.719  14.416
 4062W        W69322  15.883  13.063  12.974
 4063W        W69323  41.018   0.872  10.269
 4064W        W69324  32.431   6.356   2.376
 4065W        W69325  22.688  13.603   4.092
 4066W        W69326   9.884   0.172   2.667
 4067W        W69327  19.024  44.869  14.985
 4068W        W69328  24.817  31.047  11.127
 4069W        W69329  33.398  34.788  12.345
 4070W        W69330   0.887  29.941  10.465
 4071W        W69331  40.767  20.460  12.367
 4072W        W69332  36.649  27.687  14.092
 4073W        W69333  13.040  10.576   2.433
 4074W        W69334   8.654  24.519   1.316
 4075W        W69335  35.866  23.734  11.412
 4076W        W69336  38.084  21.828  11.796
 4077W        W69337   1.777  28.989   3.263
 4078W        W69338  27.061  42.592  13.902
 4079W        W69339  15.857   7.366   3.631
 4080W        W69340  30.706  43.812  14.535
 4081W        W69341  21.975   0.443  12.659
 4082W        W69342  21.708   0.853  11.544
 4083W        W69343  44.048  15.787   2.924
 4084W        W69344   5.398  24.176   3.240
 4085W        W69345  37.923   1.857   1.341
 4086W        W69346  19.115  25.280  12.372
 4087W        W69347  42.475  38.972  14.025
 4088W        W69348  19.574  31.372  11.737
 4089W        W69349  43.463  23.268   1.247
 4090W        W69350  11.140  18.062   2.403
 4091W        W69351   0.213  43.820  11.184
 4092W        W69352  20.740   0.563   0.940
 4093W        W69353  26.803  23.987  12.904
 4094W        W69354  25.255   6.000  13.494
 4095W        W69355  44.694  16.232   5.087
 4096W        W69356   4.438  44.381   0.499
 4097W        W69357  17.073   2.924   1.928
 4098W        W69358   3.063  32.642  13.532
 4099W        W69359  18.131  42.952  14.918
 4100W        W69360  31.200  13.131  12.898
 4101W        W69361  16.709  14.262  11.965
 4102W        W69362  44.090   4.865   2.189
 4103W        W69363  41.593  12.271   0.726
 4104W        W69364  26.258  24.884   3.435
 4105W        W69365  19.272  15.205   2.451
 4106W        W69366   9.159  21.454   2.172
 4107W        W69367  26.045   8.865   3.225
 4108W        W69368  15.706  15.901  12.509
 4109W        W69369  42.748  33.909   0.621
 4110W        W69370   6.691  23.729   3.250
 4111W        W69371   4.198  40.303  13.336
 4112W        W69372   7.877  31.552  14.896
 4113W        W69373  11.879   4.457  13.154
 4114W        W69374  13.150  13.145   4.146
 4115W        W69375  38.123  16.172   2.394
 4116W        W69376   7.259   7.913  14.887
 4117W        W69377  16.176  31.581   2.646
 4118W        W69378  33.948  42.843   3.971
 4119W        W69379  44.205   7.176  14.997
 4120W        W69380  23.177   9.835   2.213
 4121W        W69381  32.303  29.111  14.466
 4122W        W69382  41.252  15.658  14.517
 4123W        W69383  28.175  20.624  11.968
 4124W        W69384  42.833  14.306  11.135
 4125W        W69385   4.231   0.938  11.510
 4126W        W69386  33.387  25.109   2.418
 4127W        W69387  29.564  23.752  13.575
 4128W        W69388  25.510   3.384  12.589
 4129W        W69389  34.338  25.476  14.364
 4130W        W69390   8.760  44.275   3.212
 4131W        W69391  27.285  27.709  10.482
 4132W        W69392  35.265  39.800   0.370
 4133W        W69393  17.826  43.253   1.998
 4134W        W69394   3.155  24.376  12.013
 4135W        W69395  43.787  17.296   0.881
 4136W        W69396   1.321  36.854   1.151
 4137W        W69397   8.773  34.709   2.799
 4138W        W69398  27.548  43.834  10.988
 4139W        W69399  35.485  32.922   3.156
 4140W        W69400  23.551   9.907   1.334
 4141W        W69401   6.085  36.981  10.605
 4142W        W69402  26.997  19.224  13.570
 4143W        W69403  33.582   6.786  10.804
 4144W        W69404  41.895  28.358  11.916
 4145W        W69405  14.132  16.145   3.885
 4146W        W69406  32.063  29.163  12.884
 4147W        W69407  10.584  34.063  10.742
 4148W        W69408  33.478  37.888  11.730
 4149W        W69409  10.263  18.290   2.395
 4150W        W69410  28.980   8.140   2.758
 4151W        W69411  43.861   1.053   3.724
 4152W        W69412  14.652  32.282   4.180
 4153W        W69413  35.170  21.473   3.664
 4154W        W69414  40.517  43.107   4.161
 4155W        W69415  34.319  32.559  12.052
 4156W        W69416   4.469  40.880   2.865
 4157W        W69417  17.580   5.221   0.950
 4158W        W69418  38.076  24.264   0.435
 4159W        W69419  18.238   7.818   4.662
 4160W        W69420  38.566  29.612  13.920
 4161W        W69421  27.901  28.081   4.049
 4162W        W69422  40.481   6.919  12.893
 4163W        W69423  13.389  28.530   3.757
 4164W        W69424   7.196  20.279   3.646
 4165W        W69425  12.894   6.341  10.445
 4166W        W69426  34.537  17.270  14.914
 4167W        W69427  27.580   3.858  11.364
 4168W        W69428  11.472   0.311   3.417
 4169W        W69429  12.094  19.092  12.894
 4170W        W69430  41.697  42.711   3.601
 4171W        W69431  26.174   0.652   2.398
 4172W        W69432  30.138  27.161  14.642
 4173W        W69433   8.853   2.851  12.558
 4174W        W69434  37.261  22.955  11.654
 4175W        W69435   1.235  17.872  12.889
 4176W        W69436   1.183  10.064  13.585
 4177W        W69437   4.915   8.983  12.549
 4178W        W69438  20.834  16.582   3.369
 4179W        W69439  38.793   4.310   1.824
 4180W        W69440  34.430  31.011  12.932
 4181W        W69441  44.775  15.140   2.582
 4182W        W69442  33.619   5.952   4.629
 4183W        W69443   6.895   5.741   1.201
 4184W        W69444  28.804  29.442   3.669
 4185W        W69445  44.603   7.471   3.575
 4186W        W69446  32.450  11.475  14.819
 4187W        W69447  44.563  28.723   4.336
 4188W        W69448  31.161  37.974   3.614
 4189W        W69449  37.511  15.140   4.434
 4190W        W69450  16.545  34.087   0.323
 4191W        W69451   1.404  32.568   3.167
 4192W        W69452  34.312   0.998   1.676
 4193W        W69453  28.360  28.097   2.294
 4194W        W69454  32.303  44.354   2.946
 4195W        W69455  31.030   5.455  13.075
 4196W        W69456  39.501   3.698  14.814
 4197W        W69457  24.775  41.015  12.075
 4198W        W69458   4.523  28.634  13.521
 4199W        W69459   9.924  15.711  12.604
 4200W        W69460  42.665  39.481   3.870
 4201W        W69461   4.203  39.479  12.469
 4202W        W69462  31.555  12.783  14.358
 4203W        W69463   2.064  40.838   0.619
 4204W        W69464  35.375  12.147  11.392
 4205W        W69465   7.771  30.109  10.974
 4206W        W69466  34.870   0.090  11.202
 4207W        W69467  25.613  44.122  11.663
 4208W        W69468  34.538  42.781   3.693
 4209W        W69469  30.517   9.642   1.303
 4210W        W69470   5.095  11.702  14.371
 4211W        W69471   5.202   3.749   2.731
 4212W        W69472   5.294  36.405  12.080
 4213W        W69473   6.130  36.499   3.191
 4214W        W69474  19.836  39.343  13.514
 4215W        W69475  29.529   4.871  12.427
 4216W        W69476  27.292   1.648  13.355
 4217W        W69477  34.754  21.243   3.344
 4218W        W69478   8.375  11.694  14.403
 4219W        W69479  41.728  22.575   2.229
 4220W        W69480  41.505   9.627   1.267
 4221W        W69481  30.663  17.697   1.883
 4222W        W69482  32.560  29.283  14.913
 4223W        W69483  36.671  36.144  10.754
 4224W        W69484  43.917   4.721  13.309
 4225W        W69485   6.463  33.673  11.168
 4226W        W69486  24.460   2.201  12.476
 4227W        W69487  23.257  17.167  14.439
 4228W        W69488   4.575   6.331   1.477
 4229W        W69489  26.608   2.858   4.189
 4230W        W69490  20.006  32.478  11.103
 4231W        W69491  24.833   2.210  10.731
 4232W        W69492  23.711   7.884   0.482
 4233W        W69493  35.654  34.102   2.810
 4234W        W69494  30.524  34.816  13.474
 4235W        W69495  21.611   0.447   2.788
 4236W        W69496  27.654  17.528  10.270
 4237W        W69497  31.954  18.002  11.071
 4238W        W69498  43.449  23.237   4.103
 4239W        W69499   2.905  18.695   4.289
 4240W        W69500  15.157  20.205   1.341
 4241W        W69501  40.877   0.811  14.501
 4242W        W69502   5.661  31.807  10.935
 4243W        W69503  30.391  12.158   0.845
 4244W        W69504   6.792  32.884   4.395
 4245W        W69505  11.302  39.265  10.399
 4246W        W69506  21.984   6.831   4.275
 4247W        W69507  14.785  37.444   2.357
 4248W        W69508  31.142  28.193   2.783
 4249W        W69509  36.953  19.200  13.490
 4250W        W69510  38.318  27.147   1.744
 4251W        W69511  18.657  17.139  13.461
 4252W        W69512  41.944  16.819  12.477
 4253W        W69513  43.774  16.568   1.313
 4254W        W69514  11.649  25.591   1.715
 4255W        W69515  40.114  26.020  11.143
 4256W        W69516  40.766  11.700  14.019
 4257W        W69517  24.184  36.939   1.625
 4258W        W69518  25.385   1.347  14.056
 4259W        W69519  26.922   3.457  12.904
 4260W        W69520  44.048   1.620   9.850
 4261W        W69521  29.718  31.526   2.803
 4262W        W69522  39.368  42.695  13.037
 4263W        W69523  29.615   9.862   4.571
 4264W        W69524   6.877   5.374   3.393
 4265W        W69525   7.222  32.470  12.976
 4266W        W69526   7.152   6.179   4.667
 4267W        W69527   1.470  23.974  11.979
 4268W        W69528  24.644  35.965   0.439
 4269W        W69529  39.509  12.879  12.095
 4270W        W69530  23.593  30.208  10.822
 4271W        W69531  31.549   6.218   4.632
 4272W        W69532  40.377  18.043  14.532
 4273W        W69533  28.331  30.507  12.103
 4274W        W69534  31.496  12.566  14.819
 4275W        W69535   7.242  23.132   4.184
 4276W        W69536  26.266   4.194  12.995
 4277W        W69537  27.439  44.419   3.177
 4278W        W69538  20.643   2.438  11.491
 4279W        W69539  34.460  24.987   4.116
 4280W        W69540  17.988  36.445  14.559
 4281W        W69541  15.751  24.175  14.541
 4282W        W69542  16.870   0.352   3.798
 4283W        W69543  13.289  38.583  12.475
 4284W        W69544   5.937  14.061   1.441
 4285W        W69545  14.775  39.387  11.124
 4286W        W69546  20.125  20.516   1.873
 4287W        W69547   6.706  30.461   3.826
 4288W        W69548  38.820   7.970   1.507
 4289W        W69549  29.450  25.566   1.068
 4290W        W69550  17.300  22.099   1.318
 4291W        W69551   9.338   9.758  13.370
 4292W        W69552  15.976  13.750  13.425
 4293W        W69553  28.699  32.196  11.457
 4294W        W69554  40.458  21.249  14.858
 4295W        W69555   1.747   2.143  14.288
 4296W        W69556  33.447   0.294   3.788
 4297W        W69557   2.166  40.043   3.215
 4298W        W69558  11.428  27.583   1.415
 4299W        W69559  24.072  22.173   4.421
 4300W        W69560   4.824  16.286   3.316
 4301W        W69561   4.985  14.071  13.537
 4302W        W69562  17.736  29.336   0.853
 4303W        W69563  33.218  37.131   0.161
 4304W        W69564  37.732   8.230  13.499
 4305W        W69565   8.655  33.595  14.487
 4306W        W69566  25.108  27.490  11.649
 4307W        W69567  43.841   2.404   3.088
 4308W        W69568   1.234   4.317   2.816
 4309W        W69569  44.352   6.088  12.024
 4310W        W69570  39.169  21.300  14.266
 4311W        W69571  39.424  31.891   1.310
 4312W        W69572  20.200   9.552   1.897
 4313W        W69573  31.618  28.121   0.989
 4314W        W69574  14.821  37.642   4.123
 4315W        W69575  19.427  33.553  10.753
 4316W        W69576   7.345  41.372   2.453
 4317W        W69577  32.961   7.143  14.282
 4318W        W69578  38.614  21.813   4.879
 4319W        W69579   4.792  10.395   3.185
 4320W        W69580  27.303  44.607  14.805
 4321W        W69581   6.971  15.382  10.659
 4322W        W69582  33.827  27.356  11.267
 4323W        W69583  22.480   3.930   2.285
 4324W        W69584  30.249  42.761   1.280
 4325W        W69585  32.030  32.968  10.765
 4326W        W69586  33.866  13.860  11.596
 4327W        W69587  27.196  12.649   1.483
 4328W        W69588  17.199  24.177  10.587
 4329W        W69589   6.934   5.133  13.410
 4330W        W69590  12.408  20.683   0.427
 4331W        W69591  22.756  16.178   0.746
 4332W        W69592  44.771   1.041  14.920
 4333W        W69593  42.303   1.405   0.307
 4334W        W69594  27.185  24.720  11.879
 4335W        W69595  16.337  26.542  11.158
 4336W        W69596  30.726   3.162  11.176
 4337W        W69597   8.247  29.083   0.815
 4338W        W69598  27.427   9.370   4.231
 4339W        W69599  28.526  42.084   2.302
 4340W        W69600  15.643   6.318  11.669
 4341W        W69601  13.763  31.405  14.565
 4342W        W69602  15.703  32.130   1.815
 4343W        W69603  26.648  17.904  12.913
 4344W        W69604   6.876  28.035   2.291
 4345W        W69605  17.939  22.735  14.075
 4346W        W69606  18.872   9.355  14.759
 4347W        W69607  10.288   4.619  11.192
 4348W        W69608   8.831  21.978   1.348
 4349W        W69609  26.514  34.327  13.435
 4350W        W69610  39.043  36.078   4.836
 4351W        W69611  10.345  31.252   1.741
 4352W        W69612   4.741  10.975  14.822
 4353W        W69613  41.080  14.635   0.738
 4354W        W69614   2.785   1.794   3.290
 4355W        W69615  36.479   0.844   0.322
 4356W        W69616  20.540  27.612  10.912
 4357W        W69617   0.512  40.392   3.649
 4358W        W69618  21.295   7.289  10.781
 4359W        W69619  35.393  35.020  11.017
 4360W        W69620  30.138   6.168   4.061
 4361W        W69621  44.487   4.456   1.395
 4362W        W69622  32.913   1.092   2.382
 4363W        W69623  14.432   8.932   1.218
 4364W        W69624  26.626   5.783  12.110
 4365W        W69625  32.537  27.513  13.461
 4366W        W69626  20.574   8.228   1.417
 4367W        W69627  44.016   1.936  14.711
 4368W        W69628   3.882  14.285   3.456
 4369W        W69629  32.890  16.864  13.976
 4370W        W69630  33.648  44.329   4.135
 4371W        W69631  35.275  14.301   2.723
 4372W        W69632  28.717  28.728   3.373
 4373W        W69633  18.259  44.155  12.393
 4374W        W69634  37.599  23.394   0.444
 4375W        W69635  26.983  41.460  12.882
 4376W        W69636  26.023   9.956  13.380
 4377W        W69637   8.928  23.899  12.682
 4378W        W69638  36.874  26.180  14.664
 4379W        W69639   8.602  22.762  14.703
 4380W        W69640  29.403  30.933   1.769
 4381W        W69641  21.681   9.593  11.617
 4382W        W69642  34.426  14.913   3.174
 4383W        W69643  13.369  44.493  10.938
 4384W        W69644  19.612  33.560   1.821
 4385W        W69645  18.153  38.928   3.661
 4386W        W69646  44.952  38.452  13.167
 4387W        W69647  33.737  42.217   3.203
 4388W        W69648  30.922  30.901  10.664
 4389W        W69649  10.195  23.637  10.579
 4390W        W69650  30.424  31.438  14.507
 4391W        W69651   9.087  35.009   4.121
 4392W        W69652   4.310  36.058   1.609
 4393W        W69653   2.960   7.284   3.227
 4394W        W69654  19.994  29.010  13.371
 4395W        W69655  40.469   1.434   3.239
 4396W        W69656  33.826  38.709   9.870
 4397W        W69657  20.293  30.520   2.711
 4398W        W69658  32.463   0.860   3.774
 4399W        W69659  32.387  29.880   2.194
 4400W        W69660   1.441  37.816  14.986
 4401W        W69661  44.757  31.035   1.957
 4402W        W69662  35.760  28.172  14.798
 4403W        W69663  34.098  32.868   0.451
 4404W        W69664   1.923  34.605  12.486
 4405W        W69665  42.555   0.421  10.491
 4406W        W69666   4.652   1.298   1.985
 4407W        W69667  25.539  10.890   1.288
 4408W        W69668  42.578  38.848  12.833
 4409W        W69669  27.752  22.033   1.342
 4410W        W69670  19.550  34.667   3.639
 4411W        W69671  41.357  14.786  12.067
 4412W        W69672  13.297  19.560  13.026
 4413W        W69673   9.629  17.727  12.838
 4414W        W69674  24.421   7.702  12.022
 4415W        W69675  37.420  19.269  12.650
 4416W        W69676  19.413  19.934  13.808
 4417W        W69677  32.686  22.542   2.808
 4418W        W69678  16.250  32.664   2.436
 4419W        W69679  40.505  11.238   3.681
 4420W        W69680  10.093   8.622  13.008
 4421W        W69681  37.529  18.297  14.914
 4422W        W69682  19.298   1.886   0.976
 4423W        W69683  30.026   6.358   1.144
 4424W        W69684  20.612   6.319   4.685
 4425W        W69685  29.753  32.860  11.360
 4426W        W69686   7.413  36.758   1.936
 4427W        W69687  31.809   9.912   1.794
 4428W        W69688  21.221  13.732   2.572
 4429W        W69689  43.561   4.646  11.665
 4430W        W69690  24.559   9.438   2.884
 4431W        W69691  11.724   4.147   3.228
 4432W        W69692  31.475   7.489  12.005
 4433W        W69693   6.660   8.293  11.530
 4434W        W69694  31.463  23.512   2.661
 4435W        W69695  23.277  40.070   2.895
 4436W        W69696  23.140  13.246  12.059
 4437W        W69697  39.498  33.209  13.755
 4438W        W69698  21.567  12.666  11.971
 4439W        W69699   4.683  24.709   2.791
 4440W        W69700  28.589  18.409   1.220
 4441W        W69701  23.525  35.381   2.883
 4442W        W69702  20.182   2.333   1.354
 4443W        W69703  43.793  19.535   0.737
 4444W        W69704  26.971  35.586   3.794
 4445W        W69705  30.471   8.821  14.783
 4446W        W69706  23.160  20.681   2.365
 4447W        W69707  29.762  43.315   0.489
 4448W        W69708  26.075  23.399  13.467
 4449W        W69709  11.046  29.403  14.769
 4450W        W69710  28.867   2.806   4.322
 4451W        W69711  36.029  18.665   0.655
 4452W        W69712  25.271   6.258   4.667
 4453W        W69713  16.398  14.371  12.925
 4454W        W69714  22.592  12.300  14.349
 4455W        W69715   0.407   2.242  12.494
 4456W        W69716  32.818  27.987  12.149
 4457W        W69717  38.589  44.855  13.424
 4458W        W69718  21.121  42.876   2.239
 4459W        W69719  43.963   2.886   2.921
 4460W        W69720  16.244  15.153  10.482
 4461W        W69721  32.516  40.036   0.908
 4462W        W69722  17.346  19.708  12.122
 4463W        W69723  44.745   8.660  12.360
 4464W        W69724  42.777  35.595  11.687
 4465W        W69725  19.110  42.952   3.259
 4466W        W69726  41.397  19.609   0.850
 4467W        W69727  21.509  36.351   1.885
 4468W        W69728  21.233  22.748  12.893
 4469W        W69729  38.820   4.013   2.838
 4470W        W69730  27.051  12.636   3.186
 4471W        W69731  39.819  11.326  13.227
 4472W        W69732   1.557  34.335   0.365
 4473W        W69733  17.761  10.087   0.422
 4474W        W69734  29.159   7.299   1.446
 4475W        W69735   7.771   4.828   3.399
 4476W        W69736  33.974  37.377   2.808
 4477W        W69737   2.240  33.139   2.192
 4478W        W69738  23.432  26.950  11.767
 4479W        W69739  28.050  33.878  12.540
 4480W        W69740  40.098   8.162   2.794
 4481W        W69741   0.517  42.366  11.656
 4482W        W69742  27.993  43.889   4.293
 4483W        W69743  44.848   4.528  12.996
 4484W        W69744  33.335  20.093  11.143
 4485W        W69745  29.916  13.064  10.977
 4486W        W69746  12.665  27.363  12.628
 4487W        W69747  29.196  30.706   3.624
 4488W        W69748   8.345  43.016  14.987
 4489W        W69749  44.001  17.139  14.512
 4490W        W69750  27.198  36.264   2.735
 4491W        W69751   3.773  25.962   2.597
 4492W        W69752  38.433  43.610   0.450
 4493W        W69753   4.866  41.321   0.977
 4494W        W69754  15.590  10.303  14.424
 4495W        W69755  43.169  10.246   1.308
 4496W        W69756  40.364  26.553   1.296
 4497W        W69757  21.272   5.927   0.351
 4498W        W69758  20.831  35.642  13.857
 4499W        W69759  34.766  44.428  12.929
 4500W        W69760   1.429  43.584  10.782
 4501W        W69761  32.040  36.340   2.673
 4502W        W69762  27.247  26.470  13.392
 4503W        W69763  14.240  31.548  14.385
 4504W        W69764   7.899   4.158   2.341
 4505W        W69765  32.138  32.447  13.898
 4506W        W69766  36.084  43.770  11.146
 4507W        W69767  21.153  14.239   2.545
 4508W        W69768  11.120   8.730   0.792
 4509W        W69769   3.696  17.413  14.878
 4510W        W69770  25.406   6.402  11.030
 4511W        W69771   3.915   6.960  13.141
 4512W        W69772  14.019  12.823  12.468
 4513W        W69773   5.183   6.846  11.147
 4514W        W69774  34.990  43.364   2.283
 4515W        W69775  43.263  28.175  10.086
 4516W        W69776  23.700  40.088   1.691
 4517W        W69777  41.706  14.080  11.604
 4518W        W69778   3.900   7.412  13.432
 4519W        W69779  24.685  32.051  12.029
 4520W        W69780   5.234  36.664  13.352
 4521W        W69781  26.231  25.289   0.218
 4522W        W69782  32.491   1.425   4.514
 4523W        W69783  18.669  37.886  11.628
 4524W        W69784  36.940  27.488  10.882
 4525W        W69785  39.137  43.985   3.704
 4526W        W69786  35.497   7.536   2.697
 4527W        W69787  32.225  38.434   4.181
 4528W        W69788   1.772  43.771   3.621
 4529W        W69789  32.769  30.866  12.380
 4530W        W69790  11.860  32.501  10.029
 4531W        W69791  43.901  21.170   3.296
 4532W        W69792   6.900   9.835  14.265
 4533W        W69793   5.834  40.918   3.051
 4534W        W69794  22.378   2.176   9.888
 4535W        W69795  34.530  26.020   9.894
 4536W        W69796   0.372  38.048   0.344
 4537W        W69797  33.845  23.308  14.970
 4538W        W69798   8.178  26.910  14.760
 4539W        W69799  39.011  13.924   1.502
 4540W        W69800  31.886  25.457  12.674
 4541W        W69801   7.838   4.158   4.142
 4542W        W69802  21.726  36.137  13.863
 4543W        W69803  26.722  26.959   0.158
 4544W        W69804  11.117  34.012   2.162
 4545W        W69805  32.025   0.612   1.880
 4546W        W69806  25.156   5.986  14.230
 4547W        W69807  11.257   6.262   3.986
 4548W        W69808  14.001  20.493  13.889
 4549W        W69809  43.687   7.283   2.401
 4550W        W69810  21.589  15.368   0.324
 4551W        W69811   8.784   7.319  10.124
 4552W        W69812  23.788   8.412  13.112
 4553W        W69813  26.344   7.885  11.419
 4554W        W69814  33.686  21.461  12.018
 4555W        W69815   4.477   1.920  14.426
 4556W        W69816  15.826   0.698  13.573
 4557W        W69817  19.823  10.578  14.790
 4558W        W69818  11.819  17.250  11.316
 4559W        W69819  18.813  44.005   2.640
 4560W        W69820  28.105   4.804   3.720
 4561W        W69821  28.732  27.130  11.000
 4562W        W69822   1.338  39.366  14.034
 4563W        W69823   5.363   2.808  12.000
 4564W        W69824  41.143   9.640  13.951
 4565W        W69825  13.092  41.404   0.015
 4566W        W69826  36.601  28.270  10.974
 4567W        W69827   2.205  33.688  12.542
 4568W        W69828  23.937  20.570  13.611
 4569W        W69829   5.801  34.647  10.569
 4570W        W69830  28.676  23.870   1.420
 4571W        W69831  18.512  21.766   0.312
 4572W        W69832  33.162  22.504  10.480
 4573W        W69833  32.888  24.756   1.765
 4574W        W69834   6.159  22.278  13.830
 4575W        W69835  33.685  41.209   3.087
 4576W        W69836  37.021  36.326  11.116
 4577W        W69837  26.811  20.665  14.454
 4578W        W69838   1.528  11.361   4.069
 4579W        W69839  32.485  32.893  13.758
 4580W        W69840  20.542  11.865   3.639
 4581W        W69841  30.882  23.494   4.868
 4582W        W69842  36.207  38.954  14.549
 4583W        W69843  17.515  12.050  13.282
 4584W        W69844   5.134   1.877   4.161
 4585W        W69845  19.155  31.120  14.078
 4586W        W69846  17.167  20.703  13.893
 4587W        W69847   7.406  16.152  13.113
 4588W        W69848  36.520  31.466  13.521
 4589W        W69849  41.736  18.253  10.266
 4590W        W69850  23.642  42.508  12.425
 4591W        W69851  39.034  40.475   3.257
 4592W        W69852  42.069   3.778   3.911
 4593W        W69853   7.141  15.775  13.434
 4594W        W69854   8.396  19.505   1.771
 4595W        W69855   0.510  10.408  14.831
 4596W        W69856  22.033   9.658   3.242
 4597W        W69857   6.126  21.601  10.615
 4598W        W69858  30.339   1.849   3.495
 4599W        W69859  11.607  44.936   3.094
 4600W        W69860  13.346  23.641  12.452
 4601W        W69861  24.157  35.121   2.155
 4602W        W69862  34.907  31.682   0.827
 4603W        W69863  44.419  43.320   0.865
 4604W        W69864  27.988   3.474  10.661
 4605W        W69865  10.212  12.062  13.109
 4606W        W69866  19.838  25.749   3.237
 4607W        W69867   9.276  30.919   4.148
 4608W        W69868  36.014  31.635  12.609
 4609W        W69869  36.002   9.718   3.403
 4610W        W69870  16.647  13.667  14.465
 4611W        W69871  41.018  39.009  12.089
 4612W        W69872   8.593   2.741  10.700
 4613W        W69873  14.785  24.750  11.902
 4614W        W69874  26.818   4.863  14.403
 4615W        W69875   4.217  22.980  11.134
 4616W        W69876  16.727  12.804  14.748
 4617W        W69877  39.372   8.849  10.989
 4618W        W69878  31.132  35.486   1.459
 4619W        W69879  17.932  21.231  10.869
 4620W        W69880  38.214  34.976  14.520
 4621W        W69881  22.924   7.717  11.504
 4622W        W69882  44.084   3.349  14.363
 4623W        W69883  42.158  23.692   1.386
 4624W        W69884  36.171  21.730  13.918
 4625W        W69885   4.040  32.010   0.070
 4626W        W69886  41.871  44.969  12.870
 4627W        W69887  21.335  29.724   3.202
 4628W        W69888  16.212  36.590   0.776
 4629W        W69889   5.385   6.601   1.183
 4630W        W69890  42.575   8.948   0.510
 4631W        W69891  13.865  26.300  13.939
 4632W        W69892  26.655  13.630   1.947
 4633W        W69893   4.826  19.255   4.389
 4634W        W69894  23.583  21.626  12.541
 4635W        W69895   6.327  12.174  13.528
 4636W        W69896  16.394  28.944  10.653
 4637W        W69897   5.659   9.910  10.769
 4638W        W69898  12.237  11.164  11.217
 4639W        W69899  41.993  20.144  14.967
 4640W        W69900  40.804  17.815   2.317
 4641W        W69901  21.548  12.765   2.877
 4642W        W69902  11.315   0.726  14.037
 4643W        W69903  11.885  11.564  10.608
 4644W        W69904  40.880   1.665   5.054
 4645W        W69905   3.085  39.133   3.903
 4646W        W69906  20.962  36.604  10.248
 4647W        W69907   4.416  42.400   2.168
 4648W        W69908  23.250  25.795   3.241
 4649W        W69909  32.820  19.630   1.172
 4650W        W69910  41.521   8.309   2.913
 4651W        W69911  20.959  37.489   2.165
 4652W        W69912  19.446  23.260   9.742
 4653W        W69913   9.392  18.142  13.556
 4654W        W69914  21.772   8.279   4.187
 4655W        W69915  43.923  40.864   4.292
 4656W        W69916  11.843  17.367   3.721
 4657W        W69917  32.053   2.139   1.945
 4658W        W69918  28.717  16.955   9.683
 4659W        W69919  13.825   3.158   1.712
 4660W        W69920  36.594  11.470   2.688
 4661W        W69921  43.900   9.653   4.262
 4662W        W69922  33.042  10.020  12.080
 4663W        W69923  22.592  28.992  13.575
 4664W        W69924  34.472  36.480   0.952
 4665W        W69925  27.644   8.373  11.152
 4666W        W69926  35.568  16.689   2.646
 4667W        W69927  30.446  30.644  14.861
 4668W        W69928   8.162  37.097  10.679
 4669W        W69929  20.935   7.394   2.203
 4670W        W69930  38.785  22.236  13.982
 4671W        W69931   1.196   9.728   3.216
 4672W        W69932  19.339   5.186   2.550
 4673W        W69933  43.238   3.638  13.447
 4674W        W69934  23.155  32.345   5.040
 4675W        W69935   2.992  41.016   3.063
 4676W        W69936  44.445   5.676   2.698
 4677W        W69937  22.813   7.661   2.418
 4678W        W69938  11.693  27.609  14.001
 4679W        W69939   2.207  35.045  12.480
 4680W        W69940  25.682  11.180  11.700
 4681W        W69941  39.583   9.241  14.512
 4682W        W69942  26.428  18.620   1.834
 4683W        W69943  13.262  26.643  12.354
 4684W        W69944  34.441  11.792  12.036
 4685W        W69945  34.906  29.711   1.299
 4686W        W69946  10.743  29.374  11.046
 4687W        W69947   4.224  31.487  11.100
 4688W        W69948  23.326   5.438  11.069
 4689W        W69949  42.978  31.352  14.924
 4690W        W69950  42.915  25.517  12.206
 4691W        W69951   1.729  30.947   1.888
 4692W        W69952   5.659   6.631   4.747
 4693W        W69953  16.237  38.879  10.042
 4694W        W69954  17.112  40.610  10.679
 4695W        W69955  37.223  40.200  13.947
 4696W        W69956  37.501   0.487  11.156
 4697W        W69957   0.220  35.385  14.509
 4698W        W69958  43.743   6.414   0.917
 4699W        W69959   7.828   2.351  13.847
 4700W        W69960  19.338  43.675   3.567
 4701W        W69961   3.712  36.104  12.321
 4702W        W69962  27.046  15.140   1.258
 4703W        W69963  41.317  40.877   4.899
 4704W        W69964  43.801  28.018  13.542
 4705W        W69965  18.779  29.506  12.131
 4706W        W69966  25.049   9.487  13.844
 4707W        W69967  33.494  10.348  10.371
 4708W        W69968  40.008  10.351   3.834
 4709W        W69969   4.924  35.737  10.899
 4710W        W69970   8.810  32.844  12.489
 4711W        W69971  37.121  26.769   4.254
 4712W        W69972  43.241  24.109   4.437
 4713W        W69973   7.512  29.056   3.543
 4714W        W69974  16.872  36.850   4.626
 4715W        W69975   6.101  35.868   1.160
 4716W        W69976   2.844  31.938   0.678
 4717W        W69977   6.796  11.038  13.997
 4718W        W69978  42.963  39.666  11.124
 4719W        W69979  32.464  24.503  14.527
 4720W        W69980   8.839  12.034   4.116
 4721W        W69981  20.910  15.844  13.686
 4722W        W69982  25.974  31.119   3.735
 4723W        W69983  29.089  18.475  14.898
 4724W        W69984   7.557  13.230   2.746
 4725W        W69985  17.842  33.859  14.972
 4726W        W69986  20.001  16.836   2.814
 4727W        W69987  34.778   0.291   3.176
 4728W        W69988  18.630  41.231  11.991
 4729W        W69989  29.222  38.573   0.294
 4730W        W69990  13.134  44.946   2.038
 4731W        W69991  26.224   0.218  13.840
 4732W        W69992  31.051   2.726   0.866
 4733W        W69993   0.443  12.243  12.779
 4734W        W69994  28.974  43.179   0.773
 4735W        W69995  20.118  39.289  10.578
 4736W        W69996  38.390  22.536   1.870
 4737W        W69997  31.046  26.389   3.199
 4738W        W69998  29.092  18.812  11.009
 4739W        W69999  12.418  39.937  11.022
 4740W        W70000   5.876  33.923  14.474
 4741W        W70001  24.158  44.220   2.675
 4742W        W70002  15.816  27.478   0.838
 4743W        W70003  24.315  43.373   2.080
 4744W        W70004  44.551   3.360   1.276
 4745W        W70005  18.033  32.126   4.650
 4746W        W70006  10.823  24.030   1.133
 4747W        W70007  44.513  39.290  12.610
 4748W        W70008   5.196  18.686   2.741
 4749W        W70009  43.459   0.706   1.409
 4750W        W70010  29.342   0.674   2.280
 4751W        W70011  36.231  40.887   3.766
 4752W        W70012  23.101  20.811   1.391
 4753W        W70013  29.271  11.777   4.123
 4754W        W70014   4.461  15.800   1.334
 4755W        W70015  23.037  33.354   4.358
 4756W        W70016   7.779   1.694   1.989
 4757W        W70017  42.474  15.081   0.678
 4758W        W70018  34.952  15.707  10.770
 4759W        W70019  33.761  22.557   0.343
 4760W        W70020  28.582  16.949  11.034
 4761W        W70021  26.086  28.968  14.888
 4762W        W70022  33.351  13.149  12.616
 4763W        W70023  37.109  22.571   4.057
 4764W        W70024  14.386  18.819  11.181
 4765W        W70025  12.587  41.170   3.428
 4766W        W70026  15.663  12.763   2.207
 4767W        W70027  13.303  14.287   3.669
 4768W        W70028  44.004  31.435  14.896
 4769W        W70029  41.389  13.390   3.242
 4770W        W70030  40.949  36.848   2.889
 4771W        W70031  33.261  14.222  14.530
 4772W        W70032  35.901   2.520  10.434
 4773W        W70033  10.266  31.965   1.204
 4774W        W70034   9.907  37.966  14.655
 4775W        W70035  36.295  25.497   3.305
 4776W        W70036  25.195  38.771   3.704
 4777W        W70037  27.079   9.604   4.533
 4778W        W70038  16.096  35.545   1.975
 4779W        W70039  28.503  25.224   1.737
 4780W        W70040  38.796  13.637   2.423
 4781W        W70041  37.476  40.802   4.916
 4782W        W70042  41.541  16.028  14.327
 4783W        W70043  38.932  28.532  11.986
 4784W        W70044  34.935   3.521  12.979
 4785W        W70045  11.054  31.098   1.388
 4786W        W70046  19.335  11.847  11.972
 4787W        W70047  12.197  36.179  12.906
 4788W        W70048   0.923  16.736  14.919
 4789W        W70049  33.076  33.650  11.024
 4790W        W70050  18.571  28.082   3.848
 4791W        W70051  23.000  17.140  11.932
 4792W        W70052  37.600   5.620  12.023
 4793W        W70053  34.811   8.861  11.646
 4794W        W70054  14.925  38.989   1.468
 4795W        W70055  36.816   3.349  13.356
 4796W        W70056  29.393  14.209   0.520
 4797W        W70057   6.402  29.136  14.531
 4798W        W70058   4.945   2.183  14.848
 4799W        W70059  11.346  38.301  12.108
 4800W        W70060  43.826  20.692  12.019
 4801W        W70061  34.055   0.257   2.277
 4802W        W70062  36.232  44.740   0.893
 4803W        W70063  31.487  30.454  10.462
 4804W        W70064   2.426  41.554  11.970
 4805W        W70065  41.260  26.631   4.171
 4806W        W70066   4.937   8.647  14.747
 4807W        W70067  38.665  10.228   2.184
 4808W        W70068  40.699   3.799  10.738
 4809W        W70069  33.651  43.747   0.969
 4810W        W70070  11.150  44.155   3.686
 4811W        W70071  39.514  15.015  11.296
 4812W        W70072  36.322  35.483  14.604
 4813W        W70073  14.295  19.078   4.330
 4814W        W70074  29.195  11.360   0.188
 4815W        W70075  32.181  41.622  12.563
 4816W        W70076  12.532  11.804  14.869
 4817W        W70077   8.814  44.260  13.777
 4818W        W70078  39.803  19.669   2.388
 4819W        W70079   6.477  34.752   0.422
 4820W        W70080  19.168  11.375  14.579
 4821W        W70081  31.964  19.121  13.199
 4822W        W70082  37.004   3.428   4.480
 4823W        W70083  14.320  20.630   3.288
 4824W        W70084   6.514  41.648   1.104
 4825W        W70085  32.683  22.837  12.813
 4826W        W70086  18.190  27.002  11.421
 4827W        W70087  29.288  26.428   1.305
 4828W        W70088  11.127  43.473  10.461
 4829W        W70089  34.287  22.385   4.094
 4830W        W70090  44.131  35.546  11.673
 4831W        W70091  25.720  39.734  11.185
 4832W        W70092  30.964  29.666  11.532
 4833W        W70093  24.172  34.157   3.554
 4834W        W70094  40.338  13.748  14.952
 4835W        W70095  16.027  17.457  14.730
 4836W        W70096  25.043  41.576  11.547
 4837W        W70097  37.361  14.197   4.737
 4838W        W70098   6.620  35.074   3.192
 4839W        W70099  15.078  18.705  14.928
 4840W        W70100  31.932  39.954  11.767
 4841W        W70101  23.278  13.556   3.168
 4842W        W70102  19.052  28.372  11.200
 4843W        W70103  39.523  30.010  11.141
 4844W        W70104  42.899  37.370   0.016
 4845W        W70105  26.148  14.036   5.036
 4846W        W70106   6.903   3.891  13.984
 4847W        W70107  14.342   8.481  13.425
 4848W        W70108   0.301   6.448   3.364
 4849W        W70109  10.948   0.370   4.656
 4850W        W70110   0.166  36.936  13.438
 4851W        W70111  28.292  15.852  13.972
 4852W        W70112  33.823   8.770  11.474
 4853W        W70113   2.702  15.615   4.414
 4854W        W70114   7.613  19.117  12.383
 4855W        W70115  35.246  12.889   0.716
 4856W        W70116   6.258  27.220   5.736
 4857W        W70117  30.151  36.930  11.171
 4858W        W70118   9.826  43.376   2.528
 4859W        W70119   9.651   6.459  13.105
 4860W        W70120  38.056  37.423  10.791
 4861W        W70121   1.863  39.225   3.744
 4862W        W70122  19.286  25.539   2.302
 4863W        W70123  30.949   4.700   1.760
 4864W        W70124  21.246  20.733   1.276
 4865W        W70125  19.140  42.727   0.803
 4866W        W70126  21.038   8.451   4.302
 4867W        W70127  10.612  18.310  11.082
 4868W        W70128   9.934  36.446  11.687
 4869W        W70129  39.520  12.675  14.438
 4870W        W70130  17.419  40.939   4.908
 4871W        W70131   9.917   6.441  13.605
 4872W        W70132   0.832   2.021   1.725
 4873W        W70133  31.936   0.308  12.629
 4874W        W70134   3.911  34.817   1.113
 4875W        W70135  31.362  35.948   0.025
 4876W        W70136  40.137  27.221   2.338
 4877W        W70137  37.036  35.303   2.651
 4878W        W70138  20.242  14.687  10.511
 4879W        W70139   2.727  27.451  12.434
 4880W        W70140  11.277  10.710  12.902
 4881W        W70141  22.233   9.577   0.979
 4882W        W70142   6.952   8.874  12.509
 4883W        W70143  22.004  39.867  14.454
 4884W        W70144   8.299   1.838  14.334
 4885W        W70145  37.071  20.542  12.907
 4886W        W70146  24.223  10.195  11.551
 4887W        W70147  16.598  33.270   0.838
 4888W        W70148  15.065  19.637  11.261
 4889W        W70149   6.349  21.192  11.492
 4890W        W70150   6.453  42.807   3.210
 4891W        W70151  25.636  21.803  11.379
 4892W        W70152  42.057  14.670   2.417
 4893W        W70153  28.485  41.081   0.016
 4894W        W70154  13.164  24.039   1.341
 4895W        W70155   4.922  44.881   2.358
 4896W        W70156   0.464   1.034  13.062
 4897W        W70157  19.039  13.196  11.198
 4898W        W70158  27.531  25.950   3.925
 4899W        W70159  43.063  25.545  13.580
 4900W        W70160  38.986  18.202   2.884
 4901W        W70161  41.507  24.553  11.959
 4902W        W70162  43.646  42.497   3.175
 4903W        W70163  43.984   4.428  11.460
 4904W        W70164  30.399   2.946   4.626
 4905W        W70165  36.130   6.257   0.894
 4906W        W70166  13.465   4.424  13.824
 4907W        W70167  16.721  43.820  13.475
 4908W        W70168  43.309  30.989  13.082
 4909W        W70169   3.574   4.854   3.015
 4910W        W70170  15.789  20.618   1.759
 4911W        W70171   4.115  17.944   2.406
 4912W        W70172  38.357  42.497  12.410
 4913W        W70173  40.360   9.510  10.721
 4914W        W70174  30.947  25.720  14.802
 4915W        W70175  43.701  23.180  13.586
 4916W        W70176  18.092  24.600   0.397
 4917W        W70177   3.858  14.524   0.408
 4918W        W70178   7.409   1.356   1.843
 4919W        W70179  37.457  17.752  13.920
 4920W        W70180   3.930  32.525   4.110
 4921W        W70181  24.301  31.060  14.454
 4922W        W70182  12.124  10.713   1.937
 4923W        W70183  25.733  30.206   0.561
 4924W        W70184  20.063   8.332   0.405
 4925W        W70185   3.076  32.583  11.672
 4926W        W70186  33.127  21.094   3.224
 4927W        W70187   6.733   2.950  13.858
 4928W        W70188  26.741  38.866  11.050
 4929W        W70189   4.393  41.215   0.283
 4930W        W70190   8.913  31.986   4.616
 4931W        W70191   3.315   1.416  11.485
 4932W        W70192  18.199  34.006  11.728
 4933W        W70193   2.821  24.517   9.849
 4934W        W70194  41.900   2.846   3.945
 4935W        W70195   6.629   3.859  13.544
 4936W        W70196  23.527  14.821   0.772
 4937W        W70197  22.500  19.128   4.248
 4938W        W70198  26.576  24.295   3.452
 4939W        W70199   1.223  17.709   3.663
 4940W        W70200  28.651  34.070  11.497
 4941W        W70201  27.594  20.929   1.041
 4942W        W70202   0.444  21.786  12.901
 4943W        W70203  39.687   2.808   0.686
 4944W        W70204   7.010  35.943  12.627
 4945W        W70205   5.309  33.584  13.334
 4946W        W70206   5.891  29.663  13.890
 4947W        W70207  28.397  35.920   9.854
 4948W        W70208  19.661  29.212  12.538
 4949W        W70209  29.589  20.639   4.700
 4950W        W70210  27.961   4.210   3.503
 4951W        W70211   8.208   5.695  13.429
 4952W        W70212  16.096  44.497  11.783
 4953W        W70213  18.173   9.649   4.690
 4954W        W70214  20.567   3.242   2.206
 4955W        W70215  37.456  25.057  10.748
 4956W        W70216  28.583  11.215  12.900
 4957W        W70217   4.309  33.477   1.905
 4958W        W70218  33.005  10.606   4.414
 4959W        W70219  26.092  22.139   0.814
 4960W        W70220   4.549  17.242   4.060
 4961W        W70221  32.539   5.821  11.719
 4962W        W70222  24.262  34.369  12.349
 4963W        W70223  12.830  26.694  11.051
 4964W        W70224  16.423   3.765   3.740
 4965W        W70225  22.804  27.007  10.805
 4966W        W70226   4.125   7.384  12.891
 4967W        W70227  16.742  33.841   4.302
 4968W        W70228  32.668  25.219  11.642
 4969W        W70229  24.580   7.693   2.874
 4970W        W70230  23.938  31.668   1.953
 4971W        W70231  19.695  22.606   4.228
 4972W        W70232  13.226   5.656   4.421
 4973W        W70233  33.374  27.256  14.027
 4974W        W70234  34.082  20.858   3.093
 4975W        W70235  42.518   9.031  12.155
 4976W        W70236  28.737  31.484  13.675
 4977W        W70237  21.134  15.041  11.971
 4978W        W70238  11.236  33.987  13.089
 4979W        W70239  24.047  41.527  12.640
 4980W        W70240  13.875   5.762  10.844
 4981W        W70241  37.396   7.296   0.308
 4982W        W70242   7.595  34.632   4.090
 4983W        W70243   9.239   3.817   4.413
 4984W        W70244   4.186   7.650  11.018
 4985W        W70245  13.359  15.001  12.076
 4986W        W70246  34.999  19.174   3.194
 4987W        W70247  24.030  39.783  11.982
 4988W        W70248  16.844  32.386   3.373
 4989W        W70249  37.264  26.205  13.382
 4990W        W70250  27.915  43.344   3.107
 4991W        W70251  33.508  39.515   0.615
 4992W        W70252  10.856  15.270  11.077
 4993W        W70253   8.404  23.187   4.271
 4994W        W70254  14.675   0.708   1.220
 4995W        W70255  27.013   6.764  12.033
 4996W        W70256  20.552   6.229   4.163
 4997W        W70257  29.101  13.655   4.032
 4998W        W70258  43.024  34.852  12.421
 4999W        W70259  14.606   2.461  13.513
 5000W        W70260  32.550   0.559  14.751
 5001W        W70261  28.315  13.218   3.904
 5002W        W70262   0.139   4.421  13.439
 5003W        W70263  17.587  23.427  10.605
 5004W        W70264  23.728  21.118   0.419
 5005W        W70265  20.328  20.939   4.062
 5006W        W70266  44.919  14.908  10.811
 5007W        W70267   3.717   5.817  13.958
 5008W        W70268  29.890   8.389  14.552
 5009W        W70269  25.461  19.539  13.012
 5010W        W70270   4.957  12.721  14.497
 5011W        W70271   9.575  15.210  11.456
 5012W        W70272  20.716  24.022  10.609
 5013W        W70273  38.552  20.139  13.933
 5014W        W70274   4.470  32.253  13.317
 5015W        W70275  25.064  30.708   1.223
 5016W        W70276  12.128  32.067   2.155
 5017W        W70277   2.786  31.996   2.934
 5018W        W70278  29.614   6.487  11.181
 5019W        W70279  26.658  32.425   1.352
 5020W        W70280  11.273  39.998   3.460
 5021W        W70281  26.624  35.836   3.524
 5022W        W70282  42.787   4.725   2.619
 5023W        W70283  26.148  20.023   2.408
 5024W        W70284   3.044  37.595   4.253
 5025W        W70285  18.310  12.018  12.049
 5026W        W70286  39.878  34.994   4.674
 5027W        W70287  26.787  41.518  13.350
 5028W        W70288   8.842  35.546   0.809
 5029W        W70289  16.667  13.603  12.859
 5030W        W70290   5.418  10.770  13.925
 5031W        W70291  22.696  44.718   1.314
 5032W        W70292  43.774  35.584  14.345
 5033W        W70293  12.284   3.123   1.792
 5034W        W70294   5.109  39.353  11.742
 5035W        W70295  22.491  31.082  10.846
 5036W        W70296   1.852  23.513   0.338
 5037W        W70297  20.027   1.396   3.676
 5038W        W70298  32.411  32.369   0.940
 5039W        W70299  18.075  44.431   4.461
 5040W        W70300   6.696  34.035   3.195
 5041W        W70301  41.692  36.448   3.723
 5042W        W70302  41.036  30.671   0.539
 5043W        W70303  15.821  26.112   3.586
 5044W        W70304  33.562  15.748  14.388
 5045W        W70305  34.922  40.807  13.570
 5046W        W70306  27.242  44.396   3.652
 5047W        W70307  17.450  38.555   0.961
 5048W        W70308   6.451  42.871   0.421
 5049W        W70309  18.217   2.751   0.575
 5050W        W70310  22.673  22.094   0.675
 5051W        W70311  24.094  31.155   1.191
 5052W        W70312   6.877  24.141   1.551
 5053W        W70313  44.801   1.207  12.131
 5054W        W70314  38.854   7.862   4.329
 5055W        W70315   5.730  35.644   3.594
 5056W        W70316   7.859   2.428  12.579
 5057W        W70317  15.065  31.232  12.010
 5058W        W70318   1.386   4.720   2.393
 5059W        W70319  40.902   3.290   4.592
 5060W        W70320  15.091  26.265   2.865
 5061W        W70321  27.465  23.282   3.859
 5062W        W70322  30.183   2.645   2.866
 5063W        W70323  44.230   5.831   2.263
 5064W        W70324   2.154  18.105   3.882
 5065W        W70325  26.647  12.214  11.849
 5066W        W70326   4.946  33.458  10.768
 5067W        W70327  31.981   5.159  12.120
 5068W        W70328   2.395  13.629  10.807
 5069W        W70329  35.117  38.555   1.824
 5070W        W70330  27.596   5.071  13.784
 5071W        W70331  39.957   8.493   4.639
 5072W        W70332   3.981  34.405  10.611
 5073W        W70333  24.517  44.795   3.547
 5074W        W70334  29.695  26.441   4.530
 5075W        W70335  10.802  19.132   2.849
 5076W        W70336  11.928  28.072  11.890
 5077W        W70337  15.031   4.087   4.140
 5078W        W70338  29.622  36.396   1.697
 5079W        W70339  16.795  22.433   2.124
 5080W        W70340  36.027  28.423  13.946
 5081W        W70341  44.517   0.271   3.291
 5082W        W70342   0.088  41.067  12.023
 5083W        W70343  30.900  16.670  12.415
 5084W        W70344  26.278  38.512  11.599
 5085W        W70345   5.533  30.912  14.008
 5086W        W70346  30.493  35.457   3.675
 5087W        W70347  30.937  34.329   0.876
 5088W        W70348   4.281  44.358  11.334
 5089W        W70349   0.266  13.838   4.313
 5090W        W70350  41.467   4.959  11.223
 5091W        W70351  16.655   4.248   4.674
 5092W        W70352  31.968  22.255   2.461
 5093W        W70353  16.833   6.246  11.235
 5094W        W70354  20.373   1.351  14.972
 5095W        W70355  14.688  15.268  14.794
 5096W        W70356  44.947  26.729  11.535
 5097W        W70357  20.015  40.927   1.641
 5098W        W70358  41.461  12.416   3.633
 5099W        W70359  22.114  36.693  14.316
 5100W        W70360  14.598  32.656  12.116
 5101W        W70361  17.098  17.597   2.360
 5102W        W70362  44.918  10.633   4.621
 5103W        W70363  14.231   1.249   0.759
 5104W        W70364  37.008  33.198  14.795
 5105W        W70365  18.128  31.469   2.571
 5106W        W70366  35.571  24.939  13.111
 5107W        W70367  39.910  28.428  14.476
 5108W        W70368  17.702  26.330  12.825
 5109W        W70369   6.729  44.181   1.937
 5110W        W70370   0.340  34.070   3.677
 5111W        W70371  15.723  36.505  14.984
 5112W        W70372  13.363   1.855  13.847
 5113W        W70373  43.030   9.383   1.485
 5114W        W70374  35.026  10.455  11.093
 5115W        W70375  41.879  27.121   1.957
 5116W        W70376  31.149  14.593  14.363
 5117W        W70377  39.328  32.746  13.373
 5118W        W70378   4.518  39.134   1.805
 5119W        W70379  19.793  37.580   4.089
 5120W        W70380  39.961  33.945  13.145
 5121W        W70381  16.128  32.381   1.970
 5122W        W70382  14.225  16.686   1.931
 5123W        W70383   1.428   0.270  11.229
 5124W        W70384  42.513  21.912  13.550
 5125W        W70385  39.512  17.532  13.830
 5126W        W70386  39.303  43.269   1.686
 5127W        W70387  28.411  35.814   0.745
 5128W        W70388  22.448  25.541  13.545
 5129W        W70389  18.156  18.661  12.369
 5130W        W70390  16.038  38.281   2.847
 5131W        W70391  20.887  11.274   0.327
 5132W        W70392  22.902  28.752   0.913
 5133W        W70393  23.620  17.033   1.156
 5134W        W70394  36.824  27.328   4.335
 5135W        W70395   5.476  38.779   1.362
 5136W        W70396  33.739  10.905  11.191
 5137W        W70397  37.354  19.646   1.278
 5138W        W70398  44.868  33.635  13.346
 5139W        W70399  43.227  37.942   3.681
 5140W        W70400   6.226  18.176   0.366
 5141W        W70401  32.001   2.042  14.783
 5142W        W70402   7.989  17.289   0.133
 5143W        W70403  38.629  13.355   1.930
 5144W        W70404  44.894  12.507   2.702
 5145W        W70405  26.427  42.880   3.273
 5146W        W70406  16.785  29.771  10.106
 5147W        W70407  39.337  32.542  13.837
 5148W        W70408  32.914   1.361   0.070
 5149W        W70409  20.454  35.714   2.585
 5150W        W70410  36.744  28.910   2.883
 5151W        W70411  37.015   2.891  13.262
 5152W        W70412  13.282  23.395  11.921
 5153W        W70413  42.726  33.234   1.452
 5154W        W70414  23.492  18.080   1.844
 5155W        W70415  33.481   8.296   0.678
 5156W        W70416   3.179   9.933  14.901
 5157W        W70417   2.856  27.100   5.065
 5158W        W70418  18.362  29.117   3.775
 5159W        W70419  29.815   1.027   3.273
 5160W        W70420  38.287  28.113   2.230
 5161W        W70421  27.073  19.601   5.056
 5162W        W70422   5.806  31.943  13.453
 5163W        W70423   1.820  32.778  10.718
 5164W        W70424  42.980   5.638   2.834
 5165W        W70425  15.686  35.916   0.711
 5166W        W70426  23.541  25.526   2.668
 5167W        W70427  33.549   3.514  13.073
 5168W        W70428  36.259   9.813   0.008
 5169W        W70429  29.073   1.016   4.384
 5170W        W70430  35.838   2.127  13.737
 5171W        W70431  22.765  33.227  10.241
 5172W        W70432  23.682   5.082  11.215
 5173W        W70433  42.427  25.235  13.065
 5174W        W70434  23.479   5.471  10.297
 5175W        W70435  24.103  21.008  13.293
 5176W        W70436  19.787  43.707  13.131
 5177W        W70437  37.405  27.132  12.861
 5178W        W70438   1.527   5.889   0.839
 5179W        W70439  41.039  38.509  11.939
 5180W        W70440  15.081  17.732  10.274
 5181W        W70441   5.376   3.057  13.402
 5182W        W70442  40.213  11.324  10.285
 5183W        W70443   0.323  34.966  14.217
 5184W        W70444   6.153  31.924  12.457
 5185W        W70445  40.881  19.969   3.861
 5186W        W70446  37.401  19.217   0.344
 5187W        W70447   7.066  12.830  12.389
 5188W        W70448  16.812  21.768   4.084
 5189W        W70449  15.223  11.695  10.411
 5190W        W70450  44.192  18.157  11.515
 5191W        W70451  32.843  17.043   0.475
 5192W        W70452  28.049  28.912   3.902
 5193W        W70453   8.852   8.129   3.570
 5194W        W70454   1.183  10.059   3.611
 5195W        W70455   3.400  23.964  13.450
 5196W        W70456  31.092  23.657   0.363
 5197W        W70457  32.705   5.721  12.585
 5198W        W70458  16.162  32.111  14.357
 5199W        W70459   5.262  18.227  12.168
 5200W        W70460  27.652  28.061  14.992
 5201W        W70461  13.714  18.911  14.486
 5202W        W70462  42.131   1.262   1.361
 5203W        W70463  40.279   5.015   0.861
 5204W        W70464  28.523  29.183   4.210
 5205W        W70465  10.894  39.839   4.754
 5206W        W70466   4.981  27.289   4.350
 5207W        W70467  24.218  10.338  12.123
 5208W        W70468  32.998  23.263  14.250
 5209W        W70469  41.524  12.318   4.587
 5210W        W70470  43.066  20.157   5.006
 5211W        W70471   2.729   7.643  11.411
 5212W        W70472  18.681  25.563  14.567
 5213W        W70473   2.432  19.157  12.487
 5214W        W70474   4.715  36.400   1.732
 5215W        W70475   7.471  43.972  14.272
 5216W        W70476  35.798  33.775   4.554
 5217W        W70477  31.195  35.874   1.833
 5218W        W70478  41.392  29.035   0.852
 5219W        W70479  35.622  30.835  12.656
 5220W        W70480  34.678  22.635   1.428
 5221W        W70481  34.593   4.675  13.901
 5222W        W70482  26.744  15.155   4.836
 5223W        W70483  36.568  26.309   3.949
 5224W        W70484  33.371  30.477  14.762
 5225W        W70485   6.425  27.218  11.148
 5226W        W70486  13.466   5.832  11.748
 5227W        W70487   6.204  31.948   0.923
 5228W        W70488  25.288  29.440  12.407
 5229W        W70489  43.428  37.399  11.168
 5230W        W70490  30.997  36.082   3.649
 5231W        W70491  26.992   7.263   1.829
 5232W        W70492  16.349  36.176  12.513
 5233W        W70493  14.142  43.466   0.182
 5234W        W70494  22.943  39.674   2.824
 5235W        W70495  22.791  42.441   0.898
 5236W        W70496  15.563  28.958  11.119
 5237W        W70497  21.793  12.715   4.109
 5238W        W70498  36.474  37.327   4.634
 5239W        W70499  11.298  34.891   4.841
 5240W        W70500  10.842   5.442  11.167
 5241W        W70501  12.676  43.830  10.613
 5242W        W70502  15.640  26.843   0.363
 5243W        W70503   6.850  44.691   3.239
 5244W        W70504   1.402  36.969   3.983
 5245W        W70505  15.501  36.815   1.262
 5246W        W70506  24.730  27.198  12.021
 5247W        W70507  11.174  18.831   0.729
 5248W        W70508  40.795  38.388  13.068
 5249W        W70509   6.721   6.828   3.150
 5250W        W70510  12.780  21.942   1.805
 5251W        W70511  35.924  43.916   4.082
 5252W        W70512  28.517  17.831   5.051
 5253W        W70513  42.136  10.715  10.829
 5254W        W70514   7.108  20.649   0.405
 5255W        W70515   4.403   6.029  12.479
 5256W        W70516   1.270   6.933   2.854
 5257W        W70517  19.508  11.429  11.698
 5258W        W70518  41.554   3.426  11.607
 5259W        W70519  37.068   6.452  10.871
 5260W        W70520   5.158  35.596   2.252
 5261W        W70521  24.692   5.947   0.055
 5262W        W70522  36.110  41.147  14.814
 5263W        W70523   2.924  30.108   2.126
 5264W        W70524   1.892  17.799  11.212
 5265W        W70525  25.109  14.068  12.057
 5266W        W70526  25.784  11.121  13.588
 5267W        W70527  14.199  41.708  13.060
 5268W        W70528   4.220   3.049   0.007
 5269W        W70529  37.766   8.981   1.271
 5270W        W70530   8.165   4.726  13.833
 5271W        W70531  38.471  32.837   4.115
 5272W        W70532  29.282  37.227   2.738
 5273W        W70533  12.708  10.240   4.316
 5274W        W70534  26.883   8.522   1.882
 5275W        W70535   1.087   6.906  14.621
 5276W        W70536  10.303  38.951   1.254
 5277W        W70537  23.257   8.400   0.208
 5278W        W70538  27.214  29.610  12.671
 5279W        W70539  34.713  23.985   3.199
 5280W        W70540  33.607   0.292  12.018
 5281W        W70541   6.303  43.364   1.515
 5282W        W70542  10.199  35.554  13.312
 5283W        W70543  37.613   3.422   5.111
 5284W        W70544  43.304  34.027  12.946
 5285W        W70545  13.793  19.367  10.979
 5286W        W70546  38.383  16.017   1.265
 5287W        W70547  35.545   3.911   2.155
 5288W        W70548  44.758  35.896  12.855
 5289W        W70549  19.261   5.584   2.879
 5290W        W70550  16.841   8.246   3.635
 5291W        W70551  21.669  27.033  10.501
 5292W        W70552  23.552  16.103  14.109
 5293W        W70553  22.369   2.860  14.353
 5294W        W70554  10.679  28.628   1.696
 5295W        W70555   5.165  29.882   4.983
 5296W        W70556  30.107  40.413  12.885
 5297W        W70557   9.819  14.811  10.945
 5298W        W70558  40.398  24.853  11.151
 5299W        W70559  43.926  33.337   1.811
 5300W        W70560   7.660   7.104   1.036
 5301W        W70561  34.006  17.161  12.997
 5302W        W70562  37.877  24.999   3.831
 5303W        W70563  44.953   8.360   0.345
 5304W        W70564  27.479   8.816  12.442
 5305W        W70565   7.673  20.129   1.916
 5306W        W70566  37.404  34.869  14.812
 5307W        W70567   8.325  36.825  13.391
 5308W        W70568  14.401  14.654  14.862
 5309W        W70569  12.924  18.211  12.364
 5310W        W70570  15.660   6.685   3.110
 5311W        W70571  30.051  37.765   3.295
 5312W        W70572  41.406  28.284   2.078
 5313W        W70573  16.018   9.740  10.242
 5314W        W70574  28.252  42.172   4.106
 5315W        W70575  43.373  17.497  13.557
 5316W        W70576  39.355  17.013   3.345
 5317W        W70577   3.210  20.688   3.532
 5318W        W70578  40.934  31.968   3.864
 5319W        W70579  20.246  21.462   2.404
 5320W        W70580  37.661  11.636  11.917
 5321W        W70581  23.689  42.765  11.978
 5322W        W70582  13.679  40.297   3.729
 5323W        W70583  36.017  43.317   0.760
 5324W        W70584   5.976  38.765   1.228
 5325W        W70585  17.073  19.978  13.348
 5326W        W70586  42.820  31.522  11.620
 5327W        W70587  31.608   3.866  13.828
 5328W        W70588  24.776  31.867  11.554
 5329W        W70589   9.870   1.531   2.318
 5330W        W70590  37.308  33.886   3.665
 5331W        W70591  43.362  42.489   1.275
 5332W        W70592  43.604  44.792   1.598
 5333W        W70593  13.853  33.859  11.135
 5334W        W70594  31.384  38.069   4.069
 5335W        W70595   5.964   3.138   0.152
 5336W        W70596  10.259  30.544   0.033
 5337W        W70597  23.645  34.666   1.777
 5338W        W70598  44.504  28.454   0.874
 5339W        W70599  29.428  39.976  14.996
 5340W        W70600  18.079  42.853   3.926
 5341W        W70601  15.206   0.468  11.962
 5342W        W70602  12.442  15.558   4.652
 5343W        W70603   5.835  42.980   0.809
 5344W        W70604  20.315   4.010  12.336
 5345W        W70605  23.817  12.655  14.866
 5346W        W70606  40.447   0.071  12.628
 5347W        W70607  42.761  35.423   0.831
 5348W        W70608   2.305   7.398   0.270
 5349W        W70609   5.940  37.625   1.855
 5350W        W70610  41.118  36.370  12.015
 5351W        W70611  20.023  42.262  13.684
 5352W        W70612  12.801  13.597  12.945
 5353W        W70613  12.772  43.686   0.505
 5354W        W70614  25.662  16.550  12.395
 5355W        W70615   7.211   0.987   2.176
 5356W        W70616  34.876   5.355   4.848
 5357W        W70617  16.530  23.150  12.514
 5358W        W70618  34.624   9.534   0.412
 5359W        W70619  12.580  22.847   2.009
 5360W        W70620  19.893  28.490   4.296
 5361W        W70621  14.835  23.225  14.290
 5362W        W70622  41.507  22.002   2.693
 5363W        W70623  10.549  39.422  12.196
 5364W        W70624  25.919  27.018  13.385
 5365W        W70625   6.964  41.736  11.635
 5366W        W70626  19.146  17.158   2.301
 5367W        W70627  40.457  16.291  14.999
 5368W        W70628   5.300  43.044   2.900
 5369W        W70629  34.235  29.325   2.753
 5370W        W70630  16.022   3.443   3.002
 5371W        W70631  14.277  11.144  14.763
 5372W        W70632   9.807   3.836   2.919
 5373W        W70633  43.741   1.967  12.072
 5374W        W70634   7.170   2.822   1.534
 5375W        W70635  14.810   4.645  14.060
 5376W        W70636   9.750  32.398   2.254
 5377W        W70637  30.873  33.057  12.378
 5378W        W70638  14.329  16.601  10.692
 5379W        W70639  21.276  17.804   4.561
 5380W        W70640   9.186  37.490  13.415
 5381W        W70641  36.983   5.959   3.806
 5382W        W70642  26.287   2.654   4.550
 5383W        W70643  16.654  32.457   4.266
 5384W        W70644  20.720  11.219   0.847
 5385W        W70645  33.481  28.199  12.955
 5386W        W70646   6.729  40.295  11.432
 5387W        W70647  31.900  20.092  13.295
 5388W        W70648   4.950  15.717   4.590
 5389W        W70649  40.491  33.531   5.053
 5390W        W70650  27.105   2.530   1.819
 5391W        W70651  26.210  29.551  11.156
 5392W        W70652   9.935  30.681   3.195
 5393W        W70653  35.907  34.662   0.306
 5394W        W70654   7.281  27.030  14.913
 5395W        W70655  34.893  36.813   3.256
 5396W        W70656  33.627   5.470   3.811
 5397W        W70657  40.209  36.429   2.824
 5398W        W70658  31.599  13.140  11.516
 5399W        W70659  39.259  14.691  12.933
 5400W        W70660   4.988  42.093   1.380
 5401W        W70661  37.295   9.110  13.935
 5402W        W70662  43.287  30.052   0.522
 5403W        W70663  38.232   3.579  10.559
 5404W        W70664   7.697  35.571   4.358
 5405W        W70665  44.013  32.482  11.630
 5406W        W70666   1.302  29.408   3.667
 5407W        W70667  17.713  19.785   0.019
 5408W        W70668   7.231  31.290   1.663
 5409W        W70669  18.647  34.005  10.644
 5410W        W70670   8.496  42.105  12.465
 5411W        W70671  10.639   1.221   2.075
 5412W        W70672  13.724  10.192  11.672
 5413W        W70673  20.159  44.786   0.016
 5414W        W70674  23.178  34.320   5.624
 5415W        W70675  37.056  32.140   0.095
 5416W        W70676   6.275  18.069  10.050
 5417W        W70677  26.121  20.336   3.451
 5418W        W70678  20.078  27.663  11.098
 5419W        W70679  39.545  41.683   2.756
 5420W        W70680  15.196  36.920  10.725
 5421W        W70681  16.225  19.578  13.939
 5422W        W70682  40.746  22.043   4.565
 5423W        W70683  41.821  14.747  14.207
 5424W        W70684   8.360  14.769   0.887
 5425W        W70685  18.572   8.437   4.123
 5426W        W70686   9.960  29.804  13.992
 5427W        W70687   8.343  16.133   0.297
 5428W        W70688  20.058  14.764   1.460
 5429W        W70689  32.073  32.936  14.063
 5430W        W70690   3.089  29.119  11.187
 5431W        W70691  40.935  12.628  14.370
 5432W        W70692  39.013  22.051  11.004
 5433W        W70693  12.780  16.129  12.212
 5434W        W70694  36.173  33.112  14.442
 5435W        W70695  18.666  19.615   3.079
 5436W        W70696   3.672  16.131   4.289
 5437W        W70697  29.152  26.065   2.385
 5438W        W70698  22.183  19.240   0.861
 5439W        W70699   1.058  38.066   4.252
 5440W        W70700   9.675  17.548  12.362
 5441W        W70701   1.257  36.951   2.158
 5442W        W70702  38.140   8.457   1.442
 5443W        W70703  39.924  38.117   1.579
 5444W        W70704   2.280  29.238   2.600
 5445W        W70705  32.505  31.939  12.305
 5446W        W70706  44.745  38.058  11.533
 5447W        W70707  17.286  42.787  14.896
 5448W        W70708  29.535   9.459  12.116
 5449W        W70709  32.823  25.905  12.505
 5450W        W70710  34.821  41.888   1.019
 5451W        W70711  12.184   5.954   1.275
 5452W        W70712  13.136  10.841  13.984
 5453W        W70713   2.160  31.098   4.061
 5454W        W70714  27.933  39.422   0.527
 5455W        W70715   9.485  36.235  14.040
 5456W        W70716  36.606  37.439   4.090
 5457W        W70717  14.615  40.441   0.339
 5458W        W70718  30.047  29.400   2.312
 5459W        W70719   6.950  38.618   0.325
 5460W        W70720  18.751  41.993   0.457
 5461W        W70721  17.690   1.968  14.459
 5462W        W70722  12.816   6.922  13.873
 5463W        W70723  34.505   1.504  12.036
 5464W        W70724   1.514  20.720  12.889
 5465W        W70725  21.268   3.702  14.958
 5466W        W70726  26.944  14.080   0.977
 5467W        W70727  42.687   8.793  11.373
 5468W        W70728  20.058  34.121  14.859
 5469W        W70729  32.255  38.172  13.062
 5470W        W70730   5.233   8.226  10.749
 5471W        W70731  21.054  43.249  13.997
 5472W        W70732   5.440   0.363  14.985
 5473W        W70733  32.432  17.699   3.299
 5474W        W70734  12.152  20.196   1.213
 5475W        W70735   6.286   8.419  11.853
 5476W        W70736  27.643  32.987   2.742
 5477W        W70737  11.328  29.915   1.907
 5478W        W70738  43.851  22.516  10.923
 5479W        W70739  39.172  39.084   4.647
 5480W        W70740  18.092   9.875  13.958
 5481W        W70741   9.861   3.941  11.733
 5482W        W70742  32.998   4.718   3.201
 5483W        W70743  35.916  26.254  14.222
 5484W        W70744   2.776  18.785   3.352
 5485W        W70745  22.482  21.336  12.053
 5486W        W70746   3.446   0.794  11.009
 5487W        W70747  44.413  27.296   4.097
 5488W        W70748  26.611  29.049   2.189
 5489W        W70749   2.497  24.077   0.796
 5490W        W70750  35.103  14.891  12.534
 5491W        W70751  32.636  22.217   1.885
 5492W        W70752   9.341   4.811   0.339
 5493W        W70753  31.750   5.200  10.430
 5494W        W70754  26.363  29.326   2.612
 5495W        W70755   4.454   3.116   3.696
 5496W        W70756  37.432  16.728  12.508
 5497W        W70757   5.726  22.899   0.767
 5498W        W70758  25.535  39.100  13.973
 5499W        W70759  25.104  13.447  11.161
 5500W        W70760  13.947  17.634   3.080
 5501W        W70761  13.590  24.266   3.735
 5502W        W70762   7.571  13.522   3.196
 5503W        W70763   7.833  13.122  11.754
 5504W        W70764  10.297   6.801  13.333
 5505W        W70765  44.067  32.177   5.021
 5506W        W70766   4.737  31.605   1.455
 5507W        W70767  22.103  37.648   0.847
 5508W        W70768  22.662  41.732   2.564
 5509W        W70769  34.584  20.083   0.871
 5510W        W70770  12.796  15.645  10.323
 5511W        W70771  35.133  41.298  13.560
 5512W        W70772  42.091  43.360  13.717
 5513W        W70773   9.810   6.922   0.125
 5514W        W70774   1.661  40.961  10.674
 5515W        W70775  26.059  44.824  12.616
 5516W        W70776  11.786  31.362   4.515
 5517W        W70777   1.477  32.927  12.251
 5518W        W70778   8.113  16.815  13.403
 5519W        W70779  20.316  33.622   0.864
 5520W        W70780  13.255  20.665  13.440
 5521W        W70781   6.819  11.297   3.096
 5522W        W70782  10.610  20.064  13.492
 5523W        W70783  20.735  18.799  12.628
 5524W        W70784  10.515  21.299  10.167
 5525W        W70785   3.857   6.833   1.875
 5526W        W70786  21.383  35.200   0.310
 5527W        W70787  25.711  37.923  12.487
 5528W        W70788  18.224  41.063  11.698
 5529W        W70789  37.893  14.165  10.943
 5530W        W70790   0.770  22.508   0.348
 5531W        W70791  37.358  18.600  11.497
 5532W        W70792  23.164  19.042  12.018
 5533W        W70793   1.902   0.293   4.162
 5534W        W70794  29.085  17.426  12.995
 5535W        W70795  25.140  43.601   3.397
 5536W        W70796   6.731  24.427  12.022
 5537W        W70797  20.498   8.487   4.247
 5538W        W70798   8.237   4.681  11.574
 5539W        W70799  14.937   1.012  13.467
 5540W        W70800  34.545  26.479   4.567
 5541W        W70801  38.978  25.247  11.070
 5542W        W70802  11.789  11.605  10.103
 5543W        W70803  13.689  14.126   2.790
 5544W        W70804  15.443  31.806   3.666
 5545W        W70805  10.325   2.764  10.552
 5546W        W70806  15.098  24.143  13.958
 5547W        W70807   7.203  15.866   0.922
 5548W        W70808  33.808  10.249  14.303
 5549W        W70809   8.318  10.064   0.175
 5550W        W70810   1.309  40.053   3.771
 5551W        W70811  38.681  39.124   4.788
 5552W        W70812   6.306  12.842  13.952
 5553W        W70813  17.818   7.428   3.781
 5554W        W70814   3.435   0.652   4.822
 5555W        W70815  17.709  15.130   3.404
 5556W        W70816  44.008  34.454   0.970
 5557W        W70817  10.300  16.758  11.946
 5558W        W70818  11.121   2.473   0.997
 5559W        W70819  31.623  20.999   0.890
 5560W        W70820  18.174  33.553  14.700
 5561W        W70821  19.832  43.468   3.283
 5562W        W70822   8.237   6.813   4.146
 5563W        W70823  19.683  18.649  10.183
 5564W        W70824  14.352  11.844  10.596
 5565W        W70825   9.124  37.967  14.153
 5566W        W70826  12.285  14.990  13.818
 5567W        W70827  18.614  41.882   4.101
 5568W        W70828   2.719  22.457  12.089
 5569W        W70829  37.596   6.299   0.873
 5570W        W70830  22.602  42.288   2.718
 5571W        W70831  26.507   4.463  11.181
 5572W        W70832  26.439  36.083   2.212
 5573W        W70833  33.927  38.029  11.341
 5574W        W70834  42.827   3.279   1.775
 5575W        W70835  44.931  10.315   0.542
 5576W        W70836  13.352  32.870   2.166
 5577W        W70837  19.355   0.254  14.292
 5578W        W70838  34.061  42.132  14.788
 5579W        W70839  32.189  21.965   1.800
 5580W        W70840  13.816  41.510  12.544
 5581W        W70841  43.374  28.047   1.447
 5582W        W70842  32.891  23.578   4.177
 5583W        W70843  35.159   4.457   4.559
 5584W        W70844  42.815  27.619   1.755
 5585W        W70845  23.071  42.093   2.755
 5586W        W70846  34.612   4.766  11.524
 5587W        W70847   3.353  10.495  11.994
 5588W        W70848  33.103  23.381   2.921
 5589W        W70849   1.203  31.974   5.129
 5590W        W70850   3.743  17.567   3.733
 5591W        W70851  33.155  17.526   2.003
 5592W        W70852  36.480   1.311  12.979
 5593W        W70853  18.449   6.766   4.211
 5594W        W70854  13.130   0.873   3.652
 5595W        W70855  38.047  29.523   2.384
 5596W        W70856  21.197  18.081   4.116
 5597W        W70857  23.809   0.639  12.093
 5598W        W70858   1.836  24.438  10.344
 5599W        W70859  16.685  38.923  12.816
 5600W        W70860  26.534  24.958   0.530
 5601W        W70861  32.943  22.635   1.958
 5602W        W70862  34.953  11.234  11.564
 5603W        W70863   3.146  39.964   0.496
 5604W        W70864  12.389  19.590  11.942
 5605W        W70865  32.919   1.131   4.694
 5606W        W70866  19.609  42.280  12.440
 5607W        W70867  37.791   8.311  10.767
 5608W        W70868   1.387  44.321   9.885
 5609W        W70869  28.644  36.362  14.792
 5610W        W70870   5.320  37.649  11.952
 5611W        W70871   8.873  13.367   3.673
 5612W        W70872  33.030   1.672   0.498
 5613W        W70873   6.923   9.322  11.562
 5614W        W70874  41.946  37.126   4.960
 5615W        W70875  24.114  39.212  13.241
 5616W        W70876   8.289  25.502  14.877
 5617W        W70877  22.808   1.263  12.578
 5618W        W70878  15.998  13.006   0.007
 5619W        W70879  17.206  10.713  10.588
 5620W        W70880  26.206   5.850  10.410
 5621W        W70881   9.874  40.519   2.311
 5622W        W70882  16.617  30.492  13.265
 5623W        W70883  20.805  32.631  11.436
 5624W        W70884  37.575  25.160   0.961
 5625W        W70885  42.277  30.010   1.813
 5626W        W70886  13.974  18.137  14.168
 5627W        W70887   8.724  20.224  10.561
 5628W        W70888  10.637  36.487   2.234
 5629W        W70889   7.142  18.326  11.647
 5630W        W70890  32.408  41.041  14.582
 5631W        W70891  13.650  13.168   2.425
 5632W        W70892  14.737  21.451  14.998
 5633W        W70893   4.352  36.907   0.214
 5634W        W70894  32.647  36.522  13.091
 5635W        W70895  31.491  38.541  14.732
 5636W        W70896  24.146  25.109  13.366
 5637W        W70897  10.250  12.696   4.668
 5638W        W70898  21.718  26.195  13.162
 5639W        W70899  29.168  26.373   4.611
 5640W        W70900  30.454  36.035   1.240
 5641W        W70901  27.071  10.687   1.805
 5642W        W70902   9.241  34.441  13.255
 5643W        W70903  35.447   6.379  12.982
 5644W        W70904   2.359  13.267   2.142
 5645W        W70905  33.108  20.589  12.872
 5646W        W70906  15.065   3.257   0.011
 5647W        W70907  13.282  25.927   4.194
 5648W        W70908  32.076  39.294  13.590
 5649W        W70909   0.193  12.420   1.479
 5650W        W70910  42.396  27.562  11.550
 5651W        W70911  31.109   5.327   0.651
 5652W        W70912   2.098  40.868   4.547
 5653W        W70913   8.243  23.745  11.605
 5654W        W70914   2.483  14.713   2.627
 5655W        W70915  43.803   1.810   1.737
 5656W        W70916  33.530  32.131  10.930
 5657W        W70917  19.676  27.908   1.254
 5658W        W70918  41.903   3.031  14.152
 5659W        W70919  40.036  22.302   4.243
 5660W        W70920  12.354  20.535  13.395
 5661W        W70921  34.037  17.118  14.846
 5662W        W70922  19.867   2.023   1.685
 5663W        W70923  35.354  23.046   3.062
 5664W        W70924  36.884  42.827  14.328
 5665W        W70925  23.522   9.222  11.962
 5666W        W70926  16.236  42.818  14.929
 5667W        W70927  15.068  14.880   3.057
 5668W        W70928  40.959  12.258  10.756
 5669W        W70929  22.205   6.911   0.976
 5670W        W70930   0.756  21.751   1.927
 5671W        W70931   8.259   3.631  13.407
 5672W        W70932  28.250  28.112  12.962
 5673W        W70933  40.286  15.501  13.488
 5674W        W70934  15.415  27.748  12.405
 5675W        W70935  40.230  17.798  12.583
 5676W        W70936  38.370  15.621  12.355
 5677W        W70937  10.860   6.349   9.925
 5678W        W70938   4.793  30.325   2.440
 5679W        W70939  19.681  26.731  13.013
 5680W        W70940  20.284  43.693  13.318
 5681W        W70941  25.449   5.977   2.236
 5682W        W70942  13.604   5.662   0.321
 5683W        W70943  32.438  24.290  10.777
 5684W        W70944  31.167  33.495   3.269
 5685W        W70945  40.430  20.199   3.357
 5686W        W70946  44.534  44.510   3.683
 5687W        W70947  24.584  16.052  11.094
 5688W        W70948  25.682  43.971   0.278
 5689W        W70949  14.121  12.209  13.368
 5690W        W70950  40.780  44.991   0.428
 5691W        W70951  12.799  22.042   2.622
 5692W        W70952  11.360  41.793  12.671
 5693W        W70953  44.171   0.071   3.670
 5694W        W70954   5.964  10.471   4.374
 5695W        W70955  23.647   4.283  14.962
 5696W        W70956   2.733  40.532   3.075
 5697W        W70957  38.417  18.395  14.734
 5698W        W70958  37.328  17.344   1.950
 5699W        W70959  19.259  25.450  10.793
 5700W        W70960   4.750  27.044  14.500
 5701W        W70961   7.005   6.182  12.470
 5702W        W70962  39.570   5.336  12.667
 5703W        W70963  37.874  10.867  10.621
 5704W        W70964  26.766   8.295  12.387
 5705W        W70965  18.498  39.782  12.008
 5706W        W70966  13.176  17.549   4.143
 5707W        W70967  14.255  23.619  14.750
 5708W        W70968  10.458   6.234  12.227
 5709W        W70969  30.004  40.385  13.777
 5710W        W70970  25.116  16.624   3.575
 5711W        W70971  34.520   8.352  13.382
 5712W        W70972   3.875  44.257  12.116
 5713W        W70973   9.815   4.389  12.021
 5714W        W70974  11.851  24.322  11.372
 5715W        W70975  23.677   3.061  11.682
 5716W        W70976   7.414  30.107   4.313
 5717W        W70977  18.974  17.121   1.800
 5718W        W70978  37.404  26.719  11.892
 5719W        W70979  20.034  20.209  12.951
 5720W        W70980   5.281  44.713  14.469
 5721W        W70981  39.300  25.131  12.991
 5722W        W70982  18.105   4.009  14.785
 5723W        W70983  21.332  18.091   1.170
 5724W        W70984  12.899  41.136   0.930
 5725W        W70985  15.826  35.839   2.677
 5726W        W70986  34.060  39.971  11.085
 5727W        W70987  42.075  11.165  12.481
 5728W        W70988  28.301  40.821   0.474
 5729W        W70989   6.383  12.693  13.462
 5730W        W70990  23.719  26.449  12.430
 5731W        W70991  28.943  30.536   4.901
 5732W        W70992  43.692   1.710  13.886
 5733W        W70993  29.141  30.239   2.314
 5734W        W70994  23.472   4.877  12.569
 5735W        W70995  10.253  23.750   3.801
 5736W        W70996  10.852  44.306   0.191
 5737W        W70997   1.857  44.643  14.897
 5738W        W70998  37.417  26.690  13.184
 5739W        W70999  19.759  41.879   3.253
 5740W        W71000   3.479  23.116   1.583
 5741W        W71001  24.690  41.002  14.554
 5742W        W71002  17.070   8.823  10.701
 5743W        W71003   3.986  40.845   0.019
 5744W        W71004   6.237  30.245  12.406
 5745W        W71005   5.793  39.340  10.451
 5746W        W71006   2.348  26.773   5.756
 5747W        W71007  32.365  36.201  14.864
 5748W        W71008  44.849  38.146   0.317
 5749W        W71009  19.788  32.652   2.620
 5750W        W71010  29.564  15.409  14.393
 5751W        W71011  31.663   1.383   3.259
 5752W        W71012  22.126   9.661  13.114
 5753W        W71013  17.695  25.199   4.602
 5754W        W71014  35.965  30.215  11.478
 5755W        W71015  29.994  40.393  11.910
 5756W        W71016  40.239  37.260   2.446
 5757W        W71017  21.587  40.983  12.083
 5758W        W71018  33.065  10.800   3.401
 5759W        W71019  38.982   8.235   4.662
 5760W        W71020  32.488  38.635  13.034
 5761W        W71021   2.132  43.455   3.305
 5762W        W71022   5.326  32.110  13.456
 5763W        W71023  14.793  24.078   3.678
 5764W        W71024  31.257  30.317  12.422
 5765W        W71025   4.905   7.254   3.113
 5766W        W71026  11.524  20.281  11.549
 5767W        W71027  14.522  42.359  14.384
 5768W        W71028  36.642  35.621  12.669
 5769W        W71029   0.307  22.640  11.580
 5770W        W71030  37.266   7.373   2.228
 5771W        W71031   4.927   9.654   0.014
 5772W        W71032  36.869   7.350  13.329
 5773W        W71033  35.295  21.281  14.952
 5774W        W71034  13.286  27.491   2.660
 5775W        W71035  22.378  32.128   2.059
 5776W        W71036  22.472  13.099  13.079
 5777W        W71037   4.578  35.315  12.247
 5778W        W71038  19.300   9.789  12.106
 5779W        W71039   0.570  11.279   2.763
 5780W        W71040   5.780   4.713  14.327
 5781W        W71041   8.048  39.081   4.407
 5782W        W71042  21.125  44.488  14.214
 5783W        W71043  13.305   9.837  13.121
 5784W        W71044   7.800   4.371   3.175
 5785W        W71045  39.524  30.393   5.023
 5786W        W71046  17.825  24.079   4.556
 5787W        W71047  41.649  16.848  12.056
 5788W        W71048  44.032  17.329  11.973
 5789W        W71049  25.628   5.705   4.101
 5790W        W71050  30.931  34.552  11.547
 5791W        W71051  42.077  27.314  12.166
 5792W        W71052  25.583  22.691  12.958
 5793W        W71053  42.844  40.360  10.469
 5794W        W71054  19.567  13.699   1.948
 5795W        W71055  26.929  32.554   0.534
 5796W        W71056  33.085  27.587  14.316
 5797W        W71057  29.694  12.342   1.689
 5798W        W71058  19.539  17.751  11.575
 5799W        W71059  34.052  21.978  11.576
 5800W        W71060  27.535   7.843  11.541
 5801W        W71061  10.811  24.515   4.357
 5802W        W71062  22.233  43.033   4.349
 5803W        W71063  20.275   8.658  13.021
 5804W        W71064   2.945  16.311  11.711
 5805W        W71065  25.239  28.401  14.772
 5806W        W71066  28.963  20.112  13.804
 5807W        W71067  15.136  29.226  11.147
 5808W        W71068  11.878   4.675   1.392
 5809W        W71069  36.886  30.201   3.377
 5810W        W71070   6.007  11.239   3.670
 5811W        W71071  37.476   3.102   5.540
 5812W        W71072  17.656  41.246   3.340
 5813W        W71073   0.783  41.392  13.660
 5814W        W71074  11.512  26.910   1.790
 5815W        W71075   5.950   9.298   2.770
 5816W        W71076  28.688  33.887   2.060
 5817W        W71077  44.778   1.293   3.680
 5818W        W71078  33.357   8.824   0.063
 5819W        W71079   0.876   8.387   1.337
 5820W        W71080  27.570   4.988  14.827
 5821W        W71081  36.794  30.619  14.881
 5822W        W71082   0.659   7.674   0.987
 5823W        W71083  43.154  10.428  11.543
 5824W        W71084  24.270   2.387  11.542
 5825W        W71085  26.518  28.972  10.613
 5826W        W71086  44.225  41.245  12.175
 5827W        W71087  27.488  11.665   1.436
 5828W        W71088  11.605  21.572  11.600
 5829W        W71089  42.763  26.348   4.111
 5830W        W71090  17.820  27.833   4.238
 5831W        W71091  24.689  36.958   2.182
 5832W        W71092  17.880  22.525   4.057
 5833W        W71093  29.624   1.285  14.863
 5834W        W71094   8.966   6.845  13.894
 5835W        W71095  21.560  14.222   3.768
 5836W        W71096  36.816   5.819  13.903
 5837W        W71097  43.788   4.574  13.895
 5838W        W71098  41.856  32.817   0.866
 5839W        W71099  23.905  25.148   2.342
 5840W        W71100  23.527   5.604   0.448
 5841W        W71101  43.071   4.461  11.670
 5842W        W71102  36.850  39.030   0.275
 5843W        W71103  25.360  33.898  13.944
 5844W        W71104   1.711  19.236  12.044
 5845W        W71105  19.313  42.333  12.862
 5846W        W71106  16.498  41.901   3.807
 5847W        W71107  13.692  18.953   4.998
 5848W        W71108  21.480   4.392   3.145
 5849W        W71109  42.821   0.837  12.557
 5850W        W71110  36.876   1.452  12.084
 5851W        W71111   2.713  44.529  14.008
 5852W        W71112  12.706  26.000  11.208
 5853W        W71113  18.036   8.741  10.735
 5854W        W71114  15.791  37.496   1.887
 5855W        W71115  16.207  37.576   2.193
 5856W        W71116  36.420   7.689  10.651
 5857W        W71117  32.022   0.262   2.749
 5858W        W71118  26.557  36.051  10.960
 5859W        W71119  24.254  16.239  11.823
 5860W        W71120  29.668  21.476  11.103
 5861W        W71121  41.290   7.758   3.708
 5862W        W71122  27.712  18.654  14.833
 5863W        W71123   2.446  10.827  14.365
 5864W        W71124  18.507  31.046   3.347
 5865W        W71125  28.073  27.538   1.769
 5866W        W71126  27.584   5.921  11.328
 5867W        W71127  44.875  42.486  14.828
 5868W        W71128   7.912  44.561   1.126
 5869W        W71129  43.473   6.400   2.173
 5870W        W71130  24.630  36.543  11.097
 5871W        W71131  24.997  20.268   3.862
 5872W        W71132   2.016  20.878   4.151
 5873W        W71133   6.885   6.302   3.497
 5874W        W71134   5.142  34.928   1.859
 5875W        W71135  34.796  34.356   2.600
 5876W        W71136  24.872  21.595  12.127
 5877W        W71137  35.943  39.892  14.492
 5878W        W71138   4.905  22.754   3.160
 5879W        W71139   1.875  26.986  11.636
 5880W        W71140  12.419   0.496  10.592
 5881W        W71141  31.915  29.549  10.761
 5882W        W71142   3.421  39.096   1.372
 5883W        W71143   5.719  24.041  12.460
 5884W        W71144  27.552  39.740   0.356
 5885W        W71145  23.741  10.625   2.351
 5886W        W71146  35.547   7.937   4.546
 5887W        W71147  40.480   9.202  11.186
 5888W        W71148  14.112  10.168   2.851
 5889W        W71149  28.425  14.775   2.977
 5890W        W71150  22.421  21.079  11.611
 5891W        W71151  14.135  20.133  12.706
 5892W        W71152   8.219  12.828  13.610
 5893W        W71153  37.245  33.546   2.270
 5894W        W71154  20.511  12.767   1.823
 5895W        W71155  24.748   5.943   3.475
 5896W        W71156  15.405  11.973  13.941
 5897W        W71157   0.791  36.766  14.399
 5898W        W71158  14.565  16.703   0.488
 5899W        W71159   3.547  10.346   4.218
 5900W        W71160  36.235  28.844   3.805
 5901W        W71161  27.825  43.075   3.863
 5902W        W71162  43.043  33.046   3.295
 5903W        W71163  23.404  12.184  13.522
 5904W        W71164  37.445  39.434   1.511
 5905W        W71165  35.290  38.539  13.329
 5906W        W71166  14.016  11.375   4.178
 5907W        W71167  41.204  44.233  11.498
 5908W        W71168  31.887   2.478   1.515
 5909W        W71169  42.446  32.607   2.602
 5910W        W71170  36.485  31.079  14.776
 5911W        W71171   8.691  39.311  13.373
 5912W        W71172  39.067  23.911   5.109
 5913W        W71173  29.252   9.008  12.067
 5914W        W71174  36.516   0.018   5.407
 5915W        W71175  15.511  17.264  11.008
 5916W        W71176   1.731  42.032   0.739
 5917W        W71177  15.608  32.563  12.003
 5918W        W71178  37.969  44.979   2.325
 5919W        W71179  28.995  44.345   4.077
 5920W        W71180  43.888  37.509  14.821
 5921W        W71181  17.579  15.796  13.065
 5922W        W71182  12.123  22.795   4.212
 5923W        W71183   7.740  26.752   0.944
 5924W        W71184  22.492  44.798  12.288
 5925W        W71185  44.887   1.470   0.644
 5926W        W71186   7.805   6.814   1.445
 5927W        W71187  13.984  16.405  12.037
 5928W        W71188  34.423  24.298  10.713
 5929W        W71189  25.898  13.810   3.263
 5930W        W71190  14.273  13.130   1.420
 5931W        W71191  18.195   4.430   4.045
 5932W        W71192  27.545  17.513  13.363
 5933W        W71193   8.267  39.364   4.032
 5934W        W71194  17.296  26.426   2.466
 5935W        W71195  24.747   7.229   3.641
 5936W        W71196  24.752  20.211  10.417
 5937W        W71197  42.764  44.747  10.324
 5938W        W71198  39.976   3.329  12.303
 5939W        W71199  35.515  41.319   2.209
 5940W        W71200  25.667  31.955   3.065
 5941W        W71201  39.492  21.167  13.872
 5942W        W71202  25.647  10.406   2.214
 5943W        W71203  23.456  32.947   5.099
 5944W        W71204  26.055  10.416  14.920
 5945W        W71205  41.604  12.345   1.658
 5946W        W71206   4.763  26.065  11.159
 5947W        W71207  16.717  43.977   0.914
 5948W        W71208  44.981  41.190  13.326
 5949W        W71209  38.722   9.548  13.893
 5950W        W71210  38.935  21.345  13.772
 5951W        W71211  31.406  20.567   2.418
 5952W        W71212  32.075  31.944  13.074
 5953W        W71213  36.796  12.110   2.253
 5954W        W71214  31.931   7.679   4.192
 5955W        W71215  21.372  19.088  13.263
 5956W        W71216  20.437   2.843   3.428
 5957W        W71217  25.355  34.245  11.637
 5958W        W71218  25.243  32.608   1.818
 5959W        W71219  11.185  26.527   2.721
 5960W        W71220  13.868  28.342   2.424
 5961W        W71221  15.613  18.367   1.156
 5962W        W71222   0.753  37.270  12.952
 5963W        W71223  18.281  17.335  14.723
 5964W        W71224   7.389   7.414   4.128
 5965W        W71225  37.464  38.501  10.665
 5966W        W71226   9.637  18.594   4.624
 5967W        W71227   3.246  22.315   0.509
 5968W        W71228   3.202  12.430  10.964
 5969W        W71229  29.616  40.039  13.680
 5970W        W71230  17.056  36.840  13.309
 5971W        W71231  42.972  21.095   3.071
 5972W        W71232  34.101  25.700   3.563
 5973W        W71233  34.827  25.221   0.834
 5974W        W71234  22.523   3.779  10.071
 5975W        W71235  19.582  40.748   2.384
 5976W        W71236   5.125  38.623   2.169
 5977W        W71237  33.980  22.486  12.490
 5978W        W71238  17.202  13.249  10.715
 5979W        W71239   8.785   5.322   1.938
 5980W        W71240  13.878  18.890  11.145
 5981W        W71241  44.233   9.153  12.021
 5982W        W71242  10.800  19.718   2.821
 5983W        W71243  38.857  15.421  14.675
 5984W        W71244  25.568  38.507   3.992
 5985W        W71245  13.542  23.747   2.222
 5986W        W71246  27.919   6.277  12.081
 5987W        W71247   5.134   7.181  12.937
 5988W        W71248   2.357   8.808   1.246
 5989W        W71249  12.772   1.821   1.919
 5990W        W71250  34.366  15.113   3.845
 5991W        W71251   4.892   3.934   3.117
 5992W        W71252  21.713  28.422  11.126
 5993W        W71253  40.997  15.435  13.106
 5994W        W71254  15.374  37.832  11.482
 5995W        W71255   6.384  18.219  13.499
 5996W        W71256  13.908  36.632  11.531
 5997W        W71257  22.753   6.878  14.407
 5998W        W71258  12.228  43.473   3.618
 5999W        W71259  39.870  12.949  12.957
 6000W        W71260  41.273  10.064   3.303
 6001W        W71261  37.420  44.553   0.347
 6002W        W71262  33.130  32.391   3.325
 6003W        W71263  20.053  26.043  11.059
 6004W        W71264  14.307   3.684  12.887
 6005W        W71265  16.627  44.753   3.200
 6006W        W71266   3.862  39.375  10.665
 6007W        W71267   7.870  43.411  11.563
 6008W        W71268  36.237   7.191  10.484
 6009W        W71269  11.584  44.293   0.679
 6010W        W71270   3.919  33.120   1.830
 6011W        W71271  41.744  41.295   2.611
 6012W        W71272  28.943  35.397  11.514
 6013W        W71273  38.872   1.980  13.088
 6014W        W71274   2.960  37.928  11.632
 6015W        W71275   4.970   1.484  11.348
 6016W        W71276  21.123  34.364  11.912
 6017W        W71277  33.590  11.327   4.063
 6018W        W71278   2.622  11.507  12.945
 6019W        W71279  41.792   2.326   3.946
 6020W        W71280   9.065  32.056  11.115
 6021W        W71281   3.795  41.935  11.725
 6022W        W71282  21.648  13.323  12.114
 6023W        W71283  41.114   9.346   4.725
 6024W        W71284  16.609   9.404   1.805
 6025W        W71285  25.359  40.320   0.238
 6026W        W71286  38.078  13.731  11.194
 6027W        W71287  34.942  42.350   1.274
 6028W        W71288  30.461  32.147   0.915
 6029W        W71289  20.307  39.262  13.297
 6030W        W71290  35.856  33.133   2.845
 6031W        W71291  26.203  24.089   5.069
 6032W        W71292  40.439  44.008   1.237
 6033W        W71293  30.481  32.412  11.211
 6034W        W71294  31.837  18.531   0.971
 6035W        W71295   5.687  13.262   0.161
 6036W        W71296  40.754  36.849  11.143
 6037W        W71297  26.163  25.101   4.213
 6038W        W71298   9.460   2.803   1.909
 6039W        W71299  14.046  32.611  12.230
 6040W        W71300  25.178   0.245   2.292
 6041W        W71301  39.391  38.586   0.336
 6042W        W71302   0.325  44.858   4.366
 6043W        W71303  11.949  27.611  11.546
 6044W        W71304  14.590  11.754   2.085
 6045W        W71305  17.657  32.065   3.336
 6046W        W71306   4.915  12.715   1.019
 6047W        W71307  29.944  15.133   3.934
 6048W        W71308   4.260  34.588  13.222
 6049W        W71309  22.639   8.156   4.617
 6050W        W71310  23.283  23.490  14.782
 6051W        W71311  25.931  25.022  10.962
 6052W        W71312  40.152  36.286  13.975
 6053W        W71313  28.154  18.394  14.913
 6054W        W71314   5.233  24.330   0.895
 6055W        W71315  21.752  42.220   0.977
 6056W        W71316  31.931  18.066  11.995
 6057W        W71317  37.801   8.841   2.714
 6058W        W71318  38.882   3.402  13.382
 6059W        W71319   8.498  23.960   3.222
 6060W        W71320  14.304   4.422  10.962
 6061W        W71321  14.131  34.200   4.978
 6062W        W71322  39.985  16.486   0.054
 6063W        W71323  37.833  26.172   3.791
 6064W        W71324  12.406  24.582  10.592
 6065W        W71325   2.893   7.781   0.388
 6066W        W71326  32.193  36.283  12.914
 6067W        W71327  17.236   0.376   4.646
 6068W        W71328   9.718  17.394   3.816
 6069W        W71329   8.140  37.860   0.417
 6070W        W71330  11.811  14.171  13.355
 6071W        W71331  34.306  16.237   0.212
 6072W        W71332  36.942   4.719  12.797
 6073W        W71333  36.579  20.881   1.716
 6074W        W71334  39.979  38.804   2.414
 6075W        W71335  16.981  15.775   0.791
 6076W        W71336   4.652  40.929   2.247
 6077W        W71337  32.028  37.946  12.159
 6078W        W71338  12.174  26.582  10.721
 6079W        W71339  20.720   0.543   2.821
 6080W        W71340  10.813   2.156   4.057
 6081W        W71341  15.086  33.634   4.095
 6082W        W71342  16.897  16.250  13.090
 6083W        W71343  17.434  23.457  13.355
 6084W        W71344  37.812  34.080   0.384
 6085W        W71345  43.764  11.034  12.787
 6086W        W71346  39.802  24.895  13.712
 6087W        W71347  20.121  14.553   1.959
 6088W        W71348  11.286  42.281  11.268
 6089W        W71349  41.993   9.168  14.864
 6090W        W71350  17.785  22.245  14.106
 6091W        W71351   6.174   8.733  13.879
 6092W        W71352  13.142  24.591   2.635
 6093W        W71353  35.116  37.395  13.633
 6094W        W71354   6.597  21.263   2.024
 6095W        W71355  38.341  40.357  14.886
 6096W        W71356   5.167  42.787   4.606
 6097W        W71357  29.039  39.989   0.329
 6098W        W71358  41.479  14.380  12.378
 6099W        W71359  16.586  23.167   1.430
 6100W        W71360  38.489  31.391   2.850
 6101W        W71361  29.898   1.370   0.389
 6102W        W71362   8.363  30.306   3.283
 6103W        W71363  18.835  34.173  14.909
 6104W        W71364  10.905  17.046  12.772
 6105W        W71365  20.018  10.700  13.398
 6106W        W71366   7.737  36.982  14.085
 6107W        W71367  27.996  35.397  11.101
 6108W        W71368  22.224  41.962   2.760
 6109W        W71369  29.441  18.839  12.881
 6110W        W71370   9.247  30.787   1.644
 6111W        W71371  28.061   2.499   0.413
 6112W        W71372   6.457  14.066  10.264
 6113W        W71373  17.236  13.278   1.336
 6114W        W71374  42.287  32.563   0.802
 6115W        W71375  13.766  33.945   2.643
 6116W        W71376  35.591  20.649   4.547
 6117W        W71377  34.951  10.970  11.088
 6118W        W71378  41.984  25.202  13.397
 6119W        W71379  15.372  25.491   0.316
 6120W        W71380   3.830  14.839  13.994
 6121W        W71381  42.336  34.876   3.387
 6122W        W71382  12.884  21.512   4.383
 6123W        W71383  28.777  19.617  10.455
 6124W        W71384   8.639   6.110   1.300
 6125W        W71385   4.713   1.874   3.244
 6126W        W71386  41.925  17.573  13.788
 6127W        W71387  39.484  14.740  14.480
 6128W        W71388   2.950  42.923  12.986
 6129W        W71389  27.835  32.777   0.056
 6130W        W71390   4.166  29.823   3.585
 6131W        W71391  44.803   1.780  12.971
 6132W        W71392  16.961  21.228  12.047
 6133W        W71393  25.465   0.952   2.347
 6134W        W71394  29.965  31.597  11.432
 6135W        W71395  23.448  32.587  10.661
 6136W        W71396  12.496   8.381   0.744
 6137W        W71397   8.393  12.813   2.240
 6138W        W71398  32.945  14.623  12.126
 6139W        W71399  31.923   3.480  12.634
 6140W        W71400  15.702  24.881   1.312
 6141W        W71401  27.534  22.591  13.211
 6142W        W71402  20.615   4.308  10.668
 6143W        W71403  21.058  16.262  10.639
 6144W        W71404   9.266  17.729  10.995
 6145W        W71405   8.275  37.657  11.607
 6146W        W71406  26.488  44.232   0.226
 6147W        W71407  31.483  19.816  11.950
 6148W        W71408  13.581  25.792  14.425
 6149W        W71409  28.905  15.796   1.254
 6150W        W71410   9.162  38.578   2.131
 6151W        W71411  34.251  42.446  11.150
 6152W        W71412  37.479  27.227   0.825
 6153W        W71413  27.909  33.719   1.277
 6154W        W71414  41.196  26.549  11.074
 6155W        W71415  10.654  14.225   3.676
 6156W        W71416  26.123   4.217   4.508
 6157W        W71417   4.622  28.807  14.881
 6158W        W71418  34.569  44.980  14.439
 6159W        W71419  34.766  10.510   0.146
 6160W        W71420  22.318  28.906   4.220
 6161W        W71421  15.383  22.403   2.379
 6162W        W71422  37.335  33.726   0.957
 6163W        W71423  40.403  38.827   1.787
 6164W        W71424  29.482  33.291  11.491
 6165W        W71425   4.207   6.227   2.465
 6166W        W71426  23.436  43.279  14.096
 6167W        W71427  23.196   8.330  14.322
 6168W        W71428   5.445   7.482   2.195
 6169W        W71429   6.312  16.283   4.268
 6170W        W71430  22.137  21.619  14.320
 6171W        W71431  28.156  14.699  12.564
 6172W        W71432  34.079  30.584   2.272
 6173W        W71433  11.152  33.617  14.970
 6174W        W71434  26.153  31.369   4.526
 6175W        W71435   1.659  26.496  12.516
 6176W        W71436  19.783  39.264   2.270
 6177W        W71437  12.175  12.896   0.339
 6178W        W71438  20.054  27.148   4.611
 6179W        W71439  27.375   0.381   1.310
 6180W        W71440  15.709  23.245   2.069
 6181W        W71441  19.599  13.826   3.867
 6182W        W71442  26.125  19.083   0.893
 6183W        W71443  30.544  27.980  14.064
 6184W        W71444  26.472  18.463   2.969
 6185W        W71445  26.716   1.589   2.656
 6186W        W71446   7.446  33.466  12.450
 6187W        W71447  18.597  35.400  13.153
 6188W        W71448  31.888  41.795  14.758
 6189W        W71449  40.986   4.993  13.978
 6190W        W71450  35.936  22.708  14.374
 6191W        W71451  34.872  16.083  11.861
 6192W        W71452  26.213  26.922   0.124
 6193W        W71453  36.328   0.934   1.368
 6194W        W71454  33.343  32.939   4.304
 6195W        W71455  37.537  14.207   3.304
 6196W        W71456  39.408  44.269   1.894
 6197W        W71457  35.340  23.687   3.359
 6198W        W71458  31.366   0.771  11.268
 6199W        W71459  23.163  33.797   2.536
 6200W        W71460  27.912  26.998  14.560
 6201W        W71461  41.030   6.833   1.316
 6202W        W71462  34.940   3.495   3.121
 6203W        W71463  19.169  23.770  12.823
 6204W        W71464  22.886  21.164  11.441
 6205W        W71465  33.831   1.845  11.516
 6206W        W71466  36.809  35.510   4.225
 6207W        W71467   5.214  13.533  12.519
 6208W        W71468  21.753  14.691   2.982
 6209W        W71469  36.471  34.570  13.910
 6210W        W71470  13.901  23.030  11.525
 6211W        W71471  37.249   3.748  14.048
 6212W        W71472   2.538  43.003   0.362
 6213W        W71473   9.177  34.511  11.741
 6214W        W71474  29.883  26.560   9.834
 6215W        W71475  44.301  22.460   3.320
 6216W        W71476  19.902  25.251  10.419
 6217W        W71477  40.426  15.896   0.337
 6218W        W71478  15.178  22.815  13.065
 6219W        W71479  29.043  42.274  10.746
 6220W        W71480  24.562  13.539   3.027
 6221W        W71481  34.244  44.351  12.861
 6222W        W71482  18.985  38.401   1.753
 6223W        W71483   5.329  15.771  12.487
 6224W        W71484  20.712  20.185  13.836
 6225W        W71485   0.419  30.105  14.278
 6226W        W71486  27.690  20.789  13.904
 6227W        W71487  31.065  44.462   1.304
 6228W        W71488  19.854  39.480   4.617
 6229W        W71489  30.439   5.010  14.346
 6230W        W71490  31.838  36.356   4.575
 6231W        W71491  23.005  41.502   0.768
 6232W        W71492  12.597  11.112  12.036
 6233W        W71493  35.657  40.793  10.520
 6234W        W71494  37.428   9.922  10.604
 6235W        W71495  25.006  16.529   9.813
 6236W        W71496  42.472  18.470   2.155
 6237W        W71497  44.912  20.020   0.780
 6238W        W71498  42.840  22.584  14.508
 6239W        W71499  25.097  12.704   3.743
 6240W        W71500   0.386   3.178   4.104
 6241W        W71501   3.258   2.991   2.833
 6242W        W71502  33.269  16.677  14.695
 6243W        W71503  16.145   6.965  12.863
 6244W        W71504  15.194   2.599  11.416
 6245W        W71505  14.460   2.330   1.282
 6246W        W71506  44.038  38.009  14.878
 6247W        W71507  23.243   5.187  14.757
 6248W        W71508  22.622   5.217  12.950
 6249W        W71509  10.269   2.237  12.576
 6250W        W71510   1.229  35.137   4.691
 6251W        W71511   2.949   4.480  10.722
 6252W        W71512  33.056  33.157  11.924
 6253W        W71513  11.006   2.076   1.415
 6254W        W71514   3.817  22.681  13.338
 6255W        W71515  21.982  35.916  13.076
 6256W        W71516   0.467  16.958  11.919
 6257W        W71517  23.454  41.805  14.509
 6258W        W71518  31.017  29.174   3.643
 6259W        W71519   2.369   6.176   2.395
 6260W        W71520   7.218   4.915   1.433
 6261W        W71521   9.177  27.114   0.803
 6262W        W71522  33.346  11.664  13.071
 6263W        W71523   1.968  20.352   1.897
 6264W        W71524   6.451  36.031  10.781
 6265W        W71525  22.800  30.398  13.110
 6266W        W71526   4.932  34.605   1.301
 6267W        W71527  14.891  27.086   3.314
 6268W        W71528  40.567   3.108   3.816
 6269W        W71529   0.208   7.069   2.250
 6270W        W71530  37.077  19.160   1.716
 6271W        W71531  42.401  40.583  12.633
 6272W        W71532  28.080   3.051  11.463
 6273W        W71533  11.725  31.338  12.151
 6274W        W71534  17.501   1.268   1.872
 6275W        W71535   9.962   3.619  12.117
 6276W        W71536   8.830  13.883   0.741
 6277W        W71537   5.873   5.805  12.072
 6278W        W71538  25.993   6.998   4.185
 6279W        W71539  30.536   9.010  11.685
 6280W        W71540   4.113  44.725   1.284
 6281W        W71541  10.551  18.252  13.996
 6282W        W71542  16.008   8.940  10.698
 6283W        W71543  15.595  34.121  13.554
 6284W        W71544  23.124  10.278   3.803
 6285W        W71545  38.435   9.457   3.611
 6286W        W71546  15.063  36.910  11.688
 6287W        W71547  24.553  16.741   9.634
 6288W        W71548  21.142  33.168  12.407
 6289W        W71549   3.435  38.997   5.214
 6290W        W71550  23.955  18.437   1.826
 6291W        W71551  16.115  23.034  13.847
 6292W        W71552  26.065   3.911  14.821
 6293W        W71553   8.101  11.347  11.903
 6294W        W71554  19.112  28.079  12.981
 6295W        W71555  41.922  38.736   1.117
 6296W        W71556   1.766  14.108   0.877
 6297W        W71557  12.616  30.493   3.637
 6298W        W71558  12.863  30.230  11.090
 6299W        W71559  16.967  19.015   5.384
 6300W        W71560  21.178   4.453   5.132
 6301W        W71561  17.321  24.266   0.993
 6302W        W71562  33.489  17.939   4.713
 6303W        W71563   2.621   0.360  12.415
 6304W        W71564  32.980  34.514  14.920
 6305W        W71565  33.048  23.698   2.506
 6306W        W71566  43.077   2.330  10.795
 6307W        W71567   3.630  15.696   4.570
 6308W        W71568   1.815  31.528  14.618
 6309W        W71569  38.173  27.106  14.230
 6310W        W71570   6.141  11.167  12.603
 6311W        W71571  23.213  32.583  14.938
 6312W        W71572  43.903  20.473   2.205
 6313W        W71573  35.800  39.548  11.818
 6314W        W71574  35.210   3.327   0.227
 6315W        W71575  13.159  41.801   4.331
 6316W        W71576   9.050   3.188  13.494
 6317W        W71577  43.116  29.681   0.904
 6318W        W71578  33.471   1.711   4.171
 6319W        W71579  11.137  43.987  14.887
 6320W        W71580  10.849   9.168  14.462
 6321W        W71581  27.664  24.721  14.925
 6322W        W71582   5.749  35.378  11.094
 6323W        W71583  10.150   5.200  13.815
 6324W        W71584   1.359  28.254   3.302
 6325W        W71585  37.272  29.086   0.648
 6326W        W71586  38.969  11.800  13.492
 6327W        W71587  25.045  19.774   2.201
 6328W        W71588  32.833  26.682   1.810
 6329W        W71589  14.849  27.531   2.641
 6330W        W71590   4.400   3.988  14.801
 6331W        W71591   0.796  13.841  13.750
 6332W        W71592  11.811  18.208   2.764
 6333W        W71593  24.173  10.378   3.597
 6334W        W71594   7.376  41.938  10.591
 6335W        W71595  41.743  14.053  12.643
 6336W        W71596  43.515  19.525   4.086
 6337W        W71597  16.560  26.963  14.445
 6338W        W71598  28.393  38.264   2.053
 6339W        W71599  36.243  17.278   2.358
 6340W        W71600  33.997  38.541  14.707
 6341W        W71601  26.068   4.940   4.119
 6342W        W71602  34.963  26.752  11.642
 6343W        W71603  23.122   8.897   0.178
 6344W        W71604   6.447   1.184  10.653
 6345W        W71605   6.125  32.433   2.692
 6346W        W71606  35.848  37.504   5.352
 6347W        W71607  11.916   2.699   2.670
 6348W        W71608  25.161  20.192  13.967
 6349W        W71609   6.708   8.313   1.932
 6350W        W71610  36.621  30.708   4.131
 6351W        W71611  36.312  27.019  10.727
 6352W        W71612  40.039   2.474   0.865
 6353W        W71613  14.274  11.151   4.572
 6354W        W71614  17.971   5.985   3.746
 6355W        W71615  40.197   3.230  10.750
 6356W        W71616  31.221  10.950   3.907
 6357W        W71617  33.951  28.209  14.571
 6358W        W71618   7.480  13.839  14.301
 6359W        W71619   7.762  33.377  14.449
 6360W        W71620   3.937  37.336   2.719
 6361W        W71621  21.870  19.046  10.693
 6362W        W71622   5.731   5.449   1.462
 6363W        W71623  20.359  43.378  14.457
 6364W        W71624  31.513  37.927   1.651
 6365W        W71625  19.613  23.196  10.699
 6366W        W71626   1.594  24.533   4.490
 6367W        W71627  38.578  41.498   2.741
 6368W        W71628  34.539   0.733  11.568
 6369W        W71629  12.369   6.108  14.034
 6370W        W71630  20.322  32.867  11.428
 6371W        W71631   4.499  29.630  12.001
 6372W        W71632   4.750  13.159  14.735
 6373W        W71633  34.120  40.312  11.927
 6374W        W71634  29.581  12.605  13.382
 6375W        W71635   5.464  22.428   0.693
 6376W        W71636   0.252  40.881  11.011
 6377W        W71637  16.323  33.922  12.344
 6378W        W71638  39.352   8.001  11.982
 6379W        W71639  14.121  28.034   4.072
 6380W        W71640  30.051  22.710  10.892
 6381W        W71641   8.383  14.147   4.872
 6382W        W71642  25.231  35.658  12.718
 6383W        W71643   5.692   6.316  12.909
 6384W        W71644  22.608  36.767  14.044
 6385W        W71645  25.828  33.634   3.814
 6386W        W71646  36.575  27.189  14.023
 6387W        W71647  25.574  40.320   4.074
 6388W        W71648  37.768   8.430  12.393
 6389W        W71649  43.880  21.135   1.483
 6390W        W71650   0.994  18.116   0.468
 6391W        W71651   7.189   3.296  12.393
 6392W        W71652  16.856  15.169  11.217
 6393W        W71653  24.565  20.436   4.105
 6394W        W71654  28.857  39.708   4.228
 6395W        W71655  26.281  19.629  13.611
 6396W        W71656  28.502  40.900   3.459
 6397W        W71657  28.465  35.803  11.094
 6398W        W71658  32.859  40.396  11.552
 6399W        W71659  31.374   7.323   4.477
 6400W        W71660  33.768  22.599   4.594
 6401W        W71661  15.256  30.494   2.288
 6402W        W71662  42.714  21.218   0.993
 6403W        W71663   1.910  23.202  12.380
 6404W        W71664   8.788  30.862  11.555
 6405W        W71665  12.881  28.366   2.282
 6406W        W71666  34.511   3.582  12.069
 6407W        W71667  26.655  30.054   3.198
 6408W        W71668  26.673  21.147   2.783
 6409W        W71669  33.401  28.724   0.373
 6410W        W71670  19.523  27.383   3.184
 6411W        W71671  22.661   6.457   1.840
 6412W        W71672  19.156  35.582   0.972
 6413W        W71673  11.816  37.606  12.119
 6414W        W71674  34.566  28.609  11.404
 6415W        W71675  29.261  27.484  12.549
 6416W        W71676   4.494  26.585  13.990
 6417W        W71677  40.395  16.729   1.420
 6418W        W71678  18.826  36.363   3.119
 6419W        W71679  14.811  18.266   2.202
 6420W        W71680  12.898   7.653  14.371
 6421W        W71681  28.054  35.505   3.695
 6422W        W71682  21.263   3.191  14.007
 6423W        W71683   8.708  36.326   0.434
 6424W        W71684   6.222  11.009   1.707
 6425W        W71685  11.700   6.415  13.342
 6426W        W71686  22.608  11.667  11.227
 6427W        W71687   6.428   6.557   2.751
 6428W        W71688   0.431  42.888   4.524
 6429W        W71689  17.271   0.365   0.374
 6430W        W71690  36.517   6.117  13.179
 6431W        W71691  18.013  32.227  13.087
 6432W        W71692  13.660  24.362  13.958
 6433W        W71693   3.371  24.313   2.426
 6434W        W71694  13.227  35.907  12.691
 6435W        W71695  12.022  43.237   3.211
 6436W        W71696  16.188  28.621   2.847
 6437W        W71697   5.016  14.538  14.242
 6438W        W71698  35.039  37.384  11.045
 6439W        W71699   8.187  14.190  12.196
 6440W        W71700   2.160  25.448  12.487
 6441W        W71701  19.593  32.336   2.205
 6442W        W71702  42.264  28.459   2.400
 6443W        W71703  31.898  39.487  12.000
 6444W        W71704  30.233  31.136   0.751
 6445W        W71705  26.741  42.618   0.972
 6446W        W71706   9.319  41.598   4.144
 6447W        W71707  38.278  17.579   2.209
 6448W        W71708  36.000  34.879  13.896
 6449W        W71709   4.869  30.389   0.549
 6450W        W71710   4.304  16.604  11.458
 6451W        W71711  26.549  39.895  11.670
 6452W        W71712  17.549   7.305   0.550
 6453W        W71713  32.193  15.526   4.910
 6454W        W71714   9.555  23.060  10.331
 6455W        W71715  37.219  11.811   4.710
 6456W        W71716  17.103  21.572   3.688
 6457W        W71717   4.306  26.674  11.565
 6458W        W71718  27.257  11.820  12.054
 6459W        W71719  40.934  36.658   1.181
 6460W        W71720  35.464   5.330  14.146
 6461W        W71721  17.170  14.739   1.578
 6462W        W71722  44.960  27.418  12.954
 6463W        W71723  17.260  13.971   3.743
 6464W        W71724  13.340  33.734   9.533
 6465W        W71725   2.789  33.567  11.889
 6466W        W71726  27.452  18.632  14.389
 6467W        W71727  24.451  27.624  13.857
 6468W        W71728  31.774  13.741   1.803
 6469W        W71729  26.604   8.656   0.740
 6470W        W71730   8.738  34.215   1.485
 6471W        W71731  10.091  39.863   2.331
 6472W        W71732  21.615  31.249  12.299
 6473W        W71733  40.313  40.418   1.003
 6474W        W71734  25.250  37.878   0.053
 6475W        W71735  42.625  12.167  14.410
 6476W        W71736   2.179  31.838  14.892
 6477W        W71737  12.796  36.174   0.828
 6478W        W71738  28.209  41.281  10.862
 6479W        W71739   9.816   9.245   3.587
 6480W        W71740  28.843   6.252  13.725
 6481W        W71741  25.772  12.138   2.718
 6482W        W71742   6.292  28.938   0.004
 6483W        W71743  27.165   6.616   3.161
 6484W        W71744  23.212   0.768   0.245
 6485W        W71745  28.167  11.490  11.681
 6486W        W71746  13.246  31.426  10.444
 6487W        W71747   5.834  14.204   4.821
 6488W        W71748   6.230  39.884   0.744
 6489W        W71749  39.085   0.288  13.457
 6490W        W71750   3.739  36.133  11.043
 6491W        W71751  16.156   7.411  10.661
 6492W        W71752  30.055   2.489  13.285
 6493W        W71753  23.482  18.009   2.684
 6494W        W71754   2.759  19.297   3.162
 6495W        W71755   9.794  25.132   0.825
 6496W        W71756  30.955  30.680  14.763
 6497W        W71757  15.047  40.757  12.110
 6498W        W71758   5.632  38.482  14.809
 6499W        W71759  21.535   1.076  12.527
 6500W        W71760   0.920  28.501  14.458
 6501W        W71761  32.180  12.169   3.721
 6502W        W71762  26.921  34.467   0.002
 6503W        W71763  29.258  34.945   0.750
 6504W        W71764  22.851  28.999   2.897
 6505W        W71765  33.938  42.265  13.127
 6506W        W71766  29.947   1.032  10.711
 6507W        W71767  35.128  16.377   4.155
 6508W        W71768  44.258   8.528  10.247
 6509W        W71769  42.042  31.741   2.882
 6510W        W71770  36.262  15.117  14.066
 6511W        W71771  18.534  36.563   1.624
 6512W        W71772  19.112  33.544   1.884
 6513W        W71773  36.858  37.807  12.920
 6514W        W71774  13.399  44.813  11.708
 6515W        W71775  10.616  14.182  14.812
 6516W        W71776  19.820   0.825  14.284
 6517W        W71777   9.618  27.984  11.203
 6518W        W71778  24.665  25.455  14.496
 6519W        W71779  12.660  28.793  12.634
 6520W        W71780  23.743  44.283   3.823
 6521W        W71781  44.816   8.153  12.515
 6522W        W71782  41.541   8.731   0.324
 6523W        W71783  13.073  11.706   1.062
 6524W        W71784  30.053  15.805  12.933
 6525W        W71785  40.815  38.166  12.607
 6526W        W71786  16.601   5.190   0.635
 6527W        W71787  43.713   0.879   0.860
 6528W        W71788   7.984  16.553   1.028
 6529W        W71789  41.539  12.793   1.370
 6530W        W71790  27.378  17.584   0.917
 6531W        W71791  35.134  25.794  14.159
 6532W        W71792  36.775  43.328   3.171
 6533W        W71793  13.636   5.785  14.799
 6534W        W71794  16.387  41.897  13.400
 6535W        W71795  41.732  27.502   4.641
 6536W        W71796  20.267  20.026  14.884
 6537W        W71797  15.558  20.047  11.912
 6538W        W71798  21.112   0.507   3.671
 6539W        W71799  21.004  34.701  10.662
 6540W        W71800   4.914  15.356  10.699
 6541W        W71801  19.117   0.856  13.506
 6542W        W71802  37.904   3.038   0.745
 6543W        W71803  41.014  27.943   4.638
 6544W        W71804  21.433  20.067   3.792
 6545W        W71805  26.051  33.366  14.787
 6546W        W71806  44.612  27.001   1.081
 6547W        W71807   5.012  31.162   2.823
 6548W        W71808  15.195  12.697   4.581
 6549W        W71809  41.832  11.986  14.737
 6550W        W71810  25.951   6.814  13.501
 6551W        W71811   3.347  36.282  13.532
 6552W        W71812  29.217   9.821   1.010
 6553W        W71813  44.401  28.589   3.320
 6554W        W71814  43.769  23.542  13.156
 6555W        W71815   9.027  32.376  13.254
 6556W        W71816  30.073  18.857  12.472
 6557W        W71817  35.276  26.029   0.673
 6558W        W71818  28.156  37.398  11.940
 6559W        W71819   6.894  17.553  12.969
 6560W        W71820  15.794  14.810   1.379
 6561W        W71821   0.990  20.510   0.282
 6562W        W71822  30.652  13.278  11.174
 6563W        W71823   2.007   9.245   0.015
 6564W        W71824  34.997  35.277   4.209
 6565W        W71825  22.268  16.252   0.919
 6566W        W71826  11.778  29.179   2.901
 6567W        W71827  22.742   9.014   4.161
 6568W        W71828  28.347  32.597  14.786
 6569W        W71829  13.414  12.177   3.265
 6570W        W71830  18.082   0.945   1.317
 6571W        W71831  25.178  17.782   0.216
 6572W        W71832  23.037  34.733   5.351
 6573W        W71833  43.848   0.371  10.657
 6574W        W71834  40.949  41.746  10.725
 6575W        W71835  30.815  16.265   4.144
 6576W        W71836   7.820  11.368  12.958
 6577W        W71837  31.718   2.298  13.925
 6578W        W71838  43.926   6.884   3.764
 6579W        W71839   3.370  44.520  14.823
 6580W        W71840  40.421  34.023   4.389
 6581W        W71841  21.538  21.760  13.074
 6582W        W71842  21.754   5.889  10.992
 6583W        W71843  27.743  28.499  10.573
 6584W        W71844  32.708  19.528   3.690
 6585W        W71845  38.875  39.497  13.324
 6586W        W71846  42.514  32.011   3.391
 6587W        W71847  28.663  36.907   2.107
 6588W        W71848  27.885   1.772  10.873
 6589W        W71849  21.545  27.537  10.694
 6590W        W71850  29.396  12.347  14.893
 6591W        W71851  19.157  34.637   3.125
 6592W        W71852  34.285  25.695  12.520
 6593W        W71853  40.841  15.901   3.127
 6594W        W71854  36.082  33.193   3.786
 6595W        W71855   7.228  15.495   1.611
 6596W        W71856  15.846  39.481   2.627
 6597W        W71857  31.902   5.182   1.716
 6598W        W71858   9.799  10.714  10.319
 6599W        W71859  39.060  25.666   3.658
 6600W        W71860  40.320  24.000  13.304
 6601W        W71861  27.472  24.782  13.862
 6602W        W71862  24.003  22.725  11.036
 6603W        W71863   2.964  18.226  14.721
 6604W        W71864   7.574  15.754  13.885
 6605W        W71865  40.998  19.346  12.485
 6606W        W71866  39.081  11.989  13.027
 6607W        W71867  14.826  15.202  13.841
 6608W        W71868  43.000  15.172   2.821
 6609W        W71869   5.480  22.694  10.670
 6610W        W71870  13.913  43.491  14.630
 6611W        W71871  36.539  13.836  13.441
 6612W        W71872  36.725   7.497   2.212
 6613W        W71873  16.771   3.960  14.731
 6614W        W71874   5.184  10.956   0.933
 6615W        W71875  33.788  32.896   2.854
 6616W        W71876  28.429  26.750  12.747
 6617W        W71877  21.526  19.795  11.044
 6618W        W71878  24.064   0.917   2.553
 6619W        W71879  24.735   7.757   0.953
 6620W        W71880   7.428   9.439  11.359
 6621W        W71881  17.624   5.204  10.943
 6622W        W71882  10.908  11.408   2.309
 6623W        W71883  17.157  39.699   3.701
 6624W        W71884  36.530  20.233   3.857
 6625W        W71885  31.120   2.675  11.957
 6626W        W71886  40.377  40.506  14.944
 6627W        W71887  24.018  16.281   1.248
 6628W        W71888   8.322  30.619  11.561
 6629W        W71889  36.023  31.161   2.319
 6630W        W71890  19.501  37.761  12.890
 6631W        W71891  35.672  11.244  12.069
 6632W        W71892   5.783  39.238   0.349
 6633W        W71893  14.542  17.876   4.093
 6634W        W71894  12.326   6.756   1.713
 6635W        W71895  26.178   2.467  13.362
 6636W        W71896  15.799   5.526   1.232
 6637W        W71897  17.113  34.230   5.007
 6638W        W71898   0.433   7.971   0.236
 6639W        W71899  44.426  19.343   0.436
 6640W        W71900  12.913  17.467  12.961
 6641W        W71901  28.346  40.216  11.558
 6642W        W71902  19.230   9.430  14.401
 6643W        W71903  39.882  26.614   4.606
 6644W        W71904  29.090  12.858  13.293
 6645W        W71905  10.634  11.292  11.956
 6646W        W71906   8.852  24.336   3.289
 6647W        W71907  32.278  41.885  14.347
 6648W        W71908  21.997  27.090   1.314
 6649W        W71909   3.886   2.797  11.606
 6650W        W71910  32.827  37.680   1.313
 6651W        W71911  29.158  25.469   3.346
 6652W        W71912  35.782   2.371  13.277
 6653W        W71913  28.448  10.870  13.899
 6654W        W71914   3.913  36.511  12.015
 6655W        W71915   7.731  25.171   2.534
 6656W        W71916  26.418  21.724   0.781
 6657W        W71917  44.582  10.499  10.238
 6658W        W71918  14.357  23.268  11.554
 6659W        W71919  21.819  21.854  11.852
 6660W        W71920  42.005  33.610   2.557
 6661W        W71921   6.902  14.251  13.496
 6662W        W71922  40.533  37.117   4.896
 6663W        W71923  44.353  21.073  10.810
 6664W        W71924  44.969  15.361  12.464
 6665W        W71925  16.744  36.802   0.040
 6666W        W71926  23.878  17.747  13.070
 6667W        W71927  24.520  10.304   4.207
 6668W        W71928  19.158  42.206   4.265
 6669W        W71929  23.437  37.891  11.729
 6670W        W71930  15.842  25.141   4.102
 6671W        W71931  43.011  32.454  14.254
 6672W        W71932   6.896  26.650   3.729
 6673W        W71933   6.375  42.793  12.019
 6674W        W71934  31.020   3.660  10.537
 6675W        W71935  11.228  35.462   2.596
 6676W        W71936   4.718  39.814   0.419
 6677W        W71937  11.714  12.842  14.921
 6678W        W71938  20.792   1.009  14.771
 6679W        W71939  32.123  38.363   3.114
 6680W        W71940  12.324  25.405  10.882
 6681W        W71941  42.026  16.008  11.174
 6682W        W71942   8.953  33.603   4.269
 6683W        W71943  40.715  14.051  11.157
 6684W        W71944  28.203  30.123   4.601
 6685W        W71945  21.140  20.246  12.213
 6686W        W71946  27.206  11.075  14.335
 6687W        W71947  11.309  29.486   0.223
 6688W        W71948  41.349  25.690   0.393
 6689W        W71949   5.331  19.626   1.282
 6690W        W71950   6.180  25.664  14.595
 6691W        W71951  37.502  29.945  12.080
 6692W        W71952  13.093  13.686  12.118
 6693W        W71953  39.616  34.972   3.331
 6694W        W71954  10.045  22.677  12.105
 6695W        W71955  25.450  33.972   0.368
 6696W        W71956   5.963  40.019   2.573
 6697W        W71957  44.274   2.570  10.572
 6698W        W71958  37.023   3.924   4.474
 6699W        W71959  35.976  34.168  12.971
 6700W        W71960  10.283  43.840  10.677
 6701W        W71961  25.294  26.057   0.977
 6702W        W71962  43.653   2.077   1.335
 6703W        W71963  41.803  18.152  14.501
 6704W        W71964   5.719  13.037  13.034
 6705W        W71965  12.510  21.820   2.243
 6706W        W71966  39.222  10.781  11.570
 6707W        W71967  16.027  34.085   0.300
 6708W        W71968  31.206  11.162  10.758
 6709W        W71969  27.299   4.777  12.999
 6710W        W71970  14.279   7.380   3.155
 6711W        W71971   8.247   1.607  12.380
 6712W        W71972  13.030   8.644   0.756
 6713W        W71973  16.382  43.548   1.205
 6714W        W71974  19.683  17.653   0.461
 6715W        W71975  21.762  15.585   3.840
 6716W        W71976  28.136   6.211  14.906
 6717W        W71977  17.387  12.262   1.508
 6718W        W71978  40.237  10.141   2.742
 6719W        W71979  28.967  20.614  12.589
 6720W        W71980   3.035  18.866   2.246
 6721W        W71981  15.306  24.542  13.264
 6722W        W71982  17.764  31.957  13.965
 6723W        W71983   0.971   1.268   2.433
 6724W        W71984  39.309  15.265   3.341
 6725W        W71985  43.513  43.800   0.254
 6726W        W71986   0.830  36.302   3.734
 6727W        W71987  36.043  43.370   4.060
 6728W        W71988  33.862  21.194   2.167
 6729W        W71989  15.295  14.480   0.732
 6730W        W71990  30.797  44.496   2.692
 6731W        W71991  10.571  10.250   0.671
 6732W        W71992   4.325  35.559   4.716
 6733W        W71993  32.961  39.525   1.480
 6734W        W71994  40.920  29.658   3.268
 6735W        W71995  13.687   5.374  13.732
 6736W        W71996   4.736  13.390   1.766
 6737W        W71997  18.699  10.774  12.444
 6738W        W71998   2.358  27.570  14.251
 6739W        W71999  39.597  37.449  13.617
 6740W        W72000  11.676  43.503   4.313
 6741W        W72001  29.416  12.767  11.689
 6742W        W72002   2.334   4.780  12.064
 6743W        W72003  23.751  25.762   1.283
 6744W        W72004  36.029   6.119   3.791
 6745W        W72005   5.867  36.652  10.905
 6746W        W72006  21.678  14.913  13.515
 6747W        W72007  39.528  33.795   4.199
 6748W        W72008  13.240  12.108   4.125
 6749W        W72009   8.301  16.451  13.075
 6750W        W72010   9.833  22.763  13.494
 6751W        W72011  13.406  25.303  12.041
 6752W        W72012  34.951  39.622  11.668
 6753W        W72013   3.796  23.070   0.337
 6754W        W72014  34.063  12.109   4.919
 6755W        W72015  20.471  44.092  10.795
 6756W        W72016  43.348  29.300   1.417
 6757W        W72017  25.788  21.311  12.914
 6758W        W72018  24.619  11.179  11.733
 6759W        W72019  32.013   7.313   0.346
 6760W        W72020  25.103  23.933   0.519
 6761W        W72021  39.257  43.557  12.958
 6762W        W72022  39.304   9.048  13.206
 6763W        W72023  23.546  39.410   0.948
 6764W        W72024  26.524  35.396  12.453
 6765W        W72025  30.102  37.217  11.591
 6766W        W72026  20.198  14.878  13.477
 6767W        W72027  35.847  20.628   4.094
 6768W        W72028  16.034  10.468  14.616
 6769W        W72029  23.799   7.449   4.659
 6770W        W72030   4.165   0.477  14.730
 6771W        W72031   4.541   4.508  11.601
 6772W        W72032  35.811  31.407  11.927
 6773W        W72033   7.922  39.271   0.482
 6774W        W72034  42.746  22.484   2.378
 6775W        W72035  40.751  30.533   2.254
 6776W        W72036  21.603  22.073   1.439
 6777W        W72037   1.373  10.384  12.751
 6778W        W72038  22.737  30.640   0.839
 6779W        W72039  39.923  13.436  12.517
 6780W        W72040  36.833  12.633  14.805
 6781W        W72041  36.366  13.798   4.602
 6782W        W72042  31.957  35.424   4.517
 6783W        W72043  20.979  36.932   4.203
 6784W        W72044   8.488  13.014   3.687
 6785W        W72045   7.262  12.471  11.091
 6786W        W72046  27.686  27.884  12.147
 6787W        W72047   0.550  24.381  13.525
 6788W        W72048  18.103  10.863  14.531
 6789W        W72049  37.827  15.798  11.689
 6790W        W72050  44.901  17.265  14.559
 6791W        W72051  29.846   0.864   4.545
 6792W        W72052  19.503  13.304   2.327
 6793W        W72053  23.702  33.561  10.704
 6794W        W72054  16.493   2.671  11.485
 6795W        W72055  40.036  22.174  14.927
 6796W        W72056  31.222  40.894  13.078
 6797W        W72057  34.577  29.403   3.791
 6798W        W72058  17.870   9.582   2.874
 6799W        W72059  25.005  29.254   3.613
 6800W        W72060  43.475  42.788  14.933
 6801W        W72061  27.995  13.801   3.234
 6802W        W72062  43.644  44.322   1.339
 6803W        W72063   4.743  24.214  13.034
 6804W        W72064  35.360  30.145   1.972
 6805W        W72065  33.573  35.397  14.784
 6806W        W72066  13.286  33.703   1.767
 6807W        W72067   0.240  20.455  14.393
 6808W        W72068   9.741  37.861  12.331
 6809W        W72069  15.038   9.117  11.494
 6810W        W72070   0.697  13.746   4.046
 6811W        W72071  33.014  33.856  10.554
 6812W        W72072  36.288  34.238  11.547
 6813W        W72073  23.716  35.526  11.669
 6814W        W72074  43.527  32.827   1.164
 6815W        W72075  34.691  43.187   2.679
 6816W        W72076  37.875   4.138  10.672
 6817W        W72077  33.123   1.267  12.464
 6818W        W72078  23.695  10.154   3.633
 6819W        W72079  27.014   4.937   1.830
 6820W        W72080   2.585   3.561   4.796
 6821W        W72081  18.045   2.266   2.302
 6822W        W72082  42.899  36.335  12.638
 6823W        W72083  37.533   6.357   2.293
 6824W        W72084  22.226  28.453   2.893
 6825W        W72085   1.745  25.489  12.805
 6826W        W72086  17.197   3.407  14.091
 6827W        W72087   2.546   6.355   1.943
 6828W        W72088   6.187   5.678   0.452
 6829W        W72089  35.099  23.732  10.090
 6830W        W72090  34.972  28.153  11.963
 6831W        W72091  14.319  41.397   3.322
 6832W        W72092  37.061  27.431   1.167
 6833W        W72093  24.762  13.514   1.316
 6834W        W72094  32.361   3.353  12.341
 6835W        W72095  24.308  44.820   1.345
 6836W        W72096  23.560  44.850  13.176
 6837W        W72097  15.631  10.799   3.731
 6838W        W72098  29.775   4.302   1.298
 6839W        W72099  31.475  32.566  13.383
 6840W        W72100  41.681  20.546  14.385
 6841W        W72101   1.786  35.543   4.850
 6842W        W72102  40.348  18.297  13.966
 6843W        W72103  37.050  10.610  11.023
 6844W        W72104  21.050  12.070  13.643
 6845W        W72105   2.452   8.963  11.616
 6846W        W72106  13.156  40.257  14.720
 6847W        W72107   6.679  37.532  14.306
 6848W        W72108  33.595  23.202   4.076
 6849W        W72109  35.517  28.631   0.261
 6850W        W72110  39.608   3.759  13.558
 6851W        W72111  12.732   5.179   1.427
 6852W        W72112  44.786  27.483   3.259
 6853W        W72113  15.667  43.934  14.510
 6854W        W72114  39.095  28.034  11.914
 6855W        W72115  16.809  18.640  10.296
 6856W        W72116   9.814   9.864   2.027
 6857W        W72117  18.620  27.411  12.011
 6858W        W72118   8.021  26.106   0.441
 6859W        W72119  31.475  30.585   2.023
 6860W        W72120   2.062  23.446   1.180
 6861W        W72121   1.028   7.275   3.767
 6862W        W72122  29.627  35.264   4.108
 6863W        W72123   8.325   1.057  13.946
 6864W        W72124   0.475  14.778   1.847
 6865W        W72125  35.441  40.305   0.189
 6866W        W72126   4.099  14.086   1.243
 6867W        W72127  12.879  36.833   3.052
 6868W        W72128  12.290  41.815   4.614
 6869W        W72129   7.490  41.589   0.924
 6870W        W72130  43.953  23.755   1.852
 6871W        W72131  12.269  32.554   2.475
 6872W        W72132   7.197   4.828  10.723
 6873W        W72133   1.094  10.333   3.203
 6874W        W72134  39.284  38.835  12.036
 6875W        W72135  29.352   2.939   4.350
 6876W        W72136  42.551  21.931  12.629
 6877W        W72137  37.791   5.029   1.057
 6878W        W72138  27.426  31.957  10.714
 6879W        W72139  40.987   1.032   3.155
 6880W        W72140  42.606  24.596  12.553
 6881W        W72141  25.633  30.564  11.233
 6882W        W72142  15.451  37.602  12.030
 6883W        W72143   7.706  42.583  11.018
 6884W        W72144  40.796  20.271  10.649
 6885W        W72145  19.316   0.830   1.787
 6886W        W72146  12.093   4.950  11.192
 6887W        W72147  33.180  34.050  12.910
 6888W        W72148   0.297  15.164   0.436
 6889W        W72149  17.610  39.885   0.530
 6890W        W72150  15.372  36.984   1.862
 6891W        W72151  30.217  17.379  14.991
 6892W        W72152  12.359   3.753   3.583
 6893W        W72153  33.628  25.431   0.207
 6894W        W72154  15.162  37.067   2.354
 6895W        W72155   5.972   0.053   2.318
 6896W        W72156  37.027  15.248  14.308
 6897W        W72157  11.184  41.954   3.010
 6898W        W72158  32.847  37.883   4.133
 6899W        W72159  40.466  13.568  10.703
 6900W        W72160  32.002  14.369  13.499
 6901W        W72161  15.323   5.297  12.180
 6902W        W72162  14.558   6.715   2.385
 6903W        W72163  11.655   3.922   4.852
 6904W        W72164  24.703   2.784   1.772
 6905W        W72165  32.124  27.596   4.461
 6906W        W72166  10.338  13.840   3.744
 6907W        W72167  33.863   1.341   4.239
 6908W        W72168  10.110  23.040  11.391
 6909W        W72169   3.694   3.078   3.238
 6910W        W72170  44.767  28.504  13.831
 6911W        W72171   3.950  28.378  11.234
 6912W        W72172   0.962  25.574   2.676
 6913W        W72173  21.569   0.583  12.398
 6914W        W72174  15.047  42.117   2.873
 6915W        W72175  33.004  17.319   0.897
 6916W        W72176   8.616  23.683  14.350
 6917W        W72177   3.332  37.952  13.339
 6918W        W72178  10.122  10.133   3.678
 6919W        W72179  36.139   7.881  11.985
 6920W        W72180   9.489   2.831  11.015
 6921W        W72181  28.624  22.872  13.997
 6922W        W72182   1.929  44.683   0.783
 6923W        W72183  14.135  31.170   2.624
 6924W        W72184  14.849   5.945  14.777
 6925W        W72185  19.028  36.507  14.588
 6926W        W72186  32.371   6.676   1.713
 6927W        W72187  34.468  23.972   3.699
 6928W        W72188  39.364  35.070  10.301
 6929W        W72189  40.214   4.358  13.844
 6930W        W72190  34.111   5.404  10.889
 6931W        W72191  11.729   7.431   4.018
 6932W        W72192  11.857  33.232  13.048
 6933W        W72193   4.577  14.100   2.834
 6934W        W72194  12.225  25.481   4.269
 6935W        W72195  29.382  15.743   3.863
 6936W        W72196  17.229   4.383   3.162
 6937W        W72197  36.083   0.496  12.980
 6938W        W72198   5.449  40.020  14.977
 6939W        W72199  42.982  18.920   1.594
 6940W        W72200  15.150  23.823  10.661
 6941W        W72201  13.322  20.500   4.614
 6942W        W72202  37.984  31.145   4.397
 6943W        W72203  17.644  23.044  10.937
 6944W        W72204  12.207  36.920   1.785
 6945W        W72205   8.998  19.208  11.972
 6946W        W72206  43.930   9.481  13.131
 6947W        W72207   4.733   3.333  12.317
 6948W        W72208  37.670  33.715  14.281
 6949W        W72209  26.459   1.817  12.008
 6950W        W72210  34.179  24.099  12.225
 6951W        W72211  38.344   3.440   2.169
 6952W        W72212  40.902   2.785  14.266
 6953W        W72213   7.826  38.115  12.610
 6954W        W72214  34.161  29.120   1.353
 6955W        W72215  12.645  39.596   0.813
 6956W        W72216  12.167  35.491   4.576
 6957W        W72217  44.381   9.898  10.727
 6958W        W72218  41.729  13.383  13.847
 6959W        W72219   4.349  44.297   2.040
 6960W        W72220  30.165  10.415  10.040
 6961W        W72221   3.282  38.100  12.487
 6962W        W72222  29.490  11.835  11.547
 6963W        W72223  21.225  16.734   3.664
 6964W        W72224   5.363  23.277   4.457
 6965W        W72225  30.347  30.720   2.649
 6966W        W72226  41.966  16.233  13.542
 6967W        W72227  36.969  40.344  12.484
 6968W        W72228  19.920   1.972  10.390
 6969W        W72229  36.821  31.082   3.682
 6970W        W72230  34.011  10.641  13.512
 6971W        W72231  44.778  31.396   4.285
 6972W        W72232  21.775  17.332  13.886
 6973W        W72233  41.403  34.798   3.402
 6974W        W72234  11.325  38.767   2.243
 6975W        W72235  23.569  26.592   4.600
 6976W        W72236  42.275   4.790   1.776
 6977W        W72237  25.923  39.747  12.411
 6978W        W72238   9.360  24.239   3.359
 6979W        W72239  36.865  22.116  14.256
 6980W        W72240   4.038  18.263  13.433
 6981W        W72241   9.859  36.906  12.406
 6982W        W72242  29.250  13.605  10.674
 6983W        W72243   7.192  17.296   1.845
 6984W        W72244  34.698   6.997   2.761
 6985W        W72245   4.232  32.358   4.565
 6986W        W72246  24.008  37.582  14.289
 6987W        W72247  32.476  19.790   1.506
 6988W        W72248  34.419   1.089   5.377
 6989W        W72249  32.390  15.355  13.076
 6990W        W72250  30.420   9.769   0.310
 6991W        W72251  43.308  18.143  11.956
 6992W        W72252   6.141  35.694   0.165
 6993W        W72253  35.972  39.440   3.857
 6994W        W72254  20.606  30.451   3.316
 6995W        W72255  34.971   6.337  12.817
 6996W        W72256  42.331  35.867   3.625
 6997W        W72257  12.219  43.050  10.670
 6998W        W72258  25.471  37.303  12.070
 6999W        W72259  34.457  12.174   0.901
 7000W        W72260   0.945  17.155  12.452
 7001W        W72261  26.486   2.005   1.253
 7002W        W72262  13.821   7.485   2.446
 7003W        W72263  24.506  26.203   3.756
 7004W        W72264  21.725  24.001  13.565
 7005W        W72265  16.996  42.409  11.552
 7006W        W72266   0.797  14.266   3.209
 7007W        W72267  22.651  37.600   2.448
 7008W        W72268  39.631   3.422  13.949
 7009W        W72269  30.918  41.417   5.015
 7010W        W72270  22.550  18.871   1.795
 7011W        W72271  22.044  14.711   4.896
 7012W        W72272  10.892   6.310   0.821
 7013W        W72273  38.342  20.425  13.563
 7014W        W72274   3.692  12.251   1.354
 7015W        W72275  20.547  24.758   0.878
 7016W        W72276  15.313   0.035  13.933
 7017W        W72277   8.589  29.208   2.546
 7018W        W72278  21.340  24.443   2.322
 7019W        W72279   8.751   7.498  10.600
 7020W        W72280  23.427  43.846  12.973
 7021W        W72281  14.111  17.738   1.863
 7022W        W72282  21.804  19.918   2.818
 7023W        W72283  31.909   7.411  11.695
 7024W        W72284   7.148  28.326  14.418
 7025W        W72285  32.567  11.191  10.532
 7026W        W72286   1.421  22.438   2.941
 7027W        W72287  39.427  33.901  14.358
 7028W        W72288   7.172  31.568   4.605
 7029W        W72289   4.904  28.389  14.768
 7030W        W72290   2.784   8.813   3.267
 7031W        W72291  29.981  17.055  11.430
 7032W        W72292  21.504  19.561   9.766
 7033W        W72293   9.629   8.768  10.763
 7034W        W72294  28.568  13.396   0.768
 7035W        W72295  37.539  36.760  13.556
 7036W        W72296  20.572  35.966   9.732
 7037W        W72297  44.132  38.504  12.308
 7038W        W72298  43.062  30.629   3.799
 7039W        W72299  29.303  20.007  11.997
 7040W        W72300  20.238   8.343  10.461
 7041W        W72301  38.991  26.930  12.937
 7042W        W72302  43.981  25.282  14.344
 7043W        W72303  39.606   9.734  12.594
 7044W        W72304  32.272  23.633   0.113
 7045W        W72305  27.227   2.782  11.941
 7046W        W72306  14.083  21.329   1.527
 7047W        W72307  37.150  23.078   0.290
 7048W        W72308   2.667  22.272  12.554
 7049W        W72309  32.080  40.949   0.663
 7050W        W72310   6.315  33.376  10.728
 7051W        W72311  35.108  15.836   2.243
 7052W        W72312  38.770  42.894  11.598
 7053W        W72313  39.956  23.770  14.360
 7054W        W72314  36.862   7.622  11.571
 7055W        W72315  39.915  11.358   2.304
 7056W        W72316  26.670   9.212  13.440
 7057W        W72317   0.192  18.521   5.033
 7058W        W72318  38.488  40.885   0.854
 7059W        W72319  20.555  14.629  10.915
 7060W        W72320   1.213  21.101  13.076
 7061W        W72321  35.913   5.407  14.986
 7062W        W72322  34.927   3.434   3.663
 7063W        W72323  34.359  16.246   0.716
 7064W        W72324  40.552  38.897  10.344
 7065W        W72325  32.861  16.228   1.378
 7066W        W72326  12.743   1.925  11.879
 7067W        W72327  16.276  28.960   2.038
 7068W        W72328  15.219  42.625  12.673
 7069W        W72329  32.296   5.737  10.260
 7070W        W72330  21.224  21.938  12.664
 7071W        W72331   6.579  39.043  10.772
 7072W        W72332  40.874  30.410  12.313
 7073W        W72333   2.454  38.342  14.064
 7074W        W72334  10.319  42.389   1.485
 7075W        W72335  25.283  20.601   4.520
 7076W        W72336  17.110  36.696  12.287
 7077W        W72337  23.229  35.957   2.201
 7078W        W72338  17.076  22.298  14.958
 7079W        W72339   5.641  24.467   3.850
 7080W        W72340  19.002  40.834   1.699
 7081W        W72341  34.989  12.630  13.868
 7082W        W72342  21.684  40.465   2.210
 7083W        W72343  11.082  27.230  14.947
 7084W        W72344   1.377  42.790  14.763
 7085W        W72345  42.420  27.950  10.646
 7086W        W72346  11.434  24.242   1.710
 7087W        W72347   8.140  31.990   0.004
 7088W        W72348  24.617   0.473  11.855
 7089W        W72349  36.406  20.811  14.390
 7090W        W72350   1.950  16.305   2.129
 7091W        W72351  41.512  25.104  11.833
 7092W        W72352  42.698  29.613  11.448
 7093W        W72353  42.503  24.670   1.614
 7094W        W72354  33.992  43.494   2.313
 7095W        W72355  41.356   7.225   0.873
 7096W        W72356   3.446  24.513  14.919
 7097W        W72357  32.267  29.225  12.018
 7098W        W72358  21.634   8.362  12.919
 7099W        W72359  20.041  10.786   2.115
 7100W        W72360  11.379  14.722   2.203
 7101W        W72361  44.088  40.282  11.911
 7102W        W72362   7.305  35.960  11.396
 7103W        W72363  33.636   3.771  12.596
 7104W        W72364  42.056   5.681   1.465
 7105W        W72365  27.306  21.740  12.928
 7106W        W72366  11.049   0.606   1.266
 7107W        W72367  10.693  44.842   2.609
 7108W        W72368   4.251  27.481  13.422
 7109W        W72369  43.940  24.970   2.315
 7110W        W72370   2.537   5.725  12.561
 7111W        W72371  29.149  35.053   3.971
 7112W        W72372   1.764  24.945   4.121
 7113W        W72373  39.320  31.490  12.504
 7114W        W72374  37.363  39.683   2.499
 7115W        W72375   1.632   9.661  13.933
 7116W        W72376  33.638  34.545   5.036
 7117W        W72377  41.356  18.495  10.536
 7118W        W72378  24.510  26.048  14.237
 7119W        W72379  11.822  42.187   4.066
 7120W        W72380  34.324  28.425  14.135
 7121W        W72381  43.515  39.297   4.307
 7122W        W72382  33.895  11.108  13.727
 7123W        W72383  25.684  32.180  14.326
 7124W        W72384   7.945  36.396   3.244
 7125W        W72385  33.857  38.964   3.712
 7126W        W72386  43.470   1.268  11.414
 7127W        W72387  21.736  39.850   0.823
 7128W        W72388   9.396   2.779   2.910
 7129W        W72389  38.039  39.274  11.657
 7130W        W72390  23.562  28.671   2.241
 7131W        W72391  34.857   4.453  12.078
 7132W        W72392   1.052  27.104  14.558
 7133W        W72393  13.690  22.032  11.513
 7134W        W72394  44.334  17.265  11.402
 7135W        W72395  44.236   2.499  13.434
 7136W        W72396  32.582  18.151   0.783
 7137W        W72397  31.387  34.418   1.191
 7138W        W72398  17.107  30.675  10.186
 7139W        W72399   7.788   3.701   4.362
 7140W        W72400   4.920  37.533   2.786
 7141W        W72401   5.793  25.646  11.829
 7142W        W72402  38.936  23.899   1.131
 7143W        W72403   4.933   1.526   3.849
 7144W        W72404   6.200  13.874  11.538
 7145W        W72405  30.281  16.296   4.135
 7146W        W72406  42.462   5.759   1.882
 7147W        W72407  13.306  26.983   4.270
 7148W        W72408   5.819  20.400   0.393
 7149W        W72409  20.691  43.927  12.591
 7150W        W72410  37.924   6.416   0.456
 7151W        W72411  25.790  31.950  10.620
 7152W        W72412  16.989   8.820   5.086
 7153W        W72413  25.366  17.137   2.801
 7154W        W72414  33.852  32.629  14.314
 7155W        W72415   9.599   4.927   0.862
 7156W        W72416  41.083  25.145   0.833
 7157W        W72417  32.027  31.466  10.216
 7158W        W72418  28.391  44.111  13.881
 7159W        W72419   9.732  30.664   0.391
 7160W        W72420  40.434  15.125   4.063
 7161W        W72421  31.422  30.425   3.560
 7162W        W72422  23.191   0.937   4.217
 7163W        W72423  23.141   7.694   1.993
 7164W        W72424  35.571   5.889   1.945
 7165W        W72425  18.604   9.778   4.954
 7166W        W72426  39.123  21.620   0.561
 7167W        W72427   3.096  11.268  10.248
 7168W        W72428   6.475  44.057  11.408
 7169W        W72429   7.074   4.243   2.638
 7170W        W72430  43.890   8.690   4.381
 7171W        W72431   9.164  10.087   5.097
 7172W        W72432  16.861   8.892  11.989
 7173W        W72433  43.297  37.237   4.142
 7174W        W72434  41.563   1.252  12.421
 7175W        W72435  31.490  42.563   1.911
 7176W        W72436  37.961  37.182  12.926
 7177W        W72437  42.799  43.240  13.102
 7178W        W72438  26.936  20.018  12.574
 7179W        W72439  41.891  24.863  12.067
 7180W        W72440   2.964  40.267  12.216
 7181W        W72441  35.503  37.444  10.781
 7182W        W72442  39.322  15.348  10.942
 7183W        W72443  43.314  39.421   2.693
 7184W        W72444  31.306   0.570  10.803
 7185W        W72445   4.988  38.819   1.182
 7186W        W72446   6.416  31.013   2.600
 7187W        W72447  27.193  26.657   4.168
 7188W        W72448   4.963  30.072  13.871
 7189W        W72449  20.165   2.269  14.864
 7190W        W72450   2.408  18.685  13.814
 7191W        W72451  44.071  17.557   0.497
 7192W        W72452  10.914   2.858   2.760
 7193W        W72453  33.221  21.779  14.318
 7194W        W72454  39.301  40.375   2.091
 7195W        W72455  41.553   8.707   2.290
 7196W        W72456  29.613  43.726   1.691
 7197W        W72457  12.128  28.391   3.300
 7198W        W72458   8.566   5.718   2.246
 7199W        W72459  40.009   1.030   0.470
 7200W        W72460   1.213  32.616   3.672
 7201W        W72461  33.044  37.476  14.833
 7202W        W72462  23.491   4.771  14.929
 7203W        W72463  38.536  16.805  14.604
 7204W        W72464   3.686  22.962   3.605
 7205W        W72465  33.558  31.377   1.250
 7206W        W72466  21.632  43.794   1.277
 7207W        W72467  11.914  35.847  14.782
 7208W        W72468  29.119  19.289  13.273
 7209W        W72469  38.120  17.621   2.695
 7210W        W72470  18.056  28.530   3.304
 7211W        W72471  17.575  34.513   3.368
 7212W        W72472  20.339  32.112  11.019
 7213W        W72473   2.410  15.132  14.429
 7214W        W72474  43.542  19.151   3.714
 7215W        W72475  41.624  22.070  11.179
 7216W        W72476  19.605   4.507   3.672
 7217W        W72477  15.075   0.670   2.748
 7218W        W72478  15.105  22.242   1.983
 7219W        W72479   4.814  13.346   3.288
 7220W        W72480  42.492  15.209  12.851
 7221W        W72481  17.099   1.947  10.785
 7222W        W72482  31.724  27.963  10.733
 7223W        W72483  28.046  34.229   1.358
 7224W        W72484  33.424  20.692  11.671
 7225W        W72485  15.047  17.860  11.693
 7226W        W72486  22.494  31.125  14.323
 7227W        W72487  44.049  14.706  11.300
 7228W        W72488  20.513   1.535  13.942
 7229W        W72489  21.532  23.079   1.451
 7230W        W72490  21.042  41.124  12.077
 7231W        W72491   8.885  25.563   1.901
 7232W        W72492  16.524   5.246  13.775
 7233W        W72493   5.801  44.468   1.034
 7234W        W72494   8.931   6.898   2.328
 7235W        W72495  37.800  25.136  11.159
 7236W        W72496  15.747   5.750   4.590
 7237W        W72497  12.315   0.979  14.160
 7238W        W72498  40.395  41.340   3.982
 7239W        W72499  26.176  22.098   4.189
 7240W        W72500   1.734  15.666   4.840
 7241W        W72501  28.156  44.999  10.028
 7242W        W72502  40.041  29.232  12.197
 7243W        W72503  29.433  25.661  12.467
 7244W        W72504  31.059  32.619   1.260
 7245W        W72505  29.315  11.408   1.575
 7246W        W72506  16.337  12.608   0.029
 7247W        W72507  15.762   2.415  10.588
 7248W        W72508  35.567  38.929  12.518
 7249W        W72509  16.340   3.308   1.349
 7250W        W72510  40.482  21.630   4.265
 7251W        W72511  39.582  13.125  13.341
 7252W        W72512  19.740  12.455   3.885
 7253W        W72513  29.539  37.937   3.226
 7254W        W72514  38.044  44.811  14.265
 7255W        W72515  39.470   0.908  11.146
 7256W        W72516   4.691  19.205   4.982
 7257W        W72517  10.225  19.703  10.607
 7258W        W72518  23.344  12.211   3.155
 7259W        W72519  23.952  14.757   4.047
 7260W        W72520  25.881  17.579  12.455
 7261W        W72521  41.664  34.104  14.490
 7262W        W72522  28.576  28.470  12.136
 7263W        W72523   8.916  20.643  10.783
 7264W        W72524   4.489  22.744  14.920
 7265W        W72525  43.723   9.796  14.118
 7266W        W72526  39.102   0.824  11.569
 7267W        W72527  36.960   8.819   1.836
 7268W        W72528  19.368  30.190  14.225
 7269W        W72529  29.036  20.644  13.626
 7270W        W72530  26.932  43.590  10.983
 7271W        W72531  21.577  43.890   3.097
 7272W        W72532   7.809  37.004   1.709
 7273W        W72533  37.933  36.372   3.210
 7274W        W72534  23.093  21.461   0.296
 7275W        W72535  24.249  29.227   1.198
 7276W        W72536  15.320  15.726   0.427
 7277W        W72537  32.838  24.230   4.512
 7278W        W72538  25.079  44.170  11.769
 7279W        W72539  27.373   6.818   1.850
 7280W        W72540  20.056  30.967  12.398
 7281W        W72541   9.528  10.083   2.421
 7282W        W72542   3.181  26.123  13.045
 7283W        W72543  16.218  39.409  12.575
 7284W        W72544   0.906  23.504  12.596
 7285W        W72545  25.263   4.268  10.730
 7286W        W72546   4.475  21.686  14.253
 7287W        W72547   2.628   1.331  13.278
 7288W        W72548  37.390   0.654   2.877
 7289W        W72549  14.215  33.847   1.858
 7290W        W72550  24.705  12.709   2.540
 7291W        W72551   5.722   6.347  13.999
 7292W        W72552  33.586  29.647   3.259
 7293W        W72553  14.243  11.612   1.287
 7294W        W72554  17.805  23.576  13.735
 7295W        W72555  17.381  33.429  14.282
 7296W        W72556  36.927  44.367  10.278
 7297W        W72557   6.492  40.835  12.060
 7298W        W72558  38.910  30.592   2.371
 7299W        W72559   7.841  19.086  11.495
 7300W        W72560   0.791  28.413  13.903
 7301W        W72561   6.821  26.612   2.770
 7302W        W72562  21.615  27.759   0.909
 7303W        W72563  19.826   7.393  13.981
 7304W        W72564  14.449  12.390   0.257
 7305W        W72565  16.521  41.985   0.911
 7306W        W72566  35.872   9.774  12.701
 7307W        W72567   1.980   0.967  13.654
 7308W        W72568  10.284  38.325   4.126
 7309W        W72569  35.122  23.750  14.801
 7310W        W72570  34.573  24.693  12.986
 7311W        W72571  37.951  29.780   1.690
 7312W        W72572   1.711   3.943  13.377
 7313W        W72573  44.930  44.988   0.342
 7314W        W72574  11.699  40.765   3.315
 7315W        W72575  38.516  34.144  14.332
 7316W        W72576   1.429  30.087  13.459
 7317W        W72577  34.975  32.418  14.696
 7318W        W72578  23.122  22.139  14.005
 7319W        W72579  35.373  35.466   3.366
 7320W        W72580  20.054  15.920  11.015
 7321W        W72581  19.232  27.074   1.366
 7322W        W72582  24.652  40.035   0.816
 7323W        W72583  23.589   6.073   4.910
 7324W        W72584  42.728   2.397   3.236
 7325W        W72585  41.748  44.113  14.424
 7326W        W72586  20.715  39.438   0.375
 7327W        W72587  32.088  22.645  14.306
 7328W        W72588  20.483  34.977   4.720
 7329W        W72589  34.756  15.977  12.883
 7330W        W72590  15.925  11.890   2.699
 7331W        W72591  13.330   5.248   2.679
 7332W        W72592  33.900  42.892  14.377
 7333W        W72593   5.013  24.787  11.097
 7334W        W72594  41.935   7.773  14.892
 7335W        W72595  42.022  28.474   3.791
 7336W        W72596  22.545  34.883   2.126
 7337W        W72597  13.685  10.286   0.766
 7338W        W72598   8.617  23.870  13.497
 7339W        W72599  17.763  10.834  11.565
 7340W        W72600  20.135  21.175  12.149
 7341W        W72601  22.682  27.539   3.664
 7342W        W72602  16.639   0.791  11.217
 7343W        W72603  29.093  29.574  14.690
 7344W        W72604  41.981  12.892  14.980
 7345W        W72605   3.298   7.054  13.895
 7346W        W72606  38.587  18.062   0.602
 7347W        W72607   1.358  12.736   0.688
 7348W        W72608  44.905  33.436   0.210
 7349W        W72609  19.329   0.265   1.313
 7350W        W72610  34.566  42.970   3.170
 7351W        W72611  44.785  21.036  13.931
 7352W        W72612  26.449  39.243  11.932
 7353W        W72613   9.189   8.067  12.429
 7354W        W72614   3.457  33.999  10.940
 7355W        W72615  33.944  27.690  14.505
 7356W        W72616   7.851  18.303   3.205
 7357W        W72617  12.261  21.979  12.097
 7358W        W72618  32.631  37.458   4.396
 7359W        W72619  10.912   1.366  12.910
 7360W        W72620  22.688  14.423  14.386
 7361W        W72621  36.874   1.795   1.303
 7362W        W72622  39.530  35.042  13.400
 7363W        W72623  16.217  36.354   0.312
 7364W        W72624   7.714  36.602   4.230
 7365W        W72625  30.259  34.900   0.948
 7366W        W72626  12.227  39.210   2.505
 7367W        W72627   6.923  29.658   3.214
 7368W        W72628   9.195   6.878   1.432
 7369W        W72629  40.588  20.981   3.667
 7370W        W72630  17.877  29.395  14.488
 7371W        W72631  35.392   0.542  12.709
 7372W        W72632  22.723   3.274  12.987
 7373W        W72633   1.801  31.355  11.630
 7374W        W72634  43.348  41.748   1.655
 7375W        W72635   4.262  40.032  11.575
 7376W        W72636  29.208  42.368   1.792
 7377W        W72637  25.913  36.599  10.614
 7378W        W72638  25.624  23.193  14.151
 7379W        W72639  16.914   2.429  13.108
 7380W        W72640  38.308  30.902  14.022
 7381W        W72641   1.640  36.962  11.198
 7382W        W72642  20.015  13.643   1.622
 7383W        W72643  21.512   0.875   3.660
 7384W        W72644  37.891  13.629   1.100
 7385W        W72645   6.197  14.350  14.109
 7386W        W72646  29.074  10.576  11.291
 7387W        W72647  35.115  14.065   1.383
 7388W        W72648  22.360  26.203   1.169
 7389W        W72649   0.760   0.072   1.939
 7390W        W72650  42.779  17.597   3.003
 7391W        W72651  28.998  14.722  11.253
 7392W        W72652  31.162   8.856  11.197
 7393W        W72653   4.388  31.566   2.344
 7394W        W72654  34.784  13.469   0.312
 7395W        W72655  17.785   0.256   0.288
 7396W        W72656  26.452  14.143  11.583
 7397W        W72657   2.019   8.788  11.849
 7398W        W72658   6.279  27.517   2.826
 7399W        W72659  44.808  38.521   3.175
 7400W        W72660  43.549  31.456  11.819
 7401W        W72661  33.928  11.305  11.517
 7402W        W72662  25.646  34.422   3.373
 7403W        W72663  31.704  13.293   4.595
 7404W        W72664   6.003   6.414   3.499
 7405W        W72665  40.831   0.757   3.967
 7406W        W72666   2.777   2.695   3.376
 7407W        W72667   6.684   0.909  12.561
 7408W        W72668  28.700  19.243  14.563
 7409W        W72669  11.815  28.407   1.832
 7410W        W72670  22.665   8.888  14.923
 7411W        W72671   4.851  33.505   0.333
 7412W        W72672  44.207  38.637  11.030
 7413W        W72673  31.409  17.849   2.335
 7414W        W72674  19.360  13.600  11.173
 7415W        W72675  25.131  40.787   0.225
 7416W        W72676  28.892  25.906   3.285
 7417W        W72677  31.165  22.659   1.421
 7418W        W72678  35.108  25.194   4.130
 7419W        W72679  43.677   3.876   2.322
 7420W        W72680  21.454  29.047   1.808
 7421W        W72681  17.816  42.323  11.965
 7422W        W72682  33.083  23.499   0.468
 7423W        W72683  21.062  11.064  11.512
 7424W        W72684  33.217  39.062  13.704
 7425W        W72685  42.092  17.021  10.330
 7426W        W72686  35.869   4.162  11.858
 7427W        W72687  25.588  12.591   3.216
 7428W        W72688   7.796  12.853   1.279
 7429W        W72689  43.525  38.843   3.365
 7430W        W72690  22.568   7.932  13.320
 7431W        W72691  31.862  24.996   3.905
 7432W        W72692  20.761  20.130  14.772
 7433W        W72693  13.605  23.951  13.349
 7434W        W72694   2.409  24.776  13.978
 7435W        W72695   2.940  44.190   2.304
 7436W        W72696  29.364  14.740   3.291
 7437W        W72697  43.610  14.686   2.364
 7438W        W72698  20.524  37.055   4.625
 7439W        W72699   0.844   1.222   0.209
 7440W        W72700   8.381  36.319   0.876
 7441W        W72701   6.889   6.435  14.054
 7442W        W72702  12.457   3.802   1.286
 7443W        W72703  30.583  32.814  11.587
 7444W        W72704  29.106   4.777  14.289
 7445W        W72705  27.632  26.653  12.787
 7446W        W72706   6.640  22.048  12.981
 7447W        W72707  35.228  10.945   2.714
 7448W        W72708  33.487  40.869  14.776
 7449W        W72709  43.980  19.264  11.885
 7450W        W72710   5.289   2.287  12.077
 7451W        W72711  38.404   2.272  14.725
 7452W        W72712  40.025   1.541   0.467
 7453W        W72713  40.361   0.538  13.616
 7454W        W72714  19.265   5.233  14.007
 7455W        W72715  41.036  24.395  11.556
 7456W        W72716  39.861  28.627  14.004
 7457W        W72717  15.046  23.028  12.595
 7458W        W72718   1.911  37.986  14.790
 7459W        W72719  11.799  22.333  11.211
 7460W        W72720  44.619  39.410  13.487
 7461W        W72721  11.699  23.258  13.777
 7462W        W72722  34.263  27.516   3.795
 7463W        W72723  21.247   9.097  13.061
 7464W        W72724  17.155  27.678   3.682
 7465W        W72725  21.071  18.153   3.378
 7466W        W72726  25.249  19.799   4.698
 7467W        W72727   9.621   6.980  12.968
 7468W        W72728  16.081   6.264   2.109
 7469W        W72729  25.094   7.359  11.635
 7470W        W72730  30.002   4.663   1.805
 7471W        W72731  25.557  19.454   0.180
 7472W        W72732  15.157   9.717   0.221
 7473W        W72733  28.704   2.251   1.309
 7474W        W72734  15.679  27.210  13.979
 7475W        W72735   3.429   6.636   2.836
 7476W        W72736  30.504  43.855   2.262
 7477W        W72737   2.601  18.201  13.877
 7478W        W72738  25.290  13.441   4.940
 7479W        W72739  35.855   1.801   2.313
 7480W        W72740  17.135  43.408  11.574
 7481W        W72741  43.503  32.744   1.668
 7482W        W72742  17.585  43.926   3.257
 7483W        W72743  11.398  21.605   4.659
 7484W        W72744   7.866  14.745  14.974
 7485W        W72745  22.059  27.482  12.118
 7486W        W72746  38.795  16.450   0.560
 7487W        W72747  11.259  12.722   1.801
 7488W        W72748  44.995   7.824   3.502
 7489W        W72749  30.538   5.302  13.866
 7490W        W72750  38.985  15.935   2.454
 7491W        W72751   9.690  11.196   1.643
 7492W        W72752  17.766  41.409  14.988
 7493W        W72753  27.301  41.853  14.381
 7494W        W72754  26.664   7.603  11.977
 7495W        W72755  29.319  19.227  11.322
 7496W        W72756  14.079  21.119  11.731
 7497W        W72757  39.501  32.102   4.604
 7498W        W72758   7.755  30.705  13.183
 7499W        W72759  27.113   8.392  13.936
 7500W        W72760  25.149   6.839  14.567
 7501W        W72761  44.853   9.724  13.253
 7502W        W72762   3.686  15.869   0.232
 7503W        W72763  23.862  28.500  13.477
 7504W        W72764   9.581  34.208  10.660
 7505W        W72765   9.764  30.597  14.422
 7506W        W72766  13.851  13.239   0.943
 7507W        W72767   3.988  33.988  10.933
 7508W        W72768  34.109  41.337  14.441
 7509W        W72769  34.053  33.556  11.569
 7510W        W72770   9.300  19.811   4.477
 7511W        W72771   7.635  22.214  13.762
 7512W        W72772  30.497  19.521  14.874
 7513W        W72773   3.854  37.933  14.580
 7514W        W72774   8.881  18.198  12.647
 7515W        W72775  39.588   7.614  14.844
 7516W        W72776  23.262  17.335  10.906
 7517W        W72777   5.314   4.586   1.093
 7518W        W72778  18.017  19.103  10.637
 7519W        W72779   2.861  32.243   3.707
 7520W        W72780  14.869  24.063   1.910
 7521W        W72781  16.415  33.766   0.954
 7522W        W72782  10.384  34.075  12.063
 7523W        W72783  31.602   4.351  13.671
 7524W        W72784  25.706   4.912   1.296
 7525W        W72785  12.189  28.988  13.528
 7526W        W72786  22.525  21.495   2.271
 7527W        W72787  27.564  26.711  11.411
 7528W        W72788  21.477  37.600  11.435
 7529W        W72789  30.594  38.162  13.018
 7530W        W72790  44.071   5.124   9.973
 7531W        W72791   4.223  32.626   3.639
 7532W        W72792  37.908  34.439  10.538
 7533W        W72793   3.032  28.744   2.594
 7534W        W72794   5.259   3.329  12.116
 7535W        W72795  35.593  34.365   0.003
 7536W        W72796  40.141  21.744   1.358
 7537W        W72797  14.177  32.102   4.126
 7538W        W72798  36.592   5.952   1.778
 7539W        W72799  44.034  14.745  13.488
 7540W        W72800  31.238   1.741   3.698
 7541W        W72801  42.412  40.798   1.390
 7542W        W72802  19.570  35.378  14.796
 7543W        W72803  18.884  40.149  12.082
 7544W        W72804  13.350  19.656   0.429
 7545W        W72805  18.188  42.594   0.845
 7546W        W72806  12.619  11.327   2.935
 7547W        W72807   7.683  32.026  12.423
 7548W        W72808  27.211  37.719   4.673
 7549W        W72809  34.673  39.790   3.568
 7550W        W72810  31.625   8.452   2.823
 7551W        W72811  29.264   0.168   2.339
 7552W        W72812   3.763   3.846   4.379
 7553W        W72813  36.264  21.530  12.941
 7554W        W72814  17.864  35.963   0.773
 7555W        W72815  11.534  30.365  10.689
 7556W        W72816   7.912  13.545  14.300
 7557W        W72817  30.677  20.938   4.970
 7558W        W72818   7.505   5.736  10.759
 7559W        W72819  40.132  21.886  12.392
 7560W        W72820   9.396  37.846   3.277
 7561W        W72821  43.280  21.023   4.906
 7562W        W72822  13.109  27.927  13.174
 7563W        W72823   2.294  43.236   4.605
 7564W        W72824  23.690  10.131   2.196
 7565W        W72825  14.507  38.539   1.778
 7566W        W72826  19.790  41.894   1.280
 7567W        W72827  13.561  29.028  11.496
 7568W        W72828   1.817  18.939   4.197
 7569W        W72829  32.199  22.786   1.289
 7570W        W72830  40.227  10.715  11.553
 7571W        W72831  37.101  21.749  11.148
 7572W        W72832   5.982   9.806  12.412
 7573W        W72833   0.059   8.717   4.638
 7574W        W72834  17.789  42.050  14.982
 7575W        W72835  34.944  26.879   3.061
 7576W        W72836   2.281  39.093  12.385
 7577W        W72837  33.008   3.818   4.041
 7578W        W72838  42.568  26.609   3.145
 7579W        W72839  16.819  39.349   0.396
 7580W        W72840  28.710  40.091  12.548
 7581W        W72841  33.591  18.441   4.590
 7582W        W72842  18.021   0.410   1.189
 7583W        W72843   4.603  34.465  11.404
 7584W        W72844   5.268  10.670   4.650
 7585W        W72845  15.167   6.666  14.463
 7586W        W72846  11.183  27.106   1.298
 7587W        W72847  36.625  24.073   3.499
 7588W        W72848  44.741  15.856  14.534
 7589W        W72849  38.047  21.019   2.790
 7590W        W72850  10.583   5.195  10.726
 7591W        W72851  30.693  15.637   4.568
 7592W        W72852  12.204  43.419  14.260
 7593W        W72853  19.179  44.197  14.253
 7594W        W72854  18.659  38.061  13.129
 7595W        W72855  35.077  20.504  13.187
 7596W        W72856   1.518  24.634   2.101
 7597W        W72857  44.716  37.034  13.214
 7598W        W72858  35.121  36.885   0.851
 7599W        W72859  15.796   7.669   4.736
 7600W        W72860  34.155   8.444  11.221
 7601W        W72861  41.836  25.135  12.476
 7602W        W72862   2.527  32.069   0.279
 7603W        W72863   8.145   3.613  11.619
 7604W        W72864  35.388  23.569  11.362
 7605W        W72865  24.576  33.416   4.376
 7606W        W72866  37.832  39.670  11.402
 7607W        W72867  32.987   2.435   3.044
 7608W        W72868   7.246  41.756  14.534
 7609W        W72869  17.181   5.488  11.540
 7610W        W72870  25.923  27.735  11.954
 7611W        W72871  35.548  12.446   4.571
 7612W        W72872  30.579  14.532  13.113
 7613W        W72873  34.608   4.817   4.174
 7614W        W72874  28.212   7.956  14.295
 7615W        W72875  43.729  24.138  14.929
 7616W        W72876  33.318  32.356  13.434
 7617W        W72877  16.820   9.244  11.607
 7618W        W72878  42.811  11.360  11.969
 7619W        W72879  20.013  17.816  12.472
 7620W        W72880  34.662  44.755   3.098
 7621W        W72881   5.737   8.831   0.751
 7622W        W72882  27.919  17.133  14.597
 7623W        W72883  16.621  26.406  12.896
 7624W        W72884  29.283  23.461  10.732
 7625W        W72885  18.622   5.171   0.356
 7626W        W72886   2.732  25.910   1.248
 7627W        W72887  35.150  15.093  12.054
 7628W        W72888  41.377  43.001   2.345
 7629W        W72889   3.397  23.927  11.106
 7630W        W72890  34.094  15.126   1.873
 7631W        W72891  22.980  13.223  12.997
 7632W        W72892  35.387  44.938   1.225
 7633W        W72893  19.085  28.725   1.735
 7634W        W72894  37.908  33.416  10.675
 7635W        W72895  27.946   7.767   3.353
 7636W        W72896  21.515  44.300   1.313
 7637W        W72897  42.810  34.813   1.229
 7638W        W72898   2.304  30.435   1.684
 7639W        W72899  40.589   1.898   9.929
 7640W        W72900   5.181  25.998  13.579
 7641W        W72901   7.589  41.815   2.402
 7642W        W72902   7.138  21.033   3.985
 7643W        W72903  26.705  27.053   3.181
 7644W        W72904  33.541   6.975  11.735
 7645W        W72905  20.001   8.443  12.617
 7646W        W72906  44.005   4.910  11.803
 7647W        W72907  31.453  19.842   1.254
 7648W        W72908  30.040  21.742   3.411
 7649W        W72909   9.074  34.534  12.767
 7650W        W72910  24.838  29.508  13.138
 7651W        W72911  22.512  17.774   0.384
 7652W        W72912  25.137   3.300  14.273
 7653W        W72913   3.776  42.925  12.545
 7654W        W72914  39.487  18.958   0.318
 7655W        W72915  12.823  20.055   1.845
 7656W        W72916   4.673   6.465   3.371
 7657W        W72917  41.138  34.006  11.886
 7658W        W72918   9.167  35.530  12.541
 7659W        W72919  13.273  37.934   1.436
 7660W        W72920  37.207  44.578  14.043
 7661W        W72921  26.441  35.448   3.805
 7662W        W72922  32.867   4.301  10.909
 7663W        W72923  21.678  24.624   3.213
 7664W        W72924  32.406  38.756  11.952
 7665W        W72925  40.979  17.787  11.653
 7666W        W72926  27.035   4.662  12.543
 7667W        W72927   9.319   5.677  11.527
 7668W        W72928  39.903   6.679  10.646
 7669W        W72929  41.373   3.879   1.363
 7670W        W72930  39.848  28.094  14.897
 7671W        W72931   2.998  37.783  10.760
 7672W        W72932  15.721  29.609  12.464
 7673W        W72933  37.724  40.683  12.605
 7674W        W72934  26.597  22.528   0.353
 7675W        W72935  27.535  34.111   3.100
 7676W        W72936  21.377  41.581   1.035
 7677W        W72937  25.147   8.874  12.984
 7678W        W72938  26.525  43.381   3.343
 7679W        W72939  14.081   9.899  11.945
 7680W        W72940  31.428   6.716  12.508
 7681W        W72941  22.735  14.368  10.639
 7682W        W72942   2.226  26.144   2.696
 7683W        W72943  34.424  12.445  14.758
 7684W        W72944   7.402  17.134   2.364
 7685W        W72945   4.956   7.273   3.660
 7686W        W72946   0.491  14.634   2.914
 7687W        W72947  38.788  41.988  14.900
 7688W        W72948  26.230  42.009   2.419
 7689W        W72949  41.744   8.212  14.718
 7690W        W72950  11.386  14.409  11.523
 7691W        W72951  38.810  17.296  10.723
 7692W        W72952  18.542   8.202  11.554
 7693W        W72953  21.724  18.068   3.725
 7694W        W72954   9.832   8.314  12.698
 7695W        W72955   8.268  23.811   0.472
 7696W        W72956  35.640   0.751   2.760
 7697W        W72957  40.699   7.287   4.638
 7698W        W72958  28.267  28.610   2.608
 7699W        W72959  11.654   0.527  11.638
 7700W        W72960  42.296  23.244  14.912
 7701W        W72961  19.162  37.830  14.415
 7702W        W72962  16.057  34.182  13.885
 7703W        W72963  34.562  27.539  11.710
 7704W        W72964  30.368  20.000   1.822
 7705W        W72965  19.580  33.854   3.213
 7706W        W72966  33.556  41.254   4.027
 7707W        W72967   8.722  10.262   0.750
 7708W        W72968  28.501  18.793  11.335
 7709W        W72969  40.571  22.776  10.277
 7710W        W72970  30.243   6.778   1.931
 7711W        W72971  20.184  40.564  13.008
 7712W        W72972   5.522  36.418  12.541
 7713W        W72973  35.330  39.552   1.327
 7714W        W72974  29.925  30.897   4.214
 7715W        W72975   1.295  26.732   3.244
 7716W        W72976  36.363  41.900  12.146
 7717W        W72977  36.393  41.950  13.328
 7718W        W72978  19.206  35.469   0.408
 7719W        W72979   5.936  16.710  14.098
 7720W        W72980  21.938  34.080  12.535
 7721W        W72981  42.284  19.785   2.374
 7722W        W72982  21.174  10.022  12.988
 7723W        W72983   5.221  39.507  14.367
 7724W        W72984  16.599   2.785  11.005
 7725W        W72985   5.815  33.893   2.011
 7726W        W72986   7.619  19.433  10.643
 7727W        W72987  39.980  25.453  12.409
 7728W        W72988   0.853  43.509   2.706
 7729W        W72989  28.465  39.029  13.402
 7730W        W72990  36.306  42.790  10.877
 7731W        W72991  28.130  21.138   4.957
 7732W        W72992   0.480  30.465   0.852
 7733W        W72993   5.174  19.638  10.363
 7734W        W72994  40.742  43.406  13.887
 7735W        W72995  40.069  26.251   3.773
 7736W        W72996  25.519  18.796   2.151
 7737W        W72997  37.790  30.921  13.929
 7738W        W72998  43.124  19.099  10.930
 7739W        W72999  41.848   9.328  14.408
 7740W        W73000  17.154  24.582  14.337
 7741W        W73001  18.066  12.707   3.650
 7742W        W73002  10.234   8.169   1.811
 7743W        W73003  12.441  30.307  11.552
 7744W        W73004  17.579  10.052  13.310
 7745W        W73005  22.919   1.791  11.032
 7746W        W73006  35.098  35.033   4.646
 7747W        W73007  23.505   9.690   0.834
 7748W        W73008  31.678  25.808   0.309
 7749W        W73009  36.390  12.787  11.814
 7750W        W73010   2.430  37.965  12.345
 7751W        W73011  18.610  20.209  12.820
 7752W        W73012  44.531  10.041   4.267
 7753W        W73013  14.225  31.897   1.934
 7754W        W73014  16.739  42.613  11.145
 7755W        W73015  27.700   3.745   3.279
 7756W        W73016  41.729  32.163   4.608
 7757W        W73017  32.569  10.658  13.386
 7758W        W73018  31.655   8.484  13.522
 7759W        W73019   9.893   0.999  14.271
 7760W        W73020  30.572  17.252  14.177
 7761W        W73021  24.057  39.584   3.210
 7762W        W73022  38.452  29.427  10.636
 7763W        W73023  19.154   6.643   2.143
 7764W        W73024   3.005  24.251  11.185
 7765W        W73025  34.914  11.330   1.324
 7766W        W73026   8.812  39.406  14.298
 7767W        W73027  25.182  27.007   4.071
 7768W        W73028  38.010   7.968  12.641
 7769W        W73029  38.985  13.029   0.481
 7770W        W73030  17.727  43.026   4.891
 7771W        W73031  44.937  41.499   2.957
 7772W        W73032  38.092  34.069  11.161
 7773W        W73033  12.031   0.584   0.392
 7774W        W73034  36.606  19.623  10.538
 7775W        W73035  29.498  42.893   0.808
 7776W        W73036  39.629  33.922  10.941
 7777W        W73037  23.765  42.363   0.577
 7778W        W73038   3.852  30.741   2.217
 7779W        W73039   5.843   4.683   2.879
 7780W        W73040  22.344  22.003   3.696
 7781W        W73041  37.546  40.889   0.726
 7782W        W73042  19.224  23.706  12.307
 7783W        W73043  30.937   2.853  13.766
 7784W        W73044  18.217  19.634  14.902
 7785W        W73045   6.283  37.800   1.017
 7786W        W73046  38.459   6.678  11.588
 7787W        W73047  13.859  25.875   4.172
 7788W        W73048  35.571  16.292   1.782
 7789W        W73049  29.012  28.977   2.467
 7790W        W73050  28.085  25.070  11.560
 7791W        W73051  30.549  36.834  11.486
 7792W        W73052  24.715   0.220  13.866
 7793W        W73053  27.842   8.158   1.868
 7794W        W73054  22.557  39.868   0.321
 7795W        W73055  15.692  39.305   1.229
 7796W        W73056  26.400  15.652   2.243
 7797W        W73057  29.876  31.624  12.632
 7798W        W73058  17.260  32.700  13.761
 7799W        W73059  33.060  41.653  12.417
 7800W        W73060   8.871  36.079   0.882
 7801W        W73061   8.155  37.067   1.317
 7802W        W73062  38.224  33.479   0.920
 7803W        W73063   8.875  43.572  11.414
 7804W        W73064  25.595  11.413   2.279
 7805W        W73065  20.035   7.801   3.869
 7806W        W73066  22.589  22.753  10.958
 7807W        W73067  43.383  31.426  13.344
 7808W        W73068  19.393  28.077  14.811
 7809W        W73069  22.731   1.677  13.408
 7810W        W73070  21.686  39.585  12.615
 7811W        W73071  37.873   5.396  10.297
 7812W        W73072  28.378  15.275   1.748
 7813W        W73073   2.523   1.780  13.532
 7814W        W73074  40.137  41.639  11.596
 7815W        W73075  33.402  20.421   4.555
 7816W        W73076  33.815  26.986  14.780
 7817W        W73077  37.287   2.848  13.981
 7818W        W73078  17.624  17.674  12.128
 7819W        W73079   3.876  36.409   4.720
 7820W        W73080   9.344  21.717  12.056
 7821W        W73081  13.513  28.519  14.856
 7822W        W73082  18.204   3.429  11.024
 7823W        W73083  14.804   9.370  11.886
 7824W        W73084  37.871  21.224  13.868
 7825W        W73085  36.165  19.046   2.665
 7826W        W73086  40.389  20.135   3.910
 7827W        W73087   9.238  21.260  13.090
 7828W        W73088  16.790  34.138   0.802
 7829W        W73089  11.408  30.038   2.756
 7830W        W73090  18.510  20.303  10.676
 7831W        W73091  28.824  40.831   0.313
 7832W        W73092  38.535  15.603   3.083
 7833W        W73093  30.884  29.716   4.086
 7834W        W73094  27.064  13.137   2.346
 7835W        W73095  23.377  41.919  10.417
 7836W        W73096  23.000  42.308  12.226
 7837W        W73097   6.690  31.060   0.968
 7838W        W73098  31.314   8.884  14.756
 7839W        W73099   3.488  20.514  14.119
 7840W        W73100  14.079  26.987  11.064
 7841W        W73101  30.973  25.172  13.577
 7842W        W73102  19.139  26.451  10.613
 7843W        W73103  22.188  31.805  11.114
 7844W        W73104  24.759  24.252   0.781
 7845W        W73105  40.090  30.988   2.446
 7846W        W73106  26.071  16.025  11.700
 7847W        W73107   6.330  29.229   2.335
 7848W        W73108  41.220  19.245  12.011
 7849W        W73109   1.230   3.215  13.128
 7850W        W73110  26.072  41.564  12.158
 7851W        W73111  42.081  10.704  12.231
 7852W        W73112  24.874  39.052   0.209
 7853W        W73113   7.824  12.835   0.428
 7854W        W73114   0.711   7.270  13.328
 7855W        W73115  19.561  25.543   0.150
 7856W        W73116   5.888  31.221   2.301
 7857W        W73117   4.394  34.134   0.373
 7858W        W73118  42.926  40.058  14.965
 7859W        W73119   5.559   1.705  12.401
 7860W        W73120   7.677  37.890   3.566
 7861W        W73121  32.145  18.062   2.192
 7862W        W73122   9.861  17.040   2.118
 7863W        W73123  18.101  39.391   1.296
 7864W        W73124   0.073  40.273   0.357
 7865W        W73125  40.932  25.524   1.152
 7866W        W73126   9.914  22.829   2.271
 7867W        W73127  16.842  12.486  13.835
 7868W        W73128  15.682  22.285  13.794
 7869W        W73129  38.034  28.156   3.567
 7870W        W73130  39.563  21.975   4.081
 7871W        W73131  15.274  23.309  10.611
 7872W        W73132  32.590  17.745  10.592
 7873W        W73133   4.000  38.307  12.872
 7874W        W73134  18.016   8.336  12.359
 7875W        W73135  40.732  13.708  13.919
 7876W        W73136  38.824   8.836  11.993
 7877W        W73137  17.876  42.420   3.724
 7878W        W73138  42.581  24.602   0.192
 7879W        W73139  36.962  28.655   0.382
 7880W        W73140  37.434   7.272  12.632
 7881W        W73141   9.010  20.598  10.276
 7882W        W73142  19.604   2.418   4.079
 7883W        W73143  31.284  33.329  12.072
 7884W        W73144  11.589  10.913   0.452
 7885W        W73145  13.223  29.050   3.773
 7886W        W73146  27.957  33.525  14.918
 7887W        W73147  13.946   2.611   3.752
 7888W        W73148   8.183   5.424  14.200
 7889W        W73149   2.496  15.616   0.738
 7890W        W73150  35.245  27.040  12.104
 7891W        W73151   6.950  14.779  10.693
 7892W        W73152  10.041  28.098   5.507
 7893W        W73153  12.000  39.842   0.406
 7894W        W73154  16.350  41.922   3.179
 7895W        W73155  37.711   4.212   1.741
 7896W        W73156  19.099  11.101   1.866
 7897W        W73157  23.628  24.473  14.046
 7898W        W73158  36.075  15.597  13.179
 7899W        W73159   2.442   5.299  13.740
 7900W        W73160  31.239  23.805  10.878
 7901W        W73161   9.454  20.851  12.542
 7902W        W73162  43.717  42.494  12.463
 7903W        W73163  42.011  39.440  10.721
 7904W        W73164  13.009  25.587  14.013
 7905W        W73165  43.826  13.700   0.293
 7906W        W73166  26.900  10.323   3.670
 7907W        W73167  32.986  23.161   2.449
 7908W        W73168  33.247  25.506  12.468
 7909W        W73169  21.088  22.906  11.575
 7910W        W73170   2.781   9.783  13.125
 7911W        W73171  17.886  23.464   1.696
 7912W        W73172  41.548  31.797   2.741
 7913W        W73173  41.323  40.007   2.716
 7914W        W73174  22.708   9.181  14.495
 7915W        W73175  11.260  19.581  14.791
 7916W        W73176  16.666  28.397   1.552
 7917W        W73177  11.338   5.849   5.394
 7918W        W73178  38.551  38.074   0.077
 7919W        W73179  38.031  18.749   0.479
 7920W        W73180  19.996  29.580   4.621
 7921W        W73181  10.678   0.213   4.217
 7922W        W73182  28.110  10.741  11.171
 7923W        W73183  31.900  24.774   4.911
 7924W        W73184  30.791  33.597  14.874
 7925W        W73185  16.375  30.142   1.987
 7926W        W73186  11.742  12.703  11.098
 7927W        W73187   0.983  30.061   3.504
 7928W        W73188  39.735  21.745  14.692
 7929W        W73189   4.620  30.021  14.246
 7930W        W73190  29.539  25.256  10.164
 7931W        W73191  38.753  15.802  13.424
 7932W        W73192  11.885  24.674  13.397
 7933W        W73193   9.762   8.036   4.134
 7934W        W73194   5.112  10.284  11.596
 7935W        W73195   3.302  16.244  12.442
 7936W        W73196   2.440  36.677   4.158
 7937W        W73197  19.250   0.930   3.205
 7938W        W73198  37.965   2.368   1.473
 7939W        W73199  32.246  41.896   1.724
 7940W        W73200  21.033  31.114  11.625
 7941W        W73201   5.864  42.962  10.857
 7942W        W73202  31.873  34.021  10.980
 7943W        W73203   5.258  40.260  10.937
 7944W        W73204  31.789  15.130  14.902
 7945W        W73205  38.654  19.323  13.015
 7946W        W73206  16.749  10.882   4.144
 7947W        W73207  42.685  14.862   1.308
 7948W        W73208  40.934  13.562  12.086
 7949W        W73209  18.626  38.335  12.433
 7950W        W73210   9.487  24.834  14.094
 7951W        W73211  42.492  40.320   1.172
 7952W        W73212  25.855  43.217  14.392
 7953W        W73213  28.071  19.268   1.198
 7954W        W73214   7.790  19.963   0.953
 7955W        W73215  35.362   3.291  11.753
 7956W        W73216  44.815  39.552  14.896
 7957W        W73217  43.937  21.076   0.509
 7958W        W73218  16.151  11.798  12.040
 7959W        W73219  35.626  34.418   2.342
 7960W        W73220   5.763   9.422  12.686
 7961W        W73221  30.936  15.604   2.319
 7962W        W73222  21.465   1.843  14.081
 7963W        W73223  20.013   3.309   1.306
 7964W        W73224  39.792  14.875   2.172
 7965W        W73225  20.939  42.699   3.340
 7966W        W73226   7.167  33.919  13.887
 7967W        W73227  29.724   5.166   0.348
 7968W        W73228  29.724  40.309   4.603
 7969W        W73229  25.707   3.338   2.226
 7970W        W73230  36.372  26.878   1.785
 7971W        W73231  18.454  24.186   2.147
 7972W        W73232  33.678   5.700  12.313
 7973W        W73233  17.235   4.981  10.676
 7974W        W73234  44.418  41.742   3.453
 7975W        W73235  11.552  19.430  11.148
 7976W        W73236   9.329  34.020   2.120
 7977W        W73237  13.149   2.871   0.242
 7978W        W73238   5.697  11.826   4.344
 7979W        W73239  38.402  23.175   4.311
 7980W        W73240  30.484  12.285   4.938
 7981W        W73241  41.354  41.747   4.852
 7982W        W73242   9.262  23.540  12.540
 7983W        W73243  15.107  34.494  12.063
 7984W        W73244  29.034   6.867   4.080
 7985W        W73245  17.628   3.385   1.718
 7986W        W73246  15.445  32.856  12.649
 7987W        W73247  26.370  42.173   3.702
 7988W        W73248  14.463  24.246  12.862
 7989W        W73249  20.560  27.492   0.276
 7990W        W73250  24.711  27.090  11.136
 7991W        W73251  26.074  10.643  12.213
 7992W        W73252  11.858   9.861   2.245
 7993W        W73253  32.668   3.452   4.065
 7994W        W73254  41.187   0.839   3.604
 7995W        W73255  20.016  12.714   0.471
 7996W        W73256  30.267  30.696  12.171
 7997W        W73257  40.362  22.685   3.270
 7998W        W73258  16.015  10.707   4.656
 7999W        W73259  40.320  19.125   1.755
 8000W        W73260   5.505  25.807  10.939
 8001W        W73261  22.077  14.314   2.261
 8002W        W73262  10.356   2.713   1.493
 8003W        W73263  28.211   0.735  11.676
 8004W        W73264  18.166  14.373   1.471
 8005W        W73265  23.660  41.955   0.874
 8006W        W73266  32.946  43.770  13.525
 8007W        W73267  42.476  33.976  13.364
 8008W        W73268  37.538  27.090   2.741
 8009W        W73269  36.507   0.574  14.030
 8010W        W73270  23.253  28.208  12.619
 8011W        W73271   4.712  34.218  10.026
 8012W        W73272  32.741  12.936   4.188
 8013W        W73273   7.930   2.365   1.149
 8014W        W73274  11.188  23.164  12.761
 8015W        W73275  15.016  23.907   0.682
 8016W        W73276  16.929  30.290  14.058
 8017W        W73277  22.801   7.763   3.345
 8018W        W73278  26.459  24.034   0.385
 8019W        W73279  32.495  31.806   3.685
 8020W        W73280  11.716  41.746   3.824
 8021W        W73281  33.986  17.354   3.027
 8022W        W73282  42.000  13.908  11.190
 8023W        W73283   0.881  23.717   5.375
 8024W        W73284   7.211  22.713  10.744
 8025W        W73285  31.661   9.411   1.803
 8026W        W73286  19.967  31.591  13.921
 8027W        W73287   4.338   6.889   0.413
 8028W        W73288  25.246   7.348   3.854
 8029W        W73289  19.683  41.803  12.931
 8030W        W73290   1.201  11.753   1.802
 8031W        W73291  40.882  23.094  13.318
 8032W        W73292  38.002   1.452  11.934
 8033W        W73293   4.713  31.025  13.133
 8034W        W73294  11.729   4.383   2.770
 8035W        W73295   6.360  22.221  12.199
 8036W        W73296  10.682  35.790  13.937
 8037W        W73297  20.110   5.832   1.761
 8038W        W73298  16.708   8.634  12.423
 8039W        W73299  34.835   1.529  13.332
 8040W        W73300  23.211  40.408  13.595
 8041W        W73301  19.780  36.515   5.101
 8042W        W73302  44.859  32.927  14.025
 8043W        W73303  12.313  43.662   3.144
 8044W        W73304  33.019  37.579   2.330
 8045W        W73305  16.935  36.419  13.571
 8046W        W73306   2.272  16.989   2.182
 8047W        W73307  21.763  20.102   0.919
 8048W        W73308  25.992  39.957   2.541
 8049W        W73309  29.149   4.965   3.313
 8050W        W73310  33.422  34.833  12.871
 8051W        W73311  43.816  42.868  12.986
 8052W        W73312  35.559  31.372   1.437
 8053W        W73313  42.825   0.973   2.615
 8054W        W73314  15.286   0.901  10.710
 8055W        W73315  11.704   0.509   1.297
 8056W        W73316  12.921   4.820  12.667
 8057W        W73317  20.155  30.466  12.500
 8058W        W73318  35.030   1.977   0.824
 8059W        W73319  12.742   4.698   2.327
 8060W        W73320   8.756  19.827  14.845
 8061W        W73321   4.819  12.280   3.294
 8062W        W73322  30.985  16.114  10.645
 8063W        W73323  33.856   8.302  12.626
 8064W        W73324  26.700  20.864  11.366
 8065W        W73325  21.213  43.003   2.728
 8066W        W73326   1.981  18.837   4.683
 8067W        W73327   5.799  11.879  11.484
 8068W        W73328  43.287  33.301  13.419
 8069W        W73329  25.732   4.960  12.810
 8070W        W73330  31.537  29.157   3.700
 8071W        W73331  36.622   1.365   1.377
 8072W        W73332  14.278  44.794  11.181
 8073W        W73333   4.358  30.454   0.301
 8074W        W73334  15.986   2.390   1.891
 8075W        W73335  34.090  21.738   4.949
 8076W        W73336  22.277  14.649   0.484
 8077W        W73337  25.209  30.721  10.958
 8078W        W73338   8.350  40.644  14.406
 8079W        W73339  21.016  25.771   2.006
 8080W        W73340  38.462  39.537  10.447
 8081W        W73341  20.704  28.153   2.663
 8082W        W73342   0.868  26.092  12.120
 8083W        W73343  22.964  19.735  14.848
 8084W        W73344  41.345  30.563  11.146
 8085W        W73345  29.062  42.900   2.971
 8086W        W73346  37.182  24.084  14.498
 8087W        W73347  23.951  23.477   1.737
 8088W        W73348   9.793  40.961  12.385
 8089W        W73349  19.825  38.875   3.807
 8090W        W73350  17.659  25.234  12.164
 8091W        W73351   2.492  28.022   3.217
 8092W        W73352  35.960  26.857   1.171
 8093W        W73353  21.690  21.502  14.067
 8094W        W73354  33.480   6.280  13.750
 8095W        W73355  23.488   0.398  14.915
 8096W        W73356  12.413  29.243   0.798
 8097W        W73357   4.691  32.702   2.744
 8098W        W73358  10.254  35.636  11.546
 8099W        W73359  20.253  33.097  11.874
 8100W        W73360  15.572  22.682  12.008
 8101W        W73361   2.196  25.667   1.019
 8102W        W73362  36.098   2.286   1.262
 8103W        W73363   4.919  36.812   4.780
 8104W        W73364  12.698  27.003   1.243
 8105W        W73365  44.547  27.665   2.850
 8106W        W73366  10.908  34.752  13.562
 8107W        W73367  25.073  30.801   5.044
 8108W        W73368  39.864  31.433  13.492
 8109W        W73369  33.100  34.487  12.615
 8110W        W73370   0.030  34.562   4.648
 8111W        W73371  12.684  10.916  12.510
 8112W        W73372   0.613  27.198  10.962
 8113W        W73373   7.297   6.331   2.210
 8114W        W73374  31.946  17.655   2.446
 8115W        W73375  34.145   7.911  12.417
 8116W        W73376  19.324  13.916   0.013
 8117W        W73377  13.734  28.478   1.927
 8118W        W73378  22.252  39.912   0.860
 8119W        W73379   5.872  23.142   2.171
 8120W        W73380  37.957  38.252  13.887
 8121W        W73381  19.247  44.491  14.681
 8122W        W73382  34.330  38.970  11.193
 8123W        W73383  42.545  34.900  14.890
 8124W        W73384  23.084  37.616  14.469
 8125W        W73385  19.243  17.198  13.821
 8126W        W73386  17.442  17.190  12.064
 8127W        W73387  38.415  19.078   4.317
 8128W        W73388  41.187  37.401   5.076
 8129W        W73389  44.271  24.070  14.804
 8130W        W73390  41.962  44.944   3.278
 8131W        W73391  25.857   9.099   1.188
 8132W        W73392  18.068  26.228  14.448
 8133W        W73393  21.126  22.026  14.396
 8134W        W73394  36.777  41.690  11.242
 8135W        W73395   3.581  32.039  12.112
 8136W        W73396  33.728  42.514  14.726
 8137W        W73397  28.360  21.146   3.676
 8138W        W73398   7.390   5.747   0.378
 8139W        W73399   8.156  12.093   2.664
 8140W        W73400   5.534  16.374  14.296
 8141W        W73401  19.034   3.822  14.056
 8142W        W73402  35.478  44.081   3.191
 8143W        W73403  18.688  40.439   1.824
 8144W        W73404  28.072  42.460   1.919
 8145W        W73405   1.815   8.603  10.955
 8146W        W73406  36.047  24.455   1.973
 8147W        W73407  21.660  34.936   2.812
 8148W        W73408  15.282  35.389  13.349
 8149W        W73409  44.966  17.273   2.244
 8150W        W73410   3.155  11.688   2.859
 8151W        W73411  38.439  12.362  12.110
 8152W        W73412  10.595  40.231  12.081
 8153W        W73413  21.996  14.339   0.191
 8154W        W73414   7.520  42.704   3.418
 8155W        W73415  28.598  23.172  14.947
 8156W        W73416  39.305  21.517   3.348
 8157W        W73417  11.278  12.559  14.851
 8158W        W73418  31.640   2.964   1.618
 8159W        W73419  12.294   8.623   0.070
 8160W        W73420   3.918  16.049  10.613
 8161W        W73421  23.371  33.067  12.378
 8162W        W73422   9.873   9.421  11.142
 8163W        W73423  29.337  28.453   1.158
 8164W        W73424   5.240  23.703  12.430
 8165W        W73425  39.925  40.864   0.375
 8166W        W73426  30.169   4.194  14.441
 8167W        W73427  42.794   9.119   1.894
 8168W        W73428  11.823  43.078   2.735
 8169W        W73429  27.547  15.688   3.580
 8170W        W73430  37.739  40.074  13.936
 8171W        W73431   7.753  17.850  12.920
 8172W        W73432  21.278  21.187   0.649
 8173W        W73433  39.428  12.798  14.932
 8174W        W73434  33.960  22.083   1.152
 8175W        W73435   2.857  24.456   0.724
 8176W        W73436  11.547  13.550   1.280
 8177W        W73437  43.453  17.208  10.708
 8178W        W73438   6.171   9.779   4.794
 8179W        W73439  28.054  19.312   4.103
 8180W        W73440  33.344  34.291  12.202
 8181W        W73441  11.642  31.841   1.274
 8182W        W73442  18.624  25.928  11.944
 8183W        W73443   9.201  39.777  11.563
 8184W        W73444  28.060  28.961   4.405
 8185W        W73445  41.951  11.267   0.895
 8186W        W73446  26.127  30.570  10.868
 8187W        W73447  32.534  18.696  11.143
 8188W        W73448  43.880  17.595  13.774
 8189W        W73449  32.357   4.753  10.140
 8190W        W73450  21.517  32.548   4.497
 8191W        W73451  23.568  27.316  12.626
 8192W        W73452  16.635  36.951  12.935
 8193W        W73453  39.599  21.608   1.377
 8194W        W73454  25.538   2.647  12.419
 8195W        W73455   3.517  36.534  12.545
 8196W        W73456  15.570   0.749  12.192
 8197W        W73457  36.152  41.876   1.354
 8198W        W73458  13.375  42.964   4.772
 8199W        W73459  35.381  41.475  11.153
 8200W        W73460  18.577  12.675  10.826
 8201W        W73461  20.499  10.743   0.850
 8202W        W73462  12.778  13.545   2.779
 8203W        W73463  17.765  30.199   4.555
 8204W        W73464  13.191  15.863  12.063
 8205W        W73465   1.693  30.098  14.448
 8206W        W73466  21.859  23.005   3.297
 8207W        W73467   3.285  28.447   3.060
 8208W        W73468   2.723  24.068  11.587
 8209W        W73469  26.953  38.532  14.417
 8210W        W73470  13.188  43.224  12.590
 8211W        W73471  13.589   3.711  10.676
 8212W        W73472  32.259  25.400  10.776
 8213W        W73473  11.222  28.192  10.609
 8214W        W73474  21.608  21.618  10.291
 8215W        W73475   1.723   3.146   0.437
 8216W        W73476  33.851   6.339  14.286
 8217W        W73477  42.387  15.564  13.481
 8218W        W73478  31.564   5.254   2.271
 8219W        W73479  25.292   6.864   1.926
 8220W        W73480  43.130  32.531   1.025
 8221W        W73481  10.371  34.527  14.282
 8222W        W73482  35.458  34.897  14.996
 8223W        W73483   9.335  18.376   0.906
 8224W        W73484  10.326  25.139  13.538
 8225W        W73485  23.602  35.833   3.087
 8226W        W73486  13.159  29.017   2.812
 8227W        W73487  28.495  14.149   3.889
 8228W        W73488   9.345  17.677   3.210
 8229W        W73489   0.657  18.600  12.513
 8230W        W73490  14.293   8.662   2.584
 8231W        W73491  16.062   1.326   2.742
 8232W        W73492  14.711  44.446   3.767
 8233W        W73493  35.644  15.823   2.259
 8234W        W73494  43.940   7.384  14.018
 8235W        W73495  35.836  35.588  14.686
 8236W        W73496  44.335  10.398   3.297
 8237W        W73497   0.311  17.737   3.653
 8238W        W73498  33.576   0.245   2.484
 8239W        W73499  11.853  13.848   5.074
 8240W        W73500  17.541   5.013   0.411
 8241W        W73501  25.872  41.857  14.548
 8242W        W73502  33.863  11.985   0.297
 8243W        W73503  39.858  18.729   3.354
 8244W        W73504  20.108  15.350  14.739
 8245W        W73505  27.232   2.342  14.441
 8246W        W73506  26.245  32.410   4.672
 8247W        W73507  34.899  31.700  13.402
 8248W        W73508  15.590  39.379  13.372
 8249W        W73509   8.961   2.749  11.989
 8250W        W73510  31.051  36.505   1.685
 8251W        W73511  36.756  28.531  12.771
 8252W        W73512  21.604  35.040  14.832
 8253W        W73513  12.925  12.601  10.267
 8254W        W73514  34.982  42.292  11.159
 8255W        W73515  16.198  14.213   3.444
 8256W        W73516   4.705  13.513   4.609
 8257W        W73517  14.121  13.711   0.870
 8258W        W73518   3.705   3.437   2.835
 8259W        W73519  12.829  32.879   4.159
 8260W        W73520  31.014  27.646  12.461
 8261W        W73521  39.771  44.936   2.893
 8262W        W73522  35.254  35.966   4.549
 8263W        W73523   7.686  23.203   4.723
 8264W        W73524  38.355  38.111   0.578
 8265W        W73525   4.397  38.498  13.625
 8266W        W73526  39.291  35.398   2.041
 8267W        W73527  13.008  14.067  13.000
 8268W        W73528  38.815  41.365   0.535
 8269W        W73529   1.822  30.384  10.834
 8270W        W73530  26.491  10.516   0.262
 8271W        W73531  26.029  37.795  13.785
 8272W        W73532  30.120  40.382   2.774
 8273W        W73533  44.521  10.595  13.344
 8274W        W73534  38.819   2.903  13.238
 8275W        W73535   6.480  39.795   0.286
 8276W        W73536  36.464   4.731  14.495
 8277W        W73537   9.433  25.504   2.822
 8278W        W73538  10.728  33.052  11.536
 8279W        W73539  37.645   1.947  11.160
 8280W        W73540  15.897  11.987  11.587
 8281W        W73541  14.015  15.618   5.004
 8282W        W73542  35.845  26.789  14.303
 8283W        W73543  11.318  22.112  14.549
 8284W        W73544  17.237  12.158  13.790
 8285W        W73545  37.349  41.971   2.382
 8286W        W73546  30.514  23.620   2.601
 8287W        W73547  26.550  13.683  11.804
 8288W        W73548  24.922  14.593  13.889
 8289W        W73549  11.233  14.076  13.540
 8290W        W73550  25.426  35.634  14.953
 8291W        W73551  12.411  12.277  12.605
 8292W        W73552   0.892  35.641  13.974
 8293W        W73553  12.351  16.081   0.397
 8294W        W73554  37.817  32.954   2.715
 8295W        W73555  41.556  28.634  13.762
 8296W        W73556   5.878  19.939  14.031
 8297W        W73557  44.381  41.343  10.688
 8298W        W73558  29.241  19.196   1.213
 8299W        W73559  34.084   3.272   3.059
 8300W        W73560  15.171  23.226  13.870
 8301W        W73561  39.949  29.633  14.957
 8302W        W73562  39.786  13.799   3.873
 8303W        W73563  22.674  32.546  13.160
 8304W        W73564   8.240  30.788   3.452
 8305W        W73565  38.405  30.723  10.932
 8306W        W73566  35.938  13.092   3.850
 8307W        W73567  42.473  24.002  13.520
 8308W        W73568  10.700  36.018  11.237
 8309W        W73569  39.444  13.776  11.784
 8310W        W73570  40.167  36.516   4.158
 8311W        W73571  28.828  40.141  11.623
 8312W        W73572   6.267   5.637   4.015
 8313W        W73573  27.082  18.570   2.655
 8314W        W73574  39.449  31.227   2.843
 8315W        W73575   7.709  29.509  13.544
 8316W        W73576   4.861  31.644   0.018
 8317W        W73577  15.222  14.543   1.655
 8318W        W73578  17.533  30.471  11.146
 8319W        W73579   8.745  43.328   1.851
 8320W        W73580  13.514  12.852  12.582
 8321W        W73581  31.525   0.881   0.645
 8322W        W73582   4.935  35.873   5.023
 8323W        W73583  28.044  15.608  12.906
 8324W        W73584  26.439  28.615   1.967
 8325W        W73585  22.475   9.729  13.946
 8326W        W73586  41.402   1.762   0.392
 8327W        W73587   5.716  30.931  10.940
 8328W        W73588  33.392   4.492  13.127
 8329W        W73589  29.796  27.017  14.277
 8330W        W73590  28.510   7.417  13.572
 8331W        W73591  38.584   9.693   0.140
 8332W        W73592  38.147  14.662  14.573
 8333W        W73593  26.605  13.114   1.981
 8334W        W73594  23.256  14.967   1.662
 8335W        W73595   5.703  18.990  14.364
 8336W        W73596  29.462  17.085  11.068
 8337W        W73597  41.951  30.076   2.216
 8338W        W73598  21.001  26.313  14.938
 8339W        W73599  38.380  37.596  11.205
 8340W        W73600  35.543  38.356  14.893
 8341W        W73601  31.013  41.231  12.203
 8342W        W73602  35.207  39.619  12.116
 8343W        W73603  26.398  17.762  12.455
 8344W        W73604  20.643   1.827  13.067
 8345W        W73605   1.709  13.103   0.813
 8346W        W73606  18.455   3.437  10.583
 8347W        W73607  17.726  42.224  12.956
 8348W        W73608  37.064  21.794  12.454
 8349W        W73609  11.002  44.660   3.670
 8350W        W73610  25.551   7.336  11.364
 8351W        W73611  15.853  16.584   0.420
 8352W        W73612  39.960  14.061   0.926
 8353W        W73613  14.288  34.921  11.607
 8354W        W73614  21.670   2.483   2.842
 8355W        W73615  29.635  20.038  14.653
 8356W        W73616  37.754   7.241  14.930
 8357W        W73617  43.433  39.543   2.159
 8358W        W73618   6.313  26.878  13.433
 8359W        W73619  16.466   6.740  13.585
 8360W        W73620  44.915  40.284  13.087
 8361W        W73621  36.986  23.764   3.237
 8362W        W73622  36.806  17.456  14.379
 8363W        W73623   9.177  35.345   2.292
 8364W        W73624   7.207  24.565  11.897
 8365W        W73625  21.570   7.866   3.557
 8366W        W73626  10.705   2.056  14.555
 8367W        W73627  12.597  10.606   2.163
 8368W        W73628  18.579  39.253   1.877
 8369W        W73629  20.020   8.242   1.527
 8370W        W73630  31.144   1.397  10.406
 8371W        W73631  44.755   9.421   4.997
 8372W        W73632  10.998  31.112  14.371
 8373W        W73633  35.654  31.384  14.054
 8374W        W73634   6.760  26.623  11.595
 8375W        W73635  10.291  39.530   3.323
 8376W        W73636  19.057  34.493  13.496
 8377W        W73637  23.997  10.830   3.348
 8378W        W73638  33.049  40.770   1.845
 8379W        W73639  36.683  29.702  12.567
 8380W        W73640   5.046  16.435  14.138
 8381W        W73641   5.967  39.009   2.669
 8382W        W73642  23.639  13.765   0.494
 8383W        W73643  10.274  22.965   4.190
 8384W        W73644  15.030  16.845  12.086
 8385W        W73645  32.241  11.020   5.309
 8386W        W73646   8.768  16.080  14.999
 8387W        W73647  17.761  37.285   3.856
 8388W        W73648  41.934  28.666  10.953
 8389W        W73649  29.076   1.538  14.907
 8390W        W73650  18.788  40.008  11.596
 8391W        W73651  37.394  32.498   4.269
 8392W        W73652  15.053  11.914   2.917
 8393W        W73653  43.812  19.316  14.739
 8394W        W73654  28.994   2.899   4.873
 8395W        W73655  38.510  13.929   1.334
 8396W        W73656  20.552   0.342  14.413
 8397W        W73657  27.579  10.067  14.043
 8398W        W73658  44.307  17.217   0.830
 8399W        W73659  10.916  28.656   3.657
 8400W        W73660  40.107  40.407  14.503
 8401W        W73661   4.723  26.201  10.673
 8402W        W73662  33.094  28.145   4.193
 8403W        W73663  22.359  43.337   3.311
 8404W        W73664  29.656  33.888   0.216
 8405W        W73665  42.189  31.924   4.499
 8406W        W73666  34.476  43.409  10.918
 8407W        W73667  31.350   6.512  13.834
 8408W        W73668  11.737   5.901  13.575
 8409W        W73669  26.753   4.668   2.189
 8410W        W73670  13.581  25.168   0.709
 8411W        W73671  33.401  16.499   3.630
 8412W        W73672  20.556   3.663   3.531
 8413W        W73673  38.947  19.859  11.702
 8414W        W73674  20.836  28.603   1.486
 8415W        W73675  13.319  44.271   2.791
 8416W        W73676  18.079   0.696  13.025
 8417W        W73677   9.394  18.288   2.237
 8418W        W73678  14.943  19.788   4.788
 8419W        W73679  14.691  35.902   3.744
 8420W        W73680  36.805  27.696  14.641
 8421W        W73681  30.994  33.432   1.894
 8422W        W73682  28.059  41.402  12.061
 8423W        W73683   4.963  15.952   3.700
 8424W        W73684  20.156  41.677  12.121
 8425W        W73685  31.109   6.676  12.089
 8426W        W73686   9.675   7.849   2.899
 8427W        W73687  27.906  42.625   4.577
 8428W        W73688   7.249   1.144  12.716
 8429W        W73689   1.353  36.874   4.486
 8430W        W73690  10.123   2.379  13.040
 8431W        W73691   7.764  13.634   3.691
 8432W        W73692   0.448  23.012  12.492
 8433W        W73693  22.713  14.570   2.800
 8434W        W73694  41.572  31.116  13.980
 8435W        W73695   3.844  18.804   0.423
 8436W        W73696  24.083   2.466  13.777
 8437W        W73697  30.338   1.328   1.536
 8438W        W73698  23.364  18.335   1.420
 8439W        W73699  10.386  24.026   2.656
 8440W        W73700  35.570  20.218   0.896
 8441W        W73701   0.465  27.597  12.848
 8442W        W73702  27.802  25.058   3.485
 8443W        W73703   5.136   9.964   0.656
 8444W        W73704  42.038  43.995  11.167
 8445W        W73705  15.485  21.048  12.218
 8446W        W73706  31.631   0.318  12.183
 8447W        W73707  16.072  28.370  14.816
 8448W        W73708  15.169  42.248  11.367
 8449W        W73709  15.641  42.950   1.756
 8450W        W73710   9.359  22.795   4.372
 8451W        W73711  35.332  17.150   4.670
 8452W        W73712  11.270  10.100  12.044
 8453W        W73713  21.155  15.800  10.193
 8454W        W73714  33.900  18.863  11.095
 8455W        W73715   9.845  25.217  13.284
 8456W        W73716  30.832   5.790  11.469
 8457W        W73717   7.296  31.070   2.146
 8458W        W73718  37.297  21.658  12.022
 8459W        W73719  20.110  23.602  10.249
 8460W        W73720  10.116  39.523  14.963
 8461W        W73721  16.606  18.971   0.864
 8462W        W73722  23.335  15.713  13.869
 8463W        W73723  41.820  13.325  11.003
 8464W        W73724  32.250  14.531  12.557
 8465W        W73725  12.002  29.129  12.980
 8466W        W73726  38.492  13.549  13.554
 8467W        W73727  23.143  27.416   4.576
 8468W        W73728  43.572   1.807   2.182
 8469W        W73729   3.717  21.244  11.634
 8470W        W73730  28.867  21.063  14.904
 8471W        W73731  14.590  43.828   4.570
 8472W        W73732  42.703  44.342   1.755
 8473W        W73733   6.563  36.250  14.003
 8474W        W73734  13.340  18.633   2.470
 8475W        W73735  20.962   3.717   4.718
 8476W        W73736  35.853  37.363  13.111
 8477W        W73737  31.088  31.139  12.141
 8478W        W73738   1.624  14.177  14.033
 8479W        W73739  31.907  27.668  11.148
 8480W        W73740  16.136  21.683   2.748
 8481W        W73741  33.921  33.388   2.766
 8482W        W73742  34.074  17.683   3.537
 8483W        W73743  40.116   3.178  13.943
 8484W        W73744  27.187  11.969   3.894
 8485W        W73745  19.546   6.012   2.677
 8486W        W73746  36.250  32.889   1.107
 8487W        W73747  11.082  18.441   1.990
 8488W        W73748  41.853  14.216   0.191
 8489W        W73749  10.108  25.685  13.794
 8490W        W73750  10.918  20.999  13.342
 8491W        W73751  23.549  20.682  12.445
 8492W        W73752  44.962  42.056  12.141
 8493W        W73753  23.689  20.390  12.043
 8494W        W73754  36.961  32.360   0.574
 8495W        W73755  44.130  19.169   4.615
 8496W        W73756  39.527  39.541  12.496
 8497W        W73757   2.493  24.167  11.128
 8498W        W73758   3.384  29.122   0.928
 8499W        W73759  11.225   4.172  12.493
 8500W        W73760   8.879   3.485  13.069
 8501W        W73761  12.393  40.825  11.581
 8502W        W73762  41.441  15.767   1.050
 8503W        W73763  26.911  31.663  14.875
 8504W        W73764  20.323   9.319  13.439
 8505W        W73765   0.250  39.361  10.417
 8506W        W73766  28.055  44.745  13.444
 8507W        W73767  31.867   9.797   4.796
 8508W        W73768   7.493  24.082   0.460
 8509W        W73769  27.090   0.302   3.165
 8510W        W73770  16.626  12.453   4.027
 8511W        W73771  41.596  14.781  13.383
 8512W        W73772  16.296   3.777  11.950
 8513W        W73773   2.180  20.672   0.721
 8514W        W73774  23.502  31.639  13.021
 8515W        W73775   1.049   9.266   0.178
 8516W        W73776  29.479  21.608   2.801
 8517W        W73777   8.672  35.422   0.325
 8518W        W73778  24.462  28.624  11.028
 8519W        W73779  23.095  16.685  12.587
 8520W        W73780  11.084  27.184   1.817
 8521W        W73781  35.453  22.363  13.490
 8522W        W73782  44.537  14.269  13.039
 8523W        W73783  12.159  40.264   2.763
 8524W        W73784  14.960  21.542   2.194
 8525W        W73785  42.569   0.427  14.434
 8526W        W73786  24.307  32.075  10.669
 8527W        W73787  11.040   2.353  13.929
 8528W        W73788  20.203  29.583  14.201
 8529W        W73789   1.336  41.465   3.648
 8530W        W73790  20.607  36.864  10.967
 8531W        W73791   2.244  38.865   3.678
 8532W        W73792  29.928  29.999   3.229
 8533W        W73793   6.654   4.128   1.596
 8534W        W73794   8.334   4.529   0.370
 8535W        W73795  25.553  14.259   2.124
 8536W        W73796  11.362  22.735  12.508
 8537W        W73797  28.375  32.145   0.323
 8538W        W73798  27.510  42.963   4.693
 8539W        W73799  38.909  14.602   3.857
 8540W        W73800  32.848  29.603   4.120
 8541W        W73801  26.367  32.118  10.751
 8542W        W73802  12.928  14.703   3.938
 8543W        W73803   2.413  21.120   1.885
 8544W        W73804  17.156  11.699  14.704
 8545W        W73805  27.368  13.105  14.366
 8546W        W73806  25.555   6.223   0.587
 8547W        W73807   2.838   2.018   0.416
 8548W        W73808  29.951  28.307  11.148
 8549W        W73809  19.598  44.537   2.793
 8550W        W73810  25.462  34.914   1.258
 8551W        W73811   0.937  35.883  10.644
 8552W        W73812  28.489  25.558  10.515
 8553W        W73813  26.548  19.781  14.492
 8554W        W73814  27.734   7.709   1.648
 8555W        W73815  34.075  44.464  11.299
 8556W        W73816   5.031  16.540   1.494
 8557W        W73817  42.647  20.874  11.433
 8558W        W73818  18.433  41.319  10.249
 8559W        W73819   1.837  23.180  14.912
 8560W        W73820  25.031  38.106   0.446
 8561W        W73821  38.947   5.196   3.359
 8562W        W73822  20.122  43.008   3.304
 8563W        W73823  30.604  33.121  10.672
 8564W        W73824  31.061  36.646  14.692
 8565W        W73825   2.221  29.950  13.179
 8566W        W73826  12.851  35.584   1.751
 8567W        W73827  16.031  14.348  10.966
 8568W        W73828  42.590  39.578   4.375
 8569W        W73829  14.361  18.193  14.504
 8570W        W73830  42.664  23.701   1.437
 8571W        W73831   3.758  41.071   2.339
 8572W        W73832   6.280  35.600  14.646
 8573W        W73833  13.244  10.405  11.622
 8574W        W73834   9.797  11.669   2.838
 8575W        W73835  18.976  41.340   3.592
 8576W        W73836  39.786   8.808  13.418
 8577W        W73837  34.817   7.574   1.874
 8578W        W73838   3.353  21.546  12.546
 8579W        W73839  35.632  12.645   1.179
 8580W        W73840  22.903   8.919  10.451
 8581W        W73841   0.568   5.758   1.942
 8582W        W73842   3.682  10.550  14.875
 8583W        W73843  12.645   2.158   2.710
 8584W        W73844  10.260   0.882  13.921
 8585W        W73845  25.806  26.165   1.931
 8586W        W73846   1.194  23.809  11.521
 8587W        W73847  42.781  21.106  13.033
 8588W        W73848  28.192  38.485  12.178
 8589W        W73849  12.733  14.983   0.828
 8590W        W73850  14.646  34.375  11.095
 8591W        W73851   0.402   0.540   1.358
 8592W        W73852  31.742  22.690  13.544
 8593W        W73853  33.551  22.465   2.664
 8594W        W73854  33.973  13.232  14.946
 8595W        W73855  35.567  15.386   1.350
 8596W        W73856  32.101  26.160  14.493
 8597W        W73857   1.469   4.776   2.881
 8598W        W73858  12.121  18.660   4.195
 8599W        W73859   8.861  28.483   1.309
 8600W        W73860  24.554  34.786   2.153
 8601W        W73861  11.347  19.567   1.189
 8602W        W73862   0.920   1.945  13.100
 8603W        W73863  12.758  26.205   0.766
 8604W        W73864   3.332  44.479  13.878
 8605W        W73865  27.167  43.450  14.042
 8606W        W73866  43.445  44.672   3.530
 8607W        W73867  22.479  21.832   4.189
 8608W        W73868   5.481  26.533   0.747
 8609W        W73869  20.224  16.627  14.495
 8610W        W73870  13.304  28.592   0.453
 8611W        W73871   6.819  40.896  10.725
 8612W        W73872  32.948  14.922  10.583
 8613W        W73873  40.956  18.071  10.616
 8614W        W73874  14.520  20.657   1.970
 8615W        W73875  26.535  43.404  12.859
 8616W        W73876  40.821  30.622  14.494
 8617W        W73877   0.502  22.449   4.115
 8618W        W73878  36.955  27.496  11.426
 8619W        W73879  10.294  31.553   3.141
 8620W        W73880  20.283  15.874  11.900
 8621W        W73881   6.169  28.104  14.422
 8622W        W73882  38.583   0.342  13.597
 8623W        W73883  40.940   7.608  14.945
 8624W        W73884  18.486  37.564  14.314
 8625W        W73885  38.538  22.421  12.339
 8626W        W73886  23.099  14.121  10.917
 8627W        W73887  36.641  13.039   4.088
 8628W        W73888  23.599  35.065   2.148
 8629W        W73889  27.841  22.459   3.641
 8630W        W73890   2.703  37.801  14.801
 8631W        W73891  38.727  30.151  12.953
 8632W        W73892   4.310  19.828  12.743
 8633W        W73893  22.417  44.780   0.870
 8634W        W73894   1.037  34.424   0.232
 8635W        W73895  44.193  42.581   0.331
 8636W        W73896  31.646  34.197   3.208
 8637W        W73897   5.892  23.220   0.388
 8638W        W73898  14.189  42.412   4.507
 8639W        W73899  43.019  15.712   2.940
 8640W        W73900  17.430  33.516  13.339
 8641W        W73901  21.522  19.177   5.581
 8642W        W73902  39.761   9.131  12.997
 8643W        W73903  31.443  31.744  14.899
 8644W        W73904  34.846  19.231  13.508
 8645W        W73905  18.095  35.348   4.576
 8646W        W73906  10.856  13.742   3.658
 8647W        W73907  20.005  42.830   0.683
 8648W        W73908  28.722  34.441  12.917
 8649W        W73909   4.731  18.565   3.664
 8650W        W73910   7.199   1.277  14.835
 8651W        W73911   4.342  33.507   4.892
 8652W        W73912   5.590  30.061   3.373
 8653W        W73913  22.012   5.679   2.775
 8654W        W73914   5.988   3.365  13.237
 8655W        W73915  34.098  10.950   0.431
 8656W        W73916  27.468  32.176   4.038
 8657W        W73917  41.455  10.206   4.617
 8658W        W73918  12.193  25.971   3.308
 8659W        W73919   1.944  41.427   1.466
 8660W        W73920  15.361   0.928  13.739
 8661W        W73921  27.954  44.251   0.459
 8662W        W73922   4.432  41.367  10.773
 8663W        W73923   4.356  43.868   0.566
 8664W        W73924   8.912   3.328   1.209
 8665W        W73925  18.517   2.714  12.367
 8666W        W73926  41.475  40.789   1.444
 8667W        W73927   1.388  11.787   3.143
 8668W        W73928   2.869  29.706   3.443
 8669W        W73929  21.974  39.905   1.303
 8670W        W73930  29.616   7.069   0.284
 8671W        W73931  28.609  17.340  12.223
 8672W        W73932   7.309   4.215  13.915
 8673W        W73933   5.390  22.978  12.816
 8674W        W73934  38.365  20.130   0.194
 8675W        W73935  17.013   2.104  12.688
 8676W        W73936  14.809  18.888   3.503
 8677W        W73937  18.989  14.609  13.950
 8678W        W73938   5.831  23.954  10.595
 8679W        W73939  30.886  41.997  10.728
 8680W        W73940  25.132  19.038   3.509
 8681W        W73941  32.006  24.860   2.688
 8682W        W73942  40.893  25.596   2.186
 8683W        W73943  10.813   8.239  12.398
 8684W        W73944   6.433  35.732   4.154
 8685W        W73945  13.821   3.568  12.368
 8686W        W73946   5.605   3.345   2.677
 8687W        W73947  15.567   4.348  12.950
 8688W        W73948  29.043   2.779   2.792
 8689W        W73949  22.966  13.695   3.553
 8690W        W73950  11.152  20.133   2.893
 8691W        W73951  26.169  40.560  14.214
 8692W        W73952  43.301  43.092  13.138
 8693W        W73953   1.831  40.732  11.098
 8694W        W73954  35.782  41.489   2.631
 8695W        W73955  39.360  42.937   1.270
 8696W        W73956  28.441  14.755  14.231
 8697W        W73957   2.849   2.852  10.654
 8698W        W73958  35.945   9.258   3.096
 8699W        W73959  13.978  24.039  11.494
 8700W        W73960  31.424  41.059   1.449
 8701W        W73961   1.222   4.266   3.715
 8702W        W73962  18.838  28.906   3.741
 8703W        W73963  44.445   4.218  14.118
 8704W        W73964  30.864  16.724   1.433
 8705W        W73965  30.889  21.970  10.971
 8706W        W73966  21.529  40.087  13.184
 8707W        W73967   3.511  14.045  13.766
 8708W        W73968   3.451  36.981  11.756
 8709W        W73969  32.380  34.918   1.983
 8710W        W73970  26.038  43.499  11.978
 8711W        W73971   3.651  43.501  13.973
 8712W        W73972   1.332  38.066   2.690
 8713W        W73973   3.231   6.017   3.638
 8714W        W73974  26.559  35.617   4.698
 8715W        W73975   1.971   4.226   3.315
 8716W        W73976   5.623  36.425  11.673
 8717W        W73977  29.912  16.139  13.307
 8718W        W73978  15.391  44.313   0.965
 8719W        W73979  29.011  34.237   2.394
 8720W        W73980   4.538  19.039   3.083
 8721W        W73981  33.939   4.323  14.325
 8722W        W73982   2.985  36.872   2.957
 8723W        W73983  37.107  29.823  10.913
 8724W        W73984  37.453  12.547  13.762
 8725W        W73985  43.165  31.171  12.631
 8726W        W73986   8.236  25.627  10.971
 8727W        W73987  37.022  42.461   4.278
 8728W        W73988  37.195  25.249   3.400
 8729W        W73989  14.085  41.972  12.651
 8730W        W73990   1.701  19.276   4.664
 8731W        W73991  38.446  16.103   0.755
 8732W        W73992  23.463   4.260   2.757
 8733W        W73993   9.389  12.873  10.470
 8734W        W73994  40.478   0.287   9.852
 8735W        W73995   5.579   8.226   0.500
 8736W        W73996   5.764  39.778   4.599
 8737W        W73997   5.944  42.314  13.442
 8738W        W73998  39.517   0.810   0.398
 8739W        W73999  35.033  19.286   2.673
 8740W        W74000  16.754  14.726  14.744
 8741W        W74001  15.346  28.243   4.168
 8742W        W74002  32.202  44.964  13.939
 8743W        W74003  21.566   5.008   1.505
 8744W        W74004   0.875  40.471  10.648
 8745W        W74005  39.329  36.123   2.645
 8746W        W74006  13.389  13.933  14.096
 8747W        W74007  39.389  31.364   1.251
 8748W        W74008  36.504  28.394   3.047
 8749W        W74009  18.101  11.546  12.115
 8750W        W74010  35.870   5.163  12.065
 8751W        W74011  43.841   3.725   4.177
 8752W        W74012  19.758  15.122   3.235
 8753W        W74013  12.444  43.378  11.886
 8754W        W74014  18.156   2.988   2.802
 8755W        W74015   7.953  41.141   2.785
 8756W        W74016  13.737   3.687   4.044
 8757W        W74017  15.796  40.759   1.295
 8758W        W74018  22.974  42.260   0.355
 8759W        W74019   4.444  38.287  13.135
 8760W        W74020  40.853  16.901   3.384
 8761W        W74021  18.899  24.550   3.403
 8762W        W74022  36.360   8.375  13.840
 8763W        W74023   8.946  29.582   2.466
 8764W        W74024   3.087  15.927   0.308
 8765W        W74025  21.931  41.376   4.397
 8766W        W74026  30.619  43.121  14.051
 8767W        W74027  10.949  16.563   2.343
 8768W        W74028  20.002  43.935  12.034
 8769W        W74029   6.134  19.282  14.427
 8770W        W74030   7.217   8.197   1.240
 8771W        W74031  33.559  10.559   9.867
 8772W        W74032  27.233   4.843   9.947
 8773W        W74033   2.068  15.420  13.511
 8774W        W74034  42.965  40.886   4.569
 8775W        W74035  36.985  20.342   4.108
 8776W        W74036  34.553   9.277  11.463
 8777W        W74037   6.881  14.693  11.208
 8778W        W74038  38.613   9.134   2.240
 8779W        W74039  14.147   9.912   3.318
 8780W        W74040  10.611  37.020  13.158
 8781W        W74041  40.205  23.530   0.392
 8782W        W74042  16.732  28.656   4.080
 8783W        W74043  10.260  33.159   2.324
 8784W        W74044   1.931  38.500   1.635
 8785W        W74045  21.222  22.431   1.750
 8786W        W74046  24.241  38.932  13.979
 8787W        W74047  23.160   0.923  12.752
 8788W        W74048  39.839  31.831  10.888
 8789W        W74049  11.081  42.474  11.737
 8790W        W74050  23.039  25.141  14.434
 8791W        W74051   8.188  33.526  14.719
 8792W        W74052  14.965  39.512  11.623
 8793W        W74053  15.019  43.133   4.118
 8794W        W74054   8.103   1.422   3.345
 8795W        W74055   8.389   6.320   0.759
 8796W        W74056  22.419  44.346  13.949
 8797W        W74057  13.891  26.454  12.971
 8798W        W74058  35.840   8.872  10.820
 8799W        W74059  21.523   0.415  11.378
 8800W        W74060   3.987  39.074   4.311
 8801W        W74061  44.930   7.705  14.382
 8802W        W74062  12.210  15.826  13.900
 8803W        W74063  36.338  34.108  14.268
 8804W        W74064  30.455  43.547  10.609
 8805W        W74065  16.781   2.485   3.738
 8806W        W74066  24.171  44.846  14.421
 8807W        W74067  34.189   2.632   1.446
 8808W        W74068   1.466  23.525   2.769
 8809W        W74069  15.293  21.643   3.183
 8810W        W74070   3.481  15.854  12.983
 8811W        W74071  14.715  31.937  14.940
 8812W        W74072  12.255   5.909  12.927
 8813W        W74073  23.711  28.552   0.692
 8814W        W74074   7.914  36.862  12.505
 8815W        W74075   9.781  12.551   1.208
 8816W        W74076  21.356  41.978   5.128
 8817W        W74077  41.864  32.385  13.393
 8818W        W74078   6.670  30.223  14.511
 8819W        W74079  25.960  13.362   4.208
 8820W        W74080  36.987  44.717   1.884
 8821W        W74081  18.699  30.817  11.838
 8822W        W74082   9.858  44.592  14.115
 8823W        W74083  16.715  18.540   1.754
 8824W        W74084  22.224  11.394   3.110
 8825W        W74085  42.792  29.579   5.031
 8826W        W74086  41.627  13.969   1.326
 8827W        W74087  36.344  42.322  14.059
 8828W        W74088  16.423  37.755  12.097
 8829W        W74089  39.033  30.374   0.882
 8830W        W74090  10.252   1.674   0.275
 8831W        W74091  42.715  41.882  10.929
 8832W        W74092  44.497  29.599   4.031
 8833W        W74093  25.210  34.659  12.342
 8834W        W74094  20.552  29.633  12.852
 8835W        W74095  11.659   6.157   9.800
 8836W        W74096  39.004   3.374   4.208
 8837W        W74097  18.537  35.139   5.046
 8838W        W74098  22.282   5.171   0.053
 8839W        W74099  27.088  36.976  13.765
 8840W        W74100  35.519  31.977   4.928
 8841W        W74101  17.289  33.638  14.744
 8842W        W74102  23.638  37.899   4.611
 8843W        W74103   1.338  30.652  10.790
 8844W        W74104  13.565  25.762  10.905
 8845W        W74105  17.276  27.236  13.846
 8846W        W74106   3.776   9.689   4.084
 8847W        W74107   0.722  40.362   2.446
 8848W        W74108  36.420  39.476   0.909
 8849W        W74109  29.602  32.055  14.974
 8850W        W74110  27.128  29.422  11.143
 8851W        W74111   3.413  10.687   3.148
 8852W        W74112  14.774  39.453   2.736
 8853W        W74113  20.365  22.001   1.745
 8854W        W74114   1.298  17.789   0.776
 8855W        W74115  18.219   5.733  11.402
 8856W        W74116  11.926  13.564  14.017
 8857W        W74117  20.242  32.990  12.369
 8858W        W74118  35.843  11.846   0.395
 8859W        W74119  12.879  19.706   3.265
 8860W        W74120  18.101   7.833   2.389
 8861W        W74121  14.993  43.218  11.129
 8862W        W74122  44.897  32.558  13.233
 8863W        W74123  41.720  27.605  14.377
 8864W        W74124  16.733  24.074   1.892
 8865W        W74125  36.473   4.263  14.966
 8866W        W74126  21.680   2.620  11.088
 8867W        W74127  42.466  30.119  11.506
 8868W        W74128  34.924  13.266  12.058
 8869W        W74129  10.129  15.737  14.865
 8870W        W74130  39.961   9.597  12.971
 8871W        W74131  36.990  37.796   3.671
 8872W        W74132  25.019  26.388   3.908
 8873W        W74133  39.429  39.895  10.450
 8874W        W74134  34.478   0.495   1.547
 8875W        W74135  25.744  30.533   2.312
 8876W        W74136   3.432  40.813   0.517
 8877W        W74137  28.493  44.375   0.387
 8878W        W74138   5.713  12.702  12.011
 8879W        W74139  35.403   4.234   4.129
 8880W        W74140  44.445  44.325  11.229
 8881W        W74141  41.507  12.267  14.444
 8882W        W74142  34.907  15.880  12.400
 8883W        W74143  33.528   5.360  10.656
 8884W        W74144  17.346  29.176   3.761
 8885W        W74145   6.913   2.330  10.871
 8886W        W74146  42.245  43.895   0.297
 8887W        W74147  36.069  39.530   1.885
 8888W        W74148  32.635  23.512   2.212
 8889W        W74149  18.542   0.202  14.065
 8890W        W74150   1.535  21.572   0.736
 8891W        W74151   9.871  32.382   0.708
 8892W        W74152  24.413  14.320  12.550
 8893W        W74153  41.493  34.389   2.617
 8894W        W74154  44.850  17.756  14.796
 8895W        W74155  28.808  17.411   0.874
 8896W        W74156  30.501   1.858   4.525
 8897W        W74157  38.465  36.444   2.226
 8898W        W74158  17.813   3.738  11.162
 8899W        W74159   8.645   3.159   3.876
 8900W        W74160  23.240  41.847   2.237
 8901W        W74161  11.915  35.506  13.026
 8902W        W74162   4.367  22.785   2.400
 8903W        W74163  14.191  32.165  11.652
 8904W        W74164  15.248  40.552   4.393
 8905W        W74165  26.684   0.965  13.883
 8906W        W74166  33.364  38.311  13.529
 8907W        W74167  32.078  33.579   4.323
 8908W        W74168   6.085  36.974  12.153
 8909W        W74169  34.417  23.255  12.456
 8910W        W74170   6.878  16.906   3.710
 8911W        W74171  29.829  15.343   1.181
 8912W        W74172  20.516  23.230   2.746
 8913W        W74173   6.763   8.190  12.019
 8914W        W74174  13.471  15.817  13.392
 8915W        W74175   2.201  37.934  13.868
 8916W        W74176  35.121   5.797   4.293
 8917W        W74177  43.573  18.950  12.483
 8918W        W74178   6.211  41.868  13.370
 8919W        W74179   8.912  25.080   3.650
 8920W        W74180   3.324  40.798   4.247
 8921W        W74181  18.534  25.348  13.538
 8922W        W74182   9.185  25.082  13.138
 8923W        W74183  30.852   5.773   1.127
 8924W        W74184  40.308  25.071  13.384
 8925W        W74185   4.294  25.836  10.125
 8926W        W74186  32.176  26.259   2.422
 8927W        W74187  19.995  31.924   2.422
 8928W        W74188  18.784  27.761  13.403
 8929W        W74189  41.812  39.394   1.325
 8930W        W74190  21.760  23.921   1.237
 8931W        W74191  12.172   0.759  13.167
 8932W        W74192   2.814   0.503   4.561
 8933W        W74193  43.343  31.795  14.628
 8934W        W74194  35.126  23.166  11.217
 8935W        W74195  16.853  31.035  10.501
 8936W        W74196   4.377   6.724   1.832
 8937W        W74197   3.937   1.163  14.414
 8938W        W74198  19.834  16.044  12.579
 8939W        W74199   9.256  12.002  11.592
 8940W        W74200  20.772  28.059  14.011
 8941W        W74201  11.280  30.999   2.211
 8942W        W74202  24.773  10.723  11.026
 8943W        W74203  14.611  10.858   3.181
 8944W        W74204  14.748  40.757   0.974
 8945W        W74205   5.443  26.786  11.937
 8946W        W74206  42.056  38.917  11.530
 8947W        W74207  24.176  10.848  13.341
 8948W        W74208  33.528  37.882  13.190
 8949W        W74209  28.549  29.429   2.271
 8950W        W74210   7.427   6.144  11.228
 8951W        W74211  40.928  12.091  12.059
 8952W        W74212  34.844  17.167   3.666
 8953W        W74213  22.512  41.314   2.279
 8954W        W74214   1.502  30.457   2.405
 8955W        W74215  32.075  28.444   2.759
 8956W        W74216   2.368  12.787   2.349
 8957W        W74217  18.701  29.952  11.856
 8958W        W74218  31.556  39.318   1.915
 8959W        W74219   3.055   5.042  12.540
 8960W        W74220  20.622  17.930   3.512
 8961W        W74221   8.918  43.587  14.356
 8962W        W74222   9.748   3.383  11.672
 8963W        W74223  12.784  20.521  10.890
 8964W        W74224  24.016  32.330  13.023
 8965W        W74225   3.001  10.857   9.945
 8966W        W74226  30.567  35.316  10.595
 8967W        W74227  36.530  37.903   4.898
 8968W        W74228  40.400  33.817  12.918
 8969W        W74229  16.144   7.625   0.302
 8970W        W74230  17.668  18.085   1.046
 8971W        W74231  12.841  35.872   1.277
 8972W        W74232  24.072   9.783   4.823
 8973W        W74233   2.971  30.027   9.790
 8974W        W74234  43.070   8.348  14.560
 8975W        W74235  31.960  18.381   4.226
 8976W        W74236   4.768  39.176  10.526
 8977W        W74237  42.384  40.298   2.195
 8978W        W74238  44.199  13.459   4.897
 8979W        W74239  41.984   9.787   1.464
 8980W        W74240  10.067   1.954   2.715
 8981W        W74241  14.827  26.305   1.852
 8982W        W74242   9.143  18.122  13.083
 8983W        W74243  16.199   7.362  12.523
 8984W        W74244  32.557  42.989   0.806
 8985W        W74245  33.839  32.394   4.092
 8986W        W74246  33.500  18.210  11.191
 8987W        W74247   6.721  28.588   2.202
 8988W        W74248  43.278  26.757   3.611
 8989W        W74249  32.375   4.917  14.272
 8990W        W74250  39.838  11.235   3.184
 8991W        W74251  10.003  39.379  12.445
 8992W        W74252  39.973  27.043  14.444
 8993W        W74253  16.223   4.819   4.029
 8994W        W74254   9.781   2.987   4.508
 8995W        W74255  27.631  27.429   4.026
 8996W        W74256  35.252  33.621  10.426
 8997W        W74257  40.347  28.372  11.212
 8998W        W74258  13.408  11.312  13.092
 8999W        W74259  39.770  35.425   2.279
 9000W        W74260  26.068   0.434   1.927
 9001W        W74261   0.926  26.739   2.624
 9002W        W74262   1.122   4.796  11.470
 9003W        W74263  26.050  10.191  11.929
 9004W        W74264  36.312  41.066   0.274
 9005W        W74265  43.723  25.059  12.975
 9006W        W74266   2.735  34.917   1.502
 9007W        W74267  18.292  25.692   2.160
 9008W        W74268  41.446  41.995   4.248
 9009W        W74269  31.701  37.585   2.865
 9010W        W74270  25.397  18.538   1.721
 9011W        W74271  11.095  23.577   4.197
 9012W        W74272  18.118  15.064   3.096
 9013W        W74273  25.656  35.124   4.585
 9014W        W74274  20.817  35.365   2.800
 9015W        W74275  23.141  36.381   3.558
 9016W        W74276  41.473  12.941  14.784
 9017W        W74277   7.726  20.645  13.393
 9018W        W74278  41.548   3.459   3.740
 9019W        W74279  29.687  32.294   3.254
 9020W        W74280  22.430  26.192   4.163
 9021W        W74281   5.829  44.205   1.536
 9022W        W74282   7.148  36.423  11.282
 9023W        W74283  35.032  33.580  11.139
 9024W        W74284   0.156  19.648   3.203
 9025W        W74285  40.947  24.828   0.452
 9026W        W74286  42.783   9.726   2.808
 9027W        W74287  44.568  41.895  13.992
 9028W        W74288  18.927  36.993   1.065
 9029W        W74289  21.062  36.830  10.741
 9030W        W74290  27.967  35.551  14.100
 9031W        W74291   5.627  25.517   2.217
 9032W        W74292  23.803  38.525  10.717
 9033W        W74293  40.462  38.761  14.787
 9034W        W74294  13.201   3.259  13.387
 9035W        W74295  20.821  14.065  10.287
 9036W        W74296  18.077  26.639   3.122
 9037W        W74297  27.279   0.330  10.932
 9038W        W74298  11.008   3.865   0.694
 9039W        W74299  13.832  29.206  14.260
 9040W        W74300   0.968  20.720   3.098
 9041W        W74301  16.145  14.018   0.290
 9042W        W74302  14.834  37.900  14.169
 9043W        W74303  28.807  32.015  13.978
 9044W        W74304  19.785   5.308  13.938
 9045W        W74305   0.105  11.078   1.400
 9046W        W74306  13.130  38.200   4.861
 9047W        W74307  24.109  43.151  11.174
 9048W        W74308  13.105  21.674  13.574
 9049W        W74309  30.465   7.156   1.206
 9050W        W74310  11.776  36.120   5.125
 9051W        W74311  24.176  12.097   1.475
 9052W        W74312   7.664  16.765  11.517
 9053W        W74313  22.656  16.777   3.090
 9054W        W74314  17.274   5.190  11.947
 9055W        W74315  28.463   3.181   4.290
 9056W        W74316   6.916  40.722  12.899
 9057W        W74317  10.267  18.205   2.915
 9058W        W74318   6.862  18.724   1.939
 9059W        W74319  37.506  39.934   3.833
 9060W        W74320  44.399  30.052   3.795
 9061W        W74321  41.517  34.026   0.331
 9062W        W74322  37.490   1.699  14.906
 9063W        W74323  16.714   3.317   0.508
 9064W        W74324  41.867  13.268  12.355
 9065W        W74325  26.670  24.133  14.906
 9066W        W74326  30.597   4.503  14.420
 9067W        W74327   0.797  19.188  10.560
 9068W        W74328  24.698   1.792  13.384
 9069W        W74329  19.427  22.331   0.598
 9070W        W74330  13.899   5.300   3.308
 9071W        W74331  37.409  17.807  11.044
 9072W        W74332  30.664  22.592  11.720
 9073W        W74333  35.497   3.300  14.806
 9074W        W74334  34.533  37.143  12.891
 9075W        W74335  20.634  22.470  12.168
 9076W        W74336  34.059  24.701  14.840
 9077W        W74337   9.783  18.169  14.477
 9078W        W74338  28.114  26.006   1.677
 9079W        W74339  23.252  41.589  14.010
 9080W        W74340  39.649  27.529   4.201
 9081W        W74341   6.156  14.560  12.398
 9082W        W74342  10.653  43.227   3.460
 9083W        W74343  29.254  22.613   4.557
 9084W        W74344   3.954  12.863   0.778
 9085W        W74345  43.461  11.353   2.852
 9086W        W74346  33.362   6.608   2.205
 9087W        W74347  23.679  23.007  10.697
 9088W        W74348  35.872  13.342  13.883
 9089W        W74349   6.802  40.392  11.969
 9090W        W74350  32.839  39.232   1.055
 9091W        W74351  35.591  32.433   3.319
 9092W        W74352  24.931  22.272   4.859
 9093W        W74353   8.904  23.656  10.838
 9094W        W74354  11.759  36.428   3.278
 9095W        W74355  21.922  32.037   4.171
 9096W        W74356  30.779  28.416  13.854
 9097W        W74357  13.980  22.231  12.553
 9098W        W74358  20.093   6.026  11.280
 9099W        W74359  44.022   0.392  12.497
 9100W        W74360  37.999   3.715   2.952
 9101W        W74361  14.064  30.005   1.798
 9102W        W74362  14.301   1.880   3.709
 9103W        W74363  38.850  12.843   2.796
 9104W        W74364  18.173  30.005  14.765
 9105W        W74365  27.227  22.148  14.240
 9106W        W74366   1.987  25.575  11.312
 9107W        W74367  22.439  18.708   5.407
 9108W        W74368  39.336  32.963   1.282
 9109W        W74369  44.008  17.713  10.684
 9110W        W74370  34.497  15.395   0.547
 9111W        W74371  18.305  30.665   4.208
 9112W        W74372  19.955  10.403   3.206
 9113W        W74373  20.536   3.331  14.422
 9114W        W74374  32.601  24.684   2.181
 9115W        W74375   7.203  33.645  12.912
 9116W        W74376  34.542  29.120  13.846
 9117W        W74377  37.894   3.264   3.351
 9118W        W74378   5.576  38.854   4.195
 9119W        W74379  22.694   9.807   1.876
 9120W        W74380  16.299  33.123  12.886
 9121W        W74381  32.321  10.125   2.325
 9122W        W74382  27.855  40.320  11.621
 9123W        W74383  10.443  38.575   3.661
 9124W        W74384  44.095   6.420   3.128
 9125W        W74385   9.672  28.955  11.196
 9126W        W74386   7.023  29.117  11.682
 9127W        W74387  44.995   1.030   0.390
 9128W        W74388   3.816   2.342   0.611
 9129W        W74389  41.391  32.941  11.961
 9130W        W74390   9.794  37.155  11.066
 9131W        W74391  18.831  36.474  14.127
 9132W        W74392  17.457  41.477   3.739
 9133W        W74393  15.593  37.076  11.991
 9134W        W74394  15.260  38.915  13.436
 9135W        W74395   9.815  20.732  10.331
 9136W        W74396  28.456   8.444  14.422
 9137W        W74397  25.018  25.153   0.475
 9138W        W74398   1.211  21.141   2.646
 9139W        W74399  37.622  15.345   4.919
 9140W        W74400  40.836  27.213  11.894
 9141W        W74401  41.803  11.159  13.309
 9142W        W74402  27.911  24.911  11.077
 9143W        W74403  23.543   9.432  13.112
 9144W        W74404  36.336  30.884   3.705
 9145W        W74405  41.425  12.270   3.142
 9146W        W74406   2.451   9.218   4.682
 9147W        W74407  41.597  12.297   2.645
 9148W        W74408  31.547  24.764   4.239
 9149W        W74409   1.884  22.471   0.419
 9150W        W74410  11.401  12.688   4.332
 9151W        W74411  28.050  24.710  14.479
 9152W        W74412  25.430  31.768   3.877
 9153W        W74413  24.284   8.315   1.437
 9154W        W74414  17.944  18.889   2.839
 9155W        W74415  36.700  12.321  11.948
 9156W        W74416   6.928  44.751  13.861
 9157W        W74417   3.702  13.574   2.869
 9158W        W74418   9.605  17.871  10.606
 9159W        W74419  42.318  29.112   3.167
 9160W        W74420  21.801  20.662  10.563
 9161W        W74421  17.207  42.316   2.652
 9162W        W74422  24.128  39.608   4.926
 9163W        W74423  44.451   6.805  13.780
 9164W        W74424  23.285  43.275   2.403
 9165W        W74425   1.740  22.558  10.733
 9166W        W74426   1.388  40.071  10.739
 9167W        W74427  15.852   6.914  12.408
 9168W        W74428  27.359  30.068  12.893
 9169W        W74429  19.583  26.733  14.460
 9170W        W74430  16.701  39.831   3.072
 9171W        W74431  27.545  11.553  14.170
 9172W        W74432  44.987  14.375   2.277
 9173W        W74433  41.959   6.874   2.218
 9174W        W74434  30.889  40.730  11.519
 9175W        W74435  33.674  35.524   4.892
 9176W        W74436  19.470  17.710   3.729
 9177W        W74437  42.425   3.216  11.531
 9178W        W74438  31.396  25.882  14.471
 9179W        W74439  43.069   3.116   3.656
 9180W        W74440  18.030  27.946  11.634
 9181W        W74441  19.674  38.847  14.744
 9182W        W74442  31.739  23.518   2.081
 9183W        W74443  42.039   6.471  12.566
 9184W        W74444   1.342  15.194   0.251
 9185W        W74445  21.586  15.106   3.696
 9186W        W74446  17.762  38.131   3.005
 9187W        W74447  18.954  33.829  14.071
 9188W        W74448  16.588  27.705   2.961
 9189W        W74449  42.142  22.078   0.660
 9190W        W74450  15.008  17.079   3.643
 9191W        W74451  20.317  25.144   1.214
 9192W        W74452   5.617   0.860   3.938
 9193W        W74453  25.047  17.357  14.873
 9194W        W74454   9.130  24.604   3.638
 9195W        W74455  37.855  32.062   2.643
 9196W        W74456   5.277  24.739  12.408
 9197W        W74457  23.563  27.460  11.623
 9198W        W74458  25.703   6.828  13.067
 9199W        W74459  12.091  27.960   0.734
 9200W        W74460  15.132  40.337   0.326
 9201W        W74461  33.283  25.446  14.473
 9202W        W74462  27.167  16.256  11.968
 9203W        W74463  27.555  26.591   0.271
 9204W        W74464  29.544   2.764  12.697
 9205W        W74465  20.537  22.602  14.393
 9206W        W74466  16.532  34.391  14.904
 9207W        W74467   2.569   5.165   1.314
 9208W        W74468  26.243  23.524  11.693
 9209W        W74469  13.923  32.845  13.346
 9210W        W74470   3.452  40.925   3.316
 9211W        W74471  26.033  25.460  12.582
 9212W        W74472  13.341   8.830   2.152
 9213W        W74473  37.991  27.014   4.525
 9214W        W74474  11.692  34.379   2.162
 9215W        W74475  23.952  27.110  13.545
 9216W        W74476  23.178   2.147  13.419
 9217W        W74477   9.602   8.760   1.041
 9218W        W74478   9.703   9.353  12.531
 9219W        W74479  17.797  22.953   1.864
 9220W        W74480   4.992   3.834  14.177
 9221W        W74481  11.348  41.891  13.474
 9222W        W74482  22.541  21.578  11.588
 9223W        W74483  35.045  10.101  10.296
 9224W        W74484  28.263  20.299   4.108
 9225W        W74485   9.775   7.111   1.406
 9226W        W74486   0.243  34.883   1.725
 9227W        W74487  44.808  34.865  12.997
 9228W        W74488  16.035  40.093  11.891
 9229W        W74489   0.425  35.551   1.049
 9230W        W74490  11.557  18.110  14.025
 9231W        W74491   1.138  35.945  12.435
 9232W        W74492  23.921  12.269  13.428
 9233W        W74493  17.499  20.746   1.247
 9234W        W74494  26.006   8.993  11.529
 9235W        W74495  43.578  39.603  10.556
 9236W        W74496   2.415  30.249   0.870
 9237W        W74497  11.205   4.153  13.841
 9238W        W74498  16.816  11.203   1.728
 9239W        W74499  15.613  22.991   1.149
 9240W        W74500  15.603  44.898  14.344
 9241W        W74501  17.463  24.826  11.712
 9242W        W74502  28.469  21.066   2.340
 9243W        W74503  41.274  42.799   4.552
 9244W        W74504   9.858  30.375   0.827
 9245W        W74505  20.452  42.480  13.972
 9246W        W74506  38.253  13.617   4.865
 9247W        W74507  17.522  43.379  13.293
 9248W        W74508  28.551   5.328  14.760
 9249W        W74509   9.678  22.054   4.763
 9250W        W74510   6.292  25.883   1.679
 9251W        W74511  41.765   0.847  11.618
 9252W        W74512  24.898  34.430   2.333
 9253W        W74513  33.913  32.124   4.596
 9254W        W74514   1.437  31.599  13.661
 9255W        W74515  36.226  23.494   3.622
 9256W        W74516   5.366   1.258  14.517
 9257W        W74517  44.267   2.916   0.330
 9258W        W74518  41.950  26.451   3.670
 9259W        W74519  27.197  29.179   0.836
 9260W        W74520  34.936  42.320   4.816
 9261W        W74521  36.953  16.023   0.427
 9262W        W74522  31.181  18.612   4.619
 9263W        W74523  20.674  16.641  14.773
 9264W        W74524  11.536   3.323  14.201
 9265W        W74525  34.802  24.127  12.445
 9266W        W74526   6.980  11.773  14.328
 9267W        W74527  12.217  44.037  10.411
 9268W        W74528  13.543  14.334   1.967
 9269W        W74529  11.475  33.103  13.372
 9270W        W74530  28.570  15.760   1.727
 9271W        W74531   3.290  24.660   0.478
 9272W        W74532  27.426  11.903  11.583
 9273W        W74533  22.140  31.843   4.613
 9274W        W74534   9.783  12.693   2.672
 9275W        W74535  28.601  17.291   1.767
 9276W        W74536  29.954  27.452   3.155
 9277W        W74537   2.336   9.755  10.208
 9278W        W74538  28.454  26.545  14.887
 9279W        W74539   2.410  32.490   3.359
 9280W        W74540   0.477  22.423  10.980
 9281W        W74541  36.477  26.403  14.408
 9282W        W74542  36.818  12.875  12.990
 9283W        W74543  18.663   9.779   2.410
 9284W        W74544  15.295  29.543   2.147
 9285W        W74545  13.329  39.281   1.879
 9286W        W74546  20.447  15.077  13.059
 9287W        W74547  11.915  19.986  12.527
 9288W        W74548  23.669   2.660   0.846
 9289W        W74549   7.686  20.265  10.519
 9290W        W74550  20.819  24.963  14.728
 9291W        W74551  16.586  44.249   3.210
 9292W        W74552  13.295  42.799  12.267
 9293W        W74553  17.963  10.429  11.180
 9294W        W74554   6.894  39.407  13.553
 9295W        W74555  36.038   6.635   2.431
 9296W        W74556   3.199   4.463   3.747
 9297W        W74557  42.321   0.796  10.760
 9298W        W74558  31.310  34.941   4.955
 9299W        W74559   1.361  33.682   1.855
 9300W        W74560  30.464   4.424   1.849
 9301W        W74561  28.786  18.106   4.602
 9302W        W74562  16.377  41.905   4.518
 9303W        W74563  37.534  13.169  10.746
 9304W        W74564  39.884  34.161   4.110
 9305W        W74565  22.990   4.292  12.160
 9306W        W74566  40.657  19.731  12.622
 9307W        W74567  19.126  44.004  11.595
 9308W        W74568  33.897  44.752   0.668
 9309W        W74569  40.910  28.687   2.881
 9310W        W74570  40.879   7.498  13.389
 9311W        W74571   5.197   1.880   0.933
 9312W        W74572  25.529  34.109  13.494
 9313W        W74573  31.444  21.279  14.513
 9314W        W74574   1.428  28.658   4.144
 9315W        W74575  23.545  20.771   0.802
 9316W        W74576  17.130   6.288  10.826
 9317W        W74577  34.009  18.364  11.123
 9318W        W74578   5.951  18.420  13.300
 9319W        W74579   5.821  28.976   2.240
 9320W        W74580  38.829  33.465   4.603
 9321W        W74581  13.148  39.503   0.941
 9322W        W74582  33.070  35.394  14.723
 9323W        W74583   6.544  10.553  13.364
 9324W        W74584  43.053  38.477   4.548
 9325W        W74585  18.488  15.654   0.949
 9326W        W74586  16.577  20.690   0.354
 9327W        W74587  36.985  17.133  14.007
 9328W        W74588   9.460  17.344  14.510
 9329W        W74589  23.101  37.149  11.426
 9330W        W74590   0.684  16.640   3.901
 9331W        W74591  29.447  34.744  14.926
 9332W        W74592  39.051  29.072   4.404
 9333W        W74593  39.625  16.322   4.652
 9334W        W74594  20.158  40.477   4.136
 9335W        W74595  17.420  27.480  11.129
 9336W        W74596  15.824   8.728  10.242
 9337W        W74597   8.626  14.758   0.423
 9338W        W74598  27.230   7.155   0.343
 9339W        W74599  30.311   3.461  12.518
 9340W        W74600   1.333   6.690   1.549
 9341W        W74601   0.929  10.928  10.652
 9342W        W74602  43.796  42.456   2.668
 9343W        W74603   2.291  39.716   0.017
 9344W        W74604  15.993  20.807  11.560
 9345W        W74605  26.215  32.114   0.170
 9346W        W74606  21.940   9.291   1.933
 9347W        W74607  33.013  26.028  13.385
 9348W        W74608  14.769   5.137  12.057
 9349W        W74609  34.668  28.372   0.920
 9350W        W74610   0.093  23.439  11.420
 9351W        W74611  41.898  21.535   2.244
 9352W        W74612  35.647   0.340  14.575
 9353W        W74613  33.578  13.290   3.188
 9354W        W74614  34.494  38.938  11.682
 9355W        W74615  31.861  10.157  11.627
 9356W        W74616   9.090  20.229   2.708
 9357W        W74617  43.100  12.294   0.852
 9358W        W74618  18.957   4.250  12.375
 9359W        W74619  23.558  28.974   4.098
 9360W        W74620  25.957  15.046   2.044
 9361W        W74621  30.101   4.807   3.349
 9362W        W74622  33.944  19.580   2.919
 9363W        W74623  42.372  32.055   0.827
 9364W        W74624  25.010  42.406   0.948
 9365W        W74625  40.850  22.466   2.411
 9366W        W74626  16.674  37.502   0.765
 9367W        W74627  39.262  19.055  10.406
 9368W        W74628   0.349  38.105  13.110
 9369W        W74629  42.413  20.354  12.231
 9370W        W74630  42.532  30.795   1.506
 9371W        W74631  20.109  19.784  13.976
 9372W        W74632   2.913  25.055   2.815
 9373W        W74633  44.478  44.862   1.738
 9374W        W74634  23.321  10.869   0.845
 9375W        W74635  31.242   3.915  12.411
 9376W        W74636  21.666  44.576  12.524
 9377W        W74637   2.876  42.893  14.856
 9378W        W74638   7.463  15.737  11.974
 9379W        W74639  31.550  36.691  14.282
 9380W        W74640   4.654  15.183  11.106
 9381W        W74641  17.131  17.123   5.132
 9382W        W74642  15.829  34.081   4.356
 9383W        W74643  17.128  37.499  10.698
 9384W        W74644  31.525   1.399  14.401
 9385W        W74645  21.035  40.753  12.970
 9386W        W74646  35.944   3.330  10.853
 9387W        W74647  43.578  12.431   2.771
 9388W        W74648  40.814  19.460   3.894
 9389W        W74649  34.931  35.968  14.337
 9390W        W74650  38.374  40.559   0.399
 9391W        W74651  20.045  36.775  11.503
 9392W        W74652  41.899   9.304   1.330
 9393W        W74653   7.104  23.064  13.862
 9394W        W74654   5.860  15.770   2.142
 9395W        W74655  27.112  29.680   1.499
 9396W        W74656  11.103  16.297   2.777
 9397W        W74657  17.951  14.537  14.185
 9398W        W74658  33.011  17.764  13.538
 9399W        W74659   2.284  13.800  14.902
 9400W        W74660   3.471  17.311  10.708
 9401W        W74661  14.536  23.680  14.320
 9402W        W74662  43.471  35.863  12.585
 9403W        W74663  26.434   6.310   2.622
 9404W        W74664  44.659   1.270   3.147
 9405W        W74665  32.053  13.641  12.045
 9406W        W74666   1.469  22.909  12.461
 9407W        W74667  28.600  35.366   3.733
 9408W        W74668   4.175  28.867   5.038
 9409W        W74669   4.914  18.193   2.681
 9410W        W74670  41.786   8.699  14.856
 9411W        W74671  24.590  21.555   2.183
 9412W        W74672  23.438  17.868  10.108
 9413W        W74673  28.405  14.004  13.384
 9414W        W74674  44.212  26.026  12.543
 9415W        W74675   4.505  38.095   0.008
 9416W        W74676  14.078  34.021  10.685
 9417W        W74677  28.402  11.169  11.216
 9418W        W74678  19.193  39.094  12.040
 9419W        W74679  32.501  18.104  14.913
 9420W        W74680  14.912   6.921  12.383
 9421W        W74681  18.155  24.745  12.410
 9422W        W74682  26.071  44.139   4.618
 9423W        W74683  13.792  21.499   3.300
 9424W        W74684  30.989  25.025   3.123
 9425W        W74685  42.110  11.410  12.927
 9426W        W74686   9.861   4.541   3.471
 9427W        W74687  28.508   0.787   3.722
 9428W        W74688  43.407  20.035   2.792
 9429W        W74689  11.400  15.520  13.517
 9430W        W74690   4.817  29.673  11.118
 9431W        W74691  24.598  19.853   0.302
 9432W        W74692  23.828  13.216   0.943
 9433W        W74693  18.681  17.353  10.174
 9434W        W74694  23.314  24.250  14.386
 9435W        W74695  35.533  35.525  10.904
 9436W        W74696   3.965  16.640   0.922
 9437W        W74697  18.751  20.733   3.247
 9438W        W74698   4.776   9.706   0.992
 9439W        W74699  37.540  31.996   3.610
 9440W        W74700   2.387  37.440   0.926
 9441W        W74701  44.450   2.273   4.306
 9442W        W74702  33.560  30.798  13.029
 9443W        W74703  23.593   0.299  11.620
 9444W        W74704  15.734  10.331   4.892
 9445W        W74705  30.668  15.729  13.793
 9446W        W74706   4.255  23.691  13.946
 9447W        W74707  21.394  43.042  10.640
 9448W        W74708   0.439   1.698   1.787
 9449W        W74709  37.482  30.886   2.272
 9450W        W74710   6.346  21.266  13.951
 9451W        W74711   4.410  13.280  13.473
 9452W        W74712  10.937  33.037  14.263
 9453W        W74713  10.406  23.204  13.397
 9454W        W74714  39.030  32.269  14.618
 9455W        W74715  34.272  13.873  11.928
 9456W        W74716  10.340  41.039  12.579
 9457W        W74717  28.439  10.324   4.188
 9458W        W74718   2.347   6.639  14.878
 9459W        W74719  13.604  18.565  12.371
 9460W        W74720  21.136  23.659   1.162
 9461W        W74721  11.311  26.599   1.272
 9462W        W74722  17.521  36.927   9.991
 9463W        W74723  20.022  25.034   3.215
 9464W        W74724  20.558  28.876  11.932
 9465W        W74725  44.971  26.649  14.005
 9466W        W74726  13.285   2.949   3.262
 9467W        W74727  27.407  21.341  11.638
 9468W        W74728  16.085  34.864  14.905
 9469W        W74729   4.981  35.830   3.171
 9470W        W74730  33.931   3.353  12.761
 9471W        W74731  42.765  17.692   0.946
 9472W        W74732  44.891  31.521   1.765
 9473W        W74733  28.868  34.540  12.435
 9474W        W74734  19.836  28.459   2.296
 9475W        W74735  22.775  15.596  14.483
 9476W        W74736  42.532  28.560  14.168
 9477W        W74737  27.184  42.884  12.909
 9478W        W74738  35.771   3.419   1.454
 9479W        W74739  39.022  22.089   0.378
 9480W        W74740  20.096  37.580   1.839
 9481W        W74741   6.973  13.095   3.572
 9482W        W74742  43.226  37.093  13.839
 9483W        W74743   5.151   9.351   3.247
 9484W        W74744  17.095  32.696  12.405
 9485W        W74745  15.773  42.823  12.744
 9486W        W74746  35.566  41.519   0.638
 9487W        W74747  31.547  11.354   4.429
 9488W        W74748  37.995  28.434  13.902
 9489W        W74749  40.752  44.307  14.390
 9490W        W74750  22.118   0.498   1.197
 9491W        W74751   9.589  13.727   0.308
 9492W        W74752  30.422  17.251   1.655
 9493W        W74753  20.166  44.365  14.681
 9494W        W74754  35.599  32.830  12.053
 9495W        W74755  38.323  20.973   2.363
 9496W        W74756  29.897  38.679   3.742
 9497W        W74757  40.616  27.629  11.653
 9498W        W74758  43.317  13.249  12.312
 9499W        W74759  37.887  25.752   4.101
 9500W        W74760  16.315  34.496   2.757
 9501W        W74761   0.842  10.277   2.774
 9502W        W74762   1.098   8.720   2.792
 9503W        W74763  11.717  24.376   2.131
 9504W        W74764  21.472  17.572   0.341
 9505W        W74765  30.255  22.531  14.514
 9506W        W74766  37.961  14.932   3.338
 9507W        W74767  12.829   3.656   2.283
 9508W        W74768  28.181   7.702  10.981
 9509W        W74769  21.023  26.768  13.054
 9510W        W74770  22.009  22.028   4.088
 9511W        W74771  21.172  21.181  10.769
 9512W        W74772  34.094   4.766  10.613
 9513W        W74773  43.350  15.326  11.953
 9514W        W74774  44.730  43.515  11.168
 9515W        W74775  11.680  12.999  11.516
 9516W        W74776  20.061   9.872   3.205
 9517W        W74777  37.364  22.988   0.755
 9518W        W74778  15.295  26.636  14.535
 9519W        W74779  39.329  37.233   0.801
 9520W        W74780  20.382  20.344  14.468
 9521W        W74781  43.991  39.976   3.193
 9522W        W74782   5.115  34.337   0.880
 9523W        W74783   7.984  20.543   1.163
 9524W        W74784  35.409  21.392   1.305
 9525W        W74785  16.266  43.791  12.395
 9526W        W74786  41.477  12.673  13.384
 9527W        W74787   5.923  37.948   4.103
 9528W        W74788  29.121  24.727  11.265
 9529W        W74789  41.282  30.426  14.685
 9530W        W74790  18.807  35.928  11.585
 9531W        W74791   6.522   5.762  11.575
 9532W        W74792   1.168  17.687   2.608
 9533W        W74793   1.290  21.537  12.092
 9534W        W74794  14.424  32.322   0.863
 9535W        W74795  41.357  38.401   4.115
 9536W        W74796   8.723  31.513  13.006
 9537W        W74797  37.436  22.259  13.065
 9538W        W74798   0.731   6.028  13.050
 9539W        W74799  17.039  34.173  13.981
 9540W        W74800   3.844   2.912  13.647
 9541W        W74801  42.361  13.498   0.216
 9542W        W74802  34.228  33.642  12.544
 9543W        W74803  24.464   8.689   2.403
 9544W        W74804  11.159   6.821   0.182
 9545W        W74805  32.326   9.737   2.672
 9546W        W74806  27.306   4.019  13.592
 9547W        W74807   0.724   2.279   3.415
 9548W        W74808   8.949  38.065   5.029
 9549W        W74809   1.247  37.416   1.929
 9550W        W74810   3.902  26.402  14.477
 9551W        W74811  43.967  19.623   4.360
 9552W        W74812   2.775  40.373  14.827
 9553W        W74813  13.240  26.222   4.657
 9554W        W74814  32.143  35.946  11.283
 9555W        W74815  27.160  37.982   4.220
 9556W        W74816  23.463  31.142   2.991
 9557W        W74817   9.026   1.425  11.236
 9558W        W74818  33.050   4.858  14.905
 9559W        W74819  35.370  43.090  10.697
 9560W        W74820  25.183  41.418  12.031
 9561W        W74821   6.371  26.258   4.539
 9562W        W74822  39.355  34.805   2.906
 9563W        W74823  35.585  44.019   1.207
 9564W        W74824   4.784   8.618  11.376
 9565W        W74825  41.412  19.988   0.474
 9566W        W74826  18.224  33.530  11.986
 9567W        W74827  34.343  32.002   2.684
 9568W        W74828  30.654  24.940  13.881
 9569W        W74829  20.430  37.333  10.705
 9570W        W74830  30.889  24.971  12.084
 9571W        W74831  25.244  37.485   2.038
 9572W        W74832  10.866  22.095   2.810
 9573W        W74833  10.912  25.316   4.513
 9574W        W74834  16.427  25.050   0.144
 9575W        W74835  44.724  10.449  11.097
 9576W        W74836  27.415   7.838   2.015
 9577W        W74837  35.975  24.417   2.489
 9578W        W74838  30.039   0.977  11.215
 9579W        W74839   9.974   9.682  13.550
 9580W        W74840  25.642  20.575   2.267
 9581W        W74841  29.151  44.080  12.356
 9582W        W74842   4.380  25.246  10.653
 9583W        W74843   9.191  31.114   2.513
 9584W        W74844  38.628  21.119  11.933
 9585W        W74845  36.990   7.422  12.403
 9586W        W74846  28.102   7.713  13.344
 9587W        W74847  16.535  44.483  14.780
 9588W        W74848   1.999   0.335   2.267
 9589W        W74849   5.257  31.635   2.286
 9590W        W74850  14.227  44.551   0.241
 9591W        W74851   7.184  39.811  13.582
 9592W        W74852  38.937  21.197  12.437
 9593W        W74853  44.397  10.902   9.951
 9594W        W74854   1.326  44.924   2.589
 9595W        W74855  26.756  25.977   0.459
 9596W        W74856  10.884  32.381   4.120
 9597W        W74857  37.577  11.612  13.354
 9598W        W74858   5.272  40.919   0.499
 9599W        W74859  35.305  17.237   0.375
 9600W        W74860  41.777  42.495  12.894
 9601W        W74861  22.544  13.094  14.811
 9602W        W74862  16.727  16.003  14.298
 9603W        W74863  43.729  22.321  14.807
 9604W        W74864  39.751  25.470   2.692
 9605W        W74865   1.398  31.832  14.713
 9606W        W74866  17.276  34.332   3.001
 9607W        W74867   9.699  21.843  10.630
 9608W        W74868  36.055  32.143  10.251
 9609W        W74869  33.358   3.101   1.243
 9610W        W74870  39.984   9.906  14.355
 9611W        W74871   4.973  21.640  14.662
 9612W        W74872   6.591  42.537   4.818
 9613W        W74873  33.753   5.791   3.142
 9614W        W74874  43.201  42.055  14.439
 9615W        W74875  11.755  27.706  13.494
 9616W        W74876  33.117   2.170  13.899
 9617W        W74877   1.510   5.705   3.324
 9618W        W74878   3.414  18.273   4.813
 9619W        W74879  16.884  28.125   1.915
 9620W        W74880  43.953  23.192   3.273
 9621W        W74881  21.168  20.159   4.237
 9622W        W74882   4.326   2.300  12.127
 9623W        W74883   7.801  34.471  14.839
 9624W        W74884   0.886  21.626   1.450
 9625W        W74885   3.836  36.991  12.212
 9626W        W74886  16.259  17.378   0.648
 9627W        W74887   3.759   9.710  11.943
 9628W        W74888  42.042  29.736  10.283
 9629W        W74889   1.148  26.467  12.522
 9630W        W74890   3.379  22.191   2.731
 9631W        W74891  18.659  35.314   1.657
 9632W        W74892  31.009   1.073   2.200
 9633W        W74893  36.918  43.423  10.641
 9634W        W74894  15.150   2.311   3.555
 9635W        W74895  28.509  39.063  14.842
 9636W        W74896  12.117  32.085   1.195
 9637W        W74897  15.730  23.469   5.034
 9638W        W74898  37.538  15.852   0.836
 9639W        W74899  25.052   0.371  12.657
 9640W        W74900   9.640  18.090  11.070
 9641W        W74901  19.051   8.609   1.773
 9642W        W74902   0.894  36.109  11.941
 9643W        W74903   5.686  19.300  14.768
 9644W        W74904  20.506   8.371   9.961
 9645W        W74905   8.041   2.015   2.829
 9646W        W74906  37.650  32.057   4.151
 9647W        W74907  19.266  31.498  13.161
 9648W        W74908  40.635   0.482  10.316
 9649W        W74909  17.954   5.646   2.293
 9650W        W74910   2.767  13.830  12.485
 9651W        W74911  28.665  39.755   2.104
 9652W        W74912  30.060  12.840   4.178
 9653W        W74913  28.892   8.341   0.405
 9654W        W74914  39.247  12.419  13.823
 9655W        W74915  26.258  35.607   4.262
 9656W        W74916  43.521  20.781   0.683
 9657W        W74917   3.468  38.068   4.332
 9658W        W74918  13.671  23.429  13.350
 9659W        W74919  26.941  44.833  13.033
 9660W        W74920  21.646  42.796  11.421
 9661W        W74921  40.904  19.287   4.382
 9662W        W74922  30.541   2.274  13.320
 9663W        W74923   7.796  41.168  11.610
 9664W        W74924  10.786  32.126   1.918
 9665W        W74925   3.697  32.529  12.285
 9666W        W74926   3.370  42.580  12.975
 9667W        W74927  35.913  43.372   1.643
 9668W        W74928   2.285  24.952  13.371
 9669W        W74929  39.293  16.697   4.922
 9670W        W74930   3.421  30.421   3.077
 9671W        W74931  43.441  44.020   4.160
 9672W        W74932  19.831  38.408  14.962
 9673W        W74933  17.588  44.213  11.758
 9674W        W74934   3.374  16.627   1.709
 9675W        W74935  28.130  44.959  14.864
 9676W        W74936  11.371   9.370  10.680
 9677W        W74937  22.568  40.296   1.265
 9678W        W74938  34.667  37.500   4.049
 9679W        W74939  44.707  44.000   4.509
 9680W        W74940  35.872  27.519   2.250
 9681W        W74941  39.880  15.214  11.037
 9682W        W74942  35.875  11.864  13.840
 9683W        W74943  27.144   1.877   0.739
 9684W        W74944  44.281   1.921  11.185
 9685W        W74945  24.006  22.677   3.703
 9686W        W74946  40.695  33.845  14.621
 9687W        W74947   2.523  22.439   2.976
 9688W        W74948  21.758  43.730  11.061
 9689W        W74949   6.275  18.105   2.411
 9690W        W74950  21.981  41.369   0.220
 9691W        W74951  43.918  31.529   3.177
 9692W        W74952  22.582  44.743   4.223
 9693W        W74953  33.114  38.951   3.238
 9694W        W74954  36.804  30.070   4.702
 9695W        W74955  13.684   5.012   1.215
 9696W        W74956  26.796  35.647  13.842
 9697W        W74957   2.308  14.833   4.566
 9698W        W74958   4.853   5.788   4.517
 9699W        W74959   7.393   4.035   3.588
 9700W        W74960  43.839  33.219   1.292
 9701W        W74961  32.550  34.932   2.469
 9702W        W74962  17.214  38.143   3.493
 9703W        W74963  27.097  15.909  11.536
 9704W        W74964  22.582  44.240   2.504
 9705W        W74965  37.620  44.388   3.635
 9706W        W74966   9.714   8.343  10.492
 9707W        W74967  23.077  29.264   3.579
 9708W        W74968  28.096  32.183  14.493
 9709W        W74969   3.205  40.469  13.520
 9710W        W74970  10.512  15.639   0.275
 9711W        W74971  19.689  11.405   1.939
 9712W        W74972  35.827   6.865   3.452
 9713W        W74973  36.926  18.546  11.179
 9714W        W74974  22.249  39.292   2.492
 9715W        W74975   8.677  17.820  13.841
 9716W        W74976   8.870  37.573   2.801
 9717W        W74977  44.002  29.986  13.773
 9718W        W74978  38.466  20.948   1.487
 9719W        W74979  12.560  40.128   2.470
 9720W        W74980  35.667   4.001   1.102
 9721W        W74981  11.769  36.469  12.854
 9722W        W74982  11.709   6.089   3.739
 9723W        W74983  17.443  44.047   5.023
 9724W        W74984  15.624  33.827  13.134
 9725W        W74985  22.580   5.962  12.534
 9726W        W74986  25.863  44.300  10.810
 9727W        W74987  37.126  36.067   3.349
 9728W        W74988  17.319   3.624   4.018
 9729W        W74989  10.202  12.768   1.480
 9730W        W74990  17.625   0.198  11.085
 9731W        W74991  44.758  25.837   0.697
 9732W        W74992  42.371   5.636  12.896
 9733W        W74993  41.705  15.477  10.312
 9734W        W74994   8.354  33.685   2.811
 9735W        W74995  29.092  29.479  12.642
 9736W        W74996  25.610  44.202   4.934
 9737W        W74997   9.044  26.542   2.742
 9738W        W74998  30.669  26.994   1.326
 9739W        W74999  32.062  13.211   2.297
 9740W        W75000  20.294  34.949   4.135
 9741W        W75001  23.273  38.539   4.770
 9742W        W75002   1.431  13.536   2.342
 9743W        W75003  39.327  36.022  14.704
 9744W        W75004  36.239  19.025   1.395
 9745W        W75005  30.588  39.996   3.797
 9746W        W75006   9.646  24.503   3.679
 9747W        W75007  20.026  37.999  14.562
 9748W        W75008  22.510  34.155  11.171
 9749W        W75009  40.797  31.163  14.481
 9750W        W75010  42.327  12.077  12.956
 9751W        W75011   7.358  43.395  14.929
 9752W        W75012  42.091  13.591   3.026
 9753W        W75013  27.102  43.286  14.532
 9754W        W75014   2.999  21.445  13.858
 9755W        W75015  32.864  10.224  11.628
 9756W        W75016   2.365  28.184   2.653
 9757W        W75017  16.123  42.116   4.122
 9758W        W75018  32.706   1.737  13.453
 9759W        W75019   9.034  32.474  12.189
 9760W        W75020   7.521  19.648  14.211
 9761W        W75021  26.487  29.306  14.348
 9762W        W75022  23.214  39.528  11.631
 9763W        W75023   0.195  42.938  12.386
 9764W        W75024  38.279  28.060  11.598
 9765W        W75025  42.689  32.750  13.017
 9766W        W75026  35.791  23.223   2.812
 9767W        W75027  36.596  27.015  12.024
 9768W        W75028  33.487  25.118   2.945
 9769W        W75029  31.104  38.428   3.353
 9770W        W75030   8.403  43.560   3.741
 9771W        W75031   9.719  10.107  14.673
 9772W        W75032   8.086  10.235  11.608
 9773W        W75033  22.294  20.708  14.467
 9774W        W75034  23.537  38.531  13.433
 9775W        W75035   5.411   1.794  14.517
 9776W        W75036  21.958  11.204  11.512
 9777W        W75037  15.881  42.799  13.781
 9778W        W75038  12.583   2.836  13.475
 9779W        W75039   6.713   4.081  14.809
 9780W        W75040   2.771  31.401  10.796
 9781W        W75041  19.260   2.692  14.249
 9782W        W75042  36.517   5.101   1.327
 9783W        W75043  31.380  43.383   2.237
 9784W        W75044  17.522  17.241  13.914
 9785W        W75045  40.284  37.062  12.035
 9786W        W75046  21.051  37.438   3.505
 9787W        W75047  17.605   1.120  14.226
 9788W        W75048  34.483  13.508  11.078
 9789W        W75049  38.438  24.351  11.150
 9790W        W75050  27.003  36.879   9.684
 9791W        W75051  34.247  12.611  10.543
 9792W        W75052  29.603  32.089  14.443
 9793W        W75053  31.473  20.347  11.949
 9794W        W75054  36.132  35.111   0.450
 9795W        W75055  22.067   6.383  13.984
 9796W        W75056  28.015  27.430  14.281
 9797W        W75057  10.861  34.010  12.254
 9798W        W75058  44.457  19.493  13.625
 9799W        W75059  44.062  33.617  12.338
 9800W        W75060  20.190  22.782   4.421
 9801W        W75061  11.356  24.584  10.676
 9802W        W75062  10.256  20.081   1.771
 9803W        W75063   1.987  29.317  12.717
 9804W        W75064   2.717  28.442   2.317
 9805W        W75065  24.354   0.274  14.249
 9806W        W75066  40.501  38.946  13.040
 9807W        W75067  38.571   9.472  12.546
 9808W        W75068  20.152  36.756   3.749
 9809W        W75069  34.395   4.659  11.990
 9810W        W75070  15.561  43.734  14.020
 9811W        W75071  39.259  10.784   1.266
 9812W        W75072  36.604  12.363  14.427
 9813W        W75073  11.486  37.460  12.976
 9814W        W75074  39.997  25.586  10.914
 9815W        W75075  21.530  16.835  11.210
 9816W        W75076  35.449  20.329  12.896
 9817W        W75077   5.866  15.802  14.855
 9818W        W75078  36.058  27.142  13.992
 9819W        W75079  44.333  38.590   3.367
 9820W        W75080  13.848  38.449   3.320
 9821W        W75081  22.963  12.062  11.218
 9822W        W75082  27.641   4.464  11.866
 9823W        W75083  30.133   0.468  13.874
 9824W        W75084  36.632   9.663   4.172
 9825W        W75085   2.379   4.961  11.180
 9826W        W75086  16.776  35.878   4.662
 9827W        W75087  24.634   8.922   2.864
 9828W        W75088  43.682  28.542  12.911
 9829W        W75089  39.519  25.541   2.231
 9830W        W75090  26.872  21.561   2.305
 9831W        W75091  41.307  44.067  10.270
 9832W        W75092  21.222  30.139  13.896
 9833W        W75093  41.920  19.828   0.395
 9834W        W75094  20.196  21.272   4.887
 9835W        W75095   6.428  17.325   0.481
 9836W        W75096  40.117  26.640   3.152
 9837W        W75097  41.167  13.282   0.867
 9838W        W75098  14.196   1.401  11.065
 9839W        W75099  20.626   6.953   1.247
 9840W        W75100  12.313  25.485   1.014
 9841W        W75101   7.212   9.846  11.598
 9842W        W75102  19.852  12.702   3.217
 9843W        W75103  22.195  18.787  12.283
 9844W        W75104   6.942  12.346  12.504
 9845W        W75105  29.475  19.853   5.153
 9846W        W75106  12.928   0.646   4.960
 9847W        W75107  27.758  28.643   3.191
 9848W        W75108  37.802  12.419   1.059
 9849W        W75109  15.510   3.312  11.090
 9850W        W75110  10.138  15.178   5.113
 9851W        W75111  26.694  26.243   2.956
 9852W        W75112   7.950  40.699  13.970
 9853W        W75113  21.192  26.782  10.347
 9854W        W75114   9.815  33.977  11.062
 9855W        W75115   1.796  31.883  13.370
 9856W        W75116   5.284  44.070   0.319
 9857W        W75117  30.704   8.717  13.309
 9858W        W75118  14.685  23.603  13.355
 9859W        W75119  13.043  28.449   1.399
 9860W        W75120   3.153  11.426   4.994
 9861W        W75121  44.804  25.809  14.012
 9862W        W75122  35.562  43.210  13.376
 9863W        W75123  38.029  34.877  11.333
 9864W        W75124  26.754  36.343   4.253
 9865W        W75125  44.951   1.430   1.141
 9866W        W75126  33.463   4.861   5.026
 9867W        W75127   6.344  24.066  10.696
 9868W        W75128   9.487  42.879   1.434
 9869W        W75129  36.892  42.376   2.732
 9870W        W75130  30.470  31.186  13.073
 9871W        W75131  25.027  10.082   4.971
 9872W        W75132  11.807  27.610   1.046
 9873W        W75133  41.595  39.930   3.135
 9874W        W75134  24.162  39.818  13.873
 9875W        W75135  39.616  32.529   1.457
 9876W        W75136   6.959   7.734  12.113
 9877W        W75137   9.403   5.798   4.801
 9878W        W75138   2.466  18.118  11.678
 9879W        W75139   3.134  39.400   2.198
 9880W        W75140  42.307  39.550   1.149
 9881W        W75141  20.120   6.874   5.918
 9882W        W75142  11.350  43.906   0.928
 9883W        W75143  19.171   9.354  10.881
 9884W        W75144  25.507  28.908  14.685
 9885W        W75145  31.077  27.660  13.329
 9886W        W75146  24.905  35.236  10.890
 9887W        W75147  37.195   4.217  11.130
 9888W        W75148  30.665  33.277   4.289
 9889W        W75149  28.923  38.842  11.573
 9890W        W75150  19.133  15.765  13.016
 9891W        W75151  19.339  27.199   2.729
 9892W        W75152  44.233  15.387  13.922
 9893W        W75153  33.587  12.870   2.364
 9894W        W75154  13.004   3.295  14.307
 9895W        W75155  33.831  16.197  14.285
 9896W        W75156  37.046   7.923  11.188
 9897W        W75157  19.494   0.747  10.312
 9898W        W75158  29.028   5.399   2.446
 9899W        W75159  32.965  12.393   1.213
 9900W        W75160  30.907  16.133   2.350
 9901W        W75161   4.235  35.413   3.248
 9902W        W75162  27.738  35.472  14.572
 9903W        W75163  13.876   8.049   5.301
 9904W        W75164   1.280   2.988  10.792
 9905W        W75165  21.799  30.568   0.485
 9906W        W75166  37.351   6.405  12.036
 9907W        W75167  27.631   1.938   2.451
 9908W        W75168  22.064  19.783  13.378
 9909W        W75169  21.984  26.297   2.930
 9910W        W75170  30.942  22.305   3.870
 9911W        W75171  30.851  10.436  12.418
 9912W        W75172  19.424   4.263  12.057
 9913W        W75173  20.209  29.213  12.133
 9914W        W75174  19.277  44.720   2.006
 9915W        W75175  44.323  40.881   0.368
 9916W        W75176  44.948  43.932   3.099
 9917W        W75177  29.477  44.701   3.232
 9918W        W75178  24.246  23.544   4.172
 9919W        W75179  25.668  21.753  13.278
 9920W        W75180  24.239  11.161   1.266
 9921W        W75181  21.158  33.211   5.091
 9922W        W75182  43.068  37.436   4.571
 9923W        W75183  28.756  13.808   2.731
 9924W        W75184  42.788  33.208   2.355
 9925W        W75185  43.301  28.837  11.516
 9926W        W75186  41.873   9.025   4.127
 9927W        W75187   1.917  27.976  12.552
 9928W        W75188  33.447  17.561  12.299
 9929W        W75189  12.816  37.879   1.184
 9930W        W75190  26.720   9.675   0.897
 9931W        W75191  43.248  43.068   0.347
 9932W        W75192  31.537   2.980  11.036
 9933W        W75193   8.119  25.130  13.357
 9934W        W75194   3.445  17.730  13.366
 9935W        W75195  36.835  44.555   1.431
 9936W        W75196   0.062  19.603  13.072
 9937W        W75197   4.833  23.408   4.051
 9938W        W75198  15.729  15.580  12.932
 9939W        W75199  11.834  21.189   0.050
 9940W        W75200  33.274  18.562   4.197
 9941W        W75201  15.588   2.793   4.059
 9942W        W75202  23.103  15.522  10.573
 9943W        W75203  18.173  33.653   1.234
 9944W        W75204  41.901   3.203  13.608
 9945W        W75205  17.604  23.187   3.558
 9946W        W75206  17.658  44.458  10.582
 9947W        W75207   1.517   1.071  13.879
 9948W        W75208  25.198  20.466   5.323
 9949W        W75209  12.545  42.432   0.088
 9950W        W75210   6.613  28.050   3.600
 9951W        W75211  34.019  37.065  12.876
 9952W        W75212  41.478  36.951   1.327
 9953W        W75213   5.106   5.366  10.659
 9954W        W75214  44.880  37.025   0.506
 9955W        W75215  34.805  44.912  13.134
 9956W        W75216  34.093  38.726   4.178
 9957W        W75217  16.561  15.142  14.508
 9958W        W75218   0.425  44.678  14.301
 9959W        W75219  37.006  31.139   1.371
 9960W        W75220  43.859   5.863  11.414
 9961W        W75221   5.484  43.417  12.031
 9962W        W75222  12.292  35.436   3.599
 9963W        W75223  16.336  14.192   0.731
 9964W        W75224   4.134  31.095  14.914
 9965W        W75225  14.195  41.835   3.673
 9966W        W75226  37.470  14.845   2.103
 9967W        W75227  14.899   0.293  14.090
 9968W        W75228   6.413  43.091   4.094
 9969W        W75229   9.643  38.328   2.105
 9970W        W75230  39.908  31.305   0.969
 9971W        W75231   4.880  12.105  11.388
 9972W        W75232  11.851  40.299   0.685
 9973W        W75233  38.354   6.705   4.948
 9974W        W75234  10.728   0.738   2.933
 9975W        W75235   6.555  38.691  13.893
 9976W        W75236  37.894   4.388  13.736
 9977W        W75237  38.486   4.771   4.478
 9978W        W75238  35.132  32.753   2.411
 9979W        W75239  44.576  38.234  10.243
 9980W        W75240  33.848  11.509  14.046
 9981W        W75241  40.407  38.730   2.756
 9982W        W75242  42.354  22.610  11.459
 9983W        W75243  34.508   3.049  11.993
 9984W        W75244  15.900  34.358  10.839
 9985W        W75245  19.751  27.471   2.175
 9986W        W75246   1.583  36.533   2.341
 9987W        W75247  42.862  34.098  11.656
 9988W        W75248   8.100   4.382   1.303
 9989W        W75249   5.868  30.526  12.601
 9990W        W75250   9.744   6.240  11.103
 9991W        W75251   0.987  40.896  13.515
 9992W        W75252  25.431  32.946   4.541
 9993W        W75253  32.957   5.881  11.045
 9994W        W75254  12.874   3.457   4.042
 9995W        W75255   7.463  12.253   1.918
 9996W        W75256  11.781  20.827   4.834
 9997W        W75257   4.350  37.302   3.902
 9998W        W75258  38.026  17.306   0.238
 9999W        W75259  15.288  15.584  11.216
10000W        W75260  34.002  12.315  11.416
10001W        W75261  13.759  19.313   2.325
10002W        W75262  27.666  38.808   0.341
10003W        W75263   6.678   4.981  11.549
10004W        W75264  12.244  33.921  12.111
10005W        W75265   9.804  14.121  10.342
10006W        W75266  16.003  23.972  13.431
10007W        W75267  39.222   0.129   3.287
10008W        W75268  27.623  14.340  14.024
10009W        W75269   3.879  44.990  12.528
10010W        W75270  26.553  17.361   1.009
10011W        W75271  32.858   9.795   2.722
10012W        W75272  25.407  40.494   1.350
10013W        W75273  30.529  25.977  12.900
10014W        W75274   2.190   1.868  13.931
10015W        W75275  38.094  10.679   4.096
10016W        W75276  40.488  22.252  12.535
10017W        W75277   8.754   6.095   0.264
10018W        W75278  15.992   6.871   3.451
10019W        W75279  20.198  29.410  10.814
10020W        W75280  31.580  43.045  12.209
10021W        W75281   9.148  18.710   4.804
10022W        W75282  31.520  25.759  12.876
10023W        W75283  11.722   6.345  14.375
10024W        W75284  22.536   1.241  13.834
10025W        W75285   8.305   3.284  14.808
10026W        W75286  17.778  31.383  10.553
10027W        W75287  31.598  20.574  10.730
10028W        W75288   9.281  37.428   0.963
10029W        W75289  26.752  23.607   3.427
10030W        W75290  15.820  26.196  13.844
10031W        W75291   6.894  32.339  11.207
10032W        W75292   2.565  14.643  14.425
10033W        W75293  20.545  11.756  10.424
10034W        W75294  15.958  13.946   3.825
10035W        W75295  41.776  41.253   3.176
10036W        W75296   2.793  11.065  10.611
10037W        W75297  10.246  24.086   0.310
10038W        W75298   6.284  27.179   2.312
10039W        W75299  33.138  15.697  12.417
10040W        W75300  41.567  13.586  12.631
10041W        W75301  37.880  43.322  14.808
10042W        W75302  10.137  14.343   3.695
10043W        W75303   1.784   7.919  11.654
10044W        W75304   2.058  16.518  12.243
10045W        W75305  26.626  40.266  11.207
10046W        W75306  10.021  38.327  14.245
10047W        W75307  44.968  43.153   1.536
10048W        W75308   5.296   3.990   0.090
10049W        W75309  43.000   0.805  11.581
10050W        W75310  38.895  14.174   2.688
10051W        W75311  20.206  39.534  12.020
10052W        W75312  35.481  17.765   0.981
10053W        W75313  12.832  38.348  12.470
10054W        W75314  43.667  20.660   1.318
10055W        W75315  39.737  15.198   4.656
10056W        W75316   7.309  23.789  11.703
10057W        W75317  13.054  26.495  10.624
10058W        W75318  28.421   0.344  12.280
10059W        W75319  11.126  18.760   2.652
10060W        W75320  25.435  43.486  11.101
10061W        W75321  41.204  26.751   0.478
10062W        W75322  12.765  43.307  10.636
10063W        W75323  23.184   7.479   1.202
10064W        W75324   9.647   3.868  13.537
10065W        W75325  17.229  16.791  13.837
10066W        W75326  12.033  30.073   0.254
10067W        W75327  35.746  27.358   5.104
10068W        W75328  37.795  15.331   0.718
10069W        W75329  12.365   9.352   5.183
10070W        W75330   2.776  20.742  12.514
10071W        W75331  30.910  27.520   0.228
10072W        W75332  26.135  16.697  12.474
10073W        W75333  21.194  10.567   3.229
10074W        W75334   0.687   9.446  13.767
10075W        W75335  19.022  25.064   1.395
10076W        W75336   1.185  38.033   0.817
10077W        W75337  31.123  18.931  11.061
10078W        W75338  43.834  37.986  11.577
10079W        W75339   3.677  15.675   4.065
10080W        W75340   7.288  10.187  12.898
10081W        W75341  38.888  35.955   3.821
10082W        W75342  19.824  24.177  12.705
10083W        W75343  24.285  28.998   4.550
10084W        W75344  39.117  24.007   4.244
10085W        W75345  17.684   3.820   2.692
10086W        W75346   6.476  19.115   4.947
10087W        W75347  10.105  43.031   2.264
10088W        W75348   1.420  26.069  12.797
10089W        W75349  14.744  14.861  12.916
10090W        W75350  28.205   2.255   4.377
10091W        W75351  44.304  22.198   3.772
10092W        W75352  31.679   9.212   0.959
10093W        W75353   3.406  38.032  14.347
10094W        W75354  40.077  10.354  14.588
10095W        W75355  21.069  44.163  11.340
10096W        W75356  12.235  14.124   4.364
10097W        W75357  19.614  26.085  11.927
10098W        W75358  40.998   7.849  12.127
10099W        W75359   1.568  27.139  14.506
10100W        W75360  18.755  42.345   3.902
10101W        W75361  36.108  44.493   2.407
10102W        W75362  19.936  32.911   2.184
10103W        W75363   5.301  38.596  13.600
10104W        W75364  14.277   0.555  12.968
10105W        W75365  19.062  20.742   2.769
10106W        W75366  25.816  33.742   0.072
10107W        W75367   7.383   0.837   4.310
10108W        W75368  11.202  40.829  11.155
10109W        W75369  28.904  20.990  10.652
10110W        W75370  22.664  19.745   2.407
10111W        W75371  26.175  30.322   0.341
10112W        W75372  33.727  29.167  14.494
10113W        W75373  44.709   3.976   0.837
10114W        W75374  43.722  38.380  10.345
10115W        W75375  30.457  28.390  11.911
10116W        W75376  20.681  22.517   1.237
10117W        W75377  35.067   6.826   2.094
10118W        W75378  29.221  35.546   2.389
10119W        W75379  18.977  43.139   2.762
10120W        W75380   6.770  16.385   4.526
10121W        W75381   9.806  37.531  10.709
10122W        W75382  14.110  25.213   2.049
10123W        W75383  17.786  36.136   4.700
10124W        W75384  38.994  29.940  11.984
10125W        W75385  43.752  38.741   0.339
10126W        W75386  28.499   7.239   2.192
10127W        W75387   1.515  30.606  12.620
10128W        W75388  16.204  35.538   4.613
10129W        W75389  16.617  28.513   3.115
10130W        W75390  27.872   0.720  13.303
10131W        W75391   1.705  36.692  14.271
10132W        W75392  10.586  35.387  14.757
10133W        W75393  15.886  27.131   3.221
10134W        W75394   3.174   8.595  11.179
10135W        W75395   5.774   3.783   1.372
10136W        W75396  43.079   4.862  12.167
10137W        W75397  37.294  31.028  13.947
10138W        W75398   3.299   7.141   2.848
10139W        W75399  19.492  21.915   2.632
10140W        W75400  28.750   3.800  13.102
10141W        W75401  28.169  13.613  14.020
10142W        W75402  17.097  28.950  13.113
10143W        W75403   0.474  23.278   0.206
10144W        W75404  17.967  41.824   2.160
10145W        W75405  16.772  25.934   1.334
10146W        W75406   7.220  17.240   0.725
10147W        W75407  14.322  22.037  10.771
10148W        W75408   9.608  37.425   3.510
10149W        W75409  27.741  32.233  11.026
10150W        W75410  41.300  31.877   4.751
10151W        W75411   6.709  22.863  11.205
10152W        W75412   0.796  40.005   2.061
10153W        W75413  14.130  18.824   4.755
10154W        W75414  31.905  12.828   0.029
10155W        W75415  34.167  38.994  14.914
10156W        W75416  40.558  38.767  13.902
10157W        W75417  30.871  38.054   4.183
10158W        W75418  35.143   2.326  12.673
10159W        W75419  42.456  21.416   4.787
10160W        W75420  13.942  29.030  12.756
10161W        W75421   7.654  33.860  13.004
10162W        W75422  29.822  31.293   3.279
10163W        W75423  15.294  13.221  14.347
10164W        W75424  29.133  23.767   2.753
10165W        W75425  21.447  41.324   4.200
10166W        W75426  23.899  33.055  12.430
10167W        W75427  31.952  14.826   0.319
10168W        W75428  19.835   4.730   0.672
10169W        W75429  30.913   9.603   0.409
10170W        W75430  29.545  16.362   0.266
10171W        W75431   8.165  20.820   4.138
10172W        W75432  32.498   7.727   4.159
10173W        W75433  15.844   3.909  13.025
10174W        W75434  41.424  33.140  14.748
10175W        W75435  40.799  24.569   4.601
10176W        W75436   7.919   1.553   4.256
10177W        W75437   5.129   6.263   1.482
10178W        W75438  27.040   3.495   3.778
10179W        W75439  31.614  41.244  13.089
10180W        W75440   1.189  20.269   2.420
10181W        W75441  30.450  39.427   2.265
10182W        W75442   0.704  17.858   1.915
10183W        W75443  26.081  11.139  10.619
10184W        W75444  15.919   3.239   4.639
10185W        W75445  42.332  39.104  12.360
10186W        W75446  25.573   9.654   2.410
10187W        W75447  19.982  28.412   3.781
10188W        W75448  25.592   0.932   0.302
10189W        W75449   4.322  44.009  13.131
10190W        W75450  37.505  36.756   1.099
10191W        W75451  22.927  11.293  13.077
10192W        W75452  30.525   0.838   3.761
10193W        W75453  40.811  29.768   0.134
10194W        W75454   4.809  41.073  12.542
10195W        W75455  39.486  27.955  10.319
10196W        W75456  19.780  19.272   2.762
10197W        W75457  18.644  22.817  14.313
10198W        W75458  29.095  22.187   3.317
10199W        W75459  10.156  14.317  14.995
10200W        W75460   3.833   1.426   4.104
10201W        W75461  11.702  28.686   2.779
10202W        W75462  30.328   3.325  14.825
10203W        W75463  19.300  16.874   1.197
10204W        W75464  11.197  42.913   2.319
10205W        W75465  26.932  33.403  11.061
10206W        W75466  22.717  33.460   3.565
10207W        W75467   4.781  36.811   0.515
10208W        W75468  43.077  10.245  12.422
10209W        W75469  15.724  22.919  12.917
10210W        W75470  16.129  23.226   2.849
10211W        W75471   6.694  33.712  14.962
10212W        W75472  36.599  10.916   0.706
10213W        W75473  36.815  22.205  11.230
10214W        W75474  33.964  17.888   1.383
10215W        W75475  40.240  24.177   1.213
10216W        W75476  33.345  22.671  13.380
10217W        W75477  10.143   3.272   3.740
10218W        W75478  34.996  32.547   2.852
10219W        W75479  23.115  31.140   2.184
10220W        W75480   0.920   1.497  14.050
10221W        W75481   5.883  35.742   1.905
10222W        W75482  43.526  21.036  13.418
10223W        W75483  26.431   5.605   5.456
10224W        W75484   6.480  26.197  11.783
10225W        W75485  43.643  10.410   1.231
10226W        W75486  43.567  16.829  13.106
10227W        W75487  36.474  24.535   1.675
10228W        W75488  12.898  16.322  14.752
10229W        W75489   4.839  20.120  12.008
10230W        W75490  22.392   5.863   1.321
10231W        W75491  44.677  30.531  14.730
10232W        W75492  31.971  31.893  14.886
10233W        W75493  13.616  32.543  10.613
10234W        W75494  23.601  23.050   1.428
10235W        W75495  21.034  13.030  14.970
10236W        W75496  25.493  29.497  11.931
10237W        W75497   4.435  19.149  12.492
10238W        W75498  22.570  19.062   3.728
10239W        W75499   7.755  10.052   2.679
10240W        W75500  22.584   3.297  12.065
10241W        W75501  34.945  22.444  13.461
10242W        W75502  44.355   7.085   4.420
10243W        W75503  25.564  20.099   5.133
10244W        W75504  26.494  21.676   5.022
10245W        W75505  43.987  37.472   4.603
10246W        W75506  34.900  31.580  11.925
10247W        W75507  40.514  20.682   3.251
10248W        W75508  40.314  25.110  11.592
10249W        W75509   2.448  23.482   4.538
10250W        W75510  42.404  26.767  13.953
10251W        W75511  33.834  23.330  14.111
10252W        W75512  21.967  29.026   0.900
10253W        W75513  23.562  22.351  13.760
10254W        W75514  35.542   0.808  14.956
10255W        W75515  20.833  18.199  14.817
10256W        W75516  13.378  43.753   2.626
10257W        W75517  32.401  35.517  13.392
10258W        W75518  34.046  10.225   2.679
10259W        W75519   9.530   8.328   2.329
10260W        W75520  29.924  10.670   3.061
10261W        W75521  18.857  10.179  14.942
10262W        W75522  28.063  29.395   4.079
10263W        W75523  21.708  20.567   5.398
10264W        W75524  10.906  29.567   5.512
10265W        W75525  14.655  37.386   5.058
10266W        W75526  22.782  43.014   4.878
10267W        W75527  15.310  31.024   4.131
10268W        W75528  11.110   1.212   0.409
10269W        W75529  27.980  14.391  11.206
10270W        W75530   9.707  36.333  13.112
10271W        W75531  31.088  42.883  12.195
10272W        W75532  16.220   5.843   0.823
10273W        W75533   5.425  21.479  11.087
10274W        W75534  39.335  21.583  12.932
10275W        W75535  38.987  21.803  11.588
10276W        W75536  30.853   8.963  10.437
10277W        W75537  31.957  23.625  13.044
10278W        W75538  39.536   0.333   0.755
10279W        W75539   8.784  35.870   4.417
10280W        W75540  39.052  15.720  11.181
10281W        W75541  38.449  31.202  11.158
10282W        W75542  40.318   7.334   0.258
10283W        W75543  42.006  40.400   0.307
10284W        W75544  31.977  21.238   2.567
10285W        W75545   2.479   8.317   1.147
10286W        W75546  31.739  30.703   0.800
10287W        W75547  24.656  15.154  11.985
10288W        W75548  40.145  36.494  14.489
10289W        W75549  28.358  33.247  14.002
10290W        W75550  23.035  13.240   4.031
10291W        W75551  17.090  34.661   3.344
10292W        W75552  28.077  44.379   4.042
10293W        W75553  24.480  43.574  12.341
10294W        W75554  24.704  25.198  13.084
10295W        W75555  14.084   2.603   0.065
10296W        W75556  18.849  21.633   1.901
10297W        W75557   2.429  40.443   1.257
10298W        W75558  24.147   9.590   2.583
10299W        W75559   9.208   2.449   3.762
10300W        W75560  27.577  38.931  10.389
10301W        W75561  13.328  16.826  13.798
10302W        W75562  18.243  36.122   1.622
10303W        W75563  31.819  32.412  13.001
10304W        W75564  24.389  31.482   0.918
10305W        W75565  22.890  24.118  14.121
10306W        W75566  33.344  31.880   5.006
10307W        W75567  23.911  15.565  11.187
10308W        W75568   6.351  29.733   2.284
10309W        W75569  23.004   9.350  14.951
10310W        W75570   2.800  33.310   2.913
10311W        W75571  39.344   2.948   2.178
10312W        W75572   3.523  27.287   2.793
10313W        W75573  27.464   9.341   0.727
10314W        W75574  35.583  21.974  13.179
10315W        W75575  41.914  31.431  14.223
10316W        W75576  14.849   9.401  10.548
10317W        W75577  44.885  13.943   0.262
10318W        W75578  16.098  34.536   4.402
10319W        W75579   9.640  32.727   3.308
10320W        W75580  12.707   9.731   0.410
10321W        W75581  25.411  41.019  13.910
10322W        W75582  27.712  19.141  11.173
10323W        W75583  21.746   6.128   2.639
10324W        W75584  31.951  18.558   2.217
10325W        W75585  24.307  18.587  12.235
10326W        W75586  17.922  34.686   1.230
10327W        W75587   4.424  21.297   3.634
10328W        W75588  19.162  35.280  14.011
10329W        W75589  20.017  27.536  12.747
10330W        W75590  18.997   4.664   3.831
10331W        W75591   1.890   5.957   2.406
10332W        W75592   5.765   0.026   4.515
10333W        W75593  20.486   6.745   2.628
10334W        W75594   9.404  19.219   0.079
10335W        W75595  25.413  42.674   0.636
10336W        W75596   7.407  16.571   0.003
10337W        W75597  25.873   7.773   3.698
10338W        W75598  20.986   2.790   3.720
10339W        W75599  33.888  32.098   2.325
10340W        W75600  35.123  41.098  12.011
10341W        W75601  44.297  20.775  12.823
10342W        W75602  28.125  10.668   3.301
10343W        W75603  24.370  12.577  14.139
10344W        W75604  24.024  14.038  14.584
10345W        W75605  37.576   2.667  11.988
10346W        W75606   9.298  44.786   1.496
10347W        W75607  30.650  24.122   0.139
10348W        W75608  12.387  21.053   0.013
10349W        W75609  13.056  16.741  13.373
10350W        W75610   4.663  21.423   4.759
10351W        W75611  35.074  25.874  11.152
10352W        W75612  14.377  33.493  11.707
10353W        W75613  38.883  29.946  12.486
10354W        W75614  33.845  19.969   1.987
10355W        W75615  29.910  10.747   2.142
10356W        W75616  31.693   1.524  12.468
10357W        W75617   6.117  36.549  13.891
10358W        W75618  29.020   6.402  10.577
10359W        W75619  34.760  40.341  11.337
10360W        W75620  23.013   6.376  14.499
10361W        W75621  36.642  10.790  10.740
10362W        W75622  12.570  17.684  10.728
10363W        W75623  14.501  16.197   0.746
10364W        W75624  20.100  15.664  12.348
10365W        W75625   9.697   6.529   2.698
10366W        W75626  35.575  17.579  12.959
10367W        W75627   9.219   3.257   2.035
10368W        W75628  38.763  10.795   3.635
10369W        W75629  28.603  36.966  13.943
10370W        W75630   0.855  35.998   4.149
10371W        W75631  34.388   6.477   4.137
10372W        W75632  19.662  35.963  11.646
10373W        W75633   0.667  32.116   9.819
10374W        W75634  36.405  29.166   0.403
10375W        W75635  25.628   3.457   4.130
10376W        W75636  18.325  16.675  12.300
10377W        W75637  28.541  39.078   3.405
10378W        W75638  44.179  30.531   2.194
10379W        W75639  14.035  38.769  12.087
10380W        W75640  23.024  32.808   0.386
10381W        W75641  41.888  21.021  14.367
10382W        W75642  31.663  14.131   4.267
10383W        W75643  35.641  39.813   3.300
10384W        W75644   1.932   9.403  14.520
10385W        W75645   2.905  30.804  14.492
10386W        W75646  12.227  31.850  13.777
10387W        W75647  23.738  11.897   3.289
10388W        W75648  30.143  12.619   0.784
10389W        W75649  18.095  25.654   2.656
10390W        W75650  17.123   9.353   3.455
10391W        W75651  37.261  44.710  10.086
10392W        W75652  26.609  41.059   1.724
10393W        W75653  35.586  28.200   1.461
10394W        W75654  22.464   0.216  11.901
10395W        W75655  13.668  21.044  11.432
10396W        W75656  28.314  40.403   4.151
10397W        W75657  35.359  23.291  14.815
10398W        W75658  39.610  24.489  11.150
10399W        W75659  32.527  20.680   1.853
10400W        W75660  39.602  34.184  12.846
10401W        W75661  43.020   6.948   4.664
10402W        W75662  15.730  12.820  11.753
10403W        W75663   2.444  29.534   2.227
10404W        W75664   5.856  31.752   0.203
10405W        W75665  39.016   0.219   0.251
10406W        W75666  24.193   2.813   4.760
10407W        W75667  23.426   8.336  11.902
10408W        W75668   0.820   8.134   0.819
10409W        W75669  21.122  34.388   0.442
10410W        W75670  15.372  19.926   2.843
10411W        W75671   6.865  26.115   0.002
10412W        W75672   5.465  12.712  14.402
10413W        W75673  26.106  32.490   3.306
10414W        W75674  28.991  12.258  10.747
10415W        W75675  11.553  16.674   4.863
10416W        W75676  18.287  20.135  12.440
10417W        W75677  26.692   9.212  12.552
10418W        W75678  26.661  17.160   0.475
10419W        W75679   9.250  20.634   0.393
10420W        W75680  15.874  24.636   1.796
10421W        W75681   0.456   2.295   0.372
10422W        W75682   7.350  35.579  11.710
10423W        W75683  33.221  13.938  14.967
10424W        W75684   0.025  16.654   1.878
10425W        W75685  41.242  30.977  13.027
10426W        W75686  26.218   7.393   3.692
10427W        W75687  29.677  24.221   1.852
10428W        W75688  23.002   5.486  14.407
10429W        W75689  13.421   6.716  11.901
10430W        W75690   2.523   0.476  12.925
10431W        W75691  22.679   7.473  13.554
10432W        W75692  28.131  14.780   4.762
10433W        W75693  16.889  41.690   9.992
10434W        W75694   4.921  18.091   3.546
10435W        W75695  29.379  15.324   0.944
10436W        W75696  41.695  20.537  13.571
10437W        W75697  11.325  13.514   1.742
10438W        W75698  22.292  44.290  14.725
10439W        W75699  39.509  33.375  14.290
10440W        W75700  10.262  17.497   1.376
10441W        W75701  26.615   4.295   3.658
10442W        W75702  28.469  11.277  12.043
10443W        W75703  19.147   2.275  13.886
10444W        W75704   6.725  14.607   0.411
10445W        W75705  36.120   4.662  12.584
10446W        W75706   0.004  28.879   2.230
10447W        W75707  14.957  30.393   3.840
10448W        W75708  20.213   5.698   1.276
10449W        W75709  16.689  18.418   0.194
10450W        W75710  20.858  41.508   0.974
10451W        W75711   9.498   0.309   0.382
10452W        W75712   4.002  17.141   1.270
10453W        W75713   5.159  17.595   0.757
10454W        W75714  18.694   8.821  12.449
10455W        W75715  39.128  12.667   5.034
10456W        W75716  19.263  12.872  12.086
10457W        W75717  40.301  16.691   4.214
10458W        W75718  31.922  44.042   3.185
10459W        W75719  33.107  14.260  12.505
10460W        W75720  27.648  37.223  10.078
10461W        W75721  35.979   5.597   4.669
10462W        W75722  37.815   7.104   1.333
10463W        W75723  16.775   0.591   0.280
10464W        W75724  27.996  36.040   2.310
10465W        W75725  12.655   9.229   4.279
10466W        W75726  15.570  44.699  11.221
10467W        W75727  33.151   2.934   2.893
10468W        W75728   5.192  34.801  11.645
10469W        W75729  40.840  44.386   4.533
10470W        W75730  32.613  42.416  11.073
10471W        W75731  14.608  10.191   1.318
10472W        W75732  30.676   0.449  14.939
10473W        W75733  18.537  14.274   4.577
10474W        W75734  33.682  26.617   1.423
10475W        W75735  31.678   7.833   3.777
10476W        W75736  25.469  21.912   1.198
10477W        W75737  21.359  10.255  13.486
10478W        W75738   5.240  42.046   1.849
10479W        W75739  18.781   5.370   1.686
10480W        W75740  28.858  24.766   2.557
10481W        W75741  39.404  14.825  13.975
10482W        W75742  44.481   6.422  13.412
10483W        W75743  14.688  14.042  13.409
10484W        W75744  30.952   6.623   0.422
10485W        W75745  37.915  24.943  13.074
10486W        W75746   9.858   8.117   5.426
10487W        W75747  16.169  38.984  12.986
10488W        W75748  33.740   0.950   4.553
10489W        W75749  18.174  33.003  13.060
10490W        W75750  38.374  24.593   4.769
10491W        W75751  43.819  17.099   0.380
10492W        W75752   7.606  39.698  13.842
10493W        W75753  17.956  24.763   1.779
10494W        W75754  42.654  40.730   3.639
10495W        W75755  24.642  39.891   1.308
10496W        W75756  41.605  30.487   3.197
10497W        W75757  24.552  19.463  14.342
10498W        W75758  29.001  17.954  12.945
10499W        W75759  17.493   7.731  11.908
10500W        W75760  36.727  28.391   0.765
10501W        W75761  17.215  15.924   2.395
10502W        W75762  18.540  15.581   4.256
10503W        W75763   1.001  40.389  12.935
10504W        W75764  16.347  33.912  14.848
10505W        W75765  20.518   0.002   0.656
10506W        W75766   6.267  29.176  11.089
10507W        W75767  23.173  27.708  11.881
10508W        W75768  15.949  27.466  13.606
10509W        W75769  33.084  40.216   0.818
10510W        W75770  26.881  24.782   1.420
10511W        W75771  36.841  43.506   4.495
10512W        W75772  32.541   0.920   4.332
10513W        W75773  15.784  11.180  12.813
10514W        W75774   8.763   3.690   4.604
10515W        W75775   3.265  22.570   4.513
10516W        W75776  41.931  38.536  10.951
10517W        W75777  40.641  44.610  14.770
10518W        W75778  44.971  35.997   4.695
10519W        W75779  29.956  15.726  13.914
10520W        W75780   8.210   6.451   1.278
10521W        W75781  37.342  28.478  14.990
10522W        W75782   4.230  18.989  12.999
10523W        W75783  30.952  18.623  10.617
10524W        W75784  41.823   1.974   1.755
10525W        W75785   1.759  24.022   0.255
10526W        W75786  14.839  39.795   3.301
10527W        W75787  12.665  10.793   4.567
10528W        W75788  29.047  41.081  12.557
10529W        W75789  29.575  18.520  13.765
10530W        W75790  26.544  17.497   3.283
10531W        W75791  16.799  31.849   2.536
10532W        W75792  41.512  28.991   1.368
10533W        W75793  35.265  12.631  10.700
10534W        W75794   8.775   9.098  12.173
10535W        W75795   4.692  18.308   1.798
10536W        W75796  44.434  44.816   0.252
10537W        W75797  16.284  43.022   3.868
10538W        W75798  33.863  28.958   0.449
10539W        W75799  24.519   0.289   3.770
10540W        W75800  37.367  29.616   0.586
10541W        W75801  35.443  12.390   4.031
10542W        W75802  41.284  23.545   4.082
10543W        W75803  16.362  38.546   2.476
10544W        W75804   1.397  36.226  13.409
10545W        W75805  35.617  23.735   4.188
10546W        W75806   0.385  38.420   0.861
10547W        W75807  37.056   6.485   2.125
10548W        W75808  28.739  31.981   1.313
10549W        W75809  22.289  43.568  11.951
10550W        W75810  17.701  21.094   4.435
10551W        W75811  25.768  35.609   4.396
10552W        W75812  40.897  28.700  12.071
10553W        W75813  27.257  21.755   1.366
10554W        W75814   6.101  17.128  14.836
10555W        W75815   4.727   7.729  11.146
10556W        W75816  40.369   3.459   4.840
10557W        W75817  19.612  19.296   3.540
10558W        W75818   7.891  42.285  12.928
10559W        W75819   9.315  43.009  14.737
10560W        W75820  38.863  13.539   1.221
10561W        W75821   9.756  17.562  11.010
10562W        W75822  14.588  24.577   3.623
10563W        W75823  15.368  36.939   3.929
10564W        W75824  15.089  25.581   0.752
10565W        W75825  43.921   4.409  11.964
10566W        W75826   0.558  42.400   2.126
10567W        W75827  12.151  15.127   4.570
10568W        W75828   0.749   5.474   3.866
10569W        W75829  23.083  35.881  14.769
10570W        W75830   3.491  25.329  12.138
10571W        W75831  40.787   8.559   1.693
10572W        W75832  24.038   3.779  13.834
10573W        W75833  15.696  13.917  11.617
10574W        W75834  38.965  36.793  10.640
10575W        W75835   0.017  21.758   1.367
10576W        W75836  33.345   6.322  11.061
10577W        W75837  18.545  15.626   5.125
10578W        W75838  41.023   0.381   1.645
10579W        W75839  42.391  21.767  12.141
10580W        W75840   0.936  43.703   4.584
10581W        W75841  42.288  27.015   3.332
10582W        W75842   4.789  33.339   4.143
10583W        W75843   8.891  12.234  13.142
10584W        W75844  30.608   6.293  14.455
10585W        W75845  24.446  26.541   1.000
10586W        W75846  34.343   2.844  12.464
10587W        W75847  35.036   3.391   0.714
10588W        W75848  11.176  30.639   2.639
10589W        W75849  20.280  29.550   1.377
10590W        W75850  11.910  13.481   2.223
10591W        W75851  27.020  28.270  14.976
10592W        W75852  44.035   0.079  11.993
10593W        W75853  16.077  43.537   3.243
10594W        W75854  39.432   3.684   4.308
10595W        W75855  22.052  34.996   2.215
10596W        W75856  22.464   1.808  12.026
10597W        W75857   6.723  10.148  10.330
10598W        W75858  12.642  30.010   1.442
10599W        W75859  34.836  32.532  11.993
10600W        W75860  19.271  30.347   4.707
10601W        W75861  10.140  12.086   3.454
10602W        W75862  32.844  15.749   1.695
10603W        W75863   5.258  25.903  12.047
10604W        W75864  43.382   4.430  12.092
10605W        W75865  14.691  20.573  13.361
10606W        W75866   3.592  21.310  12.150
10607W        W75867  31.429  21.550   3.627
10608W        W75868  41.993  29.458   2.982
10609W        W75869  44.847  19.883   4.447
10610W        W75870  22.809  35.954  12.078
10611W        W75871  43.492  38.027  13.422
10612W        W75872  21.556   2.695   3.307
10613W        W75873  37.886  44.074   2.231
10614W        W75874  35.500   9.719   0.540
10615W        W75875  37.465   6.677  14.852
10616W        W75876  12.639   5.681   1.360
10617W        W75877  29.112  10.337  12.244
10618W        W75878  38.866  39.414   3.362
10619W        W75879  38.033  24.044  13.028
10620W        W75880  21.433  11.737   1.305
10621W        W75881  43.589  17.064  14.897
10622W        W75882   7.738  22.452  11.551
10623W        W75883  33.535  33.367  13.397
10624W        W75884  13.256   1.138   2.759
10625W        W75885  16.140  38.798   5.108
10626W        W75886  30.271   2.313   2.188
10627W        W75887  35.553   3.492   0.983
10628W        W75888  22.579  11.900   2.742
10629W        W75889  26.666   3.869  11.435
10630W        W75890  17.106   4.851   4.493
10631W        W75891  27.055  28.686   2.699
10632W        W75892  34.384  21.130  14.465
10633W        W75893  25.073  42.780  12.539
10634W        W75894  27.156   9.680  11.092
10635W        W75895   4.838  14.713  13.780
10636W        W75896   0.438  13.390  13.157
10637W        W75897  35.876  36.791  10.758
10638W        W75898  18.796  35.365   3.167
10639W        W75899  44.197  17.295  13.292
10640W        W75900  20.437  13.636   1.288
10641W        W75901  17.273  30.079   1.579
10642W        W75902  21.254   2.948   0.359
10643W        W75903  23.173  37.708   4.474
10644W        W75904  29.578   2.869   3.504
10645W        W75905  15.569  31.143  12.399
10646W        W75906   7.173   2.540   3.743
10647W        W75907   2.526   2.878  11.856
10648W        W75908  17.513  38.004   1.989
10649W        W75909  14.096   5.290   0.262
10650W        W75910  34.606  34.508  12.335
10651W        W75911   4.895  31.443   3.257
10652W        W75912  27.663  27.996  10.784
10653W        W75913   5.514  28.078   0.870
10654W        W75914  36.453  18.561  11.453
10655W        W75915   0.338   8.911   3.900
10656W        W75916  32.830  12.116  14.417
10657W        W75917  22.233  39.290  13.211
10658W        W75918  19.213  15.368   0.955
10659W        W75919   4.013   8.217   4.272
10660W        W75920  21.514  41.993   2.688
10661W        W75921  19.851  14.378  14.251
10662W        W75922  23.998  16.794  12.467
10663W        W75923  42.109   8.858   1.429
10664W        W75924  38.778  11.354   4.246
10665W        W75925  37.292   9.648  12.876
10666W        W75926  11.709  34.090  13.364
10667W        W75927  15.724  36.580   2.490
10668W        W75928  38.159  10.756   0.903
10669W        W75929  28.064  28.825  10.339
10670W        W75930  12.247  43.929  14.083
10671W        W75931  39.783   9.465   1.771
10672W        W75932  32.501  14.354  12.968
10673W        W75933  37.950   6.134  12.698
10674W        W75934   6.638  37.647  11.176
10675W        W75935   5.882  39.260  11.935
10676W        W75936  42.684  24.452  12.065
10677W        W75937   8.146  10.536  12.178
10678W        W75938   8.926  21.991  12.644
10679W        W75939  32.783   6.423   1.971
10680W        W75940  14.503  17.255   2.747
10681W        W75941  17.806  24.012   1.481
10682W        W75942   8.667  40.195   4.562
10683W        W75943   6.479  34.331   1.366
10684W        W75944  15.396  26.166   1.447
10685W        W75945  37.240  18.127   0.837
10686W        W75946  14.788  11.872   4.122
10687W        W75947  22.661  13.291   3.665
10688W        W75948  43.313  14.378  10.929
10689W        W75949  13.079  27.098   3.826
10690W        W75950   4.401  23.007  11.957
10691W        W75951  38.579  11.314  14.257
10692W        W75952  12.246  24.141   1.449
10693W        W75953  29.071  35.622   3.790
10694W        W75954  42.380   7.399  14.472
10695W        W75955  26.977  30.633  13.116
10696W        W75956  38.421  32.840  14.855
10697W        W75957  35.568   1.348  14.823
10698W        W75958  33.606   8.594   1.444
10699W        W75959  30.675   2.897   1.644
10700W        W75960   7.099  19.849  11.574
10701W        W75961  30.946  39.824  13.064
10702W        W75962  11.773   5.944   5.733
10703W        W75963  31.993  19.490  11.171
10704W        W75964  41.534   1.846   2.714
10705W        W75965  38.586  39.113  11.090
10706W        W75966   2.734  14.773   2.171
10707W        W75967  39.422  36.968  13.698
10708W        W75968   3.956  41.493  14.403
10709W        W75969  37.866  18.304  10.799
10710W        W75970  36.776  16.949  14.432
10711W        W75971  36.070  15.613  14.037
10712W        W75972   2.263   9.704  14.925
10713W        W75973  17.261   7.687  13.397
10714W        W75974  15.204  21.587  14.715
10715W        W75975  28.792  10.612   1.332
10716W        W75976  43.035  44.301  10.452
10717W        W75977  41.907  10.253  12.035
10718W        W75978  16.838  22.104  14.535
10719W        W75979  22.717   5.980   3.223
10720W        W75980   0.427  36.164  10.660
10721W        W75981  26.433  14.615   4.144
10722W        W75982  18.930  24.898  12.067
10723W        W75983   1.759  39.515  14.862
10724W        W75984  30.084  35.596  10.559
10725W        W75985  18.002  44.962  14.897
10726W        W75986  43.955  44.949   4.366
10727W        W75987  42.038  32.102   3.262
10728W        W75988  19.720  39.618   0.360
10729W        W75989  29.160   8.467  14.983
10730W        W75990  24.550  16.819  10.609
10731W        W75991  10.004  31.178  14.217
10732W        W75992  22.749  44.975  10.915
10733W        W75993  30.027  35.215   3.579
10734W        W75994  10.087  39.879   0.970
10735W        W75995  37.491  18.830  14.751
10736W        W75996  28.110  31.160  14.110
10737W        W75997  36.499  15.400  12.956
10738W        W75998  10.658   8.297  13.420
10739W        W75999   9.313  23.342  12.080
10740W        W76000  43.120  26.285  11.161
10741W        W76001  26.425  14.315  14.985
10742W        W76002  18.260  37.736   0.277
10743W        W76003  29.665  29.554   1.991
10744W        W76004  20.353   6.424  13.359
10745W        W76005  23.689   2.019  11.424
10746W        W76006  36.508  24.091  13.990
10747W        W76007   9.197  39.561   4.137
10748W        W76008  14.679  41.417   0.805
10749W        W76009   9.323  20.964   1.407
10750W        W76010  10.379   1.413   4.553
10751W        W76011  35.419   4.993   3.373
10752W        W76012   6.683   5.455  11.127
10753W        W76013  37.667  22.030   2.297
10754W        W76014   1.271  34.988  10.767
10755W        W76015   0.827  18.750   1.712
10756W        W76016  42.429  40.500   3.206
10757W        W76017  25.030  14.107   0.351
10758W        W76018   8.737  40.319  14.217
10759W        W76019   2.988  34.605   4.260
10760W        W76020  31.501  27.600   0.917
10761W        W76021  11.152   2.449   1.812
10762W        W76022  42.606   5.588  12.007
10763W        W76023  36.135   6.236  13.590
10764W        W76024  31.599  35.076  14.785
10765W        W76025  12.157  37.758  10.552
10766W        W76026  12.727   4.142  14.844
10767W        W76027  20.599  38.094   3.585
10768W        W76028  14.351   6.741  13.487
10769W        W76029  42.008  27.604  13.477
10770W        W76030  42.000  28.855  11.569
10771W        W76031  26.475  19.733   2.721
10772W        W76032  25.007  44.218   2.238
10773W        W76033  40.905   8.961   0.802
10774W        W76034   6.238  10.256  12.405
10775W        W76035   6.099  38.133   2.793
10776W        W76036  20.647  28.458   4.544
10777W        W76037   4.655  32.034   1.154
10778W        W76038  12.755  20.188   4.167
10779W        W76039  19.560  10.632  14.341
10780W        W76040   4.624   8.718   1.734
10781W        W76041  11.725   5.878  10.239
10782W        W76042  36.234   3.618   1.689
10783W        W76043  13.331  33.959   0.426
10784W        W76044  16.718   6.456   3.945
10785W        W76045   4.842  41.535   2.341
10786W        W76046   4.032  12.750  13.360
10787W        W76047  15.105  18.273  12.125
10788W        W76048  11.869  16.300  14.503
10789W        W76049  31.631   8.478   0.231
10790W        W76050   1.765  30.512   1.563
10791W        W76051  16.111   1.303  11.043
10792W        W76052  43.137  18.219  13.455
10793W        W76053  39.775  27.090  11.310
10794W        W76054  36.451  28.038   5.139
10795W        W76055  37.304  20.016   2.896
10796W        W76056  10.489   3.540  12.140
10797W        W76057   8.129  15.119   2.341
10798W        W76058  44.661  12.841  13.883
10799W        W76059  43.029  22.152   2.135
10800W        W76060  23.779  44.302   4.345
10801W        W76061  40.373  35.690  12.501
10802W        W76062  37.014   1.472  14.866
10803W        W76063   3.825   5.343  14.125
10804W        W76064  14.300  10.359  11.815
10805W        W76065  38.810  24.468  14.877
10806W        W76066  19.633  12.913   4.118
10807W        W76067  20.486   1.478  11.602
10808W        W76068  25.271  12.148   2.793
10809W        W76069  25.445  27.641  12.711
10810W        W76070  35.777  10.910  14.035
10811W        W76071  22.571   0.974   2.320
10812W        W76072   9.445   4.715  10.294
10813W        W76073  28.109  18.076  10.730
10814W        W76074  44.783  21.303  11.041
10815W        W76075  21.172  18.767   5.534
10816W        W76076  12.678  22.361   3.057
10817W        W76077  10.541  36.501   1.217
10818W        W76078  20.730  13.373  14.739
10819W        W76079  19.769  21.109  11.814
10820W        W76080  14.101  15.687  14.845
10821W        W76081  44.239  43.317  11.241
10822W        W76082  33.688  43.410   2.725
10823W        W76083  21.760  44.729  11.124
10824W        W76084  23.479   0.411  11.101
10825W        W76085   4.431   9.977   3.972
10826W        W76086  11.266  16.847   0.745
10827W        W76087   0.759   3.934  11.150
10828W        W76088  32.643  27.531   4.485
10829W        W76089  25.531  40.501  10.708
10830W        W76090  12.370   7.433   1.492
10831W        W76091  10.966  21.225  11.573
10832W        W76092  10.371  34.456   1.764
10833W        W76093  42.839  42.792  11.974
10834W        W76094  32.538  35.665   4.050
10835W        W76095  27.635   0.968   3.509
10836W        W76096  40.364  10.339   0.026
10837W        W76097  32.072  21.335  11.499
10838W        W76098  18.788  43.015   2.201
10839W        W76099   0.377  26.253  11.972
10840W        W76100  36.488  43.368  11.563
10841W        W76101  30.413  19.742   3.872
10842W        W76102  28.640  26.028  10.618
10843W        W76103  11.658   0.262   4.259
10844W        W76104   1.973   3.366   2.134
10845W        W76105  28.314   4.992  12.044
10846W        W76106  25.136   3.685   1.421
10847W        W76107  36.456  22.261  14.527
10848W        W76108  21.019  35.731  11.592
10849W        W76109  23.575  29.927   1.929
10850W        W76110  13.421  17.512  12.986
10851W        W76111  28.456   2.666  13.541
10852W        W76112  12.386  12.336  12.094
10853W        W76113   1.405  13.844  12.007
10854W        W76114  26.504  42.526  13.354
10855W        W76115  38.186  14.495   5.012
10856W        W76116   0.931  39.144  14.864
10857W        W76117  20.013  32.089   1.936
10858W        W76118  37.237  35.131  14.351
10859W        W76119  12.476  31.737  11.674
10860W        W76120  41.506  17.269   2.379
10861W        W76121  35.090  10.342   1.356
10862W        W76122  17.721  24.149  11.203
10863W        W76123  42.496  16.591   2.715
10864W        W76124  29.559  18.752   4.537
10865W        W76125  25.752  13.889  13.839
10866W        W76126  16.338   8.227   3.678
10867W        W76127   6.743   7.182  12.065
10868W        W76128  10.361  35.035   3.786
10869W        W76129  13.840  41.339   3.075
10870W        W76130  37.035  43.412   0.801
10871W        W76131  20.029  40.507   0.703
10872W        W76132  13.699  26.074  12.673
10873W        W76133  22.622   1.517   2.312
10874W        W76134   7.305  20.939  13.602
10875W        W76135  34.618  29.124  11.545
10876W        W76136  35.347  15.741   2.707
10877W        W76137   4.278  35.445  13.767
10878W        W76138  31.914  40.186  10.034
10879W        W76139  19.750  11.167  10.652
10880W        W76140  26.128  13.180   0.187
10881W        W76141  16.564  10.227   1.546
10882W        W76142  13.393  43.802   4.019
10883W        W76143  10.032  37.656  11.629
10884W        W76144  41.318  18.565  11.425
10885W        W76145  31.730  28.091   0.005
10886W        W76146  12.621  13.938   4.086
10887W        W76147   8.073   1.337   0.413
10888W        W76148  33.610  27.127   2.674
10889W        W76149   3.604   3.297  10.379
10890W        W76150   6.264  27.512  11.587
10891W        W76151  41.927  17.981   3.596
10892W        W76152  34.057  20.295   0.234
10893W        W76153  44.134  22.015  11.132
10894W        W76154  44.810  17.334   0.124
10895W        W76155  12.394   6.569  13.736
10896W        W76156  17.751  24.438  12.564
10897W        W76157  29.160  22.478  10.795
10898W        W76158  35.258  13.861  13.111
10899W        W76159  36.029   9.608  10.705
10900W        W76160   0.946  10.186  14.030
10901W        W76161  12.970  32.833  13.626
10902W        W76162  31.917  14.121  13.960
10903W        W76163  15.816  38.029  12.028
10904W        W76164  28.060  13.363   4.752
10905W        W76165  20.954  12.643  10.711
10906W        W76166   3.808  39.334  11.571
10907W        W76167  44.952  16.930  10.260
10908W        W76168  36.537   4.861   1.797
10909W        W76169  22.712  38.868  11.092
10910W        W76170  31.442  40.531   1.277
10911W        W76171  10.304  13.432   2.961
10912W        W76172  32.929   3.433  11.138
10913W        W76173  22.674   3.788   4.695
10914W        W76174  28.137  19.767  12.366
10915W        W76175   1.781  44.958  12.859
10916W        W76176  14.717  41.558  13.768
10917W        W76177  39.782  16.843   2.244
10918W        W76178   1.687  32.549   2.638
10919W        W76179   9.073  38.609  11.560
10920W        W76180  17.297   6.567   1.945
10921W        W76181  20.900  13.601  12.985
10922W        W76182  12.310   2.859   3.731
10923W        W76183  22.544  24.425  14.454
10924W        W76184  19.984  43.360  11.110
10925W        W76185  40.699   0.699  11.644
10926W        W76186  38.351  10.406  13.841
10927W        W76187  15.334  26.032  14.487
10928W        W76188  33.783  40.827  10.685
10929W        W76189   2.864   7.678  11.926
10930W        W76190  20.961  23.212  12.924
10931W        W76191  24.482  24.141   3.227
10932W        W76192  11.235   4.089  11.136
10933W        W76193   0.845  25.861   2.273
10934W        W76194  38.036  22.650  14.413
10935W        W76195  44.097  19.797  12.357
10936W        W76196   8.230  28.739   1.766
10937W        W76197  22.730   8.364  14.058
10938W        W76198   2.028  11.814   1.431
10939W        W76199   9.801  44.334  14.959
10940W        W76200  38.933  41.011   3.079
10941W        W76201  24.306   5.204  13.511
10942W        W76202  37.126  37.534   4.149
10943W        W76203   9.267  42.360  10.958
10944W        W76204  15.001  33.829   0.855
10945W        W76205  36.524  38.977   2.905
10946W        W76206  37.957  15.747   4.738
10947W        W76207   9.866  31.931   3.704
10948W        W76208  31.576  36.399   0.198
10949W        W76209  43.935  28.474  11.901
10950W        W76210  22.187  27.001   0.810
10951W        W76211  31.406   4.431   1.807
10952W        W76212  34.098  19.501   1.971
10953W        W76213  34.643  20.021  11.059
10954W        W76214  20.225  24.122   1.296
10955W        W76215  30.141  30.484   3.270
10956W        W76216  30.479  43.871  12.985
10957W        W76217  30.030  36.726   2.366
10958W        W76218  34.072  22.101   4.505
10959W        W76219  23.681  37.029  12.638
10960W        W76220  33.798  26.377  10.339
10961W        W76221  23.875  15.395  14.486
10962W        W76222   1.316  11.262  10.686
10963W        W76223  20.963  25.683   4.622
10964W        W76224   1.799  21.590   2.326
10965W        W76225  40.534  34.168  10.263
10966W        W76226  25.933  29.761  11.920
10967W        W76227  27.947  26.547  11.109
10968W        W76228  27.185  42.836  10.672
10969W        W76229  42.706  34.357   1.465
10970W        W76230  37.788  44.793   0.645
10971W        W76231   9.575  38.851  13.006
10972W        W76232  14.782  13.741  14.845
10973W        W76233  10.623  22.576   2.677
10974W        W76234  32.049  26.012  13.928
10975W        W76235   4.613   3.686  13.816
10976W        W76236  38.394  24.785   1.232
10977W        W76237  44.233  22.653   4.501
10978W        W76238  21.279  26.453   4.197
10979W        W76239   7.919   8.469  11.924
10980W        W76240  19.650  37.040   5.059
10981W        W76241  30.501  17.960  13.437
10982W        W76242  34.487   6.751  10.741
10983W        W76243  20.133  11.286   4.113
10984W        W76244   6.315   8.469  13.075
10985W        W76245   9.737  16.547   3.555
10986W        W76246   9.150  36.182  14.465
10987W        W76247  10.216  17.836   0.911
10988W        W76248  13.519   4.708   0.796
10989W        W76249  17.089  26.300   0.480
10990W        W76250  22.512  30.354   4.119
10991W        W76251  11.637   1.421  11.189
10992W        W76252  37.963  44.680  11.226
10993W        W76253  28.785  10.742  12.951
10994W        W76254  41.792  17.032   1.333
10995W        W76255  31.213  13.783   4.286
10996W        W76256   4.245  40.924  10.537
10997W        W76257  20.278   2.880  14.384
10998W        W76258  20.920   2.455   4.107
10999W        W76259   9.269  19.616  13.975
11000W        W76260  19.008  24.761  13.024
11001W        W76261  36.649  14.177   1.022
11002W        W76262   6.925  21.562   2.357
11003W        W76263  26.681  33.288  13.393
11004W        W76264  32.040  20.638  14.452
11005W        W76265   9.623  20.223   4.569
11006W        W76266  32.466  37.050   2.400
11007W        W76267   6.397  25.968  10.206
11008W        W76268  16.757   7.796   3.423
11009W        W76269  38.602  39.879  13.551
11010W        W76270  35.339  44.920  14.033
11011W        W76271  38.557  23.744  13.789
11012W        W76272   0.167   2.757  11.488
11013W        W76273   1.930  18.354   1.219
11014W        W76274  31.756   3.969  12.401
11015W        W76275   4.031  30.649   2.691
11016W        W76276  41.886  32.278  13.900
11017W        W76277  17.746  35.358   2.351
11018W        W76278  39.323  38.816  13.014
11019W        W76279  16.419  41.364  12.392
11020W        W76280   6.693  18.740   0.925
11021W        W76281  14.375  10.468   4.070
11022W        W76282  22.248   2.866  11.004
11023W        W76283  42.437  42.374   1.302
11024W        W76284  11.843  11.323  12.487
11025W        W76285  41.680  34.616  12.164
11026W        W76286  25.602  31.220  13.112
11027W        W76287  32.373   1.990  12.457
11028W        W76288  17.811  40.476   1.187
11029W        W76289  33.903  35.276  11.210
11030W        W76290  24.275  23.248  14.317
11031W        W76291  30.841   1.913   3.177
11032W        W76292  11.639  39.050   4.426
11033W        W76293  28.431  18.433  14.486
11034W        W76294  41.536   0.276  12.562
11035W        W76295  28.020  43.626  10.839
11036W        W76296  31.514  31.499   2.896
11037W        W76297  17.143  43.783   0.006
11038W        W76298   9.951  30.545  11.512
11039W        W76299  43.809   2.483  13.781
11040W        W76300   1.337  33.554   2.884
11041W        W76301  27.732   2.005  12.472
11042W        W76302  43.503   3.938  12.026
11043W        W76303  32.394   9.200  11.683
11044W        W76304  16.321   3.786  12.913
11045W        W76305   6.986   1.704   4.569
11046W        W76306  42.711  38.996   4.070
11047W        W76307   4.453  37.468   0.266
11048W        W76308  22.524  30.980  12.596
11049W        W76309  36.616  11.223   3.129
11050W        W76310  40.270   2.411  11.200
11051W        W76311  39.903  33.287   2.381
11052W        W76312  25.332  38.996   0.454
11053W        W76313  15.696   1.235   2.252
11054W        W76314  10.576  29.943   0.397
11055W        W76315   9.224  44.245   3.421
11056W        W76316   5.490  30.223  12.978
11057W        W76317  28.135  14.280   2.553
11058W        W76318  30.714  44.509   3.976
11059W        W76319  29.155  38.974   4.600
11060W        W76320  42.545  15.743   3.150
11061W        W76321  11.922  34.578  12.797
11062W        W76322  26.485  13.058  10.686
11063W        W76323  43.319   6.589  11.141
11064W        W76324  40.898   6.966  13.206
11065W        W76325  36.575  35.594   1.439
11066W        W76326  41.863  21.061   2.445
11067W        W76327  40.596  24.541  12.480
11068W        W76328   0.783  25.619  12.969
11069W        W76329  33.437  20.496  12.140
11070W        W76330  33.890  23.251   0.772
11071W        W76331  31.852  36.484   5.076
11072W        W76332  26.255  22.297  10.482
11073W        W76333  21.123  31.840  12.749
11074W        W76334  29.123   3.692   1.758
11075W        W76335  17.650  13.944   2.361
11076W        W76336  17.836  10.112  12.110
11077W        W76337  17.123  34.915   1.781
11078W        W76338  20.618   9.403   4.858
11079W        W76339  39.409  34.965  11.333
11080W        W76340  36.093  26.467  12.484
11081W        W76341  41.551  43.892  12.957
11082W        W76342  21.953  33.898   5.023
11083W        W76343  15.914  24.979   0.059
11084W        W76344  42.455   9.916   0.968
11085W        W76345  12.177  41.843  12.988
11086W        W76346   4.421  27.780   0.347
11087W        W76347  30.311   7.024   4.615
11088W        W76348  16.605  11.625   1.305
11089W        W76349  14.655  37.885   0.687
11090W        W76350  21.400  42.557  13.782
11091W        W76351  25.995  36.142   3.092
11092W        W76352   1.944  13.915  12.553
11093W        W76353  27.426  31.076  14.777
11094W        W76354  19.638  33.638  11.998
11095W        W76355  31.925  36.665  11.669
11096W        W76356  19.666  34.498   1.904
11097W        W76357  40.401  37.690  12.869
11098W        W76358  18.871  41.953  12.517
11099W        W76359   2.771  34.312  11.433
11100W        W76360   4.224   9.107  11.512
11101W        W76361  42.417  15.530  14.004
11102W        W76362  24.094  21.693  12.541
11103W        W76363  42.757  21.257  11.112
11104W        W76364  25.699  43.771  10.715
11105W        W76365  28.327   0.855  12.353
11106W        W76366  14.111  24.539  14.728
11107W        W76367  37.352  35.903   4.660
11108W        W76368  33.079  27.409   0.812
11109W        W76369  43.388  17.088   4.629
11110W        W76370   6.775  27.172   3.596
11111W        W76371  21.747   9.338  14.329
11112W        W76372  15.289  29.926  12.357
11113W        W76373  13.240  37.969   3.914
11114W        W76374  29.723  24.663   4.944
11115W        W76375  35.371  11.746   3.023
11116W        W76376   0.839   4.820  11.022
11117W        W76377  39.614  41.028   0.002
11118W        W76378  25.548  35.627   2.749
11119W        W76379  36.059  37.671  11.931
11120W        W76380   8.836  31.629   1.433
11121W        W76381   2.291  41.724   1.721
11122W        W76382  41.508  20.360   0.867
11123W        W76383  38.085   0.455  12.788
11124W        W76384  32.859   6.617  12.340
11125W        W76385  38.974  12.621   1.449
11126W        W76386  19.364  26.961  13.818
11127W        W76387  13.667  30.819   1.263
11128W        W76388  24.054   2.956   0.584
11129W        W76389  39.643  35.755  11.031
11130W        W76390   9.254  35.808   5.139
11131W        W76391   0.789  21.874  14.651
11132W        W76392  24.175  18.229  13.917
11133W        W76393   9.355  44.414  14.097
11134W        W76394  12.861   4.306  10.685
11135W        W76395  36.664  29.963   1.373
11136W        W76396   0.770   1.494   3.814
11137W        W76397  44.928  21.961  14.429
11138W        W76398  27.589  40.416   0.908
11139W        W76399  23.227  42.370  11.540
11140W        W76400  20.534  29.868   2.404
11141W        W76401  38.035   7.255  11.181
11142W        W76402  35.995  18.828  10.726
11143W        W76403  12.820  27.383   2.457
11144W        W76404  33.863   5.835  11.001
11145W        W76405  41.175   0.300   3.654
11146W        W76406   0.243  14.874   0.884
11147W        W76407  39.766   7.847  11.229
11148W        W76408  42.044  26.539   5.075
11149W        W76409  24.372   7.272  14.282
11150W        W76410   6.668  35.211  10.626
11151W        W76411  41.076  12.314   0.737
11152W        W76412  22.766  24.985  10.969
11153W        W76413  16.194  42.917  10.768
11154W        W76414   9.497  11.594  12.431
11155W        W76415   4.431  19.919  14.693
11156W        W76416  29.017  27.668  13.821
11157W        W76417  34.098   6.161  11.523
11158W        W76418   1.320  30.062   4.500
11159W        W76419  35.074   2.096   4.132
11160W        W76420  14.257  36.609   3.369
11161W        W76421  17.957  34.110  14.067
11162W        W76422  41.061  16.223  14.386
11163W        W76423  24.580  34.799   4.851
11164W        W76424   5.482  10.885   2.408
11165W        W76425  11.123  32.991   0.611
11166W        W76426  26.438   8.322  11.133
11167W        W76427   6.363  29.375  13.087
11168W        W76428   3.279  23.572  11.856
11169W        W76429  32.566   7.502  11.462
11170W        W76430   4.418  39.136   9.911
11171W        W76431  36.046  12.317   4.736
11172W        W76432  26.989  23.498  13.796
11173W        W76433  18.843  36.485  11.217
11174W        W76434   3.797   3.720  10.603
11175W        W76435   5.007  21.617  14.154
11176W        W76436  21.937   3.755  11.638
11177W        W76437  22.183  20.788   0.322
11178W        W76438   7.268  34.614   1.596
11179W        W76439  38.971  36.107  14.011
11180W        W76440  42.051  24.063  13.249
11181W        W76441  43.330  18.250  13.980
11182W        W76442   5.986  10.705   2.427
11183W        W76443  27.655  22.147  13.573
11184W        W76444  23.588  37.584   0.735
11185W        W76445  37.615  13.283   0.467
11186W        W76446   0.509  19.146   1.362
11187W        W76447  17.780  14.072  13.456
11188W        W76448  17.278   1.305   3.230
11189W        W76449  15.762  11.575   3.075
11190W        W76450  32.420  34.265   3.790
11191W        W76451  12.718  21.986   3.949
11192W        W76452  26.438   1.489   0.407
11193W        W76453  11.804  29.890  12.509
11194W        W76454  42.377  11.669  13.582
11195W        W76455  24.567   0.189  10.508
11196W        W76456  14.469  23.580  10.235
11197W        W76457   2.942   2.658  13.866
11198W        W76458   5.946  21.622  11.097
11199W        W76459  38.902  20.774  11.660
11200W        W76460  18.874  15.124  14.206
11201W        W76461  37.625  40.516   2.333
11202W        W76462  25.266  28.447   2.745
11203W        W76463  25.806   2.793  11.977
11204W        W76464   2.245   2.211   2.673
11205W        W76465  32.938  29.616   1.520
11206W        W76466  41.211  10.833  10.479
11207W        W76467  44.375  36.392  11.142
11208W        W76468  31.920   3.640  11.694
11209W        W76469  21.306  27.075  12.745
11210W        W76470  38.101   3.908  11.076
11211W        W76471  23.572   8.359   4.688
11212W        W76472  30.992  31.718   4.035
11213W        W76473  17.128  34.186   4.133
11214W        W76474  20.055  31.381   0.211
11215W        W76475   9.903  20.157   0.958
11216W        W76476  10.262   2.192   4.516
11217W        W76477   7.784  17.257  11.572
11218W        W76478  33.507  16.940   4.435
11219W        W76479  16.068  17.069  13.757
11220W        W76480  12.696  25.643  14.488
11221W        W76481  23.026  33.310  13.114
11222W        W76482  28.387  10.444  14.285
11223W        W76483  25.570  28.479  12.052
11224W        W76484   6.184   0.026  10.038
11225W        W76485  31.843  30.467   3.859
11226W        W76486  27.898   2.398   2.426
11227W        W76487  24.656  21.185   1.707
11228W        W76488  28.399   7.362  11.291
11229W        W76489  43.134  28.691   0.723
11230W        W76490  31.332  29.508   2.891
11231W        W76491   7.966  43.320   3.552
11232W        W76492  14.080  32.329  13.361
11233W        W76493  11.130  18.886   4.464
11234W        W76494   8.785   4.737   2.340
11235W        W76495  36.050  19.025  12.920
11236W        W76496  12.571  43.440   4.933
11237W        W76497  35.046   4.233   2.423
11238W        W76498  15.440  11.881  11.377
11239W        W76499   8.667  32.388   3.142
11240W        W76500  41.308  11.430   0.784
11241W        W76501  44.344  23.942   3.354
11242W        W76502   7.802  31.615   4.065
11243W        W76503  27.110  14.393   0.558
11244W        W76504   8.087  19.716  14.082
11245W        W76505  44.473  15.093  13.364
11246W        W76506  15.363  28.610  12.588
11247W        W76507  30.188  43.046   0.356
11248W        W76508  33.881  37.368   0.783
11249W        W76509  33.914  22.247  11.157
11250W        W76510  17.230  21.921  13.334
11251W        W76511   9.807  31.390   0.773
11252W        W76512   8.893  19.285  14.965
11253W        W76513   3.566  26.672  12.032
11254W        W76514  36.068  20.930   3.722
11255W        W76515   4.573  23.971   4.889
11256W        W76516   1.584  26.707   0.534
11257W        W76517  20.162  30.671   2.243
11258W        W76518  10.245  35.807  14.685
11259W        W76519  32.004  12.264   3.214
11260W        W76520  28.099   5.633   1.076
11261W        W76521  28.463  20.747  10.733
11262W        W76522   1.213  23.061   4.643
11263W        W76523  22.735   2.248  14.011
11264W        W76524  25.710  29.787   2.222
11265W        W76525  27.849   9.448   2.226
11266W        W76526   0.515  21.577  10.611
11267W        W76527  11.329  36.353   4.732
11268W        W76528   6.828  16.434  13.909
11269W        W76529   0.325  30.941   0.740
11270W        W76530  23.905   3.207  10.053
11271W        W76531  20.301  44.763  13.451
11272W        W76532  43.945  13.173  14.412
11273W        W76533  21.808  32.353  13.165
11274W        W76534  27.193  26.618  12.518
11275W        W76535  32.992  15.956  12.860
11276W        W76536  25.887   0.051  10.715
11277W        W76537  42.875  26.166   4.590
11278W        W76538   6.877   7.291   3.456
11279W        W76539   1.419  27.659   0.240
11280W        W76540   2.074  24.700   5.421
11281W        W76541  16.060  11.341   3.445
11282W        W76542   2.371   0.737  13.918
11283W        W76543   3.757  39.840   1.455
11284W        W76544   9.725  24.208   0.405
11285W        W76545  39.448  36.520   1.430
11286W        W76546  37.843   2.184   0.364
11287W        W76547  20.149  18.254   2.365
11288W        W76548  20.220  10.575  13.895
11289W        W76549  21.796   3.170  14.028
11290W        W76550  43.399   2.142  13.304
11291W        W76551   3.491  40.834  13.312
11292W        W76552   9.221   8.654  13.930
11293W        W76553  33.569   4.645   4.187
11294W        W76554  20.836   2.694   4.901
11295W        W76555  20.041  38.762   1.212
11296W        W76556  15.861   2.221  11.076
11297W        W76557  34.412  10.314   2.272
11298W        W76558  41.240  22.211   4.602
11299W        W76559  40.366  37.362   1.411
11300W        W76560   6.205  25.948   4.980
11301W        W76561  42.019  16.859  11.624
11302W        W76562   0.960   4.325   3.259
11303W        W76563  36.813  31.897   1.838
11304W        W76564  15.582   8.904  13.810
11305W        W76565  14.632  28.639   1.755
11306W        W76566  43.269   8.851  14.783
11307W        W76567  39.318  39.766  12.074
11308W        W76568  34.300  19.263  12.518
11309W        W76569  25.657  36.081  14.862
11310W        W76570  20.322  35.404  12.643
11311W        W76571   9.802  36.599   2.921
11312W        W76572   6.599  36.762  12.114
11313W        W76573  19.614  13.873  10.815
11314W        W76574  12.038  23.010   3.044
11315W        W76575  23.800   8.072   1.373
11316W        W76576   7.153  17.685  10.701
11317W        W76577  39.503  38.517  11.689
11318W        W76578  32.333  44.338   3.715
11319W        W76579  16.068  10.775  13.581
11320W        W76580  43.273  32.551  10.961
11321W        W76581  38.457   9.618   4.817
11322W        W76582  24.244  44.024  11.108
11323W        W76583  16.976  25.325  11.204
11324W        W76584  10.291  19.190  10.696
11325W        W76585   7.397  23.110   3.282
11326W        W76586   3.264   5.469  11.187
11327W        W76587   8.848   9.246   3.612
11328W        W76588  22.306   4.000   0.768
11329W        W76589   9.362  24.719   3.171
11330W        W76590  37.927  35.430   0.888
11331W        W76591  35.230  17.381  11.420
11332W        W76592   6.669  42.032   2.786
11333W        W76593  17.745   8.752  13.326
11334W        W76594  40.572  21.783   0.357
11335W        W76595  37.590  39.312   4.214
11336W        W76596  16.286   5.373  14.196
11337W        W76597  12.946  11.637  12.849
11338W        W76598  22.979   6.984  10.282
11339W        W76599  25.801  15.344   4.474
11340W        W76600  11.919  32.718   3.284
11341W        W76601  30.508  22.220  14.855
11342W        W76602  21.808   6.891  14.407
11343W        W76603  11.599  43.736  14.847
11344W        W76604  20.996  44.851  10.663
11345W        W76605  26.095  17.691   5.747
11346W        W76606   7.675  30.323   1.443
11347W        W76607  33.085  28.103   0.108
11348W        W76608  13.799  28.509   0.290
11349W        W76609  40.506   7.334   4.175
11350W        W76610  40.796  18.538  12.070
11351W        W76611  33.287  22.405   4.468
11352W        W76612   7.049   5.985  11.637
11353W        W76613  32.547  28.747  14.057
11354W        W76614  28.563   5.818   0.974
11355W        W76615  37.149  30.131  14.866
11356W        W76616  10.391   6.488   0.889
11357W        W76617  26.663  17.313  11.120
11358W        W76618  19.055   1.281  14.448
11359W        W76619  33.613  43.494  13.873
11360W        W76620  42.554  33.018   0.845
11361W        W76621  35.973   0.715  13.508
11362W        W76622  17.393  22.708  11.677
11363W        W76623   2.757  24.568  11.665
11364W        W76624  32.017  18.317  11.521
11365W        W76625  22.588  41.113   1.548
11366W        W76626  32.108  22.294   4.641
11367W        W76627  43.988  26.643  13.084
11368W        W76628  14.914  33.362   2.291
11369W        W76629   8.380  25.137  12.868
11370W        W76630  26.414  20.702  13.141
11371W        W76631   5.340   1.084   0.432
11372W        W76632  37.031  17.037  10.916
11373W        W76633  26.013   2.262  13.815
11374W        W76634  31.460  15.676   0.264
11375W        W76635  16.083  18.084  13.550
11376W        W76636  12.386  11.772   2.745
11377W        W76637  43.581   4.644   3.942
11378W        W76638   2.625  31.988   4.130
11379W        W76639  31.691  23.178  10.596
11380W        W76640   6.438  15.076   3.745
11381W        W76641  20.663  36.914  14.494
11382W        W76642  33.035  21.644   3.547
11383W        W76643  20.146  11.926   3.300
11384W        W76644  18.804  16.632   4.999
11385W        W76645  34.382  20.750  14.926
11386W        W76646  33.465  26.640   5.455
11387W        W76647  44.678  34.413   2.314
11388W        W76648  44.017  44.056   1.592
11389W        W76649   1.531  10.649  14.814
11390W        W76650  25.562  40.042   3.633
11391W        W76651  20.210  20.413   0.441
11392W        W76652  21.980   7.359   2.191
11393W        W76653  23.210  37.424  12.109
11394W        W76654   3.904   3.982   2.148
11395W        W76655  25.117  29.900  12.917
11396W        W76656  23.045  22.052   1.834
11397W        W76657  14.871  20.144   0.062
11398W        W76658  30.915  34.851  14.072
11399W        W76659  31.963   6.213   4.988
11400W        W76660  45.000   0.263  13.222
11401W        W76661  32.402  42.640  12.051
11402W        W76662   6.880  25.449  11.200
11403W        W76663  21.940  39.939  13.442
11404W        W76664  29.242   2.478  14.937
11405W        W76665   3.323  10.100  13.889
11406W        W76666  43.123  24.606   0.205
11407W        W76667   3.776  25.813   0.059
11408W        W76668   2.541  31.632   0.969
11409W        W76669  18.544  36.967   4.212
11410W        W76670  16.437  13.247   1.786
11411W        W76671  31.881  42.520  13.039
11412W        W76672  30.013  35.525   4.396
11413W        W76673  14.140  36.491  14.838
11414W        W76674  19.118  38.191  12.322
11415W        W76675  21.492  39.320  14.860
11416W        W76676  25.988  21.876   3.745
11417W        W76677  12.151   3.612   1.873
11418W        W76678   2.407  11.961  10.763
11419W        W76679  15.245  32.260  13.445
11420W        W76680  43.740   6.401   3.941
11421W        W76681  13.167  10.644  13.472
11422W        W76682  40.933  11.069  11.164
11423W        W76683  12.053  40.227  13.909
11424W        W76684  21.124  20.468   1.708
11425W        W76685  13.205  22.770  12.590
11426W        W76686  16.913  33.685  13.317
11427W        W76687  35.037  34.857  10.535
11428W        W76688  19.366   5.227  10.701
11429W        W76689  41.782   7.948  12.906
11430W        W76690  15.539  20.011   0.354
11431W        W76691  20.501  36.636   2.210
11432W        W76692  24.657  29.331   4.737
11433W        W76693  12.676   9.490  14.019
11434W        W76694  25.084   1.292  10.546
11435W        W76695  11.473   1.100   0.795
11436W        W76696  31.904  18.133   4.687
11437W        W76697   3.339   1.589  12.906
11438W        W76698   3.000  33.994  13.977
11439W        W76699   9.733  12.190   4.041
11440W        W76700  19.678  22.163  14.495
11441W        W76701  35.432  31.403  10.720
11442W        W76702  14.192  33.068  14.696
11443W        W76703  10.201  29.068   0.049
11444W        W76704  25.929  39.229  11.142
11445W        W76705  37.336  16.286  14.984
11446W        W76706  37.447  38.028   1.653
11447W        W76707  41.153  19.157   0.277
11448W        W76708  32.760   5.222   4.139
11449W        W76709  19.281  32.875  14.961
11450W        W76710  30.585   2.437   2.618
11451W        W76711   6.292  42.880  12.991
11452W        W76712  20.871  25.058  13.027
11453W        W76713   3.161  44.326   1.103
11454W        W76714  18.835  12.573  12.079
11455W        W76715  22.540   8.700  14.422
11456W        W76716  42.504   6.378  14.422
11457W        W76717  20.795   2.813   2.459
11458W        W76718   8.481  22.121   1.795
11459W        W76719  13.207  10.343  11.118
11460W        W76720  36.337   2.412  10.741
11461W        W76721   1.964  44.262  12.523
11462W        W76722   9.584  14.687   4.096
11463W        W76723  25.384   4.757   9.899
11464W        W76724  20.108  40.500   3.256
11465W        W76725  40.108  26.971  10.929
11466W        W76726  27.590  37.878   3.353
11467W        W76727  36.965  36.902  11.248
11468W        W76728   7.810  33.967   0.105
11469W        W76729  12.696  40.443  14.916
11470W        W76730  24.624   9.370   4.243
11471W        W76731   4.689  44.503  12.364
11472W        W76732  29.501  37.550  14.327
11473W        W76733   1.985  34.890   4.174
11474W        W76734  23.716   3.922  12.427
11475W        W76735  11.411   5.705   9.870
11476W        W76736   3.941   2.843   1.804
11477W        W76737  42.951   7.954  11.557
11478W        W76738  43.585  23.395   1.735
11479W        W76739   6.662  18.023  12.867
11480W        W76740  20.637  39.937   4.631
11481W        W76741  40.767   2.419  11.106
11482W        W76742  24.451   8.463  10.177
11483W        W76743  44.550  44.002   3.825
11484W        W76744  44.810   0.427   4.771
11485W        W76745   9.641  14.612   0.417
11486W        W76746   5.079  39.724   4.062
11487W        W76747  12.603  43.858   1.407
11488W        W76748  14.727   2.043  14.933
11489W        W76749  27.402  33.594   1.183
11490W        W76750  21.542  12.281  13.606
11491W        W76751  42.489  29.519  12.691
11492W        W76752  43.415  34.692   4.613
11493W        W76753  29.643  27.009   2.443
11494W        W76754  30.851  34.715   0.073
11495W        W76755  12.282  28.640   1.907
11496W        W76756   6.406  22.439  14.710
11497W        W76757  25.471  13.420  13.832
11498W        W76758  27.101  39.005   9.595
11499W        W76759  27.205  22.568  14.530
11500W        W76760  41.889   4.437  12.359
11501W        W76761  17.370   4.261   1.414
11502W        W76762  19.143   9.753   1.288
11503W        W76763  17.904  29.710   4.348
11504W        W76764  30.415   1.979   4.011
11505W        W76765  38.786   1.511   0.085
11506W        W76766  38.199  16.030  14.591
11507W        W76767  10.592  17.635   3.861
11508W        W76768  34.899   2.726  11.847
11509W        W76769  14.833   5.607   3.222
11510W        W76770  26.678  16.167   1.830
11511W        W76771  11.243  39.830  14.370
11512W        W76772  44.314  37.830   0.288
11513W        W76773  32.023  17.164   0.870
11514W        W76774  29.001  40.930  11.185
11515W        W76775  37.693  14.676  13.149
11516W        W76776  31.960  37.747   2.451
11517W        W76777  25.140  41.108   4.197
11518W        W76778   6.919   1.648   2.149
11519W        W76779  35.650  19.313  13.952
11520W        W76780  39.237   3.421   0.167
11521W        W76781  26.909  42.608  14.693
11522W        W76782  24.225  23.647  10.184
11523W        W76783   3.430  37.309  13.966
11524W        W76784  22.263  28.934  12.600
11525W        W76785  29.699  24.399  11.268
11526W        W76786   5.976   6.712   1.804
11527W        W76787  24.564  25.568  14.009
11528W        W76788  19.653   8.921  12.075
11529W        W76789  23.838   5.077  11.740
11530W        W76790  32.566  30.463  10.543
11531W        W76791   7.900  17.037   1.211
11532W        W76792  10.816   6.105  14.989
11533W        W76793   4.549  42.977   1.501
11534W        W76794  16.237   1.533   4.101
11535W        W76795  38.745  41.920   0.430
11536W        W76796  15.060  37.079   0.386
11537W        W76797  29.149  25.030   9.870
11538W        W76798  43.775  38.897   4.141
11539W        W76799  15.827  44.937  11.614
11540W        W76800  12.513  16.735   3.210
11541W        W76801  36.489  30.996  11.947
11542W        W76802   9.037   5.181   1.292
11543W        W76803  14.242   9.624   2.390
11544W        W76804  20.213  10.070  13.932
11545W        W76805  12.965   7.443   2.734
11546W        W76806   4.712  17.971   4.049
11547W        W76807  12.394  41.458  13.833
11548W        W76808  39.426  23.955  12.230
11549W        W76809  35.351  41.036   4.450
11550W        W76810  34.423   2.766   0.475
11551W        W76811   2.889  10.646   4.783
11552W        W76812  34.981  41.472  11.660
11553W        W76813  13.521  17.834  11.104
11554W        W76814  27.095   1.390  10.883
11555W        W76815  22.359   8.017   0.333
11556W        W76816  16.568   2.710  11.984
11557W        W76817  15.551  13.259   0.043
11558W        W76818   2.804  38.109   1.761
11559W        W76819   6.369   1.401  13.415
11560W        W76820   6.684  11.862  11.645
11561W        W76821  22.055   8.779   0.648
11562W        W76822  29.400  44.774  12.968
11563W        W76823  17.227   2.400  11.022
11564W        W76824  22.709  33.559   0.556
11565W        W76825  17.416   2.332  13.096
11566W        W76826   4.822   1.303   0.428
11567W        W76827   6.138  30.889  10.643
11568W        W76828   8.391  36.622  10.682
11569W        W76829  33.715   9.667  12.850
11570W        W76830  41.914  15.243  11.620
11571W        W76831  42.961  30.955   0.238
11572W        W76832   8.928  21.699  13.333
11573W        W76833  37.403  32.146  14.195
11574W        W76834  13.668  44.271   2.374
11575W        W76835   1.204  25.564   1.768
11576W        W76836   6.290  20.433  10.769
11577W        W76837   1.942  36.803   3.297
11578W        W76838  12.845  21.287  14.967
11579W        W76839  25.419  40.768   2.873
11580W        W76840  36.429  32.710  11.292
11581W        W76841   4.670   5.207   3.308
11582W        W76842  36.612  15.052   2.742
11583W        W76843  22.716  26.286  11.548
11584W        W76844  38.579  23.239   2.934
11585W        W76845  25.481  16.869   1.319
11586W        W76846   2.869  30.194   3.531
11587W        W76847   8.217  41.359  10.417
11588W        W76848   1.941  27.985  14.038
11589W        W76849  11.425  32.593   3.121
11590W        W76850  19.241  35.238  10.525
11591W        W76851  42.006   6.311  14.267
11592W        W76852  26.035   5.267  14.589
11593W        W76853  44.866  24.267  12.400
11594W        W76854   6.187  40.552   1.360
11595W        W76855  12.608  20.272  13.807
11596W        W76856  19.112  17.946  13.476
11597W        W76857  28.871  26.747   3.687
11598W        W76858  29.204   3.898  10.545
11599W        W76859  28.405  11.083  13.372
11600W        W76860  29.614  31.172  12.493
11601W        W76861  26.423  19.556   1.311
11602W        W76862  11.774  33.461  11.019
11603W        W76863   7.935  16.311  10.657
11604W        W76864  38.798  20.744   2.472
11605W        W76865  22.617  22.162   4.824
11606W        W76866  43.008  31.465  10.716
11607W        W76867  24.247  28.858  13.215
11608W        W76868  13.895   9.565   3.635
11609W        W76869  44.300   3.377  12.838
11610W        W76870   1.762  39.597  14.333
11611W        W76871  35.888  30.917  13.981
11612W        W76872  37.306  11.644  11.556
11613W        W76873   6.647  38.898  14.398
11614W        W76874   0.392  34.860   2.260
11615W        W76875   8.930  20.150   0.232
11616W        W76876  18.071  11.027   0.393
11617W        W76877   4.340  13.757   0.924
11618W        W76878   9.717   6.425   5.103
11619W        W76879  16.881  11.909   0.650
11620W        W76880  39.017  34.014   3.483
11621W        W76881  29.146  10.078  11.449
11622W        W76882  18.465  20.002   2.360
11623W        W76883  20.311   3.260   3.834
11624W        W76884  20.001  10.674   0.782
11625W        W76885  25.972  33.503  11.175
11626W        W76886   9.892  14.552  13.497
11627W        W76887  40.561  13.568   0.420
11628W        W76888  10.729  18.603  13.620
11629W        W76889  43.202  12.329  13.114
11630W        W76890  41.334  11.749  11.287
11631W        W76891  16.229  11.043   3.855
11632W        W76892  30.196  20.318  12.326
11633W        W76893  37.362  37.381   4.705
11634W        W76894  19.668   9.894   2.692
11635W        W76895  34.799  21.689  13.063
11636W        W76896   0.467   5.189  13.822
11637W        W76897  12.105  21.096   0.479
11638W        W76898  21.467  35.048  14.313
11639W        W76899  37.963  10.926  11.957
11640W        W76900  38.947  24.539   4.693
11641W        W76901  33.048   2.810  13.269
11642W        W76902  35.188  14.100   1.913
11643W        W76903  33.375  28.529   1.804
11644W        W76904  12.714  13.295   0.126
11645W        W76905   1.002  25.589  14.809
11646W        W76906  22.410  25.334   3.269
11647W        W76907  14.631  35.018  13.869
11648W        W76908  29.291  39.088  11.328
11649W        W76909  34.099  42.400  14.349
11650W        W76910  20.741  37.361  14.785
11651W        W76911  13.025  35.397  13.484
11652W        W76912  31.997  16.657   0.040
11653W        W76913   2.474  20.660   0.203
11654W        W76914  11.820  26.756  14.432
11655W        W76915   0.714  43.162  11.001
11656W        W76916  16.200   3.371   3.473
11657W        W76917  31.611  36.783  13.413
11658W        W76918  12.796  30.080   4.563
11659W        W76919  28.400  20.118   2.735
11660W        W76920  17.543  12.570  13.399
11661W        W76921  39.761  30.992  13.040
11662W        W76922   6.192  18.030  10.570
11663W        W76923  19.215  14.158  11.133
11664W        W76924  12.407  34.501   4.752
11665W        W76925  31.418  41.563   2.708
11666W        W76926   9.374  43.248  10.529
11667W        W76927  25.178   4.148   1.187
11668W        W76928  17.648  13.265  12.990
11669W        W76929  24.587   1.311   0.041
11670W        W76930  26.713  11.127   0.866
11671W        W76931   7.873  13.158  11.254
11672W        W76932  21.439  41.914  14.410
11673W        W76933  42.843  33.490   0.213
11674W        W76934  41.154  18.184   3.266
11675W        W76935  22.054  12.897  14.988
11676W        W76936  27.696  24.486  12.595
11677W        W76937  27.091  37.519  10.531
11678W        W76938   6.144  37.514   4.255
11679W        W76939  36.093  27.223  11.138
11680W        W76940   0.327  30.221   0.410
11681W        W76941  40.384  37.915   4.554
11682W        W76942  16.743  43.017  13.529
11683W        W76943  12.325  33.000  14.801
11684W        W76944   4.198   1.246  11.098
11685W        W76945  44.615  41.272   3.730
11686W        W76946  34.664  32.407  10.463
11687W        W76947  24.491  29.005   3.540
11688W        W76948   6.959  18.730   3.417
11689W        W76949  15.520  14.753   4.000
11690W        W76950  15.867  30.902  13.143
11691W        W76951  16.475  36.662   3.382
11692W        W76952   2.865  10.640  12.064
11693W        W76953  18.329   1.006   2.744
11694W        W76954   6.330  39.035  14.780
11695W        W76955  11.592   4.904  13.503
11696W        W76956  21.742  33.879   1.855
11697W        W76957  44.926  37.578  13.464
11698W        W76958  29.890  38.547  13.477
11699W        W76959  33.562  28.864  14.893
11700W        W76960  17.213  16.663   1.998
11701W        W76961  17.644  26.460   3.348
11702W        W76962  31.039   0.724  12.428
11703W        W76963  27.867  31.130  12.365
11704W        W76964  14.351  43.967  11.680
11705W        W76965  34.932   5.345  10.656
11706W        W76966  14.124  27.994   3.565
11707W        W76967  26.277  15.302   3.278
11708W        W76968   0.942  38.316   1.834
11709W        W76969  39.119   7.793   1.881
11710W        W76970  32.909  29.401  10.297
11711W        W76971  37.948  16.281   3.370
11712W        W76972  17.944  38.846  13.408
11713W        W76973  17.248  18.536   3.241
11714W        W76974  37.469  20.856  13.002
11715W        W76975   0.429   1.021   2.873
11716W        W76976  32.123   2.960   1.413
11717W        W76977  35.791  23.174  12.150
11718W        W76978   7.599  15.098  14.709
11719W        W76979  15.270  31.848   2.703
11720W        W76980   8.653  15.124  11.212
11721W        W76981   9.233  20.743  13.003
11722W        W76982  12.670  24.515  11.173
11723W        W76983   5.933   2.225  10.863
11724W        W76984  15.814  14.317   2.167
11725W        W76985   3.836  34.381  12.913
11726W        W76986  14.258  31.614   2.376
11727W        W76987  33.358   5.272   1.924
11728W        W76988  20.891  26.673   3.927
11729W        W76989  32.547  23.284  10.568
11730W        W76990  22.810  12.708  13.066
11731W        W76991   5.843  25.159  11.622
11732W        W76992  41.170  39.337   2.696
11733W        W76993  35.432   3.378  12.266
11734W        W76994  37.890  16.027   1.495
11735W        W76995  39.111  31.629   4.043
11736W        W76996   3.191   2.704  11.133
11737W        W76997  41.803  36.898  14.008
11738W        W76998  34.995  30.418   0.289
11739W        W76999  10.054  18.551  14.270
11740W        W77000   4.943  42.343  13.473
11741W        W77001   5.160   6.495   2.307
11742W        W77002  15.455  29.311  11.545
11743W        W77003   6.129  22.776  13.104
11744W        W77004  38.948   8.203  12.252
11745W        W77005  36.525  18.859  13.103
11746W        W77006  36.740  15.596   2.838
11747W        W77007   7.289  20.049  14.869
11748W        W77008  21.627  10.384  10.385
11749W        W77009   3.651   8.881   3.532
11750W        W77010  36.750  20.847  14.011
11751W        W77011   9.044  30.737   2.139
11752W        W77012  32.409  16.884  13.801
11753W        W77013   4.643  39.745  12.403
11754W        W77014  15.121  37.236  10.312
11755W        W77015   8.158   7.500  13.145
11756W        W77016  29.621   0.783   1.852
11757W        W77017  17.833   9.901  11.102
11758W        W77018   1.251   0.311  10.744
11759W        W77019  41.767  18.658   2.654
11760W        W77020  33.966  39.835  12.616
11761W        W77021   5.377  37.816  12.425
11762W        W77022  13.760   1.482   0.636
11763W        W77023  21.963  25.691   4.706
11764W        W77024  19.978  17.990   0.763
11765W        W77025   3.169  43.789   3.889
11766W        W77026   7.228  30.564  12.449
11767W        W77027  12.647  17.687  14.548
11768W        W77028  36.738  30.990  12.926
11769W        W77029   1.472  27.730   5.101
11770W        W77030  26.470  15.081   1.955
11771W        W77031  36.480  26.319   0.918
11772W        W77032  18.664  35.856   2.288
11773W        W77033  43.160  43.786   2.298
11774W        W77034   5.445  24.493   1.706
11775W        W77035  32.165  22.495   0.229
11776W        W77036  40.041   7.387   3.163
11777W        W77037  22.787  26.495  13.422
11778W        W77038  13.818   7.393   0.974
11779W        W77039  11.168  30.711  10.755
11780W        W77040   2.898   6.410  12.299
11781W        W77041  32.086  12.851  14.390
11782W        W77042  44.857   4.366  13.866
11783W        W77043  23.622  32.470   1.961
11784W        W77044   8.642  13.723  11.658
11785W        W77045  23.067  19.681  13.294
11786W        W77046  23.950  32.970  10.797
11787W        W77047  34.187  20.278  14.737
11788W        W77048   5.439  38.942  11.686
11789W        W77049  37.165  36.386  13.962
11790W        W77050  19.730  34.764   1.459
11791W        W77051  11.721  33.919  12.313
11792W        W77052  24.664  33.112   0.277
11793W        W77053  36.999  14.184  12.352
11794W        W77054  38.887  34.424  11.355
11795W        W77055  40.398  21.499  12.121
11796W        W77056  16.037  39.440   0.860
11797W        W77057   4.858  20.783   3.165
11798W        W77058  44.987  40.505   1.735
11799W        W77059  33.452   9.528   1.246
11800W        W77060  36.892   8.744  14.920
11801W        W77061  32.160  15.489  14.885
11802W        W77062  28.168  13.246  12.779
11803W        W77063  11.858  41.354  12.409
11804W        W77064  44.357  23.822  11.157
11805W        W77065   3.782  10.616   3.847
11806W        W77066  32.081  40.446  10.483
11807W        W77067  32.309  24.181  14.912
11808W        W77068  26.974  39.503   3.268
11809W        W77069  16.469  13.595  11.106
11810W        W77070  24.398  20.721   1.619
11811W        W77071  22.519   6.851   4.502
11812W        W77072  42.419  13.540   4.538
11813W        W77073  23.596  21.222   4.237
11814W        W77074  18.541   5.013   2.594
11815W        W77075  33.102  17.373  14.692
11816W        W77076   4.027  21.675  14.571
11817W        W77077   8.776  41.386   4.177
11818W        W77078  14.921  19.802   3.092
11819W        W77079   1.370  14.748  13.335
11820W        W77080  18.866  18.725  12.706
11821W        W77081  38.439  33.524  12.093
11822W        W77082  38.330  42.380   3.776
11823W        W77083  24.978   3.902   4.783
11824W        W77084  27.397  20.775  13.119
11825W        W77085  22.202  14.161  14.197
11826W        W77086  43.188  24.666  10.617
11827W        W77087  11.367   5.247   3.724
11828W        W77088  42.027  31.907  13.430
11829W        W77089  29.505  32.093   4.642
11830W        W77090   4.296  19.447   2.841
11831W        W77091  43.730  42.998  14.517
11832W        W77092  31.000   9.953  13.781
11833W        W77093  32.983  19.498   2.336
11834W        W77094  39.237  31.925  14.181
11835W        W77095  10.466  18.290   1.264
11836W        W77096  24.620  42.270   4.441
11837W        W77097   9.186  16.744  11.108
11838W        W77098  23.158  23.094  10.605
11839W        W77099  22.071  13.814   2.438
11840W        W77100  14.217   4.481  14.963
11841W        W77101  34.813  27.181  10.588
11842W        W77102   2.660  33.789   2.785
11843W        W77103   9.055  22.738   1.743
11844W        W77104  18.628  28.996   1.733
11845W        W77105  30.154  24.205  11.096
11846W        W77106  20.618  24.277  11.077
11847W        W77107   2.863  38.795   0.365
11848W        W77108  37.917  38.927  13.539
11849W        W77109   4.161   2.517  12.555
11850W        W77110  35.907  26.908   9.893
11851W        W77111  10.269   1.275  11.608
11852W        W77112  14.734   1.801  14.451
11853W        W77113   5.248  23.110   3.984
11854W        W77114  27.486   2.496  10.680
11855W        W77115  14.814  23.155   4.669
11856W        W77116   6.294   4.948   2.929
11857W        W77117   4.900  37.958   0.989
11858W        W77118  40.970  24.266  14.509
11859W        W77119  42.184  29.065  11.999
11860W        W77120  21.093  29.996   1.910
11861W        W77121  22.286   6.813  13.313
11862W        W77122  10.829  40.770   3.880
11863W        W77123  40.706  27.684  13.239
11864W        W77124  37.359  11.022   0.011
11865W        W77125  21.436  11.170   1.813
11866W        W77126  36.142  21.613   2.936
11867W        W77127  31.439  37.330  12.542
11868W        W77128  18.004   3.178   0.295
11869W        W77129  16.209  40.537  11.687
11870W        W77130  28.711  20.084  11.137
11871W        W77131  42.487  42.510  14.827
11872W        W77132  24.918  23.347  12.406
11873W        W77133  41.910  14.404  14.719
11874W        W77134  44.030  38.967   3.145
11875W        W77135  28.228  21.484  11.894
11876W        W77136  40.019  41.308   2.263
11877W        W77137  26.600  19.293   2.976
11878W        W77138  44.950  44.248  14.905
11879W        W77139   8.786   0.720  10.948
11880W        W77140  37.396  44.863   3.595
11881W        W77141  37.748  44.181   1.306
11882W        W77142  20.696  34.072  13.072
11883W        W77143  13.188   4.962   2.278
11884W        W77144  28.492   7.165   0.702
11885W        W77145   7.381  36.596   4.705
11886W        W77146  21.217   2.350  13.346
11887W        W77147  19.729  24.041   1.460
11888W        W77148  40.863  33.617  12.551
11889W        W77149   5.625  40.621  11.119
11890W        W77150  24.180  40.240   0.949
11891W        W77151  32.962  44.579   3.657
11892W        W77152  35.398  29.661   4.709
11893W        W77153  31.441   2.886  13.880
11894W        W77154   8.598   2.504   2.837
11895W        W77155   4.341   0.247   4.632
11896W        W77156  25.102  13.107   1.284
11897W        W77157  13.180  19.489   4.480
11898W        W77158  22.492  34.567   2.565
11899W        W77159   2.362  16.679   4.299
11900W        W77160   3.707  44.999   3.024
11901W        W77161  27.520  32.435  12.068
11902W        W77162  42.275  44.338  13.562
11903W        W77163  26.416  21.715   2.145
11904W        W77164   9.298  35.105  10.535
11905W        W77165   2.817  30.281  14.485
11906W        W77166  43.849  17.634  14.402
11907W        W77167  40.342   5.451  13.215
11908W        W77168   6.932  39.348   4.270
11909W        W77169  43.712  37.316  13.853
11910W        W77170  44.533  14.582  13.509
11911W        W77171  30.197  32.066  13.334
11912W        W77172  23.101  10.262   4.360
11913W        W77173  21.801   5.101  14.048
11914W        W77174  10.224  43.083   3.757
11915W        W77175  21.980  15.586   4.310
11916W        W77176  38.915  25.888  13.029
11917W        W77177  44.079  13.766  14.838
11918W        W77178  20.548  40.891  12.117
11919W        W77179  18.136   6.187   4.465
11920W        W77180  42.807  13.505   3.336
11921W        W77181  28.183  10.479   1.936
11922W        W77182  24.174   9.082  14.246
11923W        W77183   1.088  22.674  14.943
11924W        W77184   5.657  18.701   0.953
11925W        W77185  13.709  16.843   4.037
11926W        W77186   5.345  28.223   3.166
11927W        W77187  22.849   3.865  11.487
11928W        W77188  41.143  21.143  13.102
11929W        W77189   9.175  14.199   1.828
11930W        W77190  13.417  15.679  11.630
11931W        W77191   8.394  42.303   1.164
11932W        W77192  12.664   0.072   1.165
11933W        W77193  12.232  27.630  12.758
11934W        W77194  30.084  14.143  14.735
11935W        W77195  21.601  34.664  13.987
11936W        W77196  10.721  42.241   2.778
11937W        W77197  32.383  34.372   1.895
11938W        W77198  34.373   7.806  14.064
11939W        W77199  21.003  10.209   1.936
11940W        W77200  44.170   7.403  12.587
11941W        W77201  43.848  15.630  10.685
11942W        W77202  37.372  10.213  13.550
11943W        W77203  37.512  24.558  14.521
11944W        W77204   7.878   0.672   3.164
11945W        W77205  14.600  43.749   2.086
11946W        W77206  39.514   1.877   4.413
11947W        W77207  40.912  16.054   2.619
11948W        W77208   0.091  12.609  14.790
11949W        W77209  39.393   2.494   1.317
11950W        W77210  21.215  41.232  12.900
11951W        W77211  10.300   2.513   3.282
11952W        W77212  44.195  22.914  12.127
11953W        W77213  26.583  41.211  14.744
11954W        W77214  37.753  14.817  12.644
11955W        W77215   4.740  18.067  13.108
11956W        W77216  24.925  23.416   2.264
11957W        W77217  12.223  38.777   4.232
11958W        W77218  20.165  24.875   1.760
11959W        W77219   2.350  22.098  11.191
11960W        W77220  28.417  18.155   0.288
11961W        W77221   4.231   6.956  14.897
11962W        W77222  14.322  18.485   0.896
11963W        W77223  13.132  20.747   3.279
11964W        W77224   9.652  31.174  13.403
11965W        W77225   3.704   6.091  13.037
11966W        W77226  24.640   0.039  14.619
11967W        W77227  13.660  44.934  10.973
11968W        W77228  39.479  30.166  10.634
11969W        W77229  20.724  37.948  13.445
11970W        W77230   1.641  17.741   2.283
11971W        W77231  27.954  42.539  11.066
11972W        W77232  30.973   7.663  14.408
11973W        W77233   3.138   8.584  12.983
11974W        W77234  43.412  38.987  14.432
11975W        W77235   0.245   0.529  10.809
11976W        W77236  38.849  42.405  10.682
11977W        W77237  27.977  30.192  14.167
11978W        W77238   7.660  22.792   2.666
11979W        W77239   3.433  19.235  13.449
11980W        W77240   0.275  21.859  13.849
11981W        W77241  43.708   4.878   4.408
11982W        W77242  26.926  28.589  13.828
11983W        W77243  21.729  37.000   3.592
11984W        W77244   7.470  36.160   4.942
11985W        W77245  34.293  25.604  11.642
11986W        W77246  25.010  12.180   2.304
11987W        W77247  41.846  12.784   1.812
11988W        W77248  25.651  32.602   0.224
11989W        W77249  16.213  10.796   0.493
11990W        W77250  11.791  30.539  11.495
11991W        W77251   0.820  39.951   3.610
11992W        W77252   4.454  26.654  10.652
11993W        W77253  13.358  36.577   4.313
11994W        W77254  34.959  18.406  12.803
11995W        W77255  24.139  38.029  14.544
11996W        W77256  42.414  24.161   1.469
11997W        W77257  16.008   6.537  13.796
11998W        W77258   6.764  28.015   4.086
11999W        W77259  24.096  14.896   4.522
12000W        W77260   2.756  20.232   0.896
12001W        W77261  35.625  11.573   2.179
12002W        W77262  41.478   2.840   1.196
12003W        W77263  22.468  19.156  12.594
12004W        W77264  29.461   2.129  14.601
12005W        W77265  12.910  40.031   1.500
12006W        W77266  22.051   6.245   1.197
12007W        W77267  39.868  39.322   2.379
12008W        W77268  15.536  38.298  11.531
12009W        W77269  12.807  42.515  11.079
12010W        W77270  13.049  28.702   3.209
12011W        W77271  35.395  20.144   4.804
12012W        W77272  22.235   3.672  14.799
12013W        W77273  42.269  38.291  11.868
12014W        W77274  44.220  31.121   4.496
12015W        W77275  43.062  41.760   0.016
12016W        W77276  13.250  13.757   1.939
12017W        W77277  34.596  31.497   3.430
12018W        W77278  32.584  33.416  12.467
12019W        W77279  33.084  14.731  14.483
12020W        W77280   6.317  30.078   0.484
12021W        W77281  44.519  15.837   1.240
12022W        W77282   2.214  12.246   1.193
12023W        W77283  16.077  15.251  14.656
12024W        W77284  31.102  12.211   3.731
12025W        W77285  35.928  37.484  14.923
12026W        W77286   4.606  39.876   1.792
12027W        W77287  40.673   3.188   2.732
12028W        W77288   0.930  12.634   0.989
12029W        W77289  25.333  28.207  11.302
12030W        W77290  21.564  40.384   1.296
12031W        W77291  44.050   6.266   0.511
12032W        W77292  17.283  22.836   1.800
12033W        W77293  34.329  32.936   3.648
12034W        W77294  42.945  25.156   4.898
12035W        W77295  38.536  10.072  13.414
12036W        W77296  14.231  13.195   3.087
12037W        W77297  29.803  13.846  11.955
12038W        W77298   6.742  29.143   0.977
12039W        W77299  27.870  31.633   3.026
12040W        W77300  40.468   0.895   3.151
12041W        W77301   8.861  39.506  13.801
12042W        W77302  34.451  35.719  12.505
12043W        W77303  28.399  34.061   2.935
12044W        W77304  39.276  42.243  13.953
12045W        W77305  42.311  42.223  11.003
12046W        W77306  19.946   2.475   0.300
12047W        W77307  12.631  34.250  12.246
12048W        W77308   4.826  14.536  12.494
12049W        W77309  26.019   0.221  14.340
12050W        W77310   1.484  31.097   4.674
12051W        W77311  30.661  17.488   3.649
12052W        W77312  17.210  26.807   2.809
12053W        W77313   4.514  34.277   1.477
12054W        W77314  34.931  42.063   1.888
12055W        W77315  14.664   8.701  10.841
12056W        W77316   4.931  11.588   1.903
12057W        W77317  17.236  31.162   4.576
12058W        W77318  37.042  37.369   1.692
12059W        W77319   4.829  25.752   4.224
12060W        W77320  36.027   0.330  13.877
12061W        W77321  14.063  16.236  12.911
12062W        W77322  38.002  34.065  13.579
12063W        W77323   7.882  37.808  11.291
12064W        W77324  25.345  33.436   3.732
12065W        W77325   6.742  40.521  14.717
12066W        W77326  24.121  12.569  10.708
12067W        W77327  17.738  12.237  13.740
12068W        W77328  36.863  34.214   2.733
12069W        W77329  27.626  29.007  11.417
12070W        W77330   2.650  22.938   2.867
12071W        W77331  35.231  43.985   1.559
12072W        W77332  39.180  24.466  10.788
12073W        W77333  13.787  19.550   0.965
12074W        W77334  18.836  18.236  11.521
12075W        W77335  12.562  44.265  12.965
12076W        W77336  27.031  30.114  11.235
12077W        W77337  43.806  10.256  14.392
12078W        W77338  18.834  11.342   4.538
12079W        W77339  27.080  12.074   2.304
12080W        W77340  19.546  19.092   9.960
12081W        W77341  10.343  38.526  10.225
12082W        W77342  39.274  30.254   1.326
12083W        W77343   4.011  19.733   1.937
12084W        W77344  16.546  17.986  11.946
12085W        W77345  44.439  38.147  10.991
12086W        W77346  29.014  13.408   4.518
12087W        W77347  36.956  42.813   3.062
12088W        W77348  12.309  33.227  14.327
12089W        W77349  10.337  30.038   3.188
12090W        W77350  32.199  37.431  13.310
12091W        W77351   0.663   2.737  11.563
12092W        W77352  29.967  18.132  11.923
12093W        W77353  39.947  23.631   4.160
12094W        W77354  16.717  19.553   1.797
12095W        W77355  15.371  19.711   1.513
12096W        W77356  27.411  28.185   1.332
12097W        W77357  32.487  33.352  14.005
12098W        W77358  34.810  29.642  11.573
12099W        W77359  25.947  18.280   2.139
12100W        W77360   6.063  40.903   4.896
12101W        W77361  28.489   4.303  11.657
12102W        W77362  33.683  24.205  12.110
12103W        W77363  36.004  13.068   5.147
12104W        W77364  12.627  28.039   9.842
12105W        W77365  29.575  21.075  11.452
12106W        W77366   9.379   6.382  14.491
12107W        W77367  32.159  26.666  13.288
12108W        W77368  43.367  42.013   0.343
12109W        W77369  29.047  32.108  14.467
12110W        W77370  36.922  14.868   3.292
12111W        W77371  25.503  14.974   5.467
12112W        W77372   2.969  14.657   0.650
12113W        W77373  43.539  13.842  14.876
12114W        W77374  23.133  33.050  13.609
12115W        W77375  32.118  44.270   1.946
12116W        W77376  24.637   1.875   1.708
12117W        W77377   7.617   4.544  10.762
12118W        W77378   0.232  20.979   0.709
12119W        W77379  19.500  29.723  11.782
12120W        W77380  18.721   5.838  12.710
12121W        W77381   3.663   2.443  13.491
12122W        W77382  24.560  36.917  12.584
12123W        W77383  12.600  44.420   2.209
12124W        W77384  17.202  41.686   1.359
12125W        W77385  35.067  14.567  12.933
12126W        W77386  36.323  17.102  12.895
12127W        W77387  38.445   7.750  10.930
12128W        W77388  40.365   1.028  14.406
12129W        W77389   5.753   7.131  13.559
12130W        W77390   3.971  30.547   0.911
12131W        W77391   7.980  24.067   3.218
12132W        W77392  16.459  36.972   1.414
12133W        W77393  40.473   4.950   1.332
12134W        W77394  25.627  44.327   4.423
12135W        W77395   9.431  40.624  14.438
12136W        W77396   5.916  42.228   4.132
12137W        W77397  10.335  19.855   0.790
12138W        W77398  44.288  14.334  11.037
12139W        W77399  29.938  36.409  12.981
12140W        W77400   4.789  39.310  12.622
12141W        W77401  33.808  30.888  12.497
12142W        W77402  17.796  32.637   0.381
12143W        W77403  38.083  26.431  13.644
12144W        W77404  38.972  14.813  13.353
12145W        W77405  16.255  36.868  13.323
12146W        W77406  27.984   0.434  10.397
12147W        W77407  31.455  35.738   3.193
12148W        W77408  31.413  44.845  11.112
12149W        W77409  38.646  31.877   4.033
12150W        W77410  37.373  35.924  14.078
12151W        W77411   8.385  21.784   3.582
12152W        W77412   6.307  16.799  12.510
12153W        W77413  29.666  17.224  10.606
12154W        W77414  26.917   7.215  11.734
12155W        W77415  25.672   9.935   0.959
12156W        W77416   3.371  43.386   4.613
12157W        W77417   1.708  17.907  13.960
12158W        W77418  32.469   6.004   9.842
12159W        W77419  18.779  15.832  12.261
12160W        W77420  41.588   5.892   4.372
12161W        W77421  11.855  40.721  13.710
12162W        W77422   4.956  14.359  10.805
12163W        W77423  20.140  34.573   1.707
12164W        W77424  43.837   1.724  10.914
12165W        W77425   1.132   9.215   3.111
12166W        W77426   2.911  39.437  10.697
12167W        W77427  36.860  43.916   2.272
12168W        W77428  32.105  12.196   4.759
12169W        W77429  32.847  32.567   1.156
12170W        W77430  16.808  34.141   3.130
12171W        W77431  31.944  33.115   4.601
12172W        W77432   0.234   9.347   4.193
12173W        W77433  14.997  25.385  13.232
12174W        W77434   3.223   0.738   1.149
12175W        W77435  15.726   5.111  10.603
12176W        W77436  21.692   0.301  13.310
12177W        W77437  28.872  33.326  13.904
12178W        W77438  36.977  42.358  12.585
12179W        W77439  11.643  34.188  11.011
12180W        W77440   2.933  26.633   0.339
12181W        W77441   0.575  11.377  12.649
12182W        W77442  20.668  19.148   0.557
12183W        W77443  33.661  35.630   2.182
12184W        W77444  16.998  25.752  14.819
12185W        W77445   9.837  10.299   1.738
12186W        W77446  37.889  40.713  11.512
12187W        W77447  37.900  31.373   4.857
12188W        W77448  14.076  21.149  14.420
12189W        W77449   7.958  41.670  11.410
12190W        W77450  29.371   3.376  14.660
12191W        W77451  35.872  35.143   2.233
12192W        W77452  10.288  15.528   2.754
12193W        W77453   9.443  20.162   0.277
12194W        W77454  17.166  20.782  11.758
12195W        W77455  21.760  37.459   0.226
12196W        W77456   9.607  20.496  11.942
12197W        W77457   2.577  10.132  10.910
12198W        W77458  21.429   2.316   4.128
12199W        W77459   0.131  26.570   0.418
12200W        W77460  21.410  13.757   0.842
12201W        W77461  40.094  41.345   0.216
12202W        W77462   2.906  33.816  11.449
12203W        W77463  21.792  15.755  12.007
12204W        W77464  13.696  31.364  12.200
12205W        W77465  18.014  15.335  11.612
12206W        W77466  10.817   2.542  11.472
12207W        W77467  25.901   1.417  14.428
12208W        W77468  28.720   3.444  11.181
12209W        W77469   1.903   3.728  14.351
12210W        W77470  31.650  43.024  10.770
12211W        W77471  27.231   3.084  13.877
12212W        W77472  15.243  12.188  10.647
12213W        W77473  36.404  12.842   1.630
12214W        W77474  17.358  14.626  10.679
12215W        W77475  27.880   2.935  14.378
12216W        W77476   3.232  42.720   0.794
12217W        W77477   6.178  41.268  11.161
12218W        W77478  41.840   1.507  13.807
12219W        W77479  31.371  22.456  11.064
12220W        W77480   2.749  12.052   4.421
12221W        W77481   3.671  38.869  13.737
12222W        W77482   6.845  19.231   4.145
12223W        W77483   9.211  19.866   3.976
12224W        W77484  32.271  42.694  13.467
12225W        W77485  26.362  24.650   5.091
12226W        W77486  40.185  43.267  11.983
12227W        W77487   2.967   7.328  14.147
12228W        W77488   7.607  35.494   2.917
12229W        W77489  31.000  25.272   0.080
12230W        W77490  15.054  35.642   0.765
12231W        W77491  40.705  11.400   2.677
12232W        W77492  36.956  37.274   0.176
12233W        W77493  40.358  15.324  10.839
12234W        W77494   5.981   4.887   3.340
12235W        W77495  29.623   5.707  11.930
12236W        W77496  44.037  44.356   3.769
12237W        W77497  19.625  21.278   1.725
12238W        W77498   1.519  24.654   1.583
12239W        W77499  16.571  11.171  11.125
12240W        W77500  23.554  21.453   2.214
12241W        W77501  23.050  18.309   2.657
12242W        W77502   0.700  12.358   1.408
12243W        W77503  28.271  44.320   4.959
12244W        W77504   4.426   1.030  14.511
12245W        W77505  39.284  13.676  14.916
12246W        W77506  24.689  34.852   4.332
12247W        W77507  36.059  26.007   3.221
12248W        W77508   3.190   3.253   3.256
12249W        W77509   6.301   1.272   1.777
12250W        W77510  14.755  29.658  12.861
12251W        W77511  11.757   8.191  12.506
12252W        W77512  19.223  10.275  12.240
12253W        W77513  22.466  40.708  11.071
12254W        W77514  20.760  34.923   3.337
12255W        W77515  31.354  27.460   2.208
12256W        W77516   3.825  18.528  11.569
12257W        W77517  16.826  41.996   3.394
12258W        W77518  20.525   2.430  14.509
12259W        W77519  24.582  36.665  13.069
12260W        W77520  35.957  31.551  14.789
12261W        W77521  24.021  15.218   1.284
12262W        W77522  28.474  14.660  12.997
12263W        W77523   6.635  38.902   4.400
12264W        W77524  13.616  20.116   3.239
12265W        W77525  36.377  11.902  14.515
12266W        W77526  12.144  40.122   4.509
12267W        W77527   5.689  36.754   2.837
12268W        W77528  44.050  31.911   2.746
12269W        W77529  26.682   2.995   2.715
12270W        W77530  22.537   0.476   2.843
12271W        W77531  35.480  20.804  14.085
12272W        W77532   6.156  23.665  11.293
12273W        W77533  37.278  12.102  12.587
12274W        W77534   9.820  13.121  11.493
12275W        W77535  13.221  29.708   4.206
12276W        W77536  21.440   8.627  12.015
12277W        W77537  18.521   4.651   0.327
12278W        W77538  23.661   8.178  12.650
12279W        W77539  27.460   7.369  11.005
12280W        W77540  17.593  22.444   1.895
12281W        W77541  10.561  16.028  14.913
12282W        W77542  34.088  29.556  13.444
12283W        W77543  40.060  10.003  12.681
12284W        W77544  39.028   0.495   3.596
12285W        W77545  18.273  19.371  13.337
12286W        W77546   3.533  27.252  14.486
12287W        W77547  26.260  13.215  13.360
12288W        W77548  37.111  14.505   2.279
12289W        W77549  17.133  10.277   3.068
12290W        W77550  38.431  36.972   4.317
12291W        W77551  12.573  31.983  11.209
12292W        W77552  14.765   6.371   3.713
12293W        W77553  15.505  29.670  12.904
12294W        W77554  10.941  27.101   2.689
12295W        W77555   8.378  42.003   4.217
12296W        W77556   1.531  38.039  14.453
12297W        W77557   7.102  36.600   2.833
12298W        W77558   0.275   1.308   4.597
12299W        W77559  18.711  41.956   1.008
12300W        W77560  22.945  18.332   5.329
12301W        W77561   6.798  22.189   4.620
12302W        W77562   7.547  28.872   1.340
12303W        W77563  43.866  36.946  10.636
12304W        W77564  26.118   0.900   4.854
12305W        W77565  18.734  42.879  10.245
12306W        W77566  36.541   3.770   0.963
12307W        W77567  12.138  42.579  11.616
12308W        W77568  33.670  43.130   0.344
12309W        W77569   3.733  34.591   1.925
12310W        W77570   1.983  24.495  12.772
12311W        W77571  43.927  24.470  12.464
12312W        W77572  39.094  14.179  13.776
12313W        W77573   9.391  21.629   3.630
12314W        W77574  12.893  18.050   4.585
12315W        W77575  35.403   2.876  14.477
12316W        W77576   5.611  38.267   2.648
12317W        W77577  17.293   3.419  12.917
12318W        W77578   7.934  38.484  14.078
12319W        W77579  18.269  24.478  13.444
12320W        W77580  11.627  38.896  10.195
12321W        W77581   1.906   5.441   2.341
12322W        W77582  20.822  22.329   3.603
12323W        W77583  18.039   4.498  11.037
12324W        W77584   2.958  29.525   1.451
12325W        W77585  39.450   6.632  13.009
12326W        W77586   5.166  25.270   3.107
12327W        W77587  31.066  32.159  11.209
12328W        W77588  25.507  24.027   3.342
12329W        W77589  30.515  28.929  11.896
12330W        W77590   0.864  15.341  10.276
12331W        W77591  31.623   6.317   3.618
12332W        W77592  15.157  34.899   1.675
12333W        W77593  29.448  31.797   0.879
12334W        W77594  13.868   8.619  11.119
12335W        W77595   5.973  18.575  14.275
12336W        W77596  12.725  28.174   3.169
12337W        W77597   5.385   0.212  14.488
12338W        W77598  21.146  23.223  10.673
12339W        W77599  43.236  43.806   4.590
12340W        W77600   9.736  37.965  12.853
12341W        W77601  17.201   1.597  14.308
12342W        W77602  27.071  39.057   1.692
12343W        W77603  16.141   2.873   1.132
12344W        W77604  20.126   8.703  12.185
12345W        W77605   4.238  24.500   4.225
12346W        W77606   5.221  31.118  13.054
12347W        W77607  38.486  12.538  13.391
12348W        W77608  12.115  15.780   4.348
12349W        W77609  28.177  14.021  14.712
12350W        W77610  17.896   4.398   1.433
12351W        W77611  15.521  27.052   0.871
12352W        W77612  38.833  38.416  14.129
12353W        W77613  20.829   5.409   4.955
12354W        W77614  17.203  22.241   4.713
12355W        W77615  36.023  15.426   3.534
12356W        W77616  25.383  40.511  12.321
12357W        W77617  39.826  44.899   0.880
12358W        W77618  34.961  16.815   0.793
12359W        W77619  34.822  11.894  11.035
12360W        W77620  37.641  43.582  10.187
12361W        W77621  19.213  19.028   2.800
12362W        W77622  21.241  24.781  10.714
12363W        W77623   3.248   4.188  14.105
12364W        W77624   4.228   1.741   3.294
12365W        W77625  32.993  21.948   4.413
12366W        W77626  17.605  17.698   2.324
12367W        W77627  11.698  21.281  10.693
12368W        W77628  14.594  26.201   0.215
12369W        W77629  33.878  15.668   1.796
12370W        W77630  21.116  42.431  14.758
12371W        W77631  27.400  13.787  11.604
12372W        W77632  23.090   6.453  10.304
12373W        W77633  23.411  17.706   5.062
12374W        W77634  14.427  28.473  12.334
12375W        W77635  18.266  28.809  11.167
12376W        W77636  14.719   3.170  12.578
12377W        W77637   6.271  37.028   0.450
12378W        W77638  26.815  42.451  11.527
12379W        W77639  25.309  36.964   4.033
12380W        W77640  39.605   2.004   4.920
12381W        W77641  43.320   4.743  14.439
12382W        W77642  41.076  27.462  11.497
12383W        W77643  41.156  44.762  14.434
12384W        W77644  33.073  20.783  12.391
12385W        W77645  44.512  32.224   0.868
12386W        W77646   4.340   8.534   0.068
12387W        W77647  22.064  33.101   2.018
12388W        W77648   6.840  21.666   4.565
12389W        W77649  17.323  18.744   5.654
12390W        W77650   6.772  26.372   2.296
12391W        W77651  26.001   9.695  10.394
12392W        W77652  26.268  19.452   1.789
12393W        W77653  29.898  12.619   3.740
12394W        W77654  11.601   8.804  14.745
12395W        W77655  11.388  23.982  12.140
12396W        W77656  42.391   7.608  12.025
12397W        W77657  23.533  10.310  13.354
12398W        W77658  17.596  17.117   0.826
12399W        W77659  12.575  10.732   1.258
12400W        W77660  13.334  31.298  13.807
12401W        W77661   4.743   6.754   9.906
12402W        W77662  24.217  18.374   1.255
12403W        W77663  22.106  26.631   1.874
12404W        W77664  32.320  38.927   2.947
12405W        W77665  44.583  33.189   3.704
12406W        W77666  43.886  37.069  11.642
12407W        W77667  10.524   2.790  10.061
12408W        W77668  43.924  11.750  10.633
12409W        W77669  39.953   4.171   1.243
12410W        W77670  13.550  41.831   1.720
12411W        W77671  36.958   4.691  14.300
12412W        W77672  43.611   8.873   3.947
12413W        W77673  44.089  44.911  14.246
12414W        W77674   7.959  41.655   2.779
12415W        W77675  20.787  28.941   2.326
12416W        W77676  41.793   1.400   0.419
12417W        W77677  40.985  27.974  11.545
12418W        W77678  15.251   5.498  11.199
12419W        W77679  20.839  40.168   0.863
12420W        W77680   9.433  25.364   9.837
12421W        W77681   3.823   1.913   0.900
12422W        W77682   4.726  24.635  11.658
12423W        W77683  39.304  15.827   0.263
12424W        W77684   4.950   3.503   9.978
12425W        W77685  33.648  23.669   1.770
12426W        W77686  10.409  25.071  12.191
12427W        W77687  22.613  24.523  13.929
12428W        W77688  44.025  23.561   2.601
12429W        W77689  21.023  23.031   2.773
12430W        W77690  11.956  42.099  11.546
12431W        W77691  18.478   8.197   2.672
12432W        W77692   7.300  23.780   2.741
12433W        W77693   0.832  28.545   3.283
12434W        W77694   7.827  20.559   3.847
12435W        W77695  27.713   7.905  14.124
12436W        W77696   2.271  35.991   0.732
12437W        W77697  40.300  25.615  13.192
12438W        W77698  27.623  32.043  12.394
12439W        W77699  36.475  36.152   2.760
12440W        W77700  28.082   2.256   3.465
12441W        W77701  40.717  11.422  10.224
12442W        W77702  19.571  22.574   2.055
12443W        W77703   3.859  28.500   1.960
12444W        W77704  27.071  20.466   4.547
12445W        W77705  39.389  16.602  14.328
12446W        W77706   8.527  44.447  13.328
12447W        W77707  10.226  21.266  12.151
12448W        W77708  20.740  24.313  12.365
12449W        W77709   7.771  18.276  13.993
12450W        W77710  31.691  26.644  11.904
12451W        W77711   5.717   4.889   0.269
12452W        W77712   1.321  35.133   3.820
12453W        W77713   9.393  21.227  12.174
12454W        W77714  20.233  44.376  11.153
12455W        W77715  14.381  14.762   1.660
12456W        W77716  27.933  43.821   3.779
12457W        W77717  41.989  20.075  14.440
12458W        W77718   0.319  22.204   0.441
12459W        W77719   2.917  19.107   2.697
12460W        W77720  30.956  29.144  11.689
12461W        W77721  11.929   7.337  12.864
12462W        W77722   4.342  24.117   1.163
12463W        W77723  27.249  24.407   2.350
12464W        W77724  18.325  24.732   4.270
12465W        W77725  20.936  36.115   3.732
12466W        W77726  32.604   3.291  11.889
12467W        W77727  14.671   3.458   0.958
12468W        W77728  22.998   8.827   0.686
12469W        W77729  21.703  23.900  12.483
12470W        W77730  15.679   7.874   2.256
12471W        W77731  24.967  39.221  10.955
12472W        W77732  40.596  25.883  11.097
12473W        W77733   6.703   1.003   1.532
12474W        W77734   7.157  36.915  14.995
12475W        W77735  39.152  23.210   3.213
12476W        W77736  33.210   5.654  12.484
12477W        W77737  33.313  44.927   3.436
12478W        W77738  33.144  23.874   0.143
12479W        W77739  41.174  11.076  12.989
12480W        W77740  39.802  26.680   3.596
12481W        W77741  40.176   6.904  14.936
12482W        W77742   2.192  21.097  13.046
12483W        W77743   1.480  17.512  14.230
12484W        W77744   7.943   8.833   0.319
12485W        W77745  27.463   4.493  10.285
12486W        W77746  24.489  31.574  11.960
12487W        W77747   9.512   1.888  11.122
12488W        W77748   6.234  33.613   4.052
12489W        W77749  13.734  44.486  13.912
12490W        W77750  39.315  26.641   3.791
12491W        W77751  25.245  27.678   0.883
12492W        W77752  32.346  24.737   0.693
12493W        W77753   2.948   2.352  10.746
12494W        W77754  44.423  30.665   0.334
12495W        W77755  22.057  27.971   2.863
12496W        W77756   0.362  32.370   0.949
12497W        W77757  21.764  32.598   0.306
12498W        W77758  10.983  24.191  13.509
12499W        W77759  27.150  20.772   1.598
12500W        W77760  14.090  35.395  14.494
12501W        W77761  30.906   4.872   0.779
12502W        W77762  39.944  13.720  11.916
12503W        W77763  39.998  30.005   0.370
12504W        W77764  22.743   2.934  12.426
12505W        W77765  19.756  12.159  11.927
12506W        W77766   3.105  17.978  13.721
12507W        W77767  27.630  32.107   3.060
12508W        W77768  39.281  32.316  10.214
12509W        W77769  17.498   1.719  12.005
12510W        W77770  17.713  19.792  11.703
12511W        W77771  26.823   5.939   2.668
12512W        W77772  28.215   9.351  14.339
12513W        W77773  43.100  10.721   4.138
12514W        W77774  44.686  26.988  12.061
12515W        W77775  14.284  22.795   2.328
12516W        W77776  27.372  11.898  10.775
12517W        W77777  34.841  26.094  12.070
12518W        W77778  26.651   6.214   0.776
12519W        W77779  15.327  27.308   2.802
12520W        W77780   2.474  28.230  13.403
12521W        W77781  34.772   6.841   3.871
12522W        W77782   7.449   4.873  14.687
12523W        W77783  12.388  38.743  13.860
12524W        W77784  13.117  12.278  10.620
12525W        W77785  24.411  40.506   4.462
12526W        W77786  30.831  19.273   0.551
12527W        W77787  26.849  35.104   3.759
12528W        W77788  29.970  28.644   0.649
12529W        W77789  30.211  31.988  12.820
12530W        W77790   5.763  41.021   2.041
12531W        W77791   7.378  25.853   3.655
12532W        W77792  11.499  25.656   1.234
12533W        W77793  26.813  38.878   4.069
12534W        W77794  21.465  37.283   3.250
12535W        W77795  36.773   1.530   2.975
12536W        W77796   7.391  31.269  10.558
12537W        W77797  29.912  26.568   2.346
12538W        W77798  37.918  35.022  10.848
12539W        W77799  28.184  38.909   0.279
12540W        W77800  10.660  27.919   2.294
12541W        W77801  39.741  25.502   0.866
12542W        W77802   9.148   7.182  13.512
12543W        W77803  31.619  10.890  11.597
12544W        W77804  43.936  25.495   5.074
12545W        W77805  27.975  35.956  14.476
12546W        W77806  13.945  43.169  11.161
12547W        W77807   7.206  30.219  14.423
12548W        W77808  11.686  32.588   0.771
12549W        W77809   6.841  21.112  13.896
12550W        W77810   0.965   0.358   2.388
12551W        W77811   3.245  28.012   2.137
12552W        W77812  22.825  38.131   4.110
12553W        W77813  43.264  34.096   3.797
12554W        W77814   1.645  16.656  12.492
12555W        W77815  28.681  31.767   5.050
12556W        W77816  15.425   9.680   2.817
12557W        W77817  31.941  31.580  14.391
12558W        W77818   9.966  33.406  11.566
12559W        W77819   7.461   4.818  11.186
12560W        W77820  13.633  41.818  11.969
12561W        W77821  36.389  21.994  11.587
12562W        W77822   4.261   2.137   1.003
12563W        W77823  12.486  40.076   4.116
12564W        W77824  35.142   1.288   2.006
12565W        W77825   5.435  15.226   3.500
12566W        W77826  34.356   0.927  14.331
12567W        W77827  14.018   8.666   3.763
12568W        W77828  14.546  32.970   4.612
12569W        W77829   9.149  42.518   1.612
12570W        W77830   8.797  22.181  13.576
12571W        W77831   4.092  10.252   5.174
12572W        W77832  40.359  41.390   4.495
12573W        W77833   2.269  15.059   2.294
12574W        W77834  44.718  20.780  12.158
12575W        W77835  11.920  22.375   5.012
12576W        W77836  17.277  20.310   1.418
12577W        W77837  20.331  41.155   0.112
12578W        W77838  21.670  13.303   0.805
12579W        W77839  29.890  21.109   0.981
12580W        W77840  31.583  11.324   3.855
12581W        W77841   7.865  30.714   0.056
12582W        W77842  18.592  15.180   4.574
12583W        W77843  26.259  14.660   2.276
12584W        W77844  33.452   4.125  13.495
12585W        W77845  20.044  32.521   5.274
12586W        W77846   0.848  16.098  13.540
12587W        W77847  27.429  16.101   0.340
12588W        W77848   8.432  36.320  13.365
12589W        W77849  29.430  29.508  10.713
12590W        W77850  40.883  24.317   0.390
12591W        W77851   9.896   3.845  14.405
12592W        W77852   8.710  10.893  14.436
12593W        W77853  22.725  35.243  14.007
12594W        W77854  28.444   5.499  14.283
12595W        W77855  30.379   6.446   0.714
12596W        W77856   7.220  17.775   4.883
12597W        W77857   1.782  32.395  13.300
12598W        W77858   0.391   5.139  10.478
12599W        W77859   5.419  37.885   1.217
12600W        W77860  27.061  43.383   3.341
12601W        W77861  44.364  26.628   4.616
12602W        W77862  32.473   1.923   1.210
12603W        W77863   5.767  43.013  11.846
12604W        W77864   0.469  11.656   3.118
12605W        W77865   6.664   6.781   3.662
12606W        W77866   9.175  30.038   0.849
12607W        W77867   5.303   8.422   0.971
12608W        W77868  18.873  30.049   0.439
12609W        W77869   6.488  35.572   0.908
12610W        W77870  11.740   4.039  12.832
12611W        W77871  40.605   9.790   1.816
12612W        W77872  21.183  38.451  10.730
12613W        W77873  39.764   8.835  13.953
12614W        W77874  21.833  41.605   2.904
12615W        W77875  13.025  41.229  13.020
12616W        W77876  41.032   8.349  11.910
12617W        W77877   9.384  19.097  10.506
12618W        W77878  29.374  13.831   0.898
12619W        W77879   9.311   4.512   0.777
12620W        W77880   0.954  35.963  13.166
12621W        W77881  29.729   6.705  12.085
12622W        W77882  12.404  27.662   2.399
12623W        W77883  20.808  37.501   1.264
12624W        W77884  22.501  22.749  13.463
12625W        W77885  40.758   6.445  10.790
12626W        W77886  37.718   8.949   4.415
12627W        W77887   5.375  16.150  11.617
12628W        W77888  15.694  27.301  12.346
12629W        W77889  24.365  36.492  11.681
12630W        W77890  32.155  23.272   2.349
12631W        W77891  35.119  37.816   0.889
12632W        W77892  27.753  34.465  13.926
12633W        W77893  16.209  18.509   0.009
12634W        W77894   2.886  15.654   1.086
12635W        W77895   6.726  27.231  14.585
12636W        W77896  23.244  29.082  12.391
12637W        W77897  31.509  37.570  13.026
12638W        W77898  38.813  20.229  13.000
12639W        W77899   6.836  35.120   0.348
12640W        W77900  27.452  44.129  12.452
12641W        W77901  30.967  38.981   3.049
12642W        W77902  23.529  20.643   0.275
12643W        W77903   2.165   6.909   1.532
12644W        W77904  26.119  13.237   1.358
12645W        W77905  37.882  26.382   1.009
12646W        W77906  16.606  24.844  14.723
12647W        W77907   2.362  17.204   3.564
12648W        W77908  30.057  38.516   4.295
12649W        W77909  21.196  36.662  12.076
12650W        W77910  24.987  23.821   2.815
12651W        W77911  34.505  29.900  13.475
12652W        W77912  21.491  11.646   4.668
12653W        W77913   9.883  26.074  14.340
12654W        W77914  34.329  11.299   4.569
12655W        W77915  41.930  39.849  14.881
12656W        W77916  31.588  30.234  13.952
12657W        W77917  34.656  24.470  11.975
12658W        W77918  23.082  35.134  11.162
12659W        W77919   2.960  23.404  14.196
12660W        W77920   8.371  18.815  13.439
12661W        W77921  34.448   0.134  13.939
12662W        W77922  29.158  19.641   4.769
12663W        W77923  14.628  22.660   0.221
12664W        W77924   4.180  41.536  13.959
12665W        W77925  21.269  25.945   0.739
12666W        W77926  15.231  23.077   3.855
12667W        W77927   1.883  39.284  13.929
12668W        W77928  24.106  22.038   2.853
12669W        W77929  39.433  29.054   0.788
12670W        W77930   4.256  31.568   4.195
12671W        W77931  18.724  35.863   0.914
12672W        W77932   8.386   2.512   0.928
12673W        W77933  39.420  16.750  11.394
12674W        W77934  24.143  26.650  12.635
12675W        W77935  34.844  32.409   3.727
12676W        W77936  26.386   5.912  12.557
12677W        W77937  44.689  24.130   2.713
12678W        W77938  42.343  22.206  14.825
12679W        W77939  12.353  17.247  13.436
12680W        W77940   0.050   9.902  11.832
12681W        W77941  36.015   3.846  12.243
12682W        W77942   4.873   5.820  14.693
12683W        W77943   3.044  21.189   2.699
12684W        W77944  44.092  31.377  14.036
12685W        W77945  11.262   0.217  14.145
12686W        W77946  43.519   9.145  12.991
12687W        W77947  38.301   7.169   2.263
12688W        W77948  11.193  18.818  12.446
12689W        W77949  11.147   2.631   0.504
12690W        W77950  26.018  26.882  14.667
12691W        W77951  11.219  25.636  11.840
12692W        W77952  28.488  12.175  12.109
12693W        W77953  43.917   2.543   2.095
12694W        W77954   7.123  12.626   3.415
12695W        W77955  22.280   7.825  14.069
12696W        W77956  37.804   4.702  12.737
12697W        W77957  25.627   3.788  10.929
12698W        W77958  37.028  13.622  11.075
12699W        W77959  40.413  39.994  14.377
12700W        W77960   2.266  39.561  12.610
12701W        W77961   2.289  12.597  12.776
12702W        W77962   1.594  44.319  12.037
12703W        W77963  36.458  27.770   0.045
12704W        W77964  16.235  15.834   2.355
12705W        W77965  29.845  11.344   4.717
12706W        W77966   1.899  28.347  13.101
12707W        W77967  35.881   2.823  12.508
12708W        W77968  23.994  40.087  14.287
12709W        W77969  25.423  15.814   3.144
12710W        W77970   2.826  34.981   3.910
12711W        W77971  27.231  37.416   1.755
12712W        W77972   0.684   1.848   1.254
12713W        W77973   2.279   8.137   3.330
12714W        W77974   9.878   0.043  13.370
12715W        W77975   9.717  34.053  14.261
12716W        W77976  44.854  37.489   4.601
12717W        W77977  32.490   5.565  13.405
12718W        W77978  42.906  27.592  11.615
12719W        W77979  23.126   7.957   4.830
12720W        W77980  16.295  16.191   3.175
12721W        W77981   3.567  44.893  10.840
12722W        W77982  17.543  43.417   3.404
12723W        W77983  43.408  42.051  13.033
12724W        W77984   4.222  16.626  14.459
12725W        W77985  17.658  30.394   0.816
12726W        W77986  36.285  13.275  11.672
12727W        W77987  44.040  27.576   2.881
12728W        W77988  36.274  18.550  12.776
12729W        W77989  13.744  42.775  13.993
12730W        W77990  17.633  23.540  14.774
12731W        W77991  15.155  27.075   2.356
12732W        W77992   7.313  35.868   3.202
12733W        W77993  19.293  34.050   1.855
12734W        W77994   7.296   5.647   3.464
12735W        W77995  18.178  34.014  12.234
12736W        W77996  17.084  30.163  10.274
12737W        W77997  29.542  27.528  10.888
12738W        W77998   1.033  43.557  11.082
12739W        W77999  14.989   1.708   1.861
12740W        W78000  43.532   2.515   4.763
12741W        W78001  22.980  18.375  12.050
12742W        W78002   9.587   8.315  11.004
12743W        W78003  19.055  34.004  12.650
12744W        W78004  29.921  30.156  13.497
12745W        W78005  37.517  10.820  11.022
12746W        W78006  19.958  23.316  14.922
12747W        W78007   5.904  39.115  10.917
12748W        W78008  23.152  28.355  13.354
12749W        W78009  13.367  41.403   4.060
12750W        W78010  42.264  36.374   0.725
12751W        W78011  21.406  14.646   1.085
12752W        W78012  25.258   3.767  11.305
12753W        W78013  26.038  38.402  10.788
12754W        W78014  39.746  26.535   4.100
12755W        W78015  13.856  44.855  11.455
12756W        W78016  33.323  22.304  13.001
12757W        W78017  14.645  20.767  11.061
12758W        W78018  12.910  12.148   4.862
12759W        W78019  31.191  37.077  13.459
12760W        W78020  26.441  33.154  12.971
12761W        W78021  19.335  24.178  12.517
12762W        W78022  24.256  27.658   3.738
12763W        W78023  42.046  34.390  11.865
12764W        W78024  40.998  42.414   0.439
12765W        W78025  20.432  26.189   4.433
12766W        W78026  11.066  21.217   2.309
12767W        W78027  39.554  18.783   1.721
12768W        W78028   3.047  15.237  10.921
12769W        W78029   8.746   1.462  10.468
12770W        W78030  38.000   9.171   0.340
12771W        W78031  11.280  23.633   3.710
12772W        W78032  25.464  19.685   1.878
12773W        W78033  37.869  28.719   4.504
12774W        W78034  29.260  22.360   5.020
12775W        W78035  32.625  41.506  14.762
12776W        W78036  42.402  43.359   3.859
12777W        W78037   5.250  29.728  11.382
12778W        W78038  43.703  17.753  11.994
12779W        W78039  26.944  39.421  12.127
12780W        W78040  15.773   9.827  14.493
12781W        W78041  30.288  12.167  14.379
12782W        W78042  13.511   3.449  11.168
12783W        W78043  28.645  22.667   4.115
12784W        W78044  17.242  28.930  10.265
12785W        W78045  12.080   5.683   4.960
12786W        W78046   8.194  14.505  11.784
12787W        W78047  18.706   8.745   0.698
12788W        W78048  26.629  30.547  12.006
12789W        W78049  36.367  13.804   0.772
12790W        W78050  25.595  24.643  14.780
12791W        W78051   5.383  29.977   1.678
12792W        W78052  19.206  18.780   4.051
12793W        W78053  42.524  24.658  14.309
12794W        W78054  36.224  15.794  12.717
12795W        W78055   8.531  42.063  13.723
12796W        W78056  29.815  24.958   9.860
12797W        W78057  15.080  41.387  13.397
12798W        W78058   3.792  15.050  13.090
12799W        W78059  42.522   1.915   2.341
12800W        W78060  19.099  42.553  11.889
12801W        W78061  36.485   4.877  13.054
12802W        W78062  24.807  34.286  14.546
12803W        W78063   5.013  25.760  10.842
12804W        W78064  16.748   5.191   4.170
12805W        W78065  21.086  11.184   2.274
12806W        W78066  38.926  31.899  10.203
12807W        W78067  19.121  21.019  10.351
12808W        W78068  21.808   4.501  12.136
12809W        W78069  23.634  40.420   2.075
12810W        W78070   0.758  28.435  11.372
12811W        W78071  32.801  24.703   0.388
12812W        W78072  14.145  29.602   4.247
12813W        W78073  41.065  10.646  12.133
12814W        W78074  27.635  30.295  12.019
12815W        W78075  12.948  22.724  11.530
12816W        W78076  16.713  11.882   2.288
12817W        W78077   5.236  38.304  12.472
12818W        W78078   1.222   2.040  11.058
12819W        W78079   5.386  15.543  12.951
12820W        W78080  39.536  37.849   2.482
12821W        W78081  13.380  25.197  12.553
12822W        W78082   1.963  10.145  14.824
12823W        W78083  14.604   9.610   1.307
12824W        W78084  41.783  20.232   1.378
12825W        W78085  43.432  16.740   0.300
12826W        W78086   5.339  29.959  14.835
12827W        W78087  38.252   7.079  14.315
12828W        W78088  24.992   0.553  14.938
12829W        W78089  19.294  20.060  14.287
12830W        W78090  33.941  43.164  13.078
12831W        W78091  33.494  34.422   2.774
12832W        W78092  17.724   9.597   1.200
12833W        W78093  17.675   3.412   0.653
12834W        W78094  42.816   3.394   3.315
12835W        W78095  17.503   9.235  12.560
12836W        W78096  29.079   4.721  10.711
12837W        W78097   2.403  30.472   2.186
12838W        W78098  31.238  23.342   2.211
12839W        W78099  22.225  12.761  12.317
12840W        W78100  43.429  33.831  14.393
12841W        W78101  31.131   0.765   1.796
12842W        W78102  14.736  17.935  10.599
12843W        W78103  15.526   6.449   1.310
12844W        W78104  24.118  30.818   3.119
12845W        W78105  42.740  44.582   0.373
12846W        W78106  18.685  23.827   4.824
12847W        W78107  41.787  26.615  11.077
12848W        W78108   1.924  16.514  10.850
12849W        W78109  20.245  37.578  11.115
12850W        W78110  28.747  37.457   2.862
12851W        W78111   2.835  25.697  12.966
12852W        W78112  15.227  17.642  11.265
12853W        W78113   8.027   2.447   4.110
12854W        W78114  44.015  30.677  12.637
12855W        W78115  39.903  16.793  12.636
12856W        W78116   7.899  31.546  14.168
12857W        W78117  40.076  12.209   1.918
12858W        W78118  16.474  41.140  12.881
12859W        W78119  42.836  31.878  10.403
12860W        W78120  30.501  32.634   2.324
12861W        W78121  17.976  23.650  14.404
12862W        W78122   3.769  43.875  14.421
12863W        W78123  43.673  33.475   4.086
12864W        W78124  37.379   2.475  14.410
12865W        W78125   2.419  26.141   2.218
12866W        W78126   5.424  30.497  11.014
12867W        W78127  43.364   4.771   9.958
12868W        W78128  26.991  26.784  10.757
12869W        W78129   5.965  22.445   0.836
12870W        W78130  10.857  40.600  12.438
12871W        W78131   6.534  25.291  14.479
12872W        W78132  21.984  37.837  12.547
12873W        W78133  26.554  32.182   0.549
12874W        W78134  12.743   3.135  14.773
12875W        W78135   6.843   5.277   1.810
12876W        W78136  30.892   8.689  14.503
12877W        W78137  22.768  30.006  11.116
12878W        W78138  36.377   6.691  13.570
12879W        W78139  10.343   1.001   1.676
12880W        W78140  41.027  30.989   4.184
12881W        W78141  16.136  12.541   4.788
12882W        W78142  15.209   7.705   2.775
12883W        W78143  37.877   4.910  11.210
12884W        W78144  35.415  31.680   4.524
12885W        W78145  29.577  22.522  11.105
12886W        W78146  32.197  44.313   2.447
12887W        W78147  43.361  13.465  14.586
12888W        W78148  21.972  40.541  11.068
12889W        W78149  44.768  39.753  11.993
12890W        W78150  38.394  39.053   1.726
12891W        W78151  36.379   7.186   0.439
12892W        W78152  41.523  25.420  12.740
12893W        W78153  15.227   6.169  11.939
12894W        W78154   8.910  23.636  14.999
12895W        W78155  13.902  27.613  12.571
12896W        W78156  40.902  44.285  13.477
12897W        W78157  40.753  26.100  14.412
12898W        W78158   9.879  32.888   0.812
12899W        W78159   9.292   9.448   1.535
12900W        W78160  11.397  44.368   0.203
12901W        W78161  27.033  29.126  12.576
12902W        W78162  30.926  28.623  12.556
12903W        W78163  21.588  23.270   2.726
12904W        W78164  13.785  31.645   0.393
12905W        W78165   2.184   4.298  14.954
12906W        W78166  32.079  28.027   3.800
12907W        W78167   5.656   7.186  13.013
12908W        W78168  27.088  21.018   0.092
12909W        W78169  28.436  25.155  13.598
12910W        W78170  16.072  22.541  14.060
12911W        W78171   6.736  30.122  11.041
12912W        W78172  35.704  43.297   2.957
12913W        W78173  21.151   2.890   4.208
12914W        W78174  32.817  32.567   0.279
12915W        W78175  32.964  33.533   2.757
12916W        W78176  26.732  16.507  14.517
12917W        W78177  28.846  38.320   2.326
12918W        W78178  37.790  43.975  10.486
12919W        W78179   4.822  19.741  10.729
12920W        W78180  26.601  23.133   3.292
12921W        W78181  43.543  27.406  11.940
12922W        W78182  39.790  36.952   3.320
12923W        W78183  36.931  39.923  14.880
12924W        W78184   9.997  28.450  13.622
12925W        W78185   4.958  31.645   0.531
12926W        W78186  36.896  36.006  14.925
12927W        W78187  25.276  21.696  14.161
12928W        W78188  14.614  40.342   2.195
12929W        W78189  44.749  23.973   1.655
12930W        W78190  14.308  37.087   4.835
12931W        W78191  38.112   1.851   3.081
12932W        W78192  40.045  20.031  11.109
12933W        W78193  16.757   1.996   2.872
12934W        W78194  30.311   1.088   4.574
12935W        W78195  16.624   1.790  12.527
12936W        W78196  32.109  44.244   0.140
12937W        W78197  17.217  12.211   2.847
12938W        W78198  31.468  14.141   1.698
12939W        W78199  42.536  17.237  10.564
12940W        W78200  21.584  32.888  14.419
12941W        W78201  13.649  20.391   2.450
12942W        W78202  19.080  17.671   2.430
12943W        W78203  21.970  33.667  10.762
12944W        W78204  30.392  29.953  13.484
12945W        W78205   2.433  22.044  12.151
12946W        W78206   2.752  13.334   3.640
12947W        W78207   5.011  26.138  11.592
12948W        W78208   0.389  27.094   4.006
12949W        W78209  15.697  28.603   4.182
12950W        W78210   7.183   4.610   1.020
12951W        W78211  25.562   8.974  12.277
12952W        W78212   7.881   3.946   0.812
12953W        W78213  25.014  19.709  14.992
12954W        W78214   3.806   2.011   3.462
12955W        W78215   9.425   7.532   1.814
12956W        W78216  10.989  20.001  14.400
12957W        W78217  14.263  29.700   2.991
12958W        W78218  38.541  14.129  10.637
12959W        W78219  42.096  18.950   0.593
12960W        W78220   8.618  38.067   3.695
12961W        W78221  26.012  28.725  11.907
12962W        W78222   1.152  31.018  11.948
12963W        W78223  11.382   0.593   0.856
12964W        W78224  22.986   7.295   0.765
12965W        W78225  19.356  25.902   3.142
12966W        W78226   1.379  31.997  10.589
12967W        W78227  10.810  10.333   3.106
12968W        W78228   7.385  39.453  14.323
12969W        W78229  25.255   2.749   3.705
12970W        W78230  33.110  21.064   0.668
12971W        W78231  22.965  41.163   0.371
12972W        W78232   4.840  40.080   3.744
12973W        W78233  40.367  29.953  14.925
12974W        W78234  26.738  18.766  12.379
12975W        W78235  26.543  32.170   3.187
12976W        W78236  12.570  10.334  13.051
12977W        W78237   3.336  27.906  12.920
12978W        W78238   2.196  44.541   0.295
12979W        W78239  15.077   4.308   2.175
12980W        W78240   4.147  37.882   0.416
12981W        W78241  14.147  40.849   0.500
12982W        W78242  41.126  43.282   1.997
12983W        W78243  42.193  14.660   1.435
12984W        W78244  36.874   8.901   0.829
12985W        W78245  25.132  24.438   0.407
12986W        W78246   0.884   9.175  14.199
12987W        W78247  14.714  17.396  10.623
12988W        W78248  11.008  24.483   1.900
12989W        W78249   3.794  36.089   1.693
12990W        W78250  40.298  11.551  11.556
12991W        W78251  31.364  31.488  13.155
12992W        W78252  24.543  43.280  11.942
12993W        W78253  33.049  20.268  12.470
12994W        W78254   3.491   9.001  14.891
12995W        W78255  17.083  16.288  11.247
12996W        W78256   3.641  20.193   4.124
12997W        W78257  31.503  38.996   4.365
12998W        W78258  24.012  40.102   2.293
12999W        W78259  27.723   4.413   0.432
13000W        W78260  23.294  16.151   3.140
13001W        W78261  37.551  44.274  14.936
13002W        W78262  12.589   8.136  13.261
13003W        W78263  29.894  26.395   0.428
13004W        W78264  12.808   1.669  11.437
13005W        W78265  12.565  29.593  11.875
13006W        W78266  28.943  28.115   2.905
13007W        W78267  33.162  41.438  10.546
13008W        W78268  38.055   4.771   0.612
13009W        W78269  38.781  30.051   1.261
13010W        W78270   4.633   9.378   2.305
13011W        W78271  24.626  10.390   0.284
13012W        W78272  28.589  20.617  14.991
13013W        W78273  34.615  12.348   4.661
13014W        W78274   3.208   7.358   0.818
13015W        W78275   8.060  43.322   0.741
13016W        W78276   9.263   4.282  13.478
13017W        W78277  41.352  34.804   2.888
13018W        W78278   0.437  19.276   4.368
13019W        W78279  13.723  35.606  11.560
13020W        W78280  32.525   2.972  12.639
13021W        W78281  18.223  39.066  14.969
13022W        W78282   9.121  42.643   2.389
13023W        W78283  41.157   2.790   0.212
13024W        W78284  11.313  39.498  14.768
13025W        W78285  32.656  22.200   0.296
13026W        W78286  35.010  21.024  13.833
13027W        W78287  44.749   5.392   1.856
13028W        W78288  37.392   9.751   0.768
13029W        W78289   3.247  31.558   4.451
13030W        W78290  37.808  29.930   2.164
13031W        W78291  41.429   8.133  10.666
13032W        W78292   2.444  37.879  14.345
13033W        W78293  25.195  12.552  13.113
13034W        W78294  38.424  17.095   0.516
13035W        W78295  26.281  35.566  13.968
13036W        W78296  18.111  30.029   0.907
13037W        W78297  30.829   0.770  14.232
13038W        W78298   9.087  35.041  11.058
13039W        W78299  32.080  44.298   4.750
13040W        W78300   6.783  42.762   4.374
13041W        W78301  18.481   9.927  13.483
13042W        W78302  32.663  39.197   3.239
13043W        W78303  27.474   5.921   4.497
13044W        W78304  13.639  17.751   4.258
13045W        W78305  13.584  44.861  14.266
13046W        W78306   1.248   1.449  12.110
13047W        W78307  39.689  27.563  11.513
13048W        W78308  11.223  28.505  13.034
13049W        W78309  24.915   2.915  14.554
13050W        W78310  25.981  20.533   4.013
13051W        W78311  37.140  13.043  14.866
13052W        W78312   3.010  35.400   2.702
13053W        W78313  42.071   8.111   4.210
13054W        W78314  43.359  31.963  12.622
13055W        W78315  36.676  39.301  11.144
13056W        W78316   1.918  26.485   0.199
13057W        W78317  38.839  43.846   0.160
13058W        W78318  15.974  36.084  11.619
13059W        W78319  21.494  37.138   4.025
13060W        W78320  31.472  37.459  11.661
13061W        W78321  23.930  15.185   3.783
13062W        W78322  33.851  15.225   4.551
13063W        W78323  36.404   6.788   1.252
13064W        W78324  22.740  15.833  10.814
13065W        W78325  40.409  36.880   1.147
13066W        W78326  14.372  23.596  12.514
13067W        W78327  11.472   7.563  11.222
13068W        W78328  17.571  38.468  12.935
13069W        W78329  42.301  36.459  13.415
13070W        W78330  42.795  13.327   2.406
13071W        W78331  18.205   3.711  11.467
13072W        W78332  22.109   7.700  11.784
13073W        W78333  35.336   6.400   1.899
13074W        W78334  18.275  29.784   2.728
13075W        W78335  10.282  40.486  10.913
13076W        W78336  11.622  35.619  11.118
13077W        W78337  33.946   7.797  11.504
13078W        W78338  20.207  40.035  13.808
13079W        W78339  12.732  10.206  10.211
13080W        W78340  13.843   8.840   2.410
13081W        W78341   1.676  18.464   4.115
13082W        W78342  22.890  32.959  11.491
13083W        W78343  34.813  16.708   3.939
13084W        W78344  29.558  40.190  11.630
13085W        W78345  16.020  20.147   3.430
13086W        W78346  18.682   1.992  11.939
13087W        W78347  41.500  16.545  14.300
13088W        W78348   7.243  38.267   1.879
13089W        W78349   0.241  33.960   1.709
13090W        W78350  35.779  42.746  13.527
13091W        W78351  32.497  10.125   0.492
13092W        W78352   3.402  28.581  12.062
13093W        W78353  29.750  34.921   0.866
13094W        W78354  24.746  33.907  14.874
13095W        W78355   3.295   6.788  10.647
13096W        W78356  37.547  29.359  14.819
13097W        W78357   4.854  15.089  11.592
13098W        W78358   5.392  23.463  10.169
13099W        W78359  37.279  42.059  12.109
13100W        W78360  24.978  10.927  11.456
13101W        W78361  27.401  33.246  11.163
13102W        W78362  32.675  36.315  13.558
13103W        W78363   3.343  23.229   3.317
13104W        W78364  18.669   8.885   4.408
13105W        W78365  39.012  17.363   1.956
13106W        W78366  15.220   1.251   3.623
13107W        W78367  17.990   2.648  11.174
13108W        W78368  14.594  33.974  10.551
13109W        W78369  36.812  38.846   3.731
13110W        W78370  10.409   6.428  12.703
13111W        W78371  27.564  39.464   4.486
13112W        W78372  20.746  14.240  11.180
13113W        W78373  34.450   5.884   0.906
13114W        W78374   5.710   6.850   3.304
13115W        W78375   5.721   7.643  10.820
13116W        W78376  11.055  30.679   4.413
13117W        W78377  16.147  20.249  14.564
13118W        W78378  13.908   0.265  12.089
13119W        W78379  16.160  38.874  12.478
13120W        W78380   7.881  31.991  11.252
13121W        W78381   2.296   2.890   3.294
13122W        W78382  33.403  20.543   4.062
13123W        W78383   1.322  16.521  14.373
13124W        W78384  37.580  13.707  11.646
13125W        W78385  30.430  24.554   3.166
13126W        W78386   8.355  23.106  12.451
13127W        W78387  24.639  31.007   4.836
13128W        W78388  27.141  14.455   4.537
13129W        W78389  21.407  11.965   9.688
13130W        W78390  33.546  20.828  12.994
13131W        W78391  42.630  43.521   2.826
13132W        W78392  40.194  25.910   4.593
13133W        W78393  11.233  19.679   0.322
13134W        W78394  29.154  24.535  13.505
13135W        W78395  30.837   6.458  14.934
13136W        W78396  41.914   5.837  14.451
13137W        W78397  19.583  13.545   0.997
13138W        W78398   7.838  36.157  13.007
13139W        W78399  39.820  32.197   1.133
13140W        W78400  38.051   0.678   2.137
13141W        W78401  18.226  43.815   4.440
13142W        W78402  22.300  34.103   2.855
13143W        W78403  17.213  43.887   4.580
13144W        W78404  39.786  36.739   1.755
13145W        W78405   8.536  19.163   3.652
13146W        W78406  15.616  31.615  12.649
13147W        W78407  12.829  38.474  11.117
13148W        W78408   2.538  12.237  13.850
13149W        W78409  37.975  43.880   0.431
13150W        W78410  29.746  35.431   3.175
13151W        W78411  26.629   6.367  12.572
13152W        W78412  41.769  43.972   4.369
13153W        W78413  33.655  42.790  10.499
13154W        W78414  33.986  40.948  13.107
13155W        W78415  21.076   5.463   0.240
13156W        W78416  11.926  35.764  11.514
13157W        W78417  23.545  19.749   1.731
13158W        W78418  13.838   6.716  13.482
13159W        W78419  34.944  20.259   0.478
13160W        W78420  42.028   3.898   4.924
13161W        W78421  25.396  42.408   2.187
13162W        W78422  44.378  10.800   0.742
13163W        W78423  26.068   6.893   3.674
13164W        W78424  28.380  26.066  12.104
13165W        W78425  13.132   5.959  11.375
13166W        W78426  43.571  35.527  10.754
13167W        W78427  23.602  42.909   3.619
13168W        W78428   7.057  40.017   4.494
13169W        W78429  30.624  12.165   3.474
13170W        W78430  26.640  35.994   2.663
13171W        W78431  22.247  40.354  13.565
13172W        W78432  37.611   6.220   4.584
13173W        W78433  13.824  28.165  13.003
13174W        W78434  17.312  37.401  11.582
13175W        W78435  30.197  20.738   0.796
13176W        W78436   9.377  32.664   3.749
13177W        W78437  31.797  20.598  13.970
13178W        W78438  21.645  35.882  11.861
13179W        W78439  32.190  40.761  13.440
13180W        W78440  20.700  31.242  12.351
13181W        W78441  34.573  21.779   3.329
13182W        W78442  18.099  39.796  13.604
13183W        W78443   7.885  42.770   0.052
13184W        W78444  11.691  42.572   1.350
13185W        W78445  28.603  28.781  12.573
13186W        W78446  42.858  25.015   4.400
13187W        W78447  42.903  24.093   2.257
13188W        W78448   6.169  19.264  11.611
13189W        W78449   8.250  35.489   1.186
13190W        W78450   2.316  15.154   2.829
13191W        W78451  10.508  32.391   2.932
13192W        W78452   1.438   9.264  10.703
13193W        W78453   0.113  43.972  13.689
13194W        W78454   7.395  21.413  13.375
13195W        W78455   7.706  15.280  11.973
13196W        W78456  33.077  38.325  10.872
13197W        W78457  38.958  40.318  12.924
13198W        W78458  43.982   7.401   2.828
13199W        W78459  37.043  37.865   5.024
13200W        W78460  10.639  15.758  11.177
13201W        W78461  25.040  13.823   3.224
13202W        W78462  22.208   8.968   0.155
13203W        W78463  17.838  21.699   4.171
13204W        W78464  44.803   1.416  11.664
13205W        W78465  40.123   2.191   4.925
13206W        W78466  37.567  20.678  11.989
13207W        W78467  35.802   0.762   0.434
13208W        W78468  29.060  20.523   4.801
13209W        W78469  16.739  10.826  12.507
13210W        W78470  14.253  39.324  11.171
13211W        W78471   5.657  13.667  10.659
13212W        W78472  26.245  42.508   0.302
13213W        W78473  15.351   3.739   3.603
13214W        W78474   1.855   9.204   3.836
13215W        W78475  41.060   4.280  13.416
13216W        W78476   0.525  34.622   2.716
13217W        W78477   9.430  25.973  12.044
13218W        W78478   6.125  30.616  12.022
13219W        W78479   5.228  16.140   3.056
13220W        W78480  41.333  26.201  10.710
13221W        W78481  29.432   1.622  14.506
13222W        W78482  41.396  39.806  12.121
13223W        W78483   3.436  15.162  11.835
13224W        W78484  17.808  24.721  13.434
13225W        W78485   0.581  39.098  11.887
13226W        W78486  26.818  30.928  13.594
13227W        W78487  21.444  13.409   1.264
13228W        W78488  26.894  21.574  14.468
13229W        W78489  44.352   9.288   3.104
13230W        W78490   4.134  27.683  14.913
13231W        W78491  24.595  27.016  14.773
13232W        W78492   9.196   4.362   1.613
13233W        W78493  25.509  42.491  11.260
13234W        W78494  43.930  44.337  12.927
13235W        W78495  37.080  26.944   2.952
13236W        W78496  13.660  15.589   2.799
13237W        W78497   7.278  16.270   0.400
13238W        W78498  35.064   6.920  12.221
13239W        W78499  18.794  18.873   3.131
13240W        W78500   1.996  34.963  13.427
13241W        W78501  44.212  44.493  12.535
13242W        W78502  35.737  41.723  13.893
13243W        W78503  31.834  24.603  10.272
13244W        W78504   8.371   4.953   2.035
13245W        W78505  42.472  10.703   1.499
13246W        W78506  25.008   4.337  14.410
13247W        W78507  43.907   2.828  11.554
13248W        W78508  44.742   9.524  14.632
13249W        W78509   8.849  25.625  10.338
13250W        W78510  39.384  40.561   3.661
13251W        W78511  16.164  23.156   0.356
13252W        W78512  10.641   6.841   1.798
13253W        W78513  10.388  28.442  13.284
13254W        W78514  44.186  12.614  13.035
13255W        W78515  40.397  41.810   4.193
13256W        W78516  28.124  37.778  10.786
13257W        W78517  26.965  26.089  13.605
13258W        W78518   0.469  13.338   4.254
13259W        W78519  10.363  21.471   1.808
13260W        W78520   7.714  20.813   0.836
13261W        W78521  23.079  19.218  13.032
13262W        W78522  36.973  40.185   0.964
13263W        W78523  34.226  20.660  13.405
13264W        W78524  37.417  43.408   3.666
13265W        W78525  39.044  24.285  14.405
13266W        W78526  12.342  36.354   2.857
13267W        W78527  16.030   7.618  11.671
13268W        W78528   5.259  12.892  13.988
13269W        W78529   8.629  42.443   1.601
13270W        W78530  22.005   0.989  11.939
13271W        W78531   2.771  18.694   0.037
13272W        W78532  34.431  37.046   4.160
13273W        W78533   3.611  33.380  13.991
13274W        W78534  40.351  26.952   5.007
13275W        W78535   7.294   0.242   0.807
13276W        W78536  12.099  35.822  10.449
13277W        W78537  23.536  40.557  14.912
13278W        W78538   7.912  40.801  12.150
13279W        W78539   1.497  29.158  12.838
13280W        W78540  39.101  41.368  11.504
13281W        W78541  18.231   4.961   3.870
13282W        W78542  21.719   3.396  13.129
13283W        W78543  35.963  15.685  10.893
13284W        W78544  16.473  15.877   0.771
13285W        W78545  39.399  11.970  11.862
13286W        W78546  33.800  38.645  11.908
13287W        W78547  42.296   2.497   3.717
13288W        W78548  42.888  39.286   2.933
13289W        W78549  19.151  42.101  11.222
13290W        W78550   6.486   7.769   3.656
13291W        W78551  28.020   1.227   3.083
13292W        W78552  35.037  12.645   3.730
13293W        W78553  34.109  38.929   1.195
13294W        W78554  19.249  27.120  14.299
13295W        W78555  18.515  18.638  11.749
13296W        W78556   3.838  38.622  11.107
13297W        W78557  38.021  39.058   4.017
13298W        W78558  17.055  24.293   3.167
13299W        W78559   1.236  24.538   5.323
13300W        W78560   6.493   6.778  12.966
13301W        W78561  40.930  31.183   3.154
13302W        W78562  34.520  36.657   2.902
13303W        W78563  44.581  36.880   3.617
13304W        W78564  26.080  28.972   4.017
13305W        W78565  34.140  27.937   2.495
13306W        W78566   5.372  17.222   1.419
13307W        W78567  24.247  12.622   1.438
13308W        W78568   5.273  43.789  11.272
13309W        W78569  15.845  26.206   4.096
13310W        W78570  37.301  23.423   1.662
13311W        W78571  12.578  36.935   4.235
13312W        W78572  11.884  44.513   5.043
13313W        W78573  23.023  14.635  11.046
13314W        W78574   8.792   4.228   4.582
13315W        W78575  27.574   7.184   0.947
13316W        W78576   0.877  32.211   0.916
13317W        W78577  12.680   9.311   2.902
13318W        W78578  10.755  13.070  12.468
13319W        W78579   0.299  19.895  14.574
13320W        W78580  36.436   3.965  10.667
13321W        W78581  12.762  39.836   3.742
13322W        W78582  33.651   8.412   0.196
13323W        W78583  43.573  19.051  10.665
13324W        W78584   6.923  39.115  11.151
13325W        W78585  26.586   1.223   1.698
13326W        W78586  22.817  17.831   5.409
13327W        W78587  15.045  37.526  13.437
13328W        W78588  44.417  37.651   4.845
13329W        W78589   3.305  19.518  14.296
13330W        W78590  11.710  17.198  10.327
13331W        W78591  43.268   6.535   1.662
13332W        W78592  40.271  10.781   3.748
13333W        W78593  17.380  15.376  14.414
13334W        W78594  33.505  21.313  14.882
13335W        W78595  33.513  23.473   1.275
13336W        W78596  40.520  34.337   1.387
13337W        W78597   7.754  41.333   5.176
13338W        W78598  24.947  26.992  11.584
13339W        W78599  41.117   7.350  12.937
13340W        W78600  41.079  16.502   3.746
13341W        W78601  24.202  16.293  11.308
13342W        W78602  41.260   1.164  11.992
13343W        W78603  26.554  28.025  12.110
13344W        W78604  30.769   8.781   2.686
13345W        W78605  35.401  12.592  13.428
13346W        W78606  13.410  41.853  14.987
13347W        W78607  39.331  18.809  14.523
13348W        W78608  15.102   9.715   1.241
13349W        W78609  26.861  26.304   0.066
13350W        W78610  31.381  38.562  14.240
13351W        W78611  12.387  39.016  10.645
13352W        W78612  35.373  43.070   3.973
13353W        W78613   6.983   3.740  14.478
13354W        W78614   8.201   8.323   1.631
13355W        W78615  14.128  24.632  12.839
13356W        W78616  32.657   7.815  13.773
13357W        W78617   9.350  21.772  13.028
13358W        W78618  42.757   7.308  10.762
13359W        W78619  41.554  28.940  13.307
13360W        W78620   9.425   6.959   2.286
13361W        W78621  11.261  25.424  10.904
13362W        W78622  14.740  16.896  13.320
13363W        W78623   1.824  17.509   0.847
13364W        W78624   2.200   0.207  14.489
13365W        W78625  26.488  10.826  12.481
13366W        W78626  34.585  35.637   3.675
13367W        W78627  40.573  40.124   0.212
13368W        W78628   9.329  38.988   0.925
13369W        W78629  37.300  31.534  11.576
13370W        W78630   4.446  43.891  14.066
13371W        W78631   2.118   1.313  13.302
13372W        W78632   3.503  19.759  14.776
13373W        W78633  33.827   3.492  11.831
13374W        W78634   1.189   4.190   0.002
13375W        W78635  22.109  40.228   4.747
13376W        W78636  28.083  37.224  14.833
13377W        W78637   1.203   8.702  13.908
13378W        W78638  41.719   9.163   3.641
13379W        W78639  36.416  17.710  14.551
13380W        W78640  36.382  18.836   4.994
13381W        W78641   0.981  40.713   1.453
13382W        W78642  40.647  22.730  12.694
13383W        W78643  42.498  28.433  13.635
13384W        W78644  17.665  22.084  12.531
13385W        W78645  32.626  22.802  10.717
13386W        W78646  38.696  24.462  13.234
13387W        W78647   7.228   9.681   0.278
13388W        W78648   2.497   4.790  13.881
13389W        W78649  18.686  34.550   4.346
13390W        W78650  22.771  22.957   1.196
13391W        W78651  23.927   7.726  12.888
13392W        W78652   2.009   6.994  14.127
13393W        W78653  33.157   5.697   3.715
13394W        W78654  34.911   7.715   3.252
13395W        W78655   5.536  23.265  13.557
13396W        W78656  44.277   5.138  11.369
13397W        W78657  43.953  12.460  11.370
13398W        W78658  15.222  16.086  11.516
13399W        W78659  33.858   0.906  14.188
13400W        W78660  16.676  27.125   2.176
13401W        W78661  24.050  13.597  10.688
13402W        W78662   5.301  33.377   4.838
13403W        W78663  12.790  13.151   4.530
13404W        W78664  41.539  34.446   3.753
13405W        W78665  25.674  43.972  11.183
13406W        W78666  32.607  23.632  10.202
13407W        W78667  10.865  22.895  13.406
13408W        W78668  26.380  41.693   4.534
13409W        W78669   7.785  29.432  14.055
13410W        W78670  18.673  17.517  12.011
13411W        W78671  38.621  17.785   1.268
13412W        W78672  35.761  18.050  14.984
13413W        W78673  15.315   2.828   3.628
13414W        W78674  22.714   5.941  14.448
13415W        W78675  38.455  19.061   0.429
13416W        W78676   5.827  29.037   9.859
13417W        W78677  19.354  27.906  13.817
13418W        W78678  39.920  17.756   4.069
13419W        W78679  44.250  27.080   0.717
13420W        W78680  16.261  11.199  14.760
13421W        W78681  33.462  33.571  10.693
13422W        W78682  24.169  35.415   1.283
13423W        W78683   5.366   9.661   1.632
13424W        W78684  17.993  11.329   2.655
13425W        W78685  37.409  23.731  13.371
13426W        W78686  41.901  13.064  14.205
13427W        W78687  18.669  35.215  14.659
13428W        W78688  18.459  29.540  13.035
13429W        W78689  20.961  44.142   4.392
13430W        W78690  24.571  18.953  14.327
13431W        W78691  27.811  12.810  12.592
13432W        W78692  20.740  24.358   1.323
13433W        W78693   9.002   2.315  13.735
13434W        W78694  32.039  30.175  11.194
13435W        W78695  13.913   6.289  10.757
13436W        W78696   6.806   2.888   3.907
13437W        W78697  10.908   6.403  11.997
13438W        W78698   8.712   7.855  10.975
13439W        W78699  30.352  21.606  12.475
13440W        W78700  26.000  21.406   2.300
13441W        W78701  30.586  37.616   4.231
13442W        W78702  24.401  11.871   5.015
13443W        W78703  17.732  29.706  14.902
13444W        W78704  39.467  20.539   2.504
13445W        W78705  41.768   7.791   3.487
13446W        W78706  21.991  13.228  13.279
13447W        W78707  29.598   5.895  14.830
13448W        W78708  43.416  34.615   5.122
13449W        W78709  12.220  25.715   3.809
13450W        W78710  24.673  32.038   4.068
13451W        W78711  12.744  40.441  13.637
13452W        W78712   7.721  31.113  12.284
13453W        W78713  31.408   9.730  12.631
13454W        W78714  32.402  17.758  11.094
13455W        W78715  23.304   9.825   3.636
13456W        W78716  38.887   8.733  13.965
13457W        W78717  22.742  17.997  11.129
13458W        W78718  32.048  32.899  14.572
13459W        W78719  43.118   9.867   1.697
13460W        W78720  11.357  11.192  12.529
13461W        W78721  44.215   7.484   1.373
13462W        W78722  14.170  39.802  11.976
13463W        W78723  28.968  38.887  13.526
13464W        W78724  41.470  31.127  13.477
13465W        W78725  16.349  26.252   2.877
13466W        W78726  11.879  38.280   3.702
13467W        W78727  27.716  39.316   0.975
13468W        W78728  43.886  40.528   4.723
13469W        W78729  25.718  35.995   5.145
13470W        W78730  40.452   3.401   0.643
13471W        W78731  19.981   3.385  13.030
13472W        W78732  30.518  28.985   3.729
13473W        W78733  39.606  42.279   1.910
13474W        W78734  25.252  39.026   2.904
13475W        W78735  18.981  39.482   1.657
13476W        W78736  15.647  11.428  11.501
13477W        W78737  40.240  27.761  13.979
13478W        W78738  42.235  12.818   3.583
13479W        W78739  11.112  37.958   0.381
13480W        W78740  26.211  14.395   4.583
13481W        W78741  34.476  32.027   4.645
13482W        W78742  39.434  14.298  14.177
13483W        W78743   2.035  41.888   2.162
13484W        W78744  13.640  17.985  12.971
13485W        W78745  24.763   2.622  12.440
13486W        W78746  39.969  19.094   4.801
13487W        W78747   9.272   4.283   0.312
13488W        W78748   2.341  43.293   0.742
13489W        W78749   7.764  42.005   0.767
13490W        W78750   3.872   3.328  13.349
13491W        W78751  25.640  40.127  13.976
13492W        W78752  28.470  21.923   3.019
13493W        W78753   5.729  14.661   3.355
13494W        W78754  24.110  29.817   1.817
13495W        W78755   6.922   5.873  12.955
13496W        W78756   3.698   7.649   4.680
13497W        W78757   7.028   4.167  13.468
13498W        W78758  27.751  27.691  12.608
13499W        W78759  18.206  13.253  13.440
13500W        W78760  31.105   4.126   0.404
13501W        W78761   5.697  17.061   3.647
13502W        W78762   7.709  11.624   4.119
13503W        W78763  27.304  19.615   4.597
13504W        W78764   9.271  44.462  11.965
13505W        W78765   5.915  17.195  10.789
13506W        W78766  39.320  13.248   0.186
13507W        W78767   6.432  42.493   2.766
13508W        W78768  15.578   2.168   2.763
13509W        W78769  41.986  20.558  12.029
13510W        W78770  44.494  15.886  11.882
13511W        W78771   0.960   4.987   2.224
13512W        W78772  14.593   5.356   1.045
13513W        W78773  13.107  28.663  11.079
13514W        W78774  18.133  25.260  12.356
13515W        W78775  13.820  24.954  14.866
13516W        W78776  36.962  11.241  11.584
13517W        W78777  41.909  41.273  12.601
13518W        W78778  22.230  19.637   2.675
13519W        W78779  31.966  44.642   3.906
13520W        W78780   0.816   6.985   4.132
13521W        W78781  15.725  34.848  10.933
13522W        W78782  14.211   4.495  11.465
13523W        W78783  23.727  19.418  10.764
13524W        W78784  18.131  42.273   2.697
13525W        W78785  17.748  36.048  13.517
13526W        W78786  26.710  27.695   3.853
13527W        W78787  25.975  30.034  14.005
13528W        W78788  19.987  43.215   2.853
13529W        W78789  12.784  29.657  13.714
13530W        W78790  39.439  39.342   4.119
13531W        W78791   1.787  27.132  14.008
13532W        W78792  41.501  25.183  13.213
13533W        W78793  31.054   9.182   3.430
13534W        W78794  39.479  28.334  13.190
13535W        W78795  37.845  35.870   1.825
13536W        W78796  25.955  12.476  11.192
13537W        W78797  13.768  15.832   1.308
13538W        W78798  32.656  14.340  11.196
13539W        W78799   0.471  36.506  11.100
13540W        W78800  30.124  15.647  13.424
13541W        W78801   8.665  43.632  10.969
13542W        W78802  35.914  40.363   0.397
13543W        W78803  14.816  27.474  11.077
13544W        W78804  26.683  39.111  14.897
13545W        W78805  36.176  21.167   1.836
13546W        W78806  39.608  29.572  12.636
13547W        W78807  28.263  33.253   3.539
13548W        W78808  40.790  42.070   3.636
13549W        W78809  24.665  24.677  11.916
13550W        W78810  19.353  39.894  14.037
13551W        W78811  17.357  34.628  10.704
13552W        W78812  11.172  38.580  14.953
13553W        W78813  24.085  23.832   4.567
13554W        W78814  15.704  37.956  11.084
13555W        W78815  12.116  33.419   2.798
13556W        W78816  28.239   3.374   2.408
13557W        W78817  33.927  19.472  11.503
13558W        W78818  12.055   3.424   0.507
13559W        W78819  20.595   8.928   4.576
13560W        W78820  11.933  25.233   0.473
13561W        W78821   9.499  19.604  11.271
13562W        W78822   4.649  27.622  14.882
13563W        W78823   7.954  28.237  14.769
13564W        W78824  30.628   6.973   1.650
13565W        W78825   6.354  37.466   2.307
13566W        W78826   8.889  12.623   2.277
13567W        W78827  33.533  41.424  14.895
13568W        W78828  35.232  24.876  13.792
13569W        W78829  44.313  35.579  11.197
13570W        W78830  23.706  31.483   3.336
13571W        W78831  18.602  21.745  12.137
13572W        W78832   0.752  23.274  12.137
13573W        W78833   8.435  23.502  14.791
13574W        W78834  20.615  36.508  10.616
13575W        W78835  44.236  32.661   0.883
13576W        W78836  36.386  41.055   2.292
13577W        W78837   9.033  44.904  11.917
13578W        W78838   1.872  12.749  10.592
13579W        W78839  27.950  38.902   0.752
13580W        W78840  19.798  14.997  13.794
13581W        W78841  40.899  26.235   2.775
13582W        W78842   9.849  10.258  11.111
13583W        W78843  12.105  24.227   3.702
13584W        W78844  18.323  23.253  14.346
13585W        W78845  10.628  42.447  14.948
13586W        W78846  27.491  42.823   1.841
13587W        W78847   0.175   9.319  14.876
13588W        W78848   9.751  42.362   0.791
13589W        W78849  34.968  20.447  12.682
13590W        W78850  18.843  41.302   5.133
13591W        W78851  38.463   4.100  14.299
13592W        W78852  39.055   0.054   4.553
13593W        W78853  26.809   0.984   5.090
13594W        W78854  36.560  33.348   3.643
13595W        W78855   6.906  38.264  12.952
13596W        W78856  18.220  36.125   2.223
13597W        W78857  34.200  24.097  11.713
13598W        W78858   4.936  11.255   3.681
13599W        W78859  18.485  10.209   3.140
13600W        W78860   6.307  11.679  13.462
13601W        W78861  37.014   5.303   1.346
13602W        W78862  30.957  20.485  11.083
13603W        W78863   6.998  36.223   4.605
13604W        W78864  15.035  37.612   0.475
13605W        W78865  30.031  41.785  11.755
13606W        W78866   9.585  34.044   0.467
13607W        W78867  39.624   4.912   3.765
13608W        W78868  34.575  28.416  14.567
13609W        W78869  11.691  32.860  13.812
13610W        W78870  30.582   0.942  12.374
13611W        W78871  22.046  29.177   1.779
13612W        W78872  25.471  11.177  11.246
13613W        W78873  30.062  22.489  13.529
13614W        W78874   9.698   8.350  13.300
13615W        W78875  23.663  18.224  13.087
13616W        W78876  10.185  22.128   4.570
13617W        W78877   8.299   2.888   4.181
13618W        W78878   3.730   5.130  14.570
13619W        W78879  22.255  12.180  10.598
13620W        W78880  29.621  40.953   2.200
13621W        W78881  31.754  37.779  13.470
13622W        W78882  28.130  17.534  12.148
13623W        W78883  16.172  41.083   4.160
13624W        W78884  21.591  32.270   3.116
13625W        W78885  35.112  38.893  11.109
13626W        W78886   1.465  32.737   1.717
13627W        W78887  34.112  18.417   1.305
13628W        W78888  42.338  32.203   2.268
13629W        W78889  34.400  20.566   2.773
13630W        W78890  34.865   0.980  13.495
13631W        W78891  41.842  11.813   0.814
13632W        W78892   0.869  28.848   4.455
13633W        W78893  10.274  29.355  10.813
13634W        W78894  18.380  41.564   0.883
13635W        W78895  40.816  10.703  10.785
13636W        W78896  13.363   2.663   2.822
13637W        W78897  41.325   1.075  11.449
13638W        W78898   0.308  27.315   1.613
13639W        W78899  36.644  33.071   0.147
13640W        W78900  40.175   1.719  11.648
13641W        W78901  31.249  13.098   3.610
13642W        W78902  25.637  44.935   1.216
13643W        W78903  11.747   4.978  10.478
13644W        W78904  27.542  14.020   1.357
13645W        W78905  31.424  43.509   2.742
13646W        W78906  15.549  23.775   0.783
13647W        W78907  21.020  19.342  11.592
13648W        W78908  31.350  36.284   4.378
13649W        W78909   4.872  44.072  11.445
13650W        W78910  10.696   5.967   4.902
13651W        W78911   1.475  44.849   1.632
13652W        W78912  20.738  15.128  12.305
13653W        W78913  20.090   3.010   0.213
13654W        W78914  37.373  21.111   1.429
13655W        W78915   7.536  24.244  13.437
13656W        W78916  26.644   1.417  11.141
13657W        W78917  10.796  14.867   0.642
13658W        W78918  13.625  14.881  11.076
13659W        W78919  30.229   3.342   0.926
13660W        W78920   7.825  36.813  14.565
13661W        W78921   7.315   5.114   3.380
13662W        W78922  37.389  20.639   1.652
13663W        W78923  43.850  16.234   3.137
13664W        W78924  40.966   9.774  10.669
13665W        W78925   2.233  37.154   4.193
13666W        W78926  44.725  18.597  11.384
13667W        W78927  30.624  37.868   2.115
13668W        W78928  36.118  19.608  14.000
13669W        W78929  30.578   0.507   2.975
13670W        W78930  43.328   5.879  11.448
13671W        W78931  13.310  26.321   1.444
13672W        W78932  25.289  10.864   0.809
13673W        W78933  19.332  16.012   0.122
13674W        W78934  12.679   8.397   4.947
13675W        W78935  32.755  29.398   3.657
13676W        W78936  18.690  44.926   0.404
13677W        W78937  43.152   0.803  12.094
13678W        W78938   6.598   4.816   4.101
13679W        W78939  39.492  33.760   2.777
13680W        W78940   8.771   0.304   2.187
13681W        W78941  18.188  27.113  10.933
13682W        W78942   6.644  16.729  11.614
13683W        W78943  38.109  29.470   3.789
13684W        W78944   6.400   4.560  11.392
13685W        W78945  41.072   5.365   1.853
13686W        W78946   9.786   2.827  10.504
13687W        W78947   2.792  31.767  11.484
13688W        W78948  44.448   6.700   2.815
13689W        W78949  14.894  18.479   1.723
13690W        W78950  10.156  15.359  10.574
13691W        W78951  35.537   5.870  14.226
13692W        W78952  25.274  27.903  14.571
13693W        W78953  22.370   8.296   2.187
13694W        W78954  43.751  21.802  14.774
13695W        W78955  26.316  34.498   2.822
13696W        W78956  17.258  24.279  12.742
13697W        W78957  11.174  36.796  12.114
13698W        W78958  23.157   2.521  14.804
13699W        W78959   0.563  44.151  14.283
13700W        W78960  19.626  36.490  11.549
13701W        W78961  44.771  44.970   2.949
13702W        W78962  43.353  14.676   1.692
13703W        W78963  11.997  43.260  13.353
13704W        W78964   8.742  37.090   1.743
13705W        W78965  18.339  12.045  12.930
13706W        W78966  22.608   5.965  13.485
13707W        W78967  16.670  29.198  12.457
13708W        W78968  25.684  29.164   0.654
13709W        W78969  29.057  43.594   1.132
13710W        W78970  14.299   4.993  11.536
13711W        W78971  39.167   0.046  14.783
13712W        W78972  36.450   7.875   4.585
13713W        W78973  39.353  11.734   0.310
13714W        W78974  41.606  34.421   5.080
13715W        W78975  13.135  10.786   4.808
13716W        W78976  27.057  30.878   3.181
13717W        W78977  13.163  33.483  11.900
13718W        W78978  44.771  14.156  13.758
13719W        W78979  10.159   4.355  14.271
13720W        W78980  10.726  33.516   1.416
13721W        W78981  14.155  32.211  14.089
13722W        W78982   7.342  40.003  12.596
13723W        W78983  24.170  24.742  13.771
13724W        W78984   4.111  29.319   3.725
13725W        W78985   0.444   9.819   4.303
13726W        W78986   1.707  24.489   3.427
13727W        W78987   6.964   8.100   2.336
13728W        W78988   9.357  27.744   1.415
13729W        W78989  28.147  11.504   1.995
13730W        W78990   3.429  26.301   2.369
13731W        W78991  17.488  32.493  13.075
13732W        W78992  23.501  39.090  12.414
13733W        W78993  19.568  24.353  13.783
13734W        W78994  17.263   4.707   4.013
13735W        W78995  15.296  42.978   2.944
13736W        W78996  39.775   3.220   1.998
13737W        W78997  17.242   0.546  11.165
13738W        W78998   4.147  27.098  12.475
13739W        W78999  30.584  31.090  11.398
13740W        W79000  15.262  12.343   2.728
13741W        W79001  37.688  27.393  14.454
13742W        W79002  39.651  43.391   2.623
13743W        W79003  11.261  29.322   0.726
13744W        W79004  16.010  17.598   0.260
13745W        W79005  18.957   6.168  10.673
13746W        W79006  37.286  38.335  11.124
13747W        W79007  21.493   5.674  14.839
13748W        W79008  18.597  40.905  14.806
13749W        W79009  33.101  44.058   1.415
13750W        W79010  10.225  39.358  13.995
13751W        W79011  17.982  38.060   1.747
13752W        W79012  17.001  16.263  12.598
13753W        W79013  34.840  33.038   1.508
13754W        W79014   9.612  41.414   3.651
13755W        W79015  23.030  31.922   0.485
13756W        W79016   3.790  30.961  13.529
13757W        W79017  17.256  32.932   0.866
13758W        W79018  13.312  44.468   0.372
13759W        W79019  36.877  23.153   1.827
13760W        W79020  40.111  36.685  12.835
13761W        W79021  20.489  10.720  14.440
13762W        W79022  27.115  30.403  14.267
13763W        W79023  27.611   5.215   4.158
13764W        W79024  38.525  18.252   1.080
13765W        W79025  39.962  25.651   1.310
13766W        W79026  14.802   6.642  13.192
13767W        W79027   4.034  32.209   1.250
13768W        W79028  24.428  11.654  11.646
13769W        W79029  25.130  39.938   4.841
13770W        W79030  20.290   4.942   0.344
13771W        W79031   8.940  22.522  10.617
13772W        W79032  33.745  38.084   3.326
13773W        W79033  28.196  22.515   4.622
13774W        W79034  41.521  17.139  12.493
13775W        W79035   2.215   8.983  14.421
13776W        W79036  16.082  16.747   2.350
13777W        W79037  40.895  42.202   2.262
13778W        W79038  40.984   2.770   4.552
13779W        W79039  10.388  40.292  14.456
13780W        W79040  33.044  40.774   0.041
13781W        W79041  35.009   9.596   4.300
13782W        W79042   1.301  43.836   1.905
13783W        W79043  22.206  15.718  10.311
13784W        W79044  36.724  31.979  14.712
13785W        W79045  42.305  26.006  13.630
13786W        W79046   6.333  37.384  13.817
13787W        W79047  21.688  33.458   4.284
13788W        W79048  21.530  31.114  14.824
13789W        W79049  35.819  10.129  14.315
13790W        W79050  42.037  36.883  13.541
13791W        W79051   5.327  35.404  10.771
13792W        W79052  19.599  41.877  11.086
13793W        W79053  20.522  25.956  12.173
13794W        W79054  27.947   9.944  11.592
13795W        W79055  24.741  30.145  11.200
13796W        W79056  42.387  18.822   3.831
13797W        W79057   5.704  10.608   0.030
13798W        W79058  10.206   5.128  11.122
13799W        W79059  13.303   0.962   4.158
13800W        W79060  17.036   7.805   4.097
13801W        W79061  12.572  37.723  14.075
13802W        W79062  11.350   9.499  12.827
13803W        W79063  35.391   4.141  13.726
13804W        W79064  32.756  44.859   2.026
13805W        W79065  15.028  10.845   1.841
13806W        W79066  33.831  39.540  11.854
13807W        W79067  37.298  44.912  11.722
13808W        W79068  10.660  24.201  10.634
13809W        W79069  36.857   7.428  14.504
13810W        W79070  22.038  32.647  10.555
13811W        W79071  37.401   6.440   0.420
13812W        W79072  27.933  13.633  14.482
13813W        W79073   9.543  18.550   5.140
13814W        W79074  30.707  42.521   4.136
13815W        W79075   0.446  15.292   1.893
13816W        W79076   4.147  11.735   4.934
13817W        W79077  18.023  22.181   1.910
13818W        W79078  40.350   0.317  11.675
13819W        W79079  28.626  13.829  13.813
13820W        W79080   2.413   6.166  11.403
13821W        W79081  24.519  15.023   2.362
13822W        W79082  27.284  36.469   4.904
13823W        W79083  18.286   1.450   1.480
13824W        W79084  42.479  43.079  13.924
13825W        W79085  29.131  28.558   3.672
13826W        W79086  23.826  28.745   1.153
13827W        W79087  13.923  20.961   5.100
13828W        W79088  26.104   1.697   4.633
13829W        W79089  18.366  15.394  12.485
13830W        W79090   6.742  15.667  11.593
13831W        W79091  37.942   1.434  14.879
13832W        W79092  19.359  16.855   4.120
13833W        W79093  19.441  16.727   0.712
13834W        W79094  27.264   1.533   2.681
13835W        W79095  21.773   3.914   3.130
13836W        W79096  44.888  36.621  12.335
13837W        W79097   4.212  31.538  12.503
13838W        W79098  30.635  29.586   4.504
13839W        W79099  12.346  26.052  12.381
13840W        W79100  15.283  32.468   2.361
13841W        W79101  30.545  18.245  13.001
13842W        W79102  11.934   0.228   2.344
13843W        W79103  22.298  42.952  10.751
13844W        W79104  28.470  13.135   3.418
13845W        W79105  30.504  19.307  13.095
13846W        W79106  38.219  13.309  11.908
13847W        W79107  31.124  23.755  14.358
13848W        W79108  33.621   4.867  10.463
13849W        W79109  30.932  23.024   0.049
13850W        W79110  17.066  30.670  11.088
13851W        W79111  33.583  28.436  13.434
13852W        W79112  17.538   2.503   2.218
13853W        W79113   7.827  42.898   0.539
13854W        W79114  36.621  36.315   0.247
13855W        W79115  13.757  16.705   2.137
13856W        W79116   4.337  13.368  12.974
13857W        W79117  23.896   8.361  10.163
13858W        W79118  11.918  19.867   4.096
13859W        W79119   5.709  31.649  14.710
13860W        W79120   5.268  12.226   2.339
13861W        W79121   3.096  13.344   0.811
13862W        W79122  44.703   7.999  14.755
13863W        W79123  32.177   6.948  13.859
13864W        W79124  22.202  41.838   4.298
13865W        W79125  14.440  33.369   2.921
13866W        W79126   0.138   4.954   0.118
13867W        W79127  26.572   5.187   4.166
13868W        W79128   0.555  29.084  12.873
13869W        W79129  41.108   7.275   3.110
13870W        W79130  36.503   8.439   2.692
13871W        W79131  34.296  36.135   2.338
13872W        W79132  27.402  44.954  12.820
13873W        W79133  41.935  39.293   1.977
13874W        W79134  36.000   5.362   4.203
13875W        W79135   1.299  38.520  10.776
13876W        W79136  11.821  31.981  14.911
13877W        W79137   5.752  10.800  10.642
13878W        W79138  19.871   7.260   4.129
13879W        W79139  40.898  33.680   1.743
13880W        W79140  12.780   7.009   1.682
13881W        W79141  12.361  35.681   1.295
13882W        W79142  14.513  22.020  11.560
13883W        W79143   7.939   9.308  14.954
13884W        W79144  33.888  20.260  13.562
13885W        W79145  10.274  11.378  10.653
13886W        W79146  13.638  33.867  12.113
13887W        W79147  21.112  20.471   2.579
13888W        W79148  13.694   4.041  14.102
13889W        W79149  20.775  22.623  10.778
13890W        W79150  18.110  18.505   5.051
13891W        W79151  20.660  10.007   3.683
13892W        W79152   3.030  13.610   0.377
13893W        W79153  33.052  21.139   0.144
13894W        W79154  18.172  41.393   3.383
13895W        W79155  43.769   6.612  12.617
13896W        W79156   3.743  33.621  14.720
13897W        W79157  15.048  30.491   1.767
13898W        W79158   5.449  20.242  13.930
13899W        W79159  41.813  30.378   4.030
13900W        W79160  23.400  13.346   2.238
13901W        W79161  20.547  21.063  14.937
13902W        W79162  33.561  16.290   2.776
13903W        W79163   9.774  40.367   0.450
13904W        W79164  39.958   2.688  13.947
13905W        W79165   2.769  35.967  12.792
13906W        W79166  42.052   4.922   3.069
13907W        W79167   5.825  12.719   1.510
13908W        W79168  11.827  29.976  14.594
13909W        W79169  15.190  37.510  13.949
13910W        W79170   2.346  15.317  11.886
13911W        W79171  40.272  18.998   0.650
13912W        W79172  27.379  44.474  11.428
13913W        W79173  13.171  10.767   0.433
13914W        W79174  13.239  33.932   2.686
13915W        W79175  25.557  38.716   0.831
13916W        W79176  30.116   4.804   3.864
13917W        W79177  44.770  36.982  11.526
13918W        W79178  31.476  38.473   2.576
13919W        W79179   9.333   9.209   3.350
13920W        W79180   0.894   3.734   2.513
13921W        W79181  24.740   3.730  11.278
13922W        W79182  18.270  31.277   4.917
13923W        W79183  33.073  16.582   0.457
13924W        W79184  33.072  42.905   1.473
13925W        W79185  40.488  28.117  11.667
13926W        W79186  14.900  14.571  14.768
13927W        W79187  16.192  37.466   2.767
13928W        W79188  42.857  10.022   2.164
13929W        W79189  13.323  36.084   1.235
13930W        W79190  10.421  24.615   0.985
13931W        W79191  14.040  22.794  11.095
13932W        W79192  36.038  16.764   2.410
13933W        W79193  26.979   5.204   3.362
13934W        W79194  37.325  40.494   3.153
13935W        W79195  10.333  34.738  13.789
13936W        W79196  31.370  30.472   4.096
13937W        W79197  24.958  12.081  10.504
13938W        W79198  30.418  27.565   0.471
13939W        W79199  28.572  27.468   4.845
13940W        W79200  25.744  39.355   4.258
13941W        W79201  32.247   6.334   1.316
13942W        W79202   5.542  43.797   1.932
13943W        W79203  43.835  41.847  10.680
13944W        W79204   7.835   7.742   0.535
13945W        W79205  11.363  17.068  14.566
13946W        W79206   0.325  43.158  11.584
13947W        W79207  32.340  33.246   2.680
13948W        W79208  26.577   5.782  11.253
13949W        W79209   1.366  43.316   1.850
13950W        W79210  31.894  34.176  14.788
13951W        W79211  27.343  24.083   1.614
13952W        W79212  23.482  42.365  11.100
13953W        W79213  17.550  43.224   4.436
13954W        W79214   8.364  32.143  14.563
13955W        W79215  44.947  26.207  12.302
13956W        W79216  26.160  23.119   0.877
13957W        W79217  23.068   6.056   4.833
13958W        W79218  32.436  30.071  14.317
13959W        W79219  33.105  17.113   1.375
13960W        W79220  39.426  18.312   0.980
13961W        W79221  35.901  12.690  12.121
13962W        W79222  17.424  23.320   1.902
13963W        W79223  39.535  40.445  12.373
13964W        W79224  16.231  17.601  12.681
13965W        W79225   2.962  34.053   1.367
13966W        W79226   1.483   5.879   4.298
13967W        W79227   2.500   3.362   2.189
13968W        W79228  32.704  31.053   2.104
13969W        W79229  32.736   9.022  12.118
13970W        W79230   1.458  11.780   4.936
13971W        W79231  34.661  11.312  12.062
13972W        W79232  42.803   8.635   1.725
13973W        W79233   4.260  37.035  12.513
13974W        W79234  38.135   0.175   4.015
13975W        W79235   0.511  21.642  11.469
13976W        W79236  19.730  27.676  14.863
13977W        W79237  42.985  20.973  10.738
13978W        W79238  30.592  25.492   1.864
13979W        W79239   9.069  38.474  14.969
13980W        W79240  16.112  22.332   0.044
13981W        W79241  35.181  32.639  12.373
13982W        W79242   8.140  24.718   0.432
13983W        W79243  23.103  12.586  13.456
13984W        W79244  31.507   3.839  13.338
13985W        W79245   1.042  38.105  14.854
13986W        W79246  14.630   4.714  13.498
13987W        W79247  40.557  30.714  10.714
13988W        W79248  44.406  24.984  10.154
13989W        W79249  12.214   8.911   0.518
13990W        W79250   2.451  26.833  12.104
13991W        W79251  35.108  31.224  13.572
13992W        W79252  24.509   3.751  14.954
13993W        W79253   6.379  26.411   0.775
13994W        W79254  39.521  41.242  12.226
13995W        W79255   6.610   1.140  12.080
13996W        W79256   8.860  10.781  13.409
13997W        W79257  15.090  28.055  14.720
13998W        W79258  38.787  11.706   2.724
13999W        W79259  14.066  36.147   2.437
14000W        W79260  24.742  40.895   4.553
14001W        W79261  10.545  42.779   3.211
14002W        W79262  33.989   0.474  12.506
14003W        W79263   4.470  19.976  13.875
14004W        W79264  40.918   0.454  13.834
14005W        W79265  26.578   7.048   3.785
14006W        W79266  14.317  29.393  12.829
14007W        W79267  25.602  12.161  14.426
14008W        W79268   0.827  28.255  12.368
14009W        W79269  18.792  33.201  11.133
14010W        W79270   1.117  17.840   1.579
14011W        W79271  34.038   7.797  14.459
14012W        W79272  21.503  36.658  11.654
14013W        W79273  13.821  14.429  11.183
14014W        W79274  33.831  12.399  14.390
14015W        W79275   8.381  20.257  12.158
14016W        W79276  14.914  34.502   2.327
14017W        W79277   4.590  25.551  11.042
14018W        W79278   9.751   3.381   1.268
14019W        W79279  20.339  16.455   4.261
14020W        W79280  14.028  24.181  13.129
14021W        W79281  14.101  12.310   3.875
14022W        W79282  15.446   8.584   4.287
14023W        W79283  34.602  26.634  13.843
14024W        W79284  35.303   5.900   0.391
14025W        W79285  14.641  15.654  13.638
14026W        W79286  26.965  25.675   2.221
14027W        W79287  20.307  40.465  14.590
14028W        W79288  25.659  37.446  11.603
14029W        W79289   2.520   2.983   3.757
14030W        W79290  19.244  32.544   3.383
14031W        W79291  27.935  44.964  14.342
14032W        W79292   0.373  15.646  10.295
14033W        W79293   1.774  37.112   1.215
14034W        W79294   0.550  15.273  11.517
14035W        W79295  14.157   4.277   3.305
14036W        W79296  36.964  42.606  12.126
14037W        W79297  39.990  34.571   0.793
14038W        W79298   3.831   6.579  14.775
14039W        W79299  37.109  12.249  14.486
14040W        W79300  23.959   2.348   4.670
14041W        W79301  24.510   4.454  14.471
14042W        W79302  22.305  25.014  11.195
14043W        W79303   6.554   6.436  12.540
14044W        W79304   8.937  10.727   4.112
14045W        W79305  21.258  20.623  14.407
14046W        W79306  34.601   8.718  11.195
14047W        W79307  23.958  41.182  10.858
14048W        W79308  23.149   7.318  14.347
14049W        W79309  19.728   3.896   4.252
14050W        W79310  27.978  40.401   4.537
14051W        W79311   8.870   5.173  11.151
14052W        W79312  43.169  40.602   3.649
14053W        W79313  11.674   5.500   2.796
14054W        W79314  44.859  42.556  13.870
14055W        W79315  44.340  23.364  11.952
14056W        W79316  41.047  29.030  13.359
14057W        W79317  23.312  14.121   3.597
14058W        W79318  18.502  14.594  12.185
14059W        W79319   2.025  28.031   3.008
14060W        W79320  15.084  37.165  11.173
14061W        W79321   5.662  33.238  14.956
14062W        W79322  26.070  32.578   1.498
14063W        W79323   6.171  13.287  13.264
14064W        W79324  14.888  31.067  12.921
14065W        W79325   5.915   3.698   2.887
14066W        W79326   1.557  21.533  12.525
14067W        W79327  41.214  13.403  14.883
14068W        W79328  20.239  41.330  13.373
14069W        W79329  28.205  21.516   2.076
14070W        W79330  12.385   3.370   2.276
14071W        W79331  24.001  41.632   2.253
14072W        W79332  40.560  14.657  12.548
14073W        W79333  43.598  36.510   4.493
14074W        W79334  19.835  44.434   1.373
14075W        W79335  30.549  38.076   5.138
14076W        W79336  11.297  18.291   2.847
14077W        W79337  16.642  27.444  12.040
14078W        W79338  22.671  20.647  11.545
14079W        W79339   3.973  20.983  12.451
14080W        W79340  37.299   4.539   1.817
14081W        W79341   9.844  14.454  11.327
14082W        W79342   6.447  23.623   0.699
14083W        W79343  43.373  31.908  13.128
14084W        W79344  28.150  35.741  12.831
14085W        W79345  30.459  37.977   0.731
14086W        W79346  39.909  14.529  14.254
14087W        W79347  40.958  19.040  14.813
14088W        W79348   6.062  37.014   3.106
14089W        W79349  12.311  37.707  13.353
14090W        W79350   6.160   5.462  13.789
14091W        W79351  25.981  14.387   4.104
14092W        W79352  19.768   0.516  13.390
14093W        W79353  40.936  32.583  12.591
14094W        W79354  23.794   3.315  13.822
14095W        W79355   8.747  37.784  10.963
14096W        W79356  37.719  11.864   4.602
14097W        W79357   5.613  34.117   4.554
14098W        W79358  26.157   1.896   0.546
14099W        W79359  42.985  36.024   2.846
14100W        W79360   6.540  36.848   3.200
14101W        W79361   6.861   8.911   4.093
14102W        W79362  44.929  39.806  13.291
14103W        W79363  25.490  34.636  13.569
14104W        W79364  35.920  34.391  10.755
14105W        W79365   6.192  44.015  14.786
14106W        W79366  29.160   7.757  11.575
14107W        W79367   3.328  13.613  14.813
14108W        W79368  11.015  37.514   0.955
14109W        W79369   7.719   1.321   0.923
14110W        W79370   4.962  33.593   3.729
14111W        W79371  20.296  29.173   0.402
14112W        W79372  20.768  35.069   4.300
14113W        W79373  12.088   0.348  14.464
14114W        W79374  16.783  27.742   0.057
14115W        W79375  37.462   4.847  10.445
14116W        W79376  38.536  11.655   2.299
14117W        W79377  23.549  22.585  14.674
14118W        W79378  43.794  20.569   3.986
14119W        W79379   7.457  44.314   0.038
14120W        W79380  23.242   3.224  12.943
14121W        W79381  38.577  32.931  10.637
14122W        W79382  10.634  36.010   2.838
14123W        W79383  23.343  24.018  13.894
14124W        W79384  40.939  34.822  14.568
14125W        W79385  10.892  23.680   3.204
14126W        W79386  14.140   2.953   3.398
14127W        W79387  37.891  25.360  10.715
14128W        W79388   9.374  26.830   4.186
14129W        W79389  14.573  25.858   1.791
14130W        W79390  30.901  17.110   1.778
14131W        W79391   6.859   8.615   2.337
14132W        W79392  22.561  14.708   3.574
14133W        W79393  23.814  29.910  11.194
14134W        W79394   3.717  34.846  10.749
14135W        W79395  24.590  19.570   2.398
14136W        W79396   1.250  29.254  12.393
14137W        W79397  29.437  20.998   1.774
14138W        W79398  22.286   0.187  14.145
14139W        W79399  18.144   3.856  13.232
14140W        W79400   6.643  19.671   1.541
14141W        W79401  31.685  37.280  13.404
14142W        W79402  13.552   3.638  11.923
14143W        W79403  22.917  22.667  14.179
14144W        W79404   5.422  13.852   4.036
14145W        W79405  42.822  23.961   4.143
14146W        W79406  27.966  12.097   0.709
14147W        W79407  34.932  42.825  14.442
14148W        W79408  31.932  38.809  10.775
14149W        W79409  14.135   9.907   1.965
14150W        W79410  21.714  41.143  12.555
14151W        W79411  43.978  34.401   1.936
14152W        W79412   9.874  29.646  11.541
14153W        W79413  21.510  44.869  10.676
14154W        W79414   3.887  10.938   2.283
14155W        W79415  17.474  19.888   0.867
14156W        W79416   2.770  36.189   1.659
14157W        W79417  13.918  27.726  14.624
14158W        W79418  39.740  27.022   1.374
14159W        W79419   6.018  32.200  10.110
14160W        W79420  44.798   4.360   4.516
14161W        W79421  34.588  21.450  11.122
14162W        W79422  29.001  11.167   1.907
14163W        W79423  18.286  20.228   3.686
14164W        W79424   9.278   1.906   3.068
14165W        W79425   6.279  17.642   3.618
14166W        W79426  18.286   6.443   2.128
14167W        W79427  33.982   6.305  13.760
14168W        W79428  10.229   8.010  14.376
14169W        W79429  30.616  19.667  11.160
14170W        W79430  21.726   6.631   1.062
14171W        W79431  19.097  18.589  13.826
14172W        W79432  27.657  20.149  10.737
14173W        W79433  22.721  25.536   3.661
14174W        W79434  11.142  38.503  11.455
14175W        W79435  32.011  32.044   3.701
14176W        W79436  12.881  43.050   4.105
14177W        W79437  34.918  31.049  13.123
14178W        W79438  37.199   4.310  10.222
14179W        W79439  36.886  36.010   1.023
14180W        W79440  23.671  28.096   2.254
14181W        W79441   0.388  24.325  14.010
14182W        W79442  10.141  40.896  12.002
14183W        W79443   8.619  11.222  11.647
14184W        W79444  41.861  16.252   3.225
14185W        W79445  36.350   5.056   0.452
14186W        W79446  18.056  15.755   2.835
14187W        W79447  31.057   6.194  12.275
14188W        W79448   0.482   6.605   4.188
14189W        W79449   7.606   2.766  13.281
14190W        W79450  24.091  43.914  14.285
14191W        W79451  37.081  30.670   3.512
14192W        W79452  19.957  25.397   2.869
14193W        W79453  21.218  44.709   4.355
14194W        W79454   8.378  28.960   4.169
14195W        W79455  11.225  37.159   4.054
14196W        W79456  24.482  18.097  14.662
14197W        W79457   7.109  12.425   0.877
14198W        W79458  27.696  27.054   0.539
14199W        W79459  36.898  20.278   1.085
14200W        W79460  13.948  15.591  10.500
14201W        W79461  44.565  31.503  12.670
14202W        W79462  13.173  26.460   2.766
14203W        W79463  30.586  11.721  14.310
14204W        W79464   2.450  29.221   0.767
14205W        W79465  21.295  13.861   0.253
14206W        W79466  40.384  40.824  11.507
14207W        W79467   8.392  38.516  13.783
14208W        W79468  42.840  13.435  12.148
14209W        W79469  10.068   0.387  12.474
14210W        W79470  22.501  36.689  12.606
14211W        W79471  29.294  34.376  12.664
14212W        W79472  26.507   0.075  14.241
14213W        W79473  18.236  22.684   1.133
14214W        W79474  41.779  23.426   3.862
14215W        W79475  38.585   4.366   3.155
14216W        W79476   6.461  44.992  11.565
14217W        W79477   1.627  12.637  14.903
14218W        W79478  19.054  12.789  10.678
14219W        W79479  44.736  24.585  14.507
14220W        W79480   3.352  29.936  12.879
14221W        W79481   4.162   7.767   1.635
14222W        W79482   0.025   6.022  14.865
14223W        W79483   7.963  40.029  12.512
14224W        W79484  23.596  44.815  11.459
14225W        W79485  11.391  39.628  11.923
14226W        W79486  43.560   6.650  13.649
14227W        W79487  17.336   9.753  10.977
14228W        W79488  36.524  29.222  12.465
14229W        W79489   9.307  43.256  13.763
14230W        W79490  31.063   7.167  14.411
14231W        W79491  36.866  33.769   3.078
14232W        W79492  35.489   9.934  13.916
14233W        W79493   9.774  32.605   0.274
14234W        W79494  38.548  34.036  14.849
14235W        W79495  36.595  24.020   4.005
14236W        W79496  38.460  43.713  13.413
14237W        W79497  31.437  42.078  13.472
14238W        W79498  29.622   8.261   2.292
14239W        W79499  27.981   4.684   2.716
14240W        W79500  29.445  13.689  13.383
14241W        W79501  11.298  32.354   3.578
14242W        W79502  41.149  21.105  11.809
14243W        W79503  44.585  11.804   3.378
14244W        W79504  43.858   4.363   2.152
14245W        W79505  10.604   4.220   2.798
14246W        W79506  19.547  40.563  12.509
14247W        W79507  40.482  15.354  13.029
14248W        W79508   5.365   0.565   0.446
14249W        W79509  43.751   7.104  12.561
14250W        W79510  31.514  23.380  12.964
14251W        W79511   2.795   8.693   0.987
14252W        W79512  32.890  21.842   3.109
14253W        W79513  28.734  18.292  13.487
14254W        W79514   3.449  41.018   2.803
14255W        W79515  26.511  14.657  14.001
14256W        W79516  19.144  38.367  14.445
14257W        W79517  39.409  17.048   0.600
14258W        W79518   0.466   2.629   4.511
14259W        W79519  32.317  27.382  14.805
14260W        W79520  12.091  41.337   4.881
14261W        W79521  36.399  36.833   3.256
14262W        W79522  23.058  44.466  13.060
14263W        W79523  18.249   1.105   4.588
14264W        W79524  23.244  21.252   3.391
14265W        W79525  44.438   7.305   1.822
14266W        W79526  29.553  35.927   2.233
14267W        W79527  20.137  17.855   0.267
14268W        W79528  31.856  19.812   2.704
14269W        W79529   3.757  22.595   4.668
14270W        W79530   3.627  24.005  14.796
14271W        W79531  27.805  25.626  10.773
14272W        W79532  10.616  43.451   0.798
14273W        W79533  26.006   2.709  12.904
14274W        W79534   6.200  41.994  10.675
14275W        W79535   8.741  42.432   3.328
14276W        W79536  21.098  24.014  11.208
14277W        W79537   4.853  33.993   2.843
14278W        W79538   4.824  41.061  10.676
14279W        W79539  19.297  15.793   1.360
14280W        W79540  31.044  33.166   3.658
14281W        W79541  16.717  10.832   0.722
14282W        W79542  39.106   3.732   1.911
14283W        W79543  19.582  33.029   1.782
14284W        W79544  22.789  40.176   2.715
14285W        W79545  26.337  11.753   4.053
14286W        W79546   2.771  29.171  11.610
14287W        W79547   1.864  23.026   3.883
14288W        W79548  31.564   5.464  13.833
14289W        W79549  21.792  41.570   1.818
14290W        W79550  39.387   2.945   1.075
14291W        W79551  43.326  43.435   4.239
14292W        W79552   4.657  14.768  10.734
14293W        W79553   2.953  39.952   4.354
14294W        W79554  19.374   8.408  10.594
14295W        W79555  19.508  14.088  12.599
14296W        W79556  24.147   6.012   2.002
14297W        W79557  24.983  14.785  11.114
14298W        W79558  13.374  28.530   2.769
14299W        W79559  13.288  40.331  11.830
14300W        W79560  43.810  26.458   0.240
14301W        W79561  14.173  30.972   1.199
14302W        W79562  39.177   1.193   0.320
14303W        W79563  34.503  27.639   1.270
14304W        W79564   5.354  17.859   0.387
14305W        W79565  22.021  42.355  12.466
14306W        W79566  26.703  27.066  12.944
14307W        W79567  32.470  10.273   4.851
14308W        W79568  31.342  38.432   1.650
14309W        W79569  36.899  15.511   0.313
14310W        W79570   6.869  10.378   0.814
14311W        W79571  39.326   8.868  14.231
14312W        W79572  37.584  16.244  12.357
14313W        W79573  32.521  26.437  13.011
14314W        W79574  26.660   1.155  10.700
14315W        W79575   9.269  19.975  11.024
14316W        W79576  37.826  41.979  10.741
14317W        W79577  44.788  34.271  14.836
14318W        W79578   0.382   3.758   2.386
14319W        W79579   1.285   5.923  14.393
14320W        W79580  30.388  22.667  12.148
14321W        W79581  37.676  16.630  12.022
14322W        W79582  11.445   7.612   0.427
14323W        W79583  38.775   5.936  11.177
14324W        W79584  33.772  18.881  13.029
14325W        W79585  27.461  30.411   2.738
14326W        W79586   3.245  35.870   4.105
14327W        W79587   1.773  18.344   3.620
14328W        W79588  37.385  20.637   2.171
14329W        W79589  15.318  30.612   0.320
14330W        W79590  41.348  30.163   1.963
14331W        W79591  28.907   0.092   2.713
14332W        W79592  29.564   8.472  13.748
14333W        W79593  26.723  33.537  10.616
14334W        W79594  27.518  44.682   3.997
14335W        W79595   8.948  38.966  14.843
14336W        W79596  17.169  32.115  14.762
14337W        W79597  22.192   2.908   0.781
14338W        W79598  11.148  16.170  11.632
14339W        W79599  36.253  12.314  12.212
14340W        W79600  43.805  24.249  14.428
14341W        W79601  23.102  37.452   0.885
14342W        W79602  39.344  32.837  12.875
14343W        W79603  14.221  25.817  12.791
14344W        W79604   6.318  10.750  11.537
14345W        W79605  39.604  26.638  14.494
14346W        W79606  19.097  35.139   1.930
14347W        W79607  14.880  31.716  14.495
14348W        W79608  13.250  15.170  10.911
14349W        W79609  30.023  42.592  14.361
14350W        W79610  36.337  29.352   3.824
14351W        W79611   7.771   3.255  11.578
14352W        W79612   5.495  40.620  10.615
14353W        W79613   6.841  44.367  11.559
14354W        W79614  30.585   2.390   1.780
14355W        W79615  17.165   0.018  11.176
14356W        W79616  32.020  34.020   3.526
14357W        W79617   3.306   5.657   0.770
14358W        W79618  14.127  31.285  13.325
14359W        W79619  22.023  23.634  11.119
14360W        W79620  39.486  18.300   1.546
14361W        W79621  41.424  20.278  13.005
14362W        W79622  17.560  36.553   0.448
14363W        W79623  31.944   9.458  10.453
14364W        W79624  31.934  43.535   2.940
14365W        W79625  37.840   8.357   0.358
14366W        W79626  11.351   1.345   2.124
14367W        W79627  40.873   0.390  12.509
14368W        W79628  28.395   4.369   1.796
14369W        W79629   7.944   2.328  11.735
14370W        W79630  22.043  31.927  11.946
14371W        W79631  23.194   8.647  13.788
14372W        W79632  11.423   1.877   3.243
14373W        W79633  36.997   5.776  11.430
14374W        W79634  17.931  11.527   0.403
14375W        W79635  37.831  14.226   3.738
14376W        W79636  43.808   6.822   2.164
14377W        W79637  12.559  11.909   1.831
14378W        W79638  30.380   0.179   0.297
14379W        W79639  10.374  37.156  13.881
14380W        W79640  18.815  27.158   2.679
14381W        W79641  11.151   8.192  11.939
14382W        W79642  28.740  18.246  12.574
14383W        W79643   1.017  42.517  11.560
14384W        W79644  20.265   7.331  10.708
14385W        W79645   8.870  42.085  10.714
14386W        W79646   1.854   3.156   3.316
14387W        W79647  25.596  37.445  11.085
14388W        W79648  15.165  33.395  14.926
14389W        W79649  33.676   7.817   4.891
14390W        W79650  30.394   1.273  14.504
14391W        W79651  40.273   8.748  13.891
14392W        W79652  24.474  30.057   3.624
14393W        W79653  34.858  36.712  12.931
14394W        W79654  12.302  38.982  11.523
14395W        W79655  25.927   2.857   2.348
14396W        W79656  29.873  42.335  13.403
14397W        W79657   4.226   2.872   3.262
14398W        W79658  29.521   3.294   3.189
14399W        W79659   0.450  21.975   1.544
14400W        W79660  29.385  19.642  11.638
14401W        W79661  21.652  18.336  14.033
14402W        W79662  37.803  10.252   4.365
14403W        W79663  16.503   7.287   2.185
14404W        W79664   6.138  32.990  13.484
14405W        W79665  38.403  42.834  13.516
14406W        W79666  26.171  12.153   1.392
14407W        W79667   8.090  35.319   4.110
14408W        W79668  30.976  20.274   3.138
14409W        W79669  40.199  40.900   4.628
14410W        W79670   0.567   9.032   0.074
14411W        W79671  32.915  14.169   4.985
14412W        W79672  31.954   2.255   2.596
14413W        W79673  20.957   4.118  14.819
14414W        W79674   3.655   8.219   4.660
14415W        W79675  12.795  16.627  11.478
14416W        W79676  21.454  11.771  13.534
14417W        W79677  28.304  29.488   3.611
14418W        W79678   1.419   6.179  11.357
14419W        W79679  19.544  26.859   3.175
14420W        W79680  41.296  17.719   2.201
14421W        W79681  34.397  30.381   0.089
14422W        W79682  16.391  31.033  14.928
14423W        W79683  38.157  24.551   2.968
14424W        W79684  36.165  37.443   2.203
14425W        W79685  37.837  16.518  12.801
14426W        W79686  24.135   0.659  13.013
14427W        W79687  39.425  23.171  11.162
14428W        W79688   2.969   9.656  14.511
14429W        W79689  21.225  28.708   3.698
14430W        W79690  29.774  18.446   0.232
14431W        W79691  19.469   9.826  14.192
14432W        W79692  11.707  22.793   0.849
14433W        W79693  30.221  28.652   0.195
14434W        W79694  16.952  12.265   1.800
14435W        W79695   8.237   5.241  13.720
14436W        W79696   7.385   1.446  12.032
14437W        W79697   9.809  33.287   1.661
14438W        W79698   4.241  44.207  13.603
14439W        W79699  39.467   9.733  14.370
14440W        W79700   8.324  24.173   4.159
14441W        W79701  32.825  43.257  13.463
14442W        W79702  35.991   7.235  11.276
14443W        W79703   6.973   9.006   5.314
14444W        W79704  30.130  33.342  10.709
14445W        W79705  37.635  35.519  12.437
14446W        W79706  32.806  27.997   4.594
14447W        W79707   7.458  16.838   0.979
14448W        W79708  30.684  17.282  10.708
14449W        W79709   5.642  32.585  14.755
14450W        W79710  20.963   6.865   2.057
14451W        W79711   8.073  19.069  12.660
14452W        W79712   6.449  38.424   0.401
14453W        W79713  34.794  39.333  12.974
14454W        W79714   2.949  19.010  11.663
14455W        W79715  33.148  25.070   0.445
14456W        W79716  39.895  22.125   2.791
14457W        W79717  44.289  18.470  11.912
14458W        W79718  18.249   9.757   3.172
14459W        W79719  21.549  20.040   4.562
14460W        W79720  39.989  39.494   4.893
14461W        W79721  38.487  23.973   0.369
14462W        W79722   8.216   9.783   1.065
14463W        W79723   2.100  15.342  12.334
14464W        W79724  26.223  13.741  14.009
14465W        W79725   8.311  10.058   3.245
14466W        W79726  39.756  23.910  11.435
14467W        W79727  44.455  35.051  14.025
14468W        W79728  38.040  40.310  10.589
14469W        W79729  34.567  31.580  10.649
14470W        W79730   9.814   0.080  14.402
14471W        W79731  37.791  43.439   1.803
14472W        W79732  41.205  21.120   4.304
14473W        W79733  32.142  39.277   3.301
14474W        W79734  31.587  40.462  10.627
14475W        W79735  39.337  19.556  13.698
14476W        W79736   4.197  36.433   3.915
14477W        W79737   4.752  29.363  12.623
14478W        W79738   3.481   8.176  13.083
14479W        W79739   7.529  26.139   4.975
14480W        W79740  44.217  40.855   1.899
14481W        W79741   5.820   9.177  12.066
14482W        W79742  26.708  27.538  11.500
14483W        W79743  33.151   4.483   4.459
14484W        W79744  13.151   6.464  11.163
14485W        W79745   4.365   3.207   2.239
14486W        W79746  25.455  15.031   3.530
14487W        W79747  30.604  38.813   2.702
14488W        W79748   0.249   9.453   1.884
14489W        W79749  28.165   5.133  11.569
14490W        W79750  25.714  36.556   3.817
14491W        W79751  26.505  32.579   0.873
14492W        W79752  29.164  36.457  13.490
14493W        W79753  21.222  42.561   1.846
14494W        W79754  15.129  23.900   2.350
14495W        W79755   6.994   9.699   2.201
14496W        W79756   9.464  10.050  12.925
14497W        W79757  23.230  28.949  14.017
14498W        W79758  28.866  30.637  11.981
14499W        W79759  38.478   6.185   4.940
14500W        W79760  14.384   7.322  10.797
14501W        W79761  32.752  17.032  11.068
14502W        W79762   7.251   9.093  14.475
14503W        W79763  36.343  23.841   1.651
14504W        W79764  19.556   5.332  14.427
14505W        W79765  33.889  22.839   2.823
14506W        W79766   4.209   1.582   1.776
14507W        W79767  11.564  33.064   1.697
14508W        W79768  26.027  32.145  13.937
14509W        W79769  13.649  24.460   2.835
14510W        W79770  30.810   7.411   2.818
14511W        W79771   8.344  16.001   2.427
14512W        W79772   0.010  38.822   2.806
14513W        W79773   5.551  28.116  13.002
14514W        W79774  42.456  11.815   2.396
14515W        W79775  14.087  29.626  13.320
14516W        W79776   7.622  35.368  14.041
14517W        W79777  10.568   0.801   2.434
14518W        W79778   7.410  27.698  12.555
14519W        W79779   4.353  11.620  12.511
14520W        W79780  27.659  16.302  12.196
14521W        W79781  38.188  16.491  14.832
14522W        W79782  36.629   4.226  14.472
14523W        W79783  25.780  16.682  14.123
14524W        W79784   9.821  30.158   3.211
14525W        W79785  39.899  44.233  11.317
14526W        W79786  22.042   9.730   0.390
14527W        W79787   8.314  37.835  13.094
14528W        W79788  38.327  43.752  12.093
14529W        W79789  12.386  20.040  12.872
14530W        W79790  18.334   7.656   1.054
14531W        W79791   6.305   1.538   1.323
14532W        W79792   2.479  29.447   3.200
14533W        W79793   0.913  37.667   3.560
14534W        W79794  37.454  35.423  13.946
14535W        W79795  24.967   2.736   3.265
14536W        W79796  34.196  40.409  14.386
14537W        W79797  19.510  13.417   4.175
14538W        W79798  31.546   1.273   4.191
14539W        W79799  18.019  26.672  14.045
14540W        W79800  21.454  43.456   1.620
14541W        W79801  19.365   6.450   4.483
14542W        W79802  26.936  35.299  10.287
14543W        W79803  41.298  40.331   5.038
14544W        W79804   0.586  11.134   3.260
14545W        W79805  34.942   8.221  14.408
14546W        W79806  42.733  20.594  14.410
14547W        W79807  18.639  15.200   2.583
14548W        W79808   4.319   5.584  10.530
14549W        W79809   3.484   4.649  14.020
14550W        W79810  11.905  11.207  13.414
14551W        W79811  17.127  24.523  10.962
14552W        W79812  40.525  34.619  12.556
14553W        W79813  14.787  40.241  10.570
14554W        W79814  19.595  44.381  12.459
14555W        W79815  41.338  27.793   1.934
14556W        W79816  13.608  24.802  11.164
14557W        W79817   1.860  10.212   0.483
14558W        W79818  33.541  20.042   4.165
14559W        W79819  27.559  39.043  14.890
14560W        W79820  21.535  38.485   1.038
14561W        W79821  16.033  12.017   4.603
14562W        W79822   5.875  24.181  11.581
14563W        W79823  22.944   0.418  11.110
14564W        W79824  42.013  13.230   4.622
14565W        W79825  44.130   9.740  12.136
14566W        W79826   6.945  11.931   4.426
14567W        W79827  19.723  35.244  10.286
14568W        W79828  32.369  26.388   1.967
14569W        W79829  22.108  34.618   3.639
14570W        W79830   1.879  15.652  11.986
14571W        W79831  23.938  10.303  11.102
14572W        W79832  25.307  11.711   0.993
14573W        W79833  43.398  24.527  14.279
14574W        W79834  13.297  18.785  11.162
14575W        W79835  20.578  25.004  14.271
14576W        W79836  27.013  27.503  13.827
14577W        W79837  12.094  13.658  12.191
14578W        W79838  16.076  10.798   0.006
14579W        W79839  38.830  36.814   1.170
14580W        W79840  38.462  31.424   2.327
14581W        W79841  22.045  28.034  13.392
14582W        W79842  32.703  19.610   4.624
14583W        W79843   7.280   7.042   0.587
14584W        W79844  11.390  39.378  13.427
14585W        W79845  29.410  28.967  14.417
14586W        W79846  27.663   9.375   1.255
14587W        W79847  32.748   6.952  13.821
14588W        W79848   1.939   1.472   2.160
14589W        W79849   7.319  39.253  13.821
14590W        W79850  10.733   0.263  12.458
14591W        W79851  33.413  33.287   4.739
14592W        W79852  28.955   2.899  13.527
14593W        W79853   3.212  14.016   0.147
14594W        W79854  31.930   5.408   2.616
14595W        W79855  18.270  44.087   1.779
14596W        W79856  15.229  22.997   3.349
14597W        W79857   4.641  42.635   4.029
14598W        W79858  36.133  23.975   3.427
14599W        W79859  13.546  21.808   3.644
14600W        W79860  20.525  38.661   3.189
14601W        W79861  39.211  15.755  14.348
14602W        W79862  29.515  23.467   4.370
14603W        W79863  16.026  40.293   1.299
14604W        W79864  20.816  35.425  12.474
14605W        W79865  23.471  34.579   3.079
14606W        W79866  43.549  40.075  13.948
14607W        W79867  38.332  20.193   3.718
14608W        W79868  41.435   7.324   1.758
14609W        W79869  40.782   7.964  13.620
14610W        W79870  30.081  30.187  11.178
14611W        W79871   6.262  19.607   5.041
14612W        W79872  33.915   0.454  13.259
14613W        W79873  31.013  23.914  12.618
14614W        W79874  39.744  36.592   2.946
14615W        W79875  36.145   8.946   1.179
14616W        W79876  40.928   1.229  10.633
14617W        W79877  44.516  16.729   2.843
14618W        W79878  32.238   8.356  12.526
14619W        W79879  17.734  20.105  13.107
14620W        W79880  25.753  39.338   1.838
14621W        W79881  26.066  35.035  10.402
14622W        W79882  23.741  21.250   3.230
14623W        W79883  24.591  42.219  13.638
14624W        W79884  10.307  33.992   1.959
14625W        W79885  38.037   0.648  13.934
14626W        W79886  15.680  42.331  12.970
14627W        W79887  26.139   3.538   1.996
14628W        W79888  24.114  22.117   0.329
14629W        W79889  42.630   9.192  12.931
14630W        W79890  34.649  43.663  12.177
14631W        W79891  22.924   4.847  11.896
14632W        W79892   7.571  33.196  12.002
14633W        W79893   8.297  16.935   0.899
14634W        W79894   6.212  36.063   1.637
14635W        W79895  25.575   7.100   0.819
14636W        W79896   7.231  26.493   1.426
14637W        W79897   0.781  13.780  13.230
14638W        W79898   5.826  28.595   5.006
14639W        W79899  17.801  35.562  10.628
14640W        W79900   1.228  13.727  13.465
14641W        W79901   9.920   0.892   3.993
14642W        W79902   6.667  38.528  10.803
14643W        W79903  43.477  25.466   0.759
14644W        W79904  44.647   7.859   2.170
14645W        W79905  30.520  26.184  13.365
14646W        W79906  14.268  10.565  13.899
14647W        W79907  33.178  17.152  12.520
14648W        W79908  14.771   6.665   4.145
14649W        W79909  12.369  43.946   4.959
14650W        W79910  31.523   9.303   2.708
14651W        W79911  29.652  25.069  10.638
14652W        W79912  27.629  24.520   4.632
14653W        W79913  36.009  12.331  13.962
14654W        W79914   2.051  23.887  14.404
14655W        W79915   0.576  22.766  14.904
14656W        W79916   6.278  18.741  13.511
14657W        W79917   6.448  10.213   4.568
14658W        W79918   0.534  12.837  11.662
14659W        W79919  44.767   8.437  11.881
14660W        W79920  42.054  10.139   2.129
14661W        W79921  22.726  42.926   2.170
14662W        W79922  30.793   7.438  14.838
14663W        W79923  40.425   2.474  14.040
14664W        W79924  14.213  28.177   4.558
14665W        W79925  17.059  28.143  10.709
14666W        W79926  32.488  25.051   2.758
14667W        W79927   6.225  19.202   2.253
14668W        W79928   4.454  37.525  12.516
14669W        W79929  42.015   9.289   0.795
14670W        W79930   7.929  24.822   0.925
14671W        W79931   0.917  42.854  10.595
14672W        W79932  42.935  30.869  14.391
14673W        W79933  21.659   4.271   9.830
14674W        W79934   1.247   7.616  11.988
14675W        W79935  25.458  14.996   4.604
14676W        W79936  44.788   9.513  12.756
14677W        W79937  30.026  37.229   2.206
14678W        W79938  32.942  34.834   1.243
14679W        W79939  42.143   6.285   5.049
14680W        W79940  35.292  12.828   3.269
14681W        W79941  37.469  25.308  12.774
14682W        W79942   0.482  38.465  14.964
14683W        W79943   5.684  43.890   3.711
14684W        W79944  36.391  39.473  10.744
14685W        W79945  30.463   4.795   1.180
14686W        W79946  36.975  15.840  13.465
14687W        W79947  24.795  14.577   2.415
14688W        W79948  31.130  11.829  14.225
14689W        W79949  33.118  25.167   3.359
14690W        W79950  16.244   1.819  14.694
14691W        W79951  32.569  25.930  12.969
14692W        W79952  44.067  25.495  12.533
14693W        W79953  33.853  15.341  14.495
14694W        W79954  28.846  28.134  13.755
14695W        W79955   3.740   3.588   3.375
14696W        W79956  10.732  18.703  12.204
14697W        W79957   6.335  37.205  13.165
14698W        W79958  27.895  31.678   0.948
14699W        W79959  10.323  25.615   9.994
14700W        W79960  35.176  43.504  14.222
14701W        W79961   7.742   9.156   2.664
14702W        W79962  38.380  17.017  10.582
14703W        W79963  10.363  22.561   0.310
14704W        W79964  19.130  24.561   2.928
14705W        W79965  24.652  26.542   0.498
14706W        W79966   2.826  15.102  11.724
14707W        W79967  34.978  42.343  14.227
14708W        W79968  19.687  38.027   1.798
14709W        W79969  38.507  33.954   1.667
14710W        W79970  33.219  16.440  13.070
14711W        W79971  19.531  37.292   4.599
14712W        W79972  43.874  33.867   1.751
14713W        W79973  38.444   6.204   1.973
14714W        W79974   7.659  23.950  11.202
14715W        W79975  36.516  29.851   3.753
14716W        W79976  39.236   4.941  14.447
14717W        W79977  25.977  25.218   2.456
14718W        W79978  18.877   1.673   2.400
14719W        W79979  41.742  22.731   3.157
14720W        W79980  17.097  22.572   3.610
14721W        W79981   0.245  17.075   1.255
14722W        W79982  37.933  12.094   3.465
14723W        W79983  44.826  42.294   3.691
14724W        W79984  22.836   6.533   4.760
14725W        W79985  39.243  41.727   0.447
14726W        W79986  22.719  38.556   1.947
14727W        W79987  14.006  12.306  11.567
14728W        W79988  10.895   0.475  13.852
14729W        W79989  17.183   9.070   1.841
14730W        W79990   7.332  43.856  11.054
14731W        W79991  26.239   1.451   2.830
14732W        W79992  13.346  21.577  12.712
14733W        W79993  18.706  40.986  11.555
14734W        W79994  24.637  27.129  12.866
14735W        W79995   0.670  28.706   3.740
14736W        W79996  29.793  23.113   2.443
14737W        W79997  39.869  27.122   4.421
14738W        W79998  30.149   8.327   2.288
14739W        W79999   7.013  10.197   1.325
14740W        W80000   7.711  14.024   3.216
14741W        W80001  33.732  21.684   2.014
14742W        W80002  22.720  16.790   1.682
14743W        W80003   6.253  37.681   3.764
14744W        W80004  26.478  22.996  11.641
14745W        W80005   8.546  35.836  13.241
14746W        W80006  11.306   8.761  13.520
14747W        W80007  16.555  43.744   3.252
14748W        W80008   6.376  28.231   3.177
14749W        W80009  42.060  35.860  12.935
14750W        W80010  12.168  16.319  13.118
14751W        W80011  32.853  36.993  14.307
14752W        W80012  22.660  28.130  14.025
14753W        W80013  25.098  21.043  11.246
14754W        W80014  13.138  27.962   3.733
14755W        W80015  12.363  40.307  11.555
14756W        W80016   2.994  19.582  10.518
14757W        W80017  29.910  44.899  14.515
14758W        W80018  13.203  31.574  13.070
14759W        W80019  10.445  39.956   3.818
14760W        W80020  31.316  20.764   4.643
14761W        W80021  26.559  38.955  12.358
14762W        W80022  33.485   0.688   4.148
14763W        W80023   0.022  30.197   0.842
14764W        W80024  16.113  26.333  10.710
14765W        W80025  43.502  43.477  12.418
14766W        W80026   6.082  19.957  12.799
14767W        W80027  31.405  34.491   2.847
14768W        W80028  23.888  37.555   3.231
14769W        W80029  40.630  35.959   2.305
14770W        W80030  26.631  44.380  11.981
14771W        W80031  35.066  19.648  13.322
14772W        W80032  30.092  28.207   2.785
14773W        W80033   6.033  20.087   0.925
14774W        W80034   8.593   1.340   3.109
14775W        W80035  38.999  34.814   9.797
14776W        W80036  35.139   7.926   2.817
14777W        W80037  20.801  11.811   4.203
14778W        W80038  30.999  14.186  12.971
14779W        W80039  38.528  29.034   1.764
14780W        W80040  20.160  20.530   2.400
14781W        W80041  30.947  43.860  13.180
14782W        W80042   6.266  40.080  13.964
14783W        W80043  17.729  44.788   3.653
14784W        W80044  39.414  18.019   3.075
14785W        W80045  27.174  16.211   0.778
14786W        W80046  23.545  35.339   4.283
14787W        W80047   1.618  36.455  14.714
14788W        W80048  25.926  19.610   2.125
14789W        W80049  17.342  33.425   3.553
14790W        W80050  13.930   5.539  12.220
14791W        W80051   7.062  43.334   0.343
14792W        W80052  31.413  37.878   4.550
14793W        W80053  26.461  44.568   3.146
14794W        W80054  19.470  34.688   2.700
14795W        W80055  26.002  27.695   0.335
14796W        W80056  34.166   4.374  13.848
14797W        W80057  25.430  35.513   3.637
14798W        W80058   4.016   8.407  14.393
14799W        W80059   0.588   8.481   4.206
14800W        W80060  44.920  19.740   2.231
14801W        W80061   8.021  18.532   0.271
14802W        W80062  17.336  19.761  12.961
14803W        W80063  39.510  28.856   2.601
14804W        W80064  42.964   6.096  13.553
14805W        W80065   2.061  33.658   1.183
14806W        W80066   3.528  31.613   1.919
14807W        W80067  44.828  37.904  12.506
14808W        W80068  19.294   5.675   2.377
14809W        W80069  31.981  42.848  14.713
14810W        W80070  33.264   6.831  14.803
14811W        W80071   9.341  36.484  11.840
14812W        W80072   8.203  26.975   2.616
14813W        W80073   1.416   5.256   3.617
14814W        W80074   6.864   3.669  12.035
14815W        W80075  17.637  42.952   3.634
14816W        W80076  26.915  22.968  14.271
14817W        W80077  26.511   5.959   4.658
14818W        W80078  18.330  23.474  13.462
14819W        W80079  22.409  11.916  13.392
14820W        W80080  25.356  29.929   1.431
14821W        W80081   7.233   3.227   1.867
14822W        W80082  38.613  32.891   1.719
14823W        W80083  31.477  34.200   4.152
14824W        W80084  33.383  38.001   0.395
14825W        W80085  29.625  21.092  13.679
14826W        W80086  33.969  13.552  13.727
14827W        W80087  22.285  29.100   1.315
14828W        W80088   6.393  11.108   4.441
14829W        W80089  37.372  43.397   4.520
14830W        W80090  33.238   9.676   4.745
14831W        W80091  27.651  20.013  11.225
14832W        W80092   7.383  44.691  12.531
14833W        W80093  37.734  26.424   5.088
14834W        W80094  34.167  13.243  13.349
14835W        W80095  37.603  26.269  11.718
14836W        W80096  10.659  38.475  14.223
14837W        W80097  27.945  17.789   1.319
14838W        W80098  24.000   4.843  12.213
14839W        W80099  11.168  10.560   3.668
14840W        W80100  22.605   3.640   0.474
14841W        W80101   8.793  19.965   4.613
14842W        W80102  18.642  38.612   2.680
14843W        W80103   1.497   0.907   0.452
14844W        W80104   5.339  33.848   2.675
14845W        W80105  14.603   1.828  10.615
14846W        W80106  30.031  40.217  11.409
14847W        W80107   7.270  31.098   3.699
14848W        W80108  27.738   3.281   2.187
14849W        W80109  25.538   0.102   2.646
14850W        W80110  25.141  28.464   0.297
14851W        W80111  29.853  26.417   5.349
14852W        W80112  40.862  12.640  12.900
14853W        W80113  14.443  15.174   2.171
14854W        W80114   3.132   7.661   2.850
14855W        W80115  26.288  23.600   4.159
14856W        W80116  15.979   9.934   0.687
14857W        W80117  38.837   4.404   4.349
14858W        W80118   6.424  44.608  13.906
14859W        W80119  24.450  32.009  12.525
14860W        W80120  44.676   3.453   2.646
14861W        W80121  30.539   1.351   3.286
14862W        W80122  30.326   4.344   3.411
14863W        W80123   5.746  38.018  13.877
14864W        W80124  29.141  39.848  13.808
14865W        W80125  20.523  23.092  13.187
14866W        W80126   9.280  30.399   1.274
14867W        W80127  10.788  11.453   0.919
14868W        W80128  13.089  35.105  13.072
14869W        W80129  40.328   3.644  11.062
14870W        W80130  29.897  17.303   4.993
14871W        W80131  12.189  27.578  13.769
14872W        W80132   3.340  10.815   1.794
14873W        W80133  22.250  29.514  10.735
14874W        W80134  38.374  30.411  14.214
14875W        W80135  23.148   6.314   4.399
14876W        W80136   8.685  30.535  11.166
14877W        W80137   0.231  20.032  13.307
14878W        W80138   4.745  42.704  13.164
14879W        W80139  23.550  19.332   3.201
14880W        W80140   8.205  30.749  13.446
14881W        W80141  30.570   7.140  11.711
14882W        W80142   6.615  33.774   4.339
14883W        W80143  14.531   3.773   4.758
14884W        W80144   0.488  32.517   1.793
14885W        W80145  37.139  23.579  13.780
14886W        W80146  42.090   3.783  13.056
14887W        W80147  31.466  20.309   3.333
14888W        W80148  26.055  29.918  12.376
14889W        W80149   5.258   9.267  14.317
14890W        W80150  39.884  26.926  12.873
14891W        W80151  27.527   7.358   4.884
14892W        W80152  21.679  18.263   5.068
14893W        W80153  13.743  35.301   3.665
14894W        W80154  31.586  12.396  12.015
14895W        W80155  16.319  16.805   1.135
14896W        W80156   0.745  13.430   3.586
14897W        W80157   4.154   0.659   4.354
14898W        W80158  14.362   6.257  10.991
14899W        W80159  33.350  23.482  12.023
14900W        W80160  11.131  17.784   0.795
14901W        W80161  36.342  29.521   4.324
14902W        W80162  35.119   7.135   3.062
14903W        W80163   8.136  29.733  13.333
14904W        W80164   7.282  15.136   1.238
14905W        W80165  18.139  23.213   4.632
14906W        W80166   3.612   1.059   1.308
14907W        W80167  32.174  11.981  13.395
14908W        W80168  22.540  17.379  11.851
14909W        W80169  15.701   5.982   3.746
14910W        W80170   4.450  34.976   2.951
14911W        W80171  42.589  10.658   4.141
14912W        W80172  15.308  41.825   1.450
14913W        W80173  16.881  38.697  11.170
14914W        W80174  42.842   0.835  10.721
14915W        W80175   5.616  34.361   0.784
14916W        W80176   9.798  35.413  13.601
14917W        W80177  22.988  43.325   1.361
14918W        W80178   4.819   3.524  11.020
14919W        W80179  28.439  16.660  10.055
14920W        W80180  31.917  19.379   5.004
14921W        W80181  21.171  37.899  12.912
14922W        W80182  35.387   9.749   4.615
14923W        W80183  39.301  33.648  12.404
14924W        W80184  35.353  36.896  14.531
14925W        W80185  29.535  26.777   0.343
14926W        W80186  27.318  29.435   3.677
14927W        W80187  34.119  14.295  12.556
14928W        W80188  31.027  30.440   3.237
14929W        W80189  37.347  21.305  13.810
14930W        W80190  41.393  25.309   3.267
14931W        W80191  27.509  14.224   4.853
14932W        W80192  21.481   9.410   3.661
14933W        W80193  20.808  20.716   2.222
14934W        W80194  19.300   2.277  12.539
14935W        W80195  10.271   4.235   0.559
14936W        W80196   8.088  34.512   2.144
14937W        W80197  17.291  30.586  11.603
14938W        W80198  12.392   4.797  14.113
14939W        W80199  14.605  26.126  11.305
14940W        W80200  25.119  33.796  11.616
14941W        W80201  16.261  29.647  11.211
14942W        W80202  40.769  13.828  11.632
14943W        W80203  13.025  33.148  11.529
14944W        W80204  20.277   8.494   1.044
14945W        W80205  19.701  20.888  14.752
14946W        W80206   8.312  34.684   3.055
14947W        W80207   2.082  33.871  14.001
14948W        W80208  38.485  26.147  12.854
14949W        W80209   5.220  13.665  11.595
14950W        W80210  31.711  16.630   2.707
14951W        W80211  35.977  32.876  11.593
14952W        W80212  24.228   7.702   0.644
14953W        W80213  32.591  39.320   2.713
14954W        W80214  10.163  31.066   9.479
14955W        W80215  22.671  25.776  11.440
14956W        W80216  26.407  23.516   0.483
14957W        W80217  42.753  33.805  14.802
14958W        W80218  21.707  16.580  12.511
14959W        W80219  27.783   6.696   2.337
14960W        W80220  12.741  39.847  12.377
14961W        W80221  31.952  40.356   3.888
14962W        W80222  43.093  27.366   3.168
14963W        W80223   7.315  44.942   3.275
14964W        W80224  12.092  18.629   1.762
14965W        W80225  31.185   5.391  11.267
14966W        W80226  27.555  10.529  13.846
14967W        W80227  42.124   3.426   5.090
14968W        W80228  35.029   5.150  11.110
14969W        W80229  27.752  24.607   3.742
14970W        W80230  44.988  19.778  10.673
14971W        W80231  20.700   4.339   2.212
14972W        W80232   5.385  38.648   0.875
14973W        W80233  23.567   9.224  12.476
14974W        W80234   5.429  44.987   2.353
14975W        W80235  29.017  33.064   0.173
14976W        W80236  30.445  29.905  11.456
14977W        W80237  39.011  15.694   5.053
14978W        W80238  16.368  12.452  13.047
14979W        W80239  31.356   1.938  13.977
14980W        W80240  27.241  15.933   4.609
14981W        W80241  27.964  22.197   2.310
14982W        W80242  36.919  22.642   4.540
14983W        W80243  35.581  20.177   3.748
14984W        W80244  29.384   3.363   4.071
14985W        W80245  37.977  19.818  12.543
14986W        W80246  18.032  41.920   1.646
14987W        W80247   5.143  39.976  12.104
14988W        W80248  42.470   7.353   2.892
14989W        W80249  23.087  37.381   1.393
14990W        W80250  26.237  40.021   4.573
14991W        W80251   8.779  15.131  14.302
14992W        W80252  20.159  37.341   0.557
14993W        W80253  34.463  38.416  13.394
14994W        W80254  43.486   0.339  12.927
14995W        W80255  38.999  22.674  10.647
14996W        W80256  31.046  31.946  13.001
14997W        W80257   0.990   2.887   3.465
14998W        W80258  23.426  14.238  11.715
14999W        W80259  40.909  30.662   0.012
15000W        W80260  37.407  18.575  10.609
15001W        W80261   1.508  29.902   3.649
15002W        W80262  22.774  43.678  11.016
15003W        W80263  44.319  13.715   1.200
15004W        W80264   3.412  42.583   3.577
15005W        W80265  12.364  19.065   2.761
15006W        W80266  29.611  21.207  13.173
15007W        W80267  24.676  20.685   3.693
15008W        W80268  39.309  20.175   2.858
15009W        W80269   7.772  25.394   4.093
15010W        W80270  23.245  25.423  11.526
15011W        W80271  26.556  14.844   1.037
15012W        W80272  33.169  15.684  13.486
15013W        W80273  13.616  23.112  11.097
15014W        W80274  43.895   9.999  12.910
15015W        W80275   4.876  20.711  12.847
15016W        W80276  38.560  25.223   4.211
15017W        W80277  41.819   4.919  11.601
15018W        W80278   6.280  40.617  14.008
15019W        W80279  36.559  17.582  13.607
15020W        W80280   5.347  21.048   3.305
15021W        W80281  12.294  12.630   4.284
15022W        W80282  44.236  11.644   0.371
15023W        W80283   3.110  14.667  11.599
15024W        W80284  32.106   1.765  11.200
15025W        W80285  34.567  23.728   0.223
15026W        W80286  10.856   0.743   0.373
15027W        W80287  28.435  27.083   2.270
15028W        W80288  40.523  26.107   1.483
15029W        W80289  30.039  11.234  11.135
15030W        W80290  35.570  13.719   0.356
15031W        W80291  15.145  43.853   0.885
15032W        W80292   4.328  26.588   1.601
15033W        W80293  38.608   2.686  11.511
15034W        W80294  37.076  18.857  13.914
15035W        W80295  36.035  17.269  11.583
15036W        W80296  37.434  15.468  11.596
15037W        W80297  20.022  31.067  12.909
15038W        W80298   1.721  12.330   2.146
15039W        W80299   4.097  20.292   3.189
15040W        W80300  40.849  39.330   2.275
15041W        W80301   2.002  36.858   0.305
15042W        W80302  25.093   8.262   2.190
15043W        W80303  34.990  28.873  11.169
15044W        W80304  32.247  31.879  10.543
15045W        W80305   7.437  13.679   4.106
15046W        W80306  33.043  12.862   4.671
15047W        W80307  19.213   0.359   0.798
15048W        W80308  12.857  27.537   3.715
15049W        W80309  35.850  24.920   2.448
15050W        W80310  23.742   3.813   2.724
15051W        W80311   5.138  23.040   2.719
15052W        W80312   3.327  41.443  12.286
15053W        W80313  25.732  30.582  14.451
15054W        W80314  12.767  19.075   1.886
15055W        W80315  31.360  32.003  12.089
15056W        W80316  21.679   9.422  10.664
15057W        W80317  10.720  26.168   0.913
15058W        W80318  21.685  11.575   0.862
15059W        W80319   6.222  41.340   3.208
15060W        W80320  31.922   5.841   1.957
15061W        W80321   2.514  24.524   3.681
15062W        W80322  16.563   4.686   1.492
15063W        W80323  28.010  15.749  11.151
15064W        W80324   1.059   5.980  11.013
15065W        W80325  44.445  23.036   0.777
15066W        W80326  39.901   4.687   2.145
15067W        W80327  34.441  17.504  13.033
15068W        W80328  14.066  27.897   2.272
15069W        W80329  20.788  41.516   1.847
15070W        W80330  34.804  15.669   2.650
15071W        W80331  20.268   8.372  13.457
15072W        W80332  20.711  23.274   3.745
15073W        W80333  36.917   5.858  10.893
15074W        W80334  31.151   3.926   4.480
15075W        W80335  32.696   9.912   3.609
15076W        W80336  16.345  15.850   1.302
15077W        W80337  43.334  43.344  11.410
15078W        W80338   7.174  13.939   2.315
15079W        W80339   2.761   5.687  13.033
15080W        W80340  13.691  14.310  14.272
15081W        W80341  26.803  34.140  11.648
15082W        W80342  15.181  36.502   4.785
15083W        W80343  25.532   3.469   1.142
15084W        W80344  29.374  22.917  13.918
15085W        W80345  24.850   2.955   2.369
15086W        W80346  35.860   7.221   0.396
15087W        W80347  14.675  35.425   4.643
15088W        W80348   9.332   2.851   3.468
15089W        W80349  10.812   5.910  12.048
15090W        W80350  36.152   1.913   0.894
15091W        W80351   3.733  24.874  13.129
15092W        W80352  33.686  19.784  13.101
15093W        W80353  21.147  29.078  11.112
15094W        W80354  31.086  10.160  12.016
15095W        W80355  41.010  29.213   4.244
15096W        W80356  34.469   0.227  13.401
15097W        W80357  43.112  40.068   2.811
15098W        W80358  38.859   7.354  10.796
15099W        W80359  44.278  16.822   3.694
15100W        W80360  43.744  30.912  10.936
15101W        W80361  44.890  27.699  12.527
15102W        W80362  19.591  10.085   2.218
15103W        W80363  34.525  11.046  14.518
15104W        W80364  42.246  15.794  14.877
15105W        W80365   7.703  25.503   3.243
15106W        W80366  30.746  28.211   4.091
15107W        W80367  25.774  25.744  10.862
15108W        W80368   2.591  18.744   3.836
15109W        W80369  30.204  10.246   3.817
15110W        W80370  21.120  21.317  11.988
15111W        W80371  19.759  30.952  14.863
15112W        W80372  24.079  32.809   3.204
15113W        W80373  37.500  17.643   0.748
15114W        W80374  30.595  10.327  11.910
15115W        W80375  15.303  22.180  11.155
15116W        W80376  14.740  34.860  11.313
15117W        W80377  31.114   4.980   2.357
15118W        W80378  13.603   1.318   1.657
15119W        W80379   4.439   1.680  12.055
15120W        W80380  32.033  31.451   3.025
15121W        W80381  37.811  31.663   0.439
15122W        W80382  26.538   7.868  14.544
15123W        W80383  29.975   1.408  11.955
15124W        W80384  30.138  18.224  12.433
15125W        W80385   7.948  30.619   4.185
15126W        W80386   4.358  13.189   2.943
15127W        W80387  10.641  38.885   0.838
15128W        W80388  41.757   0.365  12.085
15129W        W80389   5.960  24.167   4.636
15130W        W80390  44.889   6.861  12.911
15131W        W80391   0.936  17.145   2.134
15132W        W80392  40.170  18.268  13.407
15133W        W80393  13.371  19.123   2.619
15134W        W80394  28.597  43.022   5.292
15135W        W80395  15.071  11.081   3.243
15136W        W80396  37.534  25.237   2.050
15137W        W80397  14.653  11.828  12.164
15138W        W80398  32.233   4.777  13.002
15139W        W80399   0.921  11.920  13.446
15140W        W80400  30.285  16.608   4.549
15141W        W80401  29.416  25.298  13.277
15142W        W80402  32.732   4.917   1.170
15143W        W80403  29.004  40.901   2.870
15144W        W80404   8.691  32.194  13.604
15145W        W80405  41.784  11.848  14.238
15146W        W80406  35.114   7.325   0.955
15147W        W80407  19.195  16.101  11.125
15148W        W80408   1.311  14.679   3.870
15149W        W80409   7.324  39.043  12.011
15150W        W80410   0.350   3.675   4.165
15151W        W80411  26.085   2.882  14.893
15152W        W80412   9.285  13.669   3.779
15153W        W80413  27.297  43.554  11.331
15154W        W80414  14.850   6.910   2.766
15155W        W80415  36.219   3.277   1.291
15156W        W80416  23.671  44.745   3.169
15157W        W80417  23.651  39.697   4.738
15158W        W80418  25.736   2.779  10.220
15159W        W80419  15.096   5.717   2.716
15160W        W80420  43.535  33.918   3.372
15161W        W80421  10.799   5.058   3.874
15162W        W80422  33.410  27.304   4.147
15163W        W80423  17.756  36.217   2.870
15164W        W80424   4.190  21.214  11.439
15165W        W80425  41.469  25.452  14.106
15166W        W80426   7.671   1.247  11.192
15167W        W80427   6.289  17.169  13.272
15168W        W80428  37.343  24.224   2.114
15169W        W80429   5.183  38.140  13.336
15170W        W80430  15.206  23.182  14.943
15171W        W80431   8.473  39.954  12.540
15172W        W80432  44.016  22.139  13.531
15173W        W80433  19.962  16.014  13.974
15174W        W80434  33.283  36.480   1.679
15175W        W80435  29.251  36.524   3.728
15176W        W80436   8.903  24.814   0.932
15177W        W80437  25.169  32.168   1.552
15178W        W80438  12.808  21.462   3.857
15179W        W80439  11.339  44.283  13.905
15180W        W80440  43.727  44.358   1.899
15181W        W80441   7.241  15.161   4.575
15182W        W80442  23.972  23.181   3.935
15183W        W80443   0.907   6.675   1.262
15184W        W80444   1.169  18.792   3.414
15185W        W80445  28.612  15.851  13.567
15186W        W80446  37.315  44.703  12.198
15187W        W80447  25.193  42.957   4.568
15188W        W80448  35.357   7.177   4.114
15189W        W80449  42.309  37.078  13.938
15190W        W80450  32.107  36.974  13.537
15191W        W80451  31.727   6.299   1.199
15192W        W80452   4.448   4.524   1.843
15193W        W80453   5.458  42.363   0.393
15194W        W80454   4.736  15.654  13.375
15195W        W80455   2.188   7.773   4.598
15196W        W80456   2.205  29.563   3.643
15197W        W80457  30.137  44.934   4.622
15198W        W80458  29.723  31.510  12.126
15199W        W80459  19.007  34.158  11.197
15200W        W80460  32.300  33.130   4.202
15201W        W80461  10.720  18.607   2.358
15202W        W80462   5.786   5.746   4.168
15203W        W80463  26.192  25.219  13.032
15204W        W80464  25.122  16.723  13.600
15205W        W80465   2.993  27.599  11.081
15206W        W80466  29.438  26.491  12.676
15207W        W80467  20.649   9.816   2.633
15208W        W80468  35.350  36.114  14.080
15209W        W80469  15.650  10.427   2.302
15210W        W80470  11.066  23.421  11.857
15211W        W80471  20.463  23.512  14.355
15212W        W80472  20.773  43.306  13.481
15213W        W80473  10.335   0.722   0.387
15214W        W80474  36.916   9.701  10.826
15215W        W80475  38.925   3.941   1.477
15216W        W80476  24.262   2.428   3.935
15217W        W80477   8.177  16.793  11.531
15218W        W80478  39.379  16.992   1.921
15219W        W80479  44.320  36.628  14.909
15220W        W80480   5.833   1.991  11.404
15221W        W80481  36.577  22.485   0.920
15222W        W80482  13.740  44.773   0.322
15223W        W80483  20.009  44.135  13.319
15224W        W80484  36.299  21.797   4.154
15225W        W80485  32.097  30.768  14.544
15226W        W80486  15.454  25.532   1.798
15227W        W80487  19.936  15.496  13.838
15228W        W80488   2.390  27.460  12.068
15229W        W80489  15.588  29.708   1.743
15230W        W80490  14.708   8.904   2.741
15231W        W80491  22.088   0.219   2.743
15232W        W80492  14.765  35.540   0.342
15233W        W80493  10.225  33.068   4.166
15234W        W80494  35.113  28.547   3.537
15235W        W80495  28.470  39.956   3.944
15236W        W80496  18.697  25.393  12.083
15237W        W80497   5.868   8.907   1.752
15238W        W80498  41.352   5.822  11.643
15239W        W80499  26.856  18.833   2.206
15240W        W80500   7.888  34.572  10.854
15241W        W80501  32.504  10.947  11.968
15242W        W80502  43.848   5.628  12.778
15243W        W80503  42.758  38.317   0.747
15244W        W80504  29.686  40.002   3.747
15245W        W80505  18.047  44.652  12.406
15246W        W80506  29.603  27.577   1.837
15247W        W80507  42.425  17.888   2.741
15248W        W80508   6.411   6.074   3.705
15249W        W80509  44.093  10.670  12.601
15250W        W80510  13.144  33.059  14.323
15251W        W80511  10.331  20.357   0.735
15252W        W80512  27.498  12.302   3.623
15253W        W80513  27.021  16.038   4.164
15254W        W80514   0.344  32.038   4.309
15255W        W80515   0.668  36.094  10.201
15256W        W80516  25.209  41.839   3.722
15257W        W80517  44.342  31.123   1.651
15258W        W80518   8.410   0.213  12.952
15259W        W80519  16.635   5.871  13.448
15260W        W80520  13.680  13.641   2.649
15261W        W80521  33.417  16.202  14.595
15262W        W80522  32.280   5.759   4.952
15263W        W80523  11.694  33.689   4.153
15264W        W80524  11.337  15.285   3.664
15265W        W80525  39.556  10.597  13.725
15266W        W80526  42.194   4.243   1.436
15267W        W80527   9.153  33.600   2.381
15268W        W80528   5.587  43.454  11.512
15269W        W80529  25.727  29.409  13.865
15270W        W80530  42.421  10.400   0.768
15271W        W80531  26.993  22.986   2.191
15272W        W80532  32.283  41.076  13.826
15273W        W80533  20.987  26.171   2.682
15274W        W80534  28.378  22.545  12.974
15275W        W80535  32.275  26.539   3.590
15276W        W80536  16.819  23.744  11.107
15277W        W80537  34.655  25.594   1.404
15278W        W80538  21.843  36.540   2.257
15279W        W80539  35.450  13.130  10.804
15280W        W80540  37.350   2.769  11.506
15281W        W80541  19.138   4.264   0.970
15282W        W80542   7.657   1.856   2.514
15283W        W80543  11.202   7.826  12.380
15284W        W80544  32.029  11.580   1.233
15285W        W80545  24.814  24.075   1.292
15286W        W80546  34.727  41.928  10.504
15287W        W80547  20.026  31.193  11.945
15288W        W80548  33.072   4.820   4.079
15289W        W80549  33.955   4.012   0.838
15290W        W80550  17.631  44.448   2.568
15291W        W80551   5.669  13.219   4.502
15292W        W80552   5.170   5.831   3.295
15293W        W80553  39.069  28.908   3.192
15294W        W80554  15.679   7.524   1.338
15295W        W80555  29.696  19.599  13.434
15296W        W80556  32.981  30.155  10.767
15297W        W80557   6.106  16.752   1.258
15298W        W80558   4.609  27.162  10.712
15299W        W80559  25.228  15.833  14.131
15300W        W80560  34.927   5.184  14.143
15301W        W80561  22.152  30.707   3.854
15302W        W80562  37.156   5.257   2.209
15303W        W80563  29.106  23.427   2.378
15304W        W80564  10.825  26.808  11.734
15305W        W80565  28.624  21.054   0.364
15306W        W80566  32.235  28.647  13.129
15307W        W80567   9.806  35.945   0.813
15308W        W80568   5.394  23.789  14.865
15309W        W80569  36.423   9.478  11.134
15310W        W80570  35.969   3.417  11.367
15311W        W80571   0.463   5.092   4.242
15312W        W80572  43.546  25.654   1.831
15313W        W80573   3.693  28.991  12.046
15314W        W80574   7.283   6.104   3.201
15315W        W80575  40.856  41.931  13.592
15316W        W80576   6.409  27.653  14.508
15317W        W80577   9.860  18.550   2.185
15318W        W80578  33.091  42.264  11.190
15319W        W80579   2.624  23.263  13.335
15320W        W80580   2.246  31.320  14.928
15321W        W80581  42.955  41.376  13.384
15322W        W80582  27.579  44.655  11.859
15323W        W80583  10.125  24.175  10.714
15324W        W80584  42.093  31.474  11.024
15325W        W80585  41.480  19.298  14.898
15326W        W80586  15.758  44.768  12.096
15327W        W80587  14.096  40.418   0.228
15328W        W80588  27.044  30.690  11.731
15329W        W80589  22.635  30.368  11.497
15330W        W80590  28.651  43.528  12.999
15331W        W80591  42.496  16.787  12.875
15332W        W80592  21.137  21.915   3.650
15333W        W80593  28.605  17.030   2.233
15334W        W80594  20.279  37.069   1.848
15335W        W80595  19.835   8.373   3.240
15336W        W80596  28.100  37.623  10.133
15337W        W80597   6.897  38.299  13.834
15338W        W80598  16.241  13.231   3.749
15339W        W80599  31.257  18.580  12.056
15340W        W80600  20.115   7.488  14.498
15341W        W80601  14.367   1.011  12.173
15342W        W80602  17.145  27.576  12.856
15343W        W80603  12.569  15.238   1.265
15344W        W80604  25.290   1.358   1.933
15345W        W80605  13.415   3.193  13.900
15346W        W80606  28.162  29.396  12.160
15347W        W80607  25.024  33.906  12.568
15348W        W80608  24.639  20.512  14.314
15349W        W80609  27.275  35.539   1.133
15350W        W80610  28.564  18.600   4.563
15351W        W80611  35.919  20.340  13.351
15352W        W80612  17.986  27.399  13.018
15353W        W80613  26.399   6.253   1.245
15354W        W80614  22.453  44.725  14.941
15355W        W80615  34.552  36.321  13.127
15356W        W80616   6.303  34.428   1.864
15357W        W80617   6.153   2.765   2.742
15358W        W80618  22.172   9.025  11.958
15359W        W80619   6.124   0.462  10.990
15360W        W80620  24.744  31.906   2.658
15361W        W80621   4.474  31.873   4.550
15362W        W80622   3.644  30.645  11.553
15363W        W80623  43.149   2.781   3.245
15364W        W80624  27.706  25.515   2.728
15365W        W80625  35.375  25.603   0.948
15366W        W80626  33.595   4.192   3.596
15367W        W80627  19.712   1.685   0.362
15368W        W80628  34.115   3.258  12.249
15369W        W80629  18.030  19.109   0.631
15370W        W80630  35.409  22.055  11.753
15371W        W80631   6.142  38.865  14.282
15372W        W80632  42.875  31.370  13.484
15373W        W80633  41.557  42.618   1.205
15374W        W80634  39.874  18.512  12.077
15375W        W80635  20.648  15.985   2.616
15376W        W80636  42.717  15.666  11.622
15377W        W80637  11.851  12.355  13.381
15378W        W80638  44.347  27.347  11.928
15379W        W80639  36.353   7.896   0.825
15380W        W80640   5.681  33.747  14.916
15381W        W80641  17.179  40.760   4.084
15382W        W80642  32.802  41.892  14.457
15383W        W80643  15.809  12.289  13.889
15384W        W80644   5.356  38.155   0.779
15385W        W80645  38.368  38.622  10.417
15386W        W80646  20.125  33.477  12.180
15387W        W80647  33.895  25.807   0.807
15388W        W80648   8.228  25.904  14.481
15389W        W80649  30.589  30.740   2.192
15390W        W80650  27.563  19.184   0.494
15391W        W80651  16.039   3.899  10.706
15392W        W80652  19.171   3.194   3.717
15393W        W80653  13.090   7.979  13.373
15394W        W80654  13.257  30.508   2.134
15395W        W80655  35.119  19.504  12.766
15396W        W80656  16.277  13.020  14.059
15397W        W80657  41.127  22.444   1.800
15398W        W80658  35.085  32.056  11.974
15399W        W80659  21.451  44.920   0.774
15400W        W80660  35.485   2.397   3.904
15401W        W80661   4.933  34.291  10.994
15402W        W80662  15.641  24.995   2.652
15403W        W80663  18.527   5.477  14.951
15404W        W80664  21.095  22.804   1.362
15405W        W80665  13.354   7.146   0.842
15406W        W80666  43.302  20.606   4.599
15407W        W80667   7.798  14.079  12.503
15408W        W80668  31.302   2.918  11.536
15409W        W80669  44.902  19.978  14.895
15410W        W80670   1.397  22.456  12.000
15411W        W80671  19.682  31.068   4.279
15412W        W80672  13.145  44.741   2.972
15413W        W80673  30.964  24.100   1.115
15414W        W80674  33.195  30.912   2.280
15415W        W80675  27.191  28.677  11.395
15416W        W80676  32.941  25.764   2.074
15417W        W80677  35.036  27.152   2.072
15418W        W80678   8.338   7.931   0.365
15419W        W80679  10.457   9.487  11.950
15420W        W80680  37.335   6.735  13.862
15421W        W80681  28.036  18.952  11.521
15422W        W80682  28.392   1.205   0.313
15423W        W80683  30.908  15.245   4.867
15424W        W80684   1.274  42.990  12.880
15425W        W80685  16.687  41.592  13.762
15426W        W80686  14.185   2.957   0.460
15427W        W80687  31.189   5.834   3.702
15428W        W80688  34.451  20.637   1.726
15429W        W80689   1.657   4.352  14.842
15430W        W80690   4.673  43.526   4.089
15431W        W80691  29.140  33.177   2.421
15432W        W80692  35.385   0.125  12.394
15433W        W80693  19.300  37.266   1.319
15434W        W80694  15.709  13.222   0.531
15435W        W80695  29.750  25.494   1.543
15436W        W80696  40.450  28.072  12.975
15437W        W80697  29.529  28.998  10.920
15438W        W80698  39.297  40.284  14.851
15439W        W80699  32.562  26.384  10.711
15440W        W80700  43.266  16.392   2.294
15441W        W80701  17.003  29.151   1.157
15442W        W80702  33.078  27.061  14.416
15443W        W80703  18.442  40.359   0.962
15444W        W80704  27.870  15.774  10.048
15445W        W80705  10.594  39.834   2.316
15446W        W80706  20.687  27.358   3.152
15447W        W80707   9.825  27.534  14.289
15448W        W80708  12.048   4.126   1.026
15449W        W80709  14.760  13.013   4.606
15450W        W80710  14.690  25.601  12.850
15451W        W80711  32.168   0.784  12.424
15452W        W80712  33.095  32.541  11.273
15453W        W80713  21.586  43.321  11.630
15454W        W80714  27.022  23.310   1.216
15455W        W80715   7.280  19.069   3.216
15456W        W80716  11.454  38.870  11.643
15457W        W80717  29.464  31.566  11.669
15458W        W80718  26.060  41.346  11.696
15459W        W80719  25.872  43.459   0.306
15460W        W80720  14.232  15.955  12.096
15461W        W80721   8.486  12.780  14.051
15462W        W80722  15.496  30.162   3.040
15463W        W80723  16.112   5.235   2.190
15464W        W80724  18.215  43.202  14.445
15465W        W80725  21.353  19.736  11.555
15466W        W80726  15.829  22.602  10.796
15467W        W80727  17.286  14.814   3.298
15468W        W80728   6.729  15.839  10.763
15469W        W80729  37.991  31.671   1.347
15470W        W80730  37.791  16.046  11.153
15471W        W80731  19.791  30.176  11.102
15472W        W80732  26.140  40.042  11.286
15473W        W80733   7.698  30.429  13.611
15474W        W80734  17.299  42.266  14.233
15475W        W80735  28.004  44.223  13.479
15476W        W80736   5.461  21.465  10.345
15477W        W80737  43.548   0.026   2.075
15478W        W80738  40.748  17.044  11.357
15479W        W80739  28.053  20.526  11.485
15480W        W80740  36.108   6.659  14.447
15481W        W80741  34.155  25.854   1.254
15482W        W80742   8.107  40.982   0.856
15483W        W80743   4.457  38.949   4.130
15484W        W80744  17.981  38.843   1.228
15485W        W80745  33.982  22.952   3.309
15486W        W80746  22.954  17.587  11.617
15487W        W80747  26.023  26.175  12.081
15488W        W80748   0.513  24.248  10.779
15489W        W80749  35.780   6.008  12.830
15490W        W80750  20.689  21.822  12.805
15491W        W80751  23.249  22.016  12.521
15492W        W80752  39.388  37.292   3.219
15493W        W80753  15.681  36.526   1.993
15494W        W80754  30.250  25.695  13.237
15495W        W80755  34.878  12.858  11.102
15496W        W80756  43.826  40.507  13.901
15497W        W80757  15.788  29.717  11.550
15498W        W80758  41.772  19.176  13.537
15499W        W80759  35.318  10.193  10.743
15500W        W80760  26.245  44.676   0.069
15501W        W80761  28.978  35.570  12.608
15502W        W80762  44.996  40.596  14.963
15503W        W80763  31.832  28.988  11.619
15504W        W80764  28.414  18.330  12.138
15505W        W80765  17.201   9.325  10.155
15506W        W80766   6.729  13.231   4.335
15507W        W80767  38.985  12.182  11.603
15508W        W80768  40.013  21.235   1.424
15509W        W80769  32.024  44.352   1.452
15510W        W80770   0.769  21.229  11.255
15511W        W80771  38.937  21.321   0.190
15512W        W80772  31.307  33.830   2.891
15513W        W80773  10.788  19.457   3.269
15514W        W80774  21.668  36.397  12.072
15515W        W80775  35.900  28.998   3.190
15516W        W80776  38.953  43.869  13.303
15517W        W80777   4.888  35.249  11.092
15518W        W80778  26.172  12.473   4.194
15519W        W80779   1.812   5.381   1.839
15520W        W80780  23.625  27.978   1.729
15521W        W80781  17.642   4.745   4.577
15522W        W80782  43.509   6.869  13.130
15523W        W80783   7.169  31.671  13.243
15524W        W80784  16.667  19.060   3.121
15525W        W80785  12.790   3.621   0.933
15526W        W80786  23.752  29.136  11.543
15527W        W80787  35.625  23.158  14.385
15528W        W80788   5.771  21.704   3.430
15529W        W80789   0.237  25.279   2.757
15530W        W80790   9.835  40.766   1.847
15531W        W80791   1.843  19.014   0.491
15532W        W80792  25.524  17.117  13.982
15533W        W80793   6.380  36.617  14.889
15534W        W80794  42.730   8.604  10.907
15535W        W80795  19.480  14.192   4.237
15536W        W80796  44.019  32.112   9.864
15537W        W80797  19.988   0.027   4.913
15538W        W80798   3.678  38.845   3.105
15539W        W80799  39.061  18.314   1.866
15540W        W80800  31.597  37.935  11.353
15541W        W80801  20.368  38.307   2.322
15542W        W80802  14.643  34.674  12.276
15543W        W80803  26.630  29.800   2.719
15544W        W80804   5.613  35.920  11.486
15545W        W80805  31.855  42.498  13.961
15546W        W80806  32.810  12.716  10.679
15547W        W80807  14.244  15.389  14.438
15548W        W80808  28.520  43.870   1.980
15549W        W80809  27.578  37.984  13.802
15550W        W80810   1.429   9.152   3.528
15551W        W80811   5.065  31.182   4.473
15552W        W80812   3.249  39.608   2.668
15553W        W80813  30.101  31.455   2.022
15554W        W80814  19.995   8.549   1.967
15555W        W80815   3.963   4.875  13.921
15556W        W80816  33.183  22.783  12.863
15557W        W80817  12.556  29.011   5.546
15558W        W80818  44.054  30.470   3.831
15559W        W80819   8.739  25.727  13.242
15560W        W80820   8.717  30.813  13.303
15561W        W80821  36.476  38.112   3.359
15562W        W80822  21.054  26.250  11.755
15563W        W80823   7.407  17.443  12.937
15564W        W80824   2.886  30.407   4.487
15565W        W80825   3.578   4.047   1.381
15566W        W80826  39.300  28.010   3.147
15567W        W80827  37.406   1.439  13.871
15568W        W80828  18.550  41.652   3.627
15569W        W80829  36.954   6.496   5.029
15570W        W80830  28.505  17.253   0.425
15571W        W80831  12.084   6.405  12.926
15572W        W80832  43.847   1.047   1.315
15573W        W80833  28.143  43.160  11.096
15574W        W80834  10.588  36.879  14.623
15575W        W80835  42.291  19.027   4.310
15576W        W80836  44.292  11.782  12.619
15577W        W80837   8.733  32.827  11.935
15578W        W80838  28.171   2.356  12.588
15579W        W80839  16.737  20.667  14.435
15580W        W80840  31.063  10.746  10.498
15581W        W80841  12.908  33.672   0.305
15582W        W80842   9.851  17.252  11.444
15583W        W80843   4.410  22.069   1.455
15584W        W80844   5.171   8.334   0.086
15585W        W80845  22.056  43.979   2.874
15586W        W80846   5.811   2.951  12.970
15587W        W80847  14.119   0.406   4.305
15588W        W80848  25.978  22.468  14.771
15589W        W80849  13.903  28.677   2.814
15590W        W80850  18.327  44.762  12.832
15591W        W80851  16.584  31.544  12.615
15592W        W80852  39.882  33.584   1.064
15593W        W80853  43.518   4.940  13.038
15594W        W80854  22.568  11.147  14.031
15595W        W80855   8.795   9.765   3.658
15596W        W80856  19.527  16.607  14.318
15597W        W80857  43.347  35.560   4.985
15598W        W80858   8.114  42.092   1.543
15599W        W80859   8.177  16.064  11.029
15600W        W80860  38.069  37.940  13.486
15601W        W80861  25.213  29.877   0.168
15602W        W80862  35.007  21.267  12.833
15603W        W80863  27.254   6.581   2.306
15604W        W80864  26.600  18.568  11.934
15605W        W80865  18.081   0.435  13.985
15606W        W80866  24.130   6.227  12.769
15607W        W80867  22.206  28.095   4.680
15608W        W80868  39.027  13.609  12.050
15609W        W80869   9.812  10.757  12.604
15610W        W80870  10.451  39.399  10.766
15611W        W80871  21.719   7.421   0.382
15612W        W80872   4.944  32.758   2.107
15613W        W80873  38.606   7.887   0.579
15614W        W80874  24.362  35.406   1.749
15615W        W80875  20.833  44.647  13.496
15616W        W80876   1.361  29.632   2.303
15617W        W80877  10.817  39.376   1.009
15618W        W80878  40.292   6.673  10.967
15619W        W80879  17.131  11.692   3.605
15620W        W80880  13.115  38.429   1.625
15621W        W80881   5.262  22.494  11.112
15622W        W80882  20.146  40.382  11.569
15623W        W80883   7.801  39.785  12.085
15624W        W80884  15.791  25.148   1.752
15625W        W80885  13.370  11.240   1.789
15626W        W80886  21.334  21.220   4.978
15627W        W80887  32.685   5.291  10.864
15628W        W80888  38.072  34.810  11.842
15629W        W80889  22.149  21.478   4.414
15630W        W80890  18.919  40.028   0.518
15631W        W80891  32.387   5.370  12.383
15632W        W80892  28.537  34.922  14.526
15633W        W80893  22.204  43.498   1.817
15634W        W80894  33.446  14.234  13.074
15635W        W80895   9.449   0.842  13.351
15636W        W80896   8.352  44.506   2.311
15637W        W80897  36.912  44.203  13.128
15638W        W80898   6.328   9.706   3.823
15639W        W80899  31.999  10.273   4.599
15640W        W80900  29.607  21.474   3.320
15641W        W80901  28.120  27.373  13.396
15642W        W80902   3.935   7.636   4.129
15643W        W80903  41.503  21.223   3.848
15644W        W80904  13.049  16.018  13.049
15645W        W80905  41.477  19.923   1.702
15646W        W80906  12.780   6.197  12.148
15647W        W80907  23.069  23.666  11.211
15648W        W80908  15.807  44.877   3.018
15649W        W80909  41.570  29.405   2.704
15650W        W80910  30.753  26.487  14.873
15651W        W80911  17.505  36.887  13.037
15652W        W80912  35.863  11.761  14.497
15653W        W80913   2.663   8.750  14.438
15654W        W80914  21.532  36.839  13.004
15655W        W80915  42.568   3.426  14.461
15656W        W80916  21.099  40.397   4.527
15657W        W80917  12.261  35.455   3.083
15658W        W80918  43.270  21.288  13.016
15659W        W80919  39.949  19.607   3.720
15660W        W80920  31.657  20.157  13.751
15661W        W80921   0.223  43.753   0.749
15662W        W80922  18.059  18.606   4.551
15663W        W80923  23.942  17.107   3.642
15664W        W80924  19.743  40.957   4.096
15665W        W80925   4.998  40.019  12.648
15666W        W80926   7.956   5.414  12.510
15667W        W80927   0.753  17.698  14.857
15668W        W80928  43.983  37.802   4.196
15669W        W80929  33.002  44.527   0.027
15670W        W80930  18.479  19.539   2.599
15671W        W80931  34.456  31.195   4.817
15672W        W80932  11.551  19.427  10.264
15673W        W80933  15.518  20.174  13.089
15674W        W80934  11.679   8.884  13.880
15675W        W80935  38.190   8.191   0.030
15676W        W80936  31.173  24.547   3.850
15677W        W80937   1.905  24.531   4.950
15678W        W80938  12.360   3.311   0.910
15679W        W80939  22.475  33.228   1.730
15680W        W80940   7.440   8.780   0.359
15681W        W80941  33.356  11.706  10.737
15682W        W80942   1.308  27.582   0.827
15683W        W80943  16.872  44.499   0.768
15684W        W80944   0.251  22.868  13.871
15685W        W80945  24.552  26.584   4.227
15686W        W80946  10.762  23.580   3.719
15687W        W80947  27.699  42.849  12.895
15688W        W80948  22.749   7.266   4.112
15689W        W80949  12.793   2.798   1.121
15690W        W80950  24.493  11.058  14.611
15691W        W80951  30.166  42.953  11.582
15692W        W80952   8.853  37.112   0.947
15693W        W80953  32.696  43.332   1.830
15694W        W80954  42.349  31.044   3.012
15695W        W80955  35.007   9.708  10.657
15696W        W80956  27.550  44.904  11.162
15697W        W80957  14.818  25.503  11.820
15698W        W80958  41.292  40.994  13.004
15699W        W80959   2.820  10.548  10.720
15700W        W80960   5.643  16.108  11.172
15701W        W80961  27.673  36.002  12.920
15702W        W80962  43.105  37.415   3.689
15703W        W80963  14.926  38.167   4.194
15704W        W80964   7.991   3.110   2.658
15705W        W80965  16.956  37.530   3.336
15706W        W80966   5.611   9.362   4.055
15707W        W80967  26.446  44.753  12.936
15708W        W80968  15.685  31.586   2.494
15709W        W80969  16.865   0.994  11.627
15710W        W80970   9.854   1.454  14.926
15711W        W80971   3.792   4.498   1.226
15712W        W80972   1.224  40.750   4.331
15713W        W80973   8.359  44.242   1.875
15714W        W80974  24.346  24.531  12.322
15715W        W80975  25.217  19.080  12.975
15716W        W80976  41.422  36.026   1.521
15717W        W80977  16.350  11.977  12.865
15718W        W80978  19.647  11.148  12.098
15719W        W80979   6.907  41.954  11.174
15720W        W80980  19.818   5.742  13.444
15721W        W80981  12.888  36.673   0.762
15722W        W80982  21.801   9.110  11.042
15723W        W80983  24.772  11.073  10.629
15724W        W80984  40.407   0.429  10.779
15725W        W80985  14.239  26.757   2.776
15726W        W80986  38.452   9.765   2.827
15727W        W80987  37.032  19.728   0.878
15728W        W80988  32.107  12.225  13.883
15729W        W80989  10.878   3.005  11.704
15730W        W80990  29.438  44.151   3.879
15731W        W80991  32.779   9.701  11.593
15732W        W80992  18.635  13.799   3.859
15733W        W80993   0.008  23.675   2.581
15734W        W80994  22.272  17.727  11.044
15735W        W80995  34.508  40.363   2.146
15736W        W80996  42.535  34.091  13.878
15737W        W80997  29.530  40.321   0.391
15738W        W80998  43.202  29.613   4.668
15739W        W80999  33.053  14.453  14.946
15740W        W81000  15.997   4.758  13.570
15741W        W81001  31.644  32.165   4.639
15742W        W81002  34.799  38.157  10.684
15743W        W81003  32.332  41.827   0.710
15744W        W81004  33.075   1.158  10.743
15745W        W81005  39.072  15.630   0.668
15746W        W81006   9.757  36.292   3.863
15747W        W81007  12.138  31.882  12.973
15748W        W81008  11.602  23.251  14.644
15749W        W81009   7.287  29.205   2.205
15750W        W81010   4.306  16.776  10.942
15751W        W81011   7.466  36.635   2.444
15752W        W81012  31.115  11.661   1.658
15753W        W81013  37.095   6.273  12.476
15754W        W81014  37.990   1.467   1.734
15755W        W81015  12.455  42.986  11.537
15756W        W81016  34.514  16.252  12.478
15757W        W81017  16.750  17.862   3.695
15758W        W81018  12.895   9.951   1.687
15759W        W81019  14.915  23.140  13.415
15760W        W81020  19.588  40.993   1.328
15761W        W81021  30.123  35.207   2.330
15762W        W81022   2.448  25.361  12.048
15763W        W81023   1.066  32.318  12.654
15764W        W81024  13.254  42.926  14.824
15765W        W81025  25.721  43.645  13.503
15766W        W81026  34.568  32.212   0.450
15767W        W81027  16.235  37.415   1.268
15768W        W81028  31.250  32.804   2.243
15769W        W81029  42.854  41.249   0.938
15770W        W81030   3.483  15.760  13.857
15771W        W81031  12.350  24.004  13.071
15772W        W81032  13.871   1.671   2.400
15773W        W81033  24.088  12.061  11.586
15774W        W81034   7.936  26.000   2.302
15775W        W81035   8.190  30.650  12.905
15776W        W81036   5.899  30.458   3.508
15777W        W81037  39.922  30.586   4.750
15778W        W81038  16.177  39.149  13.480
15779W        W81039  43.756  20.774   1.814
15780W        W81040  29.975  26.493   4.091
15781W        W81041  24.784  30.079   3.201
15782W        W81042  27.555  23.926  11.728
15783W        W81043  20.526   1.248   3.607
15784W        W81044  25.865  35.140  14.385
15785W        W81045  23.660  11.754  13.445
15786W        W81046  37.396   2.888   2.820
15787W        W81047  36.956   6.878   3.033
15788W        W81048  28.694  20.010   4.057
15789W        W81049   9.668  22.819   0.844
15790W        W81050  12.816  42.050   3.672
15791W        W81051   1.892  23.479   4.101
15792W        W81052  27.017  35.014   9.872
15793W        W81053  35.380  43.568   3.248
15794W        W81054  24.226   6.310  11.755
15795W        W81055   2.066  37.018   0.795
15796W        W81056  38.329  36.790   0.899
15797W        W81057  27.680   2.509  12.544
15798W        W81058  16.147  40.428   1.797
15799W        W81059  10.073  37.339   3.240
15800W        W81060  10.714  23.806   0.370
15801W        W81061  13.572  29.526  13.343
15802W        W81062  16.334  30.507   1.430
15803W        W81063  43.953  19.471   0.245
15804W        W81064  12.302  31.540  11.248
15805W        W81065  24.757  38.066  14.997
15806W        W81066  25.045  17.401  11.216
15807W        W81067  32.549  13.677   1.406
15808W        W81068  37.931  10.450   2.655
15809W        W81069  11.375   6.068   1.674
15810W        W81070  37.229  37.890   2.797
15811W        W81071  41.294   4.174   0.523
15812W        W81072  33.423  16.117  13.435
15813W        W81073  39.665  21.764  11.658
15814W        W81074   0.296  42.919   5.001
15815W        W81075   4.744  39.399  14.555
15816W        W81076  29.554  19.591  14.957
15817W        W81077  30.956  18.775  12.450
15818W        W81078  13.166  30.610  14.501
15819W        W81079  13.107  11.798  13.827
15820W        W81080  22.515   1.193  13.321
15821W        W81081  15.780  41.882   5.267
15822W        W81082   7.275  39.838  11.542
15823W        W81083  37.261  44.536  12.864
15824W        W81084   1.800  36.399   1.883
15825W        W81085  38.617  16.991   4.810
15826W        W81086  19.016  43.693   3.974
15827W        W81087  29.516  23.820  10.435
15828W        W81088  44.886  30.684  13.233
15829W        W81089  30.687  24.076   1.953
15830W        W81090  18.371   4.760  14.083
15831W        W81091  26.892  36.163   4.704
15832W        W81092  34.045  30.643  12.926
15833W        W81093  30.519   5.454  12.322
15834W        W81094  23.168  41.749   4.280
15835W        W81095   1.013  33.132   2.825
15836W        W81096  36.031  26.246  12.954
15837W        W81097  10.065  26.387   3.646
15838W        W81098  41.015  23.693   2.650
15839W        W81099  38.697  29.407  13.443
15840W        W81100  31.388  31.012   4.186
15841W        W81101   8.714   5.342  13.893
15842W        W81102  41.171  30.152  11.991
15843W        W81103  40.819  21.017   2.337
15844W        W81104  39.967  27.091   1.850
15845W        W81105  20.177  38.771  10.588
15846W        W81106  15.149   6.880  11.180
15847W        W81107  43.780  44.807   3.894
15848W        W81108  25.664  33.700   1.013
15849W        W81109   1.815  32.664  11.962
15850W        W81110  16.873   0.589   2.853
15851W        W81111  44.834  10.300   1.044
15852W        W81112  25.107  34.361  13.831
15853W        W81113  43.526  18.796  11.101
15854W        W81114   7.134   0.725  14.914
15855W        W81115  26.047  10.196  12.473
15856W        W81116  40.139  38.288  11.982
15857W        W81117  30.714   9.409   0.875
15858W        W81118  28.173  16.631   0.360
15859W        W81119  14.635  31.215  14.380
15860W        W81120  29.087  33.665   3.365
15861W        W81121  20.042  17.322   3.129
15862W        W81122  30.024   3.543   3.308
15863W        W81123  27.974  16.303   2.602
15864W        W81124  19.506  14.158   3.158
15865W        W81125  41.830   8.307   0.241
15866W        W81126  18.423  15.546  10.290
15867W        W81127  20.065  24.999  12.586
15868W        W81128   0.904   0.695  12.348
15869W        W81129  14.941  31.923   3.493
15870W        W81130  44.406  41.081   4.372
15871W        W81131   2.276  42.238   2.695
15872W        W81132  25.265  16.454   5.002
15873W        W81133  11.432  35.426   3.679
15874W        W81134  38.614  17.530   3.912
15875W        W81135  25.279   2.452  13.377
15876W        W81136  20.271  43.069   4.644
15877W        W81137  39.807  28.434   1.353
15878W        W81138  22.234  44.064  11.894
15879W        W81139   3.412  21.378  14.226
15880W        W81140  13.631  31.341  11.692
15881W        W81141  39.993   9.165  10.452
15882W        W81142   2.176   1.141  10.739
15883W        W81143  37.267  12.057   2.391
15884W        W81144  28.107  38.493  14.405
15885W        W81145  36.978   3.523   0.738
15886W        W81146  34.570  41.939  11.000
15887W        W81147  33.036  30.273  11.776
15888W        W81148  15.755  17.668  13.584
15889W        W81149  20.398  19.109  10.382
15890W        W81150  25.423  31.008  13.559
15891W        W81151  13.859  19.115   1.845
15892W        W81152  17.217  12.760  14.915
15893W        W81153  44.412   3.111   1.711
15894W        W81154  28.087   3.195   4.652
15895W        W81155   2.571  23.267   5.055
15896W        W81156  30.522  43.579  12.327
15897W        W81157  33.972   3.990  13.548
15898W        W81158  32.681  12.195  13.391
15899W        W81159  36.446  19.072  13.552
15900W        W81160  16.311  23.246   0.878
15901W        W81161  34.904  33.240  14.755
15902W        W81162  37.326  13.220   2.878
15903W        W81163  15.117  27.159   1.814
15904W        W81164  34.784  36.036   0.898
15905W        W81165   2.782   0.816  12.619
15906W        W81166  35.933  15.399   2.341
15907W        W81167  39.249   9.397   1.286
15908W        W81168  14.602  39.326   3.235
15909W        W81169   3.357  32.181  11.498
15910W        W81170  27.776  34.964   4.557
15911W        W81171  34.965   9.564   3.790
15912W        W81172   6.610  44.624   0.336
15913W        W81173  27.770  21.227  12.557
15914W        W81174  42.297  18.761   4.760
15915W        W81175  17.131   4.445  12.914
15916W        W81176  25.302  43.991  12.627
15917W        W81177  25.251  24.262   2.978
15918W        W81178  16.223  32.658   4.541
15919W        W81179  11.762   7.846   4.495
15920W        W81180  29.493   2.840   2.486
15921W        W81181   4.446  10.539  13.736
15922W        W81182   3.509  40.913   1.908
15923W        W81183  42.571  22.955   0.954
15924W        W81184   7.830  10.118   1.035
15925W        W81185  38.836  12.441  10.807
15926W        W81186   9.459  30.525   3.066
15927W        W81187  36.437  25.167   2.174
15928W        W81188  23.620   6.145  11.058
15929W        W81189  23.704  23.651  13.829
15930W        W81190  33.024   9.837   1.285
15931W        W81191  11.026  43.261   2.663
15932W        W81192  41.715  40.867   0.321
15933W        W81193  44.526   6.573   4.370
15934W        W81194  43.508  22.015   3.966
15935W        W81195   2.785   9.944   0.893
15936W        W81196  33.022  29.917  12.604
15937W        W81197  28.067  19.243   3.041
15938W        W81198  20.037  23.041   3.564
15939W        W81199   7.262  21.495   4.266
15940W        W81200   6.808  11.335  10.864
15941W        W81201   1.211  17.640  10.432
15942W        W81202  24.085  39.971   4.537
15943W        W81203   2.254  39.896  12.200
15944W        W81204  34.819  43.059   4.057
15945W        W81205  32.985   3.504  14.315
15946W        W81206  32.620  11.700   2.124
15947W        W81207  42.557  16.793  10.220
15948W        W81208  34.518   4.175  10.695
15949W        W81209  36.668  23.244   2.968
15950W        W81210  22.551   2.292   3.276
15951W        W81211  19.296  18.613   2.329
15952W        W81212  32.566  11.259   1.844
15953W        W81213  38.877  16.561   4.595
15954W        W81214   0.778  31.026  13.128
15955W        W81215  25.711  11.599  13.411
15956W        W81216   1.048  42.341  10.748
15957W        W81217  10.175  28.176   0.344
15958W        W81218  22.213  17.004   3.248
15959W        W81219  17.603  13.679   4.779
15960W        W81220  43.435   2.379  12.855
15961W        W81221  20.416   3.734   4.020
15962W        W81222  31.377  40.607  11.611
15963W        W81223  37.150  26.554   1.809
15964W        W81224  30.362  23.486   0.754
15965W        W81225  39.397  13.066   2.722
15966W        W81226  30.427   0.301  10.012
15967W        W81227  42.744  32.677  11.795
15968W        W81228  31.558  15.809  13.263
15969W        W81229   4.207  38.891   3.157
15970W        W81230  44.885  14.664   1.823
15971W        W81231  37.715  43.771  15.000
15972W        W81232  28.910  17.614   0.041
15973W        W81233  14.742  44.769   2.193
15974W        W81234  14.451  39.516  11.609
15975W        W81235   4.980   5.744   0.890
15976W        W81236  43.336  22.940  11.955
15977W        W81237  38.816  24.962   1.497
15978W        W81238   7.330   8.420  13.913
15979W        W81239  17.599  43.463   0.023
15980W        W81240  10.528   2.262  13.924
15981W        W81241  39.891  15.413   0.973
15982W        W81242  13.794  44.438   4.742
15983W        W81243   6.891  36.122   3.350
15984W        W81244   0.428  41.420   1.919
15985W        W81245  31.154  19.581   1.743
15986W        W81246  37.652  14.193   0.818
15987W        W81247   4.406  27.464   1.277
15988W        W81248  21.999  31.326  11.157
15989W        W81249  17.712  44.969  10.632
15990W        W81250  14.806  34.848  13.027
15991W        W81251  30.645  21.260  14.598
15992W        W81252  44.438  17.266   2.259
15993W        W81253   2.249   9.489   3.190
15994W        W81254   3.423  38.819  11.971
15995W        W81255  39.763   1.454  12.521
15996W        W81256   8.894  36.827   2.166
15997W        W81257  38.814  28.659   1.530
15998W        W81258  34.612  31.804  12.568
15999W        W81259  19.827  11.739   4.144
16000W        W81260  24.645   9.653   2.399
16001W        W81261   4.320  36.899  11.432
16002W        W81262  16.133   6.488  12.392
16003W        W81263  23.471  38.635  12.011
16004W        W81264  23.605  11.737  14.365
16005W        W81265   1.177  22.816   0.446
16006W        W81266  42.493  13.168  11.885
16007W        W81267  27.715   5.428   0.106
16008W        W81268  10.286  41.749  12.004
16009W        W81269  12.999  35.764  13.873
16010W        W81270  30.606  16.659   0.270
16011W        W81271  37.166  11.729   3.766
16012W        W81272   1.973  19.330   1.579
16013W        W81273  33.270   8.786   4.633
16014W        W81274  27.569  14.859  13.995
16015W        W81275   4.514  31.805  14.408
16016W        W81276   0.914  34.399   1.375
16017W        W81277  38.170  18.050   3.544
16018W        W81278  24.096  32.819  13.923
16019W        W81279  33.278  15.396  11.198
16020W        W81280  10.210   2.211   5.107
16021W        W81281  32.245  35.323   3.786
16022W        W81282  13.810  34.155   0.472
16023W        W81283  36.847  29.214  13.289
16024W        W81284  37.457  15.233   2.484
16025W        W81285   8.586   8.715   3.097
16026W        W81286   8.514  22.305  14.142
16027W        W81287  31.956  27.779   0.764
16028W        W81288  14.053   5.691  14.406
16029W        W81289  27.527  13.261   0.752
16030W        W81290  14.644  31.427   4.644
16031W        W81291   3.831  44.127  11.147
16032W        W81292  28.566  36.090   1.154
16033W        W81293  16.820  41.535   1.847
16034W        W81294   9.702  36.954  14.309
16035W        W81295  32.299   2.494  14.761
16036W        W81296  17.542   6.007   0.305
16037W        W81297   7.761  10.271   3.690
16038W        W81298  40.559  22.586   5.024
16039W        W81299  19.392  41.353  12.357
16040W        W81300  26.388  18.680  13.521
16041W        W81301  19.194   3.886  10.461
16042W        W81302  24.740   3.743   3.648
16043W        W81303  43.971  41.470  10.375
16044W        W81304  18.890  23.350  11.440
16045W        W81305  34.333  29.845  10.778
16046W        W81306  38.918  20.700  12.733
16047W        W81307  18.283   7.855  10.780
16048W        W81308  42.425   6.764   3.492
16049W        W81309  34.342  28.163   2.910
16050W        W81310   0.456  26.617   0.887
16051W        W81311  39.924  42.932  10.788
16052W        W81312  26.800   4.834  13.029
16053W        W81313  44.376  36.830  13.516
16054W        W81314   2.354  44.722  13.468
16055W        W81315   7.464   8.906  12.514
16056W        W81316  32.850  15.220   2.510
16057W        W81317   8.220  10.372   2.812
16058W        W81318  39.312  27.044  12.545
16059W        W81319  38.959  20.489   1.118
16060W        W81320  34.837  35.590   0.197
16061W        W81321   4.049  36.021  11.938
16062W        W81322   3.313   3.196   4.172
16063W        W81323  25.519  10.305   3.113
16064W        W81324  12.301  34.962   0.081
16065W        W81325  19.687  38.587  10.657
16066W        W81326  33.717  17.665  10.622
16067W        W81327  25.134  30.457   4.660
16068W        W81328  30.996  27.109  13.347
16069W        W81329  14.540  36.880  14.342
16070W        W81330  16.019   2.901  13.103
16071W        W81331  29.739  35.888   1.739
16072W        W81332  30.403  34.415   3.736
16073W        W81333  41.124  21.433  14.461
16074W        W81334  12.778  44.199  13.979
16075W        W81335  30.819  21.493   2.818
16076W        W81336  14.671   1.222   4.263
16077W        W81337  15.661   3.802   1.828
16078W        W81338  23.087  10.643   0.432
16079W        W81339   5.738  39.041   3.138
16080W        W81340  16.606   6.887   4.218
16081W        W81341  13.426   1.762  10.789
16082W        W81342   9.881  15.698   0.975
16083W        W81343  24.135   9.845   2.138
16084W        W81344  29.113  30.258  11.433
16085W        W81345   4.921   7.985   5.026
16086W        W81346   3.183  10.415  14.701
16087W        W81347  35.231   2.467   3.465
16088W        W81348  21.539  10.126  14.190
16089W        W81349  24.946  22.841  12.518
16090W        W81350   9.271  36.986   1.272
16091W        W81351   0.904  29.220   0.027
16092W        W81352  12.358  11.692  14.367
16093W        W81353  32.415   7.937   0.147
16094W        W81354  33.805   1.981  12.397
16095W        W81355   4.749   7.356  10.765
16096W        W81356  13.307  28.602  14.380
16097W        W81357  34.947  22.071   0.874
16098W        W81358  12.060   3.297   3.621
16099W        W81359  35.027  43.110   1.762
16100W        W81360  24.450  28.595  12.840
16101W        W81361   1.236  30.461   1.358
16102W        W81362  15.277  38.311   3.813
16103W        W81363  41.899   6.681   3.581
16104W        W81364   4.837   7.662   0.415
16105W        W81365   2.424  32.658  12.498
16106W        W81366  43.565   0.680  14.514
16107W        W81367   2.235  24.298  10.670
16108W        W81368  39.407   7.338  13.442
16109W        W81369  21.926  31.581  10.725
16110W        W81370  36.324  27.200   2.960
16111W        W81371   0.913  28.161  14.984
16112W        W81372  23.795  26.364   4.185
16113W        W81373  34.597   6.424   3.629
16114W        W81374   4.393   0.866   1.855
16115W        W81375  11.751  41.484   0.622
16116W        W81376   6.208  23.130   1.372
16117W        W81377  28.765  42.760   1.028
16118W        W81378  11.341   1.217  13.842
16119W        W81379   1.524   2.376   0.319
16120W        W81380  10.330  32.052  10.639
16121W        W81381  14.616  13.994   0.971
16122W        W81382  16.102  15.375  11.489
16123W        W81383  24.644  14.550  14.332
16124W        W81384  10.286   2.732   0.972
16125W        W81385   4.334  22.989   0.407
16126W        W81386  10.254  27.991  13.563
16127W        W81387  34.593  23.190  14.369
16128W        W81388  21.220   2.019   0.466
16129W        W81389   3.421  15.535   2.686
16130W        W81390  39.969  14.095  13.430
16131W        W81391   7.721  22.776  12.539
16132W        W81392  29.472  28.425  12.119
16133W        W81393   8.292  30.824  11.065
16134W        W81394   2.450  11.321   0.754
16135W        W81395  31.016   7.226  11.357
16136W        W81396  16.341   4.184   1.413
16137W        W81397   0.889  31.831   4.728
16138W        W81398  23.724  33.382   0.450
16139W        W81399  26.536   0.940   1.268
16140W        W81400  15.521   1.247  12.933
16141W        W81401   5.187   3.894   4.777
16142W        W81402  14.127  28.633   1.634
16143W        W81403  21.647  15.117  14.026
16144W        W81404  24.664   8.146   4.049
16145W        W81405  26.628  22.188   0.750
16146W        W81406  29.535   4.399   1.746
16147W        W81407   7.078  32.063   1.890
16148W        W81408  35.687  10.453  12.620
16149W        W81409  33.403  33.203   3.393
16150W        W81410  42.527   0.094  12.194
16151W        W81411  35.387   2.837   4.150
16152W        W81412  42.063  16.551  12.042
16153W        W81413   4.506  19.217  11.043
16154W        W81414  40.063  11.851   3.214
16155W        W81415  25.443  28.599   1.730
16156W        W81416   3.034   1.896   2.316
16157W        W81417  40.773  33.888   1.284
16158W        W81418  22.188  14.784  14.938
16159W        W81419  37.966  20.151   2.305
16160W        W81420  34.177  29.804   0.652
16161W        W81421   0.041  22.840  14.894
16162W        W81422   0.463  41.977   1.229
16163W        W81423  18.822  15.252  13.357
16164W        W81424  13.275   6.234  11.988
16165W        W81425  31.830  15.116   3.159
16166W        W81426  12.109  11.186   2.859
16167W        W81427   9.477  27.442   2.699
16168W        W81428  38.191   6.548  12.498
16169W        W81429  41.229  10.411  13.272
16170W        W81430  13.628  26.620   0.658
16171W        W81431  15.276   6.358  11.314
16172W        W81432  19.322  18.705  14.304
16173W        W81433  44.964   9.183  12.348
16174W        W81434  27.053  42.694   3.943
16175W        W81435  21.080   3.512   1.248
16176W        W81436   8.824  44.050  11.267
16177W        W81437  29.012   0.521  14.900
16178W        W81438  22.939   6.626  14.002
16179W        W81439  36.842  33.410   1.848
16180W        W81440  19.004  28.392   3.777
16181W        W81441  10.670  23.305   0.496
16182W        W81442  39.112  21.233   2.804
16183W        W81443  17.668   2.348   0.431
16184W        W81444  42.583  39.624  11.450
16185W        W81445  26.008  23.992  11.673
16186W        W81446  44.308  29.242   0.511
16187W        W81447  20.706   4.977   3.284
16188W        W81448  11.294  32.075   4.013
16189W        W81449  14.541  39.404  13.469
16190W        W81450  44.810  31.048   0.926
16191W        W81451  35.303   8.388   2.044
16192W        W81452  18.041   0.481  14.898
16193W        W81453  36.659  24.010   0.439
16194W        W81454   9.167   7.238  13.001
16195W        W81455  43.922  10.252   0.812
16196W        W81456  29.301  21.094   2.773
16197W        W81457  29.593  10.302   2.756
16198W        W81458  34.569  25.622  12.957
16199W        W81459  31.365   9.874   0.421
16200W        W81460  38.702  17.668  13.401
16201W        W81461  27.132   2.768  10.946
16202W        W81462  28.263   5.784  10.731
16203W        W81463  35.905   4.451  13.014
16204W        W81464   1.915  37.512   0.705
16205W        W81465   1.212  28.901  10.187
16206W        W81466  41.457  42.406   3.206
16207W        W81467   0.238  24.852  10.120
16208W        W81468  35.398   3.694  14.023
16209W        W81469   3.417  38.297  12.031
16210W        W81470  14.011   1.295  12.362
16211W        W81471  41.339  11.747  14.502
16212W        W81472   2.493  34.697   0.266
16213W        W81473  25.720  15.307  11.050
16214W        W81474   2.240  26.600  11.652
16215W        W81475  26.464  29.072   1.131
16216W        W81476  30.651  34.839   4.222
16217W        W81477  33.619  10.588  11.592
16218W        W81478  44.368  25.547  10.904
16219W        W81479  28.098  34.080   4.712
16220W        W81480  36.033  31.583   1.350
16221W        W81481   8.155  15.726   2.840
16222W        W81482  28.632  38.517  13.083
16223W        W81483  24.434  30.449   3.296
16224W        W81484  21.749  24.710  12.902
16225W        W81485  32.996   6.957   0.830
16226W        W81486  16.701  43.771  12.070
16227W        W81487   5.476  35.045  11.984
16228W        W81488  16.302  42.720   4.897
16229W        W81489  30.342   8.954   1.770
16230W        W81490  41.084  42.967   4.985
16231W        W81491   9.827  22.359  10.764
16232W        W81492  41.226   5.244   2.327
16233W        W81493  15.172   3.991   3.177
16234W        W81494  18.661  43.545   2.906
16235W        W81495  41.526  29.783  12.414
16236W        W81496  36.387  30.626  11.165
16237W        W81497  10.256  29.566   0.200
16238W        W81498  14.784   2.027   3.810
16239W        W81499  11.251   1.080   1.270
16240W        W81500  10.391  37.013  10.213
16241W        W81501  43.933  10.799  11.725
16242W        W81502  41.772  39.280   4.270
16243W        W81503  22.710  22.743  12.163
16244W        W81504   3.322  34.356  14.885
16245W        W81505  23.648  24.216   4.070
16246W        W81506  33.150  21.779   2.666
16247W        W81507   5.331   2.546   1.733
16248W        W81508  40.138  40.446   1.679
16249W        W81509  15.809  33.145   4.151
16250W        W81510  38.087  20.531   0.435
16251W        W81511  13.871   5.834  13.926
16252W        W81512   5.732  28.633  11.608
16253W        W81513  44.317   5.083   1.778
16254W        W81514  30.469  15.305   2.365
16255W        W81515  15.599  20.684   3.647
16256W        W81516   7.401  28.263  13.966
16257W        W81517  12.677   1.710   2.392
16258W        W81518  22.753   3.830   3.101
16259W        W81519  25.958  42.878   1.714
16260W        W81520  10.897  34.373  13.085
16261W        W81521  33.690  10.613   2.835
16262W        W81522   3.869  40.665  14.071
16263W        W81523  42.487  23.440   2.232
16264W        W81524  37.164  41.690  12.804
16265W        W81525  11.119  16.792   4.543
16266W        W81526  19.841  44.699  10.278
16267W        W81527  43.019  15.778   4.447
16268W        W81528  24.901  42.069  10.522
16269W        W81529  39.027  21.799   4.107
16270W        W81530  42.062   6.800  14.508
16271W        W81531  35.412  42.624  14.292
16272W        W81532  43.798   9.137  10.276
16273W        W81533  37.781  12.630   4.848
16274W        W81534  28.142  39.732  12.940
16275W        W81535  39.014  39.678   2.893
16276W        W81536  39.253  31.024  13.093
16277W        W81537  20.192  25.421  11.098
16278W        W81538  28.250  38.032   0.841
16279W        W81539  25.517  40.356  12.789
16280W        W81540  36.383   9.819  12.650
16281W        W81541  43.977  25.798  12.138
16282W        W81542  25.155  21.069  10.351
16283W        W81543  21.467  27.104   0.482
16284W        W81544  16.429  34.839  12.375
16285W        W81545  24.133  40.536  14.011
16286W        W81546  19.601  38.800  11.129
16287W        W81547  19.621  13.212   3.239
16288W        W81548  17.313   6.470   5.174
16289W        W81549  30.158   2.944  13.034
16290W        W81550  13.559   3.816   0.573
16291W        W81551  32.105  18.785  12.471
16292W        W81552  16.117   9.462   3.394
16293W        W81553   0.934   3.668  14.966
16294W        W81554  11.354  22.971   1.251
16295W        W81555  44.490  30.558  12.437
16296W        W81556  11.289  11.634   0.734
16297W        W81557  42.008  42.118  13.594
16298W        W81558  30.108   8.439  12.070
16299W        W81559  11.243   6.558  14.332
16300W        W81560  41.680  19.012  12.130
16301W        W81561   5.262  11.677  10.808
16302W        W81562  38.391   1.204   1.562
16303W        W81563  32.076  24.208   5.550
16304W        W81564  22.603  22.421  13.845
16305W        W81565  34.306   7.866  14.899
16306W        W81566  43.793   6.121  12.671
16307W        W81567   6.315  41.259  12.558
16308W        W81568   8.979  10.082  13.101
16309W        W81569  10.908  26.647  14.384
16310W        W81570  32.532   7.802  13.268
16311W        W81571  22.738  23.572   4.524
16312W        W81572   6.204   7.010   4.138
16313W        W81573   0.424  30.253  11.999
16314W        W81574   4.339  36.374   2.902
16315W        W81575  26.491   1.745   1.722
16316W        W81576   5.914  40.303  14.425
16317W        W81577   1.347  25.061   1.864
16318W        W81578  17.326  31.611  10.428
16319W        W81579   9.078  17.841   3.620
16320W        W81580  28.638  19.302   2.124
16321W        W81581  22.040  20.760  10.097
16322W        W81582  33.403  39.636  11.583
16323W        W81583  32.320  15.387   2.610
16324W        W81584   3.678  35.507  14.798
16325W        W81585  22.272  34.918  12.877
16326W        W81586  35.375  11.912   3.638
16327W        W81587  32.987  28.216  13.076
16328W        W81588  23.654  40.359  11.560
16329W        W81589  27.948  31.575  11.359
16330W        W81590  32.718  39.069  14.763
16331W        W81591   9.276  30.633  14.232
16332W        W81592  35.515  41.839   1.851
16333W        W81593  39.855   8.960   1.778
16334W        W81594  23.896  35.413  14.448
16335W        W81595  34.006  21.139  14.083
16336W        W81596  21.505  23.076   0.163
16337W        W81597  36.866   8.149   0.399
16338W        W81598  34.576  44.760  13.594
16339W        W81599  10.227   3.004   0.092
16340W        W81600  43.903  16.654   4.429
16341W        W81601  39.177  28.879  11.114
16342W        W81602  32.552   5.775  10.718
16343W        W81603  35.786  43.840   0.749
16344W        W81604  38.932  27.908   4.486
16345W        W81605  10.169  13.950   2.905
16346W        W81606  32.017  18.095  14.713
16347W        W81607  36.738  21.139   2.290
16348W        W81608  15.393  34.299  10.810
16349W        W81609  21.748  42.015   4.024
16350W        W81610  32.567  25.534   2.367
16351W        W81611   1.961  16.279  11.389
16352W        W81612  35.566  37.042  12.099
16353W        W81613  29.636   2.973  12.194
16354W        W81614  16.536  24.594  12.016
16355W        W81615  20.587   8.677   2.653
16356W        W81616  37.393  10.862  14.299
16357W        W81617  41.862   4.189  12.787
16358W        W81618  31.684  22.530   3.652
16359W        W81619   0.018  27.999  12.926
16360W        W81620  18.050  41.762   4.780
16361W        W81621  36.646  19.740   2.381
16362W        W81622  17.539  38.522   3.315
16363W        W81623   2.207   9.281  11.277
16364W        W81624  41.482  32.768  10.719
16365W        W81625  12.150  35.186   1.281
16366W        W81626   3.460  21.108   3.715
16367W        W81627   2.209  33.431   4.960
16368W        W81628  24.589  22.695   0.460
16369W        W81629  36.886  34.437   0.464
16370W        W81630   2.991  40.856   1.008
16371W        W81631  10.558  19.841   1.439
16372W        W81632  33.863  21.182   1.279
16373W        W81633  16.886  13.704   3.508
16374W        W81634  39.262  15.599   2.192
16375W        W81635  37.241  38.584   3.912
16376W        W81636  39.180  31.595   1.677
16377W        W81637  43.014  39.471   4.712
16378W        W81638  25.109   2.812   0.032
16379W        W81639  19.664  23.464   2.662
16380W        W81640  26.615  35.154  13.933
16381W        W81641  31.615  38.990  11.543
16382W        W81642  37.113  31.939   3.130
16383W        W81643   4.003  44.360  12.912
16384W        W81644  35.898  40.402   2.364
16385W        W81645   0.414  25.224   0.853
16386W        W81646   3.787  21.093   1.489
16387W        W81647   0.454  21.442  11.937
16388W        W81648  34.512  11.367   3.660
16389W        W81649  24.607   0.769   3.952
16390W        W81650  28.697  21.008  11.144
16391W        W81651   9.517  22.258  13.913
16392W        W81652  21.362  41.024  13.870
16393W        W81653  27.706  19.630   0.258
16394W        W81654  33.393  27.324   0.360
16395W        W81655  10.483  16.262   2.251
16396W        W81656  38.764   9.609   0.625
16397W        W81657  39.788  38.458  14.504
16398W        W81658  18.491  44.987   3.238
16399W        W81659  13.362  25.998   2.943
16400W        W81660  12.573  12.823  14.959
16401W        W81661  22.804  39.978   4.262
16402W        W81662  21.125  21.950  11.759
16403W        W81663  14.776  12.265  14.874
16404W        W81664   9.103  40.031  13.053
16405W        W81665   5.933  22.604   3.913
16406W        W81666  44.793  22.700  10.851
16407W        W81667   2.879   4.772  12.935
16408W        W81668  33.084  34.496  13.921
16409W        W81669   6.411  17.181   1.343
16410W        W81670  38.088  35.249   4.486
16411W        W81671  22.039  35.021   4.550
16412W        W81672   8.159  22.579  12.353
16413W        W81673  15.573  37.465   4.775
16414W        W81674   9.953  18.196   3.870
16415W        W81675  10.112  36.820   3.279
16416W        W81676  21.284  43.149   0.310
16417W        W81677  42.173  18.336   3.858
16418W        W81678  10.272  13.212   0.391
16419W        W81679  28.766  18.776  14.310
16420W        W81680  41.105  16.802   1.702
16421W        W81681   2.205  29.165   1.222
16422W        W81682  16.580  21.646   3.640
16423W        W81683   3.697  30.532   4.231
16424W        W81684  15.152  30.569  11.644
16425W        W81685  35.010  38.088  13.421
16426W        W81686  24.780  17.617  11.619
16427W        W81687  20.087  28.014  14.731
16428W        W81688  36.500  16.043  11.458
16429W        W81689  42.494  42.261   3.125
16430W        W81690  30.403  44.958   0.913
16431W        W81691   2.886  36.085  13.711
16432W        W81692   3.268  41.303  13.872
16433W        W81693  21.236   0.330   1.684
16434W        W81694  11.214   1.666   3.654
16435W        W81695  19.164  38.543   0.841
16436W        W81696   8.143   2.332  14.654
16437W        W81697  35.670   2.833  13.041
16438W        W81698   8.472  17.763  11.515
16439W        W81699  23.771   4.627   1.312
16440W        W81700   1.044  36.076  11.465
16441W        W81701  24.740  31.869   1.626
16442W        W81702  28.972   1.049  12.748
16443W        W81703  24.904  23.577   0.830
16444W        W81704  25.760   6.638  10.737
16445W        W81705  32.707  17.042  12.373
16446W        W81706  39.481  18.482  14.072
16447W        W81707  43.344  35.928   4.553
16448W        W81708  39.090   2.507  10.734
16449W        W81709  34.277  44.730  11.762
16450W        W81710  36.050  13.577  14.344
16451W        W81711  18.238  23.231   2.865
16452W        W81712   3.653  12.684  10.999
16453W        W81713  33.625  32.576  11.215
16454W        W81714  34.589   9.278   3.594
16455W        W81715  29.268  17.900   4.171
16456W        W81716  34.129  15.440   4.175
16457W        W81717  17.596  21.883   0.439
16458W        W81718   0.851  15.449  12.524
16459W        W81719   1.269  11.089   5.377
16460W        W81720   1.949  17.568   2.671
16461W        W81721  42.863   9.094  10.998
16462W        W81722  19.854  10.766   4.144
16463W        W81723  41.612  29.576  14.676
16464W        W81724  33.682  43.890  14.187
16465W        W81725  37.105  11.132  13.074
16466W        W81726  26.209  36.406  13.798
16467W        W81727   2.662  20.714   3.362
16468W        W81728  19.065  40.575   2.179
16469W        W81729   5.187  14.018   1.709
16470W        W81730   4.644  41.796  13.298
16471W        W81731  29.643  16.689  14.059
16472W        W81732   4.085  22.996   4.548
16473W        W81733  27.040   4.011   3.739
16474W        W81734   1.081  41.064  14.872
16475W        W81735   6.479  11.973   4.216
16476W        W81736  22.867  17.585  13.093
16477W        W81737  31.466  37.202   0.276
16478W        W81738   8.349  19.078  11.540
16479W        W81739   8.911   3.245  12.206
16480W        W81740  20.080  34.399   3.364
16481W        W81741   4.848  41.294   4.076
16482W        W81742   6.341  39.022  11.693
16483W        W81743   9.696  25.226   1.734
16484W        W81744   1.801   9.571  12.427
16485W        W81745   5.932  43.881  10.798
16486W        W81746   8.269  41.420  12.959
16487W        W81747  38.477  43.472  12.491
16488W        W81748  42.471  41.016  10.748
16489W        W81749  24.598  28.708  14.491
16490W        W81750  33.052  21.578   4.812
16491W        W81751  14.068  26.417  13.467
16492W        W81752  36.442  28.759   4.510
16493W        W81753  19.605  42.938  14.316
16494W        W81754  11.071  21.080   1.347
16495W        W81755  34.257  40.302  11.428
16496W        W81756  21.464  17.584  12.498
16497W        W81757  21.787  31.679  11.449
16498W        W81758  18.326   3.526  13.575
16499W        W81759  16.406  24.473   3.800
16500W        W81760   2.391  18.161   2.389
16501W        W81761  10.333  30.010  14.912
16502W        W81762  21.241   8.127  13.175
16503W        W81763   0.158   3.017  13.995
16504W        W81764  33.185  19.712   4.397
16505W        W81765  39.427   3.952   1.302
16506W        W81766   2.159  12.613  13.860
16507W        W81767  27.999  29.230  10.643
16508W        W81768  24.222   6.970   4.097
16509W        W81769  31.049  14.897   1.776
16510W        W81770  20.410  31.631  12.089
16511W        W81771   0.405   1.974  12.938
16512W        W81772  12.002  14.771   2.759
16513W        W81773   7.821  39.235  13.597
16514W        W81774  17.435   4.375  11.498
16515W        W81775  18.046  25.126   1.430
16516W        W81776  26.399  34.501   0.966
16517W        W81777   7.694   8.281   0.420
16518W        W81778  28.221  29.209  13.984
16519W        W81779  41.055   1.424   2.795
16520W        W81780  16.492  27.716  13.789
16521W        W81781  33.468  24.919   4.639
16522W        W81782   8.512  22.637   1.900
16523W        W81783  15.494   9.652  10.250
16524W        W81784  38.133  18.290   0.722
16525W        W81785  32.949  16.183  12.397
16526W        W81786  15.995  34.239  11.578
16527W        W81787  21.532  14.653   3.458
16528W        W81788  30.190  29.834  13.953
16529W        W81789  40.514  13.845   2.241
16530W        W81790  39.282  37.778   0.825
16531W        W81791  13.341   6.724   1.724
16532W        W81792   4.493  41.519   0.670
16533W        W81793  27.992   8.156  12.762
16534W        W81794  23.822   1.349   1.848
16535W        W81795  22.917  18.233  14.349
16536W        W81796   7.311  36.175  14.433
16537W        W81797  27.471  41.192  11.131
16538W        W81798  23.687  13.521  12.906
16539W        W81799  34.264  36.899   1.696
16540W        W81800  28.204  13.014  12.338
16541W        W81801  44.127  41.031   1.391
16542W        W81802  24.929   6.990  12.418
16543W        W81803  29.813  20.496   1.139
16544W        W81804   9.295   3.709   1.122
16545W        W81805   3.726   0.621  14.909
16546W        W81806  34.804   2.356  14.964
16547W        W81807  20.524  31.965  13.079
16548W        W81808  44.582  25.420   5.816
16549W        W81809  39.524   4.764   2.756
16550W        W81810  14.817  35.345  12.932
16551W        W81811  20.459  20.242   1.286
16552W        W81812   9.310  19.017  13.521
16553W        W81813  38.007  31.091  11.699
16554W        W81814  40.527   6.938   3.718
16555W        W81815  33.896   8.686   3.163
16556W        W81816  19.081  41.092   1.238
16557W        W81817  34.834  26.598  12.952
16558W        W81818   5.712   9.184   3.235
16559W        W81819  14.660  19.518   0.292
16560W        W81820  18.532  15.253  10.722
16561W        W81821  26.149  23.932  13.570
16562W        W81822   7.748  36.250   1.207
16563W        W81823  35.522  15.599   0.324
16564W        W81824  35.965  15.050   1.443
16565W        W81825   3.361   6.313   2.302
16566W        W81826  24.154  30.713  13.905
16567W        W81827  24.255  11.248   2.185
16568W        W81828   5.129  29.607  14.458
16569W        W81829  18.188   4.499   3.039
16570W        W81830  34.901  14.198   4.591
16571W        W81831   8.657  30.376   2.859
16572W        W81832  28.465  15.533  10.977
16573W        W81833  19.219  10.412  10.648
16574W        W81834  40.075  29.726   4.878
16575W        W81835  21.013  10.820   3.639
16576W        W81836  14.107  28.526  13.302
16577W        W81837   6.343  17.122   4.832
16578W        W81838  36.757  29.374  10.402
16579W        W81839  21.025  38.132   4.570
16580W        W81840  24.130   9.285   0.668
16581W        W81841  19.631  40.466   4.383
16582W        W81842   7.236  30.278  13.404
16583W        W81843  19.258   1.768  11.705
16584W        W81844  41.588   0.416   4.024
16585W        W81845  12.603  33.797   4.033
16586W        W81846  35.169  44.941   3.156
16587W        W81847  24.965  18.241  14.379
16588W        W81848   1.894  33.963  14.858
16589W        W81849   0.574  10.922   4.707
16590W        W81850  25.074  33.155   2.500
16591W        W81851  22.079  21.753  13.805
16592W        W81852  39.255  25.619   2.681
16593W        W81853  35.298   2.467   0.878
16594W        W81854  20.295  26.687  11.722
16595W        W81855   5.572  43.904  12.593
16596W        W81856   0.154   9.108  11.074
16597W        W81857  37.776   9.476   4.502
16598W        W81858  14.163   4.578   1.373
16599W        W81859  37.296   1.911   3.566
16600W        W81860  39.691   8.650   0.975
16601W        W81861  24.035  21.749   3.283
16602W        W81862  14.409   9.750   2.903
16603W        W81863  13.382  21.113   2.706
16604W        W81864  29.958  39.019   4.145
16605W        W81865   2.729   2.986   2.517
16606W        W81866  18.773   4.618   2.827
16607W        W81867  33.469  22.764   0.758
16608W        W81868  31.296  36.329   0.648
16609W        W81869  35.705  43.470  12.932
16610W        W81870  16.179   9.480   0.996
16611W        W81871  31.200  30.586  11.338
16612W        W81872  43.764  18.796   4.541
16613W        W81873  19.094  36.605   4.527
16614W        W81874  21.302  42.301   3.298
16615W        W81875  42.030  37.440   4.536
16616W        W81876  27.875  31.185   1.799
16617W        W81877  40.498   7.104  12.143
16618W        W81878   5.331   3.085   0.238
16619W        W81879  26.483  38.411  12.484
16620W        W81880   9.251   9.016   4.668
16621W        W81881   8.280  36.818   2.893
16622W        W81882  14.674  34.506   4.392
16623W        W81883  43.212  15.729  11.636
16624W        W81884  38.830  44.967   1.744
16625W        W81885  21.293  15.578  11.169
16626W        W81886  32.368  30.521  12.375
16627W        W81887  42.534  10.780  13.649
16628W        W81888  44.691  29.690  14.392
16629W        W81889  21.730  28.642   1.681
16630W        W81890  36.607   8.590   0.388
16631W        W81891  42.791   3.827   2.699
16632W        W81892  20.368  43.460   3.238
16633W        W81893  20.903  28.117   0.822
16634W        W81894  31.764  23.552   9.591
16635W        W81895  14.790  28.597  11.661
16636W        W81896   5.963  17.314   4.019
16637W        W81897  38.447  28.556   3.931
16638W        W81898  21.844   1.381  12.244
16639W        W81899  10.179  24.344  13.102
16640W        W81900  10.520  20.658  10.341
16641W        W81901   5.813  29.089   3.253
16642W        W81902  32.959  29.092   3.273
16643W        W81903  26.567   9.444   2.765
16644W        W81904  31.638   7.143   3.134
16645W        W81905   6.766  15.771  12.561
16646W        W81906  17.283  14.544   4.576
16647W        W81907  10.126  20.240   3.409
16648W        W81908  37.916  14.271   4.631
16649W        W81909  31.086  17.639  13.476
16650W        W81910   7.011  43.405   2.744
16651W        W81911  13.483  33.932   2.199
16652W        W81912  37.917  31.554  12.015
16653W        W81913  20.156  17.667   3.523
16654W        W81914   0.306   7.148  12.070
16655W        W81915  38.300  42.208  10.624
16656W        W81916  31.949  21.229   3.543
16657W        W81917  18.119  40.409   4.866
16658W        W81918   1.892  35.901   4.426
16659W        W81919  29.009  21.552  13.171
16660W        W81920  33.094  22.180   3.466
16661W        W81921  12.906   1.858  14.868
16662W        W81922   6.428  36.067   0.739
16663W        W81923  33.095  30.846  12.775
16664W        W81924  24.954  40.537  11.855
16665W        W81925  11.364  27.755   3.395
16666W        W81926  19.181  35.218   4.317
16667W        W81927  28.460   5.606  12.951
16668W        W81928  43.765   5.022   1.772
16669W        W81929  26.710  25.885   1.444
16670W        W81930  26.509  32.513  11.842
16671W        W81931  39.883  35.760   1.863
16672W        W81932  11.362  12.739   3.825
16673W        W81933  31.649  29.601   1.532
16674W        W81934  21.066  28.594   1.013
16675W        W81935  15.242  21.177   4.873
16676W        W81936  34.108  12.523   4.638
16677W        W81937  17.242  11.266   3.326
16678W        W81938  33.459   5.831   4.141
16679W        W81939  14.139  14.144   0.009
16680W        W81940   5.017   4.122   4.026
16681W        W81941  40.895   7.136   1.715
16682W        W81942   4.839  31.491  12.966
16683W        W81943  27.018  33.072   4.380
16684W        W81944   0.753  27.546   0.821
16685W        W81945  40.027   7.856   0.004
16686W        W81946  18.022   4.765   0.351
16687W        W81947  12.151  22.742  11.254
16688W        W81948  30.239  12.688  10.748
16689W        W81949  11.884  36.470   4.367
16690W        W81950  15.816  16.150  13.762
16691W        W81951  32.424  19.535   5.081
16692W        W81952   7.280  37.542   2.392
16693W        W81953  43.373  13.990   4.697
16694W        W81954  31.940  15.486   3.498
16695W        W81955   0.363  18.228  13.408
16696W        W81956   9.445  25.028   3.598
16697W        W81957   8.066   8.347  12.407
16698W        W81958  27.289  19.634  13.396
16699W        W81959  11.474  26.962   2.689
16700W        W81960   9.384  38.694   1.352
16701W        W81961  26.632   8.976  12.097
16702W        W81962   3.322  11.613   0.669
16703W        W81963  17.597  35.965  12.513
16704W        W81964  25.201  39.460   1.212
16705W        W81965  36.891   9.886   0.581
16706W        W81966  43.349  37.574   3.273
16707W        W81967  42.336   4.463  11.022
16708W        W81968  24.734  17.191   2.332
16709W        W81969  19.539  32.191  12.976
16710W        W81970  25.181  20.517  14.391
16711W        W81971   9.131  14.333  14.516
16712W        W81972  16.765  30.356   2.327
16713W        W81973  43.321  41.040  12.382
16714W        W81974  16.677  32.145  12.020
16715W        W81975  14.697   3.317   3.990
16716W        W81976   0.608   1.243   2.002
16717W        W81977  33.658  34.928  10.912
16718W        W81978  12.497  35.675  13.787
16719W        W81979  22.298  32.967   4.552
16720W        W81980  14.891  20.357   0.909
16721W        W81981   9.838  34.983  12.757
16722W        W81982   4.943  23.096  11.026
16723W        W81983  29.507  16.668  10.712
16724W        W81984  10.947  20.063   2.415
16725W        W81985  26.257  13.322  11.085
16726W        W81986  38.493  12.029  13.480
16727W        W81987  27.091  40.571  12.981
16728W        W81988  39.180  10.862   2.654
16729W        W81989  16.520  23.960   2.346
16730W        W81990  24.292   0.611   0.445
16731W        W81991   8.575  43.173  11.552
16732W        W81992  41.310  15.144  10.327
16733W        W81993  15.844  23.944  14.977
16734W        W81994  42.528   0.928   0.332
16735W        W81995  13.061  31.942  11.109
16736W        W81996  28.989   1.467  11.104
16737W        W81997  13.845  39.646  12.349
16738W        W81998  24.787  28.267   2.817
16739W        W81999  22.932   9.403   1.455
16740W        W82000   5.756   2.895   2.408
16741W        W82001  27.466  33.277  14.229
16742W        W82002  27.960  38.616  11.296
16743W        W82003  25.569  16.026  10.040
16744W        W82004  11.898  40.093  11.959
16745W        W82005  27.698  36.571   2.018
16746W        W82006  34.892   3.975   4.430
16747W        W82007  17.421   8.741   4.103
16748W        W82008  41.433  34.411  11.744
16749W        W82009  10.443  31.116   1.016
16750W        W82010  32.989  11.603  12.082
16751W        W82011  20.021  19.152   2.303
16752W        W82012  42.379  13.368  10.546
16753W        W82013  38.915  29.443  14.275
16754W        W82014  43.501  42.831   2.465
16755W        W82015  13.163  43.095  13.831
16756W        W82016  40.514   9.784   4.531
16757W        W82017  41.357  44.841  12.829
16758W        W82018  39.817  40.446   0.702
16759W        W82019  26.676  35.845   0.383
16760W        W82020   3.730  30.160  14.596
16761W        W82021  30.666  42.800  11.940
16762W        W82022  28.918  43.888   3.841
16763W        W82023  34.615  35.735   2.351
16764W        W82024  43.234   7.715  12.822
16765W        W82025   8.217  34.422   0.715
16766W        W82026  38.769  10.437   4.275
16767W        W82027   6.367  19.469   4.149
16768W        W82028  36.468  20.397  13.983
16769W        W82029  23.077  28.608  12.894
16770W        W82030  16.487  29.484  13.851
16771W        W82031  23.542  33.801  11.110
16772W        W82032   4.753  13.571   1.285
16773W        W82033  25.648  27.936   2.137
16774W        W82034  12.409  38.050  14.465
16775W        W82035  11.947  44.813   4.158
16776W        W82036  35.678  37.298  14.447
16777W        W82037  12.427  26.095   1.757
16778W        W82038  25.249  29.516   5.393
16779W        W82039  20.455  17.591  11.073
16780W        W82040  38.407  34.885   1.375
16781W        W82041  41.749   4.697   2.661
16782W        W82042   4.841  16.747  11.612
16783W        W82043   2.686  18.813  13.395
16784W        W82044  29.448  15.637   2.324
16785W        W82045   5.852  26.301   5.074
16786W        W82046   3.742   2.830  13.151
16787W        W82047  43.441  17.633  14.062
16788W        W82048  36.555  16.796  11.018
16789W        W82049  36.677  43.048  11.970
16790W        W82050  39.971  28.723  11.197
16791W        W82051  27.348  17.736  14.988
16792W        W82052  18.461   7.690   2.745
16793W        W82053  14.524  30.661  10.732
16794W        W82054  33.660  17.093  12.348
16795W        W82055   2.311  35.890  14.809
16796W        W82056  24.056  22.249   3.404
16797W        W82057   7.934  23.792   0.922
16798W        W82058  40.229  25.485   2.869
16799W        W82059  34.122  35.125   1.974
16800W        W82060  20.093  37.905   1.427
16801W        W82061  39.953  29.105   0.833
16802W        W82062  25.507  30.517   5.052
16803W        W82063  21.196  18.839  14.277
16804W        W82064  32.627  35.767   0.310
16805W        W82065   1.077  41.857  12.044
16806W        W82066  37.883  33.917  10.728
16807W        W82067  12.959  19.318   0.508
16808W        W82068  44.806  28.864   3.537
16809W        W82069  40.067  24.529  12.479
16810W        W82070  38.358  11.065  14.645
16811W        W82071  35.091  26.691   4.090
16812W        W82072   7.236  37.924  14.976
16813W        W82073  43.470   8.794  12.466
16814W        W82074  35.130  13.164   1.658
16815W        W82075  24.256  17.158   9.552
16816W        W82076  12.197  40.798  11.109
16817W        W82077  16.661  40.482  12.369
16818W        W82078  14.534   5.441  14.316
16819W        W82079  11.612   8.390  10.674
16820W        W82080  31.096  19.498  11.993
16821W        W82081   8.779  14.058  13.364
16822W        W82082  35.514  22.017  14.443
16823W        W82083   4.250   0.870   3.840
16824W        W82084  22.467   0.469  14.540
16825W        W82085  19.802  24.039  11.101
16826W        W82086  17.540  37.963   1.464
16827W        W82087  18.518   5.420  12.503
16828W        W82088  35.663   5.489   3.266
16829W        W82089  27.445  34.864  13.835
16830W        W82090  42.028  19.193   3.775
16831W        W82091  34.514  33.623   0.726
16832W        W82092  24.104  28.514   3.403
16833W        W82093  29.994  23.035   3.078
16834W        W82094   8.090  14.974   1.816
16835W        W82095  38.121  15.696   0.893
16836W        W82096  23.464  13.650  13.375
16837W        W82097  33.582  24.191   3.159
16838W        W82098   7.433  31.489  11.020
16839W        W82099  28.265  23.754  11.533
16840W        W82100  29.311  39.857   4.934
16841W        W82101  11.694   3.946  14.867
16842W        W82102  42.959  32.180  10.000
16843W        W82103  23.601  20.979   1.297
16844W        W82104  20.990  35.486   9.885
16845W        W82105  22.604  40.968  13.488
16846W        W82106  27.967  35.133   3.265
16847W        W82107  23.647  41.380  14.269
16848W        W82108  17.996   6.998  13.316
16849W        W82109   5.861  26.429   1.336
16850W        W82110  41.475   8.607  12.009
16851W        W82111  17.142   6.323   0.126
16852W        W82112  17.055  31.128   3.207
16853W        W82113  20.187  18.241  12.185
16854W        W82114  13.784  10.564   2.765
16855W        W82115  29.125  30.647  12.839
16856W        W82116  29.574  28.348   2.972
16857W        W82117  14.559  38.052  13.740
16858W        W82118  13.700  18.138  11.452
16859W        W82119   8.353  20.736   0.788
16860W        W82120  25.705  44.355  13.821
16861W        W82121  14.296   8.159  14.960
16862W        W82122   1.460  37.988  11.955
16863W        W82123  39.029  30.833  13.539
16864W        W82124  12.062   8.889   3.095
16865W        W82125  38.514  19.584  11.661
16866W        W82126  34.830  26.259   0.764
16867W        W82127  22.691  25.649  12.795
16868W        W82128  41.749  40.310  14.790
16869W        W82129   5.935   2.390  10.375
16870W        W82130  28.150  28.395  14.512
16871W        W82131  24.141  32.071  14.581
16872W        W82132  39.798  28.444  11.593
16873W        W82133   6.146  40.528   2.872
16874W        W82134  16.670   5.788  11.371
16875W        W82135   5.127   0.695   1.257
16876W        W82136  44.917  18.542   3.645
16877W        W82137  17.046  17.990  13.406
16878W        W82138  23.616  44.315  12.200
16879W        W82139  24.008  32.627  13.445
16880W        W82140  11.289  39.259   0.261
16881W        W82141  10.886   7.917   3.162
16882W        W82142  22.909  40.560  11.972
16883W        W82143  30.906  10.129   1.715
16884W        W82144  28.904  29.573  10.870
16885W        W82145  38.099  10.009   0.325
16886W        W82146  36.181  14.400  11.842
16887W        W82147  17.210  26.184  10.764
16888W        W82148   0.458   9.156  12.144
16889W        W82149  39.401  37.621   3.612
16890W        W82150  11.583  22.634   4.128
16891W        W82151  39.261  19.303  14.484
16892W        W82152  43.734   1.250  13.108
16893W        W82153  42.898  38.831  12.417
16894W        W82154  28.448  22.197   2.594
16895W        W82155  11.596  35.393   2.203
16896W        W82156  31.045  38.475   2.838
16897W        W82157  26.301   2.792  12.122
16898W        W82158   6.882   4.241  12.120
16899W        W82159   2.508  37.504   1.947
16900W        W82160  23.777  34.061  11.498
16901W        W82161  31.661   7.177   0.741
16902W        W82162  21.930  32.436   1.780
16903W        W82163  24.957   9.246   2.595
16904W        W82164  13.317  23.686   2.693
16905W        W82165  39.221   0.753   2.641
16906W        W82166  35.510  22.339   4.233
16907W        W82167   2.558  16.150   2.707
16908W        W82168   3.225  16.504  11.092
16909W        W82169  30.701  12.517   2.859
16910W        W82170  15.675   5.021   1.252
16911W        W82171  35.368   4.844  14.306
16912W        W82172  42.983  19.031  13.944
16913W        W82173   5.844  26.532  11.659
16914W        W82174  18.342  30.035  12.453
16915W        W82175  15.600  36.365   4.446
16916W        W82176  29.973   9.429   1.345
16917W        W82177  32.617  41.960   4.602
16918W        W82178  17.804  32.325   4.218
16919W        W82179  27.381   0.068   3.635
16920W        W82180   1.025   9.149  13.473
16921W        W82181  37.441   2.981  12.980
16922W        W82182  37.374   3.295  11.541
16923W        W82183  20.931  34.892  11.142
16924W        W82184  37.882  37.758  11.631
16925W        W82185  33.892  11.822  11.251
16926W        W82186   1.198   5.247  11.689
16927W        W82187  41.269  36.964   3.300
16928W        W82188  33.945  13.586   1.680
16929W        W82189  27.545  43.925   0.561
16930W        W82190  44.360   4.204  11.762
16931W        W82191  26.135  40.031  12.004
16932W        W82192  22.035  43.004   1.864
16933W        W82193   6.294   2.578  12.069
16934W        W82194   4.776   9.775   1.511
16935W        W82195  38.484  20.423   3.281
16936W        W82196  44.256  26.611  14.375
16937W        W82197  26.479  31.056   4.880
16938W        W82198  11.646  42.359   4.522
16939W        W82199  35.636  20.177   4.329
16940W        W82200  19.038   6.425  12.104
16941W        W82201  12.313  24.219  14.026
16942W        W82202  15.075  27.159   4.609
16943W        W82203  12.604  20.552   1.747
16944W        W82204  42.712  29.146   0.319
16945W        W82205  23.934   8.340   3.710
16946W        W82206  32.758  25.371  12.466
16947W        W82207   5.357  24.246  11.529
16948W        W82208  15.559   7.268   0.310
16949W        W82209  27.059   8.044   9.856
16950W        W82210  29.481  36.767  13.781
16951W        W82211   7.382   7.653  10.998
16952W        W82212  33.396  39.120  14.233
16953W        W82213  10.793   8.639   2.208
16954W        W82214  29.128   4.250   0.648
16955W        W82215  33.549  27.646   2.717
16956W        W82216  39.923  16.927   1.318
16957W        W82217  22.512  13.875  11.820
16958W        W82218   6.914  10.900  13.470
16959W        W82219   5.307  28.254   0.422
16960W        W82220  38.928  21.064   4.583
16961W        W82221  43.445  22.654   3.366
16962W        W82222  29.255  33.956   0.782
16963W        W82223   3.665   2.332  12.615
16964W        W82224  24.739  14.407  12.965
16965W        W82225  13.430  44.958  13.761
16966W        W82226  37.333  22.421  11.641
16967W        W82227  31.811  36.456  12.601
16968W        W82228   4.349   0.414  13.114
16969W        W82229   5.346  12.133   1.006
16970W        W82230  17.403  21.167  10.849
16971W        W82231   2.315  38.347   4.577
16972W        W82232  29.966   4.775   1.298
16973W        W82233  40.743  13.124  13.054
16974W        W82234  16.424  14.287  11.293
16975W        W82235  10.445   6.911  12.506
16976W        W82236  30.002  23.499   0.410
16977W        W82237  17.802  34.013   0.874
16978W        W82238  41.505  19.116   0.968
16979W        W82239  31.603  28.725   1.192
16980W        W82240  14.582  25.450   0.788
16981W        W82241   3.717  33.386   1.310
16982W        W82242  10.844  22.979   4.662
16983W        W82243   4.844  16.512   3.770
16984W        W82244  35.952  44.208   1.977
16985W        W82245   5.935  22.899  11.721
16986W        W82246   0.562  44.680  13.458
16987W        W82247  12.185  31.473   3.345
16988W        W82248   2.306  11.944   4.946
16989W        W82249   4.883  43.010  10.892
16990W        W82250  32.819  18.037   0.334
16991W        W82251  14.054  20.494   3.750
16992W        W82252   6.238  13.409   3.244
16993W        W82253  10.276  35.983   1.803
16994W        W82254   4.866   4.366  10.360
16995W        W82255   1.390  12.828  11.621
16996W        W82256  40.985  37.300   2.612
16997W        W82257  11.090   8.742   3.095
16998W        W82258  25.551  32.699  11.132
16999W        W82259   5.326  27.169   3.216
17000W        W82260  40.884  37.789   2.830
17001W        W82261   6.299  18.775  11.672
17002W        W82262  33.518  41.070  11.352
17003W        W82263  27.686  12.282  10.983
17004W        W82264   0.357  44.686   1.171
17005W        W82265  22.479  21.617   0.869
17006W        W82266  28.528   6.344   1.699
17007W        W82267   1.415  13.019   2.362
17008W        W82268  41.957  42.663  11.623
17009W        W82269  44.819  29.384   0.490
17010W        W82270  27.691  23.735   1.758
17011W        W82271  29.566  24.265   0.773
17012W        W82272  43.087  42.302  10.684
17013W        W82273   1.994  17.076  13.502
17014W        W82274  26.166  36.601   4.050
17015W        W82275  24.074  17.796  12.605
17016W        W82276  11.912  26.018  12.668
17017W        W82277   0.293   4.738  11.756
17018W        W82278  16.025  38.960   2.430
17019W        W82279  15.778   5.351  13.007
17020W        W82280  30.762  33.829   3.150
17021W        W82281  16.067   0.917   2.401
17022W        W82282  11.029   9.581  13.218
17023W        W82283  43.951  44.419  14.345
17024W        W82284  18.585   1.355   4.920
17025W        W82285   6.879  32.939   0.412
17026W        W82286  14.087  13.237  14.983
17027W        W82287   0.270  35.405   3.785
17028W        W82288   9.845  31.900   0.840
17029W        W82289  36.913   4.216  12.913
17030W        W82290  35.788  30.140   2.296
17031W        W82291  14.179  12.572  13.742
17032W        W82292  43.851  31.815   4.201
17033W        W82293   3.839  29.755  12.952
17034W        W82294  35.601  11.049   0.210
17035W        W82295  39.983  29.802   0.864
17036W        W82296   1.682  25.809  14.046
17037W        W82297   0.805  35.002  14.921
17038W        W82298   4.398  35.038  13.028
17039W        W82299  32.360  41.650  12.077
17040W        W82300  37.479  12.765   1.920
17041W        W82301   7.733  43.125  14.690
17042W        W82302  36.427  15.678  12.256
17043W        W82303   0.809  14.778   3.305
17044W        W82304   7.100  36.999  10.712
17045W        W82305   8.120   3.783  13.890
17046W        W82306   4.051  39.868   2.997
17047W        W82307  28.378  39.124  11.950
17048W        W82308   1.292  16.656   0.281
17049W        W82309  12.879  23.507  11.204
17050W        W82310  36.470   5.835   4.548
17051W        W82311  25.177  40.085   4.331
17052W        W82312   3.696  18.671   3.680
17053W        W82313  36.918   5.885  10.367
17054W        W82314  15.500  36.128   2.363
17055W        W82315   9.304  18.900   4.344
17056W        W82316  19.884  21.497   4.099
17057W        W82317  44.078  39.494   1.664
17058W        W82318  20.680  41.376   0.420
17059W        W82319  15.597  17.304   4.462
17060W        W82320   1.251  43.412  13.952
17061W        W82321  24.694  26.988   3.300
17062W        W82322  12.262  20.365   2.155
17063W        W82323  32.943  19.635   0.682
17064W        W82324  27.938  10.561   4.229
17065W        W82325  11.855  12.674   4.577
17066W        W82326   3.915   4.248   1.716
17067W        W82327  23.919  42.061  14.502
17068W        W82328  42.388  26.217   4.827
17069W        W82329   0.051  27.551   2.727
17070W        W82330  16.707  38.699   1.254
17071W        W82331  39.986  23.889  10.993
17072W        W82332  31.162  34.043  13.129
17073W        W82333   1.367  26.139  13.797
17074W        W82334  17.229  22.237  11.919
17075W        W82335  13.826  30.502  12.262
17076W        W82336  18.799  34.501   0.304
17077W        W82337  42.387   5.288  13.814
17078W        W82338  40.772  37.322  12.970
17079W        W82339  21.364  15.955   2.250
17080W        W82340  19.208  24.550  10.666
17081W        W82341   2.391  38.118   3.266
17082W        W82342  20.370  24.980  13.009
17083W        W82343   1.781  24.637   0.791
17084W        W82344   7.637   3.837  14.068
17085W        W82345  32.622  19.678  13.385
17086W        W82346  33.611  27.732  11.682
17087W        W82347   8.913   0.948   3.219
17088W        W82348  38.425  33.623  14.497
17089W        W82349  23.033  14.193   1.209
17090W        W82350   9.710  21.191  10.661
17091W        W82351  11.160   9.244  12.424
17092W        W82352  24.674   1.196   3.713
17093W        W82353  34.139  20.048  10.811
17094W        W82354  44.057   4.517  14.325
17095W        W82355   4.804  24.614  14.487
17096W        W82356  28.212  30.846  11.605
17097W        W82357  33.511   5.201  12.109
17098W        W82358  16.204   5.355   4.142
17099W        W82359   9.103   9.866   1.292
17100W        W82360   0.281  33.020   1.769
17101W        W82361  34.430  42.730  11.550
17102W        W82362   3.594  34.868  11.307
17103W        W82363  16.800  33.681   0.537
17104W        W82364   2.729   2.892  12.984
17105W        W82365  41.285  29.669   4.248
17106W        W82366  24.696  38.304   4.038
17107W        W82367  39.375  41.512   4.678
17108W        W82368  28.469  26.766   1.705
17109W        W82369   7.902  17.036  11.123
17110W        W82370   1.843   1.344  11.453
17111W        W82371  15.162  40.659  12.619
17112W        W82372   1.929  32.535  13.770
17113W        W82373   0.864  15.044  14.960
17114W        W82374  35.929  29.079  11.243
17115W        W82375   2.985  37.286  12.520
17116W        W82376  39.576  14.691  12.495
17117W        W82377   4.746  37.011   0.980
17118W        W82378  18.818   1.491  11.758
17119W        W82379  29.427  22.015  11.652
17120W        W82380  39.301   1.954  14.883
17121W        W82381   1.996  15.578   2.759
17122W        W82382  24.119  13.300  11.118
17123W        W82383  21.477  32.045   9.917
17124W        W82384   7.762  35.925  11.594
17125W        W82385  25.495  19.924  13.375
17126W        W82386  37.086  22.030   0.304
17127W        W82387  14.535  43.981   1.619
17128W        W82388   6.984  31.743   1.458
17129W        W82389   6.318  21.163   3.362
17130W        W82390  37.891  31.663   3.404
17131W        W82391  16.895  12.184  12.021
17132W        W82392  14.178  11.954  14.391
17133W        W82393   4.585  33.588  12.210
17134W        W82394  20.563  23.263   0.008
17135W        W82395  41.759  13.363  14.985
17136W        W82396  20.608  20.526   2.715
17137W        W82397  12.745  38.092   3.054
17138W        W82398  44.530  18.297   2.814
17139W        W82399  12.718  24.950   4.580
17140W        W82400  27.399   4.334   2.935
17141W        W82401  21.620  42.277  13.403
17142W        W82402   6.233  39.091  10.383
17143W        W82403  44.123   7.270  11.359
17144W        W82404  35.516  16.370   1.259
17145W        W82405  44.385  41.218  11.191
17146W        W82406  38.339   9.906   3.825
17147W        W82407  29.527  16.148  11.486
17148W        W82408  15.319  35.881  10.782
17149W        W82409  28.753  24.192  12.057
17150W        W82410   6.118  41.240  12.089
17151W        W82411  39.304  16.627  13.808
17152W        W82412   3.750   6.563  12.796
17153W        W82413   6.257  16.315  13.981
17154W        W82414   3.775  21.447   1.983
17155W        W82415  34.532  20.601   3.825
17156W        W82416   2.956  13.164  13.925
17157W        W82417  22.495   4.314  14.996
17158W        W82418  37.238  36.839  13.102
17159W        W82419   3.157  43.820   4.388
17160W        W82420  14.928  33.233   2.817
17161W        W82421   4.442  43.067   4.230
17162W        W82422  43.797  39.349  11.292
17163W        W82423  38.006   2.239   0.970
17164W        W82424  33.817   6.447  11.966
17165W        W82425  26.892  35.798   5.055
17166W        W82426  32.825  43.859   4.023
17167W        W82427  44.222  40.019   0.994
17168W        W82428  13.311   4.240  14.977
17169W        W82429  16.127  10.256  10.200
17170W        W82430  40.722  24.115   2.659
17171W        W82431  32.728  24.133  10.387
17172W        W82432  40.396   2.846  14.398
17173W        W82433   8.509   2.967   1.860
17174W        W82434  35.993   3.161  14.789
17175W        W82435  31.339   6.347   0.624
17176W        W82436  42.889  16.858  12.364
17177W        W82437  21.298  17.803   3.685
17178W        W82438  40.283   0.988   4.518
17179W        W82439  44.519  17.763   1.410
17180W        W82440  29.879  26.047   3.234
17181W        W82441  37.402  19.111   3.350
17182W        W82442   0.775  11.748   0.616
17183W        W82443  44.219  40.970   3.469
17184W        W82444  16.434  37.623   3.293
17185W        W82445  27.288   8.043  14.813
17186W        W82446  11.865  41.812   0.245
17187W        W82447   1.152  17.659   2.091
17188W        W82448  18.103  34.021   2.494
17189W        W82449  25.803  25.411  14.258
17190W        W82450  13.851  20.174  13.172
17191W        W82451  37.479  24.706  13.389
17192W        W82452  19.061  25.743  12.144
17193W        W82453   2.567  40.793  13.018
17194W        W82454   0.803   6.782   4.598
17195W        W82455  41.553  22.362  12.070
17196W        W82456   9.404  40.441   0.830
17197W        W82457   3.915   3.321   4.550
17198W        W82458   9.370  26.292   4.124
17199W        W82459  44.373  16.194  14.381
17200W        W82460   6.362  30.852  11.582
17201W        W82461  18.669  33.134   3.833
17202W        W82462  29.930   3.479  12.161
17203W        W82463  17.714  42.748  11.568
17204W        W82464  38.126   0.200   3.231
17205W        W82465  16.898   4.379  13.391
17206W        W82466   4.215  23.814  12.544
17207W        W82467  43.601  42.290  10.642
17208W        W82468  31.189  32.665  11.149
17209W        W82469   4.137  34.889   3.725
17210W        W82470   5.632  39.821  14.306
17211W        W82471   9.421  36.185  14.927
17212W        W82472  11.764  21.743   0.855
17213W        W82473  23.942  43.042  11.637
17214W        W82474  28.220   5.408   0.208
17215W        W82475  37.368  35.835   0.940
17216W        W82476  16.314  10.142  10.668
17217W        W82477  24.635  27.924   4.559
17218W        W82478  36.598  25.437  10.791
17219W        W82479  13.288   0.336   3.515
17220W        W82480  11.196  20.095  14.924
17221W        W82481  29.059  37.125  14.145
17222W        W82482  26.741  43.330  11.382
17223W        W82483  33.582  11.885   0.921
17224W        W82484  41.552   3.882   4.662
17225W        W82485  30.154   5.040   2.140
17226W        W82486  13.022  19.155  10.937
17227W        W82487  44.536  37.417  14.358
17228W        W82488  32.589   4.625   1.558
17229W        W82489  20.788  15.374  13.859
17230W        W82490  27.638  25.428  11.641
17231W        W82491  20.317   7.204  13.840
17232W        W82492  12.499  19.320   2.307
17233W        W82493   2.565  39.863   1.958
17234W        W82494  14.980  20.950  10.709
17235W        W82495  33.848   0.865   1.467
17236W        W82496   6.868  36.271   1.302
17237W        W82497  10.275   0.488   3.026
17238W        W82498  34.257  30.094  13.904
17239W        W82499   0.098  26.988   0.896
17240W        W82500  24.677  42.406  13.032
17241W        W82501   8.325  34.105  13.941
17242W        W82502  29.136  12.756  14.196
17243W        W82503  26.651  43.905   3.412
17244W        W82504  13.065  23.162   0.998
17245W        W82505  30.548   2.714   1.163
17246W        W82506  35.325  13.133  12.664
17247W        W82507  18.432  14.338  11.753
17248W        W82508  18.188  20.680  11.712
17249W        W82509   4.189   2.398  13.467
17250W        W82510  17.370  21.584   2.230
17251W        W82511   8.899  26.774  12.439
17252W        W82512  13.322  10.848   3.905
17253W        W82513   5.341  20.552   0.854
17254W        W82514  30.982  19.649   2.236
17255W        W82515  13.192   3.956  12.814
17256W        W82516  12.367  44.327  11.226
17257W        W82517  30.696  28.340  12.987
17258W        W82518  23.531   8.962   2.324
17259W        W82519   1.944  35.682   1.541
17260W        W82520   0.749  35.366  14.415
17261W        W82521  41.518   1.722  13.449
17262W        W82522   1.912  25.987   3.201
17263W        W82523  22.627  17.691  10.231
17264W        W82524  30.901  12.186   0.752
17265W        W82525   9.791  31.885   2.358
17266W        W82526  11.310  44.243   2.628
17267W        W82527   2.325  16.965  11.145
17268W        W82528  26.215   9.506   1.257
17269W        W82529  25.715  15.715   1.809
17270W        W82530  25.969  22.417  13.234
17271W        W82531  38.413  15.174   3.339
17272W        W82532   9.701  28.881  13.713
17273W        W82533  36.603  23.691   2.677
17274W        W82534   0.393   3.271   3.226
17275W        W82535  38.132  42.743  12.950
17276W        W82536  40.406  14.125   1.801
17277W        W82537   7.252  39.279   0.763
17278W        W82538  24.059  24.063   2.604
17279W        W82539  33.541   1.481   4.652
17280W        W82540  12.144  25.012   0.884
17281W        W82541   3.365  18.289   3.847
17282W        W82542   3.943  19.988   0.717
17283W        W82543   6.655  17.261  13.968
17284W        W82544  14.804  37.370  10.742
17285W        W82545  36.369  41.476  14.452
17286W        W82546  24.667  31.009   2.159
17287W        W82547  37.998  15.665   4.213
17288W        W82548  33.150   2.989  11.048
17289W        W82549  36.340  17.199  14.546
17290W        W82550  39.689   3.925  14.377
17291W        W82551  40.417  43.597  12.587
17292W        W82552  37.602   5.339   4.771
17293W        W82553  22.200  23.325  13.988
17294W        W82554  44.480  30.185   4.301
17295W        W82555  31.985  28.996  12.392
17296W        W82556  36.556  40.291  13.127
17297W        W82557  25.154   1.307   4.938
17298W        W82558  19.244  26.076  14.000
17299W        W82559  30.669  10.109  12.826
17300W        W82560  25.711  20.088   2.101
17301W        W82561  11.265  39.981  12.574
17302W        W82562   7.839  39.183   3.816
17303W        W82563  15.271  36.035   1.010
17304W        W82564   5.847   9.937   1.784
17305W        W82565  42.351  18.832  10.710
17306W        W82566  38.278  16.141  11.016
17307W        W82567  11.715  30.976  10.672
17308W        W82568   5.433  11.818   2.637
17309W        W82569  24.008   7.849  13.757
17310W        W82570  15.150  26.518   4.169
17311W        W82571  39.061  12.850  10.575
17312W        W82572  36.331  28.931  11.556
17313W        W82573   3.959   9.747  10.986
17314W        W82574  26.606  17.001  13.142
17315W        W82575  38.946  20.829   0.247
17316W        W82576   6.481  21.551  14.367
17317W        W82577  35.424  29.148   0.230
17318W        W82578  20.478  23.588   4.204
17319W        W82579  25.972  19.420   0.515
17320W        W82580  27.719  14.226  11.615
17321W        W82581  13.256  12.366   0.033
17322W        W82582  39.278  30.451  13.840
17323W        W82583  36.087  22.310   3.291
17324W        W82584  13.555  28.400  11.154
17325W        W82585   5.384   9.881   2.661
17326W        W82586  37.573   6.464  12.553
17327W        W82587  37.068  11.132   3.352
17328W        W82588  24.898  41.364  11.102
17329W        W82589  42.588  43.479  13.573
17330W        W82590  16.617  13.985  12.407
17331W        W82591  25.272  24.619   5.029
17332W        W82592  11.177   3.265  13.238
17333W        W82593  26.902  18.761   3.103
17334W        W82594  37.731   0.117  13.031
17335W        W82595  20.312  36.792   5.029
17336W        W82596  10.921  37.437  12.962
17337W        W82597  42.774  42.780   4.660
17338W        W82598  28.108   4.310  13.286
17339W        W82599  44.695  29.578  12.393
17340W        W82600  12.977   1.346   3.795
17341W        W82601  38.780  26.368   1.207
17342W        W82602  24.639   8.251   1.067
17343W        W82603  17.014  17.810  13.894
17344W        W82604   6.994  40.851   4.318
17345W        W82605  42.024  13.821  13.899
17346W        W82606  23.044  28.243   0.128
17347W        W82607  17.859   6.072  11.204
17348W        W82608  20.432  21.214   1.166
17349W        W82609  11.744  24.924   4.012
17350W        W82610  24.939  41.359   4.617
17351W        W82611  37.672   8.967  10.053
17352W        W82612  33.952  19.217   4.878
17353W        W82613  32.901  14.122   0.918
17354W        W82614  32.694  23.822  14.822
17355W        W82615  33.947  17.059  11.492
17356W        W82616  38.628  19.084   3.265
17357W        W82617  35.146  18.801  14.766
17358W        W82618  23.777  42.383  14.011
17359W        W82619  38.112   6.554  14.313
17360W        W82620  27.011  14.795  13.984
17361W        W82621  14.826  37.857   4.880
17362W        W82622  10.756  40.402  10.729
17363W        W82623  11.255   4.232   0.374
17364W        W82624  43.977  20.227  14.427
17365W        W82625  14.306  11.068  11.187
17366W        W82626  37.989   9.208   3.504
17367W        W82627   4.327  17.640  12.634
17368W        W82628  44.011  28.610   3.668
17369W        W82629  22.213  14.143   0.671
17370W        W82630  34.408  17.514   0.388
17371W        W82631  28.663  37.195  11.893
17372W        W82632   5.010   7.307  11.206
17373W        W82633  43.344   2.810   0.309
17374W        W82634  13.256  32.004   3.996
17375W        W82635  24.305  34.568   2.969
17376W        W82636  15.224   8.986  12.542
17377W        W82637  35.599  20.492   2.272
17378W        W82638  10.312  28.883  13.560
17379W        W82639  20.742  37.070   5.121
17380W        W82640   8.453  15.938   1.918
17381W        W82641  43.458   7.862  11.497
17382W        W82642  16.764  12.944   3.986
17383W        W82643  25.708  41.440   0.799
17384W        W82644  39.205  37.398  14.933
17385W        W82645   0.470   2.994  12.015
17386W        W82646  24.631  40.538   1.869
17387W        W82647   2.753  34.190   0.908
17388W        W82648  40.329  39.541  11.680
17389W        W82649   6.433   7.759   0.524
17390W        W82650  10.902  18.112  10.698
17391W        W82651   8.784  17.364   3.927
17392W        W82652  26.995  33.907   1.323
17393W        W82653   6.762  27.249   0.909
17394W        W82654  32.986  14.572  11.556
17395W        W82655  33.595  41.474  11.665
17396W        W82656  34.687   7.505  11.206
17397W        W82657  11.787  44.396   4.490
17398W        W82658  10.057   3.288  10.718
17399W        W82659  38.657  26.934  14.279
17400W        W82660  19.654  41.503  11.407
17401W        W82661  44.261  43.250   1.368
17402W        W82662  13.133  44.880   4.882
17403W        W82663  36.414  22.185  13.995
17404W        W82664  23.719  23.009   0.517
17405W        W82665  14.492  28.789  13.576
17406W        W82666  19.751   3.761   4.758
17407W        W82667  10.749  20.180   4.164
17408W        W82668  39.303  36.865   1.852
17409W        W82669  39.314  15.180  14.808
17410W        W82670   7.579  36.973   3.515
17411W        W82671  24.500  41.628   2.779
17412W        W82672  32.264  40.889   1.533
17413W        W82673  37.152  40.645  14.203
17414W        W82674  14.660  24.426  14.882
17415W        W82675  29.049  39.018   3.646
17416W        W82676   6.972  29.616   1.095
17417W        W82677  33.596   4.216   4.501
17418W        W82678   3.079   4.133   3.304
17419W        W82679  43.025  21.157  13.508
17420W        W82680  42.052  43.425  11.172
17421W        W82681   5.048  12.677   2.196
17422W        W82682  23.298  39.504   1.393
17423W        W82683  34.444   0.241  12.474
17424W        W82684  37.984   4.770   2.499
17425W        W82685   2.546   6.065  10.151
17426W        W82686  23.039  21.667  11.524
17427W        W82687  25.837   4.495  13.004
17428W        W82688  31.910   1.961  11.672
17429W        W82689   6.757  25.035  13.616
17430W        W82690  29.186  43.986   1.444
17431W        W82691  26.439  24.488   0.717
17432W        W82692  36.925   1.209   2.093
17433W        W82693  15.466  20.634   1.374
17434W        W82694  43.396  42.158   4.499
17435W        W82695  21.666  26.993   2.258
17436W        W82696  16.696  10.273  13.462
17437W        W82697  14.399  28.765   2.651
17438W        W82698  40.740  24.507  14.924
17439W        W82699  43.082  15.562  11.151
17440W        W82700  37.416  35.343  12.880
17441W        W82701  36.614  14.740   3.749
17442W        W82702  15.252  11.331   1.900
17443W        W82703   4.353  11.261  12.907
17444W        W82704  13.804  28.220  10.728
17445W        W82705  24.784   8.371   1.591
17446W        W82706   4.932  16.085   1.852
17447W        W82707  24.272  12.162   2.768
17448W        W82708  26.856  40.454   3.257
17449W        W82709  20.078  25.586  13.033
17450W        W82710   4.008  11.899  12.826
17451W        W82711  27.113  33.553   3.192
17452W        W82712   3.406   3.701   2.304
17453W        W82713  31.400  34.436   3.676
17454W        W82714   0.019  32.578  12.440
17455W        W82715  22.582   5.394   1.418
17456W        W82716  37.938   9.007  11.884
17457W        W82717  16.062   7.906   1.743
17458W        W82718  28.591   3.457   2.852
17459W        W82719   4.393   6.282  11.122
17460W        W82720  36.076   9.737  14.542
17461W        W82721   1.886  13.744   2.134
17462W        W82722  17.096  15.621   1.799
17463W        W82723  22.469  27.673   4.146
17464W        W82724  11.222   4.763  14.447
17465W        W82725  34.074  13.269  14.403
17466W        W82726  19.644   5.028  10.014
17467W        W82727  16.236   1.373   0.915
17468W        W82728   3.942  30.595   4.793
17469W        W82729  44.786   0.592   2.300
17470W        W82730   0.714  10.287   3.602
17471W        W82731  17.160  21.737  14.300
17472W        W82732  44.422  20.253   3.791
17473W        W82733  26.505  42.344  11.138
17474W        W82734  34.407  43.757   5.212
17475W        W82735  13.948  35.636   3.254
17476W        W82736  15.636  13.279   2.324
17477W        W82737  17.535   8.283  12.555
17478W        W82738  12.898   0.319   2.698
17479W        W82739  16.859  40.127  10.069
17480W        W82740   1.405  19.768   0.208
17481W        W82741  37.187  17.425   3.273
17482W        W82742   5.749  20.524  13.513
17483W        W82743  13.720  18.570  10.489
17484W        W82744  31.438  13.711   0.828
17485W        W82745  28.977  35.181  11.029
17486W        W82746  29.969   7.313   1.201
17487W        W82747   5.700  25.567  14.736
17488W        W82748  24.443  20.698  13.678
17489W        W82749  37.546   1.059   4.197
17490W        W82750  15.763  25.019  14.557
17491W        W82751  22.103  34.823  14.876
17492W        W82752  10.654  15.172  10.606
17493W        W82753  35.053  39.480   1.794
17494W        W82754  31.473  42.015   1.964
17495W        W82755   7.627  40.033  13.434
17496W        W82756  32.033  12.565  13.059
17497W        W82757  28.051   2.040  12.999
17498W        W82758  31.355  22.069   3.622
17499W        W82759  14.652   6.961  11.042
17500W        W82760  37.950  24.224   4.236
17501W        W82761   5.426  31.578   0.745
17502W        W82762   6.961  21.526   3.817
17503W        W82763  17.156   7.417   0.867
17504W        W82764  21.691  14.117   1.952
17505W        W82765  42.824  24.787  11.437
17506W        W82766  26.141  24.076  14.082
17507W        W82767  15.539  44.617  13.344
17508W        W82768  13.204   8.728  14.812
17509W        W82769   8.402  24.616   0.874
17510W        W82770   0.741   6.197   1.472
17511W        W82771  20.078  43.609  11.584
17512W        W82772  28.438  37.460  12.355
17513W        W82773  28.703  27.884   0.019
17514W        W82774  30.442   0.356  11.669
17515W        W82775  16.246  43.997  11.909
17516W        W82776  15.633  12.635   1.703
17517W        W82777  24.803  13.242   4.924
17518W        W82778  36.949  23.604   4.114
17519W        W82779  22.864  23.269   4.968
17520W        W82780   6.376  12.583  14.415
17521W        W82781  11.337  22.191   0.971
17522W        W82782   9.442  34.028   3.661
17523W        W82783  14.770  19.835   0.923
17524W        W82784   3.494  36.114   0.564
17525W        W82785  25.549  40.576  14.830
17526W        W82786  12.554   8.869   0.882
17527W        W82787   6.815  28.943  14.804
17528W        W82788   1.711  33.092  14.993
17529W        W82789   7.326   6.935   1.676
17530W        W82790   9.798  13.880   3.732
17531W        W82791  36.593  33.214   1.408
17532W        W82792  37.354   5.951  10.627
17533W        W82793  41.241  14.376   3.143
17534W        W82794  40.693  43.011   3.644
17535W        W82795  36.496  37.113   0.472
17536W        W82796  26.468   8.758  11.546
17537W        W82797  20.665  25.585  10.745
17538W        W82798   6.191  28.658  14.525
17539W        W82799   2.974  19.089   4.656
17540W        W82800  11.697  30.717  12.847
17541W        W82801  22.066  27.440  12.653
17542W        W82802   0.327  33.123   0.240
17543W        W82803  28.320   2.249  10.919
17544W        W82804   6.000   3.544  12.763
17545W        W82805  36.666  12.859  13.492
17546W        W82806  34.525  42.508   0.883
17547W        W82807  27.912  26.384   1.344
17548W        W82808  44.931  13.957  12.891
17549W        W82809   8.708  42.033   0.364
17550W        W82810  41.525  29.129   2.267
17551W        W82811   9.407  10.557  12.938
17552W        W82812   4.714  28.222   0.461
17553W        W82813   3.088  22.515   5.010
17554W        W82814  31.982  36.417   2.150
17555W        W82815  11.754  12.294   3.156
17556W        W82816   2.987   9.411  12.839
17557W        W82817  44.244  42.294  13.268
17558W        W82818  32.549   6.663   0.838
17559W        W82819   1.865  17.058   2.583
17560W        W82820  23.556  22.469  10.762
17561W        W82821  19.613   9.660  14.691
17562W        W82822  10.623  39.811  13.816
17563W        W82823   4.911   7.352   2.171
17564W        W82824  12.903  31.432  13.464
17565W        W82825   6.921  17.097   2.244
17566W        W82826  14.813  37.755  11.550
17567W        W82827   6.677  35.618   3.240
17568W        W82828   8.679  32.595   1.182
17569W        W82829   5.136  18.244  10.663
17570W        W82830  15.247  27.722  14.343
17571W        W82831  38.795  22.210   1.754
17572W        W82832  27.933  43.712  13.412
17573W        W82833  37.435  35.242  10.747
17574W        W82834  43.426  36.081  14.789
17575W        W82835  24.037   9.314   1.635
17576W        W82836  26.742  26.075   2.455
17577W        W82837  24.576  29.966  10.762
17578W        W82838  25.105  35.984   1.751
17579W        W82839  16.800   0.047   0.324
17580W        W82840   7.558  26.368   2.358
17581W        W82841  39.934  30.530  12.060
17582W        W82842   9.934  38.676   3.593
17583W        W82843   3.487  18.141  11.669
17584W        W82844   5.835  26.898   4.579
17585W        W82845   5.803   7.764   0.476
17586W        W82846  43.390   7.163  14.470
17587W        W82847  42.365  41.028  13.955
17588W        W82848  33.533  35.284  12.438
17589W        W82849  13.288  14.642   2.389
17590W        W82850  44.760   1.369   2.648
17591W        W82851   8.331  31.134   3.017
17592W        W82852  35.592  19.245   1.890
17593W        W82853  19.758  13.130   0.633
17594W        W82854   3.310   0.030  12.025
17595W        W82855  38.863  37.102   1.993
17596W        W82856  32.890  30.643  14.877
17597W        W82857  16.268  18.576   1.482
17598W        W82858  34.047   4.812   3.213
17599W        W82859  38.378  39.520  11.377
17600W        W82860   9.788  42.821   3.765
17601W        W82861  32.538  22.501   2.314
17602W        W82862  37.644  29.736  11.187
17603W        W82863  30.597  29.376  13.020
17604W        W82864   3.484  37.957  11.615
17605W        W82865  36.857  15.160   0.984
17606W        W82866  32.942   3.462   4.855
17607W        W82867  25.489  26.981   3.661
17608W        W82868   5.710  29.514  11.458
17609W        W82869  42.807  23.360  13.170
17610W        W82870  25.705  34.147   3.790
17611W        W82871  21.706   1.436   1.898
17612W        W82872  24.555  10.282  13.383
17613W        W82873  26.025  16.735   4.618
17614W        W82874  39.306  32.360   0.232
17615W        W82875   4.344  27.082   4.665
17616W        W82876  41.718  30.547   2.106
17617W        W82877  30.681  44.818   0.479
17618W        W82878  11.384   0.558  12.629
17619W        W82879  42.557   6.923  14.357
17620W        W82880  34.014  23.566   1.177
17621W        W82881  31.790   4.256   4.086
17622W        W82882  10.895  15.621  14.890
17623W        W82883  21.134   8.123   4.700
17624W        W82884  22.914  16.438   0.332
17625W        W82885   1.138  36.353  14.526
17626W        W82886  40.830  33.082  11.267
17627W        W82887  32.997  32.223  14.912
17628W        W82888  18.054  30.672   2.634
17629W        W82889  32.492  10.702  10.693
17630W        W82890  26.199   1.739   3.626
17631W        W82891  22.364  12.658  11.543
17632W        W82892   7.707  38.955   1.835
17633W        W82893  43.387   7.645   2.670
17634W        W82894  34.086  12.655   1.469
17635W        W82895  14.243   0.703  11.223
17636W        W82896   4.804  17.060   2.783
17637W        W82897   8.378   6.327  10.884
17638W        W82898  40.499  23.217   3.207
17639W        W82899  43.380  42.840  12.696
17640W        W82900  32.885  40.416   2.232
17641W        W82901   0.948  11.395  14.838
17642W        W82902   3.123  43.212   3.281
17643W        W82903   1.465  35.828  11.581
17644W        W82904  28.634   1.915   4.756
17645W        W82905  27.153  10.549  11.629
17646W        W82906  41.381  32.465  13.934
17647W        W82907   5.204  10.324  13.689
17648W        W82908  36.505   7.011  14.026
17649W        W82909  14.841   8.579  14.405
17650W        W82910  28.707   2.313   4.350
17651W        W82911  34.831  28.939   1.751
17652W        W82912  27.077  37.479  11.485
17653W        W82913  14.717   0.998   0.785
17654W        W82914   4.419   4.769   3.493
17655W        W82915   8.189  24.960   4.752
17656W        W82916  39.992  10.506   0.883
17657W        W82917  42.933  17.254  11.377
17658W        W82918  14.656  19.192  13.633
17659W        W82919  15.315  44.962  13.020
17660W        W82920  17.233  20.686   0.806
17661W        W82921   6.078  42.855   1.369
17662W        W82922  28.819  40.049   0.783
17663W        W82923  44.409  28.863  11.220
17664W        W82924  44.723  10.709   1.401
17665W        W82925  34.603  43.359   1.928
17666W        W82926  20.192  41.766  13.637
17667W        W82927  10.637  31.921   4.115
17668W        W82928  31.867  36.054  14.955
17669W        W82929  23.616  10.737  14.110
17670W        W82930  10.301  35.512  10.670
17671W        W82931  44.073   3.632   1.301
17672W        W82932  18.722  21.714  13.010
17673W        W82933  42.064  36.803  10.871
17674W        W82934  14.663  13.271   0.286
17675W        W82935   6.822  40.848   3.832
17676W        W82936   9.073  10.330   3.802
17677W        W82937  22.078  30.456  13.960
17678W        W82938  23.675  25.184   0.813
17679W        W82939  25.435  33.007  12.861
17680W        W82940   6.887  25.615  10.722
17681W        W82941   4.908  22.985   4.336
17682W        W82942  44.334   0.412  14.004
17683W        W82943  22.905  27.893  14.755
17684W        W82944  43.517  20.337   0.923
17685W        W82945  19.355  41.259   0.807
17686W        W82946  26.931  43.895  14.019
17687W        W82947  17.327  15.028   0.407
17688W        W82948  22.245  19.317  14.403
17689W        W82949  11.634   4.752   3.690
17690W        W82950  10.335  43.716  11.723
17691W        W82951  29.788  33.014   3.771
17692W        W82952   0.715  26.211   2.652
17693W        W82953  18.655  30.894   1.655
17694W        W82954   5.782  24.033   4.144
17695W        W82955  30.974   3.789  13.391
17696W        W82956  43.016  43.928   1.818
17697W        W82957  17.752  20.509   2.860
17698W        W82958  10.971  32.147  14.505
17699W        W82959  40.205   8.688   4.243
17700W        W82960  36.906   6.730  14.738
17701W        W82961  44.482  28.600   3.839
17702W        W82962  24.675  27.759  13.377
17703W        W82963  40.008  25.289   0.469
17704W        W82964  41.187   5.804  11.174
17705W        W82965   1.607  43.521   2.287
17706W        W82966   6.561  29.110   0.482
17707W        W82967  31.277  22.226  12.130
17708W        W82968   1.488  25.098   0.876
17709W        W82969  33.338  34.812  14.258
17710W        W82970  28.590  35.388   1.689
17711W        W82971  33.488  43.422   4.584
17712W        W82972  32.918  44.893   0.953
17713W        W82973  30.188  38.001   1.195
17714W        W82974   6.241  35.314   2.903
17715W        W82975  17.983  33.905  13.216
17716W        W82976  13.363  15.588  14.380
17717W        W82977  17.487  34.077   3.777
17718W        W82978   3.903  41.593   3.700
17719W        W82979  37.598  44.887  10.430
17720W        W82980   0.355   7.916   2.447
17721W        W82981   7.316  12.825  13.343
17722W        W82982  34.008  44.956   4.541
17723W        W82983  25.136   7.407  12.696
17724W        W82984   5.736  36.049  12.271
17725W        W82985   8.757  32.530   3.617
17726W        W82986   2.227  24.174  13.100
17727W        W82987   1.179   6.940  12.568
17728W        W82988  44.015  15.525   0.475
17729W        W82989  25.142  10.571   2.261
17730W        W82990  38.132  41.769   2.828
17731W        W82991  34.580  13.143   0.775
17732W        W82992  37.257  21.979   4.629
17733W        W82993  11.778  42.022   2.299
17734W        W82994  22.415  30.420   4.780
17735W        W82995  13.319  37.622  14.428
17736W        W82996  38.176  40.993  11.189
17737W        W82997  37.128  34.990   3.052
17738W        W82998  44.674  13.620  12.575
17739W        W82999  21.869  11.647   3.382
17740W        W83000  24.077  15.960  10.905
17741W        W83001  20.281   5.163  10.676
17742W        W83002  33.623  27.019   2.172
17743W        W83003   3.479  31.693  11.496
17744W        W83004  24.621  22.245  12.994
17745W        W83005   9.755  12.147  11.609
17746W        W83006   6.207  27.751   3.286
17747W        W83007   9.299  26.607   3.697
17748W        W83008  18.537  18.126   1.863
17749W        W83009  26.939  39.453  11.073
17750W        W83010  39.561  28.006  11.729
17751W        W83011  20.312  19.755  11.851
17752W        W83012  39.220  33.018   4.600
17753W        W83013  19.258  34.778   1.218
17754W        W83014  39.994  43.897   0.084
17755W        W83015  25.021  31.266  13.981
17756W        W83016  44.673  33.312  14.748
17757W        W83017  12.280  19.090   3.473
17758W        W83018   6.484  24.653   3.815
17759W        W83019  44.048   3.434   3.807
17760W        W83020  16.104  26.595   1.398
17761W        W83021  34.399  25.039   0.633
17762W        W83022  16.136  39.675  13.487
17763W        W83023  12.067  33.038  12.635
17764W        W83024  22.485  38.545   1.003
17765W        W83025   4.919  32.357   3.440
17766W        W83026   6.397   2.965   3.149
17767W        W83027   8.306  32.962  13.459
17768W        W83028  31.867  16.278   0.381
17769W        W83029  10.188  10.647   3.704
17770W        W83030  31.423  22.312  14.889
17771W        W83031  16.853  18.063   1.041
17772W        W83032  11.258  27.905   0.684
17773W        W83033  18.008   7.212  12.816
17774W        W83034   7.111  38.424   3.796
17775W        W83035  24.134  21.226   4.215
17776W        W83036  36.037  10.152   3.701
17777W        W83037   0.084  17.154   1.744
17778W        W83038  19.533  34.165  14.334
17779W        W83039  42.475   7.763   4.294
17780W        W83040  34.684  18.199   1.984
17781W        W83041  41.396  34.922   3.896
17782W        W83042   6.345  37.333   3.393
17783W        W83043  19.902  30.110  12.023
17784W        W83044  19.585  31.627   0.203
17785W        W83045   5.353   4.039  13.327
17786W        W83046  30.385  11.338  13.989
17787W        W83047   8.469  17.048  11.179
17788W        W83048  14.552  26.212   4.907
17789W        W83049   1.491  28.052   2.849
17790W        W83050  33.751   5.127   4.193
17791W        W83051  40.852  34.810   4.722
17792W        W83052  17.309  36.057  10.163
17793W        W83053  10.743  42.244  13.093
17794W        W83054  21.555  43.505   4.420
17795W        W83055   4.423  42.135   3.270
17796W        W83056  12.556  40.359   1.322
17797W        W83057   9.417  24.470   0.016
17798W        W83058   4.343   9.159  13.883
17799W        W83059  36.395   9.933  10.908
17800W        W83060  14.550  41.497  11.582
17801W        W83061  13.976  16.696   3.202
17802W        W83062  14.383  39.540  14.089
17803W        W83063  24.711   4.495   1.086
17804W        W83064  10.364  20.962  12.555
17805W        W83065  21.273  38.855  14.808
17806W        W83066   8.242   6.908   9.815
17807W        W83067  16.133  40.493   4.945
17808W        W83068  31.136  40.415   9.402
17809W        W83069   6.117  40.756  11.216
17810W        W83070  27.262  12.609   2.338
17811W        W83071  26.824   3.392  13.836
17812W        W83072  15.012   5.370   2.303
17813W        W83073  21.232   6.993   2.473
17814W        W83074  11.797  11.635   3.698
17815W        W83075   8.478   2.114  10.583
17816W        W83076  31.078  32.440   2.573
17817W        W83077  19.456   6.681  13.736
17818W        W83078  13.430  11.426  14.953
17819W        W83079  23.567  29.981   1.062
17820W        W83080  35.954  26.375  11.325
17821W        W83081  26.936  38.590   4.518
17822W        W83082  17.480  10.992  11.153
17823W        W83083  12.077  13.635  14.530
17824W        W83084  11.558  19.758   1.645
17825W        W83085  10.244  40.510  11.431
17826W        W83086  14.847  21.215   2.573
17827W        W83087  28.766  35.545   3.273
17828W        W83088  28.972  36.625   3.334
17829W        W83089  11.291  19.301   1.670
17830W        W83090  40.098  40.373  11.285
17831W        W83091  36.165  16.236  14.366
17832W        W83092  36.903   7.000   2.160
17833W        W83093  31.037  24.421  12.494
17834W        W83094  33.118   8.969  13.806
17835W        W83095   5.211  22.521  12.925
17836W        W83096  36.877  29.779  13.328
17837W        W83097  15.069   4.916  12.441
17838W        W83098   8.737  20.099  14.331
17839W        W83099  21.426  44.124  13.938
17840W        W83100  28.251  12.520  12.468
17841W        W83101  10.349  44.784   0.518
17842W        W83102  22.274   9.671  12.622
17843W        W83103  10.269  44.570   5.315
17844W        W83104  40.770   7.742   4.869
17845W        W83105   9.722  15.506   0.124
17846W        W83106   6.789   2.704  12.136
17847W        W83107  26.378  25.174  11.994
17848W        W83108  10.637  34.262  14.789
17849W        W83109  16.167  23.239   1.778
17850W        W83110  43.314  21.661   3.631
17851W        W83111  27.181  39.964   1.237
17852W        W83112  23.522  26.581   2.344
17853W        W83113  32.939  12.634  12.038
17854W        W83114   9.925  33.379   1.125
17855W        W83115  43.391   7.703   4.531
17856W        W83116  36.031  15.239  11.142
17857W        W83117  35.353  15.468   0.810
17858W        W83118  11.265   5.648  10.971
17859W        W83119   9.268   8.939   0.656
17860W        W83120  10.146  24.483   2.733
17861W        W83121  26.450   9.697  13.349
17862W        W83122   8.148   6.767   1.842
17863W        W83123   6.302  16.588   0.415
17864W        W83124  30.010  44.511   3.293
17865W        W83125   2.808  11.262  13.459
17866W        W83126   7.467  34.663  14.466
17867W        W83127  11.838  32.027  10.310
17868W        W83128  14.577   6.982   4.615
17869W        W83129  38.946  26.407  12.944
17870W        W83130   4.391  27.233   2.156
17871W        W83131  34.794   6.147   4.056
17872W        W83132  22.500   4.182   1.837
17873W        W83133   9.391   5.251   3.552
17874W        W83134  30.438  31.856   0.454
17875W        W83135  30.322  19.135   2.826
17876W        W83136  23.996  44.666   3.559
17877W        W83137   8.766  40.291   2.376
17878W        W83138  32.540  19.032  14.485
17879W        W83139  17.850  11.426  11.068
17880W        W83140   4.925  16.228   2.375
17881W        W83141  35.574  28.385   4.940
17882W        W83142  18.175  18.885  12.838
17883W        W83143  18.245  36.414   4.698
17884W        W83144   4.956   7.457  14.311
17885W        W83145  14.341   3.666   3.857
17886W        W83146  11.860  37.565   4.608
17887W        W83147  12.177   4.454  12.148
17888W        W83148  40.162   4.641  13.428
17889W        W83149  10.663  40.345  14.903
17890W        W83150   9.044   3.854  11.930
17891W        W83151  30.038  12.310   4.154
17892W        W83152   2.649   3.934  11.591
17893W        W83153   3.581  11.759  13.102
17894W        W83154  14.055  29.805  14.884
17895W        W83155  43.562   3.259   3.713
17896W        W83156  24.925  37.610   3.309
17897W        W83157   3.269   9.734   0.834
17898W        W83158  33.873  37.868   2.601
17899W        W83159  33.529  38.350  11.523
17900W        W83160   6.685  18.515  11.933
17901W        W83161  23.050  38.534  12.833
17902W        W83162   8.122  17.007  12.412
17903W        W83163  39.929   9.797  13.445
17904W        W83164  21.577   5.704   0.748
17905W        W83165  23.685  12.262   1.350
17906W        W83166  44.361   7.124  14.500
17907W        W83167  27.132   3.930  11.636
17908W        W83168   0.289  31.566   3.178
17909W        W83169   1.855  27.028  12.572
17910W        W83170  10.365  27.685   0.348
17911W        W83171  39.110  17.647   1.180
17912W        W83172   8.216  43.300  11.939
17913W        W83173  31.496  17.496   3.216
17914W        W83174  26.227  20.117  13.814
17915W        W83175  37.961  23.050   2.765
17916W        W83176  41.743  17.865  12.405
17917W        W83177  42.794  41.600   1.348
17918W        W83178  29.074  43.874   1.923
17919W        W83179  34.966  26.615   0.418
17920W        W83180  12.231  27.284   1.220
17921W        W83181  18.092   9.030   0.806
17922W        W83182  41.725  15.088   1.874
17923W        W83183  19.811  36.918   2.030
17924W        W83184  31.532  40.490  12.113
17925W        W83185  35.633  42.260  13.341
17926W        W83186  33.356  10.869   4.721
17927W        W83187  11.353   5.370  11.420
17928W        W83188  35.033  18.512  11.824
17929W        W83189  28.209   0.472   0.039
17930W        W83190   3.273  35.636   2.307
17931W        W83191  20.480  28.135  13.305
17932W        W83192  25.782  16.262  13.789
17933W        W83193  24.058  37.540   0.951
17934W        W83194  40.819  17.414   4.677
17935W        W83195  19.274  10.909  14.822
17936W        W83196  33.152  11.671   2.888
17937W        W83197  13.290  17.705   4.987
17938W        W83198  23.108  41.309  13.106
17939W        W83199  20.128  35.887   0.409
17940W        W83200  38.003  31.329  14.144
17941W        W83201   5.848  10.334   3.359
17942W        W83202   7.105  22.670   0.721
17943W        W83203   7.344  42.265   1.141
17944W        W83204   1.332  32.158  13.276
17945W        W83205   3.913  34.633   4.112
17946W        W83206  20.718   6.450  11.445
17947W        W83207  14.851  41.517  12.464
17948W        W83208  15.772  22.549   0.430
17949W        W83209  35.695  26.337   3.370
17950W        W83210   9.912  32.705  13.489
17951W        W83211  23.180  29.153   0.293
17952W        W83212  24.618  23.279  10.193
17953W        W83213  25.534  29.107   1.690
17954W        W83214  22.996  10.364   0.020
17955W        W83215  36.291  28.067   4.133
17956W        W83216  24.888  35.708   0.812
17957W        W83217  15.639  40.557   1.742
17958W        W83218   8.591  20.515   4.201
17959W        W83219  12.579  38.549  14.440
17960W        W83220  11.207  29.924   3.746
17961W        W83221   3.360   3.986   4.897
17962W        W83222  31.601   5.750  10.729
17963W        W83223  30.202  28.535  14.323
17964W        W83224  22.321   1.035  11.085
17965W        W83225  35.138  15.441  11.191
17966W        W83226   9.583  44.207  10.154
17967W        W83227  17.890  15.235  14.464
17968W        W83228  27.362  40.750   3.604
17969W        W83229  10.797   5.716   0.978
17970W        W83230  27.389  23.766  13.996
17971W        W83231  11.090  17.862   1.934
17972W        W83232   0.470  27.162  12.547
17973W        W83233   2.888  16.488   1.738
17974W        W83234  16.117  36.219  13.912
17975W        W83235  43.126  44.727   2.024
17976W        W83236  10.068  15.489   0.524
17977W        W83237  30.495   1.428  14.044
17978W        W83238   1.410  11.310   0.630
17979W        W83239  30.502  40.792   4.522
17980W        W83240  43.806  29.534  13.406
17981W        W83241  20.606  22.763  11.760
17982W        W83242  31.439   1.428   2.318
17983W        W83243  14.018  21.720  13.376
17984W        W83244  35.851  36.425   3.209
17985W        W83245  31.515  24.201  12.438
17986W        W83246  20.529  11.751  13.224
17987W        W83247  14.879  21.896  14.225
17988W        W83248   2.479   7.213  13.960
17989W        W83249  28.023  13.253   2.137
17990W        W83250  33.810  20.517  11.393
17991W        W83251  44.382  43.054   2.386
17992W        W83252  19.057  43.035  11.636
17993W        W83253  39.045  20.040  14.839
17994W        W83254  35.179  40.129  12.210
17995W        W83255  34.807  11.702  10.556
17996W        W83256  37.568  33.682  10.341
17997W        W83257  19.259  41.407  13.343
17998W        W83258  38.796  14.522   4.889
17999W        W83259  21.695  29.966   3.697
18000W        W83260  39.855  19.551  12.053
18001W        W83261   5.268  27.588  14.966
18002W        W83262  25.025  20.397  12.128
18003W        W83263   0.858  33.548   0.171
18004W        W83264   9.695  31.384   2.237
18005W        W83265  28.561  33.822  11.038
18006W        W83266  36.631  11.226   1.771
18007W        W83267   0.954  33.081  14.343
18008W        W83268  38.714  15.596   4.092
18009W        W83269  25.680  43.243  10.720
18010W        W83270  44.021  43.044  13.452
18011W        W83271   0.906   5.453  12.984
18012W        W83272  35.980   7.154  14.478
18013W        W83273  24.301  29.429  13.100
18014W        W83274   7.323  10.457  11.107
18015W        W83275  32.434  28.348  12.121
18016W        W83276  14.979  38.508  11.991
18017W        W83277   3.331   6.323  13.370
18018W        W83278  42.819  21.064   3.563
18019W        W83279   2.925  12.892  14.377
18020W        W83280   3.930  40.443  11.653
18021W        W83281  42.705   5.266   0.839
18022W        W83282  22.670  34.648  13.390
18023W        W83283  39.511  43.529  12.454
18024W        W83284  13.223   0.880   2.203
18025W        W83285  11.589  10.109   3.643
18026W        W83286  41.890  11.146  11.516
18027W        W83287  42.205  40.965   0.423
18028W        W83288  30.093   4.475   0.871
18029W        W83289  16.124   2.378  13.564
18030W        W83290  37.655  30.417   2.193
18031W        W83291  25.203  44.721   1.375
18032W        W83292  11.974   7.251  12.350
18033W        W83293  39.454  42.244  14.454
18034W        W83294  12.398  26.159   5.124
18035W        W83295  27.789  26.220   4.708
18036W        W83296   3.617  18.487   0.769
18037W        W83297  29.359   3.096  14.209
18038W        W83298  40.129   3.735   4.484
18039W        W83299  25.098  28.233  10.831
18040W        W83300  19.152   8.199   4.775
18041W        W83301  43.047  37.971   3.202
18042W        W83302  39.500  17.320   3.744
18043W        W83303  15.512  40.806  12.970
18044W        W83304  10.237  43.658  12.210
18045W        W83305   2.852  15.665  11.147
18046W        W83306  20.033  42.406   4.144
18047W        W83307  40.465   7.290   2.845
18048W        W83308   4.443  28.453  11.178
18049W        W83309   7.650  33.053  13.908
18050W        W83310   1.786  38.118   4.599
18051W        W83311  42.366  41.631   1.787
18052W        W83312  14.286  17.952  12.138
18053W        W83313  39.844  17.146   1.770
18054W        W83314  21.621  25.947  13.622
18055W        W83315  34.586  33.997  11.146
18056W        W83316   9.750  41.098  14.270
18057W        W83317  20.293   6.824   0.341
18058W        W83318  27.211  31.720  12.438
18059W        W83319  40.358  44.724   0.173
18060W        W83320  25.102   1.950   2.597
18061W        W83321  22.977  39.862   2.318
18062W        W83322  29.199  36.348   0.939
18063W        W83323  32.048  44.873   1.374
18064W        W83324  31.046  25.435  12.254
18065W        W83325  30.517  29.893   1.055
18066W        W83326   9.164  12.370   2.705
18067W        W83327  27.892  11.814   5.265
18068W        W83328  28.858   7.122  14.914
18069W        W83329  38.619  39.058  10.243
18070W        W83330  37.200  36.568  12.554
18071W        W83331  22.668  41.928   0.717
18072W        W83332  33.811  41.981   1.037
18073W        W83333  32.033  36.493   1.645
18074W        W83334  35.797  22.593   0.328
18075W        W83335  25.796  28.168  13.217
18076W        W83336  41.494  26.596  11.529
18077W        W83337  19.793  36.167  12.125
18078W        W83338   8.653  42.732  14.027
18079W        W83339  18.773  14.796  10.689
18080W        W83340  10.710  30.718   0.279
18081W        W83341  26.657  16.865   0.900
18082W        W83342  13.828  36.900  11.105
18083W        W83343  16.629  33.552  11.928
18084W        W83344  25.188  38.662  10.027
18085W        W83345  10.694  20.359  11.706
18086W        W83346  15.611  15.680  14.972
18087W        W83347  40.931  28.968  10.795
18088W        W83348  15.237   1.844  11.705
18089W        W83349  17.596   9.336   2.061
18090W        W83350  35.402  11.006  11.717
18091W        W83351  13.445  30.954   0.442
18092W        W83352  15.184  31.618  10.632
18093W        W83353  44.091  34.600   3.908
18094W        W83354  33.941  13.729  14.192
18095W        W83355  38.711  43.623  10.821
18096W        W83356  30.653  39.004  11.648
18097W        W83357  11.633  18.715   2.800
18098W        W83358  28.328  17.716  13.305
18099W        W83359  37.106  39.503  10.932
18100W        W83360  29.171  22.161  11.216
18101W        W83361  30.902  38.870   3.582
18102W        W83362  19.828  42.412   0.935
18103W        W83363  21.845   7.940   0.276
18104W        W83364  28.558   7.783   1.018
18105W        W83365   1.771   6.405   0.820
18106W        W83366  42.475   7.404   3.907
18107W        W83367  40.312  11.056  10.715
18108W        W83368  12.429  42.364  12.059
18109W        W83369  16.249  41.093   0.379
18110W        W83370  17.623  28.239  11.597
18111W        W83371  34.867  36.094  14.864
18112W        W83372   6.407   1.555   2.277
18113W        W83373  10.538   4.642  12.881
18114W        W83374   7.180   0.965   0.367
18115W        W83375  15.447  34.461   1.232
18116W        W83376  40.298  43.544  11.555
18117W        W83377  21.277  29.024   4.151
18118W        W83378  11.967   9.450   5.498
18119W        W83379  27.068  14.851   0.306
18120W        W83380  14.186  13.243  10.576
18121W        W83381  36.399   0.229   1.808
18122W        W83382  11.612  31.337   1.395
18123W        W83383   9.248  20.763   3.364
18124W        W83384  39.895  30.170  14.013
18125W        W83385  15.373   5.177  14.442
18126W        W83386   6.113  34.526  11.929
18127W        W83387  42.356  25.166   3.747
18128W        W83388   4.910   0.786  10.951
18129W        W83389  10.691  13.797  13.602
18130W        W83390  20.196  14.638  11.819
18131W        W83391  44.440  26.182   3.307
18132W        W83392  32.897  18.098  11.774
18133W        W83393  15.261  40.353  11.858
18134W        W83394  31.926  37.545  10.749
18135W        W83395  19.233   6.510   3.555
18136W        W83396  44.130  23.722  10.261
18137W        W83397  34.144  13.779  13.310
18138W        W83398  20.607   8.394  14.398
18139W        W83399  34.763   3.734  10.993
18140W        W83400  28.080  33.348   2.630
18141W        W83401   5.237  31.079  10.817
18142W        W83402   6.876  27.718  14.742
18143W        W83403  38.874  39.802  14.412
18144W        W83404  27.168   1.172  13.829
18145W        W83405  13.589  10.704   1.865
18146W        W83406  29.130  22.914  12.794
18147W        W83407  25.098   1.005  13.832
18148W        W83408  41.890  19.747   3.105
18149W        W83409  13.861   3.411  12.945
18150W        W83410   7.013  12.412   4.164
18151W        W83411  19.565  16.108  14.452
18152W        W83412  13.050  11.225   2.680
18153W        W83413  13.454  30.857   5.028
18154W        W83414  22.229  16.534  12.228
18155W        W83415  31.683  24.235   3.294
18156W        W83416  42.052   4.265   2.665
18157W        W83417  42.858   1.186  13.990
18158W        W83418   4.414  10.981  13.342
18159W        W83419   1.248   5.852  13.876
18160W        W83420  29.388  16.723   0.897
18161W        W83421  12.289  29.968   4.590
18162W        W83422  28.389  25.379   0.805
18163W        W83423  42.545  19.273   2.353
18164W        W83424  17.663  33.009  13.105
18165W        W83425   4.064  26.577  12.015
18166W        W83426  25.209  43.494  10.619
18167W        W83427   0.460   3.235  13.628
18168W        W83428   5.446  22.794  13.310
18169W        W83429  30.139   1.425  14.924
18170W        W83430  41.937  35.279  11.706
18171W        W83431   0.822  34.176  12.031
18172W        W83432  13.590  23.354   2.975
18173W        W83433   5.757  41.052  10.831
18174W        W83434   2.393  28.322   4.943
18175W        W83435   7.722  11.331   2.224
18176W        W83436   4.240  34.517  13.738
18177W        W83437  17.114  18.810   0.954
18178W        W83438  18.613  40.486   0.458
18179W        W83439  42.897  25.094  10.495
18180W        W83440  43.819  39.384   2.560
18181W        W83441  13.326  30.710  13.085
18182W        W83442  14.836  20.977   3.744
18183W        W83443  30.949  43.972   2.680
18184W        W83444   8.876  42.237  14.089
18185W        W83445  27.013  32.081   4.338
18186W        W83446  33.979   4.904  10.065
18187W        W83447  22.954   0.631   4.590
18188W        W83448  31.184  30.607   0.201
18189W        W83449  11.843   7.424  11.881
18190W        W83450  13.583  19.544   1.880
18191W        W83451  13.828  30.965  14.836
18192W        W83452   1.866  10.168   2.830
18193W        W83453   1.960  26.712  11.186
18194W        W83454  39.399  30.566   1.728
18195W        W83455   4.162  10.893   1.331
18196W        W83456  28.653  35.495  10.729
18197W        W83457  13.352  23.418  11.408
18198W        W83458  29.008  34.861  10.621
18199W        W83459  41.238  11.879   4.560
18200W        W83460  13.364  41.418   3.502
18201W        W83461  29.443   8.319  12.893
18202W        W83462   6.784  12.866   3.996
18203W        W83463   0.324  27.590   3.177
18204W        W83464   5.782  13.789   3.680
18205W        W83465   0.200  27.122  12.089
18206W        W83466  19.143  18.207  12.610
18207W        W83467  38.428  40.067   1.740
18208W        W83468  12.334  42.909  14.997
18209W        W83469  12.596  15.941  14.967
18210W        W83470  14.165  18.114   0.516
18211W        W83471  30.954  38.416   1.302
18212W        W83472  15.764  31.024  13.978
18213W        W83473  25.607   9.936  12.612
18214W        W83474  38.125   9.247  10.904
18215W        W83475  35.419   5.133   0.134
18216W        W83476  36.407  19.490  11.886
18217W        W83477  27.246  25.598   4.993
18218W        W83478  16.035  29.214   3.653
18219W        W83479  34.873  21.348  11.530
18220W        W83480  19.697  11.679  10.565
18221W        W83481  44.383  22.617  13.558
18222W        W83482  43.074   9.799  14.761
18223W        W83483  41.291  13.890  12.314
18224W        W83484   5.702  30.267  13.468
18225W        W83485  33.961   0.984  13.312
18226W        W83486  18.323  26.653  13.608
18227W        W83487   3.144  36.893  10.945
18228W        W83488  44.804  36.364   2.901
18229W        W83489  24.259  33.096   0.926
18230W        W83490  25.280  14.576   0.222
18231W        W83491   2.235   3.764   2.370
18232W        W83492  18.046  42.375   0.330
18233W        W83493   6.230  29.189   0.876
18234W        W83494  26.231  27.599   4.658
18235W        W83495   8.876   4.381   3.218
18236W        W83496  14.295   6.541   3.860
18237W        W83497   0.883   5.312   4.423
18238W        W83498  27.170  40.832   5.011
18239W        W83499   3.900   1.889   2.920
18240W        W83500  19.671   8.741   3.621
18241W        W83501  24.207   0.988  12.041
18242W        W83502  42.242  27.272  13.926
18243W        W83503  25.605   0.442   1.212
18244W        W83504   7.774   5.745  11.191
18245W        W83505  16.688  20.053   1.844
18246W        W83506  42.826  28.878  12.538
18247W        W83507   0.854  44.189   3.609
18248W        W83508  22.593  28.521  12.640
18249W        W83509  35.588  41.826  12.937
18250W        W83510  12.340  17.142   0.396
18251W        W83511   4.351  13.490   0.007
18252W        W83512  34.083  22.992   0.348
18253W        W83513   6.336  19.476   3.220
18254W        W83514  25.925  39.857  14.657
18255W        W83515  18.015  13.892  11.592
18256W        W83516  12.376  29.527  12.786
18257W        W83517  18.026  36.414  13.096
18258W        W83518  20.974  13.162   1.306
18259W        W83519  23.572  24.295   0.629
18260W        W83520  29.426  27.823   3.142
18261W        W83521  31.854  24.739   3.304
18262W        W83522   5.943  10.714  12.437
18263W        W83523  34.902  35.803   4.161
18264W        W83524  18.736  29.717  12.638
18265W        W83525  24.043  19.561  13.342
18266W        W83526  35.083   4.118  14.973
18267W        W83527  31.042  39.043  10.904
18268W        W83528   4.856   2.382   2.638
18269W        W83529   3.247   2.778  13.441
18270W        W83530  44.046  34.009  14.804
18271W        W83531  27.690  40.464   2.031
18272W        W83532  43.636  12.813  12.644
18273W        W83533  38.891   2.367   1.395
18274W        W83534   9.950  11.657   4.258
18275W        W83535   5.358   0.297   2.815
18276W        W83536  28.422  41.899  12.488
18277W        W83537  10.780  22.395   2.225
18278W        W83538  32.442  24.684   0.029
18279W        W83539  24.703  27.070   4.246
18280W        W83540  39.281  31.008  12.085
18281W        W83541  14.919  26.608   2.262
18282W        W83542  14.392  37.787  14.417
18283W        W83543  42.553  23.688   3.755
18284W        W83544  36.772   2.540  13.562
18285W        W83545  32.977   7.148   3.657
18286W        W83546  10.143   8.266  12.155
18287W        W83547   8.366  37.195   3.645
18288W        W83548   8.827  16.693   4.088
18289W        W83549  35.048   8.347  11.675
18290W        W83550   6.402   0.339   5.192
18291W        W83551  39.795  10.455   0.413
18292W        W83552  41.868  30.481  14.332
18293W        W83553  44.980  27.922  11.143
18294W        W83554  42.806  13.925   3.651
18295W        W83555   6.663  15.642  13.629
18296W        W83556   5.321  25.672  12.530
18297W        W83557  22.485   6.828   3.995
18298W        W83558  13.412  34.387  13.978
18299W        W83559   4.960   5.699   2.818
18300W        W83560  20.653  13.424   4.690
18301W        W83561  33.176  17.515   3.567
18302W        W83562  41.102  36.340   4.239
18303W        W83563  17.185  26.756   3.326
18304W        W83564   2.834   5.214  14.953
18305W        W83565   3.610  43.420  12.686
18306W        W83566  10.083  18.682   1.680
18307W        W83567  16.171  40.035   0.404
18308W        W83568  28.154   8.341   1.500
18309W        W83569   1.917  32.990   4.975
18310W        W83570  39.846  30.915  14.353
18311W        W83571  12.346  19.114   3.985
18312W        W83572  29.887   6.689   3.423
18313W        W83573  43.879  10.753  13.574
18314W        W83574   2.216  19.772  13.356
18315W        W83575  29.952   4.697   0.367
18316W        W83576  40.512   0.747  11.176
18317W        W83577   5.722  31.420  13.524
18318W        W83578  18.963  39.336  11.396
18319W        W83579  28.921  19.268   0.817
18320W        W83580  34.442  42.494   1.406
18321W        W83581   4.895   4.422   2.978
18322W        W83582  15.698  33.098  13.408
18323W        W83583  15.994  14.272  10.465
18324W        W83584  39.402  29.412   1.927
18325W        W83585  14.119  13.372   2.626
18326W        W83586  40.523  33.018   4.051
18327W        W83587  18.020   9.877  11.578
18328W        W83588  41.847  10.605  13.894
18329W        W83589  21.289  33.685  11.606
18330W        W83590  39.328   5.774  13.871
18331W        W83591  26.484  21.514  10.474
18332W        W83592  42.900  18.566  11.536
18333W        W83593   0.552  14.695  12.684
18334W        W83594  43.493   8.609  14.394
18335W        W83595  22.914  39.001   0.682
18336W        W83596  26.940   5.615  10.207
18337W        W83597  30.852  16.558   3.698
18338W        W83598  41.598  36.641  11.113
18339W        W83599   0.432  32.931  12.045
18340W        W83600  34.932  33.519   2.876
18341W        W83601  21.965  16.387  13.770
18342W        W83602  34.491  38.572   4.519
18343W        W83603  30.512   4.960   2.654
18344W        W83604  40.272   5.813  12.402
18345W        W83605  18.497   3.161  14.461
18346W        W83606  33.299  28.027   1.980
18347W        W83607   3.782   6.368  10.700
18348W        W83608  20.940  14.524   1.325
18349W        W83609  33.666  10.473  12.429
18350W        W83610  17.971  42.433  10.643
18351W        W83611  44.122  34.330  12.988
18352W        W83612   5.238  41.855   0.390
18353W        W83613  27.029  44.127   4.718
18354W        W83614  27.231  38.299  13.581
18355W        W83615   1.348  19.162  13.606
18356W        W83616   2.933  22.938   2.411
18357W        W83617  37.759  15.288   2.086
18358W        W83618  41.311   5.002  11.717
18359W        W83619  12.472  16.561  12.312
18360W        W83620  25.348   6.907  12.707
18361W        W83621  43.849  35.932  10.543
18362W        W83622   3.548  44.556  11.222
18363W        W83623  35.040  33.979   1.126
18364W        W83624  11.285  33.182  14.741
18365W        W83625  14.432  10.251   4.556
18366W        W83626  17.219  31.063   1.239
18367W        W83627  15.691  27.925   0.570
18368W        W83628  42.435  39.410   1.649
18369W        W83629  44.365   8.287   2.104
18370W        W83630  30.421  16.320  13.273
18371W        W83631  30.702  21.461   0.876
18372W        W83632   5.860  29.200   1.752
18373W        W83633   4.859  37.741   0.037
18374W        W83634  12.322  18.846   2.200
18375W        W83635   1.351   8.641  13.397
18376W        W83636  42.314  15.618  10.923
18377W        W83637  42.005   5.159   2.635
18378W        W83638  42.384  41.552  13.878
18379W        W83639  25.536   4.230  11.216
18380W        W83640   0.760  26.495   1.787
18381W        W83641  21.161  28.474  13.990
18382W        W83642  21.855  40.964   3.012
18383W        W83643   2.933   0.464  13.867
18384W        W83644   9.462  27.063   1.251
18385W        W83645   8.217  42.402   1.925
18386W        W83646   7.876   8.470   3.788
18387W        W83647  31.691  20.297   1.418
18388W        W83648  11.109  36.158  10.725
18389W        W83649  10.784  18.141   1.637
18390W        W83650   1.774   3.269  13.059
18391W        W83651  36.082   6.762   0.288
18392W        W83652  11.389  28.640   2.370
18393W        W83653  20.686   2.342   2.212
18394W        W83654  44.761  11.469   2.617
18395W        W83655  30.074  40.572   4.253
18396W        W83656  14.715  17.774   5.080
18397W        W83657  23.526  13.818  14.618
18398W        W83658  34.125  34.251  13.826
18399W        W83659  10.358  42.816   4.585
18400W        W83660  13.399  17.342  11.228
18401W        W83661  17.174   2.047  11.773
18402W        W83662   4.211  12.294   1.481
18403W        W83663  28.869  21.526   0.262
18404W        W83664  43.792  29.121  14.248
18405W        W83665  26.222  32.362   1.928
18406W        W83666  39.536  12.306   1.049
18407W        W83667  32.454  28.150  13.072
18408W        W83668   9.189  36.407   2.121
18409W        W83669   0.469  14.067   2.263
18410W        W83670  22.693  32.529  12.659
18411W        W83671  10.307   3.354   2.355
18412W        W83672  37.394  21.921   0.863
18413W        W83673  39.249  17.544   4.585
18414W        W83674  44.782  10.547   3.084
18415W        W83675  36.509   7.036  14.523
18416W        W83676  31.986  10.916  14.487
18417W        W83677  37.325  11.196  12.615
18418W        W83678  15.395   7.379  13.568
18419W        W83679  11.738   8.853   1.284
18420W        W83680  22.348  44.787   2.828
18421W        W83681  17.488  44.903   4.207
18422W        W83682  17.150   7.684   0.402
18423W        W83683  24.914  25.912   3.732
18424W        W83684  42.459  43.018  14.820
18425W        W83685  32.468  31.379   0.977
18426W        W83686  36.463   4.276   0.929
18427W        W83687  18.229   2.735  13.113
18428W        W83688  14.676  44.464  11.155
18429W        W83689   8.663  37.339  14.241
18430W        W83690   6.059  37.410   1.395
18431W        W83691  35.426  27.960  12.128
18432W        W83692  10.126  44.430   3.247
18433W        W83693  14.779   2.262  12.071
18434W        W83694  41.982  40.217   3.989
18435W        W83695  18.793  18.678   2.328
18436W        W83696  28.189  38.726  12.888
18437W        W83697  39.513   0.545  13.273
18438W        W83698  28.449  22.315  10.774
18439W        W83699  43.285  11.005   4.982
18440W        W83700  32.391  41.131  10.611
18441W        W83701  17.085   5.061  10.185
18442W        W83702  12.340   5.238   4.746
18443W        W83703  26.196   8.619   2.711
18444W        W83704  21.982  23.791   1.707
18445W        W83705  43.666  13.142  13.975
18446W        W83706  19.925  42.474  10.637
18447W        W83707  40.763   9.079  11.675
18448W        W83708  17.681  21.140   2.198
18449W        W83709   2.329   3.148  14.638
18450W        W83710  15.688  21.601   0.538
18451W        W83711  40.911  14.091   1.989
18452W        W83712  13.892  31.883  12.050
18453W        W83713   4.596  38.593  14.924
18454W        W83714  27.204  28.667   1.418
18455W        W83715  39.775  35.758   2.686
18456W        W83716  18.799  29.292   3.385
18457W        W83717  16.148  34.581  11.224
18458W        W83718  41.537   0.701  11.159
18459W        W83719  28.129  44.786   1.408
18460W        W83720  35.053  32.100  10.254
18461W        W83721  29.699   2.314   0.726
18462W        W83722  13.935  24.918  13.281
18463W        W83723  22.211   8.319  12.480
18464W        W83724  19.817  38.352   1.410
18465W        W83725   2.208  20.096  11.475
18466W        W83726  27.667  29.645  10.590
18467W        W83727  30.711  42.305   1.573
18468W        W83728  16.772  43.773   3.726
18469W        W83729  16.514   5.562   2.350
18470W        W83730   8.250   8.811  10.528
18471W        W83731  18.136   6.930   2.311
18472W        W83732  24.906  10.322   0.756
18473W        W83733  44.957   6.276   4.303
18474W        W83734  22.253  23.711   1.269
18475W        W83735  33.119  18.658   0.298
18476W        W83736  11.453  33.140  14.260
18477W        W83737  15.797  15.741  10.253
18478W        W83738   6.882   9.285   3.737
18479W        W83739  15.586  14.799   3.471
18480W        W83740  27.054  20.838  12.337
18481W        W83741   5.236  36.336   1.729
18482W        W83742  32.540  26.397  14.775
18483W        W83743  13.301  31.169   1.719
18484W        W83744  31.412  29.842  12.635
18485W        W83745  17.277   4.600   4.944
18486W        W83746  18.237  15.646   2.287
18487W        W83747  29.142   5.804  13.543
18488W        W83748  12.242  22.013   0.990
18489W        W83749  17.357  15.601  11.972
18490W        W83750  31.991  17.960  12.898
18491W        W83751   1.068  10.925  13.411
18492W        W83752  31.130   8.957  14.058
18493W        W83753  41.087  11.276  14.312
18494W        W83754  43.223  26.963  14.815
18495W        W83755  30.320  21.027  14.899
18496W        W83756  19.463  11.196   1.496
18497W        W83757  13.800   9.780   0.955
18498W        W83758  35.557  30.478  13.263
18499W        W83759  37.789  15.884   3.688
18500W        W83760  20.210  13.609   3.208
18501W        W83761  42.983  41.344   3.130
18502W        W83762  34.270  19.044  13.000
18503W        W83763   8.238  20.266  12.665
18504W        W83764  34.094   3.712   0.003
18505W        W83765   7.391  13.456  12.986
18506W        W83766  17.609   3.398   1.188
18507W        W83767  18.216   8.616   0.542
18508W        W83768   7.937  26.008   5.263
18509W        W83769  17.185   9.333   2.935
18510W        W83770  30.582  42.695   0.386
18511W        W83771  16.686  42.726   1.125
18512W        W83772  27.905  40.361  12.357
18513W        W83773  39.165  38.136   2.196
18514W        W83774  15.209   8.151  10.184
18515W        W83775   5.557  20.088   0.743
18516W        W83776   7.683   8.678  11.533
18517W        W83777  23.027  44.881   3.518
18518W        W83778  41.904  40.746   0.783
18519W        W83779  30.665   8.207   4.138
18520W        W83780  27.679  25.060   1.475
18521W        W83781  20.953   7.228  13.108
18522W        W83782  42.467   6.596   4.518
18523W        W83783  24.030  44.610  13.067
18524W        W83784  25.578  39.002   2.503
18525W        W83785   7.226  25.899  12.864
18526W        W83786  16.995  41.233  12.911
18527W        W83787  34.185  11.347   0.846
18528W        W83788  12.623  38.569  12.937
18529W        W83789   5.300  36.971  12.904
18530W        W83790   1.260  32.101   3.835
18531W        W83791  37.132  37.133  14.273
18532W        W83792  40.750  43.106  12.947
18533W        W83793  10.307   0.755  11.559
18534W        W83794  38.308   1.890  11.890
18535W        W83795   5.947   4.883   1.543
18536W        W83796   1.495  43.278  14.890
18537W        W83797   8.330  43.930  14.888
18538W        W83798  24.626  17.268  10.891
18539W        W83799  16.141  11.515   4.753
18540W        W83800  36.204   9.779  13.133
18541W        W83801   1.936  12.869  12.513
18542W        W83802  16.208  19.269   2.865
18543W        W83803  21.300  37.867  12.306
18544W        W83804  39.908  18.162   2.739
18545W        W83805  22.713  25.474   2.452
18546W        W83806  20.214  36.389  13.942
18547W        W83807  11.879  10.725   0.835
18548W        W83808   2.296   7.649  14.818
18549W        W83809  26.074  24.170   1.335
18550W        W83810  20.106   8.055  11.138
18551W        W83811  19.701  20.265   1.787
18552W        W83812   1.394   7.840   1.712
18553W        W83813  37.955   4.768  14.121
18554W        W83814   9.236   6.754   2.761
18555W        W83815  13.559  38.553  11.544
18556W        W83816   8.032  35.080  12.109
18557W        W83817  35.659  32.922  13.806
18558W        W83818  41.722  25.201   4.138
18559W        W83819  20.045   7.933  12.471
18560W        W83820  22.822  38.175   0.813
18561W        W83821   5.273  29.174  13.431
18562W        W83822  35.949  38.088  12.448
18563W        W83823   0.696   1.245  11.214
18564W        W83824  26.293  24.455  12.511
18565W        W83825   6.269  36.586   0.730
18566W        W83826  28.427  39.337   0.454
18567W        W83827  35.390  38.159   1.193
18568W        W83828  19.154  34.128   0.496
18569W        W83829  20.643   1.736   3.736
18570W        W83830  31.903  19.219   3.690
18571W        W83831  31.156  31.359   0.684
18572W        W83832  16.178  28.120   3.725
18573W        W83833   8.679   9.829   4.529
18574W        W83834  21.450  39.961  11.738
18575W        W83835  31.179  29.646   0.250
18576W        W83836   7.145  24.443   3.743
18577W        W83837  28.145  30.653   4.674
18578W        W83838  26.797  15.321   2.333
18579W        W83839  19.081  42.462  12.417
18580W        W83840  13.040  30.880  11.955
18581W        W83841  30.901  27.948   3.187
18582W        W83842  27.898   4.290  11.415
18583W        W83843   4.688  35.343   4.361
18584W        W83844   7.346   5.166   2.872
18585W        W83845  13.890  18.121   0.947
18586W        W83846  11.270   5.735  13.765
18587W        W83847  38.772  26.760   2.522
18588W        W83848   1.532   8.372   4.024
18589W        W83849  28.574  39.474  14.456
18590W        W83850  37.224  23.804  10.794
18591W        W83851  35.359  39.017   1.862
18592W        W83852  43.358  30.501  14.317
18593W        W83853  24.309  13.964  11.595
18594W        W83854  32.464  17.889  12.604
18595W        W83855  12.897   0.152   3.190
18596W        W83856  39.849  31.926  12.848
18597W        W83857  19.733  41.329   1.866
18598W        W83858  18.810  16.234  13.004
18599W        W83859  32.367  38.894  11.061
18600W        W83860  18.771  30.924  13.776
18601W        W83861  33.563  26.856   0.250
18602W        W83862  12.630  30.081   2.562
18603W        W83863  37.266  28.416  13.472
18604W        W83864  34.071  28.777   2.079
18605W        W83865  20.246  43.829  11.171
18606W        W83866  15.906  17.394   1.017
18607W        W83867  41.918  40.230   0.794
18608W        W83868  11.695  22.552   1.305
18609W        W83869  42.362  31.804   1.311
18610W        W83870  29.117  17.011  11.477
18611W        W83871   5.145  22.558  11.864
18612W        W83872  40.500  34.440   3.134
18613W        W83873  30.931  23.764   2.328
18614W        W83874  38.851  35.404   1.288
18615W        W83875  25.297   3.529   0.248
18616W        W83876   8.968  19.792  10.651
18617W        W83877  26.127  44.771   4.835
18618W        W83878  10.880  28.621  13.390
18619W        W83879  25.926  24.260  12.193
18620W        W83880   2.169   9.975  10.651
18621W        W83881   5.386   4.337   4.584
18622W        W83882  37.915   3.782  12.555
18623W        W83883   7.748   9.721  13.810
18624W        W83884  23.992  16.216  13.866
18625W        W83885   1.453  21.018  14.273
18626W        W83886  39.845  35.086  10.532
18627W        W83887  25.148  42.251  12.528
18628W        W83888  23.085  20.696  10.697
18629W        W83889  35.318   9.137   1.370
18630W        W83890  28.126  15.886  13.367
18631W        W83891  44.035  26.438  14.797
18632W        W83892  23.728  32.936   1.741
18633W        W83893  39.003  33.687   3.870
18634W        W83894  19.414  11.747  13.836
18635W        W83895  19.363   3.718  12.585
18636W        W83896  32.627  25.718   0.330
18637W        W83897  40.913  44.405  12.309
18638W        W83898   3.654   9.302  13.618
18639W        W83899  29.525  15.240  12.850
18640W        W83900  28.139  19.495  12.911
18641W        W83901   3.770   0.028   2.110
18642W        W83902   8.174  31.515   4.462
18643W        W83903  10.083   0.063  12.891
18644W        W83904  33.345  12.406   2.324
18645W        W83905  13.365  12.762  13.776
18646W        W83906  12.828  33.170   0.423
18647W        W83907   5.128  21.047   1.328
18648W        W83908  18.163   1.217  13.022
18649W        W83909  40.908  33.298   4.712
18650W        W83910  17.233  29.523   0.852
18651W        W83911  22.060  27.663   0.620
18652W        W83912  35.323   3.777   3.699
18653W        W83913   9.681  31.600   1.232
18654W        W83914   7.836  21.279  11.007
18655W        W83915  12.939  33.194   2.252
18656W        W83916  19.382  29.007   4.957
18657W        W83917   7.305  44.915  12.071
18658W        W83918   2.369  14.103  10.601
18659W        W83919  12.927  42.586   1.030
18660W        W83920  16.188  13.872  10.767
18661W        W83921  15.435  11.218  12.040
18662W        W83922  12.459   4.007  14.340
18663W        W83923  16.242  42.761  11.262
18664W        W83924  31.696  13.809   0.392
18665W        W83925  42.586  44.254  14.996
18666W        W83926   2.446  38.459  12.116
18667W        W83927  12.039   7.779  12.639
18668W        W83928  14.983  22.285   4.167
18669W        W83929  24.103  30.791   3.634
18670W        W83930  17.692  43.061   1.241
18671W        W83931  17.866  30.534   0.230
18672W        W83932  38.922   8.671  14.509
18673W        W83933  21.230   0.814   4.981
18674W        W83934  13.307  44.363  14.859
18675W        W83935  40.473  37.911  13.869
18676W        W83936  19.210  32.443   3.915
18677W        W83937  43.485  16.240   0.445
18678W        W83938  13.016  44.256  10.653
18679W        W83939   9.198   5.030   2.191
18680W        W83940  39.296  33.523  10.995
18681W        W83941  39.581   1.295   0.671
18682W        W83942  43.521  21.598   1.516
18683W        W83943   3.808   7.793   0.212
18684W        W83944   4.383  31.042   4.266
18685W        W83945   4.831   9.283  13.999
18686W        W83946   2.502  35.683   1.692
18687W        W83947  21.208  33.608  13.565
18688W        W83948  40.123  20.258  13.307
18689W        W83949   1.552   2.702   0.751
18690W        W83950   0.856   8.549  14.832
18691W        W83951   5.295  29.859  12.688
18692W        W83952  23.266   9.168  11.272
18693W        W83953  39.918  20.854  10.721
18694W        W83954  31.721  14.183   2.851
18695W        W83955   7.733   5.314   0.467
18696W        W83956  19.571   1.277  14.346
18697W        W83957   5.215   7.826  14.762
18698W        W83958  21.780   9.905   2.420
18699W        W83959  30.890  31.255   4.282
18700W        W83960  39.819  39.500  11.588
18701W        W83961  27.715  11.114  12.648
18702W        W83962  19.495   5.008   4.991
18703W        W83963  12.234   1.962   1.239
18704W        W83964  43.033   2.385  13.598
18705W        W83965  23.460   3.534  13.334
18706W        W83966  14.774  26.497  13.966
18707W        W83967  28.652  25.324   1.246
18708W        W83968  34.597  21.605   4.667
18709W        W83969  19.707  28.584  14.218
18710W        W83970  13.665  15.129  10.568
18711W        W83971  19.600  25.936   4.489
18712W        W83972  21.004  26.617  14.387
18713W        W83973  28.648  21.213  13.018
18714W        W83974  23.965  25.581  14.839
18715W        W83975  31.682  22.789  12.498
18716W        W83976  19.648  22.289  12.985
18717W        W83977  28.537  29.190   3.213
18718W        W83978   8.832  42.807   2.809
18719W        W83979  11.743  27.927   4.686
18720W        W83980  18.745  23.207   0.292
18721W        W83981  44.016  18.145  11.028
18722W        W83982  43.009   6.844  10.808
18723W        W83983   7.463  35.987  12.418
18724W        W83984  19.778  30.495   0.076
18725W        W83985  37.372  24.985  12.361
18726W        W83986  15.710  35.986   1.314
18727W        W83987  42.877  22.584  13.180
18728W        W83988   8.901   7.804  13.481
18729W        W83989  24.960   9.288   1.689
18730W        W83990  21.692  31.348  14.382
18731W        W83991   4.440  37.519   1.943
18732W        W83992  10.150  38.960   0.732
18733W        W83993  43.580  40.584   3.355
18734W        W83994  36.117  12.555  14.406
18735W        W83995  27.129  29.836   3.178
18736W        W83996  29.325  11.094  13.047
18737W        W83997  26.141  16.778   3.090
18738W        W83998  42.572  15.681   1.569
18739W        W83999  33.372  29.711   5.041
18740W        W84000  14.981  10.495   3.154
18741W        W84001   1.033  11.030  12.093
18742W        W84002  33.037  43.243   4.858
18743W        W84003   5.634   4.360  12.966
18744W        W84004  43.030   4.799  13.081
18745W        W84005  23.127   3.082   1.768
18746W        W84006   1.907  38.951   2.790
18747W        W84007   5.314   8.288  14.571
18748W        W84008  24.860  31.545   1.090
18749W        W84009   5.478  41.419  13.566
18750W        W84010  27.003  37.259   3.609
18751W        W84011   1.776  21.236   3.730
18752W        W84012  38.331  21.073   3.241
18753W        W84013  40.184  14.559  11.542
18754W        W84014  20.126   9.036   1.824
18755W        W84015  37.735  43.823  14.026
18756W        W84016  12.730  44.266  11.577
18757W        W84017   1.022  27.370   0.407
18758W        W84018  28.725  30.893  14.882
18759W        W84019  30.500   5.324  12.897
18760W        W84020  34.117   0.188   0.861
18761W        W84021  24.116  26.616   4.512
18762W        W84022   3.254  18.643  14.800
18763W        W84023   0.771   5.718   2.578
18764W        W84024  44.470  26.776   4.125
18765W        W84025  40.301   3.396   1.160
18766W        W84026  10.201  44.442  14.542
18767W        W84027  41.564  42.968   4.048
18768W        W84028  22.234  37.540   3.234
18769W        W84029  41.277  11.870   9.686
18770W        W84030  38.099  20.787   0.911
18771W        W84031  18.052  39.758   2.289
18772W        W84032  13.641  35.499   2.827
18773W        W84033  43.078   0.462  14.494
18774W        W84034  18.698  44.029  14.133
18775W        W84035   6.972  20.641   3.304
18776W        W84036  38.993   3.201   2.441
18777W        W84037  38.412  37.459   2.467
18778W        W84038  30.324  30.966   4.693
18779W        W84039  11.727  21.253  13.135
18780W        W84040  22.247  15.656   0.312
18781W        W84041  26.641  36.283   3.316
18782W        W84042  44.295   7.365  13.081
18783W        W84043   8.763   0.023   4.568
18784W        W84044  24.903  21.462  14.418
18785W        W84045   5.753   4.725  10.786
18786W        W84046  29.413  41.157  14.465
18787W        W84047  36.162  15.863   2.288
18788W        W84048  14.870   3.273   4.472
18789W        W84049  25.980   5.423  10.238
18790W        W84050  35.153  37.338  11.920
18791W        W84051  24.675  13.615  11.431
18792W        W84052  33.580  26.893  12.488
18793W        W84053  10.682  24.500   1.453
18794W        W84054  29.300  33.498   4.887
18795W        W84055   7.388   4.687   3.095
18796W        W84056   9.792  36.094  10.987
18797W        W84057  40.958  15.052  11.280
18798W        W84058  10.364  12.567  13.920
18799W        W84059  23.807   5.149   2.248
18800W        W84060  17.641  15.178   2.870
18801W        W84061  37.367  37.625  12.976
18802W        W84062  25.597  37.942   4.072
18803W        W84063  15.189  39.052  11.168
18804W        W84064  10.480  44.311  10.649
18805W        W84065  30.258   8.862   3.613
18806W        W84066  28.928  35.560   0.016
18807W        W84067  20.701   2.931  13.339
18808W        W84068   6.234  39.893  13.486
18809W        W84069  38.095   3.713   4.257
18810W        W84070  43.243   4.215  12.548
18811W        W84071   8.646  32.940   3.282
18812W        W84072   6.765  30.951   3.641
18813W        W84073  17.523  32.884   1.318
18814W        W84074  43.775  37.915  10.568
18815W        W84075  18.204  20.421  13.066
18816W        W84076  44.755  34.345  13.912
18817W        W84077  14.209  36.870  13.509
18818W        W84078  19.859  15.640   3.197
18819W        W84079  23.273  39.795  14.638
18820W        W84080  44.000   9.646   3.038
18821W        W84081  16.193  36.065   0.771
18822W        W84082  12.726   4.692   3.710
18823W        W84083  37.037   3.229  14.297
18824W        W84084  19.239  12.396   1.334
18825W        W84085   7.477  34.734  12.990
18826W        W84086  21.715  10.732   1.941
18827W        W84087  24.651  22.486   1.405
18828W        W84088  37.322  21.977   1.921
18829W        W84089   4.842  32.372  10.250
18830W        W84090  23.022  22.664  11.219
18831W        W84091  14.621  27.031   2.333
18832W        W84092   6.003  16.279  12.776
18833W        W84093  39.506  18.872  13.556
18834W        W84094  15.997   1.380   1.823
18835W        W84095   9.295  17.575  14.064
18836W        W84096  37.694  19.729  12.103
18837W        W84097  28.916  26.512   2.366
18838W        W84098  12.582   0.559  14.428
18839W        W84099   6.754  31.848   2.287
18840W        W84100   5.924  21.259   4.604
18841W        W84101  16.069   0.837   2.906
18842W        W84102   5.394  24.091   1.343
18843W        W84103   0.035  18.472  12.459
18844W        W84104  34.020  41.816   4.555
18845W        W84105   2.258  39.913   0.525
18846W        W84106  39.100   1.455  11.839
18847W        W84107  42.061  35.432   3.574
18848W        W84108  35.026   6.421  12.323
18849W        W84109   7.760  21.166   3.281
18850W        W84110  21.718  25.072   1.764
18851W        W84111  24.821  38.107  12.027
18852W        W84112  22.477  15.825   3.062
18853W        W84113  18.221   9.299  11.369
18854W        W84114  27.551  26.120   0.998
18855W        W84115   3.821   7.120   4.516
18856W        W84116   8.420  34.834   0.962
18857W        W84117  25.104  38.578   0.244
18858W        W84118   1.981  19.448  12.511
18859W        W84119  39.260  11.668  12.665
18860W        W84120   8.872  25.627  11.671
18861W        W84121   3.757   3.295  10.885
18862W        W84122  26.995  29.889  12.043
18863W        W84123  38.849   4.862   4.141
18864W        W84124  13.347  21.996  14.930
18865W        W84125  41.288   9.205  11.721
18866W        W84126  25.114  38.849  13.820
18867W        W84127  23.541   5.608   2.285
18868W        W84128  23.774  21.623  11.655
18869W        W84129  21.070  18.897   0.303
18870W        W84130  19.691  19.502  14.754
18871W        W84131  34.912  28.922   2.676
18872W        W84132  14.649  16.275   4.696
18873W        W84133  40.605  38.333  10.518
18874W        W84134  34.442   0.830  10.290
18875W        W84135  39.698  35.433   0.916
18876W        W84136   1.383  28.220  13.264
18877W        W84137  26.659   6.780   2.398
18878W        W84138  30.912   0.786   0.519
18879W        W84139  31.113   6.380  12.743
18880W        W84140  27.806   0.967  12.453
18881W        W84141  24.905  20.087  14.397
18882W        W84142  11.186  11.405  13.902
18883W        W84143   5.383  28.426  13.413
18884W        W84144  43.744  26.700   1.570
18885W        W84145  21.277  15.209  13.650
18886W        W84146  10.749  12.620   3.134
18887W        W84147  16.685  15.139  13.990
18888W        W84148   2.774  35.917   3.882
18889W        W84149  30.332  25.902   0.353
18890W        W84150  17.326  30.369   3.229
18891W        W84151  28.099  24.667  11.906
18892W        W84152  19.499  43.812  14.450
18893W        W84153  29.999  29.301   4.982
18894W        W84154  11.586  21.096   1.403
18895W        W84155  13.854   8.918   3.329
18896W        W84156   1.271  34.876   1.232
18897W        W84157   1.205  41.934  12.539
18898W        W84158  19.141  40.497   0.407
18899W        W84159   3.414   4.869   1.257
18900W        W84160   6.197   3.454   3.229
18901W        W84161  10.270  28.005   2.892
18902W        W84162   7.065   4.482  14.768
18903W        W84163  11.291  36.435   1.946
18904W        W84164  38.449  16.766  13.253
18905W        W84165  42.612  10.777  10.591
18906W        W84166  30.589  10.432   0.859
18907W        W84167  41.489  27.196  11.614
18908W        W84168  13.458  14.041  11.241
18909W        W84169  25.073   5.509  14.402
18910W        W84170  43.409   3.854   1.865
18911W        W84171   1.400  31.664   4.764
18912W        W84172  37.799  25.885   1.085
18913W        W84173  33.010  29.197   1.214
18914W        W84174  33.844   5.342  13.493
18915W        W84175   1.586  44.050   1.478
18916W        W84176  29.102  27.551   0.224
18917W        W84177  11.048  19.763   1.547
18918W        W84178  38.561  23.501   2.124
18919W        W84179   7.813  27.225  13.135
18920W        W84180   2.185  13.153  11.467
18921W        W84181   8.912  32.971   4.817
18922W        W84182  12.441   9.353   0.718
18923W        W84183  37.275   7.166   1.352
18924W        W84184  11.262  32.114  13.492
18925W        W84185  38.567   8.059  14.370
18926W        W84186  19.365  24.236   3.244
18927W        W84187  41.486  36.322  14.960
18928W        W84188  21.293   1.886  14.590
18929W        W84189  39.057  31.338  13.465
18930W        W84190  38.968  34.944   2.190
18931W        W84191   5.156   7.234  12.048
18932W        W84192  20.178   1.732  12.468
18933W        W84193  39.061  32.897  12.094
18934W        W84194   8.951   5.478   4.128
18935W        W84195  41.431  13.216   2.764
18936W        W84196  29.607  25.527  11.950
18937W        W84197  44.384  14.225   3.889
18938W        W84198  15.892  23.783  13.926
18939W        W84199  13.736   3.205   2.227
18940W        W84200  19.756  33.317   1.379
18941W        W84201  28.417   3.393  13.060
18942W        W84202  36.076  19.300  12.491
18943W        W84203  34.986  27.390   2.929
18944W        W84204  35.130   4.824   4.190
18945W        W84205  32.927  28.516  14.322
18946W        W84206  27.223  25.148   1.291
18947W        W84207  37.291   9.060  14.840
18948W        W84208  32.710  39.037  12.790
18949W        W84209   9.737  41.107  11.087
18950W        W84210  41.748  15.693  14.682
18951W        W84211  26.694  14.213  13.545
18952W        W84212  22.419   6.936   1.854
18953W        W84213  19.106  17.017   3.282
18954W        W84214   6.282  24.533   2.258
18955W        W84215  34.069  43.661  12.999
18956W        W84216   1.452   3.830  13.957
18957W        W84217  18.958   0.937  14.019
18958W        W84218  40.066  11.217  14.228
18959W        W84219  18.576  37.330   4.575
18960W        W84220   0.470  15.749   1.654
18961W        W84221  12.028  42.628   1.753
18962W        W84222   5.075   1.240   1.293
18963W        W84223  29.470  28.901   2.834
18964W        W84224  33.455  17.158   1.763
18965W        W84225   8.159  32.408   4.250
18966W        W84226  28.976  12.738  11.435
18967W        W84227  17.379  29.628  12.022
18968W        W84228  26.970   9.843   0.273
18969W        W84229  38.396  25.499  11.628
18970W        W84230   9.208  16.560   0.406
18971W        W84231  36.559  19.960   2.873
18972W        W84232  24.696   6.916   0.383
18973W        W84233  18.919  11.824  13.690
18974W        W84234   3.944  16.209  11.518
18975W        W84235  33.553  42.429   0.884
18976W        W84236  28.484  16.288   4.689
18977W        W84237   1.238   3.730  13.478
18978W        W84238   2.277  25.728  12.898
18979W        W84239  11.643  28.016  11.475
18980W        W84240  42.016  37.838   0.954
18981W        W84241  23.019  29.983  12.925
18982W        W84242  21.653  17.537  10.652
18983W        W84243   2.969  27.580   2.096
18984W        W84244  33.108  37.542   3.303
18985W        W84245  18.655  11.886   3.709
18986W        W84246  12.180  14.526  12.512
18987W        W84247  19.307   9.106   0.454
18988W        W84248  21.468  35.474  10.107
18989W        W84249  10.754  42.815   1.681
18990W        W84250  17.604   3.796  10.706
18991W        W84251  33.628  11.699  14.477
18992W        W84252   2.754  37.757   3.734
18993W        W84253  38.645  34.996  12.746
18994W        W84254  28.260  41.930  10.268
18995W        W84255   1.849  44.527   4.801
18996W        W84256  29.978  40.737  11.530
18997W        W84257   7.394  32.158   3.703
18998W        W84258  44.476  41.411  13.332
18999W        W84259  31.058  26.918   3.208
19000W        W84260  15.103  27.681   4.605
19001W        W84261  16.519  14.065   1.199
19002W        W84262  41.630   4.530   0.297
19003W        W84263  16.497  22.102   3.401
19004W        W84264  41.951   1.511   2.882
19005W        W84265  37.342  40.319  14.945
19006W        W84266  34.364  10.917  13.787
19007W        W84267  36.466  34.850  12.524
19008W        W84268  37.393   9.622  13.885
19009W        W84269  41.982  39.959  10.982
19010W        W84270  33.069  22.035  14.996
19011W        W84271  15.278  41.105   3.778
19012W        W84272  20.544   1.764  12.098
19013W        W84273  43.522  43.921   1.685
19014W        W84274  33.203   9.468  13.913
19015W        W84275   8.207  36.523  12.958
19016W        W84276   7.863   7.890   2.935
19017W        W84277  41.781   3.391  14.963
19018W        W84278  35.554  24.475  12.883
19019W        W84279  22.993   3.786  13.753
19020W        W84280  26.693   2.896   4.735
19021W        W84281  30.661   4.774  11.712
19022W        W84282  14.676  19.089   2.617
19023W        W84283  22.678  31.627   3.336
19024W        W84284  15.322   9.318   1.002
19025W        W84285  35.816  16.649   0.031
19026W        W84286  19.279   8.070   0.066
19027W        W84287  21.271   2.379   3.643
19028W        W84288  43.462  28.649   2.636
19029W        W84289  29.733   6.841   2.028
19030W        W84290  24.748  34.788   3.230
19031W        W84291  42.706  13.750   4.125
19032W        W84292  39.604  44.065  13.792
19033W        W84293   8.896  18.584   3.166
19034W        W84294  33.571  24.051  14.425
19035W        W84295  18.729  10.351   1.749
19036W        W84296  28.984   7.662  13.723
19037W        W84297  16.067  28.747   4.521
19038W        W84298  29.192  38.285  14.858
19039W        W84299  28.734   7.645  14.969
19040W        W84300  38.105  27.411  10.657
19041W        W84301  39.289  33.269   3.707
19042W        W84302  24.521  31.163  10.705
19043W        W84303   0.216  11.728  13.082
19044W        W84304   1.556  35.501  11.201
19045W        W84305  26.550  11.639  13.023
19046W        W84306  11.239  39.429   3.714
19047W        W84307   6.425  31.865  14.016
19048W        W84308  14.587  37.848  10.701
19049W        W84309  41.428   0.001  14.853
19050W        W84310  37.396  12.705   2.844
19051W        W84311  12.815  32.851  11.171
19052W        W84312  24.001  14.797   2.081
19053W        W84313  26.635  21.701  12.118
19054W        W84314   5.846  11.917  13.457
19055W        W84315  15.705  25.003  10.664
19056W        W84316  15.733   1.712  13.033
19057W        W84317  16.687  40.574   0.912
19058W        W84318  44.131  11.445  11.607
19059W        W84319  22.747  23.458   1.410
19060W        W84320  35.174  39.352  12.574
19061W        W84321  40.222  34.015  12.053
19062W        W84322  24.538  16.732   4.077
19063W        W84323  18.706  10.255  10.566
19064W        W84324   7.911  27.023   1.356
19065W        W84325  30.320  15.337   1.532
19066W        W84326   0.776  30.414  13.741
19067W        W84327  10.292  15.223   0.914
19068W        W84328  27.682  41.982  11.944
19069W        W84329  28.765  13.565  12.068
19070W        W84330  43.891  30.347  10.751
19071W        W84331  19.594   2.777   1.916
19072W        W84332  38.040  39.628  14.257
19073W        W84333  28.111  10.099  13.938
19074W        W84334  13.752   9.324  12.060
19075W        W84335   0.534  44.317  12.024
19076W        W84336  18.330  19.453  11.947
19077W        W84337  31.619  36.017  11.253
19078W        W84338   5.412  21.260   2.852
19079W        W84339  39.294   8.616   4.262
19080W        W84340  35.364   6.224  11.058
19081W        W84341  40.069   0.914   4.979
19082W        W84342  25.490  20.311   4.124
19083W        W84343  44.799  11.489   1.381
19084W        W84344  38.878   0.768  13.552
19085W        W84345  32.718   2.575   1.981
19086W        W84346  36.490  44.778   4.945
19087W        W84347  20.812  22.569   5.019
19088W        W84348  39.345  42.655  12.091
19089W        W84349  19.290  31.507  10.758
19090W        W84350  27.124  22.124  10.855
19091W        W84351  22.454  10.445   0.750
19092W        W84352  27.639  31.611   1.390
19093W        W84353   2.704   6.289  11.010
19094W        W84354  23.939   6.376   2.300
19095W        W84355  39.202   6.154  12.488
19096W        W84356  32.900  41.747   2.874
19097W        W84357   0.517  31.601  12.585
19098W        W84358   7.788  35.141  10.718
19099W        W84359   0.713  19.287  13.782
19100W        W84360   9.470  14.119  11.632
19101W        W84361  44.719  30.266  12.005
19102W        W84362  43.848  25.551   3.853
19103W        W84363  26.199  27.114   4.196
19104W        W84364  43.585  25.935   2.253
19105W        W84365   2.804  25.134   1.961
19106W        W84366   1.385  15.064  12.906
19107W        W84367   3.862   9.672  14.460
19108W        W84368   3.201  19.080   3.359
19109W        W84369  22.706  14.926  14.952
19110W        W84370  41.561   0.423   1.659
19111W        W84371  23.582  10.645  11.770
19112W        W84372  18.032  36.925   2.691
19113W        W84373  27.261  20.753  14.218
19114W        W84374  44.474  12.924   1.500
19115W        W84375  32.074  41.430  10.257
19116W        W84376  15.662  13.315   4.615
19117W        W84377  29.069  28.606  13.798
19118W        W84378  26.899  39.331   3.737
19119W        W84379  12.838   3.850  11.548
19120W        W84380  12.883  22.438   3.574
19121W        W84381  29.117  34.911  13.364
19122W        W84382  37.691  37.365   5.113
19123W        W84383  17.056  40.948   0.905
19124W        W84384  18.944  39.467  14.723
19125W        W84385  16.876  22.172  13.665
19126W        W84386  29.856  38.450  10.706
19127W        W84387  23.013  16.136  13.830
19128W        W84388  25.535  25.843  14.115
19129W        W84389  14.176  24.542  11.179
19130W        W84390   1.928  25.974   2.304
19131W        W84391   3.147  44.693  12.991
19132W        W84392  17.718  10.320  11.644
19133W        W84393  16.627  11.701   1.818
19134W        W84394   6.238  25.824  12.038
19135W        W84395   6.306  42.300  11.950
19136W        W84396  23.362  35.492   2.394
19137W        W84397  44.745  42.481  11.262
19138W        W84398  29.953   5.885   1.375
19139W        W84399  18.768  12.565   4.709
19140W        W84400  32.808  44.430   0.751
19141W        W84401  31.934  32.909   2.655
19142W        W84402  40.695   8.049   1.708
19143W        W84403  23.296   1.599  14.946
19144W        W84404  42.373  24.531   1.124
19145W        W84405  24.319  30.054   0.323
19146W        W84406   9.017  36.760   0.389
19147W        W84407   7.995  11.085   0.813
19148W        W84408   0.004  31.938  14.826
19149W        W84409  32.077  10.383   2.707
19150W        W84410  32.046  38.319   2.366
19151W        W84411  27.667  39.660   2.701
19152W        W84412  31.509  44.772   4.126
19153W        W84413  19.829  20.245  12.479
19154W        W84414  29.455  32.537   3.675
19155W        W84415  39.387  20.028   2.363
19156W        W84416  15.321  18.484  11.165
19157W        W84417  14.619  24.278   0.610
19158W        W84418  21.108  31.413   3.663
19159W        W84419  28.453  37.848   1.721
19160W        W84420   1.701  25.472   1.855
19161W        W84421  29.025  44.886   3.998
19162W        W84422  16.681  25.703   1.800
19163W        W84423  25.627  28.077   0.219
19164W        W84424  43.286  26.565  12.015
19165W        W84425  26.110   4.664   0.430
19166W        W84426  36.841  40.470   1.907
19167W        W84427  26.453  31.346  11.078
19168W        W84428  11.782  32.421  14.605
19169W        W84429  20.414  35.447   4.180
19170W        W84430  43.993  19.949   2.139
19171W        W84431  44.665   0.063   5.127
19172W        W84432  32.915  32.048   1.187
19173W        W84433  41.775  25.591   1.202
19174W        W84434  29.184  29.540  14.178
19175W        W84435   8.400   4.088   0.757
19176W        W84436  24.622  24.645   1.431
19177W        W84437  10.718  42.643   1.195
19178W        W84438  44.972  33.421  12.868
19179W        W84439  33.061  38.976   4.146
19180W        W84440   4.836   9.481  14.501
19181W        W84441  38.554  31.433  13.488
19182W        W84442  20.110   0.884   3.585
19183W        W84443  21.996  13.675   1.944
19184W        W84444  11.871  33.432  14.494
19185W        W84445   9.395  32.028  14.328
19186W        W84446  33.680  27.722   3.242
19187W        W84447  22.647  30.496  14.830
19188W        W84448   6.438   9.322   3.514
19189W        W84449   2.522  25.725   0.097
19190W        W84450  39.346  13.322  14.085
19191W        W84451  21.083  11.583   1.678
19192W        W84452  27.032  17.366  14.565
19193W        W84453  17.912   0.327  12.610
19194W        W84454   8.621  10.121  10.741
19195W        W84455  42.324  12.201   0.377
19196W        W84456   1.189  42.371   4.571
19197W        W84457   1.441  42.535   2.197
19198W        W84458  44.826  27.706  11.610
19199W        W84459  32.959  41.289   2.698
19200W        W84460  41.220  28.184  13.773
19201W        W84461  13.586  44.944  12.801
19202W        W84462   0.739  22.711  14.039
19203W        W84463  36.622  41.252   4.544
19204W        W84464  25.002  27.706  12.989
19205W        W84465  34.115  20.866  10.784
19206W        W84466  44.981  35.538   3.374
19207W        W84467  13.405  12.228   1.307
19208W        W84468  40.707  27.607   4.307
19209W        W84469  21.992  44.000  11.449
19210W        W84470   8.479  35.616  14.882
19211W        W84471  17.183  36.393  10.563
19212W        W84472  16.703  39.033   0.801
19213W        W84473   0.471   3.238   1.066
19214W        W84474  22.964  33.703  10.269
19215W        W84475  34.821  34.535   1.808
19216W        W84476  42.614  11.518   1.988
19217W        W84477  41.368   7.086  12.538
19218W        W84478  44.918   6.095  14.156
19219W        W84479   9.180  19.074  12.461
19220W        W84480  43.642   2.756  11.979
19221W        W84481  22.571   1.001   4.524
19222W        W84482  34.580   5.541   1.299
19223W        W84483  17.380  42.625  13.323
19224W        W84484  26.300  43.418   5.023
19225W        W84485  19.670  30.559  14.497
19226W        W84486  30.147  33.638  11.469
19227W        W84487  32.400  17.360   0.457
19228W        W84488   1.056   1.807  10.631
19229W        W84489  16.140  32.610  11.986
19230W        W84490  12.329  41.967  13.874
19231W        W84491   1.995  33.075   3.150
19232W        W84492  40.806   8.828  12.522
19233W        W84493  34.904  30.264  13.415
19234W        W84494  33.117  24.521  11.204
19235W        W84495  30.095  31.152  11.219
19236W        W84496  44.733  44.531  13.675
19237W        W84497  41.083   7.107   0.013
19238W        W84498  33.954  41.550   2.752
19239W        W84499   3.292  32.845  14.961
19240W        W84500   8.913  36.595  13.417
19241W        W84501  41.441  36.988   4.713
19242W        W84502  36.159  17.825  13.381
19243W        W84503  28.760  26.179   5.028
19244W        W84504  27.663  13.279  14.746
19245W        W84505  11.260  28.988  13.462
19246W        W84506  42.321  11.086   3.369
19247W        W84507  42.342  34.406   4.168
19248W        W84508  34.316  32.048  11.515
19249W        W84509  20.683  32.095  14.080
19250W        W84510  22.968  42.807  11.494
19251W        W84511  41.027   2.796   2.601
19252W        W84512  10.082  39.108   0.254
19253W        W84513  21.469  39.789  10.745
19254W        W84514  26.681  37.644  13.086
19255W        W84515  10.792  31.354   5.201
19256W        W84516   7.227   8.340   0.197
19257W        W84517  33.911  17.458  12.581
19258W        W84518   4.756  43.613  14.401
19259W        W84519  19.970  27.033  11.930
19260W        W84520   6.882  23.562  11.439
19261W        W84521  33.028  34.528  13.110
19262W        W84522   6.376  34.541  13.855
19263W        W84523  20.175  40.993   2.141
19264W        W84524  22.141  25.949   0.728
19265W        W84525  13.977  44.855  12.462
19266W        W84526   0.282  41.344  13.905
19267W        W84527  33.136  19.321   2.848
19268W        W84528  37.135  11.314   1.913
19269W        W84529  23.972  42.016   4.925
19270W        W84530  16.913  22.406  14.139
19271W        W84531  38.927  30.323  13.492
19272W        W84532  38.802  41.937   3.112
19273W        W84533  16.926   4.361   4.241
19274W        W84534  12.026  38.571  11.404
19275W        W84535   1.812  11.995   3.339
19276W        W84536  23.621  12.864  11.982
19277W        W84537  37.113  15.141   2.867
19278W        W84538  39.384  12.920  11.376
19279W        W84539   2.485  17.686   2.636
19280W        W84540   5.412  34.187   0.332
19281W        W84541  21.717   7.233  13.827
19282W        W84542  26.986  42.947   1.916
19283W        W84543  14.240  35.633  14.053
19284W        W84544  10.026  41.276   3.330
19285W        W84545  15.241  24.160  14.457
19286W        W84546  27.689  18.661  12.617
19287W        W84547  13.288  31.099   0.914
19288W        W84548  15.070  37.791  10.495
19289W        W84549  40.694   8.823   4.113
19290W        W84550  41.968  16.796   1.850
19291W        W84551  35.124  44.238  12.081
19292W        W84552  30.115  42.702   2.386
19293W        W84553   0.862  36.499  10.732
19294W        W84554  22.513  28.268   0.981
19295W        W84555  35.763  20.833  12.443
19296W        W84556  44.967   5.874  12.022
19297W        W84557  14.230  10.510  12.500
19298W        W84558  31.135  39.325   3.411
19299W        W84559  19.773  24.922   2.747
19300W        W84560   8.769   8.643   3.582
19301W        W84561  38.459  39.003   0.348
19302W        W84562  37.625   1.737  11.665
19303W        W84563  29.611   0.393   3.593
19304W        W84564  44.193  14.130   2.389
19305W        W84565  43.772  35.561  13.485
19306W        W84566   1.947  34.918  12.067
19307W        W84567  27.104  30.905  10.764
19308W        W84568   1.618   1.250  13.393
19309W        W84569  16.117   8.132   2.350
19310W        W84570  23.729  38.407   4.542
19311W        W84571  43.064  15.598  12.965
19312W        W84572  23.672  38.440   1.909
19313W        W84573  20.494  38.358  12.262
19314W        W84574  20.602  32.699  10.468
19315W        W84575  11.715  36.893  11.600
19316W        W84576  29.081  27.387   1.771
19317W        W84577  10.157  41.351  11.594
19318W        W84578  34.411   4.205   0.734
19319W        W84579  16.078  15.188  10.989
19320W        W84580  32.080  18.494  11.056
19321W        W84581  35.643  36.541  14.283
19322W        W84582  41.397  12.807   2.417
19323W        W84583  44.394  30.293  10.169
19324W        W84584   9.199  43.223  11.551
19325W        W84585  34.551  26.919  14.342
19326W        W84586  23.108  36.014   3.953
19327W        W84587   0.331  20.488  13.508
19328W        W84588  38.927  34.600  13.927
19329W        W84589  30.506  12.707   0.360
19330W        W84590  15.741  39.657  11.182
19331W        W84591   7.748   2.362   2.591
19332W        W84592  44.761  31.195  11.020
19333W        W84593  42.486  38.993   3.189
19334W        W84594  22.259  33.837  14.760
19335W        W84595   8.245  14.973  11.581
19336W        W84596  28.014  17.218   2.908
19337W        W84597  34.837   7.432  14.123
19338W        W84598  43.314  18.276   3.170
19339W        W84599  29.151  30.238  14.089
19340W        W84600  35.734  20.781  11.437
19341W        W84601   7.701  38.690   2.370
19342W        W84602   8.456  34.727  13.804
19343W        W84603  41.085   2.387  12.431
19344W        W84604   8.927  27.591  12.306
19345W        W84605  20.172  33.136   2.606
19346W        W84606  33.481   0.495  12.460
19347W        W84607  39.456   4.912  13.925
19348W        W84608  30.007  23.579   3.269
19349W        W84609  10.743  16.502  12.019
19350W        W84610   5.773  14.097   4.317
19351W        W84611   6.747  38.035  14.244
19352W        W84612  40.087   8.309  10.956
19353W        W84613   8.885  20.364  12.034
19354W        W84614  38.461   5.669   1.948
19355W        W84615  24.616  30.459  14.063
19356W        W84616  44.483  19.047  10.218
19357W        W84617  23.887  38.334  12.797
19358W        W84618  39.630   6.200  12.785
19359W        W84619  21.309   3.193  14.907
19360W        W84620  41.384  23.683   0.806
19361W        W84621   4.876  23.586  14.455
19362W        W84622  30.849  23.099  14.103
19363W        W84623  26.371  41.227   4.807
19364W        W84624  15.000   8.602   1.796
19365W        W84625   4.954   6.923  14.344
19366W        W84626  11.046  42.926   3.237
19367W        W84627   1.511  11.041  11.900
19368W        W84628  22.847  33.161   0.861
19369W        W84629  42.025  26.132   1.227
19370W        W84630  10.797  43.941  10.434
19371W        W84631  18.019  13.757   0.368
19372W        W84632  12.737  41.949   1.296
19373W        W84633  40.058  12.164  14.105
19374W        W84634  10.277  18.579  11.416
19375W        W84635  30.394  25.944  12.030
19376W        W84636  38.373   3.364   1.634
19377W        W84637  33.948   6.259   4.909
19378W        W84638  26.904  25.613  13.393
19379W        W84639  13.438  23.458  13.848
19380W        W84640  15.948  30.195  11.635
19381W        W84641   6.391  21.324  10.993
19382W        W84642  23.705   3.456   3.310
19383W        W84643   6.473  44.855   2.283
19384W        W84644  24.760  21.227   0.288
19385W        W84645  36.769  36.454   0.759
19386W        W84646   7.878  31.495  10.747
19387W        W84647   2.012   8.819  11.354
19388W        W84648  32.663  23.068  11.617
19389W        W84649  29.452  20.975  11.936
19390W        W84650  19.610   1.531  13.354
19391W        W84651  41.811  33.111   3.281
19392W        W84652  34.199  28.932  10.645
19393W        W84653  12.619  30.407  14.793
19394W        W84654  33.598  39.320   4.805
19395W        W84655  20.959  35.336   1.322
19396W        W84656  43.926  20.473  13.008
19397W        W84657   4.063  29.019   0.862
19398W        W84658   4.097  15.106  12.362
19399W        W84659  13.562  34.532  12.519
19400W        W84660  34.597  42.133  13.342
19401W        W84661  11.056  17.068   2.355
19402W        W84662  12.131   8.108   0.977
19403W        W84663   9.330  35.021   4.576
19404W        W84664  26.149   8.107   1.270
19405W        W84665  35.394  11.450   3.438
19406W        W84666  27.795  27.021  11.052
19407W        W84667   2.093  22.914  10.787
19408W        W84668  38.261  22.979   4.782
19409W        W84669  12.258  30.979   3.195
19410W        W84670  16.162   1.871  12.290
19411W        W84671  35.805   3.838  13.693
19412W        W84672   8.947  19.187   0.912
19413W        W84673  12.411   0.307   2.537
19414W        W84674  16.277  12.723   3.768
19415W        W84675  13.718  41.012  12.638
19416W        W84676  11.771  27.133   0.835
19417W        W84677   6.538  20.068   0.841
19418W        W84678  11.447   0.407   2.421
19419W        W84679  22.904   0.513   2.447
19420W        W84680  16.916  14.585  10.969
19421W        W84681  26.497  34.598   1.921
19422W        W84682  16.641  39.644  12.700
19423W        W84683  34.685  27.653   4.093
19424W        W84684  13.137   1.789  12.463
19425W        W84685  21.393  21.713  12.158
19426W        W84686  26.032  21.166   3.194
19427W        W84687  24.970   7.776  14.770
19428W        W84688  21.505  31.807  14.509
19429W        W84689  20.721   9.789   2.097
19430W        W84690   6.655  25.458  12.159
19431W        W84691   1.298  28.535  14.048
19432W        W84692   8.919  42.795  11.651
19433W        W84693   1.199  39.614   2.865
19434W        W84694  28.404  17.884  13.786
19435W        W84695   0.200   0.534   2.660
19436W        W84696  36.147  28.447  11.559
19437W        W84697  44.879   8.154   0.847
19438W        W84698   0.197  25.697   0.971
19439W        W84699  41.622  15.227   5.048
19440W        W84700  27.619  24.992  12.558
19441W        W84701  43.447  10.841  11.590
19442W        W84702  23.228  44.501   0.850
19443W        W84703   0.807  12.335   0.073
19444W        W84704  34.315  39.873   3.968
19445W        W84705   4.489  34.898  11.124
19446W        W84706  22.344  44.371   4.767
19447W        W84707   8.975  42.460   0.315
19448W        W84708  29.957  38.260   3.389
19449W        W84709   8.604  34.866   4.009
19450W        W84710  12.125  33.509  11.408
19451W        W84711   8.297  27.459  13.103
19452W        W84712   8.439  29.042   3.656
19453W        W84713  18.954   3.851   1.949
19454W        W84714  26.726  20.373   0.931
19455W        W84715  40.625  43.031   3.035
19456W        W84716  19.570  30.085  10.636
19457W        W84717  25.176  33.170  10.738
19458W        W84718  22.143  26.486  13.759
19459W        W84719  43.922  39.296  10.797
19460W        W84720  24.225  25.203   2.732
19461W        W84721  40.098  40.926  14.845
19462W        W84722   2.218   7.414  11.132
19463W        W84723  11.204  44.422   3.227
19464W        W84724  19.186  42.842  10.538
19465W        W84725   2.362  42.313   0.946
19466W        W84726  33.368   9.474  12.496
19467W        W84727   2.746  18.551  11.668
19468W        W84728  32.473   9.464  11.231
19469W        W84729  24.705  15.999   0.494
19470W        W84730  37.141  32.199   5.126
19471W        W84731  14.679  14.669  13.389
19472W        W84732  24.602  34.819  10.701
19473W        W84733  22.988   1.292   2.980
19474W        W84734  34.203   6.856   2.710
19475W        W84735  36.415   1.392   3.327
19476W        W84736  36.816  36.928   1.888
19477W        W84737  29.191  43.232   2.615
19478W        W84738  43.358  39.748  11.457
19479W        W84739  29.145  12.323  13.288
19480W        W84740  20.697   8.262   0.895
19481W        W84741  28.611  31.162  11.494
19482W        W84742  19.328  29.990  12.163
19483W        W84743  30.995  22.064   0.223
19484W        W84744  25.990  28.510   1.729
19485W        W84745  13.398   3.420  12.607
19486W        W84746   3.028  27.493  12.850
19487W        W84747  42.006  44.726   0.688
19488W        W84748  17.728  35.510   0.129
19489W        W84749   6.805  14.319   2.558
19490W        W84750  39.936  29.597  13.122
19491W        W84751  30.635  11.875   1.803
19492W        W84752  16.284  22.064  11.971
19493W        W84753  10.814  38.770  10.140
19494W        W84754  15.349  32.422  11.573
19495W        W84755   1.975  35.412   4.282
19496W        W84756  27.152  10.996  10.709
19497W        W84757  23.554  23.861  12.630
19498W        W84758  41.323   1.832  14.445
19499W        W84759   2.354   9.004   3.080
19500W        W84760   2.578  32.778   0.987
19501W        W84761  39.795  42.059  14.804
19502W        W84762   8.580  38.457  11.512
19503W        W84763  30.691  44.337   1.687
19504W        W84764  31.510  32.443   1.431
19505W        W84765  22.376  43.879   0.897
19506W        W84766  16.878  15.781  11.932
19507W        W84767   6.682   7.196  11.575
19508W        W84768  27.255  27.964  13.859
19509W        W84769  14.115   8.748   0.814
19510W        W84770  21.049  27.451   0.513
19511W        W84771  11.368   5.987   2.200
19512W        W84772  25.872  22.280   0.344
19513W        W84773  26.278  28.106  11.129
19514W        W84774  22.743  10.159   0.434
19515W        W84775  25.669  29.077  13.136
19516W        W84776  24.729  41.382   3.207
19517W        W84777  21.221  16.708   2.332
19518W        W84778  37.363   0.119  10.831
19519W        W84779  31.916  24.971  11.704
19520W        W84780  44.868  37.774   1.227
19521W        W84781  33.282  14.747   2.561
19522W        W84782  16.535   0.939   4.120
19523W        W84783   6.355  16.621  13.540
19524W        W84784   6.686  26.956   9.674
19525W        W84785  31.911  29.587  12.033
19526W        W84786   7.883  30.589  10.877
19527W        W84787  16.278  19.955  14.989
19528W        W84788   1.839   4.549  12.121
19529W        W84789   1.546   0.017   3.645
19530W        W84790   6.569   4.968   2.140
19531W        W84791  12.311  16.790  13.979
19532W        W84792  17.716   8.028   1.424
19533W        W84793  34.510  20.517   0.383
19534W        W84794   0.461  39.416   0.489
19535W        W84795  35.429  41.807   3.325
19536W        W84796  12.414  33.536   0.449
19537W        W84797  21.703   3.285   3.726
19538W        W84798  24.100  11.939  14.310
19539W        W84799  27.541  19.375  10.173
19540W        W84800  43.496  27.323  10.099
19541W        W84801  32.929  21.319  11.486
19542W        W84802  42.938  18.582   0.319
19543W        W84803   3.864  43.069   1.952
19544W        W84804   6.201  29.649   4.174
19545W        W84805  27.949  37.095   1.580
19546W        W84806  34.558  29.890  14.295
19547W        W84807   3.780   4.623   4.387
19548W        W84808  18.738  22.523   1.405
19549W        W84809  31.766  19.118  14.827
19550W        W84810  30.232   5.939   2.304
19551W        W84811   1.434   7.600   1.257
19552W        W84812  44.839  24.989   0.337
19553W        W84813  25.846  23.622   2.405
19554W        W84814  29.990  38.002  10.447
19555W        W84815   5.738   9.005  13.820
19556W        W84816  10.725  35.841  14.952
19557W        W84817  21.580  11.739  11.109
19558W        W84818  24.740  26.550  14.985
19559W        W84819  39.734   7.759   4.226
19560W        W84820  11.616   0.102  12.807
19561W        W84821  15.876  30.723  10.531
19562W        W84822  30.983  44.850   4.288
19563W        W84823  43.304  23.079   2.054
19564W        W84824   3.981   7.190   3.516
19565W        W84825  31.196   8.186  13.556
19566W        W84826   9.561   8.701   2.891
19567W        W84827  41.590  19.136   2.423
19568W        W84828  13.297   2.974   0.739
19569W        W84829   4.743  33.298   3.346
19570W        W84830  30.367  42.025  10.797
19571W        W84831  38.647  32.961  14.358
19572W        W84832  44.935   7.759   1.684
19573W        W84833  16.460  38.598   0.812
19574W        W84834   8.735  19.511   1.318
19575W        W84835  12.894  16.869   2.316
19576W        W84836   7.874  43.269  12.936
19577W        W84837  10.333  15.177   3.730
19578W        W84838   4.845  28.113  10.518
19579W        W84839  14.572  18.760  14.938
19580W        W84840  16.249  25.577  11.171
19581W        W84841  42.744  43.179   0.299
19582W        W84842  36.030  41.583  12.851
19583W        W84843  38.607  30.617   4.649
19584W        W84844   6.965   8.020  11.209
19585W        W84845  12.960  44.746   4.425
19586W        W84846  20.894  33.108   3.304
19587W        W84847  23.682  35.997  11.925
19588W        W84848  10.810  19.591   1.070
19589W        W84849  44.386  42.031   3.903
19590W        W84850  35.320  34.477   3.667
19591W        W84851  11.743  28.571   0.164
19592W        W84852   6.302  21.666   4.635
19593W        W84853  27.981  25.890  13.415
19594W        W84854  18.789  44.648  13.053
19595W        W84855  16.238   9.224   1.470
19596W        W84856  23.316  29.886  11.134
19597W        W84857  43.540  20.532  13.339
19598W        W84858  40.723  37.459  13.845
19599W        W84859  40.282  41.078  14.359
19600W        W84860  37.059  13.831   3.592
19601W        W84861  10.197  22.275   2.301
19602W        W84862  25.166  44.353   4.689
19603W        W84863  23.188  25.109  13.514
19604W        W84864   3.732  22.280  10.840
19605W        W84865  10.592  38.721   1.651
19606W        W84866  20.518  20.252   2.136
19607W        W84867  24.790  14.570   0.395
19608W        W84868  30.180  13.737   0.261
19609W        W84869  35.737  17.590   2.998
19610W        W84870   9.303  44.450  12.906
19611W        W84871   7.646   0.548  12.430
19612W        W84872  16.615   5.164   4.680
19613W        W84873  20.518  23.039  14.100
19614W        W84874  23.687   6.989  11.246
19615W        W84875  26.826   5.324  13.373
19616W        W84876  27.984  21.225   2.419
19617W        W84877  41.769  24.639   2.811
19618W        W84878   8.828  44.339   2.078
19619W        W84879  41.394  30.812   2.795
19620W        W84880  26.808  21.000   3.683
19621W        W84881  10.694  21.061   2.637
19622W        W84882  11.388  13.656  14.033
19623W        W84883   2.451   9.461  14.481
19624W        W84884  18.705  26.491  11.391
19625W        W84885  34.429   3.587   1.308
19626W        W84886  43.528   6.764  10.697
19627W        W84887  16.076  17.662   2.237
19628W        W84888   5.276  44.498   2.363
19629W        W84889  31.637   2.430  14.763
19630W        W84890  31.642   2.835  13.028
19631W        W84891  30.724  41.440  13.964
19632W        W84892  22.519  39.006   2.134
19633W        W84893  18.217   0.750  10.878
19634W        W84894   4.725  44.564  10.144
19635W        W84895   7.845  33.682   1.031
19636W        W84896  23.457  23.181  12.009
19637W        W84897  13.327  31.476  10.954
19638W        W84898  34.996  31.593  10.979
19639W        W84899  32.832  39.548  12.041
19640W        W84900   2.810  26.606  13.321
19641W        W84901  36.058   2.901   3.394
19642W        W84902  38.349   2.548  12.477
19643W        W84903  24.656  44.237   1.785
19644W        W84904  31.876  20.774   1.298
19645W        W84905   8.140  42.947  13.547
19646W        W84906  15.567  34.948  14.842
19647W        W84907   6.212   9.433  13.049
19648W        W84908  42.994  23.989  11.184
19649W        W84909  40.239  12.554  10.783
19650W        W84910   1.331  40.364  12.540
19651W        W84911   2.654  39.913  11.396
19652W        W84912   2.083   0.733   3.975
19653W        W84913  13.888  18.132  12.417
19654W        W84914  43.499  36.080   3.691
19655W        W84915   3.477  25.569   0.483
19656W        W84916  28.656  25.227   3.125
19657W        W84917   3.823  34.382   4.578
19658W        W84918   4.494  17.104  12.486
19659W        W84919  32.476  18.977   0.398
19660W        W84920   1.221  13.382  11.471
19661W        W84921  33.511  17.721   2.318
19662W        W84922  29.725  28.199  14.873
19663W        W84923   9.993  37.407   1.726
19664W        W84924  34.954  24.712   4.473
19665W        W84925  34.419  28.881   2.885
19666W        W84926  39.454   4.452   2.156
19667W        W84927  44.897  21.306   0.470
19668W        W84928  25.177  10.658  12.728
19669W        W84929  18.244  28.246   4.216
19670W        W84930  15.294   2.211  10.437
19671W        W84931   6.383  22.569  14.199
19672W        W84932   8.706   4.785  14.599
19673W        W84933  32.906  31.163  11.480
19674W        W84934  34.134  30.991  13.490
19675W        W84935  10.976  34.068   2.805
19676W        W84936  39.368  31.480  13.847
19677W        W84937  20.493  38.967   0.346
19678W        W84938  44.187   5.439   0.978
19679W        W84939  23.732  41.062   4.377
19680W        W84940  29.489   1.310   1.827
19681W        W84941   9.559  11.936   0.888
19682W        W84942  28.416  19.964   0.652
19683W        W84943  38.455  29.930   4.228
19684W        W84944  30.533  31.633   4.337
19685W        W84945  11.818   7.706  10.154
19686W        W84946   1.957   3.843  13.848
19687W        W84947  40.488  20.320  11.088
19688W        W84948  23.019   9.836   4.063
19689W        W84949   2.455   8.487   2.971
19690W        W84950  44.578  22.187  12.625
19691W        W84951  23.690  36.850   1.491
19692W        W84952  40.861  24.988  12.457
19693W        W84953  28.054  17.326   3.832
19694W        W84954  19.200  31.488  12.564
19695W        W84955   6.702  34.707  10.719
19696W        W84956  30.384  13.216  13.608
19697W        W84957   8.250  41.271   3.171
19698W        W84958  43.468  44.006  13.789
19699W        W84959  44.532  16.790   1.018
19700W        W84960  44.182  17.169  13.802
19701W        W84961  37.609  14.042  13.626
19702W        W84962   9.398  43.718  11.561
19703W        W84963   3.720  19.982  11.512
19704W        W84964  12.873   4.378  11.608
19705W        W84965  12.683  22.812   1.002
19706W        W84966   0.079  16.761  13.737
19707W        W84967  20.212  33.575  12.690
19708W        W84968  26.034  38.727  11.203
19709W        W84969  14.091  38.340  14.646
19710W        W84970  25.977  30.427  14.880
19711W        W84971  31.184   9.795  14.919
19712W        W84972  41.994  39.509   2.447
19713W        W84973  20.645  36.197   2.711
19714W        W84974  17.107  30.021  12.251
19715W        W84975  23.959  21.181   2.399
19716W        W84976  21.751   9.231   3.235
19717W        W84977  31.388  20.118  13.305
19718W        W84978  29.067  24.630  12.149
19719W        W84979  25.269  12.603   1.376
19720W        W84980  43.472  36.898  12.511
19721W        W84981  26.623   6.258   4.241
19722W        W84982   8.997  30.407   3.253
19723W        W84983  37.159  36.374   0.329
19724W        W84984  40.440  11.975  12.503
19725W        W84985  31.543  43.278   4.260
19726W        W84986   3.382  37.779   3.895
19727W        W84987  28.866  15.289   0.927
19728W        W84988  15.716   9.395  11.571
19729W        W84989  36.981  21.052   2.802
19730W        W84990   9.777  34.697   0.529
19731W        W84991  28.716  31.342   2.791
19732W        W84992  37.151   9.717   4.131
19733W        W84993  31.593   3.246  14.438
19734W        W84994  20.034  42.122  10.986
19735W        W84995  29.925  26.008   9.793
19736W        W84996  15.164  25.484   3.327
19737W        W84997  31.721  28.320   4.166
19738W        W84998  30.922  38.781   0.898
19739W        W84999   4.392  16.603   3.339
19740W        W85000  31.733  40.104   0.720
19741W        W85001  22.107  14.102   1.211
19742W        W85002  23.086  35.980  14.268
19743W        W85003  20.142  20.731   2.874
19744W        W85004  23.970   0.895  12.530
19745W        W85005  30.934  12.940   3.237
19746W        W85006   2.487  17.200  11.594
19747W        W85007  15.602  44.943   0.821
19748W        W85008   8.937  21.568  12.348
19749W        W85009  27.626  21.265  10.380
19750W        W85010  41.589  36.861  13.278
19751W        W85011  29.773  17.265   0.271
19752W        W85012  15.802  28.791   0.387
19753W        W85013  15.315  13.799   4.383
19754W        W85014   0.559   0.415   3.698
19755W        W85015  11.703  18.825   0.849
19756W        W85016  38.346  44.202  13.509
19757W        W85017  43.815  13.622   1.210
19758W        W85018  33.391  42.798  13.438
19759W        W85019  10.238   9.110   0.466
19760W        W85020  39.089   7.307  11.259
19761W        W85021  25.777  32.650   1.934
19762W        W85022  42.349  41.007   0.916
19763W        W85023  25.258  15.789   0.089
19764W        W85024  21.271  44.436  10.477
19765W        W85025   8.674  10.342  14.356
19766W        W85026  42.459   6.407   2.586
19767W        W85027  17.391  10.047   1.704
19768W        W85028  35.339  30.161   4.609
19769W        W85029  11.191   7.414  13.484
19770W        W85030  28.682  14.779  12.532
19771W        W85031   2.237  35.676   5.028
19772W        W85032  40.807  37.828  10.765
19773W        W85033  43.722  16.586  12.432
19774W        W85034   6.699   5.022   2.630
19775W        W85035  20.478  35.447   9.750
19776W        W85036  16.121  32.346   4.145
19777W        W85037  26.050  35.937  10.967
19778W        W85038  10.772   4.317   0.677
19779W        W85039  24.708   0.707   3.457
19780W        W85040  28.293   9.957   3.821
19781W        W85041   7.821   4.937   2.877
19782W        W85042  44.270  38.950   1.213
19783W        W85043  39.302   2.693  11.567
19784W        W85044   3.129  11.291  14.887
19785W        W85045  14.493   3.208  11.101
19786W        W85046  31.439   7.595  14.843
19787W        W85047  39.766  25.170   1.312
19788W        W85048   8.485  10.897  13.086
19789W        W85049  21.649  38.440   0.031
19790W        W85050  13.616  35.922  11.961
19791W        W85051  12.913  28.446  10.629
19792W        W85052   1.704   1.225   0.077
19793W        W85053  35.153  14.877   2.363
19794W        W85054  33.860  28.113   4.114
19795W        W85055   5.175  32.482   0.753
19796W        W85056  34.021   9.936   1.229
19797W        W85057  15.693  30.115  11.192
19798W        W85058   3.889   9.287   3.760
19799W        W85059  34.016  26.386  13.140
19800W        W85060   9.438   0.377  13.095
19801W        W85061  11.740  30.176  12.960
19802W        W85062  23.130   7.373   0.268
19803W        W85063  21.547  32.693   1.262
19804W        W85064   4.723  36.857   3.347
19805W        W85065   8.768  39.631   0.852
19806W        W85066   5.585  38.370   2.150
19807W        W85067   1.826  31.483   3.926
19808W        W85068   8.338   7.645  12.140
19809W        W85069   9.469   4.680  12.282
19810W        W85070  21.176  14.444  14.335
19811W        W85071  39.545   0.378   3.608
19812W        W85072  40.386   2.009   3.748
19813W        W85073  20.624  12.512  11.125
19814W        W85074  26.956  31.965   4.864
19815W        W85075   9.276  25.455  10.717
19816W        W85076  34.062   6.838  11.059
19817W        W85077  25.477   4.326   2.826
19818W        W85078  35.502   6.527  13.450
19819W        W85079  24.568  10.056   3.738
19820W        W85080  27.459  36.128  11.089
19821W        W85081  13.296  40.063  13.431
19822W        W85082  21.950  16.593   0.029
19823W        W85083  34.059  12.814   2.895
19824W        W85084  28.986  26.642   5.013
19825W        W85085  11.303  33.207   2.915
19826W        W85086  32.237  36.291  10.479
19827W        W85087  41.737  19.692   4.038
19828W        W85088   7.633  14.577   0.454
19829W        W85089  44.299  36.924   4.122
19830W        W85090  18.695  24.535  10.776
19831W        W85091   8.240  17.777  13.457
19832W        W85092  43.765   0.549   2.142
19833W        W85093  11.535  33.081  12.617
19834W        W85094  32.690  19.025  13.914
19835W        W85095  26.903  34.055  12.409
19836W        W85096  23.416  40.602   4.344
19837W        W85097  33.439  40.241  13.482
19838W        W85098  16.102  11.742   0.384
19839W        W85099  23.956   9.418  12.103
19840W        W85100  29.996  28.959   3.214
19841W        W85101  42.926   3.424  11.319
19842W        W85102  38.250  14.686  12.502
19843W        W85103  38.353   0.806  13.533
19844W        W85104  43.995  40.639  14.433
19845W        W85105   6.360  26.694  11.910
19846W        W85106  23.207  38.058  13.434
19847W        W85107  29.303   9.628   3.857
19848W        W85108   2.616  10.836   0.756
19849W        W85109   1.220  13.090   0.329
19850W        W85110   1.920  37.896   3.245
19851W        W85111  42.399  41.864   2.267
19852W        W85112  12.201  25.178   3.816
19853W        W85113  10.188  37.171  14.423
19854W        W85114   7.578  35.067   3.200
19855W        W85115  13.161  10.122  14.435
19856W        W85116   0.860  20.196   2.832
19857W        W85117  25.741   8.440   3.195
19858W        W85118  25.967   5.108  12.121
19859W        W85119  40.384  17.059   0.607
19860W        W85120   5.988   7.853   3.662
19861W        W85121  23.624  24.707   2.411
19862W        W85122  33.371  28.626  12.273
19863W        W85123  20.870  18.143   4.516
19864W        W85124  39.956  39.964   1.507
19865W        W85125  19.042  12.052  12.532
19866W        W85126  29.500  29.545   0.066
19867W        W85127  12.423  14.638  14.864
19868W        W85128  32.705  20.295   0.141
19869W        W85129  29.006  33.165   4.127
19870W        W85130   6.761  29.529  10.586
19871W        W85131  33.196  13.543  10.988
19872W        W85132   3.203  12.898   3.611
19873W        W85133  23.442  13.077   3.122
19874W        W85134   4.339  24.590   3.701
19875W        W85135  25.376  10.237  14.206
19876W        W85136   6.840  27.478  10.966
19877W        W85137  29.048  18.962   3.041
19878W        W85138  32.870   9.080   3.225
19879W        W85139  18.751  35.925   4.495
19880W        W85140  16.775  16.061   3.194
19881W        W85141  15.003  27.669  13.407
19882W        W85142  35.109   6.462   3.796
19883W        W85143  32.239   4.258   3.118
19884W        W85144   8.293  29.178  14.231
19885W        W85145  26.811   1.050   3.284
19886W        W85146  29.191  36.021  10.884
19887W        W85147  13.649  27.529   0.637
19888W        W85148  24.585  40.608   2.742
19889W        W85149  36.644  11.681   5.074
19890W        W85150  43.720   5.444   3.919
19891W        W85151  31.970   4.302  12.859
19892W        W85152  29.646  13.911  11.086
19893W        W85153  12.166  18.146  12.840
19894W        W85154  41.775  21.182   0.953
19895W        W85155  25.475  23.222   2.338
19896W        W85156  27.946  22.542  10.657
19897W        W85157  38.999  36.905  11.491
19898W        W85158   7.625   8.121   1.766
19899W        W85159  26.034   4.829   2.597
19900W        W85160  12.098  13.296   3.776
19901W        W85161  24.576  29.450  10.753
19902W        W85162  22.213   5.959  14.335
19903W        W85163  17.332  35.337   1.540
19904W        W85164  16.785  43.000   0.603
19905W        W85165  18.900  12.135   5.002
19906W        W85166  13.829  14.627  10.678
19907W        W85167  37.586  44.093   2.785
19908W        W85168   5.910   8.150   3.236
19909W        W85169  42.840  23.193   1.879
19910W        W85170  41.530   3.315  14.460
19911W        W85171  15.837  26.343  11.630
19912W        W85172  17.016  41.496  11.673
19913W        W85173  40.920  30.059  13.828
19914W        W85174  12.674  41.417   4.769
19915W        W85175  10.257  44.300  13.987
19916W        W85176  12.246   2.889   1.290
19917W        W85177  37.445   6.905   4.677
19918W        W85178  40.604   0.309   4.215
19919W        W85179  16.542  27.281   2.654
19920W        W85180   7.775  34.043  14.081
19921W        W85181  18.324  34.439   2.183
19922W        W85182  26.195  42.420   1.728
19923W        W85183  36.119   1.398  13.331
19924W        W85184   0.237  11.931   1.753
19925W        W85185  37.938  19.723  10.851
19926W        W85186  24.223   6.865  14.611
19927W        W85187  10.908  25.542   4.041
19928W        W85188   7.596  17.588   2.532
19929W        W85189  33.333   0.055   1.190
19930W        W85190  36.046  19.824  12.492
19931W        W85191  43.000  33.622  11.513
19932W        W85192  27.227  29.381  10.647
19933W        W85193  11.208   0.767   2.716
19934W        W85194  12.780  23.928  14.834
19935W        W85195   9.273  28.704  10.309
19936W        W85196  41.440   1.019   1.584
19937W        W85197  28.139   2.611  11.227
19938W        W85198   0.703  29.977   1.389
19939W        W85199  17.736  10.505  12.444
19940W        W85200  33.016  29.889   5.395
19941W        W85201  43.894   2.325   2.581
19942W        W85202   8.446  17.241  10.695
19943W        W85203  11.801  18.063  13.381
19944W        W85204  31.979  32.413   1.216
19945W        W85205  44.169  23.274  12.946
19946W        W85206  29.905  13.652   0.722
19947W        W85207  20.467   4.790   2.302
19948W        W85208  32.410  27.940  10.302
19949W        W85209  27.263  14.211  11.850
19950W        W85210  37.573  30.035  10.766
19951W        W85211  25.806   9.113  10.422
19952W        W85212  30.649  26.850  10.277
19953W        W85213  32.912   3.611  11.607
19954W        W85214  12.389  29.482   4.787
19955W        W85215  15.063  18.377  11.623
19956W        W85216  28.930  35.287  14.026
19957W        W85217  26.429  38.575  13.260
19958W        W85218  27.237  29.176  14.806
19959W        W85219  43.732  43.194   1.357
19960W        W85220  28.854  15.317   1.907
19961W        W85221  14.861   9.975  14.038
19962W        W85222  37.069   1.486   1.685
19963W        W85223  41.319  26.373  12.681
19964W        W85224  24.509   2.807  13.724
19965W        W85225  10.672  21.022   5.235
19966W        W85226  31.571  29.180  13.965
19967W        W85227  44.924  24.769  12.520
19968W        W85228  40.309  33.029  11.501
19969W        W85229  34.957  33.066  12.570
19970W        W85230   5.310  41.758   4.615
19971W        W85231  20.314   3.750   1.250
19972W        W85232  29.539  22.453  13.770
19973W        W85233   6.231  37.874  10.963
19974W        W85234  13.243   4.660  10.729
19975W        W85235  23.557  10.092  10.035
19976W        W85236   4.137   7.261   1.781
19977W        W85237  20.160  25.761  11.516
19978W        W85238  43.352   1.195  12.761
19979W        W85239  30.422  17.747   2.375
19980W        W85240  11.629  36.203  11.598
19981W        W85241   5.420   5.235  11.077
19982W        W85242  39.446  31.474   2.118
19983W        W85243  11.729  39.826  12.369
19984W        W85244  14.261  34.379   3.081
19985W        W85245  42.922  23.601  10.793
19986W        W85246  37.638  33.088   0.435
19987W        W85247  30.085   5.247  12.533
19988W        W85248   1.532  28.501  11.106
19989W        W85249  27.227   5.364  14.958
19990W        W85250  38.544  38.058   2.808
19991W        W85251  44.425  29.237   4.404
19992W        W85252   7.912  32.924  12.589
19993W        W85253  19.397   8.103   3.127
19994W        W85254   8.780  25.316   0.493
19995W        W85255  41.422  28.915  14.217
19996W        W85256  22.552  15.359  13.654
19997W        W85257  34.015   2.882  14.750
19998W        W85258  23.499  37.568   2.827
19999W        W85259   2.430  10.579   3.582
20000W        W85260  16.534  36.965  11.622
20001W        W85261  36.093  27.253  10.268
20002W        W85262  44.488  13.001   5.092
20003W        W85263  32.740   4.804   3.666
20004W        W85264  18.090  16.579   2.444
20005W        W85265   9.030   8.236   2.429
20006W        W85266  23.724  42.880  13.318
20007W        W85267   9.270  41.862   3.087
20008W        W85268   5.117  23.757   2.297
20009W        W85269   0.686  30.968   4.552
20010W        W85270  28.219  22.274   1.344
20011W        W85271  40.096  17.504   2.745
20012W        W85272  44.163  15.173   0.850
20013W        W85273   3.208   1.963  11.596
20014W        W85274  21.217   2.771   2.766
20015W        W85275   3.218   8.491   4.665
20016W        W85276   1.762  18.536   0.193
20017W        W85277  22.723   7.308   1.282
20018W        W85278   3.325  33.305   5.281
20019W        W85279  28.737   7.684   2.706
20020W        W85280  13.639   9.062  11.290
20021W        W85281  38.451   4.338  14.814
20022W        W85282  15.402  29.722   0.636
20023W        W85283   3.249  37.793  12.059
20024W        W85284  25.744  25.310  10.558
20025W        W85285   7.175  41.498   1.980
20026W        W85286  21.597  23.194   4.911
20027W        W85287   6.907   9.080  12.028
20028W        W85288  29.986  26.724  11.716
20029W        W85289   8.434  12.080  13.346
20030W        W85290  27.422  26.018  12.670
20031W        W85291  21.560  30.512  14.011
20032W        W85292   0.157   3.934   4.596
20033W        W85293   8.145  27.315  12.311
20034W        W85294   3.711  35.241  12.148
20035W        W85295   9.811  31.354  12.934
20036W        W85296  23.005   6.240  13.677
20037W        W85297  38.365   6.865  12.885
20038W        W85298  36.777  26.086  11.573
20039W        W85299  25.168  14.989   4.131
20040W        W85300  32.977  27.141   4.379
20041W        W85301  15.215  12.436  13.086
20042W        W85302  14.027  32.837  14.153
20043W        W85303  43.294  23.053   0.168
20044W        W85304  16.509  15.099  11.664
20045W        W85305   8.751   4.423  13.400
20046W        W85306  38.190  38.316  14.774
20047W        W85307  18.859   8.954  11.139
20048W        W85308  31.761  27.035  11.485
20049W        W85309  22.619  34.885   1.106
20050W        W85310   8.150  40.037  13.324
20051W        W85311  27.151  15.481   2.683
20052W        W85312  44.727  16.314   3.109
20053W        W85313  10.731  35.505  11.048
20054W        W85314   1.493  22.004  13.310
20055W        W85315  36.961  10.382   2.834
20056W        W85316  28.683  22.471   0.433
20057W        W85317  22.214  23.390  11.542
20058W        W85318  12.213   5.706  10.224
20059W        W85319   6.348  26.681   0.348
20060W        W85320  22.223   2.363  10.798
20061W        W85321  30.486   7.463   4.806
20062W        W85322  27.926  27.583   0.735
20063W        W85323  13.632  38.515  14.480
20064W        W85324  27.970  43.890   4.869
20065W        W85325   7.242  10.660   4.344
20066W        W85326  11.358  43.839   2.247
20067W        W85327  28.048  39.890   0.280
20068W        W85328   8.857  41.718  13.891
20069W        W85329  30.298  38.841  13.445
20070W        W85330  25.630  35.940   1.849
20071W        W85331  15.546  21.638   1.046
20072W        W85332  17.228  14.341   1.236
20073W        W85333  31.953  36.946   4.851
20074W        W85334  31.662  10.674   2.106
20075W        W85335  10.226  21.108   2.418
20076W        W85336   9.339  15.499   3.629
20077W        W85337  43.600   7.733   2.161
20078W        W85338  41.913  32.830   3.712
20079W        W85339  16.079   6.838   4.279
20080W        W85340   2.793  35.342  13.724
20081W        W85341  38.973   3.914   4.299
20082W        W85342  26.107  26.002   4.734
20083W        W85343  22.526  19.786   4.522
20084W        W85344  21.027   1.953   3.424
20085W        W85345  34.850   0.559   3.614
20086W        W85346   1.888   6.917   0.014
20087W        W85347  20.185  18.673   3.223
20088W        W85348  27.593  38.565   3.725
20089W        W85349   7.289  21.944  12.505
20090W        W85350   6.657  33.315   4.127
20091W        W85351  18.627   7.814  13.362
20092W        W85352   1.750  44.345  10.719
20093W        W85353  11.364  37.732   3.205
20094W        W85354   7.725   0.822  11.451
20095W        W85355  14.045  24.520   1.770
20096W        W85356  12.624  19.474  11.122
20097W        W85357   2.294  41.960   3.619
20098W        W85358   8.840  10.126   1.855
20099W        W85359  13.736  21.681  11.913
20100W        W85360  40.265  20.346   1.273
20101W        W85361  22.217   6.102  10.807
20102W        W85362  27.561  43.316  10.944
20103W        W85363  13.065  16.799  14.986
20104W        W85364  12.125  13.563   3.301
20105W        W85365  31.510  10.518  10.759
20106W        W85366   2.153  27.582   1.770
20107W        W85367  14.122  11.137   1.149
20108W        W85368  22.675  10.922  12.809
20109W        W85369  12.331   9.095  14.569
20110W        W85370  10.861  27.195   0.898
20111W        W85371   5.436   4.554   3.595
20112W        W85372  26.365  27.311   3.756
20113W        W85373  31.089  22.693  11.963
20114W        W85374  17.687   6.956   1.927
20115W        W85375  17.198  12.336  11.437
20116W        W85376  19.968  33.620   0.007
20117W        W85377  44.850  14.545   0.964
20118W        W85378  27.261  28.779   3.171
20119W        W85379  10.412  16.856   2.982
20120W        W85380   3.954  38.851  10.023
20121W        W85381  39.047  12.131   2.819
20122W        W85382  26.644  42.840  11.177
20123W        W85383  44.626  39.351  10.381
20124W        W85384  16.666  44.850  11.138
20125W        W85385  44.359  29.754   1.422
20126W        W85386  18.529  10.970  13.370
20127W        W85387  27.126  12.232   0.563
20128W        W85388  13.728  16.263  13.308
20129W        W85389  33.529  31.746   2.314
20130W        W85390  13.810  13.080  12.080
20131W        W85391   9.669   1.423  13.458
20132W        W85392  10.542  13.474   5.152
20133W        W85393   2.306  34.834  14.789
20134W        W85394  12.358  18.613  12.982
20135W        W85395  27.891  43.108   4.378
20136W        W85396  35.592   9.653   3.115
20137W        W85397  22.083   3.675  10.384
20138W        W85398  19.980  15.512   4.166
20139W        W85399  15.273   7.681   0.793
20140W        W85400   5.156  33.466   1.703
20141W        W85401  27.583   5.438  14.584
20142W        W85402  40.278  26.382  11.937
20143W        W85403  12.683  27.597  13.535
20144W        W85404  10.867  14.609  14.732
20145W        W85405  10.634  43.943  13.461
20146W        W85406  33.554  15.145   2.786
20147W        W85407  40.497  19.748   3.575
20148W        W85408  16.670  31.352   2.360
20149W        W85409  30.601  25.031   0.293
20150W        W85410  32.450  34.814  11.685
20151W        W85411  21.725  38.090   2.542
20152W        W85412   5.159  37.873   0.414
20153W        W85413  29.119  24.619   3.976
20154W        W85414  15.540  10.885   1.962
20155W        W85415  35.530  26.291   5.352
20156W        W85416   1.541   1.932  14.983
20157W        W85417  29.967   2.185   3.661
20158W        W85418  18.564  25.705  13.154
20159W        W85419  16.728  37.438   2.870
20160W        W85420   8.296  19.715   4.067
20161W        W85421  15.650  22.936  14.763
20162W        W85422  28.458   6.608  12.501
20163W        W85423  43.321  33.806  13.420
20164W        W85424  24.166  40.611  14.528
20165W        W85425  34.540  26.478   2.742
20166W        W85426  19.512  30.223  11.602
20167W        W85427  33.645   7.902  13.370
20168W        W85428  17.813   1.484  12.710
20169W        W85429  37.579  19.828   2.208
20170W        W85430  30.069   7.919  12.023
20171W        W85431   8.518   8.809  12.505
20172W        W85432  23.993  39.052   3.240
20173W        W85433  13.380   5.412   3.599
20174W        W85434  18.084  25.220   2.376
20175W        W85435  10.959  37.748  11.112
20176W        W85436  16.356   7.351  14.292
20177W        W85437  29.676  27.417  12.258
20178W        W85438  21.076  37.590  13.963
20179W        W85439  14.877   0.893  13.986
20180W        W85440  26.714  10.669   3.124
20181W        W85441  39.883  10.190   1.292
20182W        W85442  22.721  32.020  12.503
20183W        W85443  42.352   7.089   1.757
20184W        W85444  18.604  18.537  14.053
20185W        W85445  28.580  16.654  14.817
20186W        W85446   0.216  43.554   1.334
20187W        W85447  16.204  18.543  12.376
20188W        W85448   9.678  35.435  12.558
20189W        W85449  24.240  28.395   1.237
20190W        W85450   4.272   8.311  12.560
20191W        W85451  17.488  42.915   2.199
20192W        W85452  36.880  31.539   3.404
20193W        W85453  41.759  20.174   3.868
20194W        W85454  26.224  30.759  11.750
20195W        W85455  10.736  38.044   2.168
20196W        W85456  34.377  34.310   4.301
20197W        W85457  17.970  12.712   4.506
20198W        W85458  44.893  35.112   0.295
20199W        W85459  40.087   7.335  13.043
20200W        W85460   3.391  19.165   1.353
20201W        W85461  10.195  34.578  12.081
20202W        W85462  12.051  29.585  11.803
20203W        W85463  20.693  12.920   4.678
20204W        W85464  14.995  25.047  14.037
20205W        W85465  25.837  37.378   4.742
20206W        W85466  31.326  30.577   1.541
20207W        W85467   4.676   2.971  11.027
20208W        W85468  31.950  22.226  10.257
20209W        W85469  29.416   0.095  14.418
20210W        W85470  31.524  31.185   2.343
20211W        W85471  37.779  27.493   4.580
20212W        W85472   5.512  17.250  12.691
20213W        W85473  18.399  44.650   0.848
20214W        W85474  31.132   0.189  13.623
20215W        W85475  15.129  18.856  11.455
20216W        W85476   7.365  41.970  11.446
20217W        W85477  38.774  28.370   2.351
20218W        W85478   0.541  12.254   0.543
20219W        W85479  27.723   5.451  11.544
20220W        W85480  40.730   2.311   1.392
20221W        W85481  16.130  42.890   1.860
20222W        W85482  30.022  15.297  12.813
20223W        W85483  17.747  34.337   2.214
20224W        W85484  24.091  33.132  13.477
20225W        W85485  17.162  44.961  10.283
20226W        W85486   1.000  36.029   4.956
20227W        W85487  12.636   3.256   1.345
20228W        W85488  11.830  36.464   1.183
20229W        W85489  12.291  43.019  12.532
20230W        W85490   5.007   4.744  14.832
20231W        W85491  19.498  38.320  12.655
20232W        W85492  38.836  11.846   4.954
20233W        W85493  29.252  32.059   1.289
20234W        W85494  23.667  23.031  12.927
20235W        W85495   3.795  23.560  11.988
20236W        W85496  26.437  34.828  13.559
20237W        W85497  23.283  19.865   1.134
20238W        W85498  21.511  10.524   4.677
20239W        W85499  39.376   0.910  14.917
20240W        W85500  11.484  27.556  10.167
20241W        W85501  19.412   7.494   1.337
20242W        W85502   8.239  39.338   1.812
20243W        W85503  32.913  16.183  10.862
20244W        W85504   7.782  40.384   4.673
20245W        W85505  31.528  39.529   3.703
20246W        W85506  35.828  41.479   1.635
20247W        W85507  31.956  24.209  13.553
20248W        W85508  33.362  35.321  14.276
20249W        W85509  20.511  29.818  10.690
20250W        W85510  15.803  17.104   0.583
20251W        W85511   1.536  10.964  11.056
20252W        W85512  14.754  24.674  12.396
20253W        W85513  29.059  40.457   0.551
20254W        W85514   2.483  18.876   2.918
20255W        W85515  23.660  18.826   0.726
20256W        W85516  16.164  31.300   3.115
20257W        W85517  42.536  17.053  13.311
20258W        W85518   8.232  18.523  14.772
20259W        W85519   1.259  20.568   3.880
20260W        W85520  38.809  27.879  13.297
20261W        W85521  14.125  16.799  11.146
20262W        W85522  22.751  27.046   2.367
20263W        W85523  19.658  11.831   5.127
20264W        W85524   4.937  43.978  10.936
20265W        W85525   4.018  40.211   0.821
20266W        W85526  34.607   4.881  12.411
20267W        W85527  40.868  18.709   2.145
20268W        W85528  30.579  20.674   2.930
20269W        W85529  32.368  40.343   2.281
20270W        W85530  16.696  18.613  12.754
20271W        W85531  15.170  14.004   0.876
20272W        W85532  39.085   4.164   3.339
20273W        W85533  14.773   2.297  13.050
20274W        W85534  23.694  27.116   4.560
20275W        W85535  27.130  26.167   1.308
20276W        W85536   2.511   4.660  14.790
20277W        W85537  16.016  30.706  11.022
20278W        W85538   4.847  12.307  12.352
20279W        W85539  36.730  39.379   2.657
20280W        W85540   8.742  12.823   0.481
20281W        W85541  29.986  18.107   4.071
20282W        W85542  16.802   1.257  14.250
20283W        W85543  30.756   8.812   3.632
20284W        W85544   1.865  43.978   2.318
20285W        W85545  32.453  43.477  14.782
20286W        W85546  14.264  37.538   9.948
20287W        W85547  29.171  41.707  12.991
20288W        W85548  40.330  16.671  14.225
20289W        W85549  35.581  28.393   2.395
20290W        W85550  30.774  13.551   1.544
20291W        W85551  40.398  11.576  10.701
20292W        W85552   5.207  28.506   0.865
20293W        W85553  17.194  15.301   0.860
20294W        W85554  26.147  14.288   3.213
20295W        W85555  26.040  18.392   0.181
20296W        W85556  29.278  31.236   3.555
20297W        W85557  19.849   9.835   5.077
20298W        W85558  44.466   8.855  14.234
20299W        W85559   2.995   6.302   0.579
20300W        W85560  26.861   0.342   4.466
20301W        W85561   1.017   6.083   5.050
20302W        W85562   7.136  29.680  10.258
20303W        W85563  19.531  43.757  12.237
20304W        W85564  44.404  26.700   3.308
20305W        W85565  42.877   4.395   3.380
20306W        W85566   9.688  17.094   0.923
20307W        W85567  43.433  31.365   4.834
20308W        W85568   1.442   5.224   2.216
20309W        W85569  12.221  24.432   4.195
20310W        W85570   4.916  39.267   0.412
20311W        W85571   7.686  10.639   4.054
20312W        W85572  41.517  16.743   0.342
20313W        W85573  38.337  13.931   4.435
20314W        W85574  16.610   3.163   1.787
20315W        W85575  41.414  35.979  11.107
20316W        W85576   5.279   2.911   2.134
20317W        W85577  20.078  29.706  13.034
20318W        W85578   2.527   8.074  11.956
20319W        W85579   6.128  18.760  12.614
20320W        W85580   2.671   1.876  11.590
20321W        W85581  13.373  26.592  12.897
20322W        W85582   0.272  10.771   1.768
20323W        W85583  20.724   0.442   1.439
20324W        W85584  36.843   0.737  13.535
20325W        W85585  23.054   5.384   1.168
20326W        W85586  28.479  41.254   4.269
20327W        W85587  37.059  28.316   1.746
20328W        W85588   3.749   0.286  14.343
20329W        W85589  21.982  38.333   2.152
20330W        W85590  42.813   0.447  11.915
20331W        W85591  15.971  13.314   0.970
20332W        W85592  18.237  20.540  10.315
20333W        W85593   1.669   2.257   2.791
20334W        W85594  17.117  13.058   3.610
20335W        W85595  19.243  21.154  11.857
20336W        W85596   2.996  12.427   1.799
20337W        W85597  30.245  33.916   3.237
20338W        W85598   3.422  14.852   0.431
20339W        W85599  41.970  36.391  14.274
20340W        W85600  44.924  19.218   0.375
20341W        W85601  19.663  27.638   0.811
20342W        W85602  23.056  31.840   5.029
20343W        W85603  15.719   7.192   3.157
20344W        W85604   8.955  35.801  10.510
20345W        W85605  12.537  32.905   1.770
20346W        W85606  17.461   2.955   0.952
20347W        W85607  36.591  25.079   1.695
20348W        W85608  27.925  23.604  11.881
20349W        W85609  35.338  18.253   0.876
20350W        W85610  17.605  11.714   0.007
20351W        W85611   3.375  32.909   2.567
20352W        W85612  40.772  34.968  12.894
20353W        W85613  15.542  38.848  13.977
20354W        W85614  35.806   4.574  14.448
20355W        W85615   5.375  13.341   4.078
20356W        W85616  41.457  32.109  13.554
20357W        W85617  17.450  43.741   0.441
20358W        W85618  13.668  34.525   1.844
20359W        W85619  24.907  38.041   2.825
20360W        W85620  10.897   4.476  13.202
20361W        W85621  38.693  34.420  13.491
20362W        W85622   3.737  10.351   4.764
20363W        W85623  40.135  38.786   5.127
20364W        W85624  37.558  15.643  10.763
20365W        W85625  14.551  40.727   3.028
20366W        W85626   0.590   0.067   1.428
20367W        W85627  26.189  40.550  11.202
20368W        W85628  30.557  35.270  12.580
20369W        W85629  37.825   6.249   3.551
20370W        W85630  10.768  20.009   1.914
20371W        W85631  14.726  42.992   0.826
20372W        W85632  44.338  35.026   5.502
20373W        W85633  13.610  38.522   4.323
20374W        W85634  15.209  30.027   1.953
20375W        W85635   5.092  17.638  13.799
20376W        W85636  32.698   6.498   3.742
20377W        W85637  39.265  38.463   3.695
20378W        W85638  12.674   5.245  12.521
20379W        W85639  19.110  26.066  14.532
20380W        W85640  42.545   4.321   1.792
20381W        W85641  14.192  28.630   2.145
20382W        W85642   4.413  21.735   3.919
20383W        W85643   9.426  27.919  13.071
20384W        W85644  22.145   9.824  11.460
20385W        W85645  10.604  44.503  12.110
20386W        W85646  43.069  12.562   2.739
20387W        W85647   6.921  31.517   4.141
20388W        W85648  32.397  24.260  11.608
20389W        W85649  32.338   0.873  11.089
20390W        W85650  28.531   9.839   3.325
20391W        W85651  34.965   6.056   0.775
20392W        W85652  15.688  33.121   1.860
20393W        W85653  39.978   4.840  13.893
20394W        W85654  23.976  15.275   2.357
20395W        W85655  25.502   2.197  10.769
20396W        W85656   2.711   5.666   1.425
20397W        W85657   3.278  40.321  14.779
20398W        W85658  38.841   2.839  12.732
20399W        W85659  33.020  30.140  13.630
20400W        W85660   3.810  44.451  13.401
20401W        W85661  39.621  19.194   2.070
20402W        W85662  32.359  33.608  12.063
20403W        W85663  19.156  35.528  14.488
20404W        W85664  35.834  38.531   2.878
20405W        W85665  22.364  35.852   2.313
20406W        W85666   9.624  34.574   2.817
20407W        W85667   8.938  36.537  14.785
20408W        W85668   3.468  18.527  11.186
20409W        W85669  36.999  44.307  10.790
20410W        W85670  27.161  44.850   0.243
20411W        W85671  35.665   5.522  11.762
20412W        W85672  17.808  26.861  12.649
20413W        W85673  30.118  33.387  13.023
20414W        W85674  12.846  42.035   2.193
20415W        W85675  20.223   0.719  12.486
20416W        W85676  37.014   9.151  11.720
20417W        W85677  14.797  33.795  10.085
20418W        W85678  25.435  31.550  13.518
20419W        W85679   4.382   6.682  13.119
20420W        W85680  32.247  37.142  10.820
20421W        W85681   2.803   0.450  13.370
20422W        W85682   1.874  33.381   3.611
20423W        W85683  12.262  41.541  11.673
20424W        W85684  42.277   5.408  12.398
20425W        W85685   0.830  41.865  14.484
20426W        W85686  32.155  34.035  12.263
20427W        W85687  30.790  10.592   0.347
20428W        W85688  14.561   1.181  13.139
20429W        W85689  17.168  32.575   4.645
20430W        W85690  11.888   9.065  12.013
20431W        W85691  16.203  16.414  11.371
20432W        W85692  32.046  10.418  10.639
20433W        W85693  27.015   1.959  12.926
20434W        W85694  35.612  31.920  13.279
20435W        W85695  35.137  29.561   2.125
20436W        W85696  12.247  34.630   4.283
20437W        W85697  32.124  11.325  10.768
20438W        W85698   0.644  15.334   9.807
20439W        W85699  14.183  28.544  12.795
20440W        W85700   3.805  18.336   2.265
20441W        W85701  16.099  40.141   3.783
20442W        W85702  23.219  26.869  13.101
20443W        W85703  41.615  18.982   0.419
20444W        W85704  38.907  11.506  13.921
20445W        W85705  18.065   0.382  11.206
20446W        W85706  19.623  38.512  11.560
20447W        W85707  25.156   0.028  14.057
20448W        W85708  21.069   0.785  13.764
20449W        W85709  35.934  14.754  12.807
20450W        W85710  21.609  16.669   0.688
20451W        W85711  12.238  35.911   4.891
20452W        W85712  11.799  19.814   1.166
20453W        W85713   6.254  23.035   4.370
20454W        W85714  44.808  36.933   4.100
20455W        W85715  17.609  39.995   0.023
20456W        W85716  35.752  23.683  10.918
20457W        W85717  16.258  28.486   0.315
20458W        W85718  37.009   3.265  12.858
20459W        W85719  19.837  42.335  12.897
20460W        W85720  20.647  36.002  14.777
20461W        W85721  13.258  21.324   2.256
20462W        W85722   7.907  43.320  13.856
20463W        W85723   8.372   8.657  12.057
20464W        W85724  31.529   8.564   2.302
20465W        W85725  16.750  42.558   2.797
20466W        W85726  22.522  18.291   0.326
20467W        W85727  42.876  40.498  11.689
20468W        W85728  30.347  27.158   4.552
20469W        W85729   6.457   6.747  12.150
20470W        W85730  19.206   4.304  13.878
20471W        W85731  33.797  27.784  12.956
20472W        W85732  25.956  11.263  11.095
20473W        W85733   9.298   2.869   4.443
20474W        W85734   3.830  10.676   1.690
20475W        W85735   2.378   2.690  13.749
20476W        W85736  40.946  12.063  11.219
20477W        W85737   0.812  19.126   2.701
20478W        W85738  25.124   8.182  10.808
20479W        W85739  40.438   1.156  13.905
20480W        W85740  10.815  31.723   0.454
20481W        W85741  35.603  19.506  12.558
20482W        W85742  22.296  27.468  11.230
20483W        W85743  42.823  20.584   4.345
20484W        W85744  20.480  32.635  12.841
20485W        W85745  14.781   8.258   3.528
20486W        W85746  27.050  23.195  13.269
20487W        W85747   7.438  42.462  11.549
20488W        W85748  40.982   9.698  12.876
20489W        W85749  17.134  27.243   1.013
20490W        W85750  38.504  22.016  11.581
20491W        W85751  10.885  20.683   2.925
20492W        W85752  30.572  22.672   2.247
20493W        W85753  44.006  22.521   4.057
20494W        W85754  42.953  28.662  13.863
20495W        W85755  39.877  43.180   4.923
20496W        W85756  24.233  40.164   4.088
20497W        W85757  41.260   8.847  13.954
20498W        W85758  42.851  21.536   3.331
20499W        W85759  31.474  12.693  12.481
20500W        W85760  26.620  12.360   1.272
20501W        W85761  37.509  11.684   2.715
20502W        W85762  28.178   2.358  14.921
20503W        W85763  32.914  38.164  13.810
20504W        W85764  40.226   0.871   3.605
20505W        W85765  28.060  13.817   2.315
20506W        W85766   0.838  42.548  13.982
20507W        W85767  27.204  14.739  10.631
20508W        W85768  21.791  34.631  14.464
20509W        W85769  27.222  40.366  14.723
20510W        W85770  12.651  18.284   1.449
20511W        W85771  35.804  37.683   1.878
20512W        W85772  37.333   0.640   1.861
20513W        W85773   7.471   2.263   0.784
20514W        W85774  24.180  24.455  11.846
20515W        W85775  18.970  15.331   4.153
20516W        W85776  36.842  23.746   0.845
20517W        W85777  22.261  20.231  13.561
20518W        W85778  13.797   7.252  14.995
20519W        W85779  14.540  25.609  13.392
20520W        W85780   6.879   3.413   3.761
20521W        W85781  27.782  18.466  10.767
20522W        W85782   3.889  40.023   3.852
20523W        W85783  34.017  17.558  14.548
20524W        W85784  43.366  21.087   4.356
20525W        W85785   4.226   2.600   3.686
20526W        W85786   1.969  16.626   3.977
20527W        W85787  15.564  14.745   0.358
20528W        W85788  28.205   4.638   3.227
20529W        W85789  36.717  27.543  11.903
20530W        W85790  29.037  32.341  10.680
20531W        W85791  21.580  32.116  12.089
20532W        W85792  38.743  31.395  10.218
20533W        W85793  41.719  10.297  13.430
20534W        W85794  23.052  38.198  10.338
20535W        W85795  42.602  12.795  12.567
20536W        W85796  36.366  11.925  11.565
20537W        W85797  17.621  23.186   4.531
20538W        W85798  10.919  12.759   4.074
20539W        W85799  44.059   7.963   1.260
20540W        W85800  42.441  43.362   4.387
20541W        W85801  31.601  16.314  12.518
20542W        W85802  20.534   5.774   4.433
20543W        W85803  16.841  37.738  13.491
20544W        W85804  31.969  24.491  10.742
20545W        W85805  19.886  36.522   1.263
20546W        W85806   7.391   0.187  11.635
20547W        W85807  11.893  24.520   3.087
20548W        W85808   5.508   4.887  12.985
20549W        W85809  42.502  29.783   0.495
20550W        W85810  25.165  23.141   0.987
20551W        W85811  10.258  14.678  14.020
20552W        W85812  38.740  21.776   0.061
20553W        W85813  13.420  27.627  14.778
20554W        W85814  27.833  11.406   3.806
20555W        W85815   8.298   7.744  10.657
20556W        W85816  13.343  36.844  10.973
20557W        W85817   6.356   4.394  10.420
20558W        W85818   2.543  29.188  10.285
20559W        W85819  29.050   1.819  11.471
20560W        W85820  28.232  23.497   2.712
20561W        W85821   3.636   8.744   4.893
20562W        W85822  19.819  38.779  14.248
20563W        W85823  21.049  14.834   4.771
20564W        W85824  34.112   1.584   3.273
20565W        W85825  20.635  44.394   4.066
20566W        W85826  24.929  16.162   4.737
20567W        W85827  25.605   7.705  13.134
20568W        W85828  28.333  21.634   3.423
20569W        W85829  30.515  40.812  14.540
20570W        W85830  22.001  38.332   3.695
20571W        W85831  11.822  33.283   4.446
20572W        W85832  41.083  39.476  11.864
20573W        W85833  17.073  19.679   1.117
20574W        W85834   7.399  28.223  11.661
20575W        W85835  24.457  19.653   3.466
20576W        W85836  38.031   9.074  14.838
20577W        W85837  27.716  26.128   0.518
20578W        W85838  26.765  44.332   5.177
20579W        W85839  10.277  35.170  12.968
20580W        W85840  17.570  31.354   4.224
20581W        W85841  43.164  14.293   3.547
20582W        W85842   7.388  31.421  14.090
20583W        W85843  37.932  26.539   0.504
20584W        W85844  24.088  43.944  12.173
20585W        W85845  31.577  32.233  14.771
20586W        W85846  30.054  10.688   3.564
20587W        W85847  21.452  19.000  12.517
20588W        W85848  33.493   4.953   3.795
20589W        W85849  12.400  11.349  13.498
20590W        W85850  39.063  27.089  13.951
20591W        W85851   6.250  12.038  14.452
20592W        W85852  35.573   5.289   2.261
20593W        W85853  20.491   7.239  12.874
20594W        W85854  33.895   5.893   1.796
20595W        W85855  29.814  14.506   3.323
20596W        W85856  11.795  16.211   4.416
20597W        W85857  19.805  21.244  13.809
20598W        W85858  36.634  28.544  10.550
20599W        W85859  14.353  42.796   3.688
20600W        W85860  40.586  43.277  14.707
20601W        W85861   8.752  13.280   0.230
20602W        W85862   4.765   7.171  13.915
20603W        W85863   8.446  16.346  10.629
20604W        W85864  36.446  39.400   4.659
20605W        W85865  10.278  27.672  13.985
20606W        W85866   8.318  21.815  14.071
20607W        W85867   8.253  21.308  13.907
20608W        W85868   5.293  20.243  13.451
20609W        W85869  12.184  13.326  11.483
20610W        W85870  17.519  35.553  12.830
20611W        W85871   7.856  40.977  13.554
20612W        W85872  24.561  43.748   4.621
20613W        W85873  26.131  11.334  13.948
20614W        W85874  16.846  23.252   0.956
20615W        W85875  30.034  17.272   4.433
20616W        W85876  37.994  37.866  11.032
20617W        W85877  11.196  20.080   4.395
20618W        W85878  41.985  17.375  12.506
20619W        W85879  16.670  24.071   1.373
20620W        W85880   4.846  11.279  12.114
20621W        W85881  12.623  30.074   1.946
20622W        W85882   2.070  11.799  14.551
20623W        W85883  16.291  37.547  11.641
20624W        W85884   3.161  38.376   2.493
20625W        W85885   8.756  15.524   1.880
20626W        W85886   2.225  31.210  11.322
20627W        W85887  33.033  14.030  14.082
20628W        W85888  33.625  26.175  14.981
20629W        W85889  14.241   3.044  11.535
20630W        W85890  20.925  19.864   3.875
20631W        W85891  22.271  15.664   3.862
20632W        W85892   6.674  23.586  10.562
20633W        W85893  38.285  34.980  10.479
20634W        W85894  30.223  21.183   4.116
20635W        W85895  34.821   1.154  11.134
20636W        W85896   7.484   7.765   1.350
20637W        W85897  20.314  14.109  13.030
20638W        W85898   2.311   7.858  12.765
20639W        W85899  32.175  35.497   0.380
20640W        W85900  23.608   1.769   0.328
20641W        W85901  18.290  12.677   4.105
20642W        W85902  32.513  31.528  14.456
20643W        W85903   3.473  16.038   2.710
20644W        W85904  26.531  38.580   3.741
20645W        W85905  19.138  31.891  12.867
20646W        W85906  21.670  26.015   1.923
20647W        W85907  22.090   1.185  14.062
20648W        W85908  29.226  42.940  11.974
20649W        W85909  42.027  41.552  13.035
20650W        W85910  26.466   2.004  11.125
20651W        W85911  38.398   1.038  13.076
20652W        W85912   7.289  13.631   1.405
20653W        W85913  31.361  19.609  11.507
20654W        W85914  22.485  12.282  11.156
20655W        W85915  23.458  39.464  13.992
20656W        W85916  31.419  41.862  10.692
20657W        W85917  13.710  30.946  12.508
20658W        W85918  34.638   9.726  14.480
20659W        W85919   9.371   0.127   3.355
20660W        W85920  36.454  15.256   3.754
20661W        W85921  18.635  27.578   3.730
20662W        W85922  44.992  20.112   1.713
20663W        W85923  37.894  39.896  11.879
20664W        W85924   8.287  24.167   2.787
20665W        W85925  23.150  18.293  13.113
20666W        W85926  31.870  42.587  12.122
20667W        W85927   2.197  10.880   1.096
20668W        W85928   6.981  36.625   3.357
20669W        W85929   5.779   4.133   4.870
20670W        W85930  18.064  43.234  12.616
20671W        W85931  10.699  24.957  13.847
20672W        W85932  40.648   7.973   0.766
20673W        W85933   5.912  44.550   4.648
20674W        W85934   1.698  17.554  10.768
20675W        W85935  42.161  38.812   4.170
20676W        W85936  34.482   5.925   3.681
20677W        W85937  14.251  32.553   4.415
20678W        W85938  11.169   1.558   0.791
20679W        W85939   8.851  43.476  13.529
20680W        W85940  42.397  37.487   0.077
20681W        W85941  35.099  19.687   5.064
20682W        W85942  22.189  29.061   0.435
20683W        W85943  11.725   3.440  14.689
20684W        W85944  44.780   2.462  10.656
20685W        W85945  15.146  13.916  13.596
20686W        W85946  34.928  10.694  14.481
20687W        W85947  28.679  27.714   3.863
20688W        W85948  14.780   9.575  11.397
20689W        W85949  20.551  38.907  13.640
20690W        W85950  10.210  37.670  14.321
20691W        W85951  32.930   2.343  13.437
20692W        W85952  39.115  32.469   4.629
20693W        W85953  14.854   8.048  14.480
20694W        W85954  19.046  26.312   1.849
20695W        W85955   9.224  24.560  13.178
20696W        W85956  23.152  36.476  13.897
20697W        W85957   0.870  26.111  13.966
20698W        W85958  18.327  19.151   1.535
20699W        W85959  17.330  35.471  10.370
20700W        W85960  31.312   2.724  10.644
20701W        W85961  32.941  30.082   0.576
20702W        W85962  25.785  24.461   3.356
20703W        W85963  26.674  37.044   4.734
20704W        W85964  42.362   4.370  14.967
20705W        W85965  23.740   1.814  13.790
20706W        W85966  26.610  41.613   0.835
20707W        W85967   9.873   9.640  14.475
20708W        W85968  12.647   8.820   1.798
20709W        W85969  40.054  17.191  13.372
20710W        W85970  24.840   4.699  13.074
20711W        W85971   8.249  13.007  13.092
20712W        W85972  11.932  15.171  14.773
20713W        W85973  29.876  26.739   2.822
20714W        W85974  34.348  21.702   4.220
20715W        W85975  29.914   3.200  11.721
20716W        W85976   2.680  20.099   2.372
20717W        W85977  27.071  32.383  14.502
20718W        W85978   5.680  32.494   4.661
20719W        W85979  12.324  29.993  13.042
20720W        W85980   2.507  36.439  12.538
20721W        W85981  42.362  36.925  14.859
20722W        W85982  12.171  14.666  14.379
20723W        W85983   2.539   1.102   0.263
20724W        W85984  18.979  40.366  13.346
20725W        W85985  12.756  13.270  10.639
20726W        W85986  22.133  24.019   0.852
20727W        W85987   1.655  21.843  10.249
20728W        W85988   6.481   2.800  12.521
20729W        W85989  34.699  20.198   3.007
20730W        W85990   7.390  32.941   0.671
20731W        W85991  39.080   9.368  10.480
20732W        W85992  39.772  23.491   0.701
20733W        W85993  37.657  21.698  13.854
20734W        W85994  21.045  27.015  13.559
20735W        W85995  30.606   6.443  12.520
20736W        W85996   2.738  34.935  14.051
20737W        W85997  38.302  35.404   3.289
20738W        W85998  34.195  39.845  12.110
20739W        W85999  43.021  37.000   2.776
20740W        W86000  22.209  19.746  10.257
20741W        W86001   9.412  25.136  11.979
20742W        W86002  36.356  38.498   2.208
20743W        W86003  12.413  21.630   0.277
20744W        W86004  36.985  39.115   2.083
20745W        W86005  28.262  20.970  13.278
20746W        W86006  18.739  44.527  14.731
20747W        W86007   8.623  42.790  11.221
20748W        W86008  19.107   5.748   1.877
20749W        W86009  14.620  43.295  13.903
20750W        W86010  25.502  34.465  13.060
20751W        W86011   2.443   3.274   0.708
20752W        W86012  30.692   3.278   2.096
20753W        W86013  27.521  26.504   3.741
20754W        W86014  11.582  32.455  11.456
20755W        W86015  16.309   5.695  11.746
20756W        W86016  25.339  30.441   4.175
20757W        W86017  13.109   0.602  14.216
20758W        W86018   7.434  20.683   3.075
20759W        W86019  23.578   6.412   5.328
20760W        W86020  20.067  21.261   0.031
20761W        W86021  28.122   1.298  10.800
20762W        W86022  16.645  35.800  11.919
20763W        W86023   5.533   9.186   1.455
20764W        W86024  18.853  40.355  14.998
20765W        W86025  28.057   3.346  13.464
20766W        W86026  14.728  30.392  11.156
20767W        W86027  33.969   3.875   4.371
20768W        W86028  26.734  33.907  14.320
20769W        W86029   4.264  16.630   1.885
20770W        W86030   1.563  40.196   0.548
20771W        W86031   4.752  34.632   2.721
20772W        W86032  24.959  12.095   4.703
20773W        W86033  42.379  20.015  12.625
20774W        W86034   5.817   0.056   1.091
20775W        W86035   3.381  36.666   3.262
20776W        W86036  29.489   3.356   1.647
20777W        W86037  41.665   3.456   2.804
20778W        W86038  35.258  33.962   3.739
20779W        W86039  24.027  40.559  10.290
20780W        W86040  42.768  43.035   3.640
20781W        W86041  37.740  27.682  12.075
20782W        W86042  25.512  23.171   0.182
20783W        W86043  43.411  34.749  10.293
20784W        W86044  26.675  11.670  13.537
20785W        W86045   2.181  27.972  12.046
20786W        W86046  35.449   9.204  11.051
20787W        W86047  32.907  17.218   3.898
20788W        W86048  33.557   1.723  10.104
20789W        W86049  43.277  42.544  12.166
20790W        W86050  22.073   8.879  13.590
20791W        W86051   6.589  17.099  12.842
20792W        W86052   5.867  11.937   0.407
20793W        W86053  27.142   6.953  10.850
20794W        W86054   9.721  41.908   3.898
20795W        W86055  31.279  23.137   4.992
20796W        W86056  43.001  26.463  14.832
20797W        W86057  15.209  19.678   3.878
20798W        W86058  19.039  17.602  12.634
20799W        W86059  41.022   1.075  13.058
20800W        W86060   6.181  18.977   3.953
20801W        W86061  32.532   9.914  12.001
20802W        W86062   7.228   9.704   3.703
20803W        W86063   1.010  20.679  12.779
20804W        W86064  17.309   5.975  12.960
20805W        W86065   3.952  33.851  14.221
20806W        W86066  17.115   4.288   0.965
20807W        W86067  24.460  37.171   5.131
20808W        W86068  25.071  12.757  14.585
20809W        W86069   1.168   6.439  14.384
20810W        W86070  31.341   4.288  14.964
20811W        W86071  32.363  13.058  13.498
20812W        W86072  21.437  26.585  14.856
20813W        W86073  20.034   2.809   1.134
20814W        W86074  23.420  26.643   1.274
20815W        W86075  44.893  20.011  13.929
20816W        W86076  38.330  28.615   2.387
20817W        W86077  37.225  14.047   1.770
20818W        W86078  31.548  22.004   2.210
20819W        W86079  35.294  14.213   3.789
20820W        W86080  35.941   0.195  13.371
20821W        W86081   5.886  24.212   1.530
20822W        W86082  33.967  13.836   2.136
20823W        W86083  28.888  43.335  13.414
20824W        W86084  38.963  22.408   1.289
20825W        W86085  37.779  18.117   3.879
20826W        W86086  41.769  35.354  12.184
20827W        W86087  20.848   4.968   9.839
20828W        W86088  39.924  22.284  12.671
20829W        W86089  18.575  34.498  13.367
20830W        W86090  11.956  37.767  12.960
20831W        W86091  24.160  18.731  11.759
20832W        W86092  11.663  41.519  13.277
20833W        W86093  42.184  27.171   1.255
20834W        W86094   9.845  32.720  12.693
20835W        W86095  43.286  35.367  11.718
20836W        W86096  41.811  36.407  13.238
20837W        W86097  42.460  16.582  12.412
20838W        W86098  16.824  13.767  14.929
20839W        W86099  19.609  42.339   4.599
20840W        W86100   1.198   8.271  10.816
20841W        W86101  37.572  20.815   2.634
20842W        W86102   9.835  21.265   9.924
20843W        W86103   2.570  44.637  11.877
20844W        W86104  18.199  16.321  14.411
20845W        W86105  36.879  22.059  14.811
20846W        W86106   8.919  11.583  13.792
20847W        W86107  11.837  20.864   3.726
20848W        W86108  30.780  15.354  12.499
20849W        W86109  34.555  29.419  11.961
20850W        W86110   8.757  39.873  14.492
20851W        W86111  21.276   5.929  10.756
20852W        W86112  19.657  11.401   2.893
20853W        W86113   6.860  28.636  11.572
20854W        W86114  29.418  31.482  14.445
20855W        W86115  33.253   6.370   1.726
20856W        W86116  28.525  28.279  12.591
20857W        W86117  28.667  44.547  11.629
20858W        W86118  18.483  38.995   3.250
20859W        W86119  35.332  32.153   3.677
20860W        W86120   1.261  33.603  10.823
20861W        W86121  31.443  37.420   1.451
20862W        W86122  21.254  40.267   0.026
20863W        W86123  28.064  31.940  12.646
20864W        W86124  29.195   0.435  12.142
20865W        W86125  34.513   2.020  12.109
20866W        W86126  38.949  18.199   2.368
20867W        W86127  34.088  11.343  14.489
20868W        W86128  19.248  37.308   0.263
20869W        W86129   0.167   7.458   3.171
20870W        W86130  30.553   5.984  11.046
20871W        W86131  32.028  40.550  10.996
20872W        W86132  14.821  25.564  11.321
20873W        W86133  28.702  16.125  13.082
20874W        W86134   4.470   0.917   4.678
20875W        W86135   0.755  40.953   4.113
20876W        W86136   3.413  42.809   3.119
20877W        W86137   7.457  25.141  11.769
20878W        W86138  17.148  36.244  12.521
20879W        W86139  39.754  38.598   2.827
20880W        W86140   7.649  40.960   2.409
20881W        W86141   5.638  25.264  10.293
20882W        W86142  21.368  23.109   4.053
20883W        W86143  39.908  10.460  12.909
20884W        W86144  27.054  16.391   2.128
20885W        W86145   4.899   5.355  14.944
20886W        W86146   9.499   5.693  12.526
20887W        W86147  23.467  29.519   3.347
20888W        W86148  28.445  10.054   2.816
20889W        W86149  14.741   6.943   5.475
20890W        W86150   8.858   8.176  14.361
20891W        W86151  12.031  35.794  14.036
20892W        W86152  42.938   0.988   3.121
20893W        W86153  20.020  13.202   2.347
20894W        W86154  16.695  41.071  13.703
20895W        W86155   0.256  41.253  14.420
20896W        W86156  22.158  41.415  12.370
20897W        W86157  17.595  23.096  13.856
20898W        W86158  27.855   2.355   2.948
20899W        W86159  24.676  43.763   0.863
20900W        W86160   6.287  21.156  12.003
20901W        W86161  14.616  15.566  14.146
20902W        W86162  37.542  36.611   2.654
20903W        W86163   9.942  36.371  13.600
20904W        W86164  40.152  42.519   4.244
20905W        W86165  20.038  11.320  14.564
20906W        W86166  14.270   2.906   2.904
20907W        W86167  26.967  42.933  11.577
20908W        W86168  35.446  10.469   1.730
20909W        W86169  33.159  26.480   0.212
20910W        W86170  40.725  40.943  12.353
20911W        W86171  41.366   2.841  12.408
20912W        W86172   7.019  35.173   4.500
20913W        W86173  19.568  25.124  12.543
20914W        W86174  40.743  35.747   4.469
20915W        W86175  14.017  36.830  14.428
20916W        W86176  13.123  12.959   2.385
20917W        W86177  30.555   6.444   1.657
20918W        W86178   5.361  15.029  12.981
20919W        W86179  33.929   9.099  12.112
20920W        W86180  24.578  21.031   4.732
20921W        W86181   3.723  40.374  13.533
20922W        W86182  14.637  16.900   4.112
20923W        W86183  27.224  19.178  13.114
20924W        W86184  38.320  40.285  13.482
20925W        W86185  23.544  19.745  13.493
20926W        W86186  40.832  15.157   2.385
20927W        W86187  11.682  17.139   4.641
20928W        W86188  11.316  41.581  11.832
20929W        W86189  37.051  19.680  10.777
20930W        W86190  35.767  14.513   3.582
20931W        W86191  38.864  28.697  11.494
20932W        W86192  35.860  30.007  12.464
20933W        W86193  28.050  40.258   0.691
20934W        W86194  20.571   9.784   3.154
20935W        W86195   8.414  16.643   3.754
20936W        W86196  29.288  10.677  13.873
20937W        W86197  12.002   3.594  12.904
20938W        W86198  14.659  39.784  10.808
20939W        W86199  20.648  11.419   2.055
20940W        W86200  23.905  26.051   0.665
20941W        W86201  39.493   8.352  13.443
20942W        W86202  43.174  35.067   5.115
20943W        W86203  25.996  43.626   1.295
20944W        W86204   1.426   3.849   2.595
20945W        W86205  36.881   1.014  11.666
20946W        W86206   1.733  12.482   3.550
20947W        W86207   7.360  15.350  13.660
20948W        W86208   9.823  18.642  11.109
20949W        W86209  32.519   2.945  14.004
20950W        W86210  13.830  30.731  11.053
20951W        W86211  44.918  38.528  12.295
20952W        W86212  28.865  15.759  12.120
20953W        W86213  12.164  37.372   1.510
20954W        W86214   4.460  40.755  10.978
20955W        W86215  36.988  43.469  11.976
20956W        W86216  23.081   0.385   0.743
20957W        W86217  26.929   0.238  11.742
20958W        W86218  36.141  40.948  10.418
20959W        W86219   6.335   8.229   0.698
20960W        W86220  15.091  10.172  14.500
20961W        W86221  32.345   0.236  14.401
20962W        W86222  20.301  13.139   0.539
20963W        W86223   0.164   6.362  12.097
20964W        W86224  23.197  38.561  11.561
20965W        W86225  12.312  42.476  13.735
20966W        W86226  28.482  37.370   3.293
20967W        W86227  28.783  31.785   4.221
20968W        W86228  15.663  13.614  14.301
20969W        W86229   2.497  18.269  14.925
20970W        W86230  44.073  36.375  12.224
20971W        W86231  14.803   3.642   3.262
20972W        W86232   0.661  32.385   2.763
20973W        W86233  30.708  14.771   4.947
20974W        W86234  16.124   3.862   2.716
20975W        W86235  38.175  22.018   3.736
20976W        W86236   2.212  22.560   1.338
20977W        W86237  29.352  24.645   2.663
20978W        W86238  10.801  20.544  13.565
20979W        W86239  24.587  32.941  13.273
20980W        W86240  16.335  22.096   2.054
20981W        W86241   1.804  28.476  12.594
20982W        W86242   7.278  42.010  11.952
20983W        W86243  40.405  20.008  14.439
20984W        W86244  15.366  35.171   3.313
20985W        W86245  25.635   8.244  11.582
20986W        W86246  44.254  38.091  13.881
20987W        W86247   8.344  32.266   3.796
20988W        W86248  41.580   7.476  13.093
20989W        W86249  15.907   4.792  11.999
20990W        W86250  19.182  44.746   0.473
20991W        W86251  17.035  38.468  14.993
20992W        W86252  44.930   6.920   2.709
20993W        W86253  41.825  35.498   2.779
20994W        W86254  24.521  33.070  13.759
20995W        W86255  22.493  20.644   1.960
20996W        W86256   4.433  42.797  14.993
20997W        W86257  36.782  19.615   1.869
20998W        W86258  44.369  43.729   4.249
20999W        W86259   8.373  11.393   1.955
21000W        W86260   5.070  10.042   1.859
21001W        W86261   1.788  11.079  14.999
21002W        W86262  34.995  15.503   0.430
21003W        W86263   8.265  21.023   3.191
21004W        W86264   4.389  19.247   1.654
21005W        W86265  29.897  18.776   4.968
21006W        W86266  19.473   3.770  11.199
21007W        W86267  43.303   1.768   0.459
21008W        W86268   6.254   5.328  10.888
21009W        W86269  44.982  43.321   0.911
21010W        W86270   5.132  26.494   1.124
21011W        W86271  28.765  43.136   1.575
21012W        W86272  40.696  31.534   2.813
21013W        W86273  33.426  20.047   3.258
21014W        W86274  42.472   9.176  11.662
21015W        W86275  20.851  41.479  11.029
21016W        W86276  15.116  30.177   3.381
21017W        W86277  33.583  13.580  14.979
21018W        W86278   6.193  19.741  12.288
21019W        W86279   0.249  14.557  11.052
21020W        W86280   8.474  32.376  12.056
21021W        W86281  41.077  19.496  14.091
21022W        W86282  14.832  39.346  13.899
21023W        W86283  19.825  11.067  11.134
21024W        W86284  23.579  43.970   0.598
21025W        W86285  17.495  39.915   3.347
21026W        W86286   4.173   8.105  11.718
21027W        W86287   6.387  44.927   0.762
21028W        W86288  34.195  27.565  14.045
21029W        W86289  27.241  39.890   4.407
21030W        W86290   0.306   7.903   2.953
21031W        W86291  12.248  11.535   3.226
21032W        W86292   0.737   1.480  13.021
21033W        W86293  26.531  22.856   3.731
21034W        W86294  42.495  35.549   2.269
21035W        W86295  10.238  24.982   2.794
21036W        W86296  11.113   9.791  10.792
21037W        W86297  21.234  41.002   4.621
21038W        W86298  43.080   0.897   3.607
21039W        W86299   8.347  24.486   2.150
21040W        W86300  10.679  42.249   3.686
21041W        W86301   0.846  40.439   4.494
21042W        W86302  12.560  31.796   4.064
21043W        W86303  37.054  24.266   3.303
21044W        W86304  28.670  25.489  14.835
21045W        W86305  13.883  13.797   0.323
21046W        W86306  35.053  22.259  14.339
21047W        W86307  17.257  33.184  12.381
21048W        W86308  18.380  22.749  10.727
21049W        W86309  37.503  34.730  10.699
21050W        W86310  37.631  23.571  11.887
21051W        W86311  33.353   1.162   4.277
21052W        W86312   8.429   7.825   1.746
21053W        W86313  36.060  13.126  14.913
21054W        W86314   4.279  33.703  11.540
21055W        W86315  44.260  37.887  14.362
21056W        W86316  36.828  37.813   1.897
21057W        W86317  36.635   8.342   1.704
21058W        W86318  31.035   7.107  10.373
21059W        W86319  24.733  23.219   5.398
21060W        W86320   5.447  26.431  10.180
21061W        W86321   8.796  30.684   1.390
21062W        W86322  20.220   7.697  12.941
21063W        W86323  23.939  35.854  13.232
21064W        W86324  17.687  16.841  10.675
21065W        W86325  36.741  33.872   3.590
21066W        W86326  13.521  33.184  11.584
21067W        W86327  34.732  12.600  14.340
21068W        W86328  36.419  44.883   0.425
21069W        W86329  32.312  31.629  14.006
21070W        W86330  14.624   8.164   1.237
21071W        W86331  29.619  17.495   1.942
21072W        W86332  18.392  27.032   4.908
21073W        W86333  22.688  22.023   3.313
21074W        W86334  41.647  21.687   0.320
21075W        W86335   2.984   2.824  12.055
21076W        W86336  33.518  14.826  13.867
21077W        W86337  36.619  30.670   3.246
21078W        W86338  36.566  34.037  13.816
21079W        W86339  25.580   6.189  11.874
21080W        W86340  31.318   7.216   1.140
21081W        W86341  41.276  31.873  13.121
21082W        W86342   2.896  24.684  12.649
21083W        W86343   7.894  30.923  11.372
21084W        W86344  38.513  12.715  12.913
21085W        W86345  31.250   6.068  10.515
21086W        W86346   0.711  23.319   3.828
21087W        W86347   5.459  38.887   1.861
21088W        W86348   5.683  12.283  12.396
21089W        W86349  41.943  35.140  13.439
21090W        W86350  26.947  41.074   3.524
21091W        W86351  11.271  15.255  11.997
21092W        W86352   4.488  19.506   0.045
21093W        W86353  39.077  35.470   4.635
21094W        W86354  33.480  38.026   2.905
21095W        W86355  27.473  31.852   0.683
21096W        W86356   9.347  24.512  13.709
21097W        W86357  44.483  40.960  10.342
21098W        W86358  24.949  19.088  13.421
21099W        W86359  14.118  27.114   3.820
21100W        W86360  43.127  31.571  12.078
21101W        W86361  30.965  20.470   2.664
21102W        W86362  44.835  25.669   3.899
21103W        W86363  17.608  13.588  11.613
21104W        W86364  33.245  29.321   2.931
21105W        W86365  39.287  44.452  11.577
21106W        W86366  13.392  23.633   1.083
21107W        W86367  10.747  10.898  12.236
21108W        W86368  18.079  16.261   1.484
21109W        W86369  22.535  30.065  10.658
21110W        W86370  40.102  11.881  12.894
21111W        W86371   7.795   9.309   4.102
21112W        W86372  11.140  18.315   0.705
21113W        W86373   5.510  23.471  12.033
21114W        W86374   2.957  37.479  14.430
21115W        W86375   4.466   9.929   4.477
21116W        W86376  13.447  39.892  13.894
21117W        W86377   9.879  30.993   1.858
21118W        W86378  16.680  34.617   1.798
21119W        W86379  33.464   6.735  14.328
21120W        W86380   5.211  42.366   0.980
21121W        W86381  15.799  29.226  12.928
21122W        W86382  19.633  20.673   0.519
21123W        W86383  12.178   3.848   0.247
21124W        W86384  11.784  21.061  10.229
21125W        W86385  35.410  37.510   3.156
21126W        W86386  40.206  19.578  10.879
21127W        W86387  40.339   8.401   1.932
21128W        W86388  36.776  39.116   5.062
21129W        W86389  27.530  34.057  12.119
21130W        W86390  30.554  37.430  14.509
21131W        W86391  34.948  17.532  12.149
21132W        W86392  34.505  43.821  13.766
21133W        W86393  31.184  29.438   1.352
21134W        W86394   6.887  20.180  13.827
21135W        W86395   9.243  27.198  12.407
21136W        W86396  17.005  13.593  11.095
21137W        W86397  16.210  42.080   1.302
21138W        W86398   7.937   0.718   4.572
21139W        W86399  21.548  42.576  12.372
21140W        W86400  12.248  18.533   1.257
21141W        W86401  12.766  21.850  12.905
21142W        W86402   3.716  35.668   4.159
21143W        W86403  10.888  14.573  12.857
21144W        W86404  38.890  38.020  13.789
21145W        W86405  35.752  11.454   1.681
21146W        W86406  15.323  33.816   3.676
21147W        W86407  23.666   2.749  14.799
21148W        W86408  36.858  31.740  12.494
21149W        W86409  20.209  14.313  11.414
21150W        W86410  10.115  32.573  14.352
21151W        W86411  17.653  36.045  11.511
21152W        W86412  34.380  37.370   0.812
21153W        W86413  39.952   6.702   2.449
21154W        W86414  40.531  27.395   0.891
21155W        W86415  27.684  11.287   2.759
21156W        W86416  29.375  42.870  10.121
21157W        W86417  13.224  28.588   1.875
21158W        W86418   2.961  27.918   0.944
21159W        W86419  18.192   8.867  13.619
21160W        W86420  21.383   2.928  11.538
21161W        W86421  32.264  23.966   2.834
21162W        W86422   6.321  44.500  11.610
21163W        W86423  19.725  39.308  12.064
21164W        W86424   7.481   8.243   3.052
21165W        W86425   6.237  41.765  11.136
21166W        W86426  35.600  18.510   2.163
21167W        W86427  15.305  39.889   0.530
21168W        W86428   2.346  27.002   3.787
21169W        W86429  43.006  16.650   2.667
21170W        W86430  12.126  18.610   2.635
21171W        W86431  17.767  21.409   3.093
21172W        W86432   3.925  29.458  13.370
21173W        W86433  37.008  24.968  14.025
21174W        W86434  24.226  41.870  12.073
21175W        W86435   4.620  22.559   1.389
21176W        W86436  24.960   5.634  11.539
21177W        W86437   1.711  28.849  13.878
21178W        W86438   5.273   8.363  13.550
21179W        W86439  38.662  22.304  10.707
21180W        W86440  32.883  42.308  13.035
21181W        W86441   3.914   5.340  10.747
21182W        W86442   1.813  39.498   2.271
21183W        W86443  12.067  32.625  11.487
21184W        W86444  33.180  43.772  14.313
21185W        W86445  21.331  20.596   2.155
21186W        W86446  33.242  44.436  10.355
21187W        W86447  16.526  15.420   2.230
21188W        W86448  30.437  20.632   2.452
21189W        W86449  36.163  26.548   3.202
21190W        W86450  37.855  13.718   4.530
21191W        W86451  25.282  35.638  10.026
21192W        W86452  26.987  11.535  10.725
21193W        W86453  33.848   7.722  12.003
21194W        W86454   9.359  42.117  12.351
21195W        W86455  44.720   8.969  11.933
21196W        W86456  23.968  26.110  14.207
21197W        W86457   1.498  18.631  10.792
21198W        W86458  33.505   1.916  14.836
21199W        W86459   8.483  24.156  14.533
21200W        W86460  26.722  31.452   3.714
21201W        W86461  40.162  38.324  14.851
21202W        W86462  26.522   0.557   4.125
21203W        W86463  44.563  24.485  12.049
21204W        W86464   5.526  39.717   1.492
21205W        W86465   4.434  27.150   0.728
21206W        W86466  21.616  36.553  14.208
21207W        W86467  27.010  11.825   2.736
21208W        W86468  44.550   3.012   4.583
21209W        W86469  22.680   4.419   2.257
21210W        W86470  43.998  24.978  12.535
21211W        W86471  44.262  40.310   3.750
21212W        W86472  40.107  15.778   2.336
21213W        W86473  13.020   1.472  14.470
21214W        W86474  21.086  10.621  10.923
21215W        W86475   5.263  17.498   0.047
21216W        W86476   6.706  22.545  10.810
21217W        W86477  18.994   3.707   2.826
21218W        W86478  22.756   7.702   0.507
21219W        W86479  17.004  21.202  13.883
21220W        W86480  25.742   6.442  14.731
21221W        W86481  17.143  25.484   2.670
21222W        W86482  31.455   5.318  12.782
21223W        W86483   2.991  23.868  14.413
21224W        W86484  24.719  44.510   1.329
21225W        W86485  27.917  10.932  13.279
21226W        W86486  15.264   3.470   3.128
21227W        W86487  43.850   6.208   2.713
21228W        W86488  30.235  38.028   2.450
21229W        W86489  27.677  31.782   3.761
21230W        W86490  13.687  12.285   0.831
21231W        W86491  41.594  37.415  10.538
21232W        W86492   8.199  38.770   0.334
21233W        W86493  21.209  20.554   9.733
21234W        W86494   8.255  23.676  13.930
21235W        W86495  32.581  10.396  12.925
21236W        W86496  14.751   7.127   1.297
21237W        W86497  15.074  43.817   0.366
21238W        W86498  23.462  12.322   2.427
21239W        W86499   7.526  29.063  13.818
21240W        W86500  24.031  34.366   0.310
21241W        W86501  22.961  26.270  14.345
21242W        W86502  27.123   0.675   4.811
21243W        W86503  16.866  40.795   1.360
21244W        W86504   7.902   5.299  10.333
21245W        W86505  44.793  30.933   0.021
21246W        W86506   1.891  31.422   2.906
21247W        W86507  12.341  27.989  14.885
21248W        W86508  19.177  20.442   0.371
21249W        W86509  21.150  10.365  12.590
21250W        W86510  22.048   0.524  12.147
21251W        W86511  17.802  11.681  13.587
21252W        W86512  12.822  21.689  14.388
21253W        W86513  31.483  36.325   2.883
21254W        W86514   6.177  30.513   1.802
21255W        W86515  14.164  43.465   4.654
21256W        W86516  11.881  21.573   0.371
21257W        W86517   6.179   2.380  13.401
21258W        W86518   3.406  23.167  14.053
21259W        W86519  21.862  24.007   3.177
21260W        W86520  35.782   9.316   1.241
21261W        W86521   4.600   9.717  12.130
21262W        W86522  10.285  18.552  11.989
21263W        W86523  44.505  31.663   2.756
21264W        W86524  19.295  12.842   2.320
21265W        W86525   0.301   6.250   0.754
21266W        W86526  18.027  24.327   2.390
21267W        W86527  23.921   7.152   0.014
21268W        W86528  39.925  20.008  13.717
21269W        W86529  14.844  19.738  12.903
21270W        W86530  33.846  28.676   3.463
21271W        W86531  15.485  31.518   4.284
21272W        W86532  37.226  11.524  10.479
21273W        W86533  21.724  22.161   0.467
21274W        W86534  36.841  18.793   2.801
21275W        W86535  14.107  20.142   2.311
21276W        W86536  41.721  40.451  13.852
21277W        W86537  40.766  27.734   0.544
21278W        W86538   8.656   9.066  13.094
21279W        W86539  32.032   0.684  14.785
21280W        W86540  32.555  28.883   1.384
21281W        W86541   8.050  40.288  10.370
21282W        W86542  17.497  21.635   1.330
21283W        W86543   5.934  13.093   1.115
21284W        W86544   6.481  10.639   0.299
21285W        W86545   2.257  37.060  14.898
21286W        W86546  22.181  13.667   1.452
21287W        W86547  31.748   3.062  13.500
21288W        W86548   2.469  34.119   3.145
21289W        W86549   5.948  34.397   9.806
21290W        W86550  32.721   1.534   3.630
21291W        W86551  23.235  18.116   0.644
21292W        W86552  26.968  32.806  13.529
21293W        W86553   9.009  40.947   4.198
21294W        W86554  21.406  27.916   1.358
21295W        W86555  31.272  18.427   3.693
21296W        W86556  14.916  34.948   3.133
21297W        W86557  21.936  31.389  13.887
21298W        W86558   9.954  41.135   2.840
21299W        W86559  14.546  13.104   1.851
21300W        W86560  28.355  21.522   0.242
21301W        W86561  29.619  35.161  12.118
21302W        W86562  27.126  22.681   0.390
21303W        W86563  28.675   4.558  14.465
21304W        W86564   3.279  38.104   3.058
21305W        W86565  44.901  29.442  11.936
21306W        W86566  35.551  19.534  11.662
21307W        W86567  14.293   5.483  11.617
21308W        W86568   0.845  32.283   4.380
21309W        W86569  27.457  37.266  10.819
21310W        W86570  41.933   0.861  12.117
21311W        W86571  37.356  29.005  11.480
21312W        W86572  24.528  42.494   2.418
21313W        W86573   2.756  24.247  13.345
21314W        W86574  13.509  23.788  14.253
21315W        W86575  31.013   7.080   0.162
21316W        W86576   0.650  37.456   3.159
21317W        W86577  18.977  11.227  12.535
21318W        W86578  14.641  42.488   0.881
21319W        W86579  13.536   3.511   3.578
21320W        W86580  30.513  12.657   3.317
21321W        W86581  22.844  27.037   4.873
21322W        W86582  17.855  18.068   9.812
21323W        W86583  38.430   7.223   2.791
21324W        W86584   1.993  29.593   1.950
21325W        W86585  30.018  34.610  11.609
21326W        W86586  14.732  15.761   3.876
21327W        W86587  44.477   2.990  13.395
21328W        W86588  29.521   1.141  11.079
21329W        W86589  42.499  15.222   2.700
21330W        W86590  12.160  12.827  11.847
21331W        W86591   7.017  43.004  14.887
21332W        W86592  17.200  27.019  14.702
21333W        W86593  15.257  25.636  12.070
21334W        W86594  21.561   7.421   1.227
21335W        W86595  36.039  40.415  13.226
21336W        W86596  14.116  12.789   1.791
21337W        W86597  17.706   5.149   3.209
21338W        W86598   9.061  37.406   1.458
21339W        W86599  18.047  32.298  14.415
21340W        W86600  30.903  34.646   1.290
21341W        W86601   9.426   3.280   0.319
21342W        W86602  43.332  17.545   0.807
21343W        W86603  11.162  41.077   4.180
21344W        W86604  24.274  27.079   2.109
21345W        W86605  33.888  26.311   0.935
21346W        W86606  29.505  39.902  12.064
21347W        W86607   5.908  26.564   5.526
21348W        W86608  16.627  23.129  13.877
21349W        W86609  30.468  32.856   0.398
21350W        W86610   6.694  26.439   9.710
21351W        W86611  11.069   1.374  11.188
21352W        W86612  10.866  37.433  11.531
21353W        W86613  16.103  24.583   3.402
21354W        W86614  23.015  12.572   0.258
21355W        W86615  34.420  19.212  14.874
21356W        W86616  13.722  13.591   2.130
21357W        W86617  10.743  34.847  11.748
21358W        W86618  43.476   8.632  12.967
21359W        W86619  39.288  15.741   1.173
21360W        W86620   6.869  31.548  14.011
21361W        W86621  20.302   3.225  10.674
21362W        W86622  14.623  44.545   0.736
21363W        W86623  23.707   3.667   9.902
21364W        W86624  15.259  43.807  13.586
21365W        W86625  28.958  26.883   4.555
21366W        W86626  28.942   0.827  10.585
21367W        W86627  15.660  24.585  14.867
21368W        W86628  20.814  32.240  10.997
21369W        W86629   2.837  10.621   1.878
21370W        W86630  33.852  30.388   3.754
21371W        W86631   3.458  14.057  12.974
21372W        W86632  31.852   1.841  10.684
21373W        W86633  22.317  32.496   9.732
21374W        W86634  20.282   1.631   4.084
21375W        W86635   8.856  11.196   1.886
21376W        W86636  44.809  43.011   5.088
21377W        W86637  36.690  14.534  12.993
21378W        W86638  32.568  30.277  13.860
21379W        W86639   0.814  39.588  13.992
21380W        W86640   1.194  25.498   3.152
21381W        W86641  33.200   7.452   4.525
21382W        W86642  26.599  16.210  13.251
21383W        W86643  11.328  31.644   4.543
21384W        W86644   3.360  29.706  13.859
21385W        W86645  24.019   1.037  14.733
21386W        W86646   8.871   8.215  13.819
21387W        W86647  27.673  28.629  13.164
21388W        W86648   7.617   4.299   1.921
21389W        W86649  18.727   7.339   2.989
21390W        W86650   4.265  21.468  13.786
21391W        W86651  26.066  27.384  14.857
21392W        W86652  22.219  19.596   2.152
21393W        W86653  27.209  42.323   0.734
21394W        W86654  12.500  25.650  14.020
21395W        W86655  18.211   5.633   1.307
21396W        W86656  12.021   4.437  11.218
21397W        W86657  38.457  30.553   1.653
21398W        W86658   5.516  26.022  11.610
21399W        W86659  23.254  26.068   4.796
21400W        W86660  22.383  26.509  12.524
21401W        W86661  33.606  24.201   1.794
21402W        W86662  21.260  11.901   0.780
21403W        W86663  34.497  38.579  12.422
21404W        W86664  40.956  10.170  11.006
21405W        W86665  29.501   9.989   3.577
21406W        W86666  20.225  23.651  13.389
21407W        W86667  43.967  19.209   1.122
21408W        W86668  26.984   8.250   1.452
21409W        W86669  36.484  15.814  13.677
21410W        W86670  15.017  17.149   2.771
21411W        W86671  15.878  21.693  11.097
21412W        W86672  23.142  41.370  14.510
21413W        W86673  41.438  26.471  13.905
21414W        W86674   7.560  26.478  12.257
21415W        W86675  41.302   5.388   3.605
21416W        W86676  35.435  34.012  10.751
21417W        W86677  13.704  30.464  13.321
21418W        W86678  25.740  13.553   2.847
21419W        W86679  12.176  32.909  13.954
21420W        W86680  39.079  27.114  10.852
21421W        W86681  44.891  12.068   0.789
21422W        W86682  24.769  13.651  14.721
21423W        W86683   2.818  20.645   4.216
21424W        W86684  37.370  10.673   1.218
21425W        W86685  16.249  22.951   3.267
21426W        W86686   7.595  19.241   3.628
21427W        W86687  27.880  21.768   4.208
21428W        W86688  18.021   0.027   0.806
21429W        W86689  35.773  11.837   3.311
21430W        W86690  16.028   6.691  13.308
21431W        W86691  21.290  12.672   4.053
21432W        W86692   3.312   4.433   4.603
21433W        W86693   2.489  12.947  14.650
21434W        W86694   1.913  10.163  12.032
21435W        W86695  32.847   0.487   3.422
21436W        W86696  42.240   9.673   2.834
21437W        W86697  43.508  15.851  12.818
21438W        W86698  16.421  34.085  11.851
21439W        W86699  41.432   4.311   3.371
21440W        W86700  35.892   6.885  13.475
21441W        W86701   8.016  42.914   4.255
21442W        W86702  34.917  24.194   0.704
21443W        W86703   6.259  15.056   1.381
21444W        W86704   9.688  40.332   3.563
21445W        W86705  14.917  32.110  10.809
21446W        W86706   8.538  13.892   3.293
21447W        W86707  30.067   4.191   0.355
21448W        W86708  22.619   0.233   1.456
21449W        W86709  35.876   9.813  11.156
21450W        W86710  32.667   6.912   4.541
21451W        W86711  21.872   2.236  13.183
21452W        W86712   3.228  42.461   0.345
21453W        W86713  15.089  26.586   3.279
21454W        W86714   2.153  36.946  11.164
21455W        W86715  30.129   7.764  11.517
21456W        W86716   4.226  18.089  12.964
21457W        W86717  41.529  38.070   2.387
21458W        W86718  17.026   1.873  12.220
21459W        W86719  18.587  10.200   5.266
21460W        W86720  25.729  23.314   2.819
21461W        W86721  37.833  41.925   3.240
21462W        W86722   2.398  16.386   1.859
21463W        W86723   3.927  38.471  13.384
21464W        W86724   7.806   5.709  12.085
21465W        W86725   1.146  24.105  12.950
21466W        W86726  13.027  14.771  12.465
21467W        W86727   5.851  32.553  10.465
21468W        W86728  18.102   9.104   1.966
21469W        W86729  16.047  19.147   3.707
21470W        W86730  14.224  30.502  11.311
21471W        W86731  37.034  22.524   0.159
21472W        W86732   8.408  15.219   0.254
21473W        W86733  14.266  40.447   3.358
21474W        W86734  20.779   3.996   1.168
21475W        W86735  39.984   0.199   4.827
21476W        W86736  39.961  21.609   4.096
21477W        W86737  37.728  21.542   1.169
21478W        W86738  31.564   6.159  12.496
21479W        W86739  21.271  41.831   1.478
21480W        W86740  15.421  17.722   1.555
21481W        W86741   7.109  41.497  12.085
21482W        W86742  36.757  15.748  12.646
21483W        W86743  29.330  41.809   3.345
21484W        W86744  39.360  32.957  11.681
21485W        W86745  39.108  17.754   2.643
21486W        W86746  19.454  37.579  13.390
21487W        W86747  34.440   0.232  10.952
21488W        W86748   1.865  12.809   2.234
21489W        W86749  27.770  13.655   1.916
21490W        W86750  25.578  43.905   1.189
21491W        W86751  15.187  18.518   4.564
21492W        W86752  44.020  35.373   3.290
21493W        W86753  32.594   2.753   1.485
21494W        W86754  33.636   7.747   3.921
21495W        W86755  42.005  19.164  11.646
21496W        W86756  25.549  21.020   4.627
21497W        W86757  10.281  10.913   0.021
21498W        W86758  44.184   2.757   4.193
21499W        W86759  29.647  34.063   1.178
21500W        W86760  18.741  29.197  12.593
21501W        W86761  35.870  23.621   3.172
21502W        W86762  44.684  38.821  11.085
21503W        W86763   8.013  44.485  13.388
21504W        W86764  12.662  18.196  14.731
21505W        W86765   6.822  40.944  13.368
21506W        W86766  32.409  38.310   0.788
21507W        W86767  11.300  23.594  13.907
21508W        W86768  19.704  18.332  12.415
21509W        W86769  37.857  29.592  12.010
21510W        W86770  42.281  26.559   4.111
21511W        W86771  14.795  24.660   4.428
21512W        W86772   7.058   6.577   0.714
21513W        W86773  24.116  31.124   4.778
21514W        W86774  20.414  28.992   0.937
21515W        W86775  39.970   8.522  12.213
21516W        W86776  43.205  10.684  14.319
21517W        W86777  33.940  18.006   4.959
21518W        W86778  32.150  38.239  11.463
21519W        W86779  21.998   2.321  12.667
21520W        W86780   2.873  41.260  11.860
21521W        W86781  43.398  24.090   3.008
21522W        W86782  14.077   0.801  12.556
21523W        W86783  15.538  40.994  12.028
21524W        W86784  14.576  26.188  13.586
21525W        W86785  14.545  39.852   1.893
21526W        W86786  12.160   9.603  14.768
21527W        W86787  32.367  13.204  10.773
21528W        W86788  23.724  12.608   3.898
21529W        W86789   4.987  17.558   1.338
21530W        W86790  40.476   2.418  13.536
21531W        W86791  29.484  27.919  11.945
21532W        W86792   1.437   3.479   3.338
21533W        W86793  16.650   5.562   0.959
21534W        W86794  21.087   1.737  12.776
21535W        W86795  21.073  42.506   2.861
21536W        W86796   1.870   8.722   0.419
21537W        W86797  27.965  19.245  10.733
21538W        W86798   0.916  32.395  13.473
21539W        W86799  25.038  22.566  13.343
21540W        W86800  16.865  26.672  12.508
21541W        W86801  21.622   1.462  14.733
21542W        W86802  21.399  12.051   2.962
21543W        W86803  40.491  29.576  13.269
21544W        W86804  28.033  22.902   1.783
21545W        W86805   8.575  44.078   3.705
21546W        W86806  13.246  36.932   0.994
21547W        W86807  44.744  10.106  12.924
21548W        W86808  36.247  17.252  13.362
21549W        W86809   3.693  28.657  11.605
21550W        W86810  16.252  30.170  14.528
21551W        W86811   4.947  10.527  14.547
21552W        W86812  26.618  18.288  13.296
21553W        W86813   6.646   2.190  12.135
21554W        W86814  21.966  37.352  12.851
21555W        W86815  26.741   6.288  14.802
21556W        W86816  15.420  18.715  13.442
21557W        W86817  37.057  27.033   4.683
21558W        W86818  38.449   5.431   2.408
21559W        W86819  39.875  28.611  12.943
21560W        W86820   8.947  42.068   1.788
21561W        W86821  18.181  24.030   3.335
21562W        W86822  37.483  23.611   3.190
21563W        W86823  34.417  40.452  10.963
21564W        W86824  12.779  44.759   0.737
21565W        W86825  22.430  34.906  14.273
21566W        W86826   0.901  32.682  14.710
21567W        W86827  25.981  14.445   1.864
21568W        W86828  37.831  34.125  14.599
21569W        W86829   2.866   4.919  12.088
21570W        W86830  39.486  21.274  11.588
21571W        W86831  31.657  34.330   0.299
21572W        W86832  29.715  40.064   2.757
21573W        W86833  13.410  25.267  14.937
21574W        W86834  24.530  13.600   2.416
21575W        W86835  26.381  44.220   2.284
21576W        W86836  24.665  40.489  14.430
21577W        W86837  18.796  19.253   1.766
21578W        W86838  17.312  37.325  10.246
21579W        W86839  20.552  17.482   3.236
21580W        W86840   1.322  19.727  12.847
21581W        W86841  15.728  28.957   3.254
21582W        W86842  44.831  11.049   2.938
21583W        W86843  17.694   7.285   0.062
21584W        W86844  15.705  34.800  13.045
21585W        W86845  27.031  17.210   0.895
21586W        W86846  23.524  40.948  14.534
21587W        W86847  37.060   3.789  13.569
21588W        W86848   1.484  40.858  13.359
21589W        W86849  22.275  42.735   3.454
21590W        W86850   3.939   2.002   2.401
21591W        W86851   4.393  20.119  13.156
21592W        W86852  29.905  14.122   1.388
21593W        W86853   5.281  39.377   2.793
21594W        W86854  38.642  22.271   2.252
21595W        W86855  20.016  34.606   3.854
21596W        W86856  39.374  28.945   3.636
21597W        W86857  37.965   9.430  12.203
21598W        W86858   0.443  15.823   3.548
21599W        W86859  21.683  21.173  13.639
21600W        W86860  22.495  32.391  10.524
21601W        W86861  31.020  34.044  11.588
21602W        W86862  22.621  37.125   1.931
21603W        W86863  18.407   4.201   2.150
21604W        W86864  15.895  14.372  13.767
21605W        W86865   6.860  43.636   1.448
21606W        W86866  20.154  16.606  10.237
21607W        W86867  16.024  40.874  12.927
21608W        W86868  41.436  21.685   4.085
21609W        W86869  29.493  35.440  12.592
21610W        W86870  39.782  25.966  13.578
21611W        W86871  36.557  15.859  13.149
21612W        W86872  19.116  35.278   1.404
21613W        W86873   3.686  42.768  13.351
21614W        W86874  39.112   3.722  11.234
21615W        W86875  23.458  42.863  11.537
21616W        W86876  24.853  15.781  12.339
21617W        W86877  28.130  38.633   2.328
21618W        W86878   4.926  33.299  10.265
21619W        W86879  28.222  11.845  10.401
21620W        W86880  22.639  33.707   1.755
21621W        W86881  34.211  15.943   4.102
21622W        W86882  40.027  16.710  13.121
21623W        W86883   9.775  31.431   3.728
21624W        W86884  15.096   4.393  14.969
21625W        W86885   0.034  18.053   4.815
21626W        W86886  39.001  32.790   2.029
21627W        W86887  44.972   1.817  13.452
21628W        W86888  14.789   6.147  13.016
21629W        W86889  31.115  27.157  12.392
21630W        W86890   7.820  37.771   2.212
21631W        W86891  21.281  34.453   0.932
21632W        W86892  18.687  18.221  13.384
21633W        W86893  33.640  25.749   3.176
21634W        W86894  42.391  12.033   2.857
21635W        W86895  12.870  35.536  11.977
21636W        W86896   5.835   4.111   0.935
21637W        W86897  12.329   1.804  11.530
21638W        W86898   9.465  37.555  12.999
21639W        W86899  42.026   6.274   4.518
21640W        W86900  30.107  20.083   1.371
21641W        W86901  44.717  22.824   4.590
21642W        W86902   2.881  33.458  12.864
21643W        W86903  22.780  26.558   4.076
21644W        W86904  29.595  23.252  12.330
21645W        W86905  17.667  14.577   1.457
21646W        W86906  28.727   9.282  12.491
21647W        W86907  23.174  32.456  12.797
21648W        W86908  21.477  41.902  13.029
21649W        W86909  19.798  33.107   0.174
21650W        W86910  38.719   7.454   4.058
21651W        W86911  27.777  12.760  13.428
21652W        W86912  40.256  10.410   3.360
21653W        W86913  34.488  27.147  14.839
21654W        W86914   6.559  14.296  12.248
21655W        W86915   5.306  38.974   4.612
21656W        W86916  11.420   0.681  12.102
21657W        W86917  10.100   6.609  12.304
21658W        W86918   5.422  26.392  13.306
21659W        W86919   7.621  28.124  13.516
21660W        W86920   6.618  12.861  10.788
21661W        W86921   7.201  31.122  14.485
21662W        W86922   7.289   0.279  13.858
21663W        W86923  22.724   0.734   4.118
21664W        W86924  18.116  41.881   4.249
21665W        W86925  27.388  23.298  11.825
21666W        W86926  19.710  41.102   2.882
21667W        W86927   6.240  19.673  11.294
21668W        W86928  20.706  34.894   1.413
21669W        W86929  12.280  37.904   2.914
21670W        W86930  30.024  13.640  14.794
21671W        W86931  23.005   2.254  11.162
21672W        W86932  25.179   6.876   1.070
21673W        W86933  36.634  24.404  13.342
21674W        W86934  14.904  33.200  14.524
21675W        W86935   7.936  25.948   3.162
21676W        W86936  11.728  24.386   4.031
21677W        W86937  32.137  17.307  13.922
21678W        W86938  39.423  40.182   3.994
21679W        W86939  32.172   0.579   4.166
21680W        W86940  16.226  23.738  11.632
21681W        W86941  14.860   7.262  13.600
21682W        W86942  20.652  27.942   4.488
21683W        W86943   3.245  28.412  11.598
21684W        W86944  22.110  10.936   3.342
21685W        W86945  14.239  37.793  11.925
21686W        W86946  10.021   0.507  13.621
21687W        W86947  14.377  41.757  11.006
21688W        W86948  31.864  11.723  10.391
21689W        W86949  34.865  13.847  11.062
21690W        W86950  34.277  43.220   3.826
21691W        W86951  40.645   2.321   5.493
21692W        W86952  34.465  22.067   2.376
21693W        W86953  24.624  38.431   0.492
21694W        W86954  36.841   8.727  12.575
21695W        W86955   6.797  39.085   0.864
21696W        W86956  22.925  35.618  11.246
21697W        W86957   9.738  14.661   3.240
21698W        W86958  26.119   5.471   4.139
21699W        W86959  32.818  38.021   2.007
21700W        W86960  28.022  40.959  11.749
21701W        W86961   1.436  39.107  12.998
21702W        W86962   6.819  13.917  14.849
21703W        W86963   5.657  39.525  14.911
21704W        W86964   1.977  10.612   0.105
21705W        W86965  25.690   0.318  11.958
21706W        W86966   7.073  23.111  13.010
21707W        W86967  19.518  42.805  11.383
21708W        W86968  30.832   5.258   1.957
21709W        W86969  37.094  17.410   4.147
21710W        W86970  24.003   5.692  12.440
21711W        W86971  21.944  19.151  12.538
21712W        W86972  38.949  21.042   1.727
21713W        W86973   6.124   9.020   0.388
21714W        W86974  40.971  42.927   0.380
21715W        W86975   8.824   1.805   0.286
21716W        W86976  43.895  20.017   0.793
21717W        W86977  42.602   8.789  12.625
21718W        W86978  32.365  10.961  11.140
21719W        W86979  41.297   8.111  12.513
21720W        W86980  35.090   7.719   4.311
21721W        W86981  39.318  24.036  13.496
21722W        W86982  25.979  14.003   2.791
21723W        W86983   3.343  42.845   2.118
21724W        W86984  22.022   9.313  14.765
21725W        W86985  14.856  19.202  14.119
21726W        W86986  42.123  12.939   5.037
21727W        W86987   2.822  19.182   3.704
21728W        W86988  34.020  43.821  10.978
21729W        W86989  30.078  19.313  12.800
21730W        W86990  24.173  26.941  13.083
21731W        W86991   8.280  13.961  14.950
21732W        W86992  14.793  10.299  11.942
21733W        W86993  36.539  26.764  12.463
21734W        W86994  43.879  15.775  14.024
21735W        W86995  40.979  26.625  14.553
21736W        W86996   3.711  42.593   2.381
21737W        W86997   1.400  43.297   2.742
21738W        W86998  28.964  32.452   3.501
21739W        W86999  33.379  11.713  13.935
21740W        W87000  27.278  16.771   0.151
21741W        W87001   8.392  30.648  14.616
21742W        W87002  39.584  38.634  12.598
21743W        W87003  26.097  14.828   3.820
21744W        W87004  44.974  14.070   0.798
21745W        W87005  20.666   5.449   1.182
21746W        W87006  19.248  26.695   2.749
21747W        W87007  15.233  28.594  10.956
21748W        W87008  13.093   6.257   2.617
21749W        W87009   2.259  31.586   4.233
21750W        W87010   5.882  33.403  14.513
21751W        W87011  33.117  11.894  13.472
21752W        W87012  31.015  39.471   4.467
21753W        W87013  34.798  43.779   0.449
21754W        W87014  25.738  30.492  11.728
21755W        W87015  38.978  26.837   4.730
21756W        W87016  30.149   7.599   0.787
21757W        W87017  11.678  42.051   1.367
21758W        W87018  11.272  35.945   1.745
21759W        W87019   4.045  14.743  14.923
21760W        W87020   6.708  26.386   3.229
21761W        W87021  21.999  32.392  13.768
21762W        W87022  22.165  43.951   2.326
21763W        W87023   7.777  16.646  13.754
21764W        W87024   2.949   7.654  13.335
21765W        W87025  20.548  22.811   3.585
21766W        W87026   1.191  33.162  14.964
21767W        W87027  19.864  35.679  13.414
21768W        W87028  13.250  35.553   1.336
21769W        W87029  34.829  22.297  11.097
21770W        W87030  34.146   0.375  10.267
21771W        W87031   7.719  27.006  14.079
21772W        W87032  29.209   4.453  13.081
21773W        W87033  29.935  40.056   4.205
21774W        W87034  24.811  16.468  10.882
21775W        W87035  11.287  25.972  11.428
21776W        W87036  31.418   4.716  13.366
21777W        W87037  27.928  10.372  12.106
21778W        W87038   3.295  44.303  11.609
21779W        W87039  18.735  29.032  11.784
21780W        W87040   5.432  17.326  10.662
21781W        W87041   3.206   6.832   3.311
21782W        W87042   3.061  39.061   1.782
21783W        W87043  12.280  10.594   4.859
21784W        W87044  38.492   9.628   1.414
21785W        W87045  25.361  18.762   0.939
21786W        W87046   5.312  23.599   1.142
21787W        W87047  24.117  24.741   1.268
21788W        W87048  29.037  35.104   0.317
21789W        W87049  44.847  25.090  10.396
21790W        W87050   1.904  11.248   0.859
21791W        W87051  41.969  33.868  11.720
21792W        W87052  20.624  37.030  13.331
21793W        W87053  44.748  26.671  14.510
21794W        W87054  27.414   3.656   2.363
21795W        W87055  18.141  20.236   0.952
21796W        W87056   9.760  33.880   4.056
21797W        W87057  44.324   1.426  12.426
21798W        W87058  27.372  19.481  13.859
21799W        W87059  33.357  10.409   3.209
21800W        W87060  22.689  11.344   1.133
21801W        W87061  19.981   4.231   4.762
21802W        W87062   1.004  31.105   0.391
21803W        W87063   9.437  41.920   1.046
21804W        W87064  22.286   6.020   0.298
21805W        W87065  25.061  25.556  12.924
21806W        W87066  21.905  13.193   0.369
21807W        W87067  16.542   7.826   3.920
21808W        W87068  21.018   1.824   0.038
21809W        W87069  23.194   6.221  12.507
21810W        W87070  10.364  42.318   4.122
21811W        W87071   2.716  43.334   2.490
21812W        W87072   7.788  35.574   2.040
21813W        W87073   3.687  11.703   2.846
21814W        W87074  26.074  34.321   2.384
21815W        W87075  10.800   7.351  14.402
21816W        W87076  30.026   8.650   0.005
21817W        W87077   0.845   4.705   1.794
21818W        W87078  20.161  42.013   2.326
21819W        W87079  34.007  29.463  10.615
21820W        W87080  36.549  44.353   0.760
21821W        W87081  13.100  20.582   4.175
21822W        W87082  16.815  26.647   0.754
21823W        W87083  38.566  36.042  11.527
21824W        W87084  39.202   2.678   0.625
21825W        W87085  16.070  44.407   3.984
21826W        W87086  20.828  29.842  13.341
21827W        W87087   1.510  24.164  11.273
21828W        W87088  25.752   5.292   0.935
21829W        W87089   4.443  24.440   1.810
21830W        W87090  40.386  27.853  11.234
21831W        W87091  16.158  40.146  10.535
21832W        W87092  17.300  11.793   2.391
21833W        W87093   5.434  14.801  13.460
21834W        W87094  26.785   4.900  11.093
21835W        W87095  10.686   6.506  14.061
21836W        W87096   4.335  33.122   2.711
21837W        W87097  27.931  27.645   1.259
21838W        W87098  33.090  41.842  12.928
21839W        W87099  39.153  32.606   0.679
21840W        W87100   7.698   5.857  13.442
21841W        W87101   2.268   1.197   1.264
21842W        W87102  35.189  17.648   4.765
21843W        W87103  40.086   4.390   3.302
21844W        W87104  35.192  40.350   1.062
21845W        W87105  24.627   3.698   1.775
21846W        W87106  20.311  37.407   1.375
21847W        W87107  36.566  43.226   2.695
21848W        W87108  25.938  22.998   4.554
21849W        W87109  30.640   7.571  11.411
21850W        W87110  40.853  23.483  14.109
21851W        W87111  43.927  25.612  11.138
21852W        W87112  15.113  19.286  13.397
21853W        W87113  43.930   3.678  13.055
21854W        W87114   5.134  20.237  12.942
21855W        W87115  35.786   8.701   1.724
21856W        W87116  29.695  31.138  14.939
21857W        W87117  24.189  40.914  11.238
21858W        W87118  40.522   2.975   4.721
21859W        W87119  34.142  13.292   3.588
21860W        W87120  44.483  14.912  14.818
21861W        W87121  34.950   3.900  13.805
21862W        W87122   7.224  29.376  14.788
21863W        W87123  36.908   8.640  11.682
21864W        W87124  22.013  18.337   0.393
21865W        W87125   2.613  21.236   2.374
21866W        W87126  15.296  24.039   3.709
21867W        W87127  11.234  11.770   1.641
21868W        W87128  16.674  34.952  11.939
21869W        W87129  16.682  43.786  14.271
21870W        W87130  21.593  15.197   4.861
21871W        W87131  38.322  39.088  10.670
21872W        W87132  15.168  44.282   0.104
21873W        W87133   1.379   9.777  10.621
21874W        W87134  31.954   8.226  12.937
21875W        W87135   3.995  27.953  13.993
21876W        W87136  18.316  27.999   1.002
21877W        W87137  43.349  42.819  13.574
21878W        W87138  43.250  44.293   3.221
21879W        W87139   8.269   4.536  14.314
21880W        W87140   2.261   3.928   4.551
21881W        W87141  20.760  42.763   4.454
21882W        W87142   4.345  32.048   2.678
21883W        W87143  30.198  35.089   4.568
21884W        W87144  21.696  18.837  13.956
21885W        W87145   2.909  33.959  13.044
21886W        W87146  23.485   4.491  14.482
21887W        W87147  24.100  30.416   2.793
21888W        W87148  41.377  15.212   3.597
21889W        W87149  12.786  15.615   3.735
21890W        W87150  12.139  33.548   3.864
21891W        W87151  18.169  16.822   0.039
21892W        W87152  10.191  42.256  12.027
21893W        W87153  22.270  17.214  13.779
21894W        W87154  18.181  43.502  11.694
21895W        W87155  24.277  21.589   1.722
21896W        W87156   7.699   3.675   2.428
21897W        W87157   2.941  31.801  14.221
21898W        W87158  18.648  26.817   2.246
21899W        W87159   0.828   4.413  12.910
21900W        W87160  33.754  16.253  10.697
21901W        W87161   8.348  44.461   1.391
21902W        W87162   4.038  29.568   1.467
21903W        W87163  12.215  14.164  11.213
21904W        W87164  20.625  39.836  14.047
21905W        W87165  17.136   7.553  11.563
21906W        W87166  24.948  35.809   0.041
21907W        W87167   6.092   8.430  10.846
21908W        W87168   7.249  21.151   3.222
21909W        W87169  21.533  28.163   1.820
21910W        W87170  10.451  34.583   0.809
21911W        W87171   4.864  28.137  11.931
21912W        W87172  25.521   4.657   1.708
21913W        W87173  30.249  44.095  13.889
21914W        W87174  36.871  26.518   4.637
21915W        W87175  26.719  15.192  11.089
21916W        W87176   5.950  43.749   3.227
21917W        W87177  36.544   8.235  11.895
21918W        W87178  41.874  22.255   2.982
21919W        W87179  12.207  37.461  13.780
21920W        W87180  14.861  27.079  10.712
21921W        W87181  40.268  22.492   2.805
21922W        W87182  22.343  41.998   2.252
21923W        W87183  25.258  18.168  13.014
21924W        W87184  16.047   0.435  11.593
21925W        W87185  25.104  33.644  12.118
21926W        W87186  33.909  19.907   3.316
21927W        W87187  16.140   1.905   0.626
21928W        W87188  25.537   9.592   1.848
21929W        W87189  10.367  31.893   3.672
21930W        W87190   6.117  41.513   4.588
21931W        W87191  16.987  13.013   0.943
21932W        W87192  11.888  18.679  12.052
21933W        W87193  43.945  14.206  12.566
21934W        W87194  11.595  33.095   3.416
21935W        W87195  13.730  36.506  12.944
21936W        W87196  30.645  40.527   3.509
21937W        W87197  38.818   8.704   0.413
21938W        W87198  36.461  37.479  12.248
21939W        W87199   4.746  10.142  13.557
21940W        W87200  39.123  43.466   0.860
21941W        W87201   1.514  25.540  11.101
21942W        W87202  37.418  10.268  14.989
21943W        W87203  32.028  39.243   1.691
21944W        W87204  22.527  14.776   4.689
21945W        W87205   5.265  15.712   0.692
21946W        W87206   2.807  11.810   4.878
21947W        W87207  32.906  20.128   3.208
21948W        W87208  38.280  20.039   1.448
21949W        W87209  33.104  36.225   4.675
21950W        W87210  35.101  41.370   3.300
21951W        W87211   0.279   6.926   0.382
21952W        W87212  27.481  21.450   3.233
21953W        W87213  11.904  22.154  10.728
21954W        W87214  37.549   8.902  11.552
21955W        W87215  24.499   3.267  11.273
21956W        W87216  34.990   3.975  13.292
21957W        W87217   7.745  28.398  14.333
21958W        W87218  10.655  31.251   0.280
21959W        W87219  15.629  15.776  11.568
21960W        W87220  18.624  16.355   4.581
21961W        W87221   7.759   5.266   0.987
21962W        W87222  21.981  31.395  12.975
21963W        W87223  14.973  29.832  14.901
21964W        W87224   5.756   8.416  12.493
21965W        W87225  41.351  44.414   2.581
21966W        W87226  39.169  15.324  11.530
21967W        W87227  43.942   2.457  14.654
21968W        W87228  37.042  33.464   3.770
21969W        W87229  28.230  44.486   0.839
21970W        W87230  42.452  32.605  14.796
21971W        W87231  12.231   3.311   0.019
21972W        W87232  29.183   2.017   1.292
21973W        W87233   0.008   6.240   1.417
21974W        W87234  23.952  26.654   1.999
21975W        W87235  10.385  16.877  10.622
21976W        W87236  10.902  44.322   1.391
21977W        W87237  41.084  18.680   1.652
21978W        W87238   0.998   5.487   2.146
21979W        W87239   7.327  28.449  13.124
21980W        W87240  11.903   6.752  14.620
21981W        W87241  36.499  42.454  14.954
21982W        W87242  26.024  30.672   1.292
21983W        W87243  29.226   4.907  12.866
21984W        W87244  19.984  28.083  13.383
21985W        W87245   8.838  37.866   1.381
21986W        W87246  20.631  13.012  11.290
21987W        W87247   0.534  39.100  12.870
21988W        W87248  35.032   5.779   3.775
21989W        W87249  20.296  33.872   4.366
21990W        W87250  12.820  24.983   0.120
21991W        W87251  33.041  11.306  10.744
21992W        W87252   4.923  27.519  13.953
21993W        W87253  10.658  17.535   0.813
21994W        W87254  29.099  25.503   5.625
21995W        W87255  24.093  31.383  14.795
21996W        W87256  16.772  34.048  11.044
21997W        W87257  42.656   5.761  12.491
21998W        W87258  25.160   0.287  11.136
21999W        W87259  14.701  37.102  13.451
22000W        W87260  34.070  32.344   0.609
22001W        W87261   2.966  27.912  12.496
22002W        W87262  17.056  31.513   3.632
22003W        W87263   1.709  22.732   2.550
22004W        W87264  42.069  31.005   2.241
22005W        W87265   9.901   9.144  14.364
22006W        W87266  29.100  29.676  11.913
22007W        W87267  19.677  33.911  13.887
22008W        W87268  36.175  27.182   3.507
22009W        W87269  38.429  37.380  13.047
22010W        W87270  21.303  33.516   0.962
22011W        W87271  37.074  31.126  11.325
22012W        W87272   2.810  18.315   1.733
22013W        W87273  18.266  37.749  11.956
22014W        W87274   3.227  14.174  10.949
22015W        W87275  21.996  28.553   4.852
22016W        W87276  14.589  30.461   2.777
22017W        W87277  21.667  38.578   3.395
22018W        W87278  26.241  39.130   4.217
22019W        W87279  10.369  10.379   2.755
22020W        W87280   5.367  17.710   2.382
22021W        W87281  32.889   5.977   1.728
22022W        W87282  12.406  15.378  11.094
22023W        W87283  19.986   3.747  14.804
22024W        W87284  43.917   2.053  13.504
22025W        W87285   7.838  15.313   1.518
22026W        W87286  32.604  44.638   2.471
22027W        W87287   6.796  43.252  13.841
22028W        W87288  12.035  13.664   1.370
22029W        W87289  26.619  11.708  11.105
22030W        W87290  40.556  24.864  12.023
22031W        W87291  39.973  19.570   1.889
22032W        W87292  39.772  20.102  12.960
22033W        W87293  32.081  31.476   3.647
22034W        W87294   4.517  27.517  14.361
22035W        W87295  15.630   0.486   0.873
22036W        W87296   5.772   2.900  11.589
22037W        W87297  40.351  24.384  12.064
22038W        W87298  17.922   4.311   4.554
22039W        W87299  17.523  27.362   4.437
22040W        W87300  16.642  13.157  14.384
22041W        W87301  33.002  24.683  14.786
22042W        W87302   8.647  26.672   1.428
22043W        W87303  16.640   9.904  14.404
22044W        W87304  20.465  19.151  12.365
22045W        W87305  40.552  23.674   2.408
22046W        W87306  19.423  20.725   0.992
22047W        W87307  26.474  34.665  14.053
22048W        W87308  25.594  10.480  10.637
22049W        W87309   5.927  41.827  14.348
22050W        W87310  28.620   0.762  14.045
22051W        W87311  30.618  12.359   1.274
22052W        W87312   1.013  20.013   0.425
22053W        W87313   6.620  14.025   3.910
22054W        W87314  15.765  44.249  12.107
22055W        W87315  29.863  27.508  13.261
22056W        W87316   6.167   2.410  14.271
22057W        W87317   4.172  34.116  13.391
22058W        W87318   8.151   9.651   4.201
22059W        W87319  32.386  13.583  13.446
22060W        W87320  35.266   0.317  14.948
22061W        W87321  26.220  34.347   3.798
22062W        W87322   3.878  12.827  13.909
22063W        W87323  23.582  33.155  12.827
22064W        W87324  10.661  30.243  13.462
22065W        W87325   3.904  13.482   4.216
22066W        W87326  39.370  20.513   0.250
22067W        W87327   1.854  12.365  12.432
22068W        W87328  15.101  38.901  12.946
22069W        W87329  17.196  44.439  10.339
22070W        W87330  19.448  40.961  13.545
22071W        W87331  21.731  40.787  11.465
22072W        W87332  35.632  15.849   4.251
22073W        W87333  16.258  29.621   1.253
22074W        W87334  17.092  42.483   4.264
22075W        W87335  11.705  22.582  13.339
22076W        W87336  11.442  33.521  13.048
22077W        W87337  18.218  11.411  14.540
22078W        W87338  13.068  16.206   2.630
22079W        W87339  41.770  10.619  12.609
22080W        W87340  21.558  11.789  12.089
22081W        W87341  29.577  19.484   0.882
22082W        W87342  20.186  15.792   3.771
22083W        W87343   3.644  44.761   2.572
22084W        W87344  40.742  24.460  11.134
22085W        W87345  32.476  17.609   2.176
22086W        W87346  25.404  37.670  14.267
22087W        W87347  25.997  18.240  14.385
22088W        W87348  34.514   2.647  13.810
22089W        W87349  34.421  28.446  13.633
22090W        W87350  41.019  17.959   1.193
22091W        W87351   5.755  28.506   0.689
22092W        W87352  20.177  40.465  14.085
22093W        W87353  26.042  43.339   2.600
22094W        W87354   6.731  26.667   1.802
22095W        W87355   7.303  32.037   0.358
22096W        W87356   9.092   6.648   1.883
22097W        W87357  41.060  32.330   4.643
22098W        W87358   2.635  16.155   3.605
22099W        W87359  31.437   6.302   2.068
22100W        W87360  41.733   7.147  14.231
22101W        W87361   3.739  26.674   0.753
22102W        W87362  28.943  15.736   2.225
22103W        W87363   8.567  44.933  14.440
22104W        W87364   9.676  15.989  14.903
22105W        W87365  34.347   0.119   3.400
22106W        W87366   5.253  13.240   2.455
22107W        W87367  14.637   1.978   4.686
22108W        W87368   0.929  24.750   0.239
22109W        W87369  33.983  31.212   1.635
22110W        W87370  18.189   0.783   0.313
22111W        W87371   0.041   0.702  11.280
22112W        W87372  18.299  18.211  11.590
22113W        W87373  19.648   1.980   3.790
22114W        W87374   5.169  14.257  11.251
22115W        W87375  30.670   1.998  12.007
22116W        W87376  31.809  14.323  11.034
22117W        W87377  25.933   8.154  11.996
22118W        W87378   4.757  24.533   2.256
22119W        W87379  31.000  18.016  13.835
22120W        W87380  14.283   1.447  14.400
22121W        W87381  18.536  14.382  10.491
22122W        W87382   2.869  32.227  13.813
22123W        W87383  13.847   1.643   3.517
22124W        W87384  17.089  31.978  13.372
22125W        W87385  30.391  26.716   0.586
22126W        W87386  37.031  27.499  13.767
22127W        W87387  18.114   2.197   4.173
22128W        W87388   3.692   6.182  11.971
22129W        W87389   5.921  22.402  11.518
22130W        W87390  36.471  44.938  13.466
22131W        W87391  23.640   0.913  12.933
22132W        W87392   8.339  22.661  13.819
22133W        W87393  28.467   5.185  10.601
22134W        W87394   4.948  39.585   0.832
22135W        W87395  32.594  22.036   2.740
22136W        W87396  31.652  44.877   2.630
22137W        W87397  41.743   6.383   0.908
22138W        W87398   6.911  36.868  11.181
22139W        W87399  41.864  25.564   3.210
22140W        W87400  15.654   2.217  14.359
22141W        W87401  25.314  19.459  13.507
22142W        W87402  25.757   5.039   0.207
22143W        W87403   2.349  22.837   1.756
22144W        W87404  42.278  14.717  12.938
22145W        W87405   7.268  18.727  12.608
22146W        W87406  32.885  38.327   1.037
22147W        W87407  44.935  42.570  12.097
22148W        W87408  18.373   9.301   5.053
22149W        W87409  38.589   5.462  13.619
22150W        W87410   5.691   0.485  10.665
22151W        W87411   6.684  42.915  12.428
22152W        W87412  41.487  39.966  11.200
22153W        W87413  27.863  13.149  11.918
22154W        W87414  39.894  18.008  12.112
22155W        W87415  41.193  44.865   2.813
22156W        W87416   0.974   7.262   0.868
22157W        W87417  35.884   7.995   3.308
22158W        W87418  39.815  23.502   1.215
22159W        W87419  36.377  42.004   0.196
22160W        W87420  12.118  15.695  10.189
22161W        W87421  16.599  12.881   4.594
22162W        W87422   4.919  32.234   2.164
22163W        W87423  34.332  38.758   1.646
22164W        W87424  11.500  38.978  10.769
22165W        W87425  29.501   2.597  14.324
22166W        W87426  13.410  21.541   4.477
22167W        W87427  20.102  31.448   1.712
22168W        W87428  42.923  15.890  12.082
22169W        W87429  30.306  33.638   0.057
22170W        W87430  22.929  31.323  11.147
22171W        W87431  15.378  44.501  12.845
22172W        W87432  16.364  29.977   4.054
22173W        W87433  14.914   6.810   4.989
22174W        W87434  26.582  12.264   4.603
22175W        W87435  19.713   3.797  14.365
22176W        W87436  11.303  33.540  13.967
22177W        W87437  10.818  36.097   1.957
22178W        W87438  26.012   8.609  14.745
22179W        W87439   6.987  42.712  13.013
22180W        W87440  21.892  19.939  10.653
22181W        W87441   3.503  13.896  10.623
22182W        W87442   1.881  19.700  12.981
22183W        W87443   7.105   4.229   1.356
22184W        W87444  25.031  43.894   1.754
22185W        W87445   8.311   6.978   1.378
22186W        W87446   6.030  10.488  13.338
22187W        W87447  31.231   9.672  11.978
22188W        W87448  14.113  24.210  13.652
22189W        W87449  34.106  21.936   3.099
22190W        W87450  37.281  37.915  12.565
22191W        W87451  21.498  23.580  12.123
22192W        W87452  33.949  24.547  11.632
22193W        W87453   9.715   3.808  12.555
22194W        W87454  25.597  42.313   4.366
22195W        W87455  31.495  31.392   3.790
22196W        W87456   9.871  35.542   2.600
22197W        W87457  37.204  27.701  12.013
22198W        W87458  15.690  10.265  13.831
22199W        W87459  41.184  42.497  13.826
22200W        W87460  40.129  29.203  11.145
22201W        W87461   8.127  24.168  11.151
22202W        W87462  32.988  24.033  13.591
22203W        W87463   4.590   1.083   2.781
22204W        W87464  37.875   4.191   4.206
22205W        W87465  36.782  12.137  12.437
22206W        W87466   1.523  20.166  12.129
22207W        W87467   9.690  43.302  11.674
22208W        W87468  32.653  44.360   3.312
22209W        W87469  26.646  38.328   3.297
22210W        W87470  32.686  41.412  13.741
22211W        W87471  22.899  25.253   1.258
22212W        W87472  18.476  37.807   1.604
22213W        W87473   0.385  39.904   3.913
22214W        W87474  10.830  41.943  14.848
22215W        W87475   1.142   7.122  12.087
22216W        W87476  29.472  35.123  11.295
22217W        W87477  18.256  28.530   1.051
22218W        W87478  38.410   8.403   3.749
22219W        W87479  24.695  39.463   0.996
22220W        W87480  39.614   7.082   3.301
22221W        W87481  20.077  15.648  12.903
22222W        W87482  42.202  44.702  13.951
22223W        W87483   4.461  23.530  12.929
22224W        W87484  17.970  26.001  12.516
22225W        W87485   7.338  39.420  10.989
22226W        W87486  14.353  14.276   3.122
22227W        W87487  15.079  24.549   0.715
22228W        W87488  41.269  15.328   3.090
22229W        W87489  18.701  32.628  13.423
22230W        W87490  23.086  32.469   0.760
22231W        W87491  17.826  28.327   0.239
22232W        W87492   9.265  13.079   2.220
22233W        W87493   6.502  16.789  14.974
22234W        W87494  44.943  11.653   3.054
22235W        W87495  41.758  44.511   0.261
22236W        W87496  24.123  31.258  14.017
22237W        W87497   6.115  38.405  13.896
22238W        W87498  22.656  36.106   1.526
22239W        W87499  13.805  34.032  13.981
22240W        W87500  13.376   7.430   1.250
22241W        W87501  25.236   1.802  12.482
22242W        W87502   2.262  44.958   4.009
22243W        W87503   0.669  33.997  11.543
22244W        W87504  25.204  23.708  13.115
22245W        W87505  30.952   8.351   3.738
22246W        W87506  15.712   8.855  12.415
22247W        W87507   2.783  35.955   0.680
22248W        W87508  13.664   5.870   1.857
22249W        W87509  30.017   1.973   4.363
22250W        W87510  33.380   5.821   1.842
22251W        W87511  14.256  44.481   4.500
22252W        W87512  42.847  24.999  12.344
22253W        W87513  43.706  10.118   2.379
22254W        W87514  30.873  42.085  14.611
22255W        W87515  38.946  29.114  13.872
22256W        W87516  20.744   5.881  10.681
22257W        W87517  13.318  13.301   1.028
22258W        W87518  41.999  23.173   3.214
22259W        W87519   1.792  34.491   4.694
22260W        W87520  32.613  22.993   0.658
22261W        W87521   0.211  26.260   2.629
22262W        W87522  30.687   9.308  13.545
22263W        W87523  22.667   5.458  12.430
22264W        W87524  18.052  20.953   0.317
22265W        W87525  40.447  16.224   2.994
22266W        W87526  44.259  18.628  13.850
22267W        W87527  25.743  37.369  14.003
22268W        W87528  27.860  43.777  12.161
22269W        W87529  34.468  13.637   0.912
22270W        W87530  31.783  32.236   4.133
22271W        W87531  12.077  29.197  14.462
22272W        W87532  34.242   9.751   4.669
22273W        W87533  26.469  38.806   3.261
22274W        W87534  25.753   5.182   2.319
22275W        W87535  34.573  16.921   1.501
22276W        W87536  27.035  39.870  12.899
22277W        W87537  12.307  41.969   0.029
22278W        W87538  16.608  22.478   2.612
22279W        W87539  44.014  18.940  10.431
22280W        W87540  31.961  39.516   1.271
22281W        W87541  10.216   0.074   4.426
22282W        W87542  26.975   7.848   1.775
22283W        W87543  13.776  39.861  13.484
22284W        W87544  26.000   3.789   3.321
22285W        W87545  11.359  17.112  13.628
22286W        W87546  19.954   0.250   3.182
22287W        W87547  29.698   3.954  10.362
22288W        W87548  12.590   1.325   1.951
22289W        W87549  42.488  17.597  12.588
22290W        W87550  42.273  11.010   4.410
22291W        W87551   1.982  39.417   3.288
22292W        W87552  26.027  35.528  10.261
22293W        W87553  36.796  42.037  10.862
22294W        W87554  34.802  14.702  12.136
22295W        W87555  23.570  23.214   4.271
22296W        W87556  40.036  34.505  13.815
22297W        W87557   0.957   4.497   4.080
22298W        W87558  43.925  16.054  13.128
22299W        W87559  23.467  12.812   4.819
22300W        W87560  43.929  24.163  10.482
22301W        W87561  24.848  31.703  14.213
22302W        W87562  33.450  19.735   2.258
22303W        W87563   9.171  35.379   0.425
22304W        W87564  23.812  27.991  10.894
22305W        W87565  18.371  12.205  10.692
22306W        W87566  28.482  44.859  13.116
22307W        W87567  17.154  40.487   4.732
22308W        W87568  24.008  25.973  10.693
22309W        W87569  33.737  17.190  13.819
22310W        W87570  26.072  33.129   4.120
22311W        W87571  18.516   9.143  12.814
22312W        W87572  27.663   3.719  13.379
22313W        W87573   3.044  42.990   0.368
22314W        W87574  25.579  33.450  12.086
22315W        W87575  14.784  31.109   3.468
22316W        W87576  20.233  23.007   0.307
22317W        W87577  13.814  20.853   2.648
22318W        W87578  32.602  43.279  14.306
22319W        W87579   2.527  43.911   1.366
22320W        W87580   3.399   7.335   4.337
22321W        W87581  34.115   5.013   0.509
22322W        W87582  12.569  22.528  14.556
22323W        W87583   6.071  20.764   3.109
22324W        W87584  35.157  24.983  14.294
22325W        W87585  18.254   8.642  12.710
22326W        W87586  43.934   8.926   1.171
22327W        W87587   4.843  30.021  11.506
22328W        W87588  11.751   5.524  12.800
22329W        W87589  30.229  26.548  13.075
22330W        W87590  14.665  14.518   4.693
22331W        W87591   7.178  18.741  13.150
22332W        W87592  23.727   4.882   1.788
22333W        W87593  43.453   5.774   1.288
22334W        W87594  23.039  30.064  11.540
22335W        W87595  12.378  13.119   3.158
22336W        W87596  18.364  36.561  11.337
22337W        W87597  17.524  33.167   2.709
22338W        W87598  44.579   1.951  12.497
22339W        W87599  32.419   3.752  11.717
22340W        W87600  30.240  33.037   3.523
22341W        W87601  22.768   2.792   0.395
22342W        W87602  10.455  34.412  11.659
22343W        W87603  28.499   9.134  13.899
22344W        W87604  27.881  26.048  11.977
22345W        W87605  41.961   7.350   3.708
22346W        W87606  38.868  16.794   4.116
22347W        W87607  39.838   7.573  11.682
22348W        W87608   9.132  14.831   1.338
22349W        W87609  37.759  31.200   2.607
22350W        W87610  37.009  31.119   2.293
22351W        W87611   8.766  35.397  11.665
22352W        W87612  31.416  28.266  11.137
22353W        W87613  14.765  30.110   4.241
22354W        W87614  44.414   8.900  10.676
22355W        W87615  24.562  32.989  12.769
22356W        W87616  11.692  36.211   1.606
22357W        W87617  12.486  33.974  13.865
22358W        W87618  19.010  35.383   3.825
22359W        W87619  13.320  31.640   0.972
22360W        W87620   6.705  38.249   1.241
22361W        W87621  23.172  27.725  12.781
22362W        W87622  21.960  37.135   0.763
22363W        W87623   2.188  19.446   4.889
22364W        W87624  27.526   4.273   1.740
22365W        W87625  13.152  41.072  10.451
22366W        W87626  42.528   8.201   3.998
22367W        W87627  26.107  31.491   1.632
22368W        W87628  10.893  42.699  14.543
22369W        W87629  10.403   2.794  13.138
22370W        W87630   8.511  36.828   0.421
22371W        W87631  27.754  10.623  12.889
22372W        W87632  44.555  41.279   3.226
22373W        W87633   3.384  29.457   3.243
22374W        W87634  14.057   8.329   4.147
22375W        W87635   5.885   3.892   2.408
22376W        W87636  27.630   3.925  11.862
22377W        W87637  40.530  35.642  10.977
22378W        W87638   4.909  18.982  11.279
22379W        W87639   1.024  20.993   4.049
22380W        W87640   8.887  14.624   1.743
22381W        W87641  20.986  25.937  11.363
22382W        W87642  37.022  39.250  14.019
22383W        W87643   4.870  41.548  11.022
22384W        W87644  20.966   1.017  10.990
22385W        W87645   1.403  21.241  11.702
22386W        W87646  13.351  36.589  14.431
22387W        W87647   2.214  40.571   3.245
22388W        W87648  40.545  14.378   2.279
22389W        W87649  31.682   6.166  11.665
22390W        W87650  11.778  27.727   3.088
22391W        W87651  30.641  17.193   0.348
22392W        W87652  14.333   3.791   2.358
22393W        W87653  39.010  20.316  10.550
22394W        W87654   1.358   9.863  12.623
22395W        W87655   3.050   6.854  14.387
22396W        W87656  15.121  28.581  13.083
22397W        W87657  24.126  12.249   3.265
22398W        W87658   7.474  20.576  14.412
22399W        W87659   0.926  23.494   2.684
22400W        W87660  32.130  10.740   4.408
22401W        W87661   6.897  40.207   3.682
22402W        W87662  21.173  31.317  12.566
22403W        W87663  42.990  22.205  11.767
22404W        W87664   8.379   9.849   1.899
22405W        W87665  10.324  29.671  13.029
22406W        W87666  25.676  34.013  10.946
22407W        W87667  20.743   8.907  13.032
22408W        W87668  37.533  13.585   4.137
22409W        W87669  40.867  40.314   2.252
22410W        W87670  21.247  41.091   0.989
22411W        W87671  36.327  31.691   1.851
22412W        W87672  41.770  21.023   5.171
22413W        W87673  35.357   1.939   0.415
22414W        W87674   3.946  34.083   2.777
22415W        W87675  26.719  29.658   1.837
22416W        W87676   1.812  26.959   1.406
22417W        W87677  12.340   6.855  11.787
22418W        W87678  18.816  19.608  14.932
22419W        W87679  13.307   8.213   1.442
22420W        W87680  27.400   3.404   3.020
22421W        W87681  16.501  30.497  14.235
22422W        W87682   0.804   3.019   1.956
22423W        W87683  41.910  41.334   1.695
22424W        W87684  30.602  39.764   2.685
22425W        W87685  18.177  38.038  11.549
22426W        W87686  32.020  34.922  11.019
22427W        W87687  17.749   3.213   5.386
22428W        W87688   5.947  12.852  11.576
22429W        W87689  20.052  35.254  11.201
22430W        W87690  39.762  18.712   0.969
22431W        W87691  27.133  19.680  12.917
22432W        W87692  35.929  18.590   3.670
22433W        W87693  33.880  40.736   3.188
22434W        W87694  12.350  41.503   3.129
22435W        W87695  16.300  34.289   0.863
22436W        W87696   0.800   3.197  10.756
22437W        W87697  20.381   5.849   9.658
22438W        W87698  13.587   0.956  12.428
22439W        W87699   1.465   4.475   4.173
22440W        W87700  35.356  27.048   3.797
22441W        W87701  36.378  17.269   3.538
22442W        W87702  43.394  42.265  14.865
22443W        W87703  36.530   3.267   4.553
22444W        W87704  41.870  39.587  12.072
22445W        W87705  30.346   2.768   0.363
22446W        W87706   1.303  37.601  14.543
22447W        W87707   2.294  23.122   4.160
22448W        W87708  22.207  31.904  14.843
22449W        W87709  23.327  15.134  12.270
22450W        W87710  28.945   3.403  14.924
22451W        W87711  17.088  18.217  14.736
22452W        W87712  20.701  21.126  13.896
22453W        W87713  25.873  17.222   1.892
22454W        W87714  16.108  41.479  13.560
22455W        W87715  18.005  14.137   3.315
22456W        W87716  43.571  17.974  13.596
22457W        W87717  43.910  20.272   1.728
22458W        W87718   9.003  11.428  12.542
22459W        W87719  14.322  12.627   1.327
22460W        W87720  21.356  20.021   1.777
22461W        W87721  17.391  42.334   3.877
22462W        W87722   7.423  13.879  13.279
22463W        W87723  40.277  24.736  12.935
22464W        W87724  16.230  30.117   1.083
22465W        W87725  13.039  21.144  12.640
22466W        W87726   1.008  44.261  10.264
22467W        W87727   9.125  38.854   4.643
22468W        W87728  41.489  37.354  13.386
22469W        W87729   1.265  38.838   2.421
22470W        W87730  11.819  28.155   4.246
22471W        W87731  16.056  33.948   1.852
22472W        W87732  13.988  44.637  12.954
22473W        W87733  25.598  26.610  11.395
22474W        W87734  38.121  33.193   2.310
22475W        W87735  22.625   2.360  14.509
22476W        W87736   3.173  32.655  10.824
22477W        W87737  13.895  37.477   3.480
22478W        W87738  34.870  37.600  13.222
22479W        W87739  26.854  35.342  14.894
22480W        W87740  36.082  42.494   3.392
22481W        W87741   9.413  16.019   4.257
22482W        W87742   9.700   7.111   9.727
22483W        W87743   9.253  33.143   0.095
22484W        W87744  40.629  33.466  13.801
22485W        W87745   3.434  11.161  10.729
22486W        W87746  29.579   8.786   0.771
22487W        W87747  11.573  23.512  11.973
22488W        W87748  28.007  44.987   2.730
22489W        W87749  26.242  30.356  14.420
22490W        W87750  15.642  38.826  12.427
22491W        W87751  34.828  37.058  13.328
22492W        W87752  31.651  23.121  11.571
22493W        W87753  27.702  40.976  13.871
22494W        W87754  22.401  23.123  14.892
22495W        W87755  40.612   5.624   1.854
22496W        W87756  33.157   0.018  14.957
22497W        W87757   4.409  32.897   3.176
22498W        W87758  12.153  10.915  12.268
22499W        W87759  20.564   6.727   1.719
22500W        W87760  23.025   3.181  13.398
22501W        W87761  16.795   7.444  14.008
22502W        W87762   7.487  15.558  11.201
22503W        W87763  31.125   1.426  12.457
22504W        W87764  36.218  10.405  12.008
22505W        W87765  20.829   3.473  14.018
22506W        W87766   6.797   8.371   0.926
22507W        W87767   9.956  24.509   0.011
22508W        W87768  31.729  38.258  10.081
22509W        W87769  33.046  18.530   3.734
22510W        W87770  38.647  30.657  11.840
22511W        W87771  31.237  44.975   1.304
22512W        W87772   2.039  40.833   2.023
22513W        W87773   7.394  31.304   4.151
22514W        W87774  32.896  10.612  11.971
22515W        W87775  23.484  25.546  13.556
22516W        W87776  22.225  36.189   0.848
22517W        W87777  38.117  41.527  10.077
22518W        W87778  37.357  39.166   2.411
22519W        W87779  20.563  29.477  11.180
22520W        W87780   4.334  41.321   2.154
22521W        W87781   3.657  44.864   0.301
22522W        W87782  22.440  18.197   5.490
22523W        W87783  31.401  34.068  14.939
22524W        W87784  40.850  20.918   1.302
22525W        W87785   9.372  16.708  12.027
22526W        W87786  11.429  17.086  11.596
22527W        W87787  12.367  17.569   0.712
22528W        W87788  44.257  31.002   4.013
22529W        W87789  19.449  44.090  13.007
22530W        W87790  10.683  10.954   2.358
22531W        W87791  13.408   8.248  11.645
22532W        W87792  19.218  38.062  11.835
22533W        W87793   2.000   1.062   2.488
22534W        W87794   1.900   2.923  12.115
22535W        W87795  11.034   0.901   2.211
22536W        W87796   4.195  24.701  13.377
22537W        W87797  44.819   4.864  11.896
22538W        W87798   4.695  23.159   2.222
22539W        W87799  23.660  19.980  14.452
22540W        W87800  41.779   0.702   2.873
22541W        W87801  36.904  39.615  14.412
22542W        W87802   7.558  42.618  10.118
22543W        W87803   5.028  19.468  13.954
22544W        W87804  23.286  21.616   1.795
22545W        W87805  44.886  15.143   0.087
22546W        W87806   4.033   1.850   3.900
22547W        W87807  29.467  37.999   4.549
22548W        W87808  23.716   2.504   3.235
22549W        W87809   6.349  22.582   3.603
22550W        W87810   1.188  44.027   1.060
22551W        W87811  35.941  19.985   1.424
22552W        W87812  14.327  40.089   0.591
22553W        W87813  44.783  29.061  12.426
22554W        W87814  21.854  35.468  12.190
22555W        W87815  22.985  27.100  12.110
22556W        W87816   4.778  44.793   0.475
22557W        W87817  37.894  35.445  13.639
22558W        W87818  15.546  13.192  13.866
22559W        W87819  24.247  17.104   2.218
22560W        W87820  25.047  35.535  14.550
22561W        W87821  23.769  29.054   4.582
22562W        W87822   5.894  23.705  12.865
22563W        W87823  20.523  19.223  12.872
22564W        W87824  43.347   3.350  13.886
22565W        W87825  34.580  19.485   0.267
22566W        W87826   4.938  26.001   0.249
22567W        W87827  36.579  17.619  13.105
22568W        W87828  18.488  43.949  11.604
22569W        W87829  32.595   3.046   4.968
22570W        W87830   5.168   6.314  14.707
22571W        W87831  24.956  12.270   0.358
22572W        W87832  28.510  16.335   2.647
22573W        W87833  25.005   4.192  11.204
22574W        W87834  38.859  42.708   1.158
22575W        W87835   9.177   9.719  13.880
22576W        W87836  33.057  15.221   1.808
22577W        W87837  29.755  41.042  13.116
22578W        W87838  14.806  11.118  11.483
22579W        W87839  24.284  14.220  11.138
22580W        W87840  19.671  14.602   4.017
22581W        W87841  14.879  26.620  11.307
22582W        W87842   6.662  35.073   0.844
22583W        W87843  11.120  24.927   2.856
22584W        W87844  33.983  13.061  10.525
22585W        W87845   7.497   1.649   4.589
22586W        W87846  17.993  34.030   3.934
22587W        W87847  19.099   8.667  13.567
22588W        W87848  31.679   7.460  12.495
22589W        W87849   7.112  42.477   0.731
22590W        W87850   5.002  22.219   1.336
22591W        W87851   2.096   6.970  10.233
22592W        W87852  40.508  11.333   4.553
22593W        W87853   4.256  25.727  12.422
22594W        W87854  44.160  23.720  11.635
22595W        W87855  36.278  24.361   3.746
22596W        W87856   1.749  38.961   2.242
22597W        W87857  26.795  32.475  11.406
22598W        W87858  31.152  17.065  10.790
22599W        W87859   8.373  24.535  14.964
22600W        W87860  27.977  23.699  14.606
22601W        W87861   4.428  42.350   0.278
22602W        W87862  13.841  21.144  13.566
22603W        W87863   6.878  27.765   0.929
22604W        W87864  27.623   2.770  13.766
22605W        W87865  28.743  44.231   1.692
22606W        W87866  44.925   2.364   1.721
22607W        W87867  16.742   8.576  11.091
22608W        W87868   0.384  11.270  13.876
22609W        W87869   7.703  24.580  11.762
22610W        W87870  27.079   4.298   1.235
22611W        W87871  24.045   0.414   2.383
22612W        W87872  40.739  15.702  11.710
22613W        W87873   7.978  22.059   1.819
22614W        W87874  26.025  34.913   2.838
22615W        W87875  43.949  21.187  12.124
22616W        W87876  33.403  10.011  10.795
22617W        W87877   3.269  24.938   1.252
22618W        W87878  34.324  39.189   1.998
22619W        W87879  24.612  26.676  11.898
22620W        W87880   6.204   8.787  12.432
22621W        W87881  39.304   4.339  10.730
22622W        W87882   8.165  29.691  14.299
22623W        W87883   1.369  16.606   4.660
22624W        W87884   0.326  12.439   3.218
22625W        W87885   6.961   4.731  11.188
22626W        W87886  37.058  44.735  11.088
22627W        W87887  18.179  28.686  10.685
22628W        W87888  44.419   1.947   3.883
22629W        W87889  38.710  34.565   0.175
22630W        W87890  24.540  43.925  13.095
22631W        W87891  10.197   5.765   2.794
22632W        W87892   2.196   4.646   0.319
22633W        W87893  18.684  15.761  14.959
22634W        W87894   5.944  14.879  13.373
22635W        W87895  41.939  21.075  11.961
22636W        W87896  27.693  18.742  13.950
22637W        W87897  15.541  18.536   2.765
22638W        W87898  39.306   7.806   2.876
22639W        W87899  21.204  17.540   4.115
22640W        W87900  11.668   8.248   0.826
22641W        W87901  34.023   3.437   1.615
22642W        W87902  26.787  34.153   4.567
22643W        W87903  17.004   6.814   2.301
22644W        W87904   1.605   2.679   4.063
22645W        W87905  41.627  37.544  11.521
22646W        W87906  27.961  29.869   0.519
22647W        W87907  18.645  30.629  13.104
22648W        W87908  39.889  30.993  12.534
22649W        W87909  21.185  14.671  13.405
22650W        W87910  39.792  29.590  11.142
22651W        W87911  17.168  12.746  10.808
22652W        W87912   5.791  36.747  13.494
22653W        W87913   4.338  20.056  10.700
22654W        W87914  21.544   8.739   3.161
22655W        W87915  29.532   9.987  14.127
22656W        W87916  33.883   1.185   5.435
22657W        W87917  31.523  10.477   4.113
22658W        W87918   6.885  26.120   3.684
22659W        W87919   8.570   7.797  14.023
22660W        W87920  30.766  11.194  11.635
22661W        W87921   7.074   4.239   1.882
22662W        W87922  11.796  15.490   3.712
22663W        W87923  10.342  15.224  13.986
22664W        W87924  30.642  37.387   0.030
22665W        W87925  28.560  38.413   1.565
22666W        W87926   3.029  32.313   0.212
22667W        W87927  16.748  38.576   4.354
22668W        W87928  14.202  27.224  12.423
22669W        W87929  12.247  21.824   4.129
22670W        W87930  11.327   8.523  11.521
22671W        W87931   0.246  32.106  11.703
22672W        W87932  40.950   9.693  13.406
22673W        W87933   1.473  40.473   2.150
22674W        W87934   2.788   0.998   1.269
22675W        W87935  24.521   5.646  12.546
22676W        W87936  29.432  27.032   1.951
22677W        W87937  43.231  31.868  11.631
22678W        W87938  34.789  10.673  10.682
22679W        W87939  28.002   5.724  14.764
22680W        W87940  16.299  21.675   4.063
22681W        W87941  37.961  26.004   2.268
22682W        W87942  37.675  39.341   2.766
22683W        W87943  27.713  22.527   5.093
22684W        W87944  13.650  28.813   2.327
22685W        W87945   0.108  27.396   3.657
22686W        W87946  36.238  40.599  14.001
22687W        W87947  37.433  11.650  12.397
22688W        W87948  38.388  18.037  12.582
22689W        W87949  22.749  30.916  13.058
22690W        W87950  38.895  14.523   0.889
22691W        W87951   9.203  43.754  13.855
22692W        W87952  15.508  22.438  12.869
22693W        W87953  39.739  25.268  14.127
22694W        W87954  31.464  29.367   0.575
22695W        W87955  29.425  26.952   2.912
22696W        W87956  14.230  16.061   1.222
22697W        W87957  33.814   5.751  10.463
22698W        W87958  21.243  44.862   2.406
22699W        W87959   7.342   9.367   2.400
22700W        W87960  14.737  12.836  10.523
22701W        W87961  39.223  30.409  11.053
22702W        W87962   1.717  26.228   3.640
22703W        W87963  34.839  11.873   4.668
22704W        W87964  33.145   6.170   1.257
22705W        W87965  17.273   7.658  10.192
22706W        W87966   7.299  18.178  10.685
22707W        W87967  36.686   1.985  13.990
22708W        W87968  29.384  41.520   1.837
22709W        W87969  18.316  39.346  14.519
22710W        W87970  30.603  17.737  12.917
22711W        W87971  42.374   7.623  12.945
22712W        W87972  17.148  33.905  11.410
22713W        W87973  19.222  30.423  12.515
22714W        W87974  10.132  15.983   0.337
22715W        W87975  26.740  32.437  12.794
22716W        W87976  33.083   4.012  11.887
22717W        W87977  21.601  21.428   2.405
22718W        W87978   2.974  27.502   0.343
22719W        W87979  39.925  29.468   2.154
22720W        W87980  17.804   0.866   4.511
22721W        W87981  21.796   2.928   0.396
22722W        W87982   9.886  42.939   1.752
22723W        W87983  15.616  44.201  13.764
22724W        W87984  38.786  25.774   2.830
22725W        W87985  42.429  23.722  13.986
22726W        W87986  24.266  23.518  11.864
22727W        W87987  34.896  40.754  11.079
22728W        W87988  44.278  18.610   4.601
22729W        W87989  27.491  40.354   4.361
22730W        W87990  15.815   8.299  12.480
22731W        W87991  15.715  27.527  14.429
22732W        W87992  35.409   6.171   4.086
22733W        W87993   9.645  23.697  13.477
22734W        W87994  43.715  23.479  12.643
22735W        W87995  24.473  34.455   4.034
22736W        W87996  24.965  19.473   4.969
22737W        W87997  16.750  14.120   3.780
22738W        W87998  34.985   8.720   0.517
22739W        W87999  38.297  14.476   2.136
22740W        W88000  10.040  36.708  14.608
22741W        W88001  27.594  18.051   2.458
22742W        W88002  42.393  10.768  12.639
22743W        W88003  41.435  41.682   2.558
22744W        W88004  24.183  30.512  12.523
22745W        W88005   3.292  42.390   1.819
22746W        W88006  29.528  44.863  10.903
22747W        W88007  43.468  41.962   3.376
22748W        W88008  14.264   4.150   4.559
22749W        W88009  29.928  25.129   4.832
22750W        W88010   5.803   3.884  14.927
22751W        W88011  42.785  17.534   2.498
22752W        W88012  26.590   4.443   4.524
22753W        W88013  43.959   4.239  13.046
22754W        W88014  16.882  29.463   2.320
22755W        W88015   1.983  14.047   1.708
22756W        W88016  19.117  38.942  13.468
22757W        W88017  22.216   5.001   2.346
22758W        W88018  20.159  29.646   0.229
22759W        W88019   4.868  15.608   1.035
22760W        W88020  16.006   7.623  14.569
22761W        W88021  16.639  12.752  13.441
22762W        W88022  19.924  41.929  14.447
22763W        W88023   3.385  33.869   1.606
22764W        W88024  36.214  34.554  13.467
22765W        W88025  23.844  12.404  14.254
22766W        W88026  11.780   8.170   3.571
22767W        W88027  12.064  42.246   4.793
22768W        W88028  18.131  35.264   1.876
22769W        W88029  31.779  16.659  11.327
22770W        W88030  24.011  17.151  13.690
22771W        W88031  42.860  40.330  13.532
22772W        W88032  16.630  31.485   2.868
22773W        W88033  21.301  14.393  12.914
22774W        W88034   6.146  21.468   4.177
22775W        W88035  17.830  42.733  12.577
22776W        W88036   0.907  20.420   1.303
22777W        W88037  10.174  41.723  13.321
22778W        W88038  34.430   3.466   1.933
22779W        W88039  13.510   2.336   1.460
22780W        W88040  37.865  19.051   4.274
22781W        W88041  27.979  12.163  12.203
22782W        W88042  41.627  40.530   4.663
22783W        W88043  13.164  20.444  12.512
22784W        W88044  29.904  27.642   1.394
22785W        W88045   4.645  40.509   5.009
22786W        W88046   4.674  22.268   3.117
22787W        W88047   7.206   5.697  11.223
22788W        W88048   8.867  25.409  12.863
22789W        W88049  22.203  28.547  11.190
22790W        W88050  29.889  31.935  11.891
22791W        W88051   0.474  30.005  12.442
22792W        W88052  28.048  35.049  14.432
22793W        W88053  15.080   6.859   4.493
22794W        W88054  43.874  43.577  12.009
22795W        W88055  13.001  42.299  13.559
22796W        W88056  38.653  39.767   4.707
22797W        W88057   1.192  38.015  14.066
22798W        W88058  17.053  32.613  14.889
22799W        W88059  21.548  40.250  13.668
22800W        W88060  41.389  42.190  11.102
22801W        W88061  18.313  38.459  13.559
22802W        W88062  44.326  19.255   4.144
22803W        W88063  40.431  27.653  10.538
22804W        W88064  28.049  34.152  13.156
22805W        W88065  34.399   2.628  10.563
22806W        W88066  27.372  31.464  14.056
22807W        W88067  20.131  27.186   1.377
22808W        W88068  23.657   4.363   1.816
22809W        W88069  31.666  25.732   1.302
22810W        W88070  33.040  34.000  14.008
22811W        W88071   7.765  10.277  13.091
22812W        W88072  27.155  24.760   3.143
22813W        W88073  15.255  22.897   2.354
22814W        W88074  17.239  42.890  11.686
22815W        W88075  41.239  22.816   3.032
22816W        W88076  10.714  33.678   1.913
22817W        W88077  16.658  28.006   1.006
22818W        W88078  43.268  28.027  10.861
22819W        W88079   5.842  12.597   0.994
22820W        W88080  22.490  23.420   2.330
22821W        W88081   7.269   6.770   1.189
22822W        W88082  30.221  19.813   4.496
22823W        W88083  25.023  44.900  10.674
22824W        W88084  12.588  25.673   3.160
22825W        W88085  39.247   9.932   3.550
22826W        W88086  39.317  33.128  12.464
22827W        W88087  41.462   2.142  12.663
22828W        W88088  15.755  35.643  10.600
22829W        W88089   9.211  37.980   0.835
22830W        W88090   8.829  40.850  14.673
22831W        W88091   1.338  21.970  11.827
22832W        W88092   2.270   7.410   2.750
22833W        W88093  14.531  19.143   3.864
22834W        W88094  16.301  26.228  12.499
22835W        W88095  36.871  12.893   3.638
22836W        W88096  40.000  32.029  14.783
22837W        W88097  13.866  12.669  12.957
22838W        W88098  23.629  25.135  10.740
22839W        W88099  24.560  40.029   3.708
22840W        W88100   2.326  20.672   2.137
22841W        W88101   4.928   1.822   4.667
22842W        W88102  12.083  12.019   0.025
22843W        W88103  40.027  33.349  11.240
22844W        W88104  39.967  31.355   2.103
22845W        W88105  17.030  32.075   4.920
22846W        W88106  14.698   8.196   4.946
22847W        W88107  17.998  28.445   1.854
22848W        W88108  19.992  18.533  13.335
22849W        W88109   9.722  21.264  13.882
22850W        W88110   3.462  19.174  12.513
22851W        W88111   6.782  35.074  14.446
22852W        W88112   0.461  10.272  12.834
22853W        W88113  31.373  15.375  13.481
22854W        W88114  43.970  10.294  13.345
22855W        W88115  25.703   6.213  11.385
22856W        W88116  28.122   0.852  14.247
22857W        W88117  29.084  28.075  10.695
22858W        W88118  36.262   2.377  13.538
22859W        W88119  18.963  35.657   1.908
22860W        W88120  16.224  40.291  14.956
22861W        W88121  13.776  35.090  11.567
22862W        W88122  41.894  40.434   2.284
22863W        W88123  33.806  20.102   2.865
22864W        W88124  20.016  17.700   1.250
22865W        W88125  41.319  18.646  12.007
22866W        W88126  42.134  33.416   4.208
22867W        W88127  24.994  28.578  12.956
22868W        W88128  26.212  39.849   0.661
22869W        W88129   1.228  16.213  13.952
22870W        W88130  17.098  36.030  11.151
22871W        W88131   5.464  20.723  14.176
22872W        W88132  28.468   9.804   0.323
22873W        W88133  43.618  16.724  13.813
22874W        W88134   6.674  36.497  11.472
22875W        W88135  40.212  13.622   1.824
22876W        W88136  34.490  18.431  13.058
22877W        W88137   3.773  35.381  11.518
22878W        W88138  21.024  31.440   1.180
22879W        W88139   4.493  26.192  11.575
22880W        W88140  14.837   8.635  12.615
22881W        W88141  30.971   6.249  14.056
22882W        W88142  14.736   0.808  10.612
22883W        W88143  18.739  23.314   2.998
22884W        W88144  35.101   9.707   0.214
22885W        W88145  20.507  33.867  10.010
22886W        W88146  14.576  39.512  12.114
22887W        W88147  32.314   8.537   0.711
22888W        W88148  26.820  43.122   3.702
22889W        W88149  23.925  37.577   2.120
22890W        W88150  18.169   5.889  12.389
22891W        W88151  14.211  29.207   4.874
22892W        W88152  43.493  25.010   3.151
22893W        W88153  24.304   1.584   4.565
22894W        W88154   7.929  36.514  14.973
22895W        W88155  32.572  35.165   0.497
22896W        W88156  34.370   8.454   3.176
22897W        W88157   2.885  38.512   0.789
22898W        W88158  40.462  35.338   4.614
22899W        W88159  19.736  20.616  12.044
22900W        W88160   9.518  40.050  11.215
22901W        W88161  25.074  16.137  11.165
22902W        W88162  33.830  10.669   0.059
22903W        W88163  13.021  33.861  13.543
22904W        W88164  20.566  16.055   4.038
22905W        W88165  31.371  34.180  10.952
22906W        W88166  14.239  34.016   3.438
22907W        W88167  44.732  23.156   1.938
22908W        W88168  12.476  23.274   3.100
22909W        W88169  42.309   3.479  13.429
22910W        W88170  34.822  28.618   3.102
22911W        W88171  30.522   9.902   3.590
22912W        W88172  15.254   2.931  14.646
22913W        W88173  39.101  37.797  12.809
22914W        W88174   6.279   4.924  14.401
22915W        W88175  29.720  37.400   4.020
22916W        W88176  28.484  39.435   1.373
22917W        W88177  20.951  36.567   2.462
22918W        W88178   0.678  14.944   3.781
22919W        W88179   5.736   2.439  12.898
22920W        W88180  10.818  31.846  14.919
22921W        W88181  23.521  39.885   2.283
22922W        W88182  39.623   9.566  11.687
22923W        W88183  30.047   9.293   3.759
22924W        W88184  27.891  25.205   0.833
22925W        W88185  37.627  14.656  11.320
22926W        W88186   9.184   4.530  14.448
22927W        W88187   3.911  18.162   3.839
22928W        W88188  16.207  32.363   0.828
22929W        W88189  24.582  37.983  12.479
22930W        W88190  18.920   7.660   1.302
22931W        W88191  27.380   2.333  12.956
22932W        W88192   4.474  22.481  10.653
22933W        W88193  25.734  15.746   2.733
22934W        W88194  10.935   1.691   3.164
22935W        W88195  39.531  29.333   2.424
22936W        W88196  42.983  39.097  14.720
22937W        W88197  44.467  36.116  14.728
22938W        W88198  25.628   7.639   1.590
22939W        W88199  10.483   2.070   0.513
22940W        W88200  16.547   4.346   0.046
22941W        W88201  28.670   1.258  12.386
22942W        W88202   1.300  27.160   4.030
22943W        W88203  18.177  14.196   0.975
22944W        W88204  24.213  39.825   0.472
22945W        W88205  34.431  11.098  12.488
22946W        W88206  38.488  17.210  14.991
22947W        W88207  29.536  31.229  13.998
22948W        W88208  42.870  20.616   3.285
22949W        W88209  44.773   6.218   3.443
22950W        W88210  10.297  11.720   2.019
22951W        W88211   1.315  33.520   2.359
22952W        W88212  17.774  31.055   4.882
22953W        W88213  34.815  19.496   2.196
22954W        W88214  35.406  14.133   4.380
22955W        W88215  35.145   5.860   1.239
22956W        W88216  22.489   2.715   2.124
22957W        W88217  42.460  40.874   2.787
22958W        W88218  30.132  21.140  12.330
22959W        W88219   1.662  32.430   3.790
22960W        W88220  31.852  27.554   2.111
22961W        W88221  30.897   4.398   4.161
22962W        W88222  38.045  35.657   3.706
22963W        W88223   4.812  42.198  12.998
22964W        W88224  26.551  40.958   4.314
22965W        W88225  24.768   6.953  10.841
22966W        W88226  20.990  36.830  11.303
22967W        W88227  17.721  39.396   0.647
22968W        W88228  29.131  41.969  13.442
22969W        W88229   8.711  11.513   3.292
22970W        W88230  40.051  12.780   1.420
22971W        W88231  21.697   5.864  14.367
22972W        W88232  12.956  42.910  11.378
22973W        W88233  30.954  37.359   2.339
22974W        W88234  25.088   5.763  10.662
22975W        W88235  25.047  27.026   0.717
22976W        W88236  10.377  24.678   4.113
22977W        W88237   6.575  33.445   1.815
22978W        W88238  30.469   8.472   1.895
22979W        W88239  22.045  20.060  11.125
22980W        W88240   8.196   6.745   2.768
22981W        W88241  36.323  10.213  14.336
22982W        W88242   5.175  44.009   3.705
22983W        W88243  19.142  13.314  10.718
22984W        W88244   8.320  34.673   3.579
22985W        W88245  14.583  15.668   1.910
22986W        W88246  25.321  18.528   3.501
22987W        W88247  33.347  30.945   0.451
22988W        W88248  32.847  28.557   1.805
22989W        W88249  24.655  41.303   0.513
22990W        W88250   6.018  12.188   4.167
22991W        W88251   7.289  44.435   3.297
22992W        W88252  41.543  30.381  10.695
22993W        W88253  29.479  23.031   0.434
22994W        W88254  36.293  32.607  14.367
22995W        W88255  39.557   5.566   0.199
22996W        W88256   6.709  38.473   4.096
22997W        W88257  42.545  17.647   0.468
22998W        W88258  29.134  40.408   0.026
22999W        W88259  42.037   0.543   3.298
23000W        W88260  32.177  36.954   1.436
23001W        W88261  17.964   3.087   0.927
23002W        W88262  43.733  25.832   4.746
23003W        W88263   4.451   7.384   3.674
23004W        W88264  17.403  22.217   3.308
23005W        W88265  35.948   5.764   0.797
23006W        W88266  20.266  41.776   1.416
23007W        W88267  13.830  10.155  12.578
23008W        W88268  42.541  35.682   0.283
23009W        W88269  32.551   9.822  13.881
23010W        W88270  32.008  23.213  11.205
23011W        W88271  43.788  18.953   0.167
23012W        W88272  35.003  32.004   1.820
23013W        W88273   6.871   1.927  11.176
23014W        W88274  21.520  15.513   2.929
23015W        W88275  42.829   4.327   4.764
23016W        W88276  23.306  42.129  14.137
23017W        W88277  20.396  29.299  11.641
23018W        W88278  30.498  37.238   1.442
23019W        W88279  17.092  18.161  10.303
23020W        W88280  32.041  43.363   4.446
23021W        W88281  14.112   1.729  13.170
23022W        W88282  11.014  20.869   0.881
23023W        W88283  39.142  19.844  12.195
23024W        W88284  41.590   8.090  14.244
23025W        W88285   7.472  14.331  11.390
23026W        W88286  44.921  24.577   3.640
23027W        W88287  32.080  16.305   2.949
23028W        W88288  30.131  38.875  11.629
23029W        W88289  19.887  37.915   5.363
23030W        W88290  12.110  17.642  12.585
23031W        W88291   4.032  36.534  14.277
23032W        W88292  33.583  32.925  14.881
23033W        W88293  22.456  34.556   3.072
23034W        W88294  22.618  37.399   2.910
23035W        W88295  27.538  41.570  12.183
23036W        W88296  32.065  33.212   2.235
23037W        W88297  21.641  43.609  14.607
23038W        W88298  33.580  37.448   3.647
23039W        W88299   7.630  33.342  12.929
23040W        W88300  16.421   6.073   2.436
23041W        W88301   0.663  18.724  11.727
23042W        W88302  15.137  42.029   3.961
23043W        W88303  32.297  12.526  13.486
23044W        W88304  38.881  37.185  13.254
23045W        W88305  37.547  21.645  12.475
23046W        W88306  28.722  40.540  13.365
23047W        W88307   2.810  21.450  11.520
23048W        W88308  41.534   6.982   0.437
23049W        W88309  19.231  16.292   0.982
23050W        W88310  13.092  31.845   1.404
23051W        W88311  15.304   7.470   3.307
23052W        W88312   4.424  33.651   0.620
23053W        W88313  15.786  19.711  13.407
23054W        W88314  35.326  18.069  12.969
23055W        W88315   2.050   2.840  11.610
23056W        W88316  41.241  38.211   0.707
23057W        W88317   7.316   9.638  12.830
23058W        W88318  26.109  38.516  14.893
23059W        W88319   3.592  13.292   3.832
23060W        W88320  21.825  19.685  14.306
23061W        W88321  26.518   7.756  12.973
23062W        W88322  11.713  17.942   3.211
23063W        W88323  22.629  20.065  13.948
23064W        W88324  41.765  15.279  13.417
23065W        W88325  17.302  33.888   0.737
23066W        W88326  16.311   8.783   2.825
23067W        W88327  21.314   6.467   1.366
23068W        W88328   3.377  41.661   0.061
23069W        W88329  25.246   8.966  11.133
23070W        W88330  10.993   2.893  14.648
23071W        W88331  11.082  19.003   4.965
23072W        W88332  18.036  37.809  14.507
23073W        W88333   8.716   8.811  11.243
23074W        W88334   7.421  33.461   0.828
23075W        W88335   2.432  38.618   3.262
23076W        W88336  33.738  25.065  10.411
23077W        W88337  35.856   5.063   4.589
23078W        W88338  37.287  25.600   1.755
23079W        W88339  34.803  28.397  11.000
23080W        W88340  35.912  25.479  12.439
23081W        W88341   7.211  38.794   1.852
23082W        W88342  44.895  19.070   3.413
23083W        W88343  20.985  29.167   3.679
23084W        W88344  24.474  21.489   4.536
23085W        W88345  28.461  19.826  12.738
23086W        W88346  16.814  31.807   0.973
23087W        W88347  37.398  44.899   2.175
23088W        W88348  12.675  25.728   4.095
23089W        W88349  21.539  17.605  13.494
23090W        W88350  35.515  27.653   1.446
23091W        W88351  13.850   0.277   2.088
23092W        W88352  40.959   2.778  12.100
23093W        W88353  11.826  42.984  14.242
23094W        W88354  30.703  11.301   0.355
23095W        W88355  41.864  39.066   3.819
23096W        W88356  33.562  42.988  10.981
23097W        W88357  40.443  20.299   2.809
23098W        W88358  33.390  12.101   1.398
23099W        W88359  11.700  17.551   1.328
23100W        W88360  28.958  43.903  12.795
23101W        W88361  26.185  43.975  11.054
23102W        W88362  38.032  39.001   4.512
23103W        W88363  31.996   3.774  13.058
23104W        W88364   0.085  11.200  12.599
23105W        W88365  42.074  30.969  14.025
23106W        W88366  19.446   2.889  14.690
23107W        W88367  13.501   7.197  12.093
23108W        W88368  17.078  26.660   3.819
23109W        W88369  26.389  20.187   3.950
23110W        W88370  23.914  18.031  13.513
23111W        W88371  10.618  25.573   5.519
23112W        W88372  38.996  11.384   4.723
23113W        W88373  25.104   3.446  13.363
23114W        W88374  30.331   3.688   0.559
23115W        W88375  36.537  42.436   4.108
23116W        W88376  18.292  36.218   3.124
23117W        W88377  21.129  12.499   5.022
23118W        W88378   9.277   2.412  12.529
23119W        W88379  11.385   9.094  11.996
23120W        W88380   1.321  12.325  13.295
23121W        W88381  11.894  33.937   2.841
23122W        W88382  33.026   1.729   1.891
23123W        W88383  29.337  20.225   0.576
23124W        W88384  28.489  11.723  13.000
23125W        W88385  19.008  27.339   0.957
23126W        W88386  40.114  44.289   3.616
23127W        W88387  27.447   9.870   1.196
23128W        W88388  44.375  34.137   1.732
23129W        W88389  18.529  22.272   3.694
23130W        W88390  14.209  20.554  10.343
23131W        W88391   9.408  18.198  12.648
23132W        W88392  44.150  23.233   3.761
23133W        W88393  21.625   0.767  13.524
23134W        W88394  35.769  33.015  14.805
23135W        W88395  38.965  36.604   2.168
23136W        W88396  42.510  22.029   2.180
23137W        W88397  21.077  15.319   4.984
23138W        W88398  32.841  16.114   0.451
23139W        W88399  28.911   2.175   1.951
23140W        W88400  12.375  39.077  13.477
23141W        W88401  14.792  26.439   4.520
23142W        W88402   4.892  36.095  12.056
23143W        W88403  20.945   8.392  11.299
23144W        W88404  38.279  43.770  13.924
23145W        W88405  43.455  22.014  11.665
23146W        W88406  18.088   7.166  13.811
23147W        W88407  33.787  43.707  12.201
23148W        W88408  28.200  16.716  13.163
23149W        W88409  35.513  16.979  12.517
23150W        W88410  40.342  44.216   0.308
23151W        W88411  19.709  21.859  14.914
23152W        W88412   2.723  13.147  13.243
23153W        W88413  10.687  23.485   2.286
23154W        W88414  21.742  44.243  12.026
23155W        W88415  12.528  17.868  11.711
23156W        W88416  32.195  17.644   3.768
23157W        W88417  14.762  19.325   0.766
23158W        W88418  38.846  23.454   1.401
23159W        W88419  12.648  12.646   2.400
23160W        W88420   9.594  44.388  11.082
23161W        W88421  22.965  14.819   3.882
23162W        W88422  43.210  24.661   2.346
23163W        W88423  24.577  19.566   1.465
23164W        W88424  10.549  28.491   0.704
23165W        W88425  40.684  14.745  13.767
23166W        W88426  34.053  18.711  12.039
23167W        W88427  36.123  22.835  14.980
23168W        W88428  39.828  29.100  14.839
23169W        W88429  27.699   9.300  12.568
23170W        W88430  38.236   6.845   1.152
23171W        W88431  12.234  12.113  14.097
23172W        W88432  21.800  22.125  13.481
23173W        W88433  13.402  23.268   2.406
23174W        W88434  11.118   0.901   4.581
23175W        W88435  25.575   4.392   5.401
23176W        W88436   4.892  20.531  13.325
23177W        W88437   4.381  17.261  13.432
23178W        W88438   7.444  12.333   3.717
23179W        W88439   6.771  21.987   3.144
23180W        W88440  22.512  39.111  13.682
23181W        W88441   8.276  43.216   1.256
23182W        W88442  32.434  33.847   0.788
23183W        W88443  39.811   7.706   1.382
23184W        W88444  38.134  43.387   2.763
23185W        W88445  24.995   9.387  11.002
23186W        W88446  10.538  29.483  14.762
23187W        W88447  15.102  35.997   5.147
23188W        W88448  33.132   9.226   2.806
23189W        W88449  39.009  38.626   2.388
23190W        W88450  14.624  15.796   4.932
23191W        W88451  39.066   0.429   1.654
23192W        W88452  31.887  32.450   2.879
23193W        W88453  43.290  17.265   2.374
23194W        W88454  34.556  25.963  13.384
23195W        W88455   3.372  37.131   4.178
23196W        W88456  21.471   8.903   3.634
23197W        W88457  20.802  43.834   0.984
23198W        W88458   2.957  39.573   1.717
23199W        W88459  41.324  38.510   3.171
23200W        W88460  30.398  35.926  14.748
23201W        W88461   3.183  19.043  12.975
23202W        W88462  17.259  33.501   2.327
23203W        W88463  33.572   6.255  11.550
23204W        W88464   7.234  13.791   0.545
23205W        W88465  38.041  35.626   1.370
23206W        W88466  21.512  21.506  12.615
23207W        W88467  20.233  18.983   0.794
23208W        W88468  15.378  24.171  14.953
23209W        W88469   7.924   3.214  13.341
23210W        W88470  31.674  27.479   3.527
23211W        W88471   4.861   3.307   1.504
23212W        W88472  14.233  32.902   2.174
23213W        W88473  19.025  22.787  14.685
23214W        W88474   6.326   4.317  13.510
23215W        W88475  29.241  34.086  11.984
23216W        W88476  16.584  38.488   4.840
23217W        W88477  21.964  37.584  11.615
23218W        W88478  27.075  21.109  14.579
23219W        W88479   3.879  19.577   4.714
23220W        W88480  36.436  15.094   3.238
23221W        W88481  34.931  13.256  14.862
23222W        W88482  30.210  37.091   2.683
23223W        W88483  44.743  13.429   4.973
23224W        W88484  39.939  28.957   2.297
23225W        W88485  15.257  14.818   2.218
23226W        W88486  11.147  44.166  14.381
23227W        W88487  15.245  14.173  12.849
23228W        W88488  28.398  31.224   0.180
23229W        W88489  30.058  16.898  14.883
23230W        W88490  40.973   7.730  10.678
23231W        W88491   1.725  26.464  11.596
23232W        W88492  33.079   4.585   0.441
23233W        W88493   6.825  26.836  13.644
23234W        W88494  43.536  14.615   4.649
23235W        W88495  20.210  41.908   4.094
23236W        W88496  23.563  27.686  10.545
23237W        W88497  39.874  42.295   4.662
23238W        W88498  27.087  19.082   2.748
23239W        W88499   5.869  43.987  13.186
23240W        W88500  34.727  15.674  13.639
23241W        W88501  20.837  20.070  12.595
23242W        W88502  39.719  15.562   4.235
23243W        W88503   1.769  17.755   0.010
23244W        W88504  19.518  43.923   0.377
23245W        W88505   7.349  19.567  14.687
23246W        W88506  42.869  37.321   2.374
23247W        W88507  26.353  42.592   5.072
23248W        W88508  15.523  27.046   4.956
23249W        W88509  11.804  31.869  12.102
23250W        W88510   9.788  29.961   4.510
23251W        W88511  32.019  29.874   2.881
23252W        W88512  25.605  36.317   3.371
23253W        W88513  22.562  42.102  13.496
23254W        W88514  18.523  34.881   0.579
23255W        W88515  14.845  21.338  13.417
23256W        W88516  10.629   2.552   2.134
23257W        W88517  21.175  23.483   2.982
23258W        W88518   4.245   6.119  10.664
23259W        W88519  29.674   2.813   1.497
23260W        W88520   8.508  20.671  10.447
23261W        W88521  15.327  21.891   2.341
23262W        W88522  40.971   5.956   2.820
23263W        W88523   5.654  35.865  10.988
23264W        W88524  41.744  32.565  12.034
23265W        W88525  25.416  41.945   4.687
23266W        W88526   0.721  19.121  12.532
23267W        W88527  42.776  15.231  13.277
23268W        W88528  40.047  37.753   2.474
23269W        W88529   7.174  39.908  11.044
23270W        W88530  29.305  14.712  11.708
23271W        W88531  43.148  12.041  14.449
23272W        W88532  34.328  18.050   0.437
23273W        W88533  21.128  35.634   3.714
23274W        W88534  38.771  42.162  13.963
23275W        W88535  44.374  31.308   3.267
23276W        W88536  18.085   1.243  13.537
23277W        W88537  37.312  18.090  11.514
23278W        W88538  41.693  26.810  10.186
23279W        W88539  23.640  26.920   2.737
23280W        W88540  34.137   6.631   3.705
23281W        W88541  35.473  15.783  10.565
23282W        W88542   9.658  44.236   3.117
23283W        W88543   2.293  18.720   4.253
23284W        W88544   9.745   1.136   2.685
23285W        W88545  26.746  27.012  12.036
23286W        W88546  17.051  14.646   0.221
23287W        W88547  35.996  31.361   0.273
23288W        W88548  24.371  10.079  14.290
23289W        W88549  36.982  14.851   0.008
23290W        W88550  30.936  23.628   4.373
23291W        W88551   4.848  40.756   1.785
23292W        W88552   4.547  32.865  11.135
23293W        W88553   1.833  20.731   2.212
23294W        W88554  20.555  35.964   0.679
23295W        W88555  21.069  17.809  13.474
23296W        W88556  18.148  17.874   3.818
23297W        W88557  35.273  38.496  11.381
23298W        W88558  28.195  44.507  10.738
23299W        W88559   1.555  39.023   0.648
23300W        W88560  18.640  40.041   4.471
23301W        W88561  16.820  35.421   1.307
23302W        W88562  20.995  36.796  13.632
23303W        W88563  14.094  39.028  12.815
23304W        W88564  16.731  29.988   0.981
23305W        W88565  24.751  41.336   1.792
23306W        W88566  26.080  15.424  13.277
23307W        W88567  40.687  44.976   2.760
23308W        W88568  43.838  33.565  14.174
23309W        W88569  16.824  19.620  13.026
23310W        W88570   2.969  19.582  13.850
23311W        W88571  20.790  42.282   4.638
23312W        W88572  33.095   5.635   2.232
23313W        W88573  29.597  30.063   3.829
23314W        W88574  40.723  28.224   5.065
23315W        W88575  34.031  43.981   2.090
23316W        W88576  28.573  34.582   4.170
23317W        W88577  26.622  15.614   3.542
23318W        W88578  40.120  17.606  10.746
23319W        W88579   9.790  13.251  14.069
23320W        W88580   6.998   9.266   4.805
23321W        W88581  15.210   1.779   3.589
23322W        W88582  19.693  22.647   3.707
23323W        W88583  24.445  15.774   2.790
23324W        W88584  17.780  16.637  14.711
23325W        W88585  29.670  18.966   0.968
23326W        W88586  23.442   4.075   0.420
23327W        W88587  23.990   4.244   2.852
23328W        W88588  10.234   7.744  12.149
23329W        W88589   7.251  32.893  10.776
23330W        W88590  29.546  12.229   4.297
23331W        W88591  19.196  40.926  12.592
23332W        W88592  11.382  25.780   4.136
23333W        W88593  22.391  16.625  10.807
23334W        W88594  29.190  39.851  10.842
23335W        W88595  23.947  43.011  12.329
23336W        W88596  24.128   1.816   1.410
23337W        W88597  29.135   7.132   3.652
23338W        W88598   3.542  27.414  12.842
23339W        W88599  42.943  30.444   1.509
23340W        W88600  31.790  37.330   0.666
23341W        W88601  36.649   7.750  12.025
23342W        W88602  17.624  16.472   2.648
23343W        W88603  34.903  13.056  11.574
23344W        W88604  43.330  42.493  13.967
23345W        W88605  24.545  27.986   4.051
23346W        W88606  38.721  16.935  11.983
23347W        W88607   5.703  15.381  12.501
23348W        W88608  13.395  28.548  11.611
23349W        W88609  36.888   2.723   0.298
23350W        W88610  22.181  22.736  12.192
23351W        W88611  16.975  30.971  11.504
23352W        W88612  14.225  44.240   0.669
23353W        W88613  38.258   0.700   0.823
23354W        W88614  18.927   1.064  12.044
23355W        W88615  36.845  41.895  14.996
23356W        W88616   2.857  44.481  12.617
23357W        W88617  29.168  16.285  11.129
23358W        W88618  41.096  14.579   3.591
23359W        W88619  28.868  25.997  11.626
23360W        W88620  13.480  37.420  12.649
23361W        W88621  24.193  15.566  12.843
23362W        W88622   1.179  38.929  13.789
23363W        W88623  10.927  36.045  12.561
23364W        W88624  34.966   6.239   4.535
23365W        W88625  24.533  29.145   2.135
23366W        W88626   6.710  27.561  11.874
23367W        W88627   7.913   5.638  12.985
23368W        W88628  23.460  32.120  11.531
23369W        W88629  30.425  29.602  14.787
23370W        W88630  26.972  37.587   2.167
23371W        W88631  29.479   8.403   1.793
23372W        W88632  28.490  19.509  10.025
23373W        W88633  24.094  44.875   0.887
23374W        W88634  40.904  28.987   4.734
23375W        W88635  14.692  44.384  12.191
23376W        W88636  28.636  21.784   0.719
23377W        W88637  20.661  34.620  11.967
23378W        W88638  29.744   7.579   3.441
23379W        W88639  21.092  35.681   0.468
23380W        W88640  17.219  12.261   0.461
23381W        W88641  25.204  13.562   1.033
23382W        W88642  22.695  16.320  11.626
23383W        W88643  41.415   1.834  13.934
23384W        W88644   1.313  14.325   0.721
23385W        W88645  35.408  27.208  13.404
23386W        W88646   6.731   2.786  11.007
23387W        W88647  35.963   7.317  12.635
23388W        W88648  18.931  44.362   3.042
23389W        W88649   6.965   1.436   1.626
23390W        W88650  24.585  30.701   2.860
23391W        W88651  16.242  12.023  13.833
23392W        W88652  39.270  25.746  14.309
23393W        W88653  28.094  20.004  11.463
23394W        W88654  41.172   6.345   1.750
23395W        W88655  25.223   6.770   4.580
23396W        W88656  34.364  40.863  14.610
23397W        W88657  20.602  13.701  10.627
23398W        W88658  12.298  25.772   4.708
23399W        W88659  31.856  29.032  10.736
23400W        W88660  17.915  23.637   0.255
23401W        W88661  20.086  20.234   3.011
23402W        W88662   1.755  40.402  14.850
23403W        W88663   3.396   3.986  10.422
23404W        W88664  14.537  22.306   4.446
23405W        W88665  44.318   6.920  11.026
23406W        W88666   7.412  37.360  13.971
23407W        W88667  19.062   9.764  11.647
23408W        W88668  28.959   3.251  10.560
23409W        W88669  25.225   1.885   0.463
23410W        W88670   0.673  32.824   4.843
23411W        W88671  28.660  31.444   4.630
23412W        W88672  11.919  13.347  13.387
23413W        W88673  26.449   5.205  12.988
23414W        W88674  36.807  21.490   0.811
23415W        W88675  23.077   9.192  13.080
23416W        W88676  32.723  28.647  12.924
23417W        W88677  40.126  16.445  11.394
23418W        W88678   7.207   8.793   4.906
23419W        W88679  33.232  24.140   2.754
23420W        W88680  13.859  14.634   2.273
23421W        W88681   6.957  35.588  13.438
23422W        W88682   7.938   9.259  14.039
23423W        W88683   5.207  20.080   2.188
23424W        W88684  17.138  42.999  13.036
23425W        W88685   5.529  35.450  11.671
23426W        W88686   3.889  21.496   0.970
23427W        W88687   0.252  28.580   3.438
23428W        W88688  16.981  33.398   3.177
23429W        W88689   0.347   8.844   0.518
23430W        W88690  14.569  32.203   3.249
23431W        W88691  24.682   0.727   0.902
23432W        W88692  10.653   7.265  13.495
23433W        W88693  37.515   2.223  14.882
23434W        W88694  34.138  14.325   2.144
23435W        W88695  32.746  43.595   3.593
23436W        W88696   2.916  19.525  11.576
23437W        W88697  42.094  34.882  12.017
23438W        W88698  38.322  34.118   2.776
23439W        W88699  14.484  12.980  11.359
23440W        W88700   9.335  29.225  14.448
23441W        W88701  25.854  35.976  13.333
23442W        W88702  39.370  27.510   3.780
23443W        W88703  10.258   0.977   2.844
23444W        W88704  21.575  37.536  13.190
23445W        W88705  16.750  14.178   2.723
23446W        W88706  36.518  34.174  13.296
23447W        W88707  26.640  13.612  12.326
23448W        W88708  44.726  16.585  12.150
23449W        W88709  34.061  27.457  11.708
23450W        W88710  14.838  42.291  12.420
23451W        W88711  36.294  42.877  13.487
23452W        W88712   1.012  26.355   2.261
23453W        W88713  12.869  42.102  11.916
23454W        W88714  30.185  16.984   0.378
23455W        W88715  33.316  30.501  13.363
23456W        W88716  20.611  36.717  13.990
23457W        W88717  25.700   0.455   2.303
23458W        W88718  17.598  20.606  13.306
23459W        W88719  16.064   3.429  13.231
23460W        W88720  23.428  26.048   4.336
23461W        W88721   4.389   8.730   0.973
23462W        W88722   0.626  20.433  13.080
23463W        W88723  19.723  39.895   3.135
23464W        W88724  39.028  34.591   2.549
23465W        W88725  15.832   0.516   0.334
23466W        W88726   9.746  14.582   4.572
23467W        W88727  26.876  40.911   0.388
23468W        W88728  25.565  18.108   3.676
23469W        W88729  14.367  15.747  11.537
23470W        W88730  31.175   3.155  12.128
23471W        W88731   6.693  20.154   2.680
23472W        W88732  12.299  34.007   3.640
23473W        W88733  44.832  25.094   1.756
23474W        W88734  32.217  22.000   0.051
23475W        W88735  36.839  28.825  12.354
23476W        W88736  16.516  39.958   4.381
23477W        W88737  39.609  40.820  10.470
23478W        W88738  24.432  17.751  12.996
23479W        W88739  10.313  42.706   1.927
23480W        W88740  33.372  39.259  11.213
23481W        W88741  29.077  27.871  13.352
23482W        W88742  13.612  29.062   0.397
23483W        W88743  20.829  16.918  12.862
23484W        W88744  18.300  39.093   0.887
23485W        W88745  37.270  17.640  14.376
23486W        W88746  14.345  35.187   2.237
23487W        W88747  31.372  18.366   2.963
23488W        W88748  34.053  27.376   1.416
23489W        W88749  33.018  28.531  13.794
23490W        W88750  29.506  25.983  14.816
23491W        W88751   1.380   9.580  13.496
23492W        W88752  24.659   9.936   2.830
23493W        W88753  37.967   4.244   2.294
23494W        W88754  10.257  24.038  11.500
23495W        W88755  20.728   3.381  10.412
23496W        W88756  40.508  30.201   0.348
23497W        W88757  35.432  31.209   1.937
23498W        W88758  44.891  13.558   4.109
23499W        W88759  34.207   6.969  13.874
23500W        W88760  23.911  43.328  14.251
23501W        W88761   3.398  22.738  12.333
23502W        W88762   0.371   5.948  14.436
23503W        W88763  40.846   8.673  11.169
23504W        W88764  42.771  40.461   2.804
23505W        W88765  34.135  33.736   3.086
23506W        W88766  19.221   4.190   3.834
23507W        W88767  40.435  23.572  14.458
23508W        W88768  28.117  31.035  13.588
23509W        W88769  13.748  27.212  12.848
23510W        W88770  14.096  19.546  13.845
23511W        W88771   8.294  29.979  12.888
23512W        W88772  10.195  21.058  13.908
23513W        W88773  42.889  26.454   1.282
23514W        W88774  26.459  36.588  14.205
23515W        W88775  17.798  39.866  11.480
23516W        W88776  30.157  37.600  11.239
23517W        W88777  32.526   1.426  11.173
23518W        W88778   4.468  44.707  14.458
23519W        W88779   8.926  40.491   0.623
23520W        W88780  13.986  28.615  11.021
23521W        W88781   7.345  38.536  12.938
23522W        W88782  42.772  34.077   1.907
23523W        W88783  21.688  26.769   0.846
23524W        W88784  19.739   1.454  12.364
23525W        W88785   9.164  40.113  13.550
23526W        W88786  25.166  42.583   3.250
23527W        W88787  10.834  44.762  12.492
23528W        W88788   3.400  33.574  11.545
23529W        W88789  19.633   6.873  13.055
23530W        W88790  12.917  28.438  11.499
23531W        W88791  24.030   9.121   0.181
23532W        W88792  23.183  22.828   2.123
23533W        W88793  22.875   7.789   1.538
23534W        W88794  36.669  17.077  13.621
23535W        W88795  26.678  39.485  14.512
23536W        W88796   8.702   7.359  13.272
23537W        W88797  29.727  19.953   0.306
23538W        W88798  37.484  10.841   3.246
23539W        W88799  42.878  23.766  11.728
23540W        W88800  20.199   4.576   5.058
23541W        W88801  42.306  24.679  13.850
23542W        W88802  38.774  16.662  13.639
23543W        W88803  10.868  28.157   1.804
23544W        W88804   5.881   2.496  11.295
23545W        W88805  12.261  34.164  14.586
23546W        W88806  17.054  30.618   3.587
23547W        W88807   1.248   1.917   2.625
23548W        W88808  44.988  27.952   3.259
23549W        W88809  32.568  22.444  14.321
23550W        W88810   8.015   1.877  11.997
23551W        W88811  14.632  41.205  11.173
23552W        W88812  17.778  26.686  14.501
23553W        W88813   4.477  25.023  11.926
23554W        W88814  28.376  19.239   0.746
23555W        W88815  29.155  19.429  12.785
23556W        W88816  28.182   1.648   0.785
23557W        W88817  26.189  42.800   4.222
23558W        W88818  13.559  43.882   3.103
23559W        W88819   6.712  41.280  12.943
23560W        W88820  12.513  35.990  10.729
23561W        W88821   5.779   0.707  12.618
23562W        W88822  38.965  17.786   0.303
23563W        W88823  10.066  10.826  14.550
23564W        W88824   5.878   1.891   1.381
23565W        W88825  37.922  28.975  13.822
23566W        W88826   6.944   0.310  13.090
23567W        W88827  22.576  41.501   0.417
23568W        W88828  13.615  38.244  10.723
23569W        W88829  15.608  17.062  14.063
23570W        W88830  11.285  22.176   0.057
23571W        W88831  37.563  37.223  13.261
23572W        W88832  43.745  23.467  14.062
23573W        W88833  36.836   5.065   0.891
23574W        W88834  35.006  44.452  13.400
23575W        W88835  20.770   1.192   4.043
23576W        W88836  19.150  24.165   3.695
23577W        W88837  25.425  43.966  14.810
23578W        W88838  16.768  21.190   2.334
23579W        W88839  15.901  43.682   9.936
23580W        W88840   3.919  26.023  14.083
23581W        W88841  18.212  39.071  11.557
23582W        W88842  23.973  18.832  14.840
23583W        W88843   2.396  26.922   0.702
23584W        W88844  19.162  41.306   3.074
23585W        W88845  34.161  22.589  13.012
23586W        W88846  30.062  19.027   3.267
23587W        W88847  22.064  28.811  13.082
23588W        W88848   0.375  34.323  13.292
23589W        W88849  15.955  24.672  14.067
23590W        W88850  29.131  13.634  12.947
23591W        W88851   2.995  41.452   2.456
23592W        W88852   8.748  14.461   4.695
23593W        W88853  34.391   1.145   3.174
23594W        W88854  11.090   4.916  14.921
23595W        W88855  35.649  43.816   1.827
23596W        W88856  39.957  19.131   3.911
23597W        W88857  42.496  36.619   0.307
23598W        W88858  11.678  27.133   3.956
23599W        W88859  13.174  20.679   2.401
23600W        W88860  39.701  19.831   2.883
23601W        W88861   4.893  32.054  11.446
23602W        W88862  17.700  32.250  11.057
23603W        W88863   7.117   4.882   4.227
23604W        W88864  33.018  41.262  12.755
23605W        W88865  10.384   1.879  12.931
23606W        W88866  11.393  44.491   1.128
23607W        W88867  39.828   4.136  12.904
23608W        W88868  10.960  37.327   2.008
23609W        W88869  40.905  22.600  14.741
23610W        W88870  26.076  20.837   3.580
23611W        W88871  30.909  40.780  10.627
23612W        W88872  28.991   2.242   0.312
23613W        W88873  41.577  44.954   0.869
23614W        W88874  18.257  10.562   0.522
23615W        W88875  35.079   7.496  10.878
23616W        W88876   5.412  32.534   2.179
23617W        W88877  44.329  18.577  11.065
23618W        W88878  43.393  15.809  14.221
23619W        W88879  12.044  20.630   0.792
23620W        W88880  44.798  35.408   0.733
23621W        W88881  20.219  31.428  13.509
23622W        W88882  32.386  23.678  13.313
23623W        W88883  25.451  23.348  12.267
23624W        W88884  24.028   1.349  14.272
23625W        W88885  37.605  38.003  10.732
23626W        W88886  14.675  44.555   2.652
23627W        W88887  17.855  40.475  14.844
23628W        W88888  26.946  38.991  11.652
23629W        W88889   4.940   2.778   2.972
23630W        W88890  36.543  31.177  14.273
23631W        W88891  24.336   1.487   3.361
23632W        W88892  15.846  27.109   4.152
23633W        W88893  26.636  44.295   1.807
23634W        W88894   9.342  17.448   4.513
23635W        W88895   5.338  21.856   3.677
23636W        W88896  15.967  43.426   0.871
23637W        W88897  17.414  23.797  10.277
23638W        W88898  12.605  15.837   4.167
23639W        W88899   2.986  28.372  13.302
23640W        W88900   3.330   3.503  11.681
23641W        W88901   8.850  22.704  13.731
23642W        W88902  12.102  44.262  13.489
23643W        W88903  26.162  11.269   4.052
23644W        W88904   9.738  31.870  14.834
23645W        W88905  41.035  19.006   1.241
23646W        W88906  18.715  43.805   0.890
23647W        W88907   0.670  30.943  12.141
23648W        W88908  26.730   2.310  14.436
23649W        W88909  15.157  18.014  13.953
23650W        W88910  10.797  24.284  11.544
23651W        W88911  40.693  42.625   3.990
23652W        W88912   6.688  19.617   1.020
23653W        W88913   6.015  26.989   3.155
23654W        W88914   6.207  20.924   0.875
23655W        W88915  24.487  22.102  14.808
23656W        W88916  18.174  20.474  11.222
23657W        W88917   4.421  21.283   3.113
23658W        W88918  18.847  29.006   0.314
23659W        W88919  11.293   6.811  12.921
23660W        W88920   1.068   1.847  11.522
23661W        W88921  27.550  22.120   4.415
23662W        W88922  27.550  44.698  12.384
23663W        W88923   7.457   4.459  12.419
23664W        W88924  12.973  23.677   0.760
23665W        W88925   5.440  14.489  10.723
23666W        W88926   1.628  12.380   2.996
23667W        W88927  42.018  39.882   0.391
23668W        W88928   7.165  42.967   4.673
23669W        W88929   0.294  32.490  11.107
23670W        W88930  15.171  27.013   0.511
23671W        W88931   7.149   6.643   3.796
23672W        W88932  12.200  38.147   2.463
23673W        W88933  41.764  30.624  14.828
23674W        W88934  39.127  29.477  12.471
23675W        W88935  32.953  28.068  13.579
23676W        W88936  18.606  41.732  12.128
23677W        W88937  26.222  31.914  13.514
23678W        W88938  17.721  18.681  13.528
23679W        W88939  38.065  22.215  11.068
23680W        W88940  40.525  27.225   0.013
23681W        W88941   8.899  31.681   2.419
23682W        W88942  21.487  35.937  12.827
23683W        W88943  34.674   7.876   4.724
23684W        W88944   4.230  37.000  14.315
23685W        W88945   6.691   6.270   1.395
23686W        W88946  20.240  21.558   3.288
23687W        W88947   8.899  35.044   1.819
23688W        W88948   1.825  26.669   2.694
23689W        W88949   5.537  12.555  12.927
23690W        W88950   3.251  12.875  11.273
23691W        W88951   2.106  30.830  14.804
23692W        W88952   7.932  14.423   1.386
23693W        W88953   9.549   5.978   3.166
23694W        W88954  43.809  25.975  10.744
23695W        W88955  28.500   0.232  10.384
23696W        W88956   2.947  24.480  14.838
23697W        W88957  30.133  41.582   1.189
23698W        W88958  10.015  35.851   3.925
23699W        W88959  28.392  32.304  13.782
23700W        W88960  38.393  42.936   0.957
23701W        W88961   3.377   3.816   0.002
23702W        W88962   9.114  20.118  13.346
23703W        W88963  29.561  30.068   4.370
23704W        W88964  38.858  32.395   2.314
23705W        W88965  11.618  22.739   2.884
23706W        W88966   5.850  26.882   4.064
23707W        W88967  27.946  38.886  11.745
23708W        W88968  39.436  26.873   0.938
23709W        W88969   6.475   4.341  12.458
23710W        W88970   8.358   3.465   2.760
23711W        W88971  28.928  32.031   1.809
23712W        W88972  26.274   1.028   3.378
23713W        W88973  38.059  38.146   3.012
23714W        W88974   5.182   6.517  11.589
23715W        W88975   7.201  14.381  12.918
23716W        W88976  24.509   9.246   1.423
23717W        W88977  12.857  37.991  11.195
23718W        W88978  38.023  39.992   3.080
23719W        W88979  23.089  31.507   0.967
23720W        W88980  33.146   8.709   2.355
23721W        W88981  32.766  44.003   1.029
23722W        W88982  19.355   9.271  14.937
23723W        W88983  41.565   4.229   2.871
23724W        W88984   6.798  26.163   0.920
23725W        W88985   3.131  12.079   3.188
23726W        W88986   3.718  29.736  14.232
23727W        W88987  44.551   1.550   2.192
23728W        W88988  10.314  17.968   4.144
23729W        W88989  42.830  44.853   1.016
23730W        W88990  24.437   1.472   0.562
23731W        W88991  26.960  15.359   0.354
23732W        W88992  20.067  14.455  10.942
23733W        W88993  44.255  13.865   4.596
23734W        W88994  27.674  24.422  11.726
23735W        W88995  35.596  38.045  14.129
23736W        W88996  36.514  13.909  14.292
23737W        W88997   3.130   3.669   3.540
23738W        W88998  38.474  24.773  12.464
23739W        W88999  40.781  24.583   2.437
23740W        W89000  12.804  15.832   2.260
23741W        W89001  33.947  41.119  14.905
23742W        W89002  44.384  21.989   0.685
23743W        W89003  26.179  13.439   1.851
23744W        W89004   4.332   2.743   2.489
23745W        W89005   8.283  28.926   2.882
23746W        W89006   7.599   2.243  13.004
23747W        W89007   0.088  32.123   2.009
23748W        W89008  14.380  39.028  12.387
23749W        W89009   0.358  29.495  12.599
23750W        W89010   9.185  13.441   1.389
23751W        W89011  36.645  30.084  12.942
23752W        W89012  41.337  27.534   1.417
23753W        W89013   4.159  40.378   2.868
23754W        W89014   4.648  41.053  14.295
23755W        W89015  13.235  17.623   1.302
23756W        W89016  25.620  20.153   1.572
23757W        W89017   5.020  31.795  13.735
23758W        W89018  43.341   5.181   1.334
23759W        W89019  13.779  37.405  12.110
23760W        W89020  40.530  43.369   0.702
23761W        W89021  15.509   9.818   1.551
23762W        W89022  38.570  10.098   4.615
23763W        W89023   2.237  22.288   3.450
23764W        W89024  42.957   9.423   3.718
23765W        W89025  12.812  23.172  13.855
23766W        W89026  32.605  36.393   0.285
23767W        W89027  26.581  28.424   0.227
23768W        W89028  23.674  39.849  13.697
23769W        W89029  27.432  41.052   2.723
23770W        W89030  21.662  10.240   1.188
23771W        W89031  40.721  34.470  13.056
23772W        W89032  14.360  10.343  10.513
23773W        W89033  33.598  20.751  14.322
23774W        W89034  15.819  16.367  12.359
23775W        W89035  33.651  10.849  10.319
23776W        W89036  40.783  33.837   3.691
23777W        W89037  29.565   8.983  13.786
23778W        W89038   2.768  38.047   4.542
23779W        W89039   2.368  28.524   3.186
23780W        W89040   8.289   6.027  13.014
23781W        W89041  15.863  37.042   4.770
23782W        W89042  41.935   5.944  13.421
23783W        W89043  14.588  40.818   1.487
23784W        W89044  38.350   4.891  12.960
23785W        W89045  30.751  29.923   0.567
23786W        W89046  16.486   2.558   1.866
23787W        W89047  35.474  19.770  13.017
23788W        W89048  33.032  44.713   2.858
23789W        W89049  16.212   4.714   2.773
23790W        W89050  24.963   5.891  12.395
23791W        W89051  27.656   6.398  13.675
23792W        W89052  23.675  33.811  14.502
23793W        W89053  25.817  25.607   0.352
23794W        W89054  26.098  38.879  12.625
23795W        W89055  34.293   3.373  11.637
23796W        W89056   9.240  22.994   4.833
23797W        W89057  30.585  12.990  14.942
23798W        W89058   2.892  37.789  12.485
23799W        W89059  34.974   1.537   3.740
23800W        W89060  25.015  11.567   4.580
23801W        W89061   8.934   1.540   2.298
23802W        W89062   1.555  19.554  11.654
23803W        W89063  35.628   9.446   4.287
23804W        W89064  12.623   5.660   4.848
23805W        W89065   9.794  36.819  13.315
23806W        W89066  34.080  30.177  11.111
23807W        W89067  39.325  28.990  14.805
23808W        W89068   2.673  29.350   3.729
23809W        W89069  24.007   0.885   2.046
23810W        W89070   2.339  33.694  14.426
23811W        W89071  22.979  19.562   4.670
23812W        W89072  17.263  35.948   4.497
23813W        W89073   4.795  36.308   4.682
23814W        W89074  43.844  16.556  10.783
23815W        W89075  23.511  21.562  13.440
23816W        W89076  24.734  38.941  12.454
23817W        W89077  40.301  21.285  13.476
23818W        W89078  22.254   7.432   1.764
23819W        W89079   3.655   6.719   2.368
23820W        W89080   2.290   6.856   3.624
23821W        W89081   4.455  19.731  11.078
23822W        W89082   2.160  25.185  11.629
23823W        W89083  27.455  44.513   4.548
23824W        W89084  11.332  35.958   0.761
23825W        W89085  27.659  23.791  14.996
23826W        W89086  22.027  38.574   0.774
23827W        W89087  37.044  35.068   1.543
23828W        W89088  12.786  30.596  13.764
23829W        W89089   4.460  23.979  11.248
23830W        W89090   4.429  43.050  12.937
23831W        W89091  44.640  20.520  11.084
23832W        W89092  10.892  41.769  10.583
23833W        W89093  38.002  11.989   0.214
23834W        W89094  34.564  12.772   2.837
23835W        W89095  44.005  11.179   0.278
23836W        W89096  12.629   5.976  11.520
23837W        W89097   7.765  27.889  14.387
23838W        W89098  34.283   6.227   1.874
23839W        W89099  26.570  32.689   3.167
23840W        W89100   4.718  21.825  11.555
23841W        W89101  33.606  34.591   2.292
23842W        W89102  42.304   7.299  11.599
23843W        W89103   3.397  41.153   3.825
23844W        W89104  21.621  29.116  10.683
23845W        W89105  42.191  17.705  12.176
23846W        W89106  36.788  32.374  11.428
23847W        W89107  25.064  32.614  10.695
23848W        W89108  10.599  35.416   4.014
23849W        W89109  21.240   7.309  13.970
23850W        W89110  15.221  13.057   0.393
23851W        W89111  22.151  30.721   2.724
23852W        W89112   1.961   3.463   0.843
23853W        W89113  25.666  12.298   4.266
23854W        W89114   8.912  15.110   0.082
23855W        W89115  40.594  39.283  13.910
23856W        W89116  33.676  11.360   0.852
23857W        W89117  14.111  25.497   4.433
23858W        W89118  20.667   5.957  11.567
23859W        W89119  21.146  18.677   1.232
23860W        W89120  35.877  11.110   1.263
23861W        W89121   0.766   7.372  12.840
23862W        W89122   4.451  32.494   1.335
23863W        W89123  42.380  35.508  14.327
23864W        W89124  17.750  13.559   1.440
23865W        W89125   9.252   2.693  11.459
23866W        W89126  12.438  28.435  11.657
23867W        W89127  44.445  35.950   4.619
23868W        W89128  21.312  16.714  12.912
23869W        W89129  18.645  30.382  13.563
23870W        W89130   5.880  13.572   4.165
23871W        W89131  11.421   6.497   1.971
23872W        W89132  30.057  29.822   5.044
23873W        W89133   6.217  27.759   0.414
23874W        W89134  26.304  16.552  14.957
23875W        W89135   3.197  20.106   1.372
23876W        W89136  26.708  37.576   4.670
23877W        W89137   9.018   7.722  11.420
23878W        W89138  13.203   2.001   1.200
23879W        W89139   3.159  22.312  11.574
23880W        W89140  18.464   7.204   3.425
23881W        W89141   9.592  26.594   0.443
23882W        W89142   7.672  12.719  12.053
23883W        W89143  36.946  25.249  12.565
23884W        W89144  13.784  24.965   2.995
23885W        W89145  38.997  24.460   2.368
23886W        W89146   5.961  44.716   3.211
23887W        W89147  34.225   9.856   1.800
23888W        W89148  44.569   6.238  14.526
23889W        W89149  40.245  20.580   3.684
23890W        W89150  12.813  18.137  10.839
23891W        W89151   3.567  24.053   0.730
23892W        W89152  24.687  40.059   4.577
23893W        W89153  15.066  16.186  13.012
23894W        W89154   9.818  29.139  11.647
23895W        W89155   4.325  26.178   4.622
23896W        W89156  29.630  19.077  14.558
23897W        W89157   8.632  24.584   2.815
23898W        W89158  25.599  20.346   5.612
23899W        W89159  41.683  23.837   1.199
23900W        W89160  41.036  20.677   0.879
23901W        W89161  18.640   6.786   3.186
23902W        W89162  31.514  26.213  13.125
23903W        W89163  16.710  22.015   2.409
23904W        W89164  31.673  21.812  10.898
23905W        W89165  29.489   8.247   3.720
23906W        W89166  31.988  37.760  12.992
23907W        W89167   7.788   9.241   1.605
23908W        W89168  11.553  38.660  12.919
23909W        W89169  35.018  16.142   2.751
23910W        W89170  39.516  42.497  14.931
23911W        W89171  35.350  25.162   2.127
23912W        W89172  25.993   6.863  11.988
23913W        W89173  21.232  27.688   0.072
23914W        W89174  32.682  17.669   2.844
23915W        W89175  30.169  38.465   2.957
23916W        W89176  23.207   3.361   0.050
23917W        W89177  27.594  15.219   2.771
23918W        W89178  23.665  17.254  14.060
23919W        W89179  26.669  28.606  13.360
23920W        W89180  43.039  15.188  12.662
23921W        W89181   1.225  38.026   3.757
23922W        W89182  36.088   2.714  12.055
23923W        W89183  26.524   8.684  14.878
23924W        W89184  12.760  24.292  13.747
23925W        W89185  33.808  17.127  14.324
23926W        W89186   1.710  26.453   3.156
23927W        W89187  39.898  42.879   1.263
23928W        W89188  13.437  37.427   2.756
23929W        W89189   6.263  26.584   3.976
23930W        W89190   7.257  14.859   2.238
23931W        W89191  36.801  30.092   2.310
23932W        W89192  36.688  42.893   4.515
23933W        W89193   4.779  21.738   1.677
23934W        W89194  19.532  29.019   1.161
23935W        W89195  11.137  30.613  12.220
23936W        W89196  18.496   3.854   0.815
23937W        W89197  26.595  11.253   4.341
23938W        W89198  39.817   5.060  11.488
23939W        W89199  40.214  23.513  12.244
23940W        W89200  14.846  33.154  13.357
23941W        W89201  21.194  19.805  10.332
23942W        W89202  37.670   0.332   2.095
23943W        W89203  25.855   7.650   2.842
23944W        W89204  17.978  12.595   2.371
23945W        W89205   8.745  28.062   0.998
23946W        W89206  35.931  12.575  13.503
23947W        W89207  24.967  36.513  13.412
23948W        W89208  33.861   4.469  12.861
23949W        W89209  12.357   5.379  14.789
23950W        W89210  44.946  44.372  11.143
23951W        W89211  25.448   7.767  14.565
23952W        W89212  19.291  27.298   1.849
23953W        W89213  24.974  32.159  13.987
23954W        W89214  19.742  13.582  14.774
23955W        W89215  39.292  26.066  13.599
23956W        W89216  31.787  43.967  11.150
23957W        W89217  26.949  25.156   2.281
23958W        W89218  39.795  13.739  14.979
23959W        W89219  40.526   5.359  12.207
23960W        W89220   4.854  11.064   1.841
23961W        W89221   8.856  36.823   4.932
23962W        W89222  32.654   3.820   0.029
23963W        W89223  31.895  16.738   1.571
23964W        W89224  37.595  14.562   4.069
23965W        W89225  13.106  37.907  12.525
23966W        W89226  40.393  36.209   3.243
23967W        W89227  15.867  31.671   3.951
23968W        W89228  42.068  22.525   1.820
23969W        W89229  42.999  25.317   0.535
23970W        W89230   8.011   3.313   4.098
23971W        W89231  22.063  14.729   3.861
23972W        W89232  17.394  32.393  10.620
23973W        W89233  27.951  23.047   0.405
23974W        W89234  43.377   4.147   2.657
23975W        W89235   7.567  18.688  11.686
23976W        W89236  18.517  41.509   4.786
23977W        W89237   9.638  26.033  14.809
23978W        W89238  27.136  29.304   3.205
23979W        W89239  32.388  17.994   4.559
23980W        W89240  16.797  33.228  13.103
23981W        W89241   7.800  22.515   4.120
23982W        W89242  42.365  17.719  11.646
23983W        W89243  25.596   7.561   1.074
23984W        W89244  23.076  44.956  12.904
23985W        W89245  35.023  26.752  14.226
23986W        W89246  40.412  34.926   0.255
23987W        W89247  41.763   3.343   0.923
23988W        W89248  41.006  36.522  13.941
23989W        W89249   9.136  12.626   4.658
23990W        W89250  27.623   9.843   3.390
23991W        W89251  33.768  14.731   1.920
23992W        W89252  38.372  39.957  11.693
23993W        W89253  14.721  26.808   1.830
23994W        W89254  20.007  18.513  11.029
23995W        W89255   1.902  32.604   3.375
23996W        W89256  27.136   6.612  10.363
23997W        W89257  25.404   0.844  14.823
23998W        W89258  20.148   2.554  12.053
23999W        W89259  29.980  12.553   1.294
24000W        W89260  18.550   5.729   1.979
24001W        W89261   8.453   9.369   4.574
24002W        W89262  35.519   5.881   3.612
24003W        W89263  30.916  19.536  12.891
24004W        W89264  32.085  14.122  11.849
24005W        W89265  17.645  16.126   4.855
24006W        W89266  16.413  11.774   2.713
24007W        W89267  39.474  18.116  12.983
24008W        W89268  38.917   2.972  11.817
24009W        W89269  27.751   4.762   2.238
24010W        W89270   9.029  13.934   1.409
24011W        W89271  36.942   2.178   4.144
24012W        W89272   3.620  16.754   1.271
24013W        W89273  35.030  30.621   3.234
24014W        W89274  42.364  29.211  11.546
24015W        W89275  18.738  37.219   5.031
24016W        W89276  40.341  42.328  12.085
24017W        W89277   6.698  22.223   4.120
24018W        W89278  17.598  18.218  10.262
24019W        W89279  10.624  44.753   1.579
24020W        W89280  43.388  33.515  11.170
24021W        W89281  34.454   6.190  12.888
24022W        W89282  39.754  15.741  14.353
24023W        W89283  17.675  41.382   1.007
24024W        W89284  32.516  42.307   0.868
24025W        W89285  19.799   4.876  12.889
24026W        W89286  30.087  43.228   2.721
24027W        W89287  24.904  27.713  12.053
24028W        W89288   0.670   9.232  13.080
24029W        W89289   8.747   2.567  14.096
24030W        W89290  34.481  13.067  10.791
24031W        W89291  32.107   4.467   1.450
24032W        W89292  37.997  36.207   0.256
24033W        W89293  17.155   8.110  11.847
24034W        W89294   2.546  30.823  11.131
24035W        W89295  18.352  19.114  11.517
24036W        W89296  36.212   1.417   2.861
24037W        W89297  35.158  25.553  10.281
24038W        W89298  19.062  26.474   3.623
24039W        W89299  37.125  44.307   9.790
24040W        W89300  33.373   0.868  13.280
24041W        W89301  38.757  32.513  11.838
24042W        W89302  41.410   6.206   2.210
24043W        W89303  17.412  11.293   4.661
24044W        W89304  21.031  14.129   3.943
24045W        W89305  39.899  42.954  12.831
24046W        W89306  37.412  38.579   0.916
24047W        W89307  40.021   7.095   3.609
24048W        W89308  28.549  35.980   3.106
24049W        W89309  44.770  20.567   4.049
24050W        W89310   8.596  11.872   1.990
24051W        W89311  11.901  17.166  14.478
24052W        W89312  32.551  26.885   4.524
24053W        W89313  29.994  40.857  14.516
24054W        W89314  15.061  21.678   1.290
24055W        W89315  12.867  24.608  11.629
24056W        W89316  22.442  31.462  13.852
24057W        W89317  17.818  33.609   2.657
24058W        W89318  44.146  16.188   2.109
24059W        W89319  33.110  27.697   4.947
24060W        W89320  40.435  11.588  13.499
24061W        W89321  11.179   8.112  12.804
24062W        W89322  30.265  22.697   4.779
24063W        W89323  21.285   1.524   0.405
24064W        W89324  14.368   5.848   3.266
24065W        W89325  22.438  10.651   3.688
24066W        W89326  36.798  20.683  12.466
24067W        W89327  18.964  14.177   4.308
24068W        W89328  11.673   2.655   3.116
24069W        W89329   1.479  39.867   4.604
24070W        W89330  18.340  42.326  14.284
24071W        W89331  29.264  16.198   1.106
24072W        W89332  44.253  28.434  13.835
24073W        W89333  11.228  30.289  13.027
24074W        W89334  22.413  25.653  14.836
24075W        W89335  32.602  36.507  14.399
24076W        W89336   0.247  18.624  11.079
24077W        W89337  38.081   5.319  13.886
24078W        W89338   8.641  32.711  14.516
24079W        W89339   8.092  14.115   1.790
24080W        W89340  18.526  20.000  14.736
24081W        W89341  21.571  22.850   4.519
24082W        W89342   5.137   0.748  10.288
24083W        W89343  13.130  37.995   3.401
24084W        W89344   7.753  44.765   3.577
24085W        W89345  33.300  44.760   5.001
24086W        W89346  32.108   2.492  12.395
24087W        W89347  10.528  32.109   0.248
24088W        W89348  22.633  32.387  12.168
24089W        W89349   7.659  16.492   0.653
24090W        W89350  28.122  11.012  10.742
24091W        W89351   2.784  31.504   4.192
24092W        W89352  15.574   3.975   1.074
24093W        W89353  31.679  24.516   3.735
24094W        W89354  44.093  39.820   3.746
24095W        W89355  27.382  20.029   0.410
24096W        W89356  21.705  19.563   3.698
24097W        W89357  40.343  18.280  11.185
24098W        W89358  22.376  17.744  13.132
24099W        W89359  16.134  24.688   1.044
24100W        W89360  34.964  39.632  14.315
24101W        W89361  20.611  20.530  10.158
24102W        W89362  26.430  20.668  10.944
24103W        W89363  27.525  19.531  14.340
24104W        W89364  34.608   7.389   0.994
24105W        W89365   0.283  41.938  12.518
24106W        W89366  10.132   1.634  13.318
24107W        W89367  21.805  10.624  12.474
24108W        W89368   0.777   3.673  12.476
24109W        W89369  37.019  12.167  11.565
24110W        W89370  16.929  11.781   2.746
24111W        W89371   8.116  32.416  12.450
24112W        W89372  28.762  13.824  10.774
24113W        W89373  18.705  37.410  11.403
24114W        W89374   5.234  23.695   3.166
24115W        W89375   8.448  21.245   0.873
24116W        W89376  12.968  16.216   4.193
24117W        W89377  35.529   8.117  14.549
24118W        W89378  16.908  36.061   1.795
24119W        W89379  19.503   6.163  12.095
24120W        W89380  31.882   1.285  14.053
24121W        W89381  13.710  13.113   1.886
24122W        W89382  18.063  26.624  14.937
24123W        W89383  30.035  32.814  12.056
24124W        W89384  40.892  22.258   0.669
24125W        W89385  18.532  44.348  10.758
24126W        W89386  16.848  18.341  10.722
24127W        W89387  44.925  16.254  12.484
24128W        W89388  27.974  18.471  11.729
24129W        W89389  31.032  40.225   2.541
24130W        W89390   7.398  16.656   3.314
24131W        W89391  35.926   1.737  14.067
24132W        W89392  27.955  41.145   4.156
24133W        W89393  26.107   2.789  13.772
24134W        W89394  32.854  35.840  14.848
24135W        W89395  28.639   5.114   3.315
24136W        W89396  38.595  43.437   0.913
24137W        W89397  30.934  14.101  14.409
24138W        W89398  34.603   9.177  10.965
24139W        W89399  31.639  27.944   2.375
24140W        W89400  39.366  39.663  12.980
24141W        W89401  18.561  40.469   2.323
24142W        W89402   8.978   8.119   1.179
24143W        W89403  29.383   4.747  13.498
24144W        W89404  33.117  17.644   1.316
24145W        W89405  18.077  39.544  12.272
24146W        W89406  27.231  15.409  12.493
24147W        W89407  24.634  43.004   1.627
24148W        W89408  14.878  22.172  13.476
24149W        W89409   1.384   1.378   1.444
24150W        W89410   6.302  31.143   4.533
24151W        W89411  35.580   6.811  14.407
24152W        W89412  31.419  21.835  14.359
24153W        W89413  16.127   1.505  14.104
24154W        W89414  34.494  30.586   2.971
24155W        W89415  28.303   6.198   1.222
24156W        W89416  34.517  36.882  14.693
24157W        W89417  21.590  36.993  14.992
24158W        W89418  12.799  17.793   1.506
24159W        W89419   4.730  20.624  12.032
24160W        W89420  32.399  14.864  12.910
24161W        W89421  28.637  31.629  10.171
24162W        W89422  28.612  30.472   4.484
24163W        W89423  17.142  42.765   3.800
24164W        W89424  34.419  37.466  11.739
24165W        W89425   7.216  25.058   2.793
24166W        W89426  25.503  24.582  13.014
24167W        W89427   2.195  20.170   1.475
24168W        W89428  42.610  26.245  11.162
24169W        W89429   4.947  44.711  12.776
24170W        W89430  13.240  28.701  13.856
24171W        W89431  38.412  29.483  14.445
24172W        W89432  41.955  17.408  11.666
24173W        W89433  12.857  24.445  14.839
24174W        W89434  25.423  36.595  13.135
24175W        W89435  41.735   8.023   5.035
24176W        W89436  32.614   8.390  12.093
24177W        W89437  40.771  22.042  13.873
24178W        W89438   1.341  31.641  13.129
24179W        W89439   1.906  39.395  13.192
24180W        W89440  22.637   4.935   3.138
24181W        W89441   1.984  39.887  10.697
24182W        W89442  36.572  27.883   1.791
24183W        W89443  31.560  13.363   2.114
24184W        W89444  29.520   5.236  11.762
24185W        W89445  43.573  31.630   0.832
24186W        W89446  29.771   6.199  12.015
24187W        W89447  32.312   7.356   2.778
24188W        W89448  36.600   9.770  14.587
24189W        W89449  29.550   6.804  11.608
24190W        W89450  28.153  25.183   1.283
24191W        W89451  31.460  28.524   0.689
24192W        W89452  32.422   6.936   0.263
24193W        W89453  33.970   7.425  12.474
24194W        W89454  15.641  19.763   2.358
24195W        W89455  21.044  15.816   0.887
24196W        W89456  11.344  13.220   3.178
24197W        W89457  13.876   2.716  10.743
24198W        W89458  14.704  25.941   0.874
24199W        W89459   5.419  15.482   2.312
24200W        W89460  37.920   4.655   1.993
24201W        W89461  43.531   9.132   1.451
24202W        W89462   3.775  22.283  13.728
24203W        W89463   8.635   2.020  12.807
24204W        W89464  14.263   9.275  14.083
24205W        W89465  25.470  27.631  13.882
24206W        W89466   7.278  37.055   4.520
24207W        W89467  29.415  35.437  11.700
24208W        W89468  10.347  28.380   4.914
24209W        W89469   6.311   8.589   1.661
24210W        W89470   3.783  28.707   4.250
24211W        W89471  20.576  42.399   2.757
24212W        W89472  42.680  44.036  13.530
24213W        W89473  34.093  35.136  11.687
24214W        W89474  36.326  41.608   0.956
24215W        W89475   9.791  35.889  13.384
24216W        W89476   7.076  28.638   0.670
24217W        W89477  22.226  40.597   2.766
24218W        W89478  15.942  21.246   1.741
24219W        W89479   9.989  13.240   1.747
24220W        W89480   6.299  41.781  14.965
24221W        W89481  21.750  37.280  11.113
24222W        W89482  14.068  28.023  13.471
24223W        W89483   2.495  42.533  14.605
24224W        W89484  29.767   4.313   2.203
24225W        W89485  29.990  43.359  14.961
24226W        W89486  29.469  30.403  11.108
24227W        W89487  34.053   4.417   1.155
24228W        W89488  12.251   1.726   2.654
24229W        W89489  27.915  18.019  10.056
24230W        W89490  28.928  35.863   0.783
24231W        W89491  43.403  12.325   0.424
24232W        W89492  25.144  39.094  11.655
24233W        W89493  25.428  15.796   2.289
24234W        W89494   2.352   6.131  14.810
24235W        W89495   0.503   9.659  12.006
24236W        W89496   5.112  27.397  13.356
24237W        W89497   4.656  28.063   2.552
24238W        W89498  27.577   2.289   3.393
24239W        W89499  11.336  44.006   1.446
24240W        W89500  25.642  29.425  14.723
24241W        W89501  10.434  30.049  12.588
24242W        W89502  40.389   8.835  14.780
24243W        W89503  19.966  40.584   1.218
24244W        W89504  24.655   1.287   4.801
24245W        W89505  44.197  21.596   3.247
24246W        W89506  35.553  19.019  11.676
24247W        W89507   6.813  28.904  12.473
24248W        W89508  32.457   4.410  12.674
24249W        W89509  29.966  10.369   4.272
24250W        W89510  21.518   8.299   0.464
24251W        W89511  17.136  32.933  11.585
24252W        W89512  21.561  24.094   1.696
24253W        W89513   2.807  44.486   4.660
24254W        W89514  25.022  20.178   4.360
24255W        W89515  40.941  15.026   3.368
24256W        W89516  29.274  19.662  10.693
24257W        W89517  15.834  17.219   2.342
24258W        W89518  19.013   3.055  13.985
24259W        W89519   2.835  30.667   3.796
24260W        W89520  18.638  12.619   1.485
24261W        W89521  20.309   4.892   9.744
24262W        W89522  21.706  16.260   1.676
24263W        W89523   6.161  38.722  10.733
24264W        W89524  42.711  43.736  13.121
24265W        W89525  12.936  43.862  13.368
24266W        W89526  26.268  33.343   4.559
24267W        W89527  36.934  16.541  14.177
24268W        W89528  12.633  33.985   0.575
24269W        W89529  36.147   1.382   2.220
24270W        W89530  11.751  44.320  12.569
24271W        W89531  34.336  39.414  11.869
24272W        W89532  24.690  12.303  12.353
24273W        W89533  37.406  18.554   1.114
24274W        W89534   6.192   4.645   0.246
24275W        W89535  27.968  18.123  14.495
24276W        W89536  15.082  35.334  12.479
24277W        W89537  21.621  29.356  13.631
24278W        W89538  18.682   3.758  11.621
24279W        W89539  35.657  28.504  11.708
24280W        W89540  17.133  41.494   3.302
24281W        W89541  20.559  39.985   3.656
24282W        W89542  27.657  14.186   3.294
24283W        W89543  37.152  42.247  11.183
24284W        W89544  28.356   5.812   4.517
24285W        W89545  44.800   3.047  10.622
24286W        W89546  39.039  24.094  13.002
24287W        W89547  30.841  31.780   0.801
24288W        W89548  35.623  22.617  13.905
24289W        W89549   5.097  12.370  13.171
24290W        W89550  34.426  12.948  14.979
24291W        W89551   3.898  23.945   3.612
24292W        W89552  21.760  13.019   4.974
24293W        W89553   9.165  42.530  13.278
24294W        W89554   2.289  32.675   1.932
24295W        W89555  33.568  11.154  10.738
24296W        W89556  40.597  41.161  11.145
24297W        W89557   3.844  43.840   0.332
24298W        W89558   5.412  33.593  11.189
24299W        W89559   0.812  31.555  13.096
24300W        W89560  28.594  10.344   3.217
24301W        W89561  10.493  29.937  11.636
24302W        W89562  27.475  23.567  10.968
24303W        W89563  26.013  19.547   2.625
24304W        W89564  26.117  28.450  14.921
24305W        W89565  23.474  43.461   0.483
24306W        W89566  22.179   0.925   3.108
24307W        W89567  12.389  30.843  13.987
24308W        W89568  38.160  39.479   2.631
24309W        W89569  27.708  40.006   2.306
24310W        W89570   7.237  12.345  14.338
24311W        W89571  41.071   1.358   1.440
24312W        W89572  36.600  16.472  14.563
24313W        W89573  25.220  39.974  10.484
24314W        W89574  23.620   4.346  11.501
24315W        W89575  12.837   0.953   0.374
24316W        W89576  15.520   2.296   4.658
24317W        W89577   8.703   8.362   4.013
24318W        W89578  13.236  14.544  14.343
24319W        W89579  34.681  12.265   0.444
24320W        W89580  11.744  21.833  11.156
24321W        W89581  21.686  26.550   4.534
24322W        W89582   0.753  10.784   2.650
24323W        W89583  24.896  14.560   4.097
24324W        W89584   9.656  43.927   1.285
24325W        W89585   5.217  44.778   1.904
24326W        W89586  23.787   3.957  13.385
24327W        W89587  22.770  14.628   0.364
24328W        W89588  25.653  30.772   3.937
24329W        W89589  37.330  18.664   3.591
24330W        W89590  38.287   0.449  14.471
24331W        W89591  43.821  18.088   4.211
24332W        W89592  27.988  39.483  12.082
24333W        W89593  37.054   5.376  14.096
24334W        W89594   4.955  34.081   1.316
24335W        W89595   2.379  42.423   5.003
24336W        W89596  17.081  36.248   0.684
24337W        W89597  12.552  34.616   2.974
24338W        W89598  30.283  13.647  10.518
24339W        W89599  29.236  39.418   3.333
24340W        W89600  37.984  25.279   1.804
24341W        W89601  23.672  14.051  13.062
24342W        W89602  29.581  32.635   4.579
24343W        W89603  13.389  16.824   4.778
24344W        W89604  36.078   8.265   1.689
24345W        W89605   0.933  40.774   3.109
24346W        W89606  29.865  18.275  10.998
24347W        W89607  15.376   9.873  12.473
24348W        W89608   2.037   6.175   0.403
24349W        W89609   0.788  43.874   2.253
24350W        W89610  41.019  35.971   1.953
24351W        W89611  15.284  24.635   0.252
24352W        W89612   9.983  24.662  10.117
24353W        W89613  44.467   2.527   4.760
24354W        W89614  11.146  42.230  14.383
24355W        W89615  35.499  36.883   0.514
24356W        W89616  18.290  13.146  12.086
24357W        W89617   2.483  28.533   1.803
24358W        W89618   7.015  32.319   1.433
24359W        W89619  32.622   0.539  12.354
24360W        W89620  18.796  24.172  14.347
24361W        W89621  36.879  33.529  13.905
24362W        W89622  14.318  23.295   2.437
24363W        W89623   2.308   8.715   4.643
24364W        W89624  41.772   1.920   3.202
24365W        W89625   0.762  38.145   3.383
24366W        W89626  22.174  18.245  12.406
24367W        W89627  13.373   9.719   3.675
24368W        W89628   0.999  26.936  12.290
24369W        W89629  10.223  11.879   3.008
24370W        W89630  40.773  19.600  12.087
24371W        W89631   4.759   6.304   4.619
24372W        W89632  42.435  26.966  10.680
24373W        W89633  16.212   8.793  12.545
24374W        W89634   7.704  21.274  13.854
24375W        W89635   9.367   9.686   0.258
24376W        W89636  32.983  39.569  11.283
24377W        W89637  27.723  35.951   2.754
24378W        W89638  35.563   6.211   3.202
24379W        W89639  29.363   6.902  14.868
24380W        W89640  44.250  26.155   0.288
24381W        W89641  43.770   0.785  12.782
24382W        W89642  14.391  17.982   1.000
24383W        W89643  14.742   7.394   0.861
24384W        W89644   6.828  29.599   1.901
24385W        W89645  42.011  34.161   0.347
24386W        W89646  15.568   7.641  13.102
24387W        W89647   1.879  13.565  12.117
24388W        W89648   7.417  29.689  12.550
24389W        W89649   3.375  35.083  11.725
24390W        W89650  34.180  23.545   1.653
24391W        W89651  28.581   7.647  14.061
24392W        W89652   0.387  17.743  13.626
24393W        W89653  33.015  30.284   5.733
24394W        W89654   5.775  29.166   0.609
24395W        W89655   5.845  27.451   2.189
24396W        W89656  13.654  24.278  11.850
24397W        W89657  17.172  36.535   2.311
24398W        W89658  22.743  17.153  12.860
24399W        W89659   1.945  28.548  14.766
24400W        W89660   6.737  10.166   2.270
24401W        W89661   1.261  14.660  10.968
24402W        W89662   0.911  19.510  12.249
24403W        W89663  16.850  24.936  13.377
24404W        W89664  12.632   2.646   4.053
24405W        W89665  42.364   4.467  12.573
24406W        W89666  25.317  30.798  11.654
24407W        W89667  24.399  30.668   4.028
24408W        W89668  39.647   0.002   2.296
24409W        W89669  22.726  37.292  12.012
24410W        W89670   2.405  11.054  12.903
24411W        W89671  39.095  34.008  12.094
24412W        W89672  41.451  30.182   4.375
24413W        W89673   2.503  31.376   1.815
24414W        W89674  20.050  28.909   1.783
24415W        W89675  17.772  34.698  12.264
24416W        W89676  14.520   8.578   4.055
24417W        W89677  29.972   0.891  13.572
24418W        W89678  18.814  42.901   1.158
24419W        W89679  42.418  43.309   3.348
24420W        W89680  15.145  14.566   2.664
24421W        W89681  10.815  35.378   4.481
24422W        W89682   5.763  17.724  10.601
24423W        W89683  21.683  25.478  12.018
24424W        W89684   5.264  35.867   3.631
24425W        W89685  35.585   6.718   4.080
24426W        W89686  43.392   2.672  11.535
24427W        W89687  28.663  19.656   4.929
24428W        W89688  42.495  41.512   3.140
24429W        W89689  21.616  11.796   0.375
24430W        W89690  21.228  10.159  11.126
24431W        W89691  26.250  43.325   4.207
24432W        W89692  40.745  17.118  12.893
24433W        W89693  39.233   9.949  11.286
24434W        W89694  33.211  31.210   2.757
24435W        W89695  30.789  30.710  11.677
24436W        W89696  18.142  43.201  10.869
24437W        W89697   9.190   4.246   4.131
24438W        W89698  18.707  31.492  14.465
24439W        W89699  29.192  16.518  11.586
24440W        W89700  36.623  27.527   2.668
24441W        W89701  18.778   2.241  12.423
24442W        W89702  22.245  14.441  11.411
24443W        W89703  20.768   8.814   9.823
24444W        W89704  34.454  33.387  12.943
24445W        W89705  36.159  15.146   4.251
24446W        W89706  27.482   0.391   2.822
24447W        W89707   6.231   1.424  11.070
24448W        W89708  30.967  11.770   0.150
24449W        W89709  21.245  41.396  11.378
24450W        W89710  41.007  27.154  14.839
24451W        W89711  32.438  20.159   1.851
24452W        W89712  40.499  39.020   4.151
24453W        W89713  11.828  17.214   5.144
24454W        W89714  34.221  19.655  12.878
24455W        W89715  23.813  26.636  13.424
24456W        W89716  43.415  16.346   2.814
24457W        W89717  22.500   5.442  14.430
24458W        W89718  22.428  13.183   0.306
24459W        W89719  10.825  40.356   0.644
24460W        W89720   6.238  20.792  14.106
24461W        W89721   8.864  30.665   0.005
24462W        W89722  26.230  31.735  11.495
24463W        W89723  39.743  13.292  11.683
24464W        W89724  25.078   1.235  12.042
24465W        W89725  31.817  17.734   1.069
24466W        W89726  23.052  14.548  14.873
24467W        W89727  10.430  39.030  14.883
24468W        W89728  32.573   6.735  10.785
24469W        W89729  41.186   7.377   4.796
24470W        W89730  14.351  14.339  13.632
24471W        W89731  30.723  26.039  13.823
24472W        W89732  30.618  32.937   3.150
24473W        W89733  27.564  14.274   4.332
24474W        W89734  23.030   5.403  13.907
24475W        W89735  39.030  32.043   1.954
24476W        W89736  15.087  12.096  11.652
24477W        W89737  20.525  23.284  11.144
24478W        W89738  23.238  33.493  14.475
24479W        W89739  19.346  34.589   0.265
24480W        W89740  28.448  16.691  11.771
24481W        W89741  21.677  24.042   4.399
24482W        W89742  26.019  13.358  12.897
24483W        W89743   7.272   1.301  13.509
24484W        W89744   2.605  42.291   3.088
24485W        W89745   4.442   8.251  14.131
24486W        W89746   3.009  13.291  11.116
24487W        W89747  33.329  23.372   0.017
24488W        W89748  35.918  14.719  13.989
24489W        W89749  21.088  42.668   0.260
24490W        W89750   3.980  30.080  12.568
24491W        W89751  26.294   4.281   0.828
24492W        W89752  14.685  15.201   1.695
24493W        W89753   3.506  29.525   0.106
24494W        W89754   2.368  22.220   3.939
24495W        W89755  42.458  35.480  13.811
24496W        W89756  27.218   9.815   0.715
24497W        W89757  31.388  22.806   3.222
24498W        W89758  40.242  13.424   3.714
24499W        W89759   1.084  23.224   9.906
24500W        W89760  10.167   0.900  10.747
24501W        W89761  28.860   1.782   9.738
24502W        W89762  36.354  40.537   2.157
24503W        W89763   2.649  42.881  13.397
24504W        W89764  20.074  35.929   3.801
24505W        W89765  37.766  12.091   2.453
24506W        W89766   0.418  37.115  14.375
24507W        W89767  34.433   5.226   3.131
24508W        W89768  25.953  38.572  13.048
24509W        W89769  35.570   9.071  12.932
24510W        W89770   7.873  40.817   0.434
24511W        W89771  21.120  18.587  10.568
24512W        W89772  40.958  11.241  14.821
24513W        W89773   9.641  12.474   4.522
24514W        W89774  40.719  32.257   0.243
24515W        W89775  28.153  12.725  12.975
24516W        W89776  39.410  35.063   2.445
24517W        W89777  41.347  18.242  13.309
24518W        W89778  28.041  26.749   2.411
24519W        W89779  11.272   8.251   3.047
24520W        W89780  22.591  15.386  10.525
24521W        W89781   9.790   7.893   1.881
24522W        W89782   5.893   6.701   1.267
24523W        W89783  35.845  40.823  13.518
24524W        W89784  40.187  31.602   2.958
24525W        W89785  34.133  32.984  13.025
24526W        W89786   9.564  16.645   2.243
24527W        W89787  36.901  39.458   4.384
24528W        W89788  40.478   4.375  14.280
24529W        W89789  12.409  37.314  11.280
24530W        W89790  26.996   0.742   1.351
24531W        W89791  16.036  17.365  10.942
24532W        W89792  38.553   3.977  12.522
24533W        W89793  34.613   1.418  14.464
24534W        W89794  30.533  29.409  11.551
24535W        W89795  42.487  35.939   2.761
24536W        W89796  41.829  31.375   2.010
24537W        W89797  32.609  14.150  11.659
24538W        W89798  11.011  38.551   2.724
24539W        W89799  29.195  39.930  11.362
24540W        W89800  32.711  18.680   0.780
24541W        W89801  11.899  15.656  12.353
24542W        W89802   1.906  18.159   2.152
24543W        W89803  40.143   1.846   3.332
24544W        W89804  26.880  40.348  11.622
24545W        W89805  35.083  35.660   2.198
24546W        W89806  36.202  35.891  10.676
24547W        W89807  25.400  35.795   0.844
24548W        W89808  20.812  42.191  11.489
24549W        W89809   3.376  15.260  10.495
24550W        W89810  32.613  23.683  13.802
24551W        W89811  17.344  23.459  11.099
24552W        W89812   5.927  30.519  11.119
24553W        W89813  32.547  30.624  14.342
24554W        W89814  12.101  35.781  10.987
24555W        W89815  13.384  18.171  12.586
24556W        W89816   8.087  34.785   4.055
24557W        W89817   1.268  35.947  14.850
24558W        W89818  41.923  21.549  12.124
24559W        W89819  12.791  41.945   4.669
24560W        W89820  31.858   6.399  11.239
24561W        W89821   8.215  41.135   2.330
24562W        W89822   7.585  15.017  12.437
24563W        W89823  39.327   6.400   0.245
24564W        W89824  38.899  10.453   0.348
24565W        W89825   8.873  41.851  12.780
24566W        W89826  15.526   6.030   4.217
24567W        W89827  38.351   9.745  11.436
24568W        W89828  29.496   1.029  11.926
24569W        W89829  14.668  11.492  14.475
24570W        W89830  25.060  31.806  13.220
24571W        W89831  10.449   4.584   1.827
24572W        W89832  30.512  15.829   4.129
24573W        W89833  29.518  28.647  12.585
24574W        W89834  17.277  20.104   2.897
24575W        W89835  24.642  10.563   3.717
24576W        W89836  37.942  28.016  10.732
24577W        W89837  11.839   0.839   1.755
24578W        W89838  28.770  29.987  11.175
24579W        W89839   6.878  33.028   1.912
24580W        W89840  14.396   7.880  11.097
24581W        W89841  34.397   6.726   0.784
24582W        W89842  26.742  34.499   3.118
24583W        W89843   0.225  20.796  13.076
24584W        W89844  35.151  31.540  13.996
24585W        W89845   3.992  25.942   3.072
24586W        W89846  36.754  35.017   3.411
24587W        W89847   1.861  26.100   0.962
24588W        W89848  13.309  39.630  12.577
24589W        W89849   1.356  36.017  10.962
24590W        W89850   2.689  24.210  12.844
24591W        W89851  17.629  25.736   0.944
24592W        W89852   9.806  10.573   3.333
24593W        W89853  15.806  17.332  12.777
24594W        W89854  32.650   4.887  10.550
24595W        W89855  30.386  39.094  13.017
24596W        W89856  14.336  29.062   0.888
24597W        W89857  24.419  17.181   0.803
24598W        W89858  24.533  22.175  10.762
24599W        W89859  37.807  27.132   1.737
24600W        W89860  38.000  25.160   1.256
24601W        W89861  17.979  14.765   3.692
24602W        W89862  43.473  31.642   1.743
24603W        W89863  24.479  36.613  12.181
24604W        W89864  26.546  33.007  13.792
24605W        W89865  14.860   8.884   3.217
24606W        W89866  27.817   5.759  14.271
24607W        W89867   3.177  15.334   2.265
24608W        W89868  42.837  29.487   1.310
24609W        W89869   2.288  10.103   3.668
24610W        W89870   8.666  17.601  14.777
24611W        W89871   7.228  15.221   4.070
24612W        W89872  32.458  20.130  14.321
24613W        W89873  26.259   0.942  14.516
24614W        W89874  20.196  28.693  14.040
24615W        W89875  24.071  27.164  12.611
24616W        W89876  38.349  41.482   1.196
24617W        W89877  17.579   7.272   2.928
24618W        W89878  41.292  33.878   1.464
24619W        W89879  11.148  17.321   0.003
24620W        W89880   2.726  23.799  13.945
24621W        W89881  14.755   0.473   3.807
24622W        W89882  15.209  27.248  12.051
24623W        W89883  14.016   5.735   4.038
24624W        W89884  40.843  11.780   0.580
24625W        W89885  25.645  38.794  12.370
24626W        W89886   5.749   4.378   0.079
24627W        W89887   5.683   3.644  13.554
24628W        W89888  15.713  23.731   3.643
24629W        W89889  44.318   9.887   3.334
24630W        W89890  27.429   1.342   0.405
24631W        W89891   1.734   8.738   3.628
24632W        W89892  26.510   5.724  13.920
24633W        W89893  29.141  31.040   1.319
24634W        W89894  37.881  18.525  12.101
24635W        W89895  37.521  41.700  12.418
24636W        W89896   0.645   0.935   1.112
24637W        W89897  23.172  43.522  14.548
24638W        W89898  38.431  37.330   4.701
24639W        W89899  24.959  19.908  12.202
24640W        W89900  24.607  42.689  13.455
24641W        W89901  17.261  22.923  11.235
24642W        W89902  25.531  44.614  13.386
24643W        W89903  16.329   2.977  14.685
24644W        W89904  41.251  20.479   0.433
24645W        W89905  39.978  26.477  14.838
24646W        W89906  32.214  21.488  14.001
24647W        W89907  40.432  15.348  13.957
24648W        W89908  44.003  37.130  13.360
24649W        W89909  37.280  39.119  12.787
24650W        W89910   5.891  27.545  13.722
24651W        W89911   8.921   0.817  13.339
24652W        W89912   9.160  24.522  10.723
24653W        W89913  24.449  38.662  13.073
24654W        W89914  36.590   2.482   1.391
24655W        W89915  14.621  20.484   2.876
24656W        W89916  26.422  40.762  13.810
24657W        W89917  23.208  17.125   0.818
24658W        W89918  35.136  29.247  11.612
24659W        W89919   3.792  35.279  13.886
24660W        W89920  11.106   6.841   2.718
24661W        W89921   1.809  14.780   4.052
24662W        W89922  24.840  36.659   3.276
24663W        W89923  35.453   9.469   3.633
24664W        W89924  31.561  27.474  13.381
24665W        W89925  43.771  31.003  11.896
24666W        W89926  27.565  24.577  14.348
24667W        W89927  27.976  11.848  12.966
24668W        W89928   1.776  38.307   0.407
24669W        W89929  37.956  32.009  11.678
24670W        W89930  44.515   5.724   4.870
24671W        W89931  30.414  37.023  14.212
24672W        W89932  36.968  35.523   1.767
24673W        W89933  22.999  44.311   2.218
24674W        W89934   5.329  35.084   2.356
24675W        W89935   4.845  14.281   4.609
24676W        W89936  10.692  23.589  13.585
24677W        W89937   7.173  20.308  10.656
24678W        W89938  19.558   8.207   0.479
24679W        W89939  16.895  21.195  14.471
24680W        W89940  42.830  44.989  12.642
24681W        W89941   7.499  13.099   3.524
24682W        W89942  35.063   1.038  14.936
24683W        W89943  11.828  25.132  14.142
24684W        W89944  34.612  30.958  14.444
24685W        W89945  26.158  28.847   2.412
24686W        W89946  40.720   3.704   2.746
24687W        W89947   7.962  15.606   2.371
24688W        W89948  13.858  32.904   0.066
24689W        W89949  39.108  42.871   0.335
24690W        W89950  22.624  18.095  13.852
24691W        W89951  38.767  11.706   3.585
24692W        W89952   0.249   3.956  10.973
24693W        W89953   7.936  25.596   2.770
24694W        W89954  28.137  29.951   0.041
24695W        W89955  33.834  32.088  14.236
24696W        W89956  26.688  16.671  14.022
24697W        W89957  27.418  26.422  14.800
24698W        W89958  42.835  25.339  10.984
24699W        W89959  33.824  20.031  11.224
24700W        W89960   1.281  22.456   3.687
24701W        W89961   7.844   5.721   4.333
24702W        W89962  39.477  31.352   0.419
24703W        W89963  25.469   8.540  14.517
24704W        W89964  37.833  38.051   4.623
24705W        W89965  35.510  37.788   0.552
24706W        W89966  41.297  17.736  12.597
24707W        W89967   4.937  44.002   4.188
24708W        W89968   7.284  42.019   2.018
24709W        W89969  11.832  44.546  13.889
24710W        W89970  30.015  25.152  11.519
24711W        W89971  28.247   9.105  11.649
24712W        W89972  15.592  16.549  12.788
24713W        W89973  28.341   6.203  13.820
24714W        W89974  14.145  23.653   1.634
24715W        W89975  22.998   6.723   2.682
24716W        W89976   3.032   3.936  14.520
24717W        W89977  12.717  40.628   3.360
24718W        W89978   0.230  15.727  11.611
24719W        W89979  10.218  40.087   0.515
24720W        W89980  21.615  42.359  14.580
24721W        W89981  25.972   9.909  13.884
24722W        W89982   7.660   7.328  12.410
24723W        W89983  34.995  11.270  13.454
24724W        W89984   8.880  41.573   1.901
24725W        W89985   1.787  10.909   1.888
24726W        W89986  12.049  34.021   2.262
24727W        W89987  19.364   2.365  11.104
24728W        W89988  33.940   8.837   2.679
24729W        W89989  14.294  41.945   2.250
24730W        W89990  24.842  43.627   0.369
24731W        W89991  26.539  42.281  13.808
24732W        W89992  16.525  22.521  14.517
24733W        W89993  40.767  33.331  10.658
24734W        W89994  18.244  15.186  11.147
24735W        W89995   1.777  36.248  10.751
24736W        W89996  14.139  11.901   4.692
24737W        W89997  14.076  31.450   1.395
24738W        W89998  10.895  43.737  12.623
24739W        W89999  11.237   3.297  14.879
24740W        W90000  14.678   4.703  14.923
24741W        W90001  16.200  43.903  13.316
24742W        W90002   2.988  35.501   0.771
24743W        W90003  19.116   9.679   3.167
24744W        W90004  31.664  37.058   2.813
24745W        W90005  26.681  35.473  12.927
24746W        W90006  21.219  22.554   2.822
24747W        W90007  38.081  26.165  11.884
24748W        W90008  11.875  29.449   4.507
24749W        W90009  21.845   1.221  11.224
24750W        W90010  34.942  40.965   4.102
24751W        W90011   2.190  30.134  12.203
24752W        W90012  42.164  21.519  13.488
24753W        W90013  35.088  29.700  12.032
24754W        W90014  20.638  36.937   0.021
24755W        W90015  40.315  11.723   3.661
24756W        W90016  34.320   1.858   0.384
24757W        W90017   9.194  12.044   0.511
24758W        W90018  39.801  12.588   2.763
24759W        W90019  30.472   3.846  10.776
24760W        W90020  24.751  23.583   3.226
24761W        W90021  32.387  20.722  13.124
24762W        W90022  43.685   7.546  11.142
24763W        W90023  15.706  14.215  14.239
24764W        W90024   8.655  10.518  12.369
24765W        W90025  32.824  12.029  11.183
24766W        W90026  24.217  32.579   4.531
24767W        W90027  44.866  17.263  10.657
24768W        W90028  32.061   3.674  13.983
24769W        W90029   6.568  36.455   4.890
24770W        W90030  13.581  18.935  12.731
24771W        W90031  30.960   5.259   4.759
24772W        W90032  25.974   8.276   3.655
24773W        W90033  26.484  22.926   2.849
24774W        W90034   6.771  20.112   2.167
24775W        W90035   0.477  14.301   4.207
24776W        W90036   7.481  38.530  14.457
24777W        W90037  16.518  32.536  14.840
24778W        W90038  41.856  12.086   3.521
24779W        W90039  15.757  15.707   3.587
24780W        W90040  14.644   8.981   1.717
24781W        W90041   9.140  34.425  11.222
24782W        W90042   6.243  17.861  12.519
24783W        W90043  35.885  16.294   2.195
24784W        W90044  41.875  39.500  13.930
24785W        W90045  35.097  22.109   3.296
24786W        W90046  37.870   0.647   3.359
24787W        W90047  31.951  28.153   3.293
24788W        W90048   3.192   4.861   0.377
24789W        W90049   9.780   9.203   4.619
24790W        W90050  16.628  17.731  12.381
24791W        W90051  41.354  16.847  13.356
24792W        W90052  37.663  25.593   3.188
24793W        W90053  25.159   3.750  12.907
24794W        W90054  21.987  34.733   4.123
24795W        W90055  22.262  32.125  13.374
24796W        W90056  16.694   6.162   3.079
24797W        W90057  37.421  23.999   4.550
24798W        W90058  32.866  32.799  12.260
24799W        W90059  14.800  18.248   3.839
24800W        W90060  31.443  31.889   3.763
24801W        W90061   9.541  20.532  14.336
24802W        W90062   5.466  23.237   3.100
24803W        W90063  42.859   7.124  12.563
24804W        W90064  12.886  24.882   1.401
24805W        W90065   2.749  44.016   3.712
24806W        W90066  20.110  26.576  11.064
24807W        W90067  38.089   5.067   3.365
24808W        W90068   8.241  13.090   1.357
24809W        W90069   4.790  40.194  10.299
24810W        W90070  22.029  13.890   4.604
24811W        W90071   7.542   1.055  12.311
24812W        W90072  34.855   3.151  14.789
24813W        W90073  38.386  22.006   3.132
24814W        W90074   5.951   6.765  12.085
24815W        W90075   9.062  41.728   1.379
24816W        W90076  24.600   6.189  12.568
24817W        W90077  21.104  31.348   0.229
24818W        W90078  32.875   0.579   3.938
24819W        W90079   2.272  43.687  12.947
24820W        W90080  42.924  40.897   4.045
24821W        W90081  38.561  42.825  14.045
24822W        W90082  35.951  42.857  11.255
24823W        W90083  14.647  31.993  11.781
24824W        W90084  16.044  32.448  13.755
24825W        W90085   6.319  41.903   4.274
24826W        W90086  24.669  26.187  11.561
24827W        W90087  40.262  10.589   1.327
24828W        W90088   1.549  38.817   4.812
24829W        W90089  10.379  27.714  13.125
24830W        W90090   6.933  18.734   2.923
24831W        W90091  12.249  26.665  13.753
24832W        W90092   7.841  36.961  13.565
24833W        W90093  37.917  35.137   1.325
24834W        W90094  36.841  35.420   3.149
24835W        W90095  23.698  27.083  11.245
24836W        W90096  35.422  39.934  13.429
24837W        W90097  26.140  23.766  13.078
24838W        W90098  35.277  14.557  13.567
24839W        W90099  14.979  25.113   1.855
24840W        W90100  26.827  44.098   9.835
24841W        W90101  15.710   5.973  10.477
24842W        W90102  22.456  38.163  11.672
24843W        W90103  20.255  34.399  13.905
24844W        W90104  10.178  42.081   3.699
24845W        W90105  22.851   5.188   3.627
24846W        W90106   3.090  33.970   2.509
24847W        W90107   0.835  18.094   2.371
24848W        W90108   6.954  25.652   0.930
24849W        W90109  32.622  34.602  12.500
24850W        W90110  12.755  34.959  14.842
24851W        W90111  20.527  25.441  12.085
24852W        W90112   6.157   1.014  12.874
24853W        W90113  17.151  34.876   2.852
24854W        W90114  14.297  29.711   4.765
24855W        W90115  31.776   9.015  10.697
24856W        W90116  27.495  18.039   3.356
24857W        W90117  18.596  38.478   4.109
24858W        W90118  40.053   7.378  14.808
24859W        W90119  26.567  44.227   0.758
24860W        W90120  27.459   8.856  11.081
24861W        W90121  16.332  37.934   4.835
24862W        W90122  10.924  34.460  11.445
24863W        W90123  20.058   2.357   0.837
24864W        W90124  20.324  34.969   3.618
24865W        W90125  35.417  14.830  11.614
24866W        W90126  16.689  38.347   0.396
24867W        W90127  29.127  19.735   3.612
24868W        W90128  26.075  43.434   0.801
24869W        W90129  35.148  41.376  14.393
24870W        W90130  18.011   1.689   4.159
24871W        W90131   4.857   3.057  11.907
24872W        W90132  11.769  25.727   3.532
24873W        W90133  43.792  40.611  11.613
24874W        W90134   5.706  14.613  12.974
24875W        W90135  20.472  13.169  11.749
24876W        W90136   7.670   3.207  14.270
24877W        W90137  19.054  18.193   1.000
24878W        W90138  31.088  29.058  13.071
24879W        W90139  39.364  39.546   1.236
24880W        W90140  33.971  36.570   2.282
24881W        W90141   8.679   4.984   2.852
24882W        W90142  29.214  20.277  14.533
24883W        W90143   6.891  20.143   3.167
24884W        W90144  11.711  25.956   3.078
24885W        W90145  26.591  43.824  14.861
24886W        W90146   6.002  29.849  13.411
24887W        W90147  27.524  32.757  11.097
24888W        W90148   2.879  24.125   1.125
24889W        W90149  43.001  30.915   1.715
24890W        W90150  39.272  29.240  12.910
24891W        W90151  36.570  34.054   4.069
24892W        W90152  39.979  42.609   1.738
24893W        W90153   8.354   6.192  14.357
24894W        W90154  13.032  25.940   1.200
24895W        W90155  20.236  24.043  10.804
24896W        W90156  33.151  15.270   0.051
24897W        W90157  20.051  11.762   2.814
24898W        W90158  11.259  35.904   3.408
24899W        W90159   0.118  39.037   0.416
24900W        W90160   3.817  16.885  14.239
24901W        W90161  10.977  13.396  13.819
24902W        W90162  24.566  33.258   1.691
24903W        W90163  11.656   8.474   2.267
24904W        W90164  44.004  23.158   0.046
24905W        W90165  23.112   5.187   3.180
24906W        W90166  41.463   5.502   0.344
24907W        W90167  43.989  39.017   0.739
24908W        W90168   9.804  28.361  13.046
24909W        W90169  43.022  44.078  12.919
24910W        W90170  41.376  39.315   3.668
24911W        W90171  21.602  27.701   2.687
24912W        W90172  10.208  42.531  12.515
24913W        W90173   4.801  38.931  14.348
24914W        W90174   0.431  25.782   2.757
24915W        W90175  18.205  35.049   2.361
24916W        W90176  32.104   9.304   4.212
24917W        W90177  20.512   7.592  11.093
24918W        W90178  25.954  39.514   3.329
24919W        W90179  40.766  20.307   4.232
24920W        W90180  22.790  43.401   2.350
24921W        W90181  44.341  16.019   3.318
24922W        W90182  36.962  42.876   2.059
24923W        W90183  15.154  33.560  12.925
24924W        W90184  24.369  15.204  14.652
24925W        W90185   3.433  29.482  11.041
24926W        W90186  26.964  22.589   3.701
24927W        W90187  38.076  13.783  11.721
24928W        W90188   0.202  16.848   4.663
24929W        W90189  40.292  36.401   2.314
24930W        W90190  15.690  28.603  14.318
24931W        W90191  21.669  19.242   0.840
24932W        W90192  14.834  36.819   3.857
24933W        W90193   4.195  10.136   2.313
24934W        W90194   6.258  26.172   2.133
24935W        W90195   5.864  41.017  14.865
24936W        W90196  13.897   6.172  12.603
24937W        W90197   7.090  40.302  13.441
24938W        W90198   3.578  32.382   1.455
24939W        W90199  13.200   1.472  11.174
24940W        W90200  27.214  22.878   4.086
24941W        W90201   3.165  39.867   3.345
24942W        W90202   1.992   2.920   3.761
24943W        W90203   9.388  21.502  13.516
24944W        W90204  17.307  20.912  14.328
24945W        W90205  38.429  10.394   3.702
24946W        W90206  23.542   7.869  11.691
24947W        W90207   6.671  25.386   1.309
24948W        W90208  10.435   7.326   1.779
24949W        W90209  34.321  27.971   4.317
24950W        W90210  15.967  21.166  14.236
24951W        W90211  36.310  13.649   3.198
24952W        W90212   0.774  18.204  14.960
24953W        W90213  21.672  17.457   3.843
24954W        W90214  28.675  28.345  11.654
24955W        W90215  25.594  39.614  10.217
24956W        W90216  37.576  12.095  12.166
24957W        W90217  18.751  32.018   2.355
24958W        W90218   3.087  12.191  13.771
24959W        W90219  33.351  33.770   4.989
24960W        W90220   3.743  18.253  12.110
24961W        W90221   0.032  37.265   1.313
24962W        W90222  12.135  24.882  11.784
24963W        W90223  14.598  21.268  10.914
24964W        W90224  29.675  17.821   2.817
24965W        W90225  16.176   4.855  10.676
24966W        W90226  34.637  10.855  13.358
24967W        W90227  31.715  20.276  14.672
24968W        W90228  10.264   0.030   3.912
24969W        W90229  31.038  18.083   2.646
24970W        W90230  33.979   4.945  12.088
24971W        W90231  36.756   7.089  11.430
24972W        W90232   6.533   8.305  10.532
24973W        W90233  39.076  11.631  12.188
24974W        W90234   0.793  24.462  14.321
24975W        W90235   0.842  36.762   4.634
24976W        W90236  42.825  20.092  12.384
24977W        W90237  12.271  41.012  10.645
24978W        W90238   6.609  11.814  13.045
24979W        W90239  44.722  32.862   0.985
24980W        W90240  30.654  38.573   3.155
24981W        W90241  36.121   1.638   0.084
24982W        W90242  19.573  33.839  14.740
24983W        W90243  24.956  28.499  13.871
24984W        W90244  25.748  17.049  12.537
24985W        W90245  44.404  42.258   3.424
24986W        W90246   8.240  19.929  11.166
24987W        W90247  39.874  10.122   0.028
24988W        W90248   7.190  14.618   1.320
24989W        W90249  15.621  34.907  13.914
24990W        W90250  17.972  17.239   1.644
24991W        W90251  20.114  32.387   4.205
24992W        W90252  43.465   0.786  13.604
24993W        W90253   3.631  30.177  10.794
24994W        W90254  24.052   5.603   2.408
24995W        W90255   3.279  37.293   0.788
24996W        W90256  44.461  33.039  12.859
24997W        W90257  26.164  12.689   2.598
24998W        W90258  16.319  39.863  13.991
24999W        W90259  43.643  26.386  12.799
25000W        W90260  44.518   0.498   3.758
25001W        W90261  11.113  21.699   0.839
25002W        W90262  24.129  25.432   3.549
25003W        W90263   5.226  38.930  14.011
25004W        W90264  34.107  34.740   2.306
25005W        W90265  24.972  43.772   3.881
25006W        W90266  28.821  41.586   3.447
25007W        W90267  34.319  23.668   3.299
25008W        W90268  43.314   6.862  12.433
25009W        W90269  13.881   0.751   1.849
25010W        W90270  16.675  19.135   2.628
25011W        W90271  39.017  13.818   2.007
25012W        W90272  25.800  29.936   1.712
25013W        W90273  10.706  16.229  12.513
25014W        W90274  13.136   1.239  12.466
25015W        W90275   7.836  40.558   4.181
25016W        W90276  34.817  17.619  11.654
25017W        W90277  22.113  24.409   3.398
25018W        W90278  11.328  14.146  11.965
25019W        W90279  36.670  24.117  14.484
25020W        W90280  38.695   8.818  12.984
25021W        W90281  30.119   5.277  10.708
25022W        W90282   1.256  16.200   0.960
25023W        W90283  43.520  30.304   1.238
25024W        W90284   0.014  23.643  13.035
25025W        W90285  10.373  20.778  14.319
25026W        W90286   6.979  33.687  12.449
25027W        W90287  36.054  41.182  13.214
25028W        W90288   9.596  10.720  12.152
25029W        W90289  43.893  11.810  11.977
25030W        W90290  27.905   6.496   1.058
25031W        W90291  17.369   4.624  12.503
25032W        W90292  15.894  22.064   1.205
25033W        W90293  37.528  25.959   0.425
25034W        W90294  32.136   2.499   4.065
25035W        W90295  41.355   0.314  13.047
25036W        W90296   2.935   7.816   0.905
25037W        W90297  33.071   8.241  14.426
25038W        W90298  15.556  11.195   3.392
25039W        W90299  33.181   2.299  12.396
25040W        W90300  31.391  31.879   1.753
25041W        W90301  31.923  28.137  10.258
25042W        W90302   4.987  18.499  13.900
25043W        W90303  22.052  27.958  12.567
25044W        W90304  40.080  29.882  13.534
25045W        W90305   3.038   8.779  12.047
25046W        W90306  14.193  43.446  10.627
25047W        W90307  14.604   2.764   3.264
25048W        W90308  26.524  30.148  14.028
25049W        W90309  34.804  20.409  11.906
25050W        W90310  42.311   3.224   3.280
25051W        W90311  37.878   2.444   5.058
25052W        W90312  35.269  42.046   2.344
25053W        W90313  31.410  40.022   3.853
25054W        W90314  13.033   6.129  13.225
25055W        W90315   8.860  43.408   1.232
25056W        W90316  40.858  26.700  11.921
25057W        W90317   5.098  38.952  10.853
25058W        W90318  10.743  41.842   1.786
25059W        W90319  25.774  16.005   3.641
25060W        W90320  44.367  35.031  10.576
25061W        W90321  35.677   1.468   0.335
25062W        W90322  44.987  19.772   1.244
25063W        W90323  11.920  10.215  11.537
25064W        W90324  10.754  28.078   4.815
25065W        W90325   0.146   9.313   0.434
25066W        W90326  43.753  25.444   0.252
25067W        W90327  40.833  44.234   1.757
25068W        W90328  27.099   0.804   4.294
25069W        W90329  42.984  25.357  14.182
25070W        W90330  14.840   8.637   1.310
25071W        W90331  11.313  18.126   0.259
25072W        W90332  11.869   9.785   4.660
25073W        W90333  18.931  20.439   1.344
25074W        W90334   3.484  19.184   3.785
25075W        W90335   6.377  28.604   9.791
25076W        W90336   3.255  15.058   1.836
25077W        W90337   0.946  22.555   4.958
25078W        W90338  29.055   9.251   4.093
25079W        W90339   0.874  41.161  11.121
25080W        W90340  36.609  39.873   4.477
25081W        W90341   0.792   4.511   2.296
25082W        W90342  13.529  16.611   0.879
25083W        W90343  39.231  40.654   2.801
25084W        W90344   2.578  41.308   2.699
25085W        W90345  23.044   2.708   4.108
25086W        W90346  16.560   3.227  11.275
25087W        W90347   0.351  37.458   4.432
25088W        W90348   6.134  17.170   9.925
25089W        W90349  28.489  26.378   9.874
25090W        W90350  32.827  14.127   1.427
25091W        W90351  20.071  25.714  12.034
25092W        W90352   5.747  35.677  10.532
25093W        W90353   8.581  15.822   3.282
25094W        W90354  26.714  24.689  11.277
25095W        W90355   6.894  26.298  14.522
25096W        W90356   7.021  25.014   1.336
25097W        W90357  24.078   2.182  12.823
25098W        W90358  19.331  28.202   2.832
25099W        W90359   3.346  23.190   0.034
25100W        W90360  11.893   3.683   2.331
25101W        W90361   5.439   8.363  12.099
25102W        W90362   5.797  30.199  12.086
25103W        W90363  12.339  29.469   4.260
25104W        W90364  17.707  37.790   3.950
25105W        W90365  14.096  40.104   1.900
25106W        W90366  10.694  21.187  14.329
25107W        W90367   5.958  11.241   2.703
25108W        W90368   0.793  10.912  13.851
25109W        W90369  38.076  36.574   3.674
25110W        W90370  22.392  35.069   0.243
25111W        W90371   6.607  23.035   3.554
25112W        W90372  30.515  18.083   4.859
25113W        W90373   1.577  41.243  14.483
25114W        W90374  37.527  40.197  10.700
25115W        W90375  24.031  33.903   3.131
25116W        W90376  41.610   8.683   1.356
25117W        W90377  20.453   7.410   1.379
25118W        W90378  28.949   1.455   4.641
25119W        W90379   8.810  23.972   0.387
25120W        W90380   0.564  28.118  12.829
25121W        W90381  25.467  31.267  14.853
25122W        W90382  33.151  41.789  14.868
25123W        W90383  25.187  34.104   5.477
25124W        W90384  44.714  40.223   0.743
25125W        W90385  32.636  39.606  14.727
25126W        W90386  36.256  38.285  11.108
25127W        W90387  26.321  25.296  13.828
25128W        W90388  10.290  12.605   3.438
25129W        W90389  38.458  27.855   0.416
25130W        W90390  30.187  21.017   2.862
25131W        W90391  26.122  21.709  13.041
25132W        W90392  30.717  35.541  13.036
25133W        W90393  23.486  21.565  14.974
25134W        W90394  28.192   9.392   1.244
25135W        W90395  33.532   7.347  12.180
25136W        W90396   6.252  34.974  11.539
25137W        W90397  13.136  36.179  13.133
25138W        W90398  27.486  23.676  12.174
25139W        W90399   0.036  23.177   5.551
25140W        W90400  42.780   8.280   0.866
25141W        W90401  42.483   7.520  11.170
25142W        W90402  21.076  17.080  10.175
25143W        W90403  18.043  39.847   4.642
25144W        W90404  32.236  27.148  11.293
25145W        W90405   3.332  42.259  13.395
25146W        W90406  24.108  18.739  14.360
25147W        W90407  27.173  32.845   3.557
25148W        W90408  32.959  44.524  13.060
25149W        W90409  24.197   0.311  12.083
25150W        W90410  18.079  11.567   1.311
25151W        W90411  29.657  31.732  14.045
25152W        W90412  36.797  22.795  11.606
25153W        W90413  41.656  29.607   0.188
25154W        W90414   4.812  14.351   1.881
25155W        W90415  16.840  17.189   0.009
25156W        W90416  32.330  37.914  12.577
25157W        W90417  44.173  23.781  12.896
25158W        W90418  32.472   5.043   2.429
25159W        W90419  10.000  18.627  12.454
25160W        W90420   3.586  24.379  11.198
25161W        W90421  22.641  23.264   2.808
25162W        W90422   3.865  37.151   4.383
25163W        W90423  31.468   9.334  14.571
25164W        W90424  39.305  30.145  11.594
25165W        W90425  22.092  28.618   1.208
25166W        W90426  21.862  42.089  12.028
25167W        W90427  44.531   1.673   3.445
25168W        W90428   3.700   2.970  14.823
25169W        W90429  22.261  43.753  11.075
25170W        W90430  11.553  10.672  14.524
25171W        W90431  35.131  26.925  11.191
25172W        W90432  32.369  12.577   2.126
25173W        W90433  40.625  38.289   0.684
25174W        W90434   2.828  31.715  13.691
25175W        W90435  12.284  26.495   3.335
25176W        W90436  13.738  38.844   0.787
25177W        W90437   5.221   5.430   1.259
25178W        W90438  30.935   8.236   1.856
25179W        W90439  36.348  16.337   4.637
25180W        W90440  38.919  40.311  10.623
25181W        W90441  28.977  12.255  11.247
25182W        W90442  13.737  30.019  13.061
25183W        W90443  41.159  23.796   1.254
25184W        W90444  29.176  25.630  12.962
25185W        W90445  33.179  20.249   3.666
25186W        W90446   8.258  14.889  12.617
25187W        W90447   7.187  13.925   3.270
25188W        W90448   0.010  34.933   0.792
25189W        W90449  41.131   2.946  13.811
25190W        W90450  31.668   1.348   1.438
25191W        W90451  14.116  18.571   4.182
25192W        W90452  27.247   5.297  11.457
25193W        W90453  21.746  41.210   0.913
25194W        W90454  32.317  35.315  11.862
25195W        W90455  24.985   9.809   0.709
25196W        W90456  31.093  38.845  13.913
25197W        W90457   9.261  28.650   4.520
25198W        W90458  15.056  15.329  14.332
25199W        W90459  13.608  42.225  14.679
25200W        W90460   3.926   7.438  11.538
25201W        W90461   5.712  42.062  10.482
25202W        W90462   4.849  31.760  11.923
25203W        W90463  18.810   4.054  14.466
25204W        W90464  11.235   0.497  11.174
25205W        W90465  28.144   0.970  11.219
25206W        W90466  15.649  42.375  13.563
25207W        W90467  36.427   7.715  13.509
25208W        W90468  29.836   2.912  14.085
25209W        W90469  24.060  11.630  13.878
25210W        W90470   5.755  12.760  14.812
25211W        W90471  42.280  20.774   2.690
25212W        W90472  38.582  44.849   1.279
25213W        W90473  13.735  23.984   2.647
25214W        W90474  36.317  40.935  14.392
25215W        W90475  28.077  42.526  14.256
25216W        W90476   2.315  41.242   0.180
25217W        W90477   6.646   5.302   4.746
25218W        W90478  41.282  33.606   3.732
25219W        W90479  38.153  43.311  13.350
25220W        W90480  12.890  35.524   4.109
25221W        W90481   5.176  11.203   1.406
25222W        W90482   2.195  15.755  12.618
25223W        W90483  39.530  20.054   3.329
25224W        W90484  37.927  42.372   3.445
25225W        W90485   4.895  29.637   4.501
25226W        W90486  34.932   7.220   3.531
25227W        W90487  27.855  21.561  14.283
25228W        W90488   3.720  19.414   5.177
25229W        W90489  23.378   8.095   1.741
25230W        W90490  39.380   3.483   3.823
25231W        W90491   0.394  39.222  11.416
25232W        W90492  26.373   0.148  10.631
25233W        W90493   2.869  13.182   5.158
25234W        W90494  23.337  19.170  14.829
25235W        W90495   5.889  18.820   4.350
25236W        W90496   2.861   9.216  14.252
25237W        W90497  34.546  30.457  12.118
25238W        W90498  14.440  16.673   0.983
25239W        W90499  42.905  18.548  13.768
25240W        W90500  23.530   8.728  14.469
25241W        W90501  39.737  33.396  12.587
25242W        W90502  27.084  10.285  13.980
25243W        W90503  35.341  35.066   1.261
25244W        W90504   1.718  16.189   4.120
25245W        W90505  13.117  40.622  12.241
25246W        W90506  25.838  15.691  11.377
25247W        W90507  37.303  43.208   3.222
25248W        W90508  32.956  20.492  11.958
25249W        W90509  29.123  26.747  11.177
25250W        W90510  19.572  18.329   0.841
25251W        W90511  37.331  39.492   4.639
25252W        W90512   3.486  13.170  13.907
25253W        W90513   5.542  30.411   2.554
25254W        W90514   7.877  27.431  11.688
25255W        W90515  31.677  19.275  10.813
25256W        W90516   8.050  13.442   2.809
25257W        W90517   2.828  13.626   4.915
25258W        W90518  42.202  12.017  12.051
25259W        W90519  27.576  19.142  14.985
25260W        W90520  18.638  44.716  12.021
25261W        W90521  43.853  14.267  13.548
25262W        W90522  34.744  43.138  11.472
25263W        W90523  21.246  11.442  13.901
25264W        W90524   1.293  27.016  14.100
25265W        W90525  33.212  30.511   0.791
25266W        W90526  16.257  26.141   1.140
25267W        W90527  16.242   6.185  14.605
25268W        W90528  34.833  14.061   0.168
25269W        W90529   7.156  19.550   1.207
25270W        W90530  25.114  19.594   2.698
25271W        W90531  31.020   0.264   3.718
25272W        W90532  15.069  39.391  13.425
25273W        W90533  23.062  28.647  11.877
25274W        W90534  27.701  44.689  10.716
25275W        W90535   3.945  32.864  11.639
25276W        W90536  31.803   8.880   2.610
25277W        W90537  41.002  17.606   0.016
25278W        W90538  36.488   9.370  13.310
25279W        W90539  16.796  10.576   3.306
25280W        W90540  41.923  11.091   2.085
25281W        W90541  36.397   3.773  14.401
25282W        W90542   2.681  35.363  12.007
25283W        W90543   1.477  12.189  12.814
25284W        W90544  43.776  24.561  12.947
25285W        W90545   8.278  35.192  14.054
25286W        W90546  36.427  37.321  11.771
25287W        W90547  26.987   2.776   0.171
25288W        W90548   3.827  43.962   4.153
25289W        W90549  26.888  28.745   0.993
25290W        W90550  15.655  35.929  12.160
25291W        W90551   2.657  28.686  10.335
25292W        W90552  38.555   9.905   3.343
25293W        W90553  18.328  23.797   3.786
25294W        W90554  23.601  10.291  13.864
25295W        W90555  26.121  17.130   0.841
25296W        W90556   3.657  12.290   3.259
25297W        W90557  22.238  42.520   1.821
25298W        W90558   8.899  23.302   0.916
25299W        W90559   5.436   9.625  11.159
25300W        W90560  33.361  37.392  12.925
25301W        W90561  14.841  37.107   1.835
25302W        W90562  39.027  34.225  12.557
25303W        W90563  36.328  31.751   4.719
25304W        W90564  40.823  43.999   4.148
25305W        W90565  26.513  34.866   4.998
25306W        W90566  44.309  34.463  11.664
25307W        W90567  27.596  27.300   0.991
25308W        W90568   3.881  39.314   1.469
25309W        W90569  32.904  39.487  12.943
25310W        W90570  36.748  22.221  12.250
25311W        W90571   7.665  31.452   4.552
25312W        W90572  31.076  43.111  10.088
25313W        W90573  43.188  17.007  13.430
25314W        W90574  42.879  21.696  11.968
25315W        W90575  15.257   6.602   5.341
25316W        W90576  13.530  17.038   2.806
25317W        W90577  38.669  43.014  12.386
25318W        W90578  11.829  35.493   3.359
25319W        W90579  24.499  22.530  13.401
25320W        W90580  14.282   3.337   4.872
25321W        W90581   0.222   4.283   2.710
25322W        W90582  31.407  25.008  11.991
25323W        W90583  20.212   8.185   4.633
25324W        W90584   7.830   5.080  13.986
25325W        W90585   8.142  21.547  14.824
25326W        W90586  31.826   2.812   4.316
25327W        W90587  22.729  10.468   4.064
25328W        W90588  11.348   6.186  11.106
25329W        W90589  38.346  27.523   4.658
25330W        W90590   9.910   7.066  12.490
25331W        W90591  33.359  40.161  10.235
25332W        W90592  32.135   6.020  11.462
25333W        W90593  18.131  27.519   1.978
25334W        W90594   8.462  33.945   1.875
25335W        W90595  37.064  13.213  13.308
25336W        W90596  42.607  42.457  10.640
25337W        W90597   6.377  15.498   5.049
25338W        W90598  20.910  12.161   2.785
25339W        W90599  25.779  37.274   2.845
25340W        W90600  17.200  28.063  12.622
25341W        W90601  20.201  30.602   3.642
25342W        W90602   3.938  27.577  12.520
25343W        W90603  32.046  29.984  13.895
25344W        W90604   4.355  27.871  13.083
25345W        W90605   9.484  24.194   4.852
25346W        W90606  34.896  42.732   4.470
25347W        W90607  43.015  44.913  12.152
25348W        W90608   8.704  27.407  14.191
25349W        W90609  15.747  37.450  11.636
25350W        W90610  38.553  37.353  12.173
25351W        W90611   6.549  31.013  13.085
25352W        W90612  30.839  27.279   4.696
25353W        W90613   1.424  36.334   1.026
25354W        W90614  30.987  32.533   4.515
25355W        W90615   8.685  21.978   3.178
25356W        W90616  42.927  10.820  13.337
25357W        W90617  27.277   5.372   3.750
25358W        W90618  27.947  21.016  14.632
25359W        W90619   1.891   2.409   1.015
25360W        W90620   1.878  37.421  11.199
25361W        W90621  23.924  10.143  13.087
25362W        W90622   1.624  36.587   3.702
25363W        W90623  31.124  12.606  12.086
25364W        W90624  21.718  23.079  13.433
25365W        W90625  42.477   3.702  13.880
25366W        W90626   7.737  44.901  10.417
25367W        W90627  23.037  18.842   2.587
25368W        W90628  37.029  22.446   2.841
25369W        W90629  15.860   5.320  14.438
25370W        W90630  21.303   9.255   0.291
25371W        W90631  21.417  34.452   2.828
25372W        W90632  34.943   5.871  12.982
25373W        W90633   4.799  19.806  14.329
25374W        W90634  27.901  13.181   4.247
25375W        W90635  17.879  19.267  11.650
25376W        W90636  15.731  36.051  10.223
25377W        W90637  39.505  27.378   0.852
25378W        W90638  31.416  22.227  13.891
25379W        W90639  23.015  34.311   4.104
25380W        W90640   4.579  18.725   0.864
25381W        W90641  10.290  26.539   1.215
25382W        W90642  40.990  43.986   2.921
25383W        W90643  26.035   2.177   3.899
25384W        W90644  27.589  22.522  12.335
25385W        W90645  20.077  25.834   1.938
25386W        W90646  27.017   2.274   2.271
25387W        W90647  37.922  37.371  11.282
25388W        W90648   7.428  12.728   4.884
25389W        W90649  25.128  24.638   4.511
25390W        W90650  42.846   6.357   2.921
25391W        W90651  24.574  35.638  13.367
25392W        W90652  27.030  25.395   0.858
25393W        W90653   6.709  30.979  11.227
25394W        W90654   9.391  11.663   4.258
25395W        W90655  31.511   3.815  10.481
25396W        W90656  26.570  30.894   2.865
25397W        W90657  18.281  36.914  12.374
25398W        W90658  43.918  18.416   0.039
25399W        W90659  43.346   5.031  11.047
25400W        W90660  33.939  25.715   1.752
25401W        W90661  33.733  36.776  10.762
25402W        W90662  30.284  43.656  13.584
25403W        W90663  30.467  26.844   4.142
25404W        W90664  16.753   0.007  13.940
25405W        W90665  22.391   2.733   4.024
25406W        W90666  27.294  22.992  12.290
25407W        W90667  31.745  38.176  14.438
25408W        W90668  44.511  42.841   1.620
25409W        W90669  40.844  16.321  10.642
25410W        W90670   4.218   1.850  11.630
25411W        W90671  12.874   2.372  13.040
25412W        W90672  34.822  12.272   2.885
25413W        W90673  14.716  11.247   1.952
25414W        W90674  30.087  18.103  11.424
25415W        W90675  44.991  26.361   1.461
25416W        W90676   1.358  33.442   3.391
25417W        W90677  20.536   6.166  11.061
25418W        W90678  22.453  24.716   0.788
25419W        W90679   8.191  41.577  14.884
25420W        W90680  35.554  11.107  14.683
25421W        W90681  15.622  12.562  14.289
25422W        W90682   9.075  37.158  13.032
25423W        W90683  41.817   2.120   0.469
25424W        W90684  20.972  10.646   2.246
25425W        W90685  13.724  11.690  14.370
25426W        W90686  11.271  32.522   0.409
25427W        W90687  34.006  41.365   4.835
25428W        W90688  26.200  31.274   2.131
25429W        W90689  34.605  36.922   0.723
25430W        W90690  16.676   5.077   1.155
25431W        W90691  25.409  37.182   4.513
25432W        W90692  40.540  37.298   2.887
25433W        W90693  27.998  23.735  10.975
25434W        W90694  21.033  32.379   4.685
25435W        W90695   1.771  37.468  14.784
25436W        W90696   9.170   8.157   4.301
25437W        W90697   7.953  37.753   3.140
25438W        W90698  15.419  40.038   2.422
25439W        W90699  29.556   4.907   1.623
25440W        W90700  23.755   6.473  11.995
25441W        W90701   1.374   2.990  14.383
25442W        W90702  44.593  14.321   0.539
25443W        W90703  27.968  32.893   3.181
25444W        W90704  12.768  32.462  12.626
25445W        W90705  31.482  37.935   3.196
25446W        W90706  15.216  12.161   0.881
25447W        W90707  23.284   6.713   2.257
25448W        W90708  28.391   3.737   0.468
25449W        W90709   8.806  41.046   1.945
25450W        W90710  14.872  10.602  12.956
25451W        W90711   1.456  23.201   3.184
25452W        W90712  43.848  39.529  13.956
25453W        W90713  30.958   0.263  14.107
25454W        W90714  15.043  12.379  14.027
25455W        W90715  35.493  28.472  13.569
25456W        W90716   0.720  14.001   1.380
25457W        W90717  17.218  44.425  13.000
25458W        W90718  43.503  39.303  11.705
25459W        W90719  22.976  36.599   3.132
25460W        W90720  20.162  26.405  13.770
25461W        W90721  19.204  43.834  13.867
25462W        W90722  25.560  30.911   1.339
25463W        W90723  40.289  27.874  13.469
25464W        W90724  16.201  27.882  13.402
25465W        W90725  40.974  21.421  11.458
25466W        W90726  44.319   2.779   1.250
25467W        W90727   8.658  36.074   2.624
25468W        W90728   3.175   2.522   1.746
25469W        W90729  15.814  16.650   2.818
25470W        W90730   0.346  42.290  13.934
25471W        W90731  10.743   9.045   4.553
25472W        W90732  21.640  16.996  10.727
25473W        W90733   7.859   5.148   1.996
25474W        W90734  40.608  11.720  12.932
25475W        W90735   8.583  15.258  13.388
25476W        W90736  16.815  41.241  12.063
25477W        W90737  33.768  36.092   2.406
25478W        W90738  16.855  32.368  10.678
25479W        W90739   7.002   0.957   3.987
25480W        W90740  10.831  38.040  14.841
25481W        W90741  33.705  34.591   1.129
25482W        W90742  12.579  40.155  14.077
25483W        W90743  20.269   0.290   2.759
25484W        W90744  37.418  35.119   0.259
25485W        W90745  31.921  43.357  12.621
25486W        W90746  21.627  38.633   2.404
25487W        W90747  27.148   5.964   0.759
25488W        W90748  18.133  20.116   1.971
25489W        W90749  22.352  14.365   3.141
25490W        W90750  28.484  40.956  11.124
25491W        W90751  43.714  25.127  11.249
25492W        W90752  40.528  15.372  12.039
25493W        W90753  44.323  29.213  12.532
25494W        W90754  35.569  38.571   0.894
25495W        W90755  14.161   1.842   4.857
25496W        W90756   9.654  38.250   1.214
25497W        W90757   8.433  42.485   0.317
25498W        W90758  41.677   7.149  10.783
25499W        W90759  29.438  20.197   2.693
25500W        W90760  32.294  21.511   2.070
25501W        W90761   8.565   0.756   2.875
25502W        W90762  18.618   0.817  12.366
25503W        W90763  33.940  26.391   5.358
25504W        W90764  25.514  31.023   4.897
25505W        W90765  33.557  37.586  14.465
25506W        W90766  30.988  27.286   5.196
25507W        W90767  38.773  32.412  10.298
25508W        W90768  44.433   5.325   2.257
25509W        W90769  33.159  31.245  11.911
25510W        W90770  11.936  44.623   1.335
25511W        W90771  36.122  20.683   4.528
25512W        W90772  30.408  30.435  11.479
25513W        W90773   6.149  29.546   3.651
25514W        W90774  24.160  27.777  13.434
25515W        W90775  40.169  13.263   0.010
25516W        W90776  19.554  33.837   1.344
25517W        W90777  17.842  35.450   0.618
25518W        W90778  43.931  11.597  14.950
25519W        W90779  31.186  16.071  13.988
25520W        W90780  13.161  31.144   3.175
25521W        W90781  37.486  21.053   4.010
25522W        W90782  17.156  39.571  14.356
25523W        W90783  33.133  23.686   1.982
25524W        W90784   1.657  43.449   4.167
25525W        W90785  26.159  37.944  10.558
25526W        W90786  27.761  40.967   2.304
25527W        W90787  13.633   1.815   1.475
25528W        W90788  20.093   8.824   3.335
25529W        W90789  14.822   7.656   3.265
25530W        W90790  44.027   3.688   3.253
25531W        W90791   8.177  40.767   3.075
25532W        W90792  32.641  28.150   5.126
25533W        W90793  44.263   9.207  14.992
25534W        W90794  38.487   2.198  13.830
25535W        W90795  21.705  27.651  14.368
25536W        W90796  21.087  43.717   3.167
25537W        W90797   9.571  35.339  14.052
25538W        W90798  37.277  44.835   2.676
25539W        W90799  15.654   1.719  14.085
25540W        W90800  33.289  26.042   2.347
25541W        W90801  41.773  10.118   0.252
25542W        W90802  25.063  28.429   1.387
25543W        W90803  24.436  34.956  14.929
25544W        W90804  14.331  41.519  12.583
25545W        W90805  18.399   1.370  10.791
25546W        W90806  43.819  16.777   0.790
25547W        W90807  36.488  41.466  12.414
25548W        W90808  30.724  26.494  12.951
25549W        W90809  18.791  22.080  13.385
25550W        W90810  37.056  23.994   3.765
25551W        W90811  34.400   3.136  10.650
25552W        W90812  10.037   6.917  11.267
25553W        W90813   2.308   8.559   0.709
25554W        W90814  35.629  15.705  11.877
25555W        W90815   7.417  42.943  10.791
25556W        W90816  39.967  29.982   2.122
25557W        W90817  30.408   8.383  14.484
25558W        W90818  38.754   6.927   0.949
25559W        W90819  26.952  11.215  11.140
25560W        W90820   3.744  11.880   0.852
25561W        W90821   9.769  44.918   3.726
25562W        W90822  40.093  28.482  10.748
25563W        W90823  20.520  30.332  10.892
25564W        W90824  24.399  38.883   0.340
25565W        W90825  39.762   2.958  11.481
25566W        W90826  14.748  25.528   3.796
25567W        W90827  33.200  12.367   4.666
25568W        W90828  38.382  10.163  10.262
25569W        W90829  34.216  39.777   3.271
25570W        W90830  12.169  32.596   0.498
25571W        W90831   0.858  34.480  12.460
25572W        W90832  33.843  30.561  13.408
25573W        W90833  37.143  21.041  11.447
25574W        W90834  28.084   8.253  13.303
25575W        W90835  14.736   7.858   9.809
25576W        W90836   1.321  24.695   0.575
25577W        W90837  40.294  31.085   1.223
25578W        W90838  28.621  40.865   0.882
25579W        W90839  42.912  17.292   0.658
25580W        W90840  37.086   6.288  13.938
25581W        W90841  37.805   0.242  14.160
25582W        W90842  11.961  43.929  11.421
25583W        W90843  35.845  22.792   3.126
25584W        W90844  38.281   8.814  12.228
25585W        W90845  44.940  16.494   0.215
25586W        W90846  14.633  41.118  13.412
25587W        W90847  25.407   5.212   0.562
25588W        W90848  37.709  18.855  12.446
25589W        W90849  16.015  29.969   3.134
25590W        W90850   9.624  17.249   3.113
25591W        W90851  37.042  25.891   0.600
25592W        W90852  23.500  42.852   2.630
25593W        W90853  20.673   1.900   0.456
25594W        W90854  43.768  25.582  12.977
25595W        W90855  23.061  42.214   3.974
25596W        W90856  12.234  36.986  11.625
25597W        W90857   6.296  14.093   0.357
25598W        W90858   8.564  18.461  11.810
25599W        W90859   3.873  39.877  12.502
25600W        W90860   6.881  25.892   3.219
25601W        W90861  42.962  41.759  13.043
25602W        W90862  42.566  14.635   2.414
25603W        W90863   8.005  41.980  12.228
25604W        W90864   4.482  27.259   0.213
25605W        W90865  34.113  33.216   3.220
25606W        W90866   9.226  10.747   0.737
25607W        W90867  21.730  15.603  11.484
25608W        W90868   6.248  32.537   3.948
25609W        W90869  27.465  33.488   1.699
25610W        W90870   6.748  31.041  13.572
25611W        W90871  28.141  42.716   0.428
25612W        W90872   3.882   4.712  12.555
25613W        W90873   1.244  14.373  13.744
25614W        W90874  38.006  35.090   2.240
25615W        W90875  37.767  19.460   1.541
25616W        W90876   5.268  32.314  12.526
25617W        W90877   7.395   9.352  14.004
25618W        W90878  30.628  33.973  11.933
25619W        W90879  12.697  39.319   1.224
25620W        W90880   8.833   0.422  14.548
25621W        W90881  10.733  24.983   3.200
25622W        W90882  16.009  15.632  13.579
25623W        W90883  41.145   0.384  10.378
25624W        W90884   5.892  33.425  11.008
25625W        W90885  29.964  42.259   4.505
25626W        W90886  19.868  29.189  14.869
25627W        W90887  14.674  39.115   3.717
25628W        W90888   1.354  41.487  12.899
25629W        W90889  18.082   4.986  11.949
25630W        W90890  33.607  23.557   0.426
25631W        W90891  19.959  12.531  14.151
25632W        W90892   6.243  44.277   1.245
25633W        W90893  27.238  16.921   4.025
25634W        W90894  39.006  18.315  10.644
25635W        W90895   1.359   6.388   4.517
25636W        W90896  26.081   3.139   4.301
25637W        W90897   6.700  17.602  12.496
25638W        W90898  33.646  30.535   4.218
25639W        W90899  39.944  38.065  12.435
25640W        W90900  35.115  11.693  11.387
25641W        W90901  17.779  11.168  11.956
25642W        W90902  29.660  26.116   2.356
25643W        W90903  26.366  15.666   1.324
25644W        W90904  29.230  30.453   4.487
25645W        W90905  24.601   8.850   1.741
25646W        W90906  23.153  22.678   3.201
25647W        W90907  34.861  30.594  11.739
25648W        W90908  19.259   0.785   3.996
25649W        W90909  10.418   9.799  13.822
25650W        W90910  33.546   5.454   4.539
25651W        W90911   3.835  22.612   2.756
25652W        W90912  38.365  34.352  13.883
25653W        W90913  16.850  27.138  10.726
25654W        W90914  26.013  17.030  11.540
25655W        W90915  44.657  42.134  10.867
25656W        W90916  16.642  26.615  14.864
25657W        W90917  43.885   5.585   3.402
25658W        W90918  34.609  21.591  14.562
25659W        W90919  34.180   7.201   4.503
25660W        W90920  33.725  15.770   4.080
25661W        W90921   8.151  26.598   0.647
25662W        W90922   1.836  24.386  14.350
25663W        W90923  21.525  31.603   0.012
25664W        W90924  17.373   9.221  14.451
25665W        W90925   3.542   5.089   1.692
25666W        W90926  10.740  14.603  11.886
25667W        W90927   9.728  16.090   4.664
25668W        W90928  40.466   5.428   0.161
25669W        W90929  42.649   5.635   3.312
25670W        W90930  11.253  21.027   2.783
25671W        W90931  31.017  34.169   3.880
25672W        W90932   0.835  44.732   0.448
25673W        W90933   8.278  30.937   2.448
25674W        W90934  19.229  33.836  13.613
25675W        W90935  22.689   3.709  13.291
25676W        W90936  18.841  39.720   3.522
25677W        W90937  20.695   8.806   0.740
25678W        W90938  12.377   0.781  11.601
25679W        W90939  36.986  16.740  12.880
25680W        W90940  23.112  23.760   1.171
25681W        W90941  37.009  39.590   3.360
25682W        W90942  35.869  36.772   0.832
25683W        W90943  12.594   2.005  10.556
25684W        W90944  33.483   8.001  11.630
25685W        W90945  42.855  19.197   1.188
25686W        W90946   3.014   7.681   4.208
25687W        W90947  42.960  31.847  14.996
25688W        W90948  12.219  21.036   2.746
25689W        W90949  24.250  13.295   3.420
25690W        W90950  33.133   1.256  11.612
25691W        W90951  24.934  11.854  11.580
25692W        W90952  43.959  44.928  13.377
25693W        W90953  33.210   8.178  13.500
25694W        W90954   1.333  39.776  12.640
25695W        W90955   6.093  14.359  11.385
25696W        W90956   3.826   5.164  12.014
25697W        W90957   2.403  35.433   4.617
25698W        W90958   7.783   1.985   3.955
25699W        W90959   7.199  34.546  13.386
25700W        W90960   0.533  29.004   3.311
25701W        W90961  40.820   6.723  12.283
25702W        W90962   1.818   8.392   0.851
25703W        W90963  10.614  15.344   5.026
25704W        W90964  29.437  30.603   1.365
25705W        W90965  26.043   5.884  12.940
25706W        W90966  32.017   8.429   2.440
25707W        W90967  44.019  19.453  11.379
25708W        W90968  18.498  29.916  13.397
25709W        W90969  17.045  42.023   1.739
25710W        W90970  43.343  41.373   2.747
25711W        W90971  38.090   5.445   1.218
25712W        W90972   6.130  35.550  13.842
25713W        W90973   0.625  34.067   4.112
25714W        W90974  16.448  23.727   3.433
25715W        W90975  26.234   1.943  13.385
25716W        W90976   9.651  15.068  12.415
25717W        W90977   9.973  20.706   0.806
25718W        W90978  43.205  15.554   0.764
25719W        W90979   4.675  25.607  14.340
25720W        W90980   3.235   6.377   4.544
25721W        W90981  26.794  33.383  11.930
25722W        W90982  10.190  20.842   1.256
25723W        W90983  26.502  27.523  11.969
25724W        W90984  32.002  16.218  11.459
25725W        W90985  39.484  37.471  12.569
25726W        W90986  44.486  35.448   0.302
25727W        W90987  14.819  10.728   4.046
25728W        W90988  34.688  32.422   4.348
25729W        W90989  17.173  16.852   1.515
25730W        W90990  14.686  29.378  12.419
25731W        W90991   5.834  18.107  12.238
25732W        W90992   4.921  34.664   3.602
25733W        W90993  25.250  33.390  12.542
25734W        W90994   9.175  43.212   2.221
25735W        W90995  22.091  33.972  12.054
25736W        W90996  43.197  22.956   1.555
25737W        W90997   7.644  20.572   0.349
25738W        W90998  13.853  38.014   0.195
25739W        W90999   4.384  26.614  14.504
25740W        W91000   2.959  20.171  12.079
25741W        W91001  30.669  21.968   0.837
25742W        W91002  42.029   7.921   1.443
25743W        W91003  29.023  24.412  11.673
25744W        W91004  35.312   5.204  12.052
25745W        W91005   2.523  16.797  14.856
25746W        W91006  15.564   4.999  13.833
25747W        W91007  23.003  38.427  12.011
25748W        W91008  20.497  27.103  14.911
25749W        W91009  10.940  24.953   1.690
25750W        W91010  25.267   7.172  13.144
25751W        W91011  11.818  22.576   4.568
25752W        W91012  10.591   9.686   1.258
25753W        W91013  39.321  42.297   4.748
25754W        W91014  42.439  44.942  13.567
25755W        W91015  35.784  26.007  12.538
25756W        W91016  19.249   6.864   0.186
25757W        W91017  16.079  25.871  11.582
25758W        W91018  14.559  21.766  13.353
25759W        W91019  17.078   3.615  12.477
25760W        W91020  25.298  41.536  13.868
25761W        W91021   9.381  41.947  10.682
25762W        W91022  13.154  34.437   2.753
25763W        W91023  43.701  26.940  11.207
25764W        W91024  28.597  29.288  12.529
25765W        W91025  26.273  26.155   2.211
25766W        W91026  37.425  28.751  13.864
25767W        W91027  39.281  12.951  13.708
25768W        W91028   0.372  42.609  13.517
25769W        W91029  37.143  20.790   4.307
25770W        W91030  33.487  30.372  11.485
25771W        W91031  15.656   5.364   0.772
25772W        W91032  14.862  14.370   2.278
25773W        W91033  26.162  11.996   4.466
25774W        W91034   4.306  34.153  12.885
25775W        W91035  42.245  31.492   3.725
25776W        W91036   5.969  19.046   1.825
25777W        W91037  13.336  27.593  11.947
25778W        W91038  35.913  22.732  11.926
25779W        W91039  11.677  10.886   2.145
25780W        W91040  39.616  18.169   3.968
25781W        W91041  16.748  13.848   0.786
25782W        W91042   0.272  21.690   3.617
25783W        W91043  26.154   1.285  11.139
25784W        W91044  35.838  33.032   0.350
25785W        W91045  19.001   1.264   2.807
25786W        W91046  32.293  30.179   3.201
25787W        W91047   1.982  41.674   3.897
25788W        W91048  39.316   8.916   3.817
25789W        W91049  13.289   3.156   1.912
25790W        W91050  23.670  30.864   0.470
25791W        W91051   8.226  31.885   4.109
25792W        W91052  16.176  42.019  12.909
25793W        W91053  13.589   6.947   1.317
25794W        W91054  27.774  18.013  11.522
25795W        W91055  31.468  38.098  14.001
25796W        W91056   9.718  19.079  12.465
25797W        W91057  18.916   7.208  11.078
25798W        W91058  42.764  39.357  12.398
25799W        W91059  23.598  25.987   2.407
25800W        W91060  38.612  44.189  12.034
25801W        W91061  18.923  12.538  13.349
25802W        W91062  18.709   5.041   3.618
25803W        W91063  35.113  34.370  12.360
25804W        W91064   5.636   5.929  11.078
25805W        W91065  11.699  23.050   4.420
25806W        W91066   2.833  43.454   4.605
25807W        W91067  29.374   8.224   4.620
25808W        W91068  41.114  17.510   2.646
25809W        W91069  24.688   7.869   1.451
25810W        W91070  23.714  43.487  11.612
25811W        W91071   4.137   7.424   2.658
25812W        W91072   1.037  25.444  13.487
25813W        W91073  41.275  15.118   1.607
25814W        W91074   8.396  12.389   3.638
25815W        W91075   1.764  27.953   3.429
25816W        W91076  44.525  13.038   0.475
25817W        W91077  19.528  42.552   4.119
25818W        W91078   4.208  42.746  13.323
25819W        W91079   0.071  31.368   2.749
25820W        W91080   0.275   5.615  10.734
25821W        W91081  10.165  39.056  12.077
25822W        W91082  19.780  33.843  12.856
25823W        W91083  35.349  31.496  11.632
25824W        W91084   9.476   9.403   0.698
25825W        W91085  36.646  19.703   4.611
25826W        W91086  36.146  29.056   1.249
25827W        W91087  31.388  26.661   0.486
25828W        W91088   1.638  44.030   3.190
25829W        W91089  22.006  11.181  10.600
25830W        W91090  10.814  20.503  14.513
25831W        W91091  42.868  33.591  10.516
25832W        W91092  22.284  22.952   2.586
25833W        W91093  38.766  24.942   2.391
25834W        W91094  43.903  21.244   2.385
25835W        W91095  30.653  11.191   2.909
25836W        W91096  32.487   1.205   0.303
25837W        W91097  18.725   8.491  11.997
25838W        W91098   6.942  17.695   4.203
25839W        W91099  22.197  29.748  12.026
25840W        W91100  24.972  38.577   2.773
25841W        W91101   6.451   1.383  12.508
25842W        W91102   9.937  29.616  10.061
25843W        W91103   5.399  16.358  10.795
25844W        W91104  17.563  32.023  12.869
25845W        W91105  34.157  40.483  13.321
25846W        W91106  12.856  11.412  14.750
25847W        W91107   5.978  36.067  11.818
25848W        W91108   2.252  10.867   9.943
25849W        W91109  37.777  23.901  10.746
25850W        W91110  23.458  42.351   2.526
25851W        W91111   0.973  17.051   3.617
25852W        W91112  28.547  13.218   2.096
25853W        W91113  32.653  42.095   1.979
25854W        W91114  18.174   7.994  13.559
25855W        W91115  35.980  21.583   2.056
25856W        W91116   0.836  27.772  12.531
25857W        W91117  26.656   1.223   0.846
25858W        W91118  21.596  38.562  14.527
25859W        W91119  42.837  18.707   4.054
25860W        W91120  19.863  25.397   3.609
25861W        W91121  32.146  18.055  13.381
25862W        W91122   7.447   4.867   1.892
25863W        W91123  43.716  10.319   0.315
25864W        W91124  42.322   5.134  13.087
25865W        W91125  23.942  15.810   0.844
25866W        W91126  24.597  19.813   1.929
25867W        W91127  26.283  23.565   3.241
25868W        W91128  29.143   2.889  12.377
25869W        W91129  40.393   0.254   0.218
25870W        W91130  41.465   3.805   3.193
25871W        W91131  11.137   9.341   2.344
25872W        W91132  26.528   0.699   0.789
25873W        W91133  25.060  20.224  11.651
25874W        W91134  39.081   1.788   2.667
25875W        W91135  28.597  34.247  13.942
25876W        W91136  29.040  36.023   2.265
25877W        W91137  41.662  24.976  14.239
25878W        W91138   1.272   7.857   0.320
25879W        W91139   7.687  23.504  14.561
25880W        W91140   9.469   6.704   3.643
25881W        W91141  42.848  10.314   1.715
25882W        W91142  13.937   5.491   1.179
25883W        W91143  20.275   1.879   0.825
25884W        W91144  41.301  23.430  14.434
25885W        W91145  29.082   4.139   0.130
25886W        W91146  36.536  32.481   0.913
25887W        W91147  18.019  18.991   1.949
25888W        W91148  12.574   0.855  12.853
25889W        W91149  39.948  16.211  13.272
25890W        W91150  32.240  40.674   0.154
25891W        W91151  22.259  30.943  13.824
25892W        W91152   5.632  15.734   0.308
25893W        W91153  19.629  15.696  14.817
25894W        W91154  39.541  26.709  11.605
25895W        W91155  33.929  24.989   4.875
25896W        W91156  16.561  18.808  11.545
25897W        W91157  22.512  16.503   4.060
25898W        W91158  29.755  20.230  12.010
25899W        W91159   6.828  12.346  10.768
25900W        W91160  37.640  16.665   1.422
25901W        W91161  20.556  36.072  11.674
25902W        W91162  35.826  19.555  14.427
25903W        W91163   5.997  34.329   1.155
25904W        W91164  16.101  12.177   0.664
25905W        W91165  13.842  30.238   0.550
25906W        W91166  27.773  38.997   4.627
25907W        W91167  35.977  38.635  10.780
25908W        W91168  12.138  23.391  14.494
25909W        W91169  26.728   2.460  11.030
25910W        W91170  13.240  17.627   0.302
25911W        W91171  24.667  43.601  10.632
25912W        W91172   3.712  14.740   3.594
25913W        W91173  13.558   1.383   0.170
25914W        W91174  38.906   4.387   0.078
25915W        W91175  16.383  39.492  11.661
25916W        W91176  38.601   7.388  13.841
25917W        W91177  36.826  18.695  13.489
25918W        W91178   6.111  34.970   0.137
25919W        W91179  18.719  16.053   2.804
25920W        W91180  44.395  21.447  13.909
25921W        W91181  38.794  24.318  11.520
25922W        W91182  19.584  43.963   1.358
25923W        W91183  24.915  17.580  14.265
25924W        W91184  13.358   4.736  12.078
25925W        W91185   4.358  41.365   4.601
25926W        W91186   9.583  16.129  10.458
25927W        W91187  16.284  14.978   2.353
25928W        W91188  23.065  20.445   0.425
25929W        W91189  36.971  18.259  10.713
25930W        W91190  14.651  22.944   1.636
25931W        W91191  18.525  37.981   1.120
25932W        W91192  12.638  26.800   5.420
25933W        W91193   2.763   4.965  14.449
25934W        W91194   0.751  30.523  14.240
25935W        W91195   3.453  26.582   0.305
25936W        W91196  32.065  17.777  11.500
25937W        W91197   3.597  32.598  13.452
25938W        W91198  22.140  15.064  13.881
25939W        W91199  28.548  40.261   1.964
25940W        W91200  25.840  23.287   3.646
25941W        W91201  32.007  10.441   0.890
25942W        W91202  39.067  11.327   1.934
25943W        W91203  41.405  32.811   1.163
25944W        W91204  19.431   9.385   0.913
25945W        W91205  32.158  17.484  12.831
25946W        W91206  34.528  23.372   3.668
25947W        W91207  28.469   9.520   2.907
25948W        W91208  22.741  38.888   2.574
25949W        W91209  24.545   2.157   3.608
25950W        W91210  28.034  32.903   1.728
25951W        W91211   4.169  20.659  12.112
25952W        W91212  10.329  15.049  14.460
25953W        W91213  35.245  34.071   4.466
25954W        W91214  29.010  43.481  14.338
25955W        W91215  35.393  33.362  13.910
25956W        W91216   8.336   6.287   1.778
25957W        W91217   7.313  28.952  12.987
25958W        W91218  23.684  34.654  13.849
25959W        W91219  15.807   4.158  11.078
25960W        W91220  34.073  37.385  12.123
25961W        W91221  28.584  44.915  11.974
25962W        W91222  41.351   4.268   3.903
25963W        W91223   3.993  21.641   4.265
25964W        W91224   1.434  13.321  13.820
25965W        W91225  13.391   7.748   2.667
25966W        W91226  22.660  12.198  11.637
25967W        W91227  26.752  15.557  12.578
25968W        W91228   4.311  43.083   3.367
25969W        W91229   7.209  19.184  12.853
25970W        W91230  35.110   9.266  11.574
25971W        W91231  28.556  28.585  13.620
25972W        W91232  32.680   1.893  13.970
25973W        W91233  29.991  39.322  11.867
25974W        W91234  29.639  42.885   0.257
25975W        W91235  21.605  35.124  13.697
25976W        W91236   5.872  30.935   4.783
25977W        W91237   9.287   5.648   1.359
25978W        W91238  11.850   0.570  12.830
25979W        W91239  34.285  40.397   4.492
25980W        W91240   3.763  37.015  14.543
25981W        W91241  26.384  27.940   5.048
25982W        W91242  35.149   9.338  12.748
25983W        W91243   4.583  16.512  13.949
25984W        W91244  26.728   9.284   3.619
25985W        W91245  32.687  13.573  12.583
25986W        W91246  43.931  43.450   0.936
25987W        W91247  41.264  15.176  13.448
25988W        W91248  22.955  23.699  12.065
25989W        W91249   8.095  37.588   1.344
25990W        W91250  34.577  11.728   1.356
25991W        W91251  42.514  31.992   2.845
25992W        W91252  37.884   8.180   3.707
25993W        W91253  22.638  30.496   2.709
25994W        W91254  43.690  43.928  13.316
25995W        W91255  15.866   8.910   1.264
25996W        W91256  29.635  13.866  12.934
25997W        W91257  18.882   8.264  10.688
25998W        W91258  31.363   1.075  13.542
25999W        W91259  37.903  39.317  12.538
26000W        W91260  19.250  25.946   0.042
26001W        W91261  34.789   0.828   1.298
26002W        W91262  43.820  15.385   3.128
26003W        W91263  30.433  22.361  10.801
26004W        W91264  25.693  11.915   1.343
26005W        W91265  29.919   9.140  11.427
26006W        W91266  40.279  12.050  11.630
26007W        W91267  13.123  29.569   3.704
26008W        W91268  42.426  42.779   0.271
26009W        W91269   2.163  30.358  14.009
26010W        W91270  28.955   0.909   3.346
26011W        W91271  43.803   3.913   2.832
26012W        W91272  41.943   4.935  12.450
26013W        W91273  30.568  21.047  13.585
26014W        W91274  21.758  39.696  12.052
26015W        W91275  10.273   4.103   1.790
26016W        W91276  19.169  27.074  12.414
26017W        W91277  44.711  19.068   1.973
26018W        W91278  17.986   5.391  12.473
26019W        W91279   0.301   5.117   2.940
26020W        W91280  26.419  13.817   3.192
26021W        W91281  42.870  28.258   0.856
26022W        W91282  43.526  29.018   0.080
26023W        W91283  32.994  34.845   0.696
26024W        W91284  18.039   9.561   0.781
26025W        W91285   6.725  10.365  12.574
26026W        W91286  15.200  40.623  14.394
26027W        W91287  16.363  36.506  11.466
26028W        W91288  39.112  43.041  11.252
26029W        W91289  21.439  24.281  14.257
26030W        W91290  12.499  43.026   3.176
26031W        W91291  27.199  21.785   4.125
26032W        W91292  19.058  32.036   3.377
26033W        W91293  39.543   0.452  14.725
26034W        W91294  29.622  36.488  14.211
26035W        W91295  27.400  20.284   1.872
26036W        W91296  25.635  24.658   4.623
26037W        W91297  29.238   7.584   2.733
26038W        W91298   9.117   7.158   4.595
26039W        W91299  39.153  24.628  10.233
26040W        W91300  11.832  40.874  12.780
26041W        W91301  33.224  38.056   3.366
26042W        W91302  20.261  23.456  11.575
26043W        W91303  38.865  16.769  10.667
26044W        W91304  15.739  38.493   3.659
26045W        W91305  26.953  26.106   3.662
26046W        W91306   7.816  24.989  14.280
26047W        W91307  13.560  13.277   3.845
26048W        W91308  30.811  39.356  11.278
26049W        W91309  42.219  37.820   0.439
26050W        W91310  39.152  44.537   4.565
26051W        W91311  15.108  28.672  13.986
26052W        W91312  44.351  26.012  11.644
26053W        W91313  42.291  31.324   0.367
26054W        W91314  20.327   0.294   3.541
26055W        W91315   6.125  33.684  11.965
26056W        W91316  41.348  17.158   3.364
26057W        W91317  42.516  20.019   3.410
26058W        W91318  20.607  15.609   1.777
26059W        W91319   3.489  37.440   1.796
26060W        W91320   8.553  20.749  13.506
26061W        W91321  10.622   9.170   2.254
26062W        W91322  42.202  13.569  11.542
26063W        W91323  41.985  32.117  11.950
26064W        W91324  10.095  21.780   1.022
26065W        W91325  23.728  42.483   3.889
26066W        W91326  22.755  44.504   3.783
26067W        W91327  28.162  37.411   4.615
26068W        W91328  10.066  18.079  14.035
26069W        W91329   2.357  38.618  12.607
26070W        W91330  16.567  31.395   0.789
26071W        W91331  30.559   7.390   4.308
26072W        W91332  21.351   6.093  11.867
26073W        W91333  38.257   9.348  13.912
26074W        W91334  32.354  27.260   4.800
26075W        W91335  27.501   3.495   4.435
26076W        W91336  32.691  43.697   1.434
26077W        W91337  41.357  24.170  10.666
26078W        W91338  17.346  34.657  13.099
26079W        W91339  21.579  23.739  12.958
26080W        W91340  11.972  33.961  14.984
26081W        W91341  29.005  42.018  11.601
26082W        W91342   1.933  16.539  13.591
26083W        W91343  19.086  44.049   4.336
26084W        W91344  11.648   9.805  11.681
26085W        W91345   8.625   6.437  13.157
26086W        W91346  11.248  14.611  12.144
26087W        W91347   4.518  11.499  13.417
26088W        W91348  22.588  18.814   4.923
26089W        W91349  41.378  13.351  10.693
26090W        W91350  20.764  21.272  13.384
26091W        W91351  16.522  25.996  12.091
26092W        W91352   9.750  21.499   0.746
26093W        W91353   8.404   7.287   4.052
26094W        W91354  27.745   8.474   0.980
26095W        W91355  43.001  27.034  14.351
26096W        W91356  35.626   7.195   3.124
26097W        W91357  33.962  10.485  11.977
26098W        W91358   2.980  41.180   4.377
26099W        W91359   8.899   8.086   0.228
26100W        W91360  38.911  32.808  12.588
26101W        W91361  31.001  31.500  14.768
26102W        W91362   8.299  38.268  12.805
26103W        W91363   0.315  43.482   3.291
26104W        W91364  32.446   2.374   4.959
26105W        W91365   6.939   7.363  14.336
26106W        W91366   2.229  39.405   2.820
26107W        W91367   4.019  29.536   0.234
26108W        W91368  10.103  17.679  13.530
26109W        W91369   4.378  37.458  11.632
26110W        W91370  34.849   8.170  12.176
26111W        W91371  30.051  20.216  11.589
26112W        W91372  44.991   2.293   2.239
26113W        W91373  12.101  24.536   0.310
26114W        W91374  43.423   6.817   2.491
26115W        W91375  26.805  10.736  12.948
26116W        W91376  39.429   0.802  11.976
26117W        W91377  17.733  13.488   4.107
26118W        W91378  27.487  36.009   0.221
26119W        W91379   6.153  35.578   2.374
26120W        W91380  39.839  10.367  10.545
26121W        W91381  22.528  28.638  11.641
26122W        W91382  24.224  13.422   1.949
26123W        W91383  37.525   2.354   0.732
26124W        W91384  44.194   6.207   4.157
26125W        W91385  36.673  19.060   3.639
26126W        W91386  20.125  32.899   0.510
26127W        W91387   2.076  31.034   3.212
26128W        W91388  22.200  34.092   3.763
26129W        W91389  17.462  42.361  10.650
26130W        W91390  42.785  30.021   1.778
26131W        W91391  25.184  44.953   1.857
26132W        W91392   5.120  33.095  13.298
26133W        W91393  29.963  35.780   0.780
26134W        W91394  23.666  43.862  12.471
26135W        W91395  21.440  29.890   4.169
26136W        W91396  28.527  11.569  13.507
26137W        W91397  26.081  16.889   0.289
26138W        W91398  44.920  10.247  14.044
26139W        W91399  38.795  18.663   2.218
26140W        W91400   3.698  13.639   4.670
26141W        W91401  42.599  17.797   4.624
26142W        W91402  28.590   2.190  14.464
26143W        W91403   2.812   9.431   4.076
26144W        W91404  31.611  13.905  11.937
26145W        W91405  34.554  35.079  13.778
26146W        W91406  14.805  23.075   2.585
26147W        W91407   0.310   2.397   3.696
26148W        W91408  23.660  44.780  14.280
26149W        W91409  10.857  20.954  12.032
26150W        W91410  20.881  18.011  13.052
26151W        W91411  11.607   5.327   4.211
26152W        W91412  39.748  11.839  13.869
26153W        W91413  23.549  19.382   0.781
26154W        W91414  41.983   7.785   4.601
26155W        W91415  13.305  20.792   1.388
26156W        W91416  25.055  22.559  14.663
26157W        W91417  35.253  28.035   4.134
26158W        W91418  26.912   2.782   2.271
26159W        W91419  28.090  39.621   4.079
26160W        W91420  11.228   2.181   3.749
26161W        W91421  23.476  29.718  13.478
26162W        W91422  35.930  18.285  13.409
26163W        W91423  24.212  36.302  13.063
26164W        W91424  14.577   6.191   4.180
26165W        W91425  43.035  35.781   4.143
26166W        W91426  41.340  42.867   1.744
26167W        W91427  11.607   1.429  14.553
26168W        W91428  37.499   2.434  12.898
26169W        W91429  17.182  41.521   4.554
26170W        W91430  14.316  16.725  14.601
26171W        W91431  27.080   7.627   3.170
26172W        W91432  30.436  25.384   3.582
26173W        W91433  32.185  28.592   4.063
26174W        W91434  18.303  26.414   2.153
26175W        W91435  14.856  38.445  13.560
26176W        W91436  38.254  29.166  11.038
26177W        W91437  22.409  16.058   3.527
26178W        W91438   3.166  42.144   3.684
26179W        W91439  31.258  35.487   0.258
26180W        W91440  33.243  24.768  11.984
26181W        W91441   8.637  21.049   4.165
26182W        W91442  36.947  18.368  12.530
26183W        W91443   7.943  26.112  10.234
26184W        W91444   8.316  10.675   0.747
26185W        W91445  35.443  33.975   3.259
26186W        W91446  40.096   6.599   3.717
26187W        W91447   9.348  33.067   4.107
26188W        W91448  21.696   5.974  13.484
26189W        W91449  21.081   1.277  12.548
26190W        W91450  16.302   6.734   3.830
26191W        W91451   6.912  11.266  14.439
26192W        W91452   9.217  30.208  11.973
26193W        W91453  28.527  25.994  14.856
26194W        W91454   6.289  20.469   0.081
26195W        W91455  38.107  12.978   0.308
26196W        W91456  44.441   0.926   2.786
26197W        W91457   1.651  19.219  14.029
26198W        W91458  18.031  40.036  12.905
26199W        W91459  37.386  30.287  12.436
26200W        W91460  20.343  36.451   5.413
26201W        W91461   1.491  38.823  12.127
26202W        W91462   4.743  19.585   1.430
26203W        W91463  22.783  23.996   3.582
26204W        W91464   5.470   4.060   3.745
26205W        W91465  27.029   0.018  11.261
26206W        W91466  36.100   8.351  14.830
26207W        W91467  22.855  37.628  12.435
26208W        W91468  26.938   4.156  12.409
26209W        W91469   8.462   5.722   2.758
26210W        W91470   5.932  39.735   0.330
26211W        W91471  42.936  34.180  13.529
26212W        W91472   9.258   6.759  10.629
26213W        W91473   9.684  32.944  11.692
26214W        W91474  35.523   8.963   4.424
26215W        W91475  25.899  26.756  14.123
26216W        W91476   2.305  13.193  13.589
26217W        W91477  18.033   8.373   2.338
26218W        W91478  14.066  16.177  11.589
26219W        W91479  25.003  25.407  13.460
26220W        W91480   5.369  33.016   3.047
26221W        W91481  42.919   7.165  11.218
26222W        W91482  15.977  37.789   3.106
26223W        W91483  42.889  17.434  13.375
26224W        W91484   2.828  44.274   4.168
26225W        W91485  15.136  42.541   2.254
26226W        W91486  28.574  42.513  14.053
26227W        W91487   8.420  33.121   3.736
26228W        W91488  32.713  19.100   2.548
26229W        W91489  16.292  10.637  10.539
26230W        W91490  43.010  34.612   2.378
26231W        W91491  17.582  42.057   1.410
26232W        W91492  10.734   1.214  12.443
26233W        W91493   6.142  25.242  10.170
26234W        W91494   1.688   3.919   4.557
26235W        W91495   9.394  17.507  11.563
26236W        W91496  10.734  11.936   3.761
26237W        W91497  20.811  36.967  11.907
26238W        W91498   1.344  22.014   4.508
26239W        W91499  27.955  33.207  14.382
26240W        W91500  25.879   9.228   1.688
26241W        W91501   6.217  23.057  14.099
26242W        W91502  32.010  43.374   1.883
26243W        W91503  31.329  12.744  10.720
26244W        W91504  44.310  29.229   1.380
26245W        W91505  34.362  36.446   1.918
26246W        W91506  42.240  13.368  13.916
26247W        W91507   4.803  30.640  10.188
26248W        W91508  28.223  14.773   2.494
26249W        W91509  38.864  11.139   1.248
26250W        W91510  36.432  39.047   3.404
26251W        W91511  11.643  25.646  10.620
26252W        W91512  13.871  10.198  13.921
26253W        W91513  32.057  41.415  14.435
26254W        W91514  23.502   2.225   0.604
26255W        W91515  10.666  14.038   2.796
26256W        W91516  17.353  28.897   3.317
26257W        W91517  11.687   6.514  10.173
26258W        W91518  17.825   9.478   3.594
26259W        W91519  19.674  12.076  11.050
26260W        W91520  12.201  32.494  12.962
26261W        W91521   7.906   0.366  10.707
26262W        W91522   6.835  43.817   0.940
26263W        W91523  28.154  23.322  11.275
26264W        W91524   2.601   4.886   3.087
26265W        W91525   8.946  12.554   4.150
26266W        W91526  14.466  28.598   0.726
26267W        W91527  39.842  38.455   3.302
26268W        W91528  20.543  44.223  14.995
26269W        W91529  39.793  43.106   1.721
26270W        W91530  27.148   8.384  13.020
26271W        W91531   8.675  32.569   4.540
26272W        W91532  27.537  10.412   2.337
26273W        W91533  11.436  34.899  13.500
26274W        W91534   3.973  34.381   1.424
26275W        W91535  34.952  44.461  11.657
26276W        W91536  25.641  22.946   1.734
26277W        W91537  16.072  30.580   3.832
26278W        W91538  17.560  44.238  13.551
26279W        W91539  17.910  11.749  13.045
26280W        W91540  39.441  42.089   3.873
26281W        W91541   4.513  22.664   4.491
26282W        W91542  31.245  13.194  14.458
26283W        W91543   3.876  44.056   3.271
26284W        W91544   6.402  26.931   0.785
26285W        W91545  41.955   2.973   4.456
26286W        W91546  17.115  28.182  11.585
26287W        W91547  15.358   6.911  10.004
26288W        W91548   2.476  40.298  13.107
26289W        W91549  18.753  44.645   4.862
26290W        W91550  12.675  18.171   3.320
26291W        W91551   8.448  44.138  11.681
26292W        W91552  18.668   4.249   3.972
26293W        W91553  41.120  30.686   1.906
26294W        W91554  22.688  25.732  13.972
26295W        W91555  39.018  36.590   4.879
26296W        W91556  21.519  13.862  10.767
26297W        W91557  21.219  42.829  11.075
26298W        W91558  38.001  13.325   4.117
26299W        W91559  12.061  27.894  12.341
26300W        W91560  21.128   1.469  10.714
26301W        W91561  19.778  23.221  11.578
26302W        W91562  18.251   1.702  13.201
26303W        W91563  15.991  41.932   0.843
26304W        W91564  11.303   2.479  14.557
26305W        W91565  16.802   1.913  13.863
26306W        W91566   2.188   4.835  10.721
26307W        W91567  42.298   7.952   2.296
26308W        W91568  14.230  35.627   3.757
26309W        W91569  32.210  36.039   1.864
26310W        W91570  22.487  38.527  12.011
26311W        W91571   2.388   1.310  13.770
26312W        W91572   8.613   1.228  13.109
26313W        W91573  30.106  24.454   0.156
26314W        W91574  31.351   6.397   1.561
26315W        W91575  23.718  34.093  10.702
26316W        W91576  29.531  17.388  11.468
26317W        W91577   3.713  35.374   2.366
26318W        W91578  19.678  13.712   3.364
26319W        W91579  28.419  42.059   3.303
26320W        W91580  30.773  35.008  11.759
26321W        W91581  32.155   2.593  13.877
26322W        W91582  13.324  29.717  12.896
26323W        W91583  20.565  14.988   2.864
26324W        W91584  14.851  33.390  12.477
26325W        W91585  11.368  20.598   3.107
26326W        W91586  34.070  44.756  14.475
26327W        W91587   1.303  37.991  10.929
26328W        W91588  32.869  24.740   3.212
26329W        W91589  44.405  24.648  12.525
26330W        W91590  18.996  19.485   2.701
26331W        W91591  19.312   5.668  14.766
26332W        W91592  43.564   2.166  10.695
26333W        W91593  35.530  17.533   1.908
26334W        W91594   5.899  42.817   3.224
26335W        W91595  37.961  30.210  13.439
26336W        W91596  33.086  25.540   2.509
26337W        W91597  11.867  30.654  13.346
26338W        W91598  26.008  15.886  14.502
26339W        W91599  20.344  38.024   9.860
26340W        W91600  27.536  43.995   4.608
26341W        W91601  33.042  10.392   1.274
26342W        W91602  21.744  16.081  13.405
26343W        W91603  22.311  37.174  14.206
26344W        W91604  31.144  40.810  11.097
26345W        W91605  24.935  10.094   2.402
26346W        W91606  24.562  31.451  13.832
26347W        W91607  35.581  28.517  14.416
26348W        W91608  10.703  19.102   4.239
26349W        W91609  24.484  23.135   3.217
26350W        W91610  28.062   9.227  11.140
26351W        W91611  43.764  16.224   4.124
26352W        W91612  23.431  15.335   1.997
26353W        W91613   6.777  32.656  14.016
26354W        W91614  28.078  16.588  14.750
26355W        W91615  28.415  32.913  10.992
26356W        W91616  29.905  17.121  13.947
26357W        W91617   2.904  33.849   0.519
26358W        W91618  27.685  24.093   5.000
26359W        W91619  12.310  20.094   1.722
26360W        W91620  15.885   1.505  10.610
26361W        W91621  29.263   6.022  12.059
26362W        W91622  14.065  26.098   4.819
26363W        W91623  26.220  34.479  11.024
26364W        W91624  20.133  40.314   2.792
26365W        W91625  25.946  29.086  13.539
26366W        W91626  26.651  36.642  14.683
26367W        W91627   7.768  39.923   0.681
26368W        W91628  29.456   0.309  11.721
26369W        W91629  20.132  24.262  11.966
26370W        W91630   8.579   4.208   1.256
26371W        W91631  32.856  29.787  11.713
26372W        W91632  36.537  10.588   0.297
26373W        W91633  17.510  19.570   2.908
26374W        W91634  29.482  38.315   3.605
26375W        W91635  33.447  28.275   3.850
26376W        W91636  10.401  35.001   0.023
26377W        W91637  30.154  10.805  10.843
26378W        W91638  27.310   9.032   0.280
26379W        W91639  14.701  33.661   4.489
26380W        W91640   4.007  36.584  11.085
26381W        W91641  11.984   9.909  12.496
26382W        W91642  41.668  30.283  12.089
26383W        W91643  21.192  15.108  10.957
26384W        W91644  19.844   8.765   2.432
26385W        W91645  16.736   5.678   3.274
26386W        W91646  13.238   8.382   1.914
26387W        W91647  11.835  22.751   0.279
26388W        W91648  17.379  29.068   2.136
26389W        W91649  16.916  23.637   0.529
26390W        W91650  34.651  25.742  10.391
26391W        W91651  27.710   7.861  12.417
26392W        W91652  31.446  42.837  13.943
26393W        W91653  24.495   8.889  10.501
26394W        W91654  33.530   7.982  14.485
26395W        W91655  42.019  41.367  14.249
26396W        W91656  16.224  20.124  12.646
26397W        W91657  34.506  12.137  10.683
26398W        W91658  39.104  35.008  13.078
26399W        W91659  28.711  12.354  11.672
26400W        W91660  15.525  38.933  10.748
26401W        W91661  43.477  39.069   2.342
26402W        W91662   5.751  26.080  14.969
26403W        W91663  23.993  41.142  12.976
26404W        W91664  23.152  31.500  10.692
26405W        W91665  30.896  42.834  13.059
26406W        W91666   7.070   5.145  14.470
26407W        W91667  18.514  43.692  12.062
26408W        W91668  38.527  11.504  13.498
26409W        W91669  14.786  13.795  11.649
26410W        W91670  44.496  29.468   0.942
26411W        W91671  22.652  10.319  11.445
26412W        W91672   3.206  15.614   4.289
26413W        W91673  33.634   1.140   3.842
26414W        W91674  35.917  32.240  14.296
26415W        W91675  37.086   5.971   1.962
26416W        W91676  27.770   5.301  12.451
26417W        W91677   8.233  27.298  13.752
26418W        W91678  41.006  11.696  13.512
26419W        W91679  15.881  11.744   0.847
26420W        W91680  30.045  18.533   3.362
26421W        W91681  25.525  13.690   4.340
26422W        W91682  37.312  13.711  13.015
26423W        W91683  14.729  42.230   2.254
26424W        W91684  41.539  44.305   3.597
26425W        W91685  44.538   6.247   2.320
26426W        W91686  37.629   5.867   3.225
26427W        W91687   7.882  33.765  12.396
26428W        W91688  15.776  11.606  14.084
26429W        W91689  10.011  27.470   0.911
26430W        W91690  11.810  16.740  11.488
26431W        W91691  37.594  13.256   1.961
26432W        W91692  34.479  25.158  13.226
26433W        W91693  39.319   2.454   0.019
26434W        W91694   9.478  32.386  13.510
26435W        W91695  43.506  24.106   3.587
26436W        W91696  22.251   4.831  14.053
26437W        W91697   7.778  43.990   1.243
26438W        W91698  29.612  38.440  11.577
26439W        W91699  24.967   2.418  14.702
26440W        W91700  27.049  38.913  12.146
26441W        W91701  35.032   1.935  10.086
26442W        W91702  33.518   5.723  14.407
26443W        W91703  32.309  14.574   2.203
26444W        W91704   1.314   0.546   4.795
26445W        W91705  35.405  15.563  12.384
26446W        W91706  19.523   8.616  11.650
26447W        W91707  43.023  32.801   1.503
26448W        W91708  29.620   0.435  13.965
26449W        W91709  26.683  38.103   2.838
26450W        W91710  21.041  14.030  11.612
26451W        W91711   9.318  24.216  12.793
26452W        W91712  23.943  31.566  11.919
26453W        W91713  17.487  37.484  11.083
26454W        W91714  42.833  30.252  12.307
26455W        W91715  37.234  29.682  14.592
26456W        W91716  23.360  23.273  11.039
26457W        W91717  34.979  35.899   4.972
26458W        W91718  43.535  43.318  14.939
26459W        W91719  17.580  25.117   3.291
26460W        W91720  11.601  32.632   4.628
26461W        W91721  41.173  21.933   1.831
26462W        W91722   1.755  17.438  13.772
26463W        W91723   0.291  28.922   2.687
26464W        W91724  22.605  41.550  13.541
26465W        W91725   1.277   0.512  12.660
26466W        W91726  10.683  13.964   5.052
26467W        W91727   8.894  12.361  12.643
26468W        W91728   0.298  28.454  14.992
26469W        W91729  30.494  30.497   4.022
26470W        W91730  39.525  44.402   4.981
26471W        W91731  13.811  31.096   1.729
26472W        W91732  31.512   5.581  13.312
26473W        W91733  44.459  27.456   1.294
26474W        W91734  32.041  14.496   5.133
26475W        W91735  40.005  29.567  11.609
26476W        W91736  32.987  26.121  14.841
26477W        W91737  16.147  20.688  14.844
26478W        W91738   6.855  19.768  14.607
26479W        W91739  11.626  16.912   3.858
26480W        W91740  37.808  39.434  13.448
26481W        W91741   6.697  36.955  11.652
26482W        W91742   6.866   3.628   1.889
26483W        W91743   2.872  34.080   0.048
26484W        W91744   6.182  33.642   3.187
26485W        W91745   3.200  39.094  11.111
26486W        W91746  26.016  32.851  10.603
26487W        W91747  24.563   5.097  13.966
26488W        W91748  11.590  39.981   2.269
26489W        W91749  23.108  31.066  14.780
26490W        W91750  17.233  43.732  10.822
26491W        W91751  42.834  35.346  12.165
26492W        W91752   5.226  34.621  12.157
26493W        W91753   2.741  33.550   5.018
26494W        W91754   1.777  22.045  10.714
26495W        W91755   2.383  35.982   4.641
26496W        W91756   1.378   5.195  10.508
26497W        W91757   1.947  41.380  14.832
26498W        W91758  30.445  29.225   1.887
26499W        W91759  23.072  12.139   2.728
26500W        W91760  23.403  44.242   3.177
26501W        W91761  29.084  23.977   3.629
26502W        W91762   6.404  22.630   4.116
26503W        W91763   1.493  36.631  12.139
26504W        W91764  21.943  18.808   0.166
26505W        W91765  37.503   4.190  14.007
26506W        W91766   6.007  32.925  11.125
26507W        W91767  32.129  22.615  12.016
26508W        W91768   9.334  40.880  14.876
26509W        W91769  31.107  20.254   0.844
26510W        W91770  37.012  10.430  13.871
26511W        W91771  20.738   5.718   5.397
26512W        W91772  15.286  34.588   0.708
26513W        W91773  34.103  29.347   0.863
26514W        W91774  15.914  18.325   0.725
26515W        W91775  42.252  23.278   3.670
26516W        W91776  29.725  37.996   2.366
26517W        W91777  23.680  31.605  10.670
26518W        W91778  35.489  41.446   3.675
26519W        W91779  18.628  26.743   4.492
26520W        W91780  33.517  17.109  13.367
26521W        W91781   1.339  39.090   2.866
26522W        W91782  26.582  20.225   2.618
26523W        W91783  27.706  37.403  11.639
26524W        W91784  44.371   6.764   4.844
26525W        W91785  41.373  20.927   1.723
26526W        W91786  22.753  35.336   4.542
26527W        W91787  18.670  17.537   2.715
26528W        W91788  18.675  42.461   0.928
26529W        W91789   6.778  27.596  10.475
26530W        W91790  39.988  37.829  14.754
26531W        W91791  26.961   1.788   1.259
26532W        W91792  35.879  32.697   0.771
26533W        W91793  41.058   2.506  12.934
26534W        W91794  38.054  38.411   2.147
26535W        W91795  22.471  16.585  14.329
26536W        W91796   9.241  44.581   2.485
26537W        W91797   2.234  44.295   1.521
26538W        W91798  34.394  34.676   2.730
26539W        W91799  12.758  26.017   4.529
26540W        W91800  20.142  12.333   2.180
26541W        W91801  18.510  30.645   2.408
26542W        W91802  42.475   2.463   0.760
26543W        W91803  19.004   0.559  12.008
26544W        W91804  17.176   7.109  13.793
26545W        W91805  13.465  40.974   4.775
26546W        W91806  15.853  34.189  12.452
26547W        W91807   1.969   8.674   2.963
26548W        W91808   6.105  24.573   0.297
26549W        W91809  25.724  31.663  14.356
26550W        W91810   0.747  14.512  10.865
26551W        W91811  17.192  41.426   5.074
26552W        W91812  21.003   4.250   5.596
26553W        W91813  27.223  35.673   2.090
26554W        W91814  32.433  18.663  10.642
26555W        W91815   9.983  43.078  14.424
26556W        W91816  37.838  39.314   2.244
26557W        W91817  40.899  42.768   2.281
26558W        W91818  34.195  43.996  11.969
26559W        W91819  34.950  29.724   9.828
26560W        W91820   0.667   9.424   3.166
26561W        W91821  29.474  39.517  10.583
26562W        W91822   2.434  11.056   3.720
26563W        W91823  41.559  16.630  11.579
26564W        W91824  14.230  42.915  12.132
26565W        W91825  31.044   8.815   4.065
26566W        W91826  25.096  10.652  13.230
26567W        W91827  34.004  13.672   0.690
26568W        W91828   1.950  33.035  11.144
26569W        W91829  23.472  40.572   1.625
26570W        W91830  20.376  15.709   3.316
26571W        W91831  35.556  23.194   2.106
26572W        W91832   0.877  33.587   2.634
26573W        W91833   5.504  18.642   0.461
26574W        W91834  27.122  41.210   1.780
26575W        W91835  13.900   8.255  11.894
26576W        W91836  39.219  44.301  10.756
26577W        W91837   4.446   9.741  13.627
26578W        W91838  14.133  20.178   1.393
26579W        W91839  13.162  32.359   1.341
26580W        W91840  29.812  24.696   4.438
26581W        W91841   2.484  31.151   4.466
26582W        W91842  37.380   0.066  13.882
26583W        W91843  18.305  23.985  13.599
26584W        W91844  41.024  42.991   4.145
26585W        W91845  28.033  15.192  14.019
26586W        W91846  31.084   3.190   2.910
26587W        W91847   9.831  41.475   4.142
26588W        W91848  37.319   6.270   3.231
26589W        W91849   0.868  15.753  10.564
26590W        W91850   6.713   7.172   1.389
26591W        W91851   3.250  33.911   0.917
26592W        W91852   8.385  13.307  11.232
26593W        W91853  28.812   9.683   3.712
26594W        W91854   5.159   4.974  13.506
26595W        W91855   0.153   4.220   0.826
26596W        W91856   5.335  39.135   0.119
26597W        W91857  39.833  32.282  11.149
26598W        W91858  40.472  44.334   4.953
26599W        W91859  14.347  24.103  14.621
26600W        W91860  18.337  44.273  12.935
26601W        W91861  44.913  32.864  14.523
26602W        W91862  19.877  28.873   0.301
26603W        W91863  33.571  32.593  10.697
26604W        W91864   3.841  25.770   9.874
26605W        W91865  23.544   0.427   0.461
26606W        W91866  35.848  31.587   4.902
26607W        W91867   8.448   7.048  11.289
26608W        W91868  19.595   5.232   3.125
26609W        W91869   0.108  33.685   2.907
26610W        W91870  37.919  11.771  12.385
26611W        W91871   6.906  10.354   2.754
26612W        W91872  28.715  19.198  14.023
26613W        W91873  34.027  21.578   0.989
26614W        W91874   2.412  38.830  13.333
26615W        W91875  15.534  21.470   2.057
26616W        W91876  21.030   7.707  12.492
26617W        W91877  32.643  11.168  14.416
26618W        W91878  26.923   9.686  12.476
26619W        W91879  32.188  17.847   2.858
26620W        W91880  40.259  43.295   3.771
26621W        W91881  14.779  28.015   2.844
26622W        W91882  26.047  35.131   4.242
26623W        W91883   9.777  22.855  11.710
26624W        W91884  17.237  28.986  12.100
26625W        W91885  44.349   3.940   0.450
26626W        W91886   2.406   5.394  14.264
26627W        W91887  24.092  29.512  12.492
26628W        W91888  18.177  18.788   1.022
26629W        W91889  14.308  29.172  14.543
26630W        W91890   5.586  21.586  13.311
26631W        W91891   8.876  41.120  11.945
26632W        W91892   0.328  34.010   0.686
26633W        W91893   7.260  36.508  10.787
26634W        W91894  32.513  44.460  11.456
26635W        W91895  31.835   4.167   1.871
26636W        W91896  39.025  43.486   3.624
26637W        W91897  38.866  37.620  11.012
26638W        W91898  35.981  39.394   4.906
26639W        W91899  16.734   8.136  14.855
26640W        W91900  34.604  25.016  14.281
26641W        W91901   2.315  13.116  12.864
26642W        W91902  14.721  18.846   2.121
26643W        W91903  27.309  34.107  11.589
26644W        W91904  14.278  44.606  13.884
26645W        W91905  24.156  27.703   4.605
26646W        W91906   7.358  13.244   0.432
26647W        W91907  44.667  38.549  10.663
26648W        W91908   6.873   0.255  14.846
26649W        W91909  11.897  40.013   3.886
26650W        W91910  43.181  29.562  13.692
26651W        W91911  32.595  11.667  14.329
26652W        W91912  42.000  33.947  11.210
26653W        W91913  13.868  31.379   4.206
26654W        W91914   9.707  12.105   1.479
26655W        W91915  31.266   3.262  10.313
26656W        W91916   1.562  18.805   3.752
26657W        W91917  14.302  32.217   1.509
26658W        W91918  30.602  34.614   1.963
26659W        W91919  38.150   5.368   5.532
26660W        W91920   2.794   5.018   0.700
26661W        W91921   8.542  32.271  12.720
26662W        W91922  44.003  37.970   0.702
26663W        W91923  11.332  26.934  14.322
26664W        W91924  12.788  12.176   3.853
26665W        W91925  40.988  23.985   3.091
26666W        W91926  19.374  12.361   2.191
26667W        W91927  44.223  44.560  11.643
26668W        W91928  32.704   4.761  12.386
26669W        W91929  18.210   7.847   1.517
26670W        W91930  44.573  31.025  14.516
26671W        W91931   3.403  40.354   0.286
26672W        W91932  26.572  37.036   0.006
26673W        W91933  30.442  36.440   2.493
26674W        W91934  26.117   7.188  13.155
26675W        W91935  25.178   7.811   1.261
26676W        W91936  24.095   8.219   0.778
26677W        W91937  21.092  36.748  14.237
26678W        W91938  25.455  13.655   2.005
26679W        W91939  40.788  30.052  12.998
26680W        W91940  12.856  35.499  11.476
26681W        W91941  30.522  26.579   1.057
26682W        W91942  19.165  14.360   0.811
26683W        W91943   0.706  40.447  13.408
26684W        W91944  21.009  39.835  11.513
26685W        W91945   0.866  38.905   2.762
26686W        W91946  42.038  22.651  13.343
26687W        W91947   2.807   0.032   2.147
26688W        W91948  23.785  10.965   0.592
26689W        W91949   1.163   9.178   0.682
26690W        W91950  43.060   8.819  10.580
26691W        W91951  29.123  25.720  14.133
26692W        W91952  29.158  14.474  12.621
26693W        W91953  35.991  44.758   2.841
26694W        W91954  29.606  36.339  10.779
26695W        W91955  30.497  18.501  14.903
26696W        W91956  36.060  17.490  13.771
26697W        W91957  14.130  41.412   2.288
26698W        W91958  10.888  30.844   0.955
26699W        W91959   8.926  32.203   2.214
26700W        W91960  26.966  33.380   1.405
26701W        W91961  19.578  14.076   0.956
26702W        W91962  18.719  33.848   3.304
26703W        W91963   3.463  40.363  13.048
26704W        W91964  14.371  36.029   1.416
26705W        W91965  30.512  31.204  14.018
26706W        W91966  23.468  23.121   3.208
26707W        W91967   8.827   0.281   3.147
26708W        W91968  34.527  17.310   2.434
26709W        W91969  27.667  25.259  12.993
26710W        W91970  44.412   2.954   3.726
26711W        W91971   6.132  20.935  10.710
26712W        W91972   8.910   1.461  12.115
26713W        W91973   8.238  36.126  14.260
26714W        W91974  34.337   5.656   1.784
26715W        W91975  22.004  22.607  13.434
26716W        W91976  25.005  44.790  11.167
26717W        W91977   3.602   3.822  14.057
26718W        W91978  36.777  25.533   0.867
26719W        W91979  24.456  23.176  12.216
26720W        W91980  24.691  16.235  12.098
26721W        W91981  10.603   0.018  12.037
26722W        W91982  43.705  24.656  10.537
26723W        W91983  25.501  18.238   0.846
26724W        W91984   0.331  19.283  12.201
26725W        W91985  10.320   9.868  14.338
26726W        W91986   8.997  30.410  12.414
26727W        W91987  24.778  19.772  14.018
26728W        W91988  41.043  24.379  13.561
26729W        W91989  23.588  12.187  14.704
26730W        W91990   1.805   7.196  14.569
26731W        W91991  37.764  26.069  13.458
26732W        W91992   6.931  17.564   1.400
26733W        W91993  14.459  15.223  11.019
26734W        W91994  39.308  36.880  13.209
26735W        W91995  40.796  28.743   3.412
26736W        W91996   5.335  22.565   2.628
26737W        W91997  38.775  29.121  13.003
26738W        W91998  19.845   0.761   4.043
26739W        W91999  32.017  43.685  11.619
26740W        W92000   1.982   1.230  14.624
26741W        W92001  35.385   1.990   2.625
26742W        W92002   4.932  12.032   4.323
26743W        W92003  10.848  10.281  13.044
26744W        W92004  19.100  32.060   1.451
26745W        W92005  23.244  17.184  11.488
26746W        W92006  32.366  30.396   3.680
26747W        W92007  27.187  40.065  12.401
26748W        W92008  13.809  42.903  13.001
26749W        W92009   4.476  34.521   4.908
26750W        W92010   0.385  11.904   0.969
26751W        W92011  28.745  24.995   0.744
26752W        W92012   8.129  28.142  13.414
26753W        W92013  30.537  11.602  10.663
26754W        W92014   5.676  21.687   2.936
26755W        W92015   3.755  39.549  14.919
26756W        W92016   2.821  17.829   4.300
26757W        W92017  16.855  31.052   1.887
26758W        W92018  21.099  24.196  13.271
26759W        W92019  17.658   8.434  11.031
26760W        W92020  18.145   1.722   3.648
26761W        W92021   0.494  21.534  13.439
26762W        W92022   4.362   5.094  10.727
26763W        W92023  12.722  22.977   4.717
26764W        W92024  37.113  25.108   1.777
26765W        W92025  35.919  13.983   4.782
26766W        W92026  32.400   5.669   1.804
26767W        W92027  20.688  14.430  11.666
26768W        W92028   3.432   3.041  11.464
26769W        W92029   0.859  23.510  13.643
26770W        W92030   3.317  34.138   0.351
26771W        W92031  42.737  28.637   2.306
26772W        W92032   2.175  32.391   3.794
26773W        W92033  44.335  20.406  11.459
26774W        W92034  14.897  44.398  12.654
26775W        W92035  18.731   8.332  13.388
26776W        W92036  20.129   5.654  10.067
26777W        W92037   6.065  34.570   0.685
26778W        W92038   8.461   3.697   3.226
26779W        W92039   7.185  12.850   4.407
26780W        W92040  13.172   2.164   1.852
26781W        W92041  43.829   2.836   1.031
26782W        W92042   4.816  26.621  11.490
26783W        W92043  10.640   3.283  12.557
26784W        W92044  26.990  44.500   0.963
26785W        W92045   7.891  29.574  12.405
26786W        W92046  17.504  28.040  13.479
26787W        W92047  25.051  17.460   4.923
26788W        W92048  23.579   2.518   5.523
26789W        W92049  27.485   0.830   1.554
26790W        W92050   2.151  22.404  12.377
26791W        W92051  30.043  37.335   1.700
26792W        W92052  18.889  44.471  10.399
26793W        W92053   5.933  34.803  13.309
26794W        W92054  38.387  42.421   1.722
26795W        W92055  19.146  31.620  14.256
26796W        W92056   0.175  24.591  11.116
26797W        W92057   7.597  10.926  10.980
26798W        W92058  33.537  34.384   3.660
26799W        W92059   2.789  32.042  12.252
26800W        W92060   1.941  28.742   4.110
26801W        W92061   7.798  33.118   0.390
26802W        W92062  10.254  28.847   3.601
26803W        W92063  13.834   1.212   2.124
26804W        W92064  23.775   9.744   2.900
26805W        W92065  12.293  26.253  11.924
26806W        W92066  19.552  17.794   0.996
26807W        W92067  17.307  18.154  12.974
26808W        W92068  28.636  36.675  14.371
26809W        W92069  39.470  26.747   4.859
26810W        W92070  35.549  19.230   0.603
26811W        W92071   8.710  24.656  11.636
26812W        W92072  41.587  34.325  13.531
26813W        W92073   6.646  12.442   1.512
26814W        W92074   5.166  12.756  11.880
26815W        W92075  41.614  18.083   4.015
26816W        W92076  40.548  11.112  11.583
26817W        W92077   1.439  40.575   2.654
26818W        W92078   0.773  43.697  13.110
26819W        W92079  36.447  12.645  13.946
26820W        W92080   4.315   6.510  12.367
26821W        W92081  41.356  16.855  11.161
26822W        W92082  30.119   5.741  13.539
26823W        W92083  36.953   8.113  13.139
26824W        W92084  42.764  26.042  13.402
26825W        W92085  21.232   8.394  14.457
26826W        W92086  42.246   0.896  12.968
26827W        W92087  28.258  21.889  10.121
26828W        W92088  11.804  28.721  11.112
26829W        W92089   8.430  38.376   1.805
26830W        W92090   5.372  25.422   1.746
26831W        W92091  44.250   6.323  12.499
26832W        W92092  40.161  38.022  14.310
26833W        W92093  29.663  17.492  13.630
26834W        W92094  22.808  28.196  11.608
26835W        W92095  20.772  30.602  12.988
26836W        W92096  19.565  15.729  11.078
26837W        W92097  35.383  41.513  12.544
26838W        W92098   7.816  32.206   3.128
26839W        W92099  13.162  34.843  12.616
26840W        W92100  30.208  29.100   1.386
26841W        W92101  21.798   4.125  12.492
26842W        W92102  39.916   3.323  13.482
26843W        W92103  10.964  32.646   2.806
26844W        W92104  40.555  29.652  12.768
26845W        W92105  43.337  16.971  11.557
26846W        W92106   6.500  44.507  12.520
26847W        W92107   8.343  36.030   4.717
26848W        W92108  26.184  40.772   4.631
26849W        W92109   8.436  31.328   0.770
26850W        W92110  18.586  26.585   1.760
26851W        W92111  12.283   6.306   3.093
26852W        W92112  29.066   1.036  14.900
26853W        W92113  12.251  43.516  12.334
26854W        W92114  29.354  35.776  10.218
26855W        W92115   4.801  24.515  10.709
26856W        W92116  28.519   1.280  12.921
26857W        W92117  36.979  40.565  14.702
26858W        W92118  34.452  33.469  14.766
26859W        W92119  37.483  22.329   2.671
26860W        W92120  30.076  40.894   1.925
26861W        W92121   5.493   0.988   4.444
26862W        W92122   1.257  44.780  11.523
26863W        W92123  29.140   1.501  12.433
26864W        W92124   9.249  36.516   4.861
26865W        W92125  16.822   8.847  12.872
26866W        W92126  14.983   2.349   2.115
26867W        W92127  12.682  14.480   1.954
26868W        W92128   4.791   8.474  13.402
26869W        W92129  12.161  16.098  11.604
26870W        W92130  41.819  31.897   4.125
26871W        W92131  13.101  21.364  13.120
26872W        W92132  20.344  18.897  14.248
26873W        W92133   9.982   6.630   3.574
26874W        W92134  30.976   0.783   3.217
26875W        W92135  42.899  39.822   0.419
26876W        W92136  14.304  13.223  12.573
26877W        W92137  38.349  24.691  12.953
26878W        W92138  14.508  44.918   4.674
26879W        W92139  28.657  21.954   1.217
26880W        W92140  36.500   0.987   2.313
26881W        W92141   6.217  35.843  13.256
26882W        W92142  36.957  22.523  14.625
26883W        W92143  36.198  43.272  11.105
26884W        W92144   2.231  37.598  14.977
26885W        W92145  37.071  35.621  14.389
26886W        W92146  40.778  37.832   3.701
26887W        W92147   9.539   3.787   0.302
26888W        W92148  43.231   5.692   2.385
26889W        W92149  33.110  13.292  11.428
26890W        W92150  20.555   2.094   4.111
26891W        W92151   0.664   4.693  10.549
26892W        W92152  24.966  26.783  13.135
26893W        W92153   2.615   5.253  12.734
26894W        W92154  15.538  19.498  11.882
26895W        W92155  34.594  31.913   3.126
26896W        W92156   5.313  39.758  13.012
26897W        W92157  23.194  23.063  11.489
26898W        W92158  13.732  27.066   3.443
26899W        W92159  39.202  27.791   1.323
26900W        W92160  30.676  34.333   3.302
26901W        W92161  40.964  29.944  12.524
26902W        W92162  34.804  27.120  12.956
26903W        W92163  16.996  17.752   0.029
26904W        W92164  14.203   5.316   2.739
26905W        W92165  16.764   1.492   1.000
26906W        W92166   5.195  21.122  12.895
26907W        W92167  17.351  38.529  13.605
26908W        W92168  26.440  10.174   1.810
26909W        W92169  27.386  38.769  13.401
26910W        W92170   6.739  41.023  14.713
26911W        W92171  35.455  35.616  13.331
26912W        W92172  25.572  44.340   3.911
26913W        W92173  24.202  21.298  11.115
26914W        W92174  36.938   6.719   1.283
26915W        W92175  18.955  23.649  11.871
26916W        W92176  44.538  40.572  12.810
26917W        W92177  39.331  22.694   3.339
26918W        W92178  23.950  23.725   2.216
26919W        W92179  15.932   6.667   1.842
26920W        W92180   4.395  35.401  14.275
26921W        W92181  17.556   0.627  10.242
26922W        W92182  13.090  32.200   3.131
26923W        W92183  19.300  12.865  13.400
26924W        W92184  10.243  33.320  12.564
26925W        W92185  12.815  31.996   2.732
26926W        W92186  24.730  15.779   5.061
26927W        W92187  41.738  27.961  11.175
26928W        W92188   1.768  15.853  13.522
26929W        W92189  29.361   2.490  10.858
26930W        W92190  30.381  24.488  10.733
26931W        W92191  41.436  25.110   0.411
26932W        W92192  29.888  16.005   0.153
26933W        W92193   5.794  21.414  12.029
26934W        W92194  13.803  24.060   1.882
26935W        W92195  34.130  14.812   2.301
26936W        W92196  13.713  16.816   0.433
26937W        W92197  27.015   7.597   2.229
26938W        W92198  15.099  13.080   3.051
26939W        W92199   8.663  34.826  12.908
26940W        W92200  35.947  34.699  14.767
26941W        W92201  13.844   9.237   0.861
26942W        W92202   5.887  17.770   2.318
26943W        W92203  35.408  35.154  12.336
26944W        W92204   3.762  17.521   4.804
26945W        W92205   4.939  18.024  11.117
26946W        W92206  12.811   1.712   0.978
26947W        W92207  31.337  18.937   2.900
26948W        W92208  39.871  35.860   4.898
26949W        W92209  13.645  24.083   3.206
26950W        W92210   3.909  32.962   3.332
26951W        W92211  14.370   2.033  11.684
26952W        W92212   2.804  23.197   4.235
26953W        W92213  28.028  37.474  13.373
26954W        W92214  32.278  20.519   0.301
26955W        W92215  36.487  21.756  14.368
26956W        W92216  41.476   5.886   2.648
26957W        W92217  27.625   6.368   3.262
26958W        W92218  44.896   8.265   3.884
26959W        W92219  20.977  39.787   3.843
26960W        W92220  42.099   9.052  14.031
26961W        W92221   9.541   1.413   3.575
26962W        W92222  29.540  42.088   2.905
26963W        W92223  39.449  38.026  10.901
26964W        W92224  10.852  11.303  14.526
26965W        W92225  19.934  27.624   4.139
26966W        W92226   1.108  43.171   4.998
26967W        W92227  33.486  35.417  10.764
26968W        W92228  33.524  17.291  12.882
26969W        W92229  44.903   0.957  13.555
26970W        W92230   9.970  37.329  10.251
26971W        W92231  31.336  39.994  12.306
26972W        W92232   0.841  30.384  10.718
26973W        W92233   3.173  28.691  12.531
26974W        W92234  22.745  11.483   3.733
26975W        W92235  18.158  22.420  11.097
26976W        W92236  31.509   2.242   0.257
26977W        W92237  42.730   0.716  14.896
26978W        W92238  36.571  10.120  12.279
26979W        W92239  11.669  43.994  13.074
26980W        W92240  36.369   8.695  10.574
26981W        W92241  29.156  19.185  14.311
26982W        W92242  27.367  22.344  12.775
26983W        W92243   6.163   3.275  11.573
26984W        W92244  30.356  44.801  11.873
26985W        W92245  24.883  23.302  13.062
26986W        W92246  19.809  27.132   4.126
26987W        W92247  23.474  10.852   1.355
26988W        W92248  32.166  10.634   2.249
26989W        W92249  37.313  30.030   2.252
26990W        W92250  12.284  13.192   0.762
26991W        W92251   4.856  41.527   4.534
26992W        W92252  23.676  27.012  14.008
26993W        W92253   9.791  27.479   1.382
26994W        W92254  28.702  24.225  13.461
26995W        W92255   1.297  12.755   3.484
26996W        W92256  36.465  17.281  14.044
26997W        W92257  15.271   8.798   0.752
26998W        W92258  33.606   8.706  11.974
26999W        W92259  16.696  44.000  14.738
27000W        W92260  34.916  13.184   4.544
27001W        W92261  44.734  28.148   2.882
27002W        W92262  11.686  26.634   0.475
27003W        W92263   4.421  11.044  12.418
27004W        W92264  16.833  24.172   0.845
27005W        W92265   2.997  20.258  11.099
27006W        W92266  24.557  27.578   1.407
27007W        W92267  39.743  30.091  13.085
27008W        W92268  25.639  41.423  14.286
27009W        W92269  14.896  33.124   0.279
27010W        W92270  42.811  27.680   3.731
27011W        W92271  36.140  14.098   1.157
27012W        W92272  28.942  16.940   0.759
27013W        W92273  21.705  11.217   3.162
27014W        W92274   9.925  40.241   1.880
27015W        W92275  10.308  19.285  13.181
27016W        W92276  23.570  42.379   4.891
27017W        W92277  30.553  30.476   4.540
27018W        W92278  36.606  16.096   1.898
27019W        W92279  16.356   7.492   3.546
27020W        W92280  29.063  21.413   4.726
27021W        W92281  33.603  11.191  14.498
27022W        W92282  13.766  30.890  13.905
27023W        W92283  21.105  37.342   1.677
27024W        W92284  12.959  14.167  11.097
27025W        W92285  42.719   2.013  12.208
27026W        W92286  29.591  42.420  11.467
27027W        W92287  14.094  14.967   0.375
27028W        W92288  12.835  20.918   2.070
27029W        W92289  22.146  17.194   2.720
27030W        W92290  16.674  35.382  11.647
27031W        W92291  39.137  34.849  14.367
27032W        W92292  27.001  15.573   0.830
27033W        W92293  31.190  23.469  13.936
27034W        W92294  26.447   6.775   2.860
27035W        W92295  19.111  16.233  12.068
27036W        W92296   5.415  42.326  10.831
27037W        W92297  13.664   9.150   2.854
27038W        W92298  42.376  28.590   3.285
27039W        W92299   9.677  14.192   1.948
27040W        W92300  28.928   0.006  11.556
27041W        W92301   1.996  34.293  10.718
27042W        W92302   4.449  32.382   3.192
27043W        W92303  26.185  19.959   1.877
27044W        W92304  10.795  19.674   0.042
27045W        W92305  43.078   4.967   0.536
27046W        W92306  12.286   4.255  13.529
27047W        W92307  13.658  14.625   2.751
27048W        W92308  30.081  19.524  11.142
27049W        W92309  32.905  11.766  14.792
27050W        W92310  43.869  30.537  11.682
27051W        W92311  22.131  30.373  14.875
27052W        W92312  30.588  38.232   2.769
27053W        W92313   5.723  25.520   0.267
27054W        W92314  30.024  18.292   1.034
27055W        W92315  35.114  30.745  14.431
27056W        W92316  15.682   0.055   3.489
27057W        W92317  31.212   2.411  13.842
27058W        W92318   4.083   3.972   3.398
27059W        W92319  33.587  12.181   3.658
27060W        W92320  16.725   2.296  12.272
27061W        W92321   9.346   9.508  11.100
27062W        W92322  17.833  37.419  13.368
27063W        W92323  28.912  27.022  12.517
27064W        W92324  41.432   0.750  12.282
27065W        W92325   6.268  32.889  11.578
27066W        W92326  10.896   9.224  12.864
27067W        W92327   4.586  34.111   4.548
27068W        W92328  17.854  28.819   2.238
27069W        W92329  24.718  21.676   4.109
27070W        W92330   2.443  16.853   3.203
27071W        W92331  15.128  12.220   4.809
27072W        W92332  22.073  40.737   4.010
27073W        W92333  42.851  33.963  12.153
27074W        W92334  21.497  33.096   0.344
27075W        W92335  17.938   5.168   1.315
27076W        W92336   4.653  13.001   4.744
27077W        W92337  39.036   2.908   1.445
27078W        W92338  33.200  29.208  10.672
27079W        W92339   6.412   5.869  13.014
27080W        W92340  14.725  24.178  14.303
27081W        W92341  16.727   5.239   1.979
27082W        W92342  37.324  38.819  12.374
27083W        W92343  11.121  43.260   3.650
27084W        W92344  11.706   3.298   2.676
27085W        W92345  31.417  12.843   2.212
27086W        W92346  12.798  18.275  11.863
27087W        W92347   5.896   3.615   0.722
27088W        W92348   3.330  22.459  11.112
27089W        W92349  36.280  10.118   4.149
27090W        W92350  24.605  39.384   4.970
27091W        W92351  20.312   3.452  13.954
27092W        W92352  40.283  24.453   3.677
27093W        W92353  44.311  35.626  14.832
27094W        W92354  30.312  14.231   0.273
27095W        W92355  31.415  13.191   2.590
27096W        W92356  43.554  20.182   4.848
27097W        W92357   1.297  20.882  13.555
27098W        W92358  14.631  24.108   2.354
27099W        W92359  15.166  29.112   4.809
27100W        W92360  16.411  22.502   3.089
27101W        W92361   9.565   1.818  12.522
27102W        W92362  22.055  43.450   2.820
27103W        W92363  37.751  42.699   5.139
27104W        W92364  28.198  36.912  10.624
27105W        W92365  10.747  37.061   2.729
27106W        W92366  10.134  37.373   1.238
27107W        W92367   9.943  21.228   2.011
27108W        W92368  16.503  17.520  13.110
27109W        W92369   1.597   3.938   3.574
27110W        W92370  12.506  31.191  10.966
27111W        W92371  17.809  23.793   3.600
27112W        W92372  18.351  33.997  14.983
27113W        W92373  12.116  25.772  11.960
27114W        W92374   1.122   5.302   2.609
27115W        W92375  14.108   3.965  10.763
27116W        W92376  27.764  13.670   0.975
27117W        W92377   6.816   8.822   4.586
27118W        W92378  20.792  31.013   0.953
27119W        W92379  41.637  18.691  14.513
27120W        W92380  20.173  30.623  14.760
27121W        W92381   7.789   9.637   0.777
27122W        W92382   5.180  11.643   1.113
27123W        W92383  23.574  12.726   2.754
27124W        W92384  36.447   2.353   2.730
27125W        W92385  17.091   6.416   1.116
27126W        W92386  43.471  19.224   0.974
27127W        W92387  21.513  33.451  10.670
27128W        W92388  25.097  44.910  12.466
27129W        W92389  16.223  27.578  12.977
27130W        W92390  17.095   9.962  13.924
27131W        W92391  23.883  11.557  11.565
27132W        W92392  12.427  11.336   2.461
27133W        W92393  26.300  21.670  11.726
27134W        W92394  33.634  16.788  12.956
27135W        W92395  23.586  36.913   5.595
27136W        W92396  38.545  40.239   4.523
27137W        W92397  41.439   8.204   3.438
27138W        W92398   5.762   3.682  10.475
27139W        W92399  13.560  21.089  12.658
27140W        W92400  16.579  33.180   1.758
27141W        W92401  23.322   2.603   1.657
27142W        W92402  20.345   2.193  13.349
27143W        W92403   0.521  33.356  14.406
27144W        W92404  32.908  21.097   4.890
27145W        W92405   6.872  43.293  11.588
27146W        W92406  42.754  26.676   0.254
27147W        W92407  18.465   8.209  12.945
27148W        W92408  36.509  26.192  13.912
27149W        W92409  20.788   7.028   0.250
27150W        W92410   1.888   0.028   1.345
27151W        W92411  30.306  17.750   1.479
27152W        W92412   9.913   4.935   2.714
27153W        W92413  11.151  41.014   2.729
27154W        W92414  22.180   7.286  13.504
27155W        W92415  39.545  39.773  13.479
27156W        W92416  10.100  25.092  14.971
27157W        W92417   7.999  28.972   3.350
27158W        W92418  41.292  12.185  12.516
27159W        W92419  42.163  15.598   3.687
27160W        W92420  33.618  38.976   3.234
27161W        W92421  15.643  30.583  11.445
27162W        W92422  22.712  39.509  13.439
27163W        W92423  24.060  29.990  10.734
27164W        W92424  28.398  24.146  11.212
27165W        W92425  19.106  24.206   1.192
27166W        W92426  32.665  22.114   0.807
27167W        W92427  19.290   3.028   4.196
27168W        W92428  29.061  21.534   1.442
27169W        W92429   7.930  14.234   2.315
27170W        W92430  11.311   1.834   4.165
27171W        W92431  43.232  27.495  14.890
27172W        W92432  41.532  15.588   1.530
27173W        W92433  38.605  28.077  12.003
27174W        W92434  12.649  16.574   0.798
27175W        W92435  28.993  29.049   4.442
27176W        W92436   1.939  24.469   2.390
27177W        W92437  44.947   7.722  11.590
27178W        W92438  25.559   0.471  14.372
27179W        W92439  18.635   9.585  13.062
27180W        W92440  42.981  30.209  11.745
27181W        W92441  24.160  10.739   1.995
27182W        W92442  14.283   7.835   4.533
27183W        W92443  27.618  18.187   1.425
27184W        W92444  39.354  21.731  11.235
27185W        W92445  20.745  38.591  12.663
27186W        W92446  34.395  21.680  12.671
27187W        W92447   8.132  24.115   1.851
27188W        W92448  37.542  39.814   0.266
27189W        W92449  42.800  30.601   0.584
27190W        W92450  24.997  16.723   5.371
27191W        W92451  43.611   6.355  11.490
27192W        W92452  33.059  12.027   0.843
27193W        W92453  24.250   2.343  10.624
27194W        W92454  39.453  11.851   0.804
27195W        W92455  11.746  28.196  13.248
27196W        W92456  12.806  29.991   3.646
27197W        W92457  38.838  14.658   2.811
27198W        W92458  29.684   5.801  10.602
27199W        W92459  13.844   6.210   3.732
27200W        W92460  31.461  43.568   0.831
27201W        W92461  12.575  27.695  14.542
27202W        W92462  27.230  30.295   4.040
27203W        W92463  40.508   8.759  12.092
27204W        W92464   2.286  31.984  12.215
27205W        W92465  17.903  21.028  13.991
27206W        W92466  43.949  19.479  13.842
27207W        W92467  43.440  43.225   4.713
27208W        W92468  13.124  26.151  13.539
27209W        W92469  29.406  42.353  14.689
27210W        W92470   3.882   7.948   1.195
27211W        W92471  14.572   2.242   4.230
27212W        W92472  38.239  17.323  11.483
27213W        W92473  17.772  32.701   2.709
27214W        W92474   9.086  29.109   2.668
27215W        W92475  34.376  22.119  12.926
27216W        W92476  36.009  20.269   3.155
27217W        W92477   4.345  39.905  12.780
27218W        W92478   8.507  42.788   4.174
27219W        W92479  26.082  12.277  12.447
27220W        W92480  19.562   8.438   2.790
27221W        W92481   3.823   2.334   3.899
27222W        W92482  29.520  32.883   1.803
27223W        W92483  41.926  10.290   0.743
27224W        W92484   4.414  23.172   3.204
27225W        W92485  24.157   3.384   3.585
27226W        W92486  20.597  23.075   4.219
27227W        W92487  38.538  20.989  10.577
27228W        W92488  28.086  17.715   9.676
27229W        W92489   5.466   6.443   3.544
27230W        W92490  37.878  14.254   2.617
27231W        W92491  41.824  22.445   3.594
27232W        W92492  32.568  15.670   0.344
27233W        W92493  44.253   0.051  10.591
27234W        W92494   2.963  39.154  12.065
27235W        W92495   9.755  28.607  10.488
27236W        W92496  29.573  42.318  10.966
27237W        W92497  30.009   5.448  13.045
27238W        W92498   6.815  27.062  14.105
27239W        W92499  18.741  23.852   1.318
27240W        W92500  23.884   7.132  10.318
27241W        W92501  34.423  25.512   1.888
27242W        W92502   6.858  26.315  13.570
27243W        W92503  43.732  24.570   1.145
27244W        W92504  24.456   4.478   0.327
27245W        W92505  41.147   8.717  11.579
27246W        W92506  32.669  12.743   0.238
27247W        W92507  44.946  24.603  14.981
27248W        W92508  44.742  29.470  10.474
27249W        W92509   1.078  33.385  10.386
27250W        W92510   7.322  30.531  12.963
27251W        W92511  36.116  37.465   4.279
27252W        W92512  36.586   4.992  14.051
27253W        W92513  44.930  15.380   4.083
27254W        W92514  31.617  38.784   0.613
27255W        W92515  25.716  18.250  13.948
27256W        W92516  23.342  15.519  14.353
27257W        W92517  25.199  44.716   2.346
27258W        W92518  29.854  39.560  13.806
27259W        W92519   1.872  18.242   3.131
27260W        W92520  31.905  22.550   0.915
27261W        W92521  42.001  42.188   4.267
27262W        W92522  26.809   7.679  14.129
27263W        W92523   5.803   0.832   0.381
27264W        W92524  21.003  35.207  10.746
27265W        W92525  29.736  34.075   0.683
27266W        W92526   2.197  22.261   2.633
27267W        W92527  37.935  26.784   2.689
27268W        W92528  40.344  15.182   1.732
27269W        W92529   5.214  44.173  13.475
27270W        W92530   9.783  41.678   1.380
27271W        W92531  19.226  14.260   1.309
27272W        W92532  24.922   1.315  14.302
27273W        W92533  21.783   6.493   1.571
27274W        W92534  41.485  33.465  13.655
27275W        W92535   2.222  17.015   0.275
27276W        W92536  14.706  37.075   2.711
27277W        W92537  23.084  43.760   0.248
27278W        W92538  25.457  41.922   0.534
27279W        W92539  33.337  33.640   0.740
27280W        W92540  22.468  40.509   3.218
27281W        W92541  41.861  26.086   2.686
27282W        W92542   4.576  15.610   5.272
27283W        W92543  11.247   9.980  12.961
27284W        W92544  26.721   4.687   9.886
27285W        W92545  21.939  33.708   9.838
27286W        W92546  21.529  17.161   1.671
27287W        W92547  13.750  22.955   2.665
27288W        W92548  25.901  44.557   3.155
27289W        W92549  41.437   4.795  13.797
27290W        W92550  34.036  39.489  14.718
27291W        W92551  12.833  11.644   4.739
27292W        W92552  30.115  43.002  13.953
27293W        W92553  43.985   0.076   4.867
27294W        W92554  23.363  20.961   2.980
27295W        W92555  20.455  25.786   4.779
27296W        W92556  28.627   9.721  13.241
27297W        W92557  24.311  16.236   0.240
27298W        W92558  43.236  21.804  11.029
27299W        W92559  24.350  41.769  13.528
27300W        W92560  29.812  36.520  11.207
27301W        W92561   8.993  13.619   3.223
27302W        W92562  22.152  41.815  12.884
27303W        W92563  36.420  43.230   3.591
27304W        W92564   8.886  43.695   3.875
27305W        W92565  38.908  13.303  11.316
27306W        W92566  29.988  37.925   4.726
27307W        W92567   1.656   1.913  13.827
27308W        W92568  32.702  13.397  11.136
27309W        W92569   7.966  30.477   0.507
27310W        W92570  24.822  19.123   2.268
27311W        W92571  30.038  12.283  13.200
27312W        W92572  14.551  33.986   0.705
27313W        W92573  38.567  29.955  14.301
27314W        W92574   6.163  27.110   3.716
27315W        W92575  40.943  14.708   2.169
27316W        W92576   3.762  41.313  12.564
27317W        W92577   2.289  22.697  11.919
27318W        W92578  21.246   6.744   0.013
27319W        W92579  15.291  32.489   0.358
27320W        W92580  43.545  26.050   3.838
27321W        W92581   4.868  34.928   0.300
27322W        W92582  19.024  37.920   2.441
27323W        W92583  33.079  43.134  11.585
27324W        W92584  32.239  13.404   4.571
27325W        W92585  18.258  30.533  12.549
27326W        W92586  44.822  40.814   4.503
27327W        W92587  44.352   3.705  14.127
27328W        W92588  24.446  33.404  13.048
27329W        W92589  10.658  14.630  10.454
27330W        W92590  22.537   2.745   3.007
27331W        W92591  43.745  32.512   0.736
27332W        W92592  11.603   7.132   0.355
27333W        W92593  24.344  26.660   2.411
27334W        W92594   2.505   6.883   1.156
27335W        W92595  27.996  42.966   1.770
27336W        W92596  39.058   1.756   1.869
27337W        W92597  28.933  39.480   0.353
27338W        W92598  30.358  37.082  13.702
27339W        W92599  37.018  40.069   3.145
27340W        W92600  31.046  19.972   5.080
27341W        W92601  32.140   8.282  13.415
27342W        W92602   5.437  35.496  12.725
27343W        W92603  39.554  12.297   0.526
27344W        W92604  24.419  10.460   0.860
27345W        W92605  25.071   7.237   0.519
27346W        W92606  11.700  17.781   4.103
27347W        W92607  30.917  36.087  11.630
27348W        W92608  27.826   7.278   1.409
27349W        W92609  18.094  23.641   0.731
27350W        W92610  15.288  33.600   2.638
27351W        W92611  21.756  41.828   1.326
27352W        W92612  30.892   4.146  10.704
27353W        W92613  35.335   4.682  11.970
27354W        W92614  21.388  26.752   3.792
27355W        W92615   9.450  31.147  11.092
27356W        W92616  34.377  40.777   0.562
27357W        W92617  21.303  11.737  12.546
27358W        W92618  13.740  20.480  10.576
27359W        W92619   1.767  33.977   3.927
27360W        W92620  32.123  22.416  13.350
27361W        W92621   4.703  21.296   1.430
27362W        W92622  43.075   3.267   1.283
27363W        W92623  40.941  22.613  10.941
27364W        W92624   9.721   3.288  12.708
27365W        W92625   8.252  25.576  13.112
27366W        W92626  31.050   8.836  11.676
27367W        W92627  17.612  31.748  13.431
27368W        W92628  20.421  20.653  10.950
27369W        W92629  21.214  39.489   5.083
27370W        W92630  28.517  43.319  14.009
27371W        W92631  26.003  28.116   1.338
27372W        W92632  34.474  35.861  14.540
27373W        W92633  18.803  32.430   1.929
27374W        W92634  13.637  42.074   4.711
27375W        W92635  24.047  33.474  12.042
27376W        W92636   0.769  34.161   0.911
27377W        W92637  13.465  33.365   3.775
27378W        W92638  38.153  20.878  13.439
27379W        W92639  31.159  39.742  11.513
27380W        W92640   8.619  17.845   3.846
27381W        W92641   2.931  41.368   3.906
27382W        W92642  36.030   9.179   4.083
27383W        W92643   9.666  38.887  10.723
27384W        W92644   6.225   7.275  13.823
27385W        W92645  30.431  16.920  13.149
27386W        W92646   6.586  21.817  11.999
27387W        W92647   1.763  13.373  10.561
27388W        W92648  44.000  36.009   2.853
27389W        W92649  20.044  43.520   4.712
27390W        W92650   4.378  30.208  14.841
27391W        W92651  23.060  41.393  12.566
27392W        W92652  38.567  24.971  14.163
27393W        W92653  27.081  28.959   3.632
27394W        W92654  12.206   4.652   1.793
27395W        W92655  35.387   3.311   3.920
27396W        W92656  30.653  11.198  14.479
27397W        W92657   9.710  23.249   4.162
27398W        W92658  27.179  38.853   2.675
27399W        W92659  40.083  13.797   0.430
27400W        W92660  14.689  16.571   1.720
27401W        W92661  11.127  20.130  13.527
27402W        W92662  13.492  13.777   1.209
27403W        W92663  13.342   5.604  12.189
27404W        W92664  25.558  20.571   4.954
27405W        W92665  16.104  22.997   1.318
27406W        W92666  26.946  26.222  11.573
27407W        W92667  34.927  18.764  10.968
27408W        W92668  42.461  41.203  13.484
27409W        W92669  36.526   3.238  11.361
27410W        W92670  41.199  24.134   2.408
27411W        W92671   7.556  14.415   1.001
27412W        W92672  43.975   9.226  10.745
27413W        W92673  27.196  16.659  10.929
27414W        W92674  38.317  19.529  13.469
27415W        W92675  20.050  26.374   3.625
27416W        W92676   0.725  34.050  14.469
27417W        W92677  27.565   4.742  10.732
27418W        W92678   8.773   2.045   1.675
27419W        W92679  14.117  13.729   4.254
27420W        W92680  32.129  43.973  10.756
27421W        W92681  31.178  37.471   2.827
27422W        W92682  29.675  21.772   3.774
27423W        W92683  24.436  18.017  13.468
27424W        W92684   9.847  18.357  10.664
27425W        W92685  33.329  32.964  11.495
27426W        W92686  42.338  38.800  11.937
27427W        W92687  30.817  20.657   4.502
27428W        W92688  38.632   7.285  13.009
27429W        W92689  20.226   7.709  13.905
27430W        W92690  44.443  44.350  14.986
27431W        W92691  39.985   9.080   0.926
27432W        W92692  36.346  12.592  11.011
27433W        W92693   0.857  37.843  14.435
27434W        W92694  13.294   0.712  11.585
27435W        W92695  41.023  32.925  14.487
27436W        W92696  29.238  20.061   3.140
27437W        W92697  30.510   3.446  12.050
27438W        W92698  28.469  41.492  10.470
27439W        W92699   7.876  21.089   4.493
27440W        W92700  40.554  30.755  11.524
27441W        W92701  35.552  41.695  14.389
27442W        W92702  21.020   9.643   3.493
27443W        W92703   3.550  14.590  14.977
27444W        W92704   0.825  44.752   4.436
27445W        W92705  11.318  34.523   4.446
27446W        W92706  27.135  37.071   2.165
27447W        W92707  23.418  14.667  12.043
27448W        W92708  12.154   5.246   2.652
27449W        W92709   4.679  37.950  12.679
27450W        W92710   8.144   5.011  10.739
27451W        W92711   7.295  16.799   4.587
27452W        W92712  11.509  43.213   3.292
27453W        W92713   4.392   5.807  12.992
27454W        W92714  32.863  19.207   3.309
27455W        W92715  10.455   0.904   0.855
27456W        W92716  14.176  31.179   4.624
27457W        W92717  11.382  28.132   1.850
27458W        W92718  31.596  19.254   0.293
27459W        W92719   4.713  35.947   2.213
27460W        W92720  40.370  36.323   0.340
27461W        W92721   8.218  29.819  12.000
27462W        W92722  22.013   0.930  12.459
27463W        W92723  37.531  29.660  12.920
27464W        W92724  27.257  40.752  13.456
27465W        W92725  38.366  41.427   3.639
27466W        W92726  10.885  34.991   0.953
27467W        W92727   0.452  11.396   0.828
27468W        W92728   9.797  35.336  10.623
27469W        W92729  42.982   3.341  10.816
27470W        W92730  43.889  25.649   1.013
27471W        W92731   7.591  39.835   4.645
27472W        W92732  42.953  19.307  11.763
27473W        W92733  11.144   5.204  12.255
27474W        W92734   4.948  10.408   0.437
27475W        W92735   0.815  21.126  12.624
27476W        W92736   0.249  15.451  12.897
27477W        W92737  24.190   5.081   1.682
27478W        W92738  22.385  28.719   0.790
27479W        W92739  25.342  11.133   3.547
27480W        W92740  30.042  12.813   3.260
27481W        W92741  44.953  36.050  13.306
27482W        W92742   0.934  30.710   0.734
27483W        W92743  24.037  31.956  11.104
27484W        W92744  38.026  20.571  12.180
27485W        W92745  32.925  20.351   1.792
27486W        W92746   0.838  41.582   2.883
27487W        W92747  12.207  30.368   2.605
27488W        W92748  42.341  42.543   2.723
27489W        W92749  20.225  39.549   2.165
27490W        W92750  41.663   6.120  12.543
27491W        W92751  13.931  26.704  14.290
27492W        W92752   2.749   4.792   4.115
27493W        W92753  14.688  20.088  12.534
27494W        W92754  36.503  27.366   1.855
27495W        W92755  29.616   1.882   1.030
27496W        W92756  41.358   6.376  13.918
27497W        W92757  37.445  35.569   1.971
27498W        W92758   7.742  39.708   3.818
27499W        W92759   4.024  42.410  14.264
27500W        W92760   5.400  16.099   2.184
27501W        W92761  11.858   1.059   3.192
27502W        W92762  27.189   4.012   2.014
27503W        W92763   7.847  10.319   5.225
27504W        W92764  26.230  38.544   1.413
27505W        W92765  44.408  15.544   4.237
27506W        W92766  12.368  11.268   1.466
27507W        W92767  15.258   5.795  13.545
27508W        W92768  29.560   1.477  14.029
27509W        W92769   0.959   6.481  14.864
27510W        W92770  20.198  35.428  10.206
27511W        W92771   3.468  41.824  12.609
27512W        W92772  37.447  29.658   1.897
27513W        W92773  40.862  26.203  14.890
27514W        W92774  35.832  25.210   0.712
27515W        W92775   9.648  35.076   1.358
27516W        W92776  23.487   1.916   4.265
27517W        W92777   0.473  43.624  13.543
27518W        W92778  10.355  15.176  11.053
27519W        W92779  21.789  30.294   4.110
27520W        W92780  23.988   7.370   5.277
27521W        W92781  17.577  20.079  14.581
27522W        W92782   9.560  18.170   3.158
27523W        W92783  29.412  16.550  12.560
27524W        W92784  30.128   5.989   0.777
27525W        W92785  34.600  23.420   2.351
27526W        W92786  39.913  19.832   4.243
27527W        W92787  28.120  42.070  13.409
27528W        W92788  18.195  32.866  14.486
27529W        W92789  39.448  13.821  13.951
27530W        W92790  21.972  31.147  13.417
27531W        W92791  10.790   6.888  12.127
27532W        W92792  39.746  22.048  12.087
27533W        W92793  16.002  18.785   2.790
27534W        W92794  26.648  37.804   4.192
27535W        W92795  43.189   3.260  12.631
27536W        W92796   5.975  41.941  13.831
27537W        W92797  18.575  12.278  12.423
27538W        W92798  21.245  35.232  11.542
27539W        W92799  32.654  31.094  12.841
27540W        W92800  32.503   1.951   4.622
27541W        W92801  30.074   3.046  11.239
27542W        W92802   6.703  40.790  14.262
27543W        W92803  28.986  23.681   4.036
27544W        W92804  13.331  23.266  12.976
27545W        W92805   4.280  21.537  10.489
27546W        W92806  40.467  18.302   3.672
27547W        W92807  24.161  40.842   0.244
27548W        W92808  35.864  37.041  11.646
27549W        W92809  15.823  30.011   0.785
27550W        W92810  14.005   7.746   3.421
27551W        W92811  26.090  40.848   4.075
27552W        W92812  17.064  38.440  12.002
27553W        W92813  38.072   5.291  14.844
27554W        W92814  35.117   7.869  11.877
27555W        W92815  26.291  29.491  11.666
27556W        W92816  23.141   8.169  11.507
27557W        W92817   8.677  39.816   1.342
27558W        W92818  12.302  38.564  13.359
27559W        W92819   8.889  42.068  12.134
27560W        W92820  29.073  13.134  13.834
27561W        W92821  19.316  33.204  11.137
27562W        W92822  30.625  28.848  12.975
27563W        W92823  14.031  15.500  12.190
27564W        W92824  35.519  33.317  11.939
27565W        W92825   6.274  11.937   2.023
27566W        W92826   1.030  40.311   2.871
27567W        W92827   6.448   6.344   3.242
27568W        W92828  32.822  14.905  14.901
27569W        W92829  34.158   7.933   3.706
27570W        W92830  39.003  10.794   3.130
27571W        W92831  18.643  19.140  12.934
27572W        W92832  13.106   4.075  13.999
27573W        W92833  37.027  12.712  11.540
27574W        W92834  36.781  11.134  13.458
27575W        W92835  31.116  40.324   3.334
27576W        W92836  36.083  44.260  12.631
27577W        W92837  17.164  12.760  12.592
27578W        W92838   8.149  40.024   4.560
27579W        W92839  33.526  42.696   1.350
27580W        W92840  44.784  26.113   2.411
27581W        W92841   2.992  10.678   0.435
27582W        W92842   8.332  31.182  14.246
27583W        W92843  28.784  13.066  12.234
27584W        W92844  22.672  21.026  14.023
27585W        W92845   4.437  14.679   2.386
27586W        W92846  19.922  37.263  10.688
27587W        W92847  12.803   3.137   0.714
27588W        W92848  11.334   7.080   4.059
27589W        W92849  34.458  30.610   4.602
27590W        W92850  24.426  43.477  12.856
27591W        W92851  31.217  14.020  10.274
27592W        W92852   9.804   1.491  11.602
27593W        W92853   5.284  21.536   1.464
27594W        W92854  41.948  18.674   3.542
27595W        W92855  35.065   1.249   1.488
27596W        W92856  17.669  30.622  14.297
27597W        W92857  23.208   8.092  14.774
27598W        W92858  12.304  40.305   1.780
27599W        W92859   4.848  37.515   3.712
27600W        W92860  41.979  16.261   1.835
27601W        W92861  33.300   9.962   4.318
27602W        W92862  40.058   9.199   4.238
27603W        W92863  35.201  40.585  10.645
27604W        W92864  21.682  44.475   1.782
27605W        W92865   0.704  19.550  14.334
27606W        W92866  34.094  13.815  12.431
27607W        W92867  17.340   0.560   3.650
27608W        W92868  23.147   7.866  11.073
27609W        W92869  28.405  17.553  14.992
27610W        W92870  38.356  36.601  13.463
27611W        W92871   4.215  12.690   3.670
27612W        W92872  28.737  10.832  11.999
27613W        W92873  26.675   7.574   9.894
27614W        W92874  32.321  40.518  14.335
27615W        W92875  20.128  43.179  12.382
27616W        W92876   0.927  44.638   1.714
27617W        W92877  19.184  34.688   4.368
27618W        W92878   9.693  43.520  13.973
27619W        W92879   5.886  29.615   3.193
27620W        W92880  32.613  42.977   4.679
27621W        W92881   4.276  29.958   0.364
27622W        W92882  38.871  11.342  12.570
27623W        W92883  32.820  22.005   3.866
27624W        W92884  12.746  39.628  14.229
27625W        W92885  15.132  19.520   5.579
27626W        W92886   2.061  28.001   4.555
27627W        W92887  34.875   2.209   2.777
27628W        W92888   6.968  44.922  10.937
27629W        W92889  11.347  23.712  12.890
27630W        W92890  27.020   8.769  10.816
27631W        W92891  41.452   3.351  12.442
27632W        W92892  38.043  39.792   1.499
27633W        W92893  23.571   3.711   3.735
27634W        W92894  31.580  21.235  10.205
27635W        W92895  44.507  21.708   1.277
27636W        W92896  25.156  43.812  14.347
27637W        W92897  39.896  12.894   4.382
27638W        W92898  38.506  19.076   1.226
27639W        W92899   5.770  40.153  11.027
27640W        W92900  15.263   5.685   0.931
27641W        W92901  36.880   7.885   1.760
27642W        W92902   0.793   4.219  13.814
27643W        W92903  15.994  21.584   1.358
27644W        W92904  34.993  29.184   0.500
27645W        W92905  25.189  37.351  12.852
27646W        W92906  19.071  24.189  14.838
27647W        W92907  26.961  19.871   2.756
27648W        W92908  10.781   2.086   2.306
27649W        W92909   1.925  13.472   3.919
27650W        W92910   3.751  30.996   0.778
27651W        W92911   9.267  15.841  12.051
27652W        W92912  36.354   1.840   1.365
27653W        W92913  44.257  21.444  11.171
27654W        W92914  23.605  31.079   4.669
27655W        W92915   1.651  34.511  12.018
27656W        W92916  38.291  43.075  11.571
27657W        W92917  21.064  10.214  14.457
27658W        W92918  11.716  11.146  10.888
27659W        W92919   3.902  24.056   3.099
27660W        W92920  25.164  11.061   2.087
27661W        W92921  39.288   5.004  11.427
27662W        W92922  20.517  28.221   1.637
27663W        W92923  19.639  10.166  10.849
27664W        W92924  16.904  10.557  13.844
27665W        W92925  42.323  34.864  12.969
27666W        W92926   4.255  39.872   2.215
27667W        W92927  31.056   7.667   0.982
27668W        W92928  37.505  17.662  11.672
27669W        W92929  42.543   8.822   3.707
27670W        W92930  33.867  30.372   1.837
27671W        W92931   9.294   5.439  11.077
27672W        W92932   8.304   6.696  14.416
27673W        W92933  27.117  36.767   3.599
27674W        W92934  40.275   2.577  12.667
27675W        W92935  17.638  31.551   4.774
27676W        W92936  13.224  35.288  13.953
27677W        W92937   5.907  16.270  10.724
27678W        W92938   5.193  36.369  12.933
27679W        W92939   3.240   4.810   2.048
27680W        W92940   5.432  26.695   1.480
27681W        W92941  40.604  20.824   0.092
27682W        W92942  39.098  35.375  14.381
27683W        W92943   9.856  11.049   0.603
27684W        W92944   9.863  35.105  11.361
27685W        W92945   8.743  20.071  11.064
27686W        W92946  40.786  39.481  11.464
27687W        W92947  19.663  22.371  14.984
27688W        W92948   6.025  14.214  11.894
27689W        W92949  27.369   6.191  12.065
27690W        W92950  23.499  42.339  14.610
27691W        W92951  42.427  27.969  13.339
27692W        W92952   9.827  13.068   1.306
27693W        W92953  38.046  23.341   0.181
27694W        W92954   0.965  23.042  11.620
27695W        W92955  35.220  39.766  13.852
27696W        W92956  44.180  18.752   4.112
27697W        W92957  12.670  42.030   4.172
27698W        W92958  39.806  16.328  12.805
27699W        W92959  22.598  30.577  13.987
27700W        W92960  34.416  22.508  13.541
27701W        W92961  10.380  27.068   2.956
27702W        W92962  41.759  15.327  12.516
27703W        W92963  23.032   5.711  12.699
27704W        W92964  33.693  37.443  12.485
27705W        W92965   9.773  41.610  11.325
27706W        W92966  25.069  26.114  12.972
27707W        W92967  11.212   7.684   0.885
27708W        W92968  27.395  23.433  10.483
27709W        W92969   4.707  33.093   0.607
27710W        W92970  14.519  38.216   4.627
27711W        W92971  27.279  38.985   3.875
27712W        W92972  19.677  13.094   4.579
27713W        W92973  17.476   7.100   2.386
27714W        W92974  10.143  31.115   4.067
27715W        W92975  26.576  37.307   3.320
27716W        W92976  39.669   5.492   4.198
27717W        W92977  14.156   7.883  14.246
27718W        W92978  10.150   0.881  12.845
27719W        W92979  13.342  30.001  12.418
27720W        W92980  40.668   2.887   0.729
27721W        W92981   1.679  28.226   1.499
27722W        W92982  44.209  44.975  10.068
27723W        W92983  43.063  32.364   5.011
27724W        W92984  30.060  19.761  13.769
27725W        W92985   8.673  39.913   3.258
27726W        W92986   8.450  29.948  13.714
27727W        W92987   2.186  34.932   3.259
27728W        W92988  43.275  17.853   2.283
27729W        W92989   5.344  38.502  11.023
27730W        W92990   5.730   7.426   0.865
27731W        W92991  27.575  11.309   4.511
27732W        W92992  24.670  42.526  11.668
27733W        W92993  14.275   0.238   3.816
27734W        W92994   2.688   6.833  12.507
27735W        W92995  37.282  20.966   0.184
27736W        W92996  13.928   3.938   3.633
27737W        W92997  33.535   4.425   0.255
27738W        W92998  41.037   5.614  13.151
27739W        W92999  15.368  17.491  13.901
27740W        W93000  10.331  16.341  13.544
27741W        W93001  19.754  25.434   4.450
27742W        W93002   3.808  17.092   4.509
27743W        W93003  42.260   8.012  11.123
27744W        W93004  19.316  23.614  10.631
27745W        W93005   2.366  36.187   4.070
27746W        W93006  21.282  33.025   4.572
27747W        W93007  24.425  27.506   4.201
27748W        W93008  31.350  44.770  12.895
27749W        W93009  32.029  43.126   3.259
27750W        W93010  25.714   8.782   2.790
27751W        W93011   4.054  42.845  10.765
27752W        W93012  23.203  39.620   4.067
27753W        W93013  29.546  17.347   4.614
27754W        W93014  22.169  37.218  11.938
27755W        W93015  23.983  35.942  14.248
27756W        W93016  25.421  43.897  13.885
27757W        W93017  21.635   7.900   2.142
27758W        W93018  27.512   6.336  10.114
27759W        W93019   5.920  37.118   1.878
27760W        W93020  31.966  35.566   1.955
27761W        W93021  16.686  12.380  11.607
27762W        W93022   4.703  13.985  12.530
27763W        W93023  41.066  38.610  12.474
27764W        W93024   7.609  40.366   1.889
27765W        W93025  29.992  41.419   0.726
27766W        W93026  33.942  42.347   4.181
27767W        W93027  34.966  14.892   0.040
27768W        W93028   1.331  22.736  10.507
27769W        W93029  37.979  24.056   3.720
27770W        W93030  40.765  42.969   1.818
27771W        W93031  29.009  32.996   1.959
27772W        W93032  25.108  39.044  14.298
27773W        W93033  28.244   7.982  12.349
27774W        W93034  25.643  40.375   1.794
27775W        W93035  39.312  13.304   3.628
27776W        W93036   6.923  43.167   4.061
27777W        W93037  22.212  41.809  13.787
27778W        W93038   7.468  37.168  14.497
27779W        W93039  37.065  19.687  14.870
27780W        W93040   8.933   0.566   1.779
27781W        W93041  34.295   6.533  14.083
27782W        W93042  41.495  28.100  12.928
27783W        W93043  19.189   2.064   2.281
27784W        W93044  12.941  31.900  14.380
27785W        W93045  33.240  19.566  11.910
27786W        W93046  20.260  25.789   0.821
27787W        W93047  28.979   1.389  14.418
27788W        W93048  17.663  41.925  13.992
27789W        W93049   4.898  41.433   9.704
27790W        W93050  19.839  24.966   1.342
27791W        W93051  14.127  32.865   0.713
27792W        W93052  30.416  23.623  13.525
27793W        W93053   5.108  18.937   3.660
27794W        W93054  22.134  44.350  12.441
27795W        W93055  38.936  42.784  13.331
27796W        W93056   6.752   1.497  10.916
27797W        W93057  10.794   7.812  12.071
27798W        W93058  14.056  34.541  14.754
27799W        W93059   5.245   2.550  13.345
27800W        W93060  34.486  42.348  14.026
27801W        W93061  27.628  29.150   3.196
27802W        W93062   2.794  16.871   4.084
27803W        W93063  18.483  31.645   0.902
27804W        W93064  15.229  37.610  12.969
27805W        W93065  19.517  35.123   2.353
27806W        W93066  33.118   4.695   1.414
27807W        W93067  38.364   8.838  13.859
27808W        W93068  20.321  33.405   3.293
27809W        W93069  36.617   6.432   0.868
27810W        W93070  18.462   8.149  14.373
27811W        W93071  33.651  37.843   0.822
27812W        W93072   9.105  16.309  11.850
27813W        W93073   6.379   6.705   1.434
27814W        W93074  36.839  19.511  14.406
27815W        W93075  37.732  31.934  12.955
27816W        W93076  44.914  30.053   4.548
27817W        W93077  35.580  42.330  12.833
27818W        W93078   8.297  39.059  14.475
27819W        W93079   4.183  16.121  14.555
27820W        W93080  43.915  34.575  14.374
27821W        W93081  40.055  37.329   3.834
27822W        W93082   8.123  21.819   4.025
27823W        W93083  35.923   2.642   1.950
27824W        W93084  10.354  36.733  12.506
27825W        W93085  39.245  21.645  14.950
27826W        W93086  32.077  14.765  14.402
27827W        W93087   7.900  30.530  14.579
27828W        W93088  18.552  16.314  11.400
27829W        W93089  27.472   8.708   2.571
27830W        W93090  16.084   3.416  14.840
27831W        W93091  41.295   7.205  11.618
27832W        W93092   7.559   5.034   2.413
27833W        W93093  28.040  30.492   3.169
27834W        W93094   0.049  40.401  11.175
27835W        W93095  41.715   9.205   2.361
27836W        W93096  25.126  29.465  11.586
27837W        W93097  12.343   6.218   1.744
27838W        W93098  24.520   3.684  14.054
27839W        W93099  12.217  24.436  14.483
27840W        W93100  32.993  31.345   1.788
27841W        W93101   4.287   3.792  12.892
27842W        W93102  37.369   7.598   4.087
27843W        W93103  40.838  18.647   2.656
27844W        W93104  39.572   1.763   0.311
27845W        W93105  33.504  24.177  13.586
27846W        W93106  18.015   7.518  13.449
27847W        W93107   5.745   6.613  14.446
27848W        W93108  29.932  18.646   4.192
27849W        W93109  30.032  22.201   3.668
27850W        W93110   6.718  20.792   1.790
27851W        W93111   9.376   5.778  13.046
27852W        W93112  16.242  30.450   2.380
27853W        W93113  31.842  39.966  13.759
27854W        W93114  23.378  38.395  12.458
27855W        W93115  22.562  19.667  12.529
27856W        W93116  27.754  44.557   1.700
27857W        W93117  42.014  15.167   0.399
27858W        W93118   8.113  17.633  14.734
27859W        W93119  43.940   1.314   1.731
27860W        W93120   4.762  25.003   3.268
27861W        W93121  13.989   0.822   4.975
27862W        W93122  41.261  24.120  12.080
27863W        W93123  17.132  29.248  13.505
27864W        W93124   6.240  32.080   4.158
27865W        W93125   8.625  42.928   3.259
27866W        W93126  26.146  23.797  12.136
27867W        W93127  37.824  19.887   1.225
27868W        W93128  23.444  14.214  14.946
27869W        W93129  27.106  20.939   0.599
27870W        W93130  15.377   4.475   4.167
27871W        W93131  22.700  34.407  10.738
27872W        W93132  24.712  29.127  11.122
27873W        W93133  37.891   3.435  11.202
27874W        W93134  20.860   0.787  14.273
27875W        W93135  19.240  14.746  10.953
27876W        W93136  32.062  26.512  13.794
27877W        W93137  36.543  30.505   2.101
27878W        W93138  38.406   8.916   3.616
27879W        W93139  44.053   2.463  12.136
27880W        W93140  28.009  34.917  10.914
27881W        W93141  12.321   4.379   4.491
27882W        W93142  40.119   5.404   0.556
27883W        W93143   4.855  30.052  12.011
27884W        W93144  14.241  13.773  10.493
27885W        W93145  39.258  40.025  12.580
27886W        W93146  14.780   3.340  13.549
27887W        W93147  23.034  12.633   0.796
27888W        W93148   9.261  41.204   0.268
27889W        W93149  12.077  35.126   4.187
27890W        W93150  13.767  28.441   4.606
27891W        W93151  32.988  38.363  14.332
27892W        W93152  10.828  37.906  14.319
27893W        W93153   9.562  10.943  14.517
27894W        W93154  23.978  24.136  12.499
27895W        W93155  36.649  29.151   1.424
27896W        W93156   8.681  38.965  13.814
27897W        W93157  17.702  28.407  14.418
27898W        W93158  25.104  12.251  11.894
27899W        W93159   0.515  18.207  10.896
27900W        W93160  20.783  37.027   2.021
27901W        W93161  10.738  42.046  13.976
27902W        W93162  18.255  20.954  13.019
27903W        W93163  21.452  35.559   1.295
27904W        W93164  21.059   8.735  10.692
27905W        W93165  18.192  20.329   4.507
27906W        W93166  19.650  30.799   1.742
27907W        W93167  29.295   4.449  13.926
27908W        W93168   9.730  12.742   1.721
27909W        W93169  36.193  42.920  12.664
27910W        W93170  31.543  36.353  10.806
27911W        W93171  23.799  40.513   0.403
27912W        W93172  32.370  26.558  14.323
27913W        W93173  10.235  19.307  12.672
27914W        W93174  40.328  23.038  13.000
27915W        W93175   5.083  18.342   3.976
27916W        W93176  12.483   2.214  14.877
27917W        W93177  43.383   2.290   0.395
27918W        W93178  20.152  18.738  13.793
27919W        W93179   5.140  20.913  12.325
27920W        W93180   2.755  26.641   4.841
27921W        W93181   1.596  26.194   0.535
27922W        W93182   3.494  29.461  12.062
27923W        W93183   6.294   7.172  10.208
27924W        W93184   6.300   3.958   3.134
27925W        W93185  40.003  42.384   2.268
27926W        W93186  25.665  35.895  10.271
27927W        W93187  31.041   9.249   2.915
27928W        W93188  36.032  20.134  13.842
27929W        W93189  17.063  19.259   2.294
27930W        W93190  19.064  14.736   1.449
27931W        W93191  29.227   6.211   2.388
27932W        W93192  36.617  41.579  13.764
27933W        W93193   6.367  15.381   4.548
27934W        W93194   3.479   5.355  11.638
27935W        W93195  15.268  44.266  14.577
27936W        W93196  40.131  32.584   4.574
27937W        W93197  40.633  21.830   1.221
27938W        W93198  13.277  36.366  11.175
27939W        W93199  19.084  38.009   3.680
27940W        W93200  39.856  35.518   3.304
27941W        W93201  23.754  22.293   1.891
27942W        W93202  37.290  17.099  14.419
27943W        W93203  43.472  25.656  12.191
27944W        W93204  28.700  27.287   0.434
27945W        W93205  22.991  11.736   1.354
27946W        W93206  42.503  20.765   0.738
27947W        W93207  20.021  12.348  12.394
27948W        W93208   5.651  22.087  14.549
27949W        W93209  30.485  40.541  12.146
27950W        W93210  29.770  24.041  12.095
27951W        W93211  25.941  10.275  14.354
27952W        W93212  33.024  15.672  10.637
27953W        W93213  42.705  23.277  14.529
27954W        W93214   9.237  17.089   2.735
27955W        W93215   5.225   3.538   3.206
27956W        W93216  29.436  17.631   0.087
27957W        W93217  29.095  30.212   3.722
27958W        W93218  39.327  35.926  13.689
27959W        W93219   1.903  42.315  13.358
27960W        W93220  10.766  15.377  14.430
27961W        W93221  13.410  39.445   4.467
27962W        W93222  22.473   1.851  10.312
27963W        W93223  19.502   2.374  13.522
27964W        W93224  16.827  38.545  10.668
27965W        W93225  26.954  36.523   1.935
27966W        W93226  22.065  22.124  14.424
27967W        W93227  12.470  43.870   4.423
27968W        W93228  23.063  11.565  11.036
27969W        W93229  11.882   0.772   0.841
27970W        W93230  36.721  35.117  14.438
27971W        W93231  25.731  37.069   3.759
27972W        W93232  36.559  42.448  13.352
27973W        W93233   6.562  18.293   2.027
27974W        W93234  39.443  27.193  11.759
27975W        W93235  27.133   8.624   4.289
27976W        W93236  29.406  26.566   2.187
27977W        W93237  31.382   2.286  14.351
27978W        W93238  25.751   7.312   3.866
27979W        W93239   1.371  20.713   0.544
27980W        W93240  12.226  16.221   4.108
27981W        W93241  17.555  19.954   3.293
27982W        W93242   1.963  10.700   3.784
27983W        W93243  30.442   7.600   1.482
27984W        W93244  23.692   1.773  10.530
27985W        W93245  25.192  32.126   3.226
27986W        W93246  25.436  37.394   0.054
27987W        W93247  39.746   4.321  12.116
27988W        W93248  25.043  31.541   2.360
27989W        W93249   7.404  13.086  14.919
27990W        W93250  30.020   7.356  10.401
27991W        W93251   6.588  21.487   1.415
27992W        W93252  28.525  43.409   4.950
27993W        W93253  39.375  23.119   0.790
27994W        W93254  22.341  21.213  12.953
27995W        W93255   0.285  16.822  10.671
27996W        W93256   6.768  42.346  14.011
27997W        W93257  15.377  39.977   3.278
27998W        W93258  11.392   7.776   3.392
27999W        W93259  25.857  43.065   3.943
28000W        W93260  40.826  38.665   0.980
28001W        W93261  19.575  30.622  11.205
28002W        W93262   7.399   4.827   3.793
28003W        W93263   0.351  34.884   0.402
28004W        W93264   4.841   2.913   2.458
28005W        W93265  43.682  15.219  14.937
28006W        W93266  18.302  31.756   1.705
28007W        W93267   4.074  21.613   3.301
28008W        W93268  32.426  32.060  13.755
28009W        W93269  36.301  42.502  11.335
28010W        W93270  37.958  13.873  12.665
28011W        W93271   7.131  24.978   3.647
28012W        W93272   5.424  44.559  13.997
28013W        W93273  12.352  40.643  14.023
28014W        W93274  23.251   7.281   1.664
28015W        W93275  39.549  28.404   1.825
28016W        W93276  41.311  41.379   2.954
28017W        W93277  35.470  23.694   1.841
28018W        W93278   0.173  19.756  11.950
28019W        W93279  39.000  43.958   2.701
28020W        W93280  36.829  10.457  11.978
28021W        W93281   9.440  10.687   4.135
28022W        W93282  37.006  15.332  14.824
28023W        W93283  13.687  20.463   1.400
28024W        W93284   3.870  20.172   3.653
28025W        W93285  36.330  10.725  14.837
28026W        W93286  23.232   7.058   3.951
28027W        W93287  26.679  19.897  13.921
28028W        W93288  39.927  27.086   0.868
28029W        W93289  23.527  12.209   3.638
28030W        W93290   4.376  44.122  12.172
28031W        W93291  15.622  12.255   0.495
28032W        W93292   0.113  34.489  10.649
28033W        W93293   4.635  44.007   2.827
28034W        W93294  29.008  14.151   3.995
28035W        W93295  42.896  36.813  11.474
28036W        W93296  25.235  37.286   3.621
28037W        W93297  35.273  36.443   0.256
28038W        W93298   8.559   3.529  14.045
28039W        W93299  37.506  39.059   1.890
28040W        W93300  29.432  21.550  12.814
28041W        W93301  11.460  18.081  10.313
28042W        W93302   1.888  26.654  12.050
28043W        W93303  44.965   3.733  14.421
28044W        W93304   5.989  37.586  13.022
28045W        W93305   4.692  41.384  14.896
28046W        W93306  37.180  35.979  11.473
28047W        W93307   7.204  15.349  12.651
28048W        W93308  17.776  10.264  13.789
28049W        W93309  12.568  42.202  12.976
28050W        W93310   0.440  43.976   3.872
28051W        W93311  24.195  38.797   2.819
28052W        W93312   7.748  38.929   1.291
28053W        W93313  29.490  39.025  12.800
28054W        W93314  36.386  33.564   4.093
28055W        W93315  13.703  35.167   0.401
28056W        W93316  27.025  36.853  10.995
28057W        W93317   8.439   7.952  13.054
28058W        W93318  28.709  35.406  12.017
28059W        W93319  18.149   4.396   0.701
28060W        W93320  11.044  33.124  11.127
28061W        W93321  20.699  19.781   1.260
28062W        W93322  17.381  31.024   2.795
28063W        W93323  36.367  38.568   3.637
28064W        W93324  15.254  24.610  11.186
28065W        W93325   6.443   6.381  11.082
28066W        W93326  33.909  21.942   0.628
28067W        W93327  24.053  41.085  10.365
28068W        W93328  32.683  31.321  12.158
28069W        W93329   9.683  12.607  11.419
28070W        W93330   9.383  20.621   2.879
28071W        W93331  34.658  23.215  11.447
28072W        W93332  26.930   6.931   0.689
28073W        W93333   3.272  32.701  14.368
28074W        W93334  34.116  12.811   2.378
28075W        W93335  19.192  21.739  14.746
28076W        W93336   1.862  40.853   2.815
28077W        W93337   8.718   1.751   1.240
28078W        W93338  25.322  37.030  11.654
28079W        W93339  13.696  33.008  13.781
28080W        W93340  16.967   1.498   4.575
28081W        W93341  13.788  25.614  14.844
28082W        W93342  12.124  17.271   1.059
28083W        W93343  28.170   3.019  10.438
28084W        W93344  11.305   4.113   2.159
28085W        W93345  13.719  32.498  13.686
28086W        W93346  23.983  22.630  10.514
28087W        W93347  12.686  38.509   2.311
28088W        W93348  29.479  40.979  10.960
28089W        W93349  34.785  10.267   4.144
28090W        W93350  29.015   0.497   3.643
28091W        W93351  23.033  21.789  14.407
28092W        W93352   8.792  44.779  13.010
28093W        W93353   9.608  23.642   2.708
28094W        W93354  41.155  31.296   2.684
28095W        W93355   6.379  10.029  14.388
28096W        W93356  17.630   6.787  11.746
28097W        W93357   4.393  19.274  11.974
28098W        W93358  14.699  11.398  14.979
28099W        W93359  27.257  30.675   1.389
28100W        W93360  24.043  17.328   3.150
28101W        W93361  31.434  16.795  12.451
28102W        W93362  27.756  28.078  13.848
28103W        W93363  19.220  12.781   4.528
28104W        W93364  25.178  11.385  11.636
28105W        W93365   0.019   8.341   2.906
28106W        W93366  32.705  41.800   2.405
28107W        W93367  31.068  39.307   2.144
28108W        W93368   2.002   7.393  13.819
28109W        W93369  14.029  18.032   4.044
28110W        W93370  24.947  27.519   4.183
28111W        W93371   7.429  19.151  11.883
28112W        W93372  16.725   2.744  10.517
28113W        W93373  16.586   2.824   1.412
28114W        W93374  33.885  21.685   0.143
28115W        W93375  23.529  27.553   1.358
28116W        W93376  36.359  31.167   1.892
28117W        W93377  38.025  10.035   2.924
28118W        W93378   7.985  14.580  11.235
28119W        W93379  40.743  14.571   1.145
28120W        W93380  18.539   5.644  14.109
28121W        W93381   1.477  16.729   1.517
28122W        W93382  20.040   4.378   1.939
28123W        W93383  25.960  13.284  11.573
28124W        W93384  15.075  15.680  13.956
28125W        W93385  21.126  43.862   1.404
28126W        W93386  22.635  35.014  11.421
28127W        W93387  33.424  19.220   5.101
28128W        W93388  31.585  31.979  11.599
28129W        W93389   9.236  31.111  11.575
28130W        W93390   9.386  27.150  10.962
28131W        W93391  31.096  13.887   4.799
28132W        W93392   4.902  27.539   0.360
28133W        W93393  34.366  39.989  10.681
28134W        W93394  20.646  36.582   1.715
28135W        W93395  39.970  14.583   4.375
28136W        W93396  36.071  40.305   0.889
28137W        W93397  22.204  38.936  11.910
28138W        W93398  35.841  24.052   0.841
28139W        W93399   7.312  14.874  13.443
28140W        W93400  28.631   1.788   2.714
28141W        W93401  13.508   8.256  11.122
28142W        W93402   4.074  41.638   0.331
28143W        W93403  22.360  21.261   5.028
28144W        W93404  23.106   5.650   3.502
28145W        W93405   9.383  43.309   1.180
28146W        W93406  11.839  10.681  11.096
28147W        W93407  34.075  40.809  12.063
28148W        W93408   5.736  32.265   4.205
28149W        W93409  34.563  20.225   1.381
28150W        W93410  39.322  23.620   0.903
28151W        W93411   7.270  17.898  13.088
28152W        W93412  24.031  16.809  10.713
28153W        W93413  28.914  13.863  13.365
28154W        W93414  31.777  18.665   2.842
28155W        W93415  26.882  34.941  14.357
28156W        W93416   6.166  11.224  11.399
28157W        W93417  27.562   6.877  11.163
28158W        W93418  41.073   8.282   4.599
28159W        W93419   2.200  40.579  12.727
28160W        W93420  12.657  23.711   0.322
28161W        W93421   6.312   0.533  11.454
28162W        W93422  24.119  22.526   0.666
28163W        W93423  13.584  34.157  10.676
28164W        W93424  34.845  42.878  12.038
28165W        W93425  42.280  35.589  13.350
28166W        W93426  29.357  21.519  11.531
28167W        W93427  36.346  26.888   0.328
28168W        W93428  10.225  34.597   3.600
28169W        W93429  42.535  26.059   1.288
28170W        W93430   7.034   1.299   3.307
28171W        W93431   3.758   8.847   1.193
28172W        W93432  40.808  44.787   4.893
28173W        W93433  15.881   8.274  11.954
28174W        W93434   9.839  16.335  11.355
28175W        W93435   4.924  24.069   0.273
28176W        W93436  18.685  25.522   1.848
28177W        W93437  15.889   8.898   4.158
28178W        W93438  43.847  20.051   3.581
28179W        W93439  25.486  42.306  12.081
28180W        W93440  27.243  32.428   4.878
28181W        W93441   1.912  35.863  13.887
28182W        W93442  27.082  13.272  12.060
28183W        W93443  38.357  13.059  11.474
28184W        W93444  13.575  36.878  11.997
28185W        W93445  19.026  41.832  13.527
28186W        W93446  41.754   8.522   4.164
28187W        W93447   8.754  40.278  12.275
28188W        W93448  13.647  11.329  11.599
28189W        W93449  12.932   3.806   3.658
28190W        W93450  43.482  11.251  12.424
28191W        W93451  36.757  11.732   1.853
28192W        W93452   0.204  38.490  14.468
28193W        W93453  16.175   2.674   0.123
28194W        W93454  30.526   6.499  11.052
28195W        W93455  31.985  20.020  11.138
28196W        W93456  24.628   8.422  12.542
28197W        W93457  39.724  26.138  14.513
28198W        W93458  20.615   5.302  10.322
28199W        W93459   7.160  43.501  13.037
28200W        W93460  25.940  43.009   3.422
28201W        W93461  22.011  20.616  12.327
28202W        W93462   1.392  16.286  11.039
28203W        W93463  15.160   6.178   1.834
28204W        W93464  29.726  13.824   1.761
28205W        W93465   7.429  16.063  14.957
28206W        W93466  27.243  38.396   1.327
28207W        W93467  25.524   9.924   5.021
28208W        W93468   6.856  34.755   3.676
28209W        W93469  18.990   2.458   3.172
28210W        W93470   4.227  13.969   3.733
28211W        W93471  32.927   4.903   1.839
28212W        W93472  24.003  31.117  13.534
28213W        W93473  40.997   8.669   3.707
28214W        W93474  28.963  27.205  10.139
28215W        W93475   3.623  43.866   2.800
28216W        W93476  26.501  13.207   3.665
28217W        W93477  23.659  19.816   3.442
28218W        W93478   4.960  26.482   1.651
28219W        W93479  43.213  29.990  12.570
28220W        W93480  11.353   2.935   0.897
28221W        W93481  30.838  27.200  10.632
28222W        W93482  15.674  25.422  12.598
28223W        W93483   1.221  19.797  11.941
28224W        W93484  21.717   9.945  10.660
28225W        W93485  35.754   0.343   0.103
28226W        W93486  31.338  27.168   4.771
28227W        W93487   8.388  24.039   1.417
28228W        W93488  44.904   6.244  13.672
28229W        W93489  16.661   9.817   4.276
28230W        W93490  12.831  23.616  12.519
28231W        W93491  14.899   2.297   0.349
28232W        W93492  42.338  19.508   1.898
28233W        W93493  41.133  17.202   4.326
28234W        W93494  40.285  12.410   1.045
28235W        W93495  12.130  15.856  14.408
28236W        W93496  15.520  44.129   0.476
28237W        W93497  38.254  22.329  14.060
28238W        W93498   2.024  14.306  10.927
28239W        W93499  15.728  23.985   5.005
28240W        W93500   0.778  27.833  12.024
28241W        W93501  36.415  16.714  14.131
28242W        W93502  17.926  37.847  12.330
28243W        W93503  16.726  23.815  12.428
28244W        W93504  25.962  21.641   4.938
28245W        W93505  44.051  25.694   4.325
28246W        W93506  28.425   7.800  10.452
28247W        W93507   3.267  32.655  13.058
28248W        W93508  22.123   8.118  10.362
28249W        W93509  24.456   8.611   0.738
28250W        W93510  24.524  29.810   4.489
28251W        W93511  13.190  44.516   2.328
28252W        W93512  28.583  22.080   4.534
28253W        W93513   5.377  10.280  14.177
28254W        W93514  29.450  42.339   4.550
28255W        W93515  33.630  24.488   2.233
28256W        W93516   6.744  25.154   1.762
28257W        W93517   1.993  15.204   4.790
28258W        W93518  11.328   0.408  14.943
28259W        W93519  39.647   1.940  10.304
28260W        W93520   9.168  29.458   0.144
28261W        W93521  31.348  37.028   1.794
28262W        W93522  43.137   3.824   2.305
28263W        W93523   5.474  22.949  12.001
28264W        W93524   8.163   7.627  14.945
28265W        W93525   0.852  14.635   0.860
28266W        W93526  35.791  19.617   0.319
28267W        W93527   7.140   9.089  11.124
28268W        W93528  37.920  18.030   2.249
28269W        W93529  17.660   7.084   3.417
28270W        W93530   5.652  12.010  10.992
28271W        W93531  32.165  37.450  11.233
28272W        W93532  44.918  10.929  13.260
28273W        W93533  30.341  44.568   0.209
28274W        W93534   6.064   4.747   4.218
28275W        W93535  35.325  27.924  10.231
28276W        W93536   2.603   4.152  14.706
28277W        W93537  40.401  14.860  12.099
28278W        W93538  41.349  24.951  12.290
28279W        W93539   0.878  26.050  14.995
28280W        W93540   2.541  11.865   1.356
28281W        W93541  22.563  25.724   0.953
28282W        W93542  13.164   1.706   1.622
28283W        W93543   9.961  36.904  11.473
28284W        W93544  40.045   6.894   0.426
28285W        W93545  12.929   6.381  11.649
28286W        W93546  32.504   8.566   3.103
28287W        W93547  15.898  33.609  10.314
28288W        W93548  19.301   6.955   4.607
28289W        W93549  30.764  39.442  14.726
28290W        W93550  27.516  26.896   1.828
28291W        W93551  11.789  11.330   3.283
28292W        W93552   3.441  38.035   1.710
28293W        W93553  34.545   7.100  12.921
28294W        W93554  39.352  34.113  13.842
28295W        W93555  17.722  17.725  10.203
28296W        W93556  42.397  29.509   3.763
28297W        W93557  18.305  24.325  12.632
28298W        W93558   7.814   3.631  12.009
28299W        W93559  17.765  32.529   1.937
28300W        W93560  15.211  37.798   3.809
28301W        W93561  29.014  33.573  13.482
28302W        W93562   4.632  38.806   0.404
28303W        W93563   1.523  21.477   9.529
28304W        W93564  28.592  19.699   2.461
28305W        W93565  19.162  43.625   2.688
28306W        W93566  24.025   6.747   3.688
28307W        W93567  37.635  10.310  13.124
28308W        W93568  34.123  28.349   0.956
28309W        W93569  41.512  42.544  12.428
28310W        W93570   4.534  19.710   1.888
28311W        W93571  34.320  25.561  10.029
28312W        W93572  11.742  28.978   3.786
28313W        W93573  34.345   5.413  13.350
28314W        W93574  10.609  37.480   3.747
28315W        W93575  38.545   0.667  14.011
28316W        W93576  38.059  36.047   4.098
28317W        W93577  35.564   4.518  11.540
28318W        W93578   5.673  15.155  11.142
28319W        W93579   4.805   3.778   4.390
28320W        W93580   8.482  43.933  14.365
28321W        W93581  16.531  25.579  14.982
28322W        W93582  40.528   8.514  10.789
28323W        W93583   4.726  23.375  13.785
28324W        W93584  11.941  38.769  10.600
28325W        W93585  19.636  44.851   3.227
28326W        W93586  20.924  26.660  10.802
28327W        W93587  20.966  16.276   3.781
28328W        W93588  41.562  32.082  12.236
28329W        W93589  44.661  18.157  12.049
28330W        W93590  16.103  17.106   2.808
28331W        W93591  11.788  18.967  12.490
28332W        W93592  10.763   1.398   3.567
28333W        W93593   1.713  16.937   1.105
28334W        W93594  43.284  32.919  12.540
28335W        W93595  20.774  22.306  11.575
28336W        W93596  22.725  41.132  10.934
28337W        W93597  33.503  15.304  14.089
28338W        W93598  35.474  37.766  14.535
28339W        W93599  20.205  38.904  10.076
28340W        W93600  34.433   2.779   1.013
28341W        W93601  17.956  19.143  12.454
28342W        W93602  41.821  19.650  10.833
28343W        W93603   4.141  37.951   3.389
28344W        W93604  11.696  23.393   2.402
28345W        W93605  30.946  15.063   0.900
28346W        W93606   3.441  17.144   3.363
28347W        W93607   7.262   4.337   0.253
28348W        W93608  26.510  36.569  10.928
28349W        W93609  17.775   2.090   3.713
28350W        W93610  22.950  28.429  10.466
28351W        W93611   8.664  26.223   0.217
28352W        W93612   6.641  25.799  14.374
28353W        W93613  12.062  44.922   2.766
28354W        W93614   9.632   9.176   2.651
28355W        W93615  35.926  14.756  10.970
28356W        W93616  28.043  11.264   1.300
28357W        W93617  11.241  43.405  12.033
28358W        W93618  26.152  24.294   3.734
28359W        W93619  29.241  14.173  13.096
28360W        W93620  27.940  29.853   3.659
28361W        W93621  43.454  38.467  14.335
28362W        W93622  26.998  12.894  12.950
28363W        W93623  30.352  18.287  10.765
28364W        W93624   8.795   6.411   2.822
28365W        W93625  33.939  42.107  13.931
28366W        W93626  11.668   7.515   4.923
28367W        W93627  31.905  34.467   3.779
28368W        W93628  31.654  28.145   2.857
28369W        W93629  10.793  32.785   0.943
28370W        W93630  12.686  17.513   2.741
28371W        W93631  18.841  34.395   2.221
28372W        W93632   9.875  18.594  13.301
28373W        W93633  38.980   7.134   0.519
28374W        W93634   4.934  38.340  12.926
28375W        W93635   9.343   7.781   1.005
28376W        W93636  36.416  17.807   2.261
28377W        W93637  10.408  31.176  11.930
28378W        W93638   4.285  40.820   4.665
28379W        W93639   7.301  36.023  11.930
28380W        W93640  29.129   4.646  11.242
28381W        W93641  27.344  16.130   1.263
28382W        W93642   5.922  26.145   3.392
28383W        W93643   5.327  20.511   2.442
28384W        W93644  44.793  21.687  13.679
28385W        W93645  18.223  13.849  10.644
28386W        W93646  26.263  15.231   4.645
28387W        W93647   2.565   6.346   0.251
28388W        W93648  30.916  15.512  14.365
28389W        W93649  36.199  31.396  13.950
28390W        W93650   9.716  15.163   3.294
28391W        W93651  20.162  39.851   4.429
28392W        W93652   7.583  38.570  12.454
28393W        W93653  28.429  44.966  11.427
28394W        W93654  28.198   8.874   0.022
28395W        W93655   4.911  25.471  11.951
28396W        W93656  42.270  27.567  14.383
28397W        W93657  42.043  26.560   4.565
28398W        W93658  25.460   5.506   5.383
28399W        W93659  32.464  19.824   3.297
28400W        W93660  16.280  11.557   2.235
28401W        W93661  17.669  16.423   1.196
28402W        W93662  42.022  26.589  13.295
28403W        W93663  23.503  24.548  11.561
28404W        W93664  17.066  44.358  11.672
28405W        W93665   0.316  41.716   0.811
28406W        W93666   4.345  44.819   3.876
28407W        W93667  32.002  40.786  12.426
28408W        W93668  23.136  10.749   1.754
28409W        W93669   4.687  22.053  14.580
28410W        W93670  26.759  28.934  10.053
28411W        W93671  17.661  41.435   4.209
28412W        W93672  19.549  43.539  14.925
28413W        W93673  40.761   0.722   5.405
28414W        W93674   6.621  24.590   0.268
28415W        W93675   2.223  29.979   4.671
28416W        W93676  18.667  42.501   1.481
28417W        W93677  29.448  35.910   0.805
28418W        W93678  41.815   1.541   2.314
28419W        W93679  17.082  32.613   2.211
28420W        W93680  11.482  43.478  10.841
28421W        W93681   1.460  32.435  11.625
28422W        W93682  37.295  24.457   3.737
28423W        W93683  41.127  27.831   4.121
28424W        W93684  22.189   9.459  10.598
28425W        W93685  22.752  10.142   2.315
28426W        W93686   7.682  30.709   2.837
28427W        W93687  14.716   7.852   2.471
28428W        W93688  19.833   6.882   3.184
28429W        W93689  22.156  20.546   4.076
28430W        W93690  39.934  38.882   3.589
28431W        W93691   8.776   2.350   3.308
28432W        W93692  32.909  44.009  13.059
28433W        W93693  27.620  16.969  13.310
28434W        W93694   1.263  44.039  10.998
28435W        W93695  26.488  22.657  10.169
28436W        W93696   1.192  24.420  12.549
28437W        W93697  34.542  22.727  11.588
28438W        W93698  43.927  13.852   4.159
28439W        W93699   0.269  19.003  10.699
28440W        W93700  18.102  10.081   0.813
28441W        W93701   8.335  28.470   1.302
28442W        W93702  12.252  30.073   1.121
28443W        W93703   4.134  31.711   3.698
28444W        W93704   0.356  27.997   0.231
28445W        W93705   8.780  21.505   4.477
28446W        W93706  39.130   6.205   5.145
28447W        W93707  25.610   5.203   1.721
28448W        W93708  24.003  22.120  13.887
28449W        W93709  38.837  40.557  14.734
28450W        W93710   1.899  32.546   4.220
28451W        W93711  15.034  36.876  14.480
28452W        W93712  38.595   6.718  14.247
28453W        W93713  11.945  11.404  14.296
28454W        W93714  14.218  33.847   2.408
28455W        W93715   2.379  30.745   0.784
28456W        W93716   7.786  11.235   3.333
28457W        W93717   6.591  18.479   5.071
28458W        W93718  21.482  20.068   5.464
28459W        W93719  43.246  20.658  14.434
28460W        W93720   1.569  20.075   1.759
28461W        W93721  26.126  42.579  12.999
28462W        W93722  37.036  41.269   4.075
28463W        W93723  34.102  42.782   0.667
28464W        W93724  37.741  10.823   2.371
28465W        W93725  19.179  10.437   0.720
28466W        W93726  28.257  32.045   3.531
28467W        W93727  42.734  17.232   3.373
28468W        W93728  18.513  34.202  11.130
28469W        W93729   0.044  31.983  14.309
28470W        W93730  20.300  12.032  12.722
28471W        W93731  42.708  16.701   1.396
28472W        W93732  32.144  26.575   4.089
28473W        W93733  19.999   9.769   2.321
28474W        W93734  20.708  30.634   1.294
28475W        W93735  19.246  28.556  13.171
28476W        W93736   4.378  22.284   2.508
28477W        W93737   1.529  28.012   4.674
28478W        W93738  18.631  13.599   1.204
28479W        W93739  18.199  27.236   1.239
28480W        W93740  12.807   6.284  14.550
28481W        W93741  42.884   1.293   1.034
28482W        W93742  14.551  36.455   1.665
28483W        W93743  21.875  42.982  10.434
28484W        W93744  25.427  19.178  12.502
28485W        W93745   5.425   7.253   3.067
28486W        W93746   6.974  20.644  11.452
28487W        W93747  30.412  15.079   3.740
28488W        W93748  16.428  16.528   5.327
28489W        W93749  15.688  36.539   3.954
28490W        W93750  13.078   9.791  14.976
28491W        W93751  29.225   7.458   3.244
28492W        W93752   5.743   2.852   1.867
28493W        W93753  20.779  43.107  14.392
28494W        W93754  38.351   3.098   3.551
28495W        W93755  36.456  28.029  11.417
28496W        W93756  25.650   1.422   4.713
28497W        W93757   1.066  13.394  12.301
28498W        W93758  14.063  30.409   4.023
28499W        W93759  11.596   1.043  11.738
28500W        W93760   4.367  24.448   4.724
28501W        W93761   9.533   7.317   5.180
28502W        W93762   3.814  37.837   2.007
28503W        W93763  35.671   2.451  14.663
28504W        W93764   4.875  42.284  11.641
28505W        W93765  20.777  24.337  13.638
28506W        W93766  34.439  14.608  13.436
28507W        W93767  40.517  35.525   4.062
28508W        W93768   5.849  21.785  14.951
28509W        W93769  15.974  28.627   1.251
28510W        W93770  28.878  32.959  14.265
28511W        W93771  24.733  33.456   1.253
28512W        W93772  25.029  20.571   0.808
28513W        W93773   8.739   8.253   1.638
28514W        W93774  44.856  20.458  13.018
28515W        W93775  15.828  43.031   3.613
28516W        W93776   4.907  42.857  11.741
28517W        W93777  18.357  28.207   1.474
28518W        W93778  31.420   1.485  12.901
28519W        W93779  15.472  40.083  11.136
28520W        W93780  37.611  25.503   1.366
28521W        W93781  10.307  23.810  11.044
28522W        W93782  30.404  10.575  12.665
28523W        W93783  39.811  35.615   1.373
28524W        W93784  16.010  36.137   2.305
28525W        W93785  33.973  14.092  10.714
28526W        W93786  35.490  29.566  14.328
28527W        W93787   1.929  40.198  11.968
28528W        W93788  14.594  15.690   2.432
28529W        W93789   2.327  13.657   1.812
28530W        W93790  40.772  27.695  12.709
28531W        W93791  22.022  21.522  14.832
28532W        W93792  38.921   0.994  13.095
28533W        W93793   1.499  39.269   3.322
28534W        W93794  27.835  34.578  14.440
28535W        W93795  34.125  29.418   3.535
28536W        W93796  13.255  29.829   4.718
28537W        W93797  38.597   2.365  11.945
28538W        W93798  41.083  41.279  11.624
28539W        W93799  30.471  23.623   2.084
28540W        W93800  22.744  13.080   1.701
28541W        W93801  21.798  14.357  11.171
28542W        W93802   7.164  17.341  12.517
28543W        W93803   3.380  29.592  14.595
28544W        W93804   2.206  25.815  12.130
28545W        W93805  31.901  42.627  10.528
28546W        W93806   5.207  40.497  13.803
28547W        W93807   4.472  38.040   4.266
28548W        W93808  12.772  19.064  14.529
28549W        W93809  12.373   9.761   2.408
28550W        W93810  16.052  23.732  14.455
28551W        W93811   9.351  17.100   4.108
28552W        W93812  12.276  39.727   3.675
28553W        W93813  33.523  43.733  12.942
28554W        W93814  33.064  36.796  12.908
28555W        W93815   2.693  13.232   0.447
28556W        W93816  40.483   1.540  13.563
28557W        W93817   5.386  30.337  12.477
28558W        W93818  27.490   1.897  13.778
28559W        W93819  36.397  43.803  13.318
28560W        W93820   0.283  36.384   1.654
28561W        W93821  26.729  10.175  14.972
28562W        W93822   9.805  22.311  12.410
28563W        W93823  29.417  24.765  12.502
28564W        W93824  16.540  18.336   3.642
28565W        W93825  14.754  21.222   1.189
28566W        W93826  27.175  26.506  14.353
28567W        W93827  17.309  34.501  13.632
28568W        W93828  36.928  12.291   4.520
28569W        W93829   4.374  37.391   5.017
28570W        W93830  32.797  11.432   1.190
28571W        W93831  12.079   5.687  13.934
28572W        W93832  13.151  37.290   5.090
28573W        W93833  19.539  21.797  12.979
28574W        W93834  33.651  23.304  11.650
28575W        W93835  40.494   6.817   4.673
28576W        W93836  18.859  36.794  13.412
28577W        W93837   1.449  40.105  13.051
28578W        W93838   0.399  25.503  12.595
28579W        W93839   2.331   0.270  13.478
28580W        W93840  33.418  32.826   3.801
28581W        W93841  42.409   2.179   1.913
28582W        W93842   5.798   9.906   0.258
28583W        W93843  20.151  36.219   0.856
28584W        W93844  17.676  33.032   1.811
28585W        W93845  12.948   8.722   2.875
28586W        W93846  27.219   6.080   2.383
28587W        W93847  23.221   7.462   4.662
28588W        W93848  17.707  22.168   2.334
28589W        W93849  35.069   9.476   1.675
28590W        W93850  37.422   1.381   3.652
28591W        W93851  38.487  23.376  12.122
28592W        W93852  44.414  39.237  14.876
28593W        W93853  42.771   4.753   0.908
28594W        W93854  31.459   2.578   4.635
28595W        W93855  13.371  22.292   1.227
28596W        W93856   0.109   6.390   0.305
28597W        W93857  32.319  15.099   1.267
28598W        W93858   5.403  35.193  14.565
28599W        W93859  44.484  28.032  13.040
28600W        W93860  41.943   2.509   2.901
28601W        W93861  22.296  38.043   4.172
28602W        W93862   1.851  27.481   1.351
28603W        W93863  32.072  18.152   3.624
28604W        W93864   5.614  33.535   1.431
28605W        W93865  36.155  34.980  11.652
28606W        W93866  16.818   9.719   4.826
28607W        W93867   8.060  23.672   2.615
28608W        W93868  40.994  26.050   1.231
28609W        W93869  12.099  32.688  13.474
28610W        W93870   1.805  12.580  12.946
28611W        W93871  40.708  35.938   0.396
28612W        W93872   6.234  40.810  14.513
28613W        W93873  20.179   3.538  12.174
28614W        W93874  16.123  26.040   2.103
28615W        W93875   4.795   2.058  12.071
28616W        W93876  31.820  28.648  10.126
28617W        W93877  12.131  11.086   0.482
28618W        W93878  33.430  17.514  11.444
28619W        W93879   3.283  34.798   1.797
28620W        W93880  15.626  24.771  12.014
28621W        W93881  28.018  34.896   2.777
28622W        W93882  32.351   1.861  10.725
28623W        W93883   1.707  12.659   1.080
28624W        W93884  36.849  39.191   0.758
28625W        W93885   3.227  23.641  13.817
28626W        W93886  23.771  18.632   0.256
28627W        W93887   0.304  28.075  11.962
28628W        W93888   9.239   5.145  10.637
28629W        W93889  30.855  36.350  13.831
28630W        W93890  23.101  37.547   2.156
28631W        W93891  41.926   5.779   0.463
28632W        W93892  11.754   4.678   2.340
28633W        W93893  29.601  25.026  12.899
28634W        W93894  26.385   6.570   2.018
28635W        W93895   5.890  22.854  12.615
28636W        W93896   4.196   7.820   3.632
28637W        W93897  23.955  23.581  14.526
28638W        W93898  39.106   2.495   3.972
28639W        W93899  11.231  27.671  14.721
28640W        W93900  27.066   6.135   9.936
28641W        W93901  21.517  26.621  12.929
28642W        W93902   5.325  18.740   4.513
28643W        W93903   7.677  34.697  12.066
28644W        W93904  25.948   5.806  14.799
28645W        W93905   2.452  15.179   4.214
28646W        W93906  20.983  21.496  12.451
28647W        W93907  23.991  13.710  13.292
28648W        W93908   6.740  11.047   1.803
28649W        W93909  33.964  23.003  12.623
28650W        W93910   8.445  20.324   1.140
28651W        W93911  11.716  22.003  12.021
28652W        W93912   3.982  20.239   1.869
28653W        W93913  21.706   6.484  13.498
28654W        W93914   8.729  39.502   2.682
28655W        W93915  14.655  41.228   4.268
28656W        W93916  23.150  32.127  13.769
28657W        W93917  44.123  22.053   1.515
28658W        W93918  30.172  21.236   3.352
28659W        W93919  15.434  34.104   0.838
28660W        W93920  24.608  41.282  11.521
28661W        W93921  13.799  43.061   5.052
28662W        W93922  37.766  30.926  12.142
28663W        W93923  26.846   0.249   1.426
28664W        W93924  23.145   7.247  11.562
28665W        W93925  38.316  43.028   2.401
28666W        W93926  40.854   0.920   1.775
28667W        W93927   7.711  40.632   0.909
28668W        W93928  14.942  15.554   2.901
28669W        W93929   6.234   5.201   2.458
28670W        W93930  40.445  31.036  11.101
28671W        W93931  23.991  21.298  11.995
28672W        W93932   7.026  15.685   4.099
28673W        W93933  12.098  29.610   0.943
28674W        W93934  16.868  42.032  13.524
28675W        W93935  43.270   9.346   1.922
28676W        W93936  10.200  21.687  13.651
28677W        W93937  42.035   6.742  13.980
28678W        W93938  37.397  19.122   1.264
28679W        W93939  27.851  31.735   4.251
28680W        W93940  24.676  15.657  14.387
28681W        W93941  42.445   7.001  11.154
28682W        W93942  23.127  18.701  14.554
28683W        W93943  11.320  40.367   0.871
28684W        W93944   8.682  29.676   0.053
28685W        W93945  30.648   2.161  10.694
28686W        W93946  40.144  35.056   0.722
28687W        W93947  39.625  27.968   1.519
28688W        W93948  25.851  40.255  12.399
28689W        W93949  14.791  28.860  11.016
28690W        W93950   5.268  30.900   3.836
28691W        W93951  30.596  43.487   3.875
28692W        W93952  25.066  30.455  14.782
28693W        W93953  15.904   4.540  12.471
28694W        W93954  20.499   1.549   2.836
28695W        W93955  12.765  32.296   4.044
28696W        W93956  18.372  12.903   0.150
28697W        W93957  12.864  17.214  13.575
28698W        W93958  33.092  39.376  12.460
28699W        W93959  20.029  22.396   1.844
28700W        W93960  17.899   2.780  13.913
28701W        W93961  19.623  39.934  14.972
28702W        W93962  32.159  11.392  14.394
28703W        W93963  42.864   3.838  11.028
28704W        W93964  43.901   0.802  13.279
28705W        W93965  24.915  31.403   1.841
28706W        W93966  42.732  16.442   2.252
28707W        W93967  27.572   8.286   3.807
28708W        W93968   9.729  11.610   1.295
28709W        W93969   9.734   3.014  14.908
28710W        W93970  34.821   5.066  10.223
28711W        W93971   6.901  18.575  14.528
28712W        W93972  12.978  10.298  10.652
28713W        W93973  28.774   1.404   4.138
28714W        W93974  17.157  22.016  12.406
28715W        W93975  20.097  32.553  13.758
28716W        W93976  18.034  10.865   1.351
28717W        W93977  29.104  35.074  11.920
28718W        W93978  13.160  36.999  12.861
28719W        W93979   2.464  28.694   0.790
28720W        W93980  20.868  23.608   3.371
28721W        W93981  25.034  16.827   2.095
28722W        W93982  43.515   0.250  12.428
28723W        W93983   3.758  10.320   3.382
28724W        W93984  31.101  18.269  12.437
28725W        W93985  44.389  11.281  11.172
28726W        W93986  44.832  20.398   4.537
28727W        W93987  14.862   5.070   3.238
28728W        W93988  42.963   8.677   0.211
28729W        W93989  18.511  39.517   0.009
28730W        W93990  20.495  22.734  14.917
28731W        W93991  37.880   7.683   4.645
28732W        W93992  32.115  14.083  12.350
28733W        W93993  27.958  34.013  10.315
28734W        W93994  22.862   2.527   3.651
28735W        W93995  17.097   1.965  13.316
28736W        W93996   5.005  12.705  13.558
28737W        W93997   1.228  32.353   1.306
28738W        W93998  33.694  29.232  13.061
28739W        W93999  24.517   5.019   3.082
28740W        W94000  34.449  31.517  12.183
28741W        W94001  21.896   9.305  12.813
28742W        W94002  21.792  28.239   1.374
28743W        W94003  35.817  29.530  12.889
28744W        W94004   5.397   2.976  10.610
28745W        W94005  10.419  23.658  13.080
28746W        W94006  15.348  27.532  14.807
28747W        W94007   2.519  41.438  14.692
28748W        W94008  15.275  25.332  11.526
28749W        W94009  37.520  13.017  13.541
28750W        W94010  18.891  11.204  14.995
28751W        W94011  23.999  10.237   4.069
28752W        W94012   8.932  16.167   4.117
28753W        W94013  29.653   2.447  13.855
28754W        W94014  35.080  28.421   4.525
28755W        W94015  34.432  36.154   3.650
28756W        W94016   3.835   1.744  12.942
28757W        W94017  29.781  34.527  12.678
28758W        W94018   5.442  39.934   4.995
28759W        W94019  17.574  25.963   3.185
28760W        W94020   4.454  11.044  13.864
28761W        W94021   8.648  28.091   0.483
28762W        W94022  39.099   2.488  13.028
28763W        W94023  22.651  25.165  14.840
28764W        W94024  14.576  35.321  14.309
28765W        W94025  13.674  28.046  14.959
28766W        W94026  43.999  18.143   2.859
28767W        W94027   0.291  44.413   0.283
28768W        W94028   5.706  42.948   2.619
28769W        W94029  32.939  17.323  11.471
28770W        W94030   9.372  20.676   4.678
28771W        W94031  37.367  44.161   4.099
28772W        W94032  29.187  42.476  11.763
28773W        W94033  42.797   7.461  11.610
28774W        W94034  29.227  15.168  11.499
28775W        W94035  20.633  10.419   4.726
28776W        W94036   5.415  34.177  14.477
28777W        W94037  24.604  29.615   0.322
28778W        W94038  23.955  18.720  13.876
28779W        W94039  20.027   8.026   2.019
28780W        W94040   6.224  44.516  14.372
28781W        W94041  24.951  36.520   0.269
28782W        W94042  37.807   1.653   0.349
28783W        W94043  18.486  36.060   4.059
28784W        W94044  31.065  32.884   1.742
28785W        W94045  33.942  41.506   1.198
28786W        W94046  43.981   0.354  14.454
28787W        W94047   2.183   2.774   1.360
28788W        W94048  23.732  27.065   1.238
28789W        W94049  29.652  21.988  11.201
28790W        W94050   4.177  38.346  14.485
28791W        W94051  15.334  32.412  12.432
28792W        W94052  13.671  43.081  12.477
28793W        W94053   3.920  28.563   2.450
28794W        W94054   9.706   9.504  13.959
28795W        W94055   8.668  37.606  13.393
28796W        W94056  10.358  25.572   0.782
28797W        W94057  37.909  21.808   0.737
28798W        W94058  26.200   2.914  11.624
28799W        W94059  20.525  17.801  13.417
28800W        W94060  31.384  35.468   2.750
28801W        W94061  19.470   7.239   1.831
28802W        W94062  27.913  27.643   0.239
28803W        W94063   2.891  21.005   1.687
28804W        W94064  13.375   2.517  13.047
28805W        W94065  37.540  16.416   0.961
28806W        W94066  31.185  38.099  14.427
28807W        W94067  17.605   8.836   3.567
28808W        W94068  29.147  18.333   1.209
28809W        W94069  43.128   3.397  10.319
28810W        W94070  30.354   6.197  13.369
28811W        W94071  24.995  10.270   3.937
28812W        W94072  16.267  28.047  12.689
28813W        W94073   0.238  24.556   2.263
28814W        W94074  10.989  43.488   2.200
28815W        W94075  28.046  16.556   1.743
28816W        W94076  18.359   6.959   0.743
28817W        W94077  38.970   4.768   0.464
28818W        W94078  25.508  42.452  14.775
28819W        W94079   1.512   8.715  12.032
28820W        W94080  28.121  16.313  10.638
28821W        W94081  34.341  24.555  14.421
28822W        W94082  13.355   5.819  13.973
28823W        W94083  14.367  42.879   2.737
28824W        W94084  32.463  14.383   0.827
28825W        W94085   2.938  28.909   3.705
28826W        W94086  43.939   5.035  13.761
28827W        W94087  13.241  21.301   1.329
28828W        W94088  27.985  44.797   3.214
28829W        W94089  31.047  23.034  13.626
28830W        W94090  11.356  37.288  13.474
28831W        W94091  11.778   6.753   2.472
28832W        W94092  34.415  30.428  13.534
28833W        W94093  32.776  29.156   2.760
28834W        W94094  24.508  14.611  14.895
28835W        W94095  28.660  34.823   4.632
28836W        W94096  22.151   0.935  13.600
28837W        W94097  19.547  14.374  10.765
28838W        W94098  11.198  33.875  10.905
28839W        W94099  13.160  15.727   4.081
28840W        W94100  44.334  15.519   3.268
28841W        W94101  14.583  21.677   3.742
28842W        W94102  41.516  38.840   3.520
28843W        W94103  36.536  31.479   2.729
28844W        W94104  20.701  44.057   0.503
28845W        W94105  26.184  40.038  13.280
28846W        W94106  33.561  27.118   1.134
28847W        W94107   7.245  27.208   3.796
28848W        W94108  13.652  27.979   3.824
28849W        W94109  38.159  40.414  13.953
28850W        W94110   9.564   8.004  10.099
28851W        W94111  14.350   7.556   9.603
28852W        W94112  24.072  24.996  12.867
28853W        W94113   1.505  41.515   4.676
28854W        W94114  40.253  36.615  11.774
28855W        W94115   7.477  26.561   5.317
28856W        W94116  12.389  18.126  10.523
28857W        W94117  29.325  11.792   5.006
28858W        W94118  20.819   8.859  11.137
28859W        W94119  16.545  10.650   3.735
28860W        W94120  42.300  39.365  11.874
28861W        W94121  29.592   3.840   4.833
28862W        W94122   6.310  25.161  13.824
28863W        W94123   6.135  15.591   2.932
28864W        W94124  11.196  23.057  13.776
28865W        W94125  22.653  30.432   0.343
28866W        W94126   8.929  40.006   1.796
28867W        W94127   7.943   8.910  14.460
28868W        W94128   7.695   3.403  13.787
28869W        W94129  42.909  33.735   3.808
28870W        W94130  29.189  26.110  12.465
28871W        W94131  24.962  27.609  13.785
28872W        W94132   1.765   1.326   0.605
28873W        W94133   5.836   2.760  14.063
28874W        W94134  11.201  29.471   4.031
28875W        W94135  34.457  44.042   4.759
28876W        W94136  43.352   6.807   0.205
28877W        W94137  37.762   9.684  10.235
28878W        W94138  11.328  16.731  12.852
28879W        W94139   4.929  15.340  12.051
28880W        W94140  15.538  30.903  13.519
28881W        W94141   4.196  38.537  12.436
28882W        W94142   8.866  15.617  14.735
28883W        W94143   9.618   5.047  13.960
28884W        W94144  27.816  29.351   3.639
28885W        W94145  40.061  31.264   3.408
28886W        W94146  42.348   6.432   3.100
28887W        W94147  33.333   5.172  12.598
28888W        W94148   3.771  12.746   1.244
28889W        W94149  21.251   4.221   3.573
28890W        W94150  17.822   6.843   1.440
28891W        W94151  33.020   0.233  12.537
28892W        W94152  21.281  12.041   1.780
28893W        W94153  11.266  22.626   2.252
28894W        W94154  13.377  17.244  13.501
28895W        W94155   4.784  20.810   1.638
28896W        W94156  39.738   6.211   3.813
28897W        W94157   2.422  26.837   5.248
28898W        W94158  17.716   6.000   4.233
28899W        W94159  19.806   0.864   2.676
28900W        W94160  39.324   8.954   9.911
28901W        W94161   6.676  38.445   2.312
28902W        W94162  29.155  21.997  12.892
28903W        W94163   9.862   2.485  14.847
28904W        W94164  15.064  32.938  11.618
28905W        W94165  33.528  16.980   1.089
28906W        W94166  34.828  34.376   4.542
28907W        W94167  22.892   1.674   1.662
28908W        W94168   1.495  11.010   3.668
28909W        W94169  12.958   5.794  11.888
28910W        W94170  20.547  26.487   3.572
28911W        W94171  31.214  24.193   3.102
28912W        W94172  18.544  32.729  14.863
28913W        W94173  36.794  30.634  12.158
28914W        W94174  14.363  43.074   3.254
28915W        W94175  15.130  33.959  10.459
28916W        W94176  19.314  43.406   3.125
28917W        W94177  30.470  21.585   1.359
28918W        W94178  27.154   2.917  10.452
28919W        W94179  42.547  25.800   2.653
28920W        W94180  11.736   9.833  12.939
28921W        W94181   8.837  28.886   2.234
28922W        W94182   6.285  44.712  12.960
28923W        W94183  38.271  26.098   4.088
28924W        W94184  33.454  30.947   0.982
28925W        W94185  23.266  25.616   4.136
28926W        W94186  37.731  38.806   2.285
28927W        W94187  18.529  23.283  10.629
28928W        W94188  42.020  43.514   1.751
28929W        W94189  32.424   5.365  13.898
28930W        W94190  12.655  32.521   4.505
28931W        W94191  22.191   2.599   1.220
28932W        W94192   7.977  10.806  13.930
28933W        W94193  14.440  41.735   0.477
28934W        W94194  12.649  28.994   2.713
28935W        W94195  32.153  44.289   4.221
28936W        W94196  25.103   4.065  12.475
28937W        W94197  23.733  17.506   1.379
28938W        W94198  40.576  12.740   3.212
28939W        W94199  25.015  20.714   4.107
28940W        W94200  33.840  12.720   1.018
28941W        W94201  27.638   8.361  13.914
28942W        W94202  30.630  32.416   3.322
28943W        W94203  28.992   5.176  10.503
28944W        W94204  32.441  21.080   2.716
28945W        W94205  26.263  18.241  12.941
28946W        W94206  29.425  25.038  12.036
28947W        W94207  33.664  22.570  10.341
28948W        W94208  22.815  22.765   4.205
28949W        W94209  38.820  38.976   0.759
28950W        W94210  34.066   0.549   1.839
28951W        W94211  36.559   4.600   2.690
28952W        W94212   5.900  25.536   2.655
28953W        W94213  16.325   0.276   0.225
28954W        W94214  43.908  22.602  13.780
28955W        W94215   5.751  23.929   2.936
28956W        W94216  31.080  39.330   3.921
28957W        W94217  40.003  41.032   4.134
28958W        W94218   9.407  12.056   2.346
28959W        W94219   7.418  33.544  13.379
28960W        W94220  22.036   7.384  12.410
28961W        W94221  13.355   2.952  11.339
28962W        W94222  40.946  31.600  14.189
28963W        W94223  26.281  41.561  13.382
28964W        W94224  28.198   0.323   4.108
28965W        W94225  21.034   8.179  13.641
28966W        W94226   3.892  35.831  13.834
28967W        W94227  42.801  42.257  11.644
28968W        W94228   5.751  21.769  12.463
28969W        W94229  24.409  17.355   3.656
28970W        W94230  37.139  44.358   2.819
28971W        W94231  16.761  34.557   0.389
28972W        W94232  27.139  41.342  10.376
28973W        W94233  20.012   5.054   5.059
28974W        W94234  11.454  26.589  12.128
28975W        W94235  37.942   6.697   2.140
28976W        W94236  29.502   2.395   3.677
28977W        W94237  28.961  13.276   0.438
28978W        W94238   3.863  43.214  13.541
28979W        W94239  36.890  14.664  12.529
28980W        W94240  39.859  37.800   3.788
28981W        W94241  24.079  28.200   0.686
28982W        W94242  26.105  32.187   2.889
28983W        W94243  24.498  27.486   3.296
28984W        W94244  19.943  12.670  10.658
28985W        W94245  28.441  43.733   3.746
28986W        W94246  18.953  10.574  10.217
28987W        W94247  12.203   2.205  13.625
28988W        W94248  44.113   0.891  12.407
28989W        W94249  26.846   6.625   0.214
28990W        W94250  19.468  37.778  11.023
28991W        W94251  18.210  37.532  11.501
28992W        W94252  15.395  43.739   1.325
28993W        W94253  39.002  17.019  11.122
28994W        W94254  17.549  12.721   0.326
28995W        W94255  19.794  11.342   4.933
28996W        W94256   8.308  22.815   1.209
28997W        W94257  12.940   9.573  11.485
28998W        W94258  27.352  20.114   3.717
28999W        W94259  35.335  17.212  13.527
29000W        W94260  43.152   2.932  11.086
29001W        W94261   9.388   6.846   4.946
29002W        W94262  14.861  35.300   1.101
29003W        W94263  31.053   7.192  11.914
29004W        W94264   6.408  24.369   3.275
29005W        W94265  20.640  39.675   0.856
29006W        W94266  20.532  36.668  12.965
29007W        W94267  20.463  13.842   0.797
29008W        W94268  11.753  18.079  14.505
29009W        W94269   5.356  38.463   4.483
29010W        W94270  26.557  31.901   2.731
29011W        W94271  41.022  31.461  11.201
29012W        W94272   2.980  11.582   1.355
29013W        W94273  40.748  10.064   2.743
29014W        W94274   1.315  39.356   2.396
29015W        W94275   8.795   2.959   4.355
29016W        W94276   3.885  44.791  12.022
29017W        W94277  14.771  16.111  13.897
29018W        W94278  30.658  36.004   4.699
29019W        W94279  33.060  43.084   4.393
29020W        W94280  11.748  36.681   1.838
29021W        W94281  23.624   4.403  13.563
29022W        W94282  37.017  11.959   1.265
29023W        W94283  43.900  22.715   3.151
29024W        W94284  17.342  25.288  10.590
29025W        W94285  36.221  14.935   5.103
29026W        W94286   6.209  36.500   4.520
29027W        W94287  10.374   8.745   0.093
29028W        W94288  23.700  12.156   1.901
29029W        W94289  27.631  34.212   4.511
29030W        W94290   3.008  15.195  12.671
29031W        W94291  36.577  32.995  13.582
29032W        W94292  34.998  34.920   0.885
29033W        W94293  35.698   6.338  14.578
29034W        W94294   8.282  23.960  10.273
29035W        W94295  34.224  35.478   0.202
29036W        W94296   2.741   2.499  13.387
29037W        W94297  32.342  14.169   1.287
29038W        W94298  18.672  35.934  10.705
29039W        W94299  25.382  23.123   3.822
29040W        W94300  23.928  34.848   0.101
29041W        W94301  17.010  39.985   4.538
29042W        W94302  40.408   3.798   3.173
29043W        W94303   4.694  43.283  13.843
29044W        W94304   0.337  34.086   4.551
29045W        W94305  24.514  34.389   1.031
29046W        W94306  44.703  21.686  12.177
29047W        W94307   6.853  41.037   3.357
29048W        W94308  33.188   9.551   2.392
29049W        W94309   1.364  32.520  10.641
29050W        W94310  15.533  18.079  10.922
29051W        W94311  38.327   2.073   0.213
29052W        W94312   5.157  11.154   4.135
29053W        W94313   1.479  20.290  11.394
29054W        W94314  35.917   9.253   2.118
29055W        W94315  40.595  13.108   4.549
29056W        W94316  30.704  26.667  13.434
29057W        W94317  23.575   2.808  13.854
29058W        W94318   5.472  11.518  14.679
29059W        W94319  33.102  22.669   3.716
29060W        W94320  12.392  15.791  12.500
29061W        W94321  43.257  19.315   3.301
29062W        W94322   6.767  34.985  11.657
29063W        W94323  37.134  19.556   2.303
29064W        W94324  20.247  34.935  13.878
29065W        W94325   8.198  15.464   1.935
29066W        W94326  14.147  24.033  10.484
29067W        W94327  41.050  10.589   4.163
29068W        W94328  21.383  16.449   9.852
29069W        W94329  32.511  35.872  14.464
29070W        W94330  41.896   8.086  13.822
29071W        W94331  34.044  22.770  12.021
29072W        W94332  38.611  12.397   2.834
29073W        W94333  11.280  33.995  13.630
29074W        W94334  19.690  43.438   0.792
29075W        W94335   3.220   1.071  12.808
29076W        W94336  27.445  27.547   0.532
29077W        W94337   6.918   3.296   1.465
29078W        W94338  25.441  12.647  14.279
29079W        W94339   4.608   7.664   3.243
29080W        W94340  44.387   8.205  13.044
29081W        W94341  43.839  27.380   3.299
29082W        W94342  40.401  26.887   0.898
29083W        W94343  42.968   6.009   1.031
29084W        W94344  32.824  33.024   2.740
29085W        W94345  41.458  32.511  12.491
29086W        W94346  36.501  30.983  12.458
29087W        W94347  27.164  26.231   2.731
29088W        W94348   3.871  33.900   3.273
29089W        W94349   5.293  42.264  11.332
29090W        W94350  40.031  29.388  14.457
29091W        W94351   3.485  22.721   0.762
29092W        W94352  35.146  22.579   3.565
29093W        W94353  38.297   5.583  12.428
29094W        W94354  28.209  34.600  12.935
29095W        W94355  13.281  33.048  11.105
29096W        W94356  25.807  17.117  10.764
29097W        W94357  31.088  18.597   2.587
29098W        W94358  26.686   7.704  11.052
29099W        W94359   7.471  44.419   1.345
29100W        W94360  41.852  38.271   4.233
29101W        W94361  44.932  36.434   2.412
29102W        W94362  32.706  15.750  10.237
29103W        W94363  10.259  21.716  11.889
29104W        W94364   0.051   3.256   5.029
29105W        W94365  36.566  11.585   3.938
29106W        W94366  11.453   4.445  14.816
29107W        W94367  25.460   4.049   0.350
29108W        W94368   7.093  31.263  14.983
29109W        W94369  36.376  31.959  10.627
29110W        W94370  26.065   2.660   4.095
29111W        W94371  36.369  16.847   4.693
29112W        W94372  26.099  30.934   4.215
29113W        W94373  21.280  43.980   0.927
29114W        W94374  32.843  40.441  14.311
29115W        W94375  27.486   0.425  13.494
29116W        W94376  33.302  29.580  13.008
29117W        W94377  23.412  26.465   1.840
29118W        W94378  41.395   0.521   3.221
29119W        W94379  34.060  42.906   3.484
29120W        W94380   5.791  44.916  10.411
29121W        W94381  42.853  38.297  12.476
29122W        W94382  27.732  24.968   4.890
29123W        W94383   1.244  29.820  14.440
29124W        W94384  43.481  38.561   2.480
29125W        W94385   0.795  12.928  13.288
29126W        W94386  21.438  38.633  11.994
29127W        W94387  19.515  38.486   3.637
29128W        W94388  17.786  40.902  14.466
29129W        W94389   1.265   7.295  10.687
29130W        W94390  44.624  24.229   0.230
29131W        W94391  16.095  35.168  13.816
29132W        W94392   3.821   0.681   3.605
29133W        W94393  22.625  34.350   0.353
29134W        W94394   5.704  33.874  10.771
29135W        W94395  21.702   3.860  11.183
29136W        W94396   4.409  20.212   3.675
29137W        W94397  20.375  15.391  13.460
29138W        W94398  43.209  22.317  14.001
29139W        W94399  40.437   4.963  14.931
29140W        W94400   9.184  19.142   1.372
29141W        W94401   9.284  42.483  11.918
29142W        W94402  21.681  25.824  14.502
29143W        W94403   6.248  19.650   0.752
29144W        W94404   4.719  32.810   3.692
29145W        W94405  30.993  30.448   2.227
29146W        W94406  24.667   7.932  12.406
29147W        W94407   7.451  17.705   4.338
29148W        W94408  20.227  34.099  12.720
29149W        W94409  41.737  25.498  11.605
29150W        W94410  24.626  30.066   2.268
29151W        W94411   7.330  28.240   4.688
29152W        W94412   9.343   7.395  14.508
29153W        W94413  39.517   2.357  13.303
29154W        W94414  15.724  37.800  14.450
29155W        W94415   8.369  36.947   2.278
29156W        W94416  14.458  43.201  11.180
29157W        W94417  19.958  12.091   4.750
29158W        W94418   3.685  42.446   0.566
29159W        W94419  37.134  12.649  13.352
29160W        W94420  34.171  15.306   0.968
29161W        W94421  38.761  17.829  10.670
29162W        W94422  30.105  15.716   3.273
29163W        W94423  21.246  30.347  12.498
29164W        W94424  15.132  28.619   4.937
29165W        W94425  32.633  40.863  13.080
29166W        W94426   7.003  21.007  12.470
29167W        W94427   0.461   3.506  11.019
29168W        W94428  34.587  11.114   3.206
29169W        W94429  10.093  31.997  11.117
29170W        W94430  39.802   4.956   4.248
29171W        W94431   7.625  42.944  13.608
29172W        W94432  11.662   9.339  12.450
29173W        W94433  28.169  34.575   0.413
29174W        W94434  44.767  35.645   1.260
29175W        W94435  23.944   3.671  12.029
29176W        W94436  44.850  18.978  12.321
29177W        W94437  29.464  12.860  12.924
29178W        W94438  40.076  30.315   0.789
29179W        W94439  20.341  12.260  10.515
29180W        W94440  24.567  12.596  11.922
29181W        W94441  16.640  32.838  11.583
29182W        W94442  16.518  10.749   4.584
29183W        W94443   4.689  18.645   2.770
29184W        W94444  43.735  27.234   0.845
29185W        W94445  29.393  23.936   2.215
29186W        W94446  13.419  18.722   0.901
29187W        W94447  15.907   9.223   4.559
29188W        W94448  20.993  13.119   4.277
29189W        W94449  34.922   5.921   2.645
29190W        W94450  31.420  42.588  11.396
29191W        W94451  33.313  40.949  10.899
29192W        W94452  29.625  11.674   0.772
29193W        W94453  12.329  22.693   3.296
29194W        W94454  19.041  28.418   3.265
29195W        W94455  13.671  43.349   2.863
29196W        W94456   2.633  18.301   5.084
29197W        W94457  10.938   7.377   1.743
29198W        W94458  12.068  19.536   3.690
29199W        W94459   2.204  40.707  11.440
29200W        W94460   2.966  11.581   0.293
29201W        W94461  23.269   8.450   2.446
29202W        W94462  11.676   2.396   1.837
29203W        W94463   5.209   1.653   2.254
29204W        W94464  16.238  17.467   5.199
29205W        W94465  23.244  19.151  14.299
29206W        W94466  25.739  13.365  13.355
29207W        W94467  15.229   7.492  14.942
29208W        W94468  21.706   4.579  12.718
29209W        W94469  24.219   2.761   1.565
29210W        W94470  24.896  42.216   2.194
29211W        W94471  41.298  30.643  12.034
29212W        W94472   4.464  32.967   1.151
29213W        W94473  32.054  12.751   4.513
29214W        W94474  29.686   0.588  12.104
29215W        W94475  29.039  32.877  10.639
29216W        W94476  20.292   2.450  12.881
29217W        W94477  31.969  12.262  11.107
29218W        W94478  37.968  18.814   1.948
29219W        W94479  33.943  19.013   2.136
29220W        W94480  28.178   6.577  12.925
29221W        W94481   5.170  20.473  10.377
29222W        W94482  33.395  31.451   4.160
29223W        W94483   2.342   0.096   0.384
29224W        W94484   6.131  30.218  14.467
29225W        W94485  28.474  10.570  13.317
29226W        W94486  11.350  15.176   4.215
29227W        W94487  39.311  12.131   4.169
29228W        W94488   5.739  24.442  12.047
29229W        W94489   1.168   3.943   4.457
29230W        W94490  11.669  12.799  11.999
29231W        W94491  32.017  22.441   1.946
29232W        W94492  28.120   2.859   9.689
29233W        W94493  12.047  13.187   4.798
29234W        W94494  40.407  18.872  13.782
29235W        W94495  19.893  33.884  12.377
29236W        W94496  34.051  31.569   0.550
29237W        W94497  10.592  35.337   2.171
29238W        W94498  13.700   1.405   1.139
29239W        W94499  36.575  44.310  11.616
29240W        W94500  37.879  44.908  11.687
29241W        W94501  17.101  19.855   1.587
29242W        W94502  24.394  16.043   5.411
29243W        W94503  25.539  20.669   0.783
29244W        W94504  38.607   7.394   0.744
29245W        W94505  12.128   0.339   4.032
29246W        W94506   8.079   4.436   2.737
29247W        W94507   8.510  23.362  11.048
29248W        W94508  37.947  37.269   2.619
29249W        W94509  28.723   9.735  12.747
29250W        W94510  39.981  11.222   3.717
29251W        W94511  38.362  14.727   2.584
29252W        W94512   2.766  10.921  12.506
29253W        W94513  41.304  11.908   0.925
29254W        W94514  29.959   7.229   2.659
29255W        W94515  30.383  44.966  12.593
29256W        W94516   7.127   4.756   2.666
29257W        W94517  41.953  24.097  14.646
29258W        W94518  40.602   7.194  14.814
29259W        W94519   6.363  38.380   1.902
29260W        W94520  28.785   6.368   1.205
29261W        W94521   2.851  44.692  14.758
29262W        W94522  28.649  37.831   2.233
29263W        W94523  42.190  30.758  11.576
29264W        W94524  16.992  29.480  13.935
29265W        W94525  11.732   9.311   4.484
29266W        W94526  41.897  37.837  13.426
29267W        W94527   2.715  13.877   2.736
29268W        W94528   9.934  21.041   3.890
29269W        W94529  34.724  22.916  13.437
29270W        W94530  12.598   9.289   2.383
29271W        W94531  28.904  34.490  13.577
29272W        W94532   5.063   8.881  11.716
29273W        W94533   8.938  44.000  10.745
29274W        W94534   3.152  24.404   1.497
29275W        W94535  42.959  25.510   0.064
29276W        W94536  15.432  14.273  11.870
29277W        W94537   3.702  12.112   0.030
29278W        W94538  41.334   2.418  10.475
29279W        W94539  15.207  19.506   3.391
29280W        W94540  41.894  31.138  11.346
29281W        W94541  26.900  34.683  13.377
29282W        W94542  19.724  10.249  14.049
29283W        W94543  16.372  16.390   0.837
29284W        W94544  35.880  36.983   2.223
29285W        W94545  40.460  19.014  11.658
29286W        W94546  27.570  22.081  11.122
29287W        W94547  24.667   5.244  12.253
29288W        W94548  29.009  28.214  12.046
29289W        W94549  10.715  24.725   0.502
29290W        W94550  14.170  27.852  10.772
29291W        W94551  26.113  23.564  12.592
29292W        W94552  41.931  25.924   3.720
29293W        W94553  36.869  34.846   3.882
29294W        W94554  40.934   8.164   3.628
29295W        W94555  27.367   0.920  13.373
29296W        W94556  34.573  26.784   4.143
29297W        W94557  31.557   2.194   2.941
29298W        W94558  13.013   6.063  10.869
29299W        W94559  37.706  27.185   3.556
29300W        W94560  14.054  43.984   3.237
29301W        W94561  11.696  40.171  11.506
29302W        W94562  23.358  17.782  13.082
29303W        W94563  41.058  16.096   2.114
29304W        W94564   3.772   2.841  12.639
29305W        W94565  24.480  38.515  12.595
29306W        W94566  39.289  40.780  12.066
29307W        W94567  22.233   4.508  13.379
29308W        W94568  15.590  35.181   1.919
29309W        W94569  28.013  14.201   1.218
29310W        W94570  10.162  33.579  12.112
29311W        W94571  15.626   2.169  13.837
29312W        W94572  22.875   2.984  11.639
29313W        W94573  33.851   8.066   0.975
29314W        W94574  28.810  25.234   0.295
29315W        W94575  40.033  14.490   2.558
29316W        W94576  32.858   7.204   0.319
29317W        W94577   7.869  30.015  14.672
29318W        W94578  13.465  12.994  11.185
29319W        W94579  37.123   8.935  11.269
29320W        W94580  43.814  18.049  14.054
29321W        W94581  30.602  25.086  14.767
29322W        W94582  36.795  11.038  11.159
29323W        W94583  13.427  14.751  11.577
29324W        W94584  42.723  24.358   0.797
29325W        W94585  31.573  42.556   0.758
29326W        W94586  44.314  44.237   4.221
29327W        W94587  35.383  36.997   3.213
29328W        W94588   1.796   3.147   4.200
29329W        W94589  28.877  41.478   4.035
29330W        W94590  11.897  13.278  11.891
29331W        W94591   4.188  36.971   2.163
29332W        W94592  33.018  35.457   4.170
29333W        W94593  37.547  37.860   5.008
29334W        W94594  28.410  14.352   4.936
29335W        W94595  18.446  33.332  12.430
29336W        W94596  31.042  25.117   0.571
29337W        W94597  38.116  43.358  10.162
29338W        W94598  16.234   9.872   3.107
29339W        W94599  23.212  36.085  11.185
29340W        W94600  37.893   0.952   2.960
29341W        W94601   9.246  14.176  12.100
29342W        W94602  29.993   4.149   1.766
29343W        W94603   0.999  22.459   0.819
29344W        W94604  25.848   7.748  11.468
29345W        W94605  30.114   3.996   3.099
29346W        W94606   7.697   4.641  12.880
29347W        W94607  37.031  33.366  11.678
29348W        W94608  26.794  38.089   4.592
29349W        W94609  18.652  20.940   2.306
29350W        W94610  39.872  40.081  10.737
29351W        W94611  26.115  20.468  13.464
29352W        W94612  42.977  36.337  14.045
29353W        W94613   8.154  13.788   2.450
29354W        W94614  14.212  18.993  12.056
29355W        W94615  11.313  10.304   1.846
29356W        W94616  12.446  44.729   4.301
29357W        W94617  22.947   3.573   5.455
29358W        W94618  33.475   8.639   3.820
29359W        W94619  23.745  11.115   2.169
29360W        W94620  15.518  21.238   2.968
29361W        W94621  35.514   6.566  10.630
29362W        W94622  43.048  31.967  10.862
29363W        W94623  38.141  37.049  12.114
29364W        W94624  26.017   0.371   4.096
29365W        W94625  19.560  19.276   1.093
29366W        W94626  21.558   3.396   0.329
29367W        W94627  11.711  17.701  12.139
29368W        W94628  24.831   1.764   0.816
29369W        W94629  11.870  28.988  14.891
29370W        W94630   2.390  36.203  11.890
29371W        W94631  28.858  22.497   3.671
29372W        W94632  32.476  22.067   1.376
29373W        W94633  26.613  21.269  13.914
29374W        W94634  16.223   4.951  14.534
29375W        W94635   2.793  15.893   3.090
29376W        W94636  15.622  22.609  13.330
29377W        W94637   1.284  36.273  10.521
29378W        W94638  26.965  36.820   2.592
29379W        W94639  17.532  22.595   0.029
29380W        W94640  29.421  35.037   1.253
29381W        W94641  14.232  29.871  10.687
29382W        W94642   2.302  10.673  13.857
29383W        W94643  19.161   3.063  10.703
29384W        W94644  19.097  41.047  12.081
29385W        W94645   2.417   7.917  13.246
29386W        W94646  30.086   2.018   4.878
29387W        W94647   7.340   5.906  12.124
29388W        W94648   7.200  27.798  10.695
29389W        W94649   3.513   6.129   2.819
29390W        W94650   4.505  39.570  13.844
29391W        W94651  24.613  25.030  13.605
29392W        W94652  41.903   1.396  13.293
29393W        W94653  37.498  23.226   2.868
29394W        W94654  32.955  24.012  11.447
29395W        W94655   9.352  28.435  10.752
29396W        W94656   4.780  43.223   0.358
29397W        W94657  43.242  28.741   2.164
29398W        W94658  43.400  17.341  11.193
29399W        W94659  27.448   6.766   2.753
29400W        W94660  24.157  41.103  11.714
29401W        W94661  10.651   1.778  12.470
29402W        W94662  10.269  22.526   5.087
29403W        W94663  15.203  17.137  14.385
29404W        W94664  13.397  10.316   3.895
29405W        W94665  41.888  33.753  12.359
29406W        W94666   9.595  21.052   3.051
29407W        W94667  15.659  20.882   4.156
29408W        W94668  31.425  22.746  10.651
29409W        W94669  12.580   0.190  11.678
29410W        W94670  15.545   3.857   0.562
29411W        W94671  25.651  11.713  12.907
29412W        W94672   1.237   7.218  13.570
29413W        W94673  36.502   3.900  12.885
29414W        W94674   7.064  19.334  11.542
29415W        W94675   5.645  29.951  14.379
29416W        W94676   9.435   4.023   0.745
29417W        W94677  39.517  28.052  14.519
29418W        W94678  41.452  39.049  14.831
29419W        W94679  32.354  33.931  14.737
29420W        W94680   2.706  40.600  13.536
29421W        W94681  14.759  24.890   1.417
29422W        W94682  30.720  17.236   1.237
29423W        W94683  34.629  32.670  12.463
29424W        W94684   6.833   4.813  12.073
29425W        W94685  39.729  19.318  13.389
29426W        W94686   6.963  18.874  11.094
29427W        W94687  31.980  31.484  10.735
29428W        W94688   3.728  17.165  11.146
29429W        W94689   5.727  34.663  12.260
29430W        W94690  31.906  12.699   2.280
29431W        W94691  39.744   0.813   0.846
29432W        W94692  24.068  34.375  12.838
29433W        W94693   8.406  30.404   4.217
29434W        W94694  30.036  13.447  12.631
29435W        W94695  22.979  15.078   2.676
29436W        W94696  17.756  42.327   4.239
29437W        W94697   5.649  33.566  12.875
29438W        W94698  18.181   5.870   3.293
29439W        W94699   8.198  20.639   0.285
29440W        W94700  38.131  25.763   3.639
29441W        W94701  38.493   9.693   2.297
29442W        W94702  20.680  18.661  13.917
29443W        W94703  13.191  25.457  14.487
29444W        W94704   9.131  13.546   2.365
29445W        W94705   8.324  35.807   4.208
29446W        W94706   3.452   8.848   2.733
29447W        W94707  41.972  23.034   1.739
29448W        W94708  13.126  14.680  11.138
29449W        W94709   2.073  42.480  10.797
29450W        W94710  24.828  42.980   4.157
29451W        W94711  33.485  43.313  10.601
29452W        W94712  16.393  34.282  10.722
29453W        W94713  40.818  23.152   2.255
29454W        W94714  23.602  36.532  12.555
29455W        W94715   2.379  20.684   5.253
29456W        W94716  13.711  20.754   0.817
29457W        W94717  40.075   8.738  12.912
29458W        W94718  43.826  34.039  10.635
29459W        W94719  44.308  34.428   3.230
29460W        W94720  15.790  17.224  11.428
29461W        W94721  17.527  15.710  12.558
29462W        W94722  35.120  20.114   4.353
29463W        W94723  41.668  13.188   0.876
29464W        W94724  37.360  39.866   0.768
29465W        W94725  27.187  10.757  11.166
29466W        W94726   7.966   4.453  12.473
29467W        W94727  34.210  37.650   0.389
29468W        W94728  18.334  23.480   4.211
29469W        W94729  32.483  27.710   0.782
29470W        W94730  38.789  44.379  13.358
29471W        W94731  12.923  26.248   1.755
29472W        W94732   7.922  43.807   3.732
29473W        W94733  40.988  24.784  14.456
29474W        W94734  40.051  33.412  13.004
29475W        W94735  43.039  25.691   0.889
29476W        W94736  26.549  26.379   3.436
29477W        W94737  43.507  19.628   0.017
29478W        W94738  40.291   8.651  13.384
29479W        W94739   3.916   2.975   2.294
29480W        W94740  16.141  31.957  13.830
29481W        W94741  18.701  26.915  12.169
29482W        W94742  26.728  40.413   0.505
29483W        W94743  15.771  14.082  12.922
29484W        W94744  22.079   4.681  14.972
29485W        W94745  16.380   8.760   1.272
29486W        W94746   5.042   4.687   0.682
29487W        W94747  13.348  19.996   1.786
29488W        W94748  10.929  14.595   1.091
29489W        W94749  14.559  16.209   2.582
29490W        W94750  39.461  12.333  12.973
29491W        W94751  37.968   9.067   3.991
29492W        W94752  14.168  36.428   2.870
29493W        W94753  29.860  33.138  13.957
29494W        W94754  28.888  30.736  11.424
29495W        W94755   0.958  21.495  11.674
29496W        W94756   6.195  42.350   3.218
29497W        W94757  28.766   1.684   1.315
29498W        W94758  33.538  44.738  14.281
29499W        W94759  25.644  17.679  11.974
29500W        W94760   6.435   4.493  11.931
29501W        W94761  31.386   4.964  11.066
29502W        W94762   3.326   9.418   4.169
29503W        W94763  24.513  22.934   4.638
29504W        W94764   5.842   4.287   4.355
29505W        W94765  29.249  38.640   2.352
29506W        W94766  37.273  37.342  14.736
29507W        W94767  14.372  19.218   1.756
29508W        W94768   4.353  31.272   0.366
29509W        W94769  31.885  17.269  14.398
29510W        W94770  29.354  44.055  10.658
29511W        W94771  25.658  44.934  12.326
29512W        W94772  39.701  31.473   3.696
29513W        W94773  32.038  37.922  11.076
29514W        W94774  27.692   1.071  14.424
29515W        W94775  27.225  13.968   2.732
29516W        W94776   6.530  17.508  12.019
29517W        W94777  31.639  39.031  13.038
29518W        W94778  41.033  18.762  10.844
29519W        W94779  12.330  36.083  11.598
29520W        W94780  11.218  15.810   1.824
29521W        W94781  31.772  31.971   1.401
29522W        W94782  33.113  41.544   3.704
29523W        W94783   4.496   2.749  13.923
29524W        W94784  37.826  31.853   4.716
29525W        W94785  21.413   3.803  11.614
29526W        W94786  37.873  44.782   3.840
29527W        W94787   3.944  23.482  12.866
29528W        W94788  30.957   6.273  10.881
29529W        W94789  36.267  31.742  13.057
29530W        W94790  12.723  12.915   1.968
29531W        W94791   8.366  30.157  14.806
29532W        W94792  32.712  38.165  12.823
29533W        W94793  24.093  40.099  11.561
29534W        W94794  36.922  22.568  10.786
29535W        W94795  30.593  37.146  12.878
29536W        W94796  26.363   9.320   0.797
29537W        W94797   6.182  32.100   1.413
29538W        W94798  23.435  10.453  11.066
29539W        W94799  25.563  33.148  13.348
29540W        W94800  19.606  19.481  13.713
29541W        W94801  40.031   5.279  11.919
29542W        W94802  10.411  44.473  12.610
29543W        W94803   7.269  30.467  13.945
29544W        W94804  17.175   8.199   2.527
29545W        W94805  12.023   8.431   0.496
29546W        W94806  32.831  17.322  14.270
29547W        W94807  16.254   8.378  11.084
29548W        W94808  43.545   6.380   0.434
29549W        W94809  32.122  31.895  11.558
29550W        W94810  29.084   9.310   1.207
29551W        W94811  24.191  44.583   4.497
29552W        W94812  23.963   9.553  10.696
29553W        W94813  44.188  33.593   1.414
29554W        W94814   7.129  17.566   2.296
29555W        W94815   3.855  41.082   3.609
29556W        W94816  27.204  10.665   3.359
29557W        W94817  13.207  35.352   3.692
29558W        W94818  22.545  19.829   3.995
29559W        W94819   6.426   8.983   1.247
29560W        W94820  16.845  25.449  10.608
29561W        W94821   6.768  26.447  12.132
29562W        W94822  38.487  17.723  13.900
29563W        W94823   6.291   4.906  12.190
29564W        W94824  44.801  22.245  10.592
29565W        W94825  36.589   7.937   3.679
29566W        W94826  16.031  22.740   1.803
29567W        W94827   3.803  13.628  11.388
29568W        W94828  39.887  21.581   1.800
29569W        W94829  10.160  24.522   1.551
29570W        W94830  37.683  43.316  11.061
29571W        W94831  16.718  17.524  10.156
29572W        W94832  21.004  44.252   3.124
29573W        W94833   1.801   5.226  10.866
29574W        W94834  31.929  17.577   0.587
29575W        W94835  12.709  35.471   4.612
29576W        W94836  14.088  43.607  13.963
29577W        W94837  19.199  32.703   0.873
29578W        W94838  25.997  19.978  13.363
29579W        W94839   6.425  27.960  12.528
29580W        W94840  15.023  19.974   9.768
29581W        W94841  27.680  10.204  12.534
29582W        W94842  40.058   3.745   0.799
29583W        W94843  19.153  35.096   2.859
29584W        W94844  10.279   4.135  12.948
29585W        W94845  24.217  37.841  13.575
29586W        W94846  14.342  24.386  12.403
29587W        W94847  31.918  30.891   0.049
29588W        W94848   3.471  18.708   4.168
29589W        W94849   3.285   0.243  13.335
29590W        W94850  21.612  40.572  14.768
29591W        W94851   5.728  32.561  11.343
29592W        W94852   6.676  32.204  13.293
29593W        W94853  22.077  12.043   0.381
29594W        W94854  24.244   4.250   1.302
29595W        W94855  15.415  31.053  12.890
29596W        W94856   0.801  11.671   1.212
29597W        W94857  23.152  10.522  11.487
29598W        W94858   6.457  22.605   4.629
29599W        W94859  39.918   4.645   0.771
29600W        W94860  42.290  37.525  12.909
29601W        W94861  12.895   7.687   0.411
29602W        W94862  28.985  11.281  11.990
29603W        W94863  12.653  33.376  14.970
29604W        W94864  18.261  16.284  12.628
29605W        W94865   4.351  33.177  11.532
29606W        W94866  15.406  29.197   1.769
29607W        W94867  22.612   1.931   0.185
29608W        W94868  31.164  21.311  11.959
29609W        W94869  15.922   0.966  12.540
29610W        W94870  14.736  10.937   0.859
29611W        W94871  34.638  38.456   3.535
29612W        W94872   1.979  25.371   1.390
29613W        W94873  21.250  25.042   0.534
29614W        W94874   1.731   4.922   1.613
29615W        W94875  42.712  33.368  13.977
29616W        W94876   8.614  16.866  12.529
29617W        W94877  37.987  36.934  13.373
29618W        W94878  40.062  10.888   5.428
29619W        W94879  35.327  25.126   0.762
29620W        W94880  10.366  41.849  10.699
29621W        W94881   2.844  23.737  13.437
29622W        W94882  15.279  33.094   4.163
29623W        W94883  13.812   2.069  14.026
29624W        W94884  39.218  36.596   2.827
29625W        W94885  34.798  10.282   4.972
29626W        W94886  31.345  29.019  12.496
29627W        W94887  30.128  15.187  11.096
29628W        W94888  42.923  26.860  10.537
29629W        W94889  20.602  11.835  13.763
29630W        W94890  33.874  23.275  11.166
29631W        W94891   7.749  35.395   4.881
29632W        W94892  14.825  11.787  11.307
29633W        W94893   3.750  43.327   0.272
29634W        W94894  12.646   4.012   4.661
29635W        W94895  40.581  20.328  14.842
29636W        W94896  14.252  34.377   1.799
29637W        W94897  14.563   9.282  12.722
29638W        W94898   3.189  10.147   1.214
29639W        W94899  42.027  27.933  11.600
29640W        W94900  38.472  17.102  11.080
29641W        W94901   1.371  42.518  11.114
29642W        W94902  33.563   3.737   4.715
29643W        W94903  30.891   2.003  14.771
29644W        W94904  34.878   7.922  13.997
29645W        W94905  37.011  17.825  10.419
29646W        W94906   6.354  28.401  14.049
29647W        W94907   9.621  29.853   1.003
29648W        W94908  10.192  28.659  12.872
29649W        W94909  15.816  13.219  12.471
29650W        W94910  33.419   1.283  12.946
29651W        W94911  10.725  35.283  13.854
29652W        W94912   7.357  15.088   3.594
29653W        W94913  41.875  37.769   4.124
29654W        W94914  18.498  24.699  11.235
29655W        W94915   1.494  16.443   1.925
29656W        W94916  41.396  20.123   2.253
29657W        W94917  18.634  34.005   0.427
29658W        W94918  12.816  21.432   2.000
29659W        W94919   0.394   8.226   1.660
29660W        W94920   6.301  26.933  14.046
29661W        W94921  32.102  23.724  10.304
29662W        W94922  16.718  23.969  10.646
29663W        W94923  33.957  40.587  11.117
29664W        W94924  19.235  10.287   2.501
29665W        W94925  28.255   1.291  11.599
29666W        W94926  20.016  26.532  14.250
29667W        W94927   1.741   3.334  11.628
29668W        W94928  24.436  22.025   2.382
29669W        W94929  36.498   1.423   0.418
29670W        W94930  40.477   7.410   2.286
29671W        W94931  43.486  44.397  14.105
29672W        W94932   1.485  41.012   3.421
29673W        W94933  35.371   1.924  13.480
29674W        W94934   9.540  28.866   2.651
29675W        W94935  39.435  22.992   0.274
29676W        W94936   8.176  36.490  11.128
29677W        W94937   7.801  39.300  11.194
29678W        W94938  34.636   6.898   4.426
29679W        W94939  28.376   6.933  13.480
29680W        W94940   2.352   0.780  13.344
29681W        W94941  18.737  11.328   3.292
29682W        W94942  42.073  14.845   3.301
29683W        W94943   1.217  21.112   0.245
29684W        W94944  25.522  38.564  14.011
29685W        W94945  18.139  26.138   4.978
29686W        W94946  16.054   8.659   3.721
29687W        W94947  22.469  34.665  11.099
29688W        W94948  15.008   8.704   3.686
29689W        W94949  26.454  34.944   4.004
29690W        W94950  35.850   1.830  13.315
29691W        W94951  36.848  18.522  14.305
29692W        W94952   2.302  26.167  14.492
29693W        W94953   3.299   8.459  11.724
29694W        W94954  24.777   5.005   1.175
29695W        W94955   0.296   7.858   4.811
29696W        W94956  25.510   8.617   3.644
29697W        W94957  41.289  20.720  11.327
29698W        W94958  17.775  11.161   2.198
29699W        W94959  30.470  23.006   4.395
29700W        W94960  20.464  16.990   3.050
29701W        W94961  27.341  19.515   1.812
29702W        W94962   3.226  30.043  14.793
29703W        W94963  21.664  10.231   0.673
29704W        W94964  20.727  39.083   4.440
29705W        W94965  43.857  18.794  14.676
29706W        W94966  20.043   1.601   1.955
29707W        W94967   6.951   0.207   1.634
29708W        W94968   5.693  32.406   1.769
29709W        W94969  18.179  25.036   4.670
29710W        W94970   6.936   4.778  13.024
29711W        W94971   3.364  37.528   2.345
29712W        W94972  28.930  37.094   3.160
29713W        W94973  23.125   1.401   2.401
29714W        W94974  37.972  17.261  12.635
29715W        W94975  13.264  37.307  11.664
29716W        W94976  27.551  39.817   1.822
29717W        W94977   9.606  24.447   5.299
29718W        W94978  27.759   1.533   4.432
29719W        W94979  15.774  39.383  10.748
29720W        W94980  24.158   8.634   0.251
29721W        W94981  27.848  43.230  13.248
29722W        W94982  17.326  37.444   1.429
29723W        W94983  18.573  21.985   2.750
29724W        W94984  14.056  18.966   3.830
29725W        W94985  24.549  20.721   2.110
29726W        W94986  26.667  26.455  14.304
29727W        W94987  18.507   8.919   3.423
29728W        W94988   2.312  28.332  12.612
29729W        W94989  36.858  26.952   1.461
29730W        W94990  21.652  18.923   2.576
29731W        W94991  27.017  15.691  12.090
29732W        W94992   6.244  12.327   0.717
29733W        W94993  25.247  34.131  12.164
29734W        W94994  13.632  21.585   2.793
29735W        W94995   9.807  43.926  10.904
29736W        W94996  31.007   7.596  10.574
29737W        W94997  41.423  19.098  12.592
29738W        W94998  27.496  32.111   4.533
29739W        W94999  29.193  13.103   2.814
29740W        W95000  33.209  29.625   9.900
29741W        W95001  29.734  38.880   0.313
29742W        W95002  16.332  30.413  10.693
29743W        W95003  13.267  31.844   0.051
29744W        W95004  32.322  29.434   2.723
29745W        W95005  14.528   3.285   3.504
29746W        W95006  19.591  17.710   2.852
29747W        W95007   0.923  10.150  12.628
29748W        W95008  13.222  43.324  11.570
29749W        W95009  36.921  20.728   3.247
29750W        W95010  28.534  39.316   2.380
29751W        W95011   5.961  22.079   2.738
29752W        W95012   4.477  12.727  10.681
29753W        W95013  10.169  27.462  13.519
29754W        W95014  13.206  44.933  11.208
29755W        W95015  40.399  19.344  11.287
29756W        W95016  33.102  12.563   2.760
29757W        W95017  28.615  17.634  12.909
29758W        W95018   6.286  31.887  14.953
29759W        W95019  31.184  44.854   0.456
29760W        W95020  27.416   1.014   2.605
29761W        W95021  16.111  24.246   4.746
29762W        W95022  16.749   7.341   3.186
29763W        W95023  11.617   5.453   0.028
29764W        W95024  41.430   7.701   2.132
29765W        W95025  13.150  23.273   3.796
29766W        W95026  23.539  16.296  13.620
29767W        W95027  29.933  40.411   1.725
29768W        W95028  25.114  38.375  10.934
29769W        W95029  11.981  15.812  12.836
29770W        W95030  26.215  12.569  14.987
29771W        W95031  18.205  41.986  10.575
29772W        W95032  37.048  22.068  10.761
29773W        W95033  15.321  11.669  13.516
29774W        W95034   4.519   3.255  14.121
29775W        W95035  44.484  14.289   4.377
29776W        W95036  18.265  37.350   1.547
29777W        W95037  22.003  15.437   5.095
29778W        W95038  29.930   5.506   2.263
29779W        W95039  27.945  29.690  11.800
29780W        W95040   8.770  37.097  13.461
29781W        W95041  34.399  15.836  14.003
29782W        W95042  33.465  26.020  13.097
29783W        W95043   0.407   5.158  11.014
29784W        W95044  35.523   1.505  14.305
29785W        W95045  38.627  36.849  11.973
29786W        W95046  38.582   3.794   1.833
29787W        W95047  20.142  11.416  10.450
29788W        W95048  19.670  22.318   3.021
29789W        W95049  31.008  39.050  14.403
29790W        W95050  38.176  29.212  11.890
29791W        W95051  30.957  13.422  12.510
29792W        W95052  14.883  41.216  11.975
29793W        W95053  22.892  25.157   2.086
29794W        W95054  29.020  28.808   1.973
29795W        W95055   8.826  42.010   4.724
29796W        W95056  15.047  21.509  12.043
29797W        W95057   6.274  21.183   2.855
29798W        W95058   4.980  38.200  14.782
29799W        W95059   5.629  15.561   2.797
29800W        W95060   1.473   0.339   2.290
29801W        W95061  29.008   2.313   3.556
29802W        W95062  41.086  26.045  11.141
29803W        W95063  32.038  33.902   3.013
29804W        W95064  30.694  30.408   0.290
29805W        W95065  41.051  40.528   4.625
29806W        W95066  17.596   8.770  14.861
29807W        W95067  35.306  20.726  11.111
29808W        W95068  37.020  17.743  13.360
29809W        W95069  25.230  17.292   0.355
29810W        W95070   3.988  12.554  10.616
29811W        W95071   3.869  29.707  10.779
29812W        W95072   9.735  25.254   0.328
29813W        W95073  15.504  25.711   3.642
29814W        W95074   2.195  17.691   3.508
29815W        W95075  10.530  38.080  12.347
29816W        W95076   5.920  44.638  13.847
29817W        W95077   3.246   3.961   4.401
29818W        W95078   9.468  40.818   3.635
29819W        W95079  33.874  26.429  14.529
29820W        W95080   0.016  12.148  14.461
29821W        W95081  29.481   0.817  10.535
29822W        W95082  25.951  32.122  13.078
29823W        W95083  11.523   4.409  11.403
29824W        W95084  12.281   9.633  13.722
29825W        W95085  13.429  37.093   2.366
29826W        W95086  27.676  16.499  10.828
29827W        W95087  11.644  26.291  11.188
29828W        W95088   1.997  44.492  11.140
29829W        W95089   2.541  36.898  14.327
29830W        W95090  29.024  39.784  12.809
29831W        W95091  22.108  16.569   1.875
29832W        W95092   8.056   8.091   2.075
29833W        W95093  33.484  17.643  13.364
29834W        W95094  42.567  43.017   2.737
29835W        W95095  39.319  26.621   0.488
29836W        W95096  17.199   8.656   0.335
29837W        W95097  24.202  31.158  12.095
29838W        W95098  37.594  13.776   3.657
29839W        W95099  16.186  16.034  12.340
29840W        W95100  39.132   6.222  12.997
29841W        W95101  34.502  40.740   1.778
29842W        W95102   0.435  44.036  14.821
29843W        W95103  41.772  29.100   3.276
29844W        W95104  40.277  31.728   4.850
29845W        W95105  16.478   7.352  11.635
29846W        W95106  12.669  29.637  13.211
29847W        W95107  34.265   7.134   2.280
29848W        W95108   0.079  25.133   2.254
29849W        W95109  42.207  41.713  10.957
29850W        W95110   3.215  43.710  12.409
29851W        W95111  38.072   2.715   3.355
29852W        W95112  39.950  16.283   2.248
29853W        W95113  16.104  33.412   1.949
29854W        W95114   4.075  41.089  10.995
29855W        W95115  44.461  41.484   4.688
29856W        W95116   5.822  17.189  12.302
29857W        W95117  29.155  25.768  12.049
29858W        W95118  14.611   5.315   0.545
29859W        W95119  33.991  13.130  11.851
29860W        W95120  37.391  35.837   3.776
29861W        W95121  24.603  18.827   0.614
29862W        W95122  33.948  39.514   1.803
29863W        W95123  34.400  10.776  12.894
29864W        W95124  29.605  24.540  12.079
29865W        W95125  11.662  20.248  13.465
29866W        W95126  16.689   6.225   0.373
29867W        W95127  20.463   2.423   3.161
29868W        W95128  27.087  20.565   3.689
29869W        W95129  20.715  26.183  14.468
29870W        W95130  44.070  26.359   1.353
29871W        W95131   2.854  43.416   3.713
29872W        W95132  32.610  40.143   3.189
29873W        W95133  16.908   9.787  12.533
29874W        W95134   9.891  17.837  11.434
29875W        W95135  16.094  13.286   3.246
29876W        W95136  12.902  32.910  14.937
29877W        W95137   5.394  21.094   5.083
29878W        W95138   6.192  13.118   2.825
29879W        W95139   9.602  27.669  10.404
29880W        W95140  37.668  13.394   3.326
29881W        W95141  35.461  36.337   1.873
29882W        W95142   4.663  36.564  10.454
29883W        W95143  34.302  30.714  12.483
29884W        W95144  31.741   1.893  13.063
29885W        W95145  37.913  41.132  12.439
29886W        W95146  25.067  11.893  13.954
29887W        W95147  26.633  25.236  12.433
29888W        W95148  34.443  21.607   2.808
29889W        W95149  29.107  17.131   2.458
29890W        W95150  12.537  41.240   0.554
29891W        W95151  28.098  43.470  14.278
29892W        W95152   3.381  36.799  14.871
29893W        W95153  28.952  15.047  10.841
29894W        W95154  29.154  12.417   2.299
29895W        W95155  22.022   5.531  14.625
29896W        W95156  30.154  10.740   0.829
29897W        W95157  26.766  17.561   3.976
29898W        W95158   6.135  35.943   3.775
29899W        W95159  33.141  16.540  11.674
29900W        W95160   2.859   6.359  13.632
29901W        W95161  44.549  12.076   0.398
29902W        W95162  13.772  43.085  14.909
29903W        W95163   0.875  12.834   1.488
29904W        W95164  19.150  31.040  11.685
29905W        W95165  38.676  11.045  13.767
29906W        W95166  23.856   8.468  11.013
29907W        W95167   6.695  10.026  13.830
29908W        W95168  15.664  23.652  10.670
29909W        W95169  15.220  36.678  11.187
29910W        W95170   5.286  39.253   1.404
29911W        W95171   4.685  17.925   4.566
29912W        W95172  41.632  34.787  11.139
29913W        W95173  39.841  36.306   2.046
29914W        W95174  36.027  41.298   0.654
29915W        W95175  44.823  18.469   0.452
29916W        W95176   2.914  39.862  14.859
29917W        W95177  19.669  40.513   3.859
29918W        W95178   8.174   4.364   5.051
29919W        W95179  24.966  30.178   3.792
29920W        W95180  23.740  20.687  13.143
29921W        W95181  21.716  40.282  11.441
29922W        W95182  23.080   0.169  11.641
29923W        W95183   7.237  10.748   2.813
29924W        W95184  40.767  42.598  14.151
29925W        W95185  41.901  30.078   0.749
29926W        W95186  34.201  22.680   1.234
29927W        W95187  39.981  26.915  10.421
29928W        W95188  34.577   3.422   2.429
29929W        W95189  14.374  23.825   0.644
29930W        W95190  32.386  18.092  11.786
29931W        W95191  20.017   1.292  14.603
29932W        W95192  28.797  25.371  13.895
29933W        W95193  25.560  32.121   0.749
29934W        W95194  40.407  15.189  14.467
29935W        W95195  14.320   1.775   4.292
29936W        W95196  18.015  26.609   0.439
29937W        W95197  40.030  39.042   4.651
29938W        W95198  24.213  22.058   1.921
29939W        W95199  22.549  18.878   2.345
29940W        W95200  37.153  41.620   1.288
29941W        W95201  43.929  20.839  10.583
29942W        W95202  33.047  33.848   1.556
29943W        W95203  29.383  27.098  10.483
29944W        W95204  20.508   4.268   5.364
29945W        W95205  31.214  44.318  11.538
29946W        W95206  32.708  26.703  12.601
29947W        W95207  17.974  16.064  13.952
29948W        W95208  18.681  10.904   3.008
29949W        W95209  12.673  20.528   3.335
29950W        W95210   0.922   3.230  14.608
29951W        W95211   7.814  40.282  10.843
29952W        W95212  28.252   1.452   2.603
29953W        W95213  16.164  20.055  14.088
29954W        W95214  18.717   1.399  14.082
29955W        W95215   9.304  33.141  14.581
29956W        W95216  21.160  35.309   4.560
29957W        W95217  24.797   9.843   4.155
29958W        W95218  23.787  39.915   0.770
29959W        W95219  10.716   9.295   0.441
29960W        W95220  43.588  28.694   0.480
29961W        W95221  36.037   1.016  13.003
29962W        W95222   1.754   1.424  11.964
29963W        W95223  23.853   3.165   4.528
29964W        W95224  21.807  35.131  12.867
29965W        W95225   2.448  15.249   3.684
29966W        W95226   2.187   8.042   0.793
29967W        W95227  24.147  36.370  13.941
29968W        W95228  21.095   6.540   3.661
29969W        W95229  26.605  17.178   2.388
29970W        W95230  28.124  22.180   3.317
29971W        W95231  40.997  32.882   3.902
29972W        W95232  21.612  13.904  13.499
29973W        W95233  12.087   1.513   0.354
29974W        W95234  24.449  32.142   3.625
29975W        W95235  31.134  31.833  13.495
29976W        W95236   2.159  30.395  11.731
29977W        W95237  40.560  21.320   2.730
29978W        W95238  29.156  26.893   1.535
29979W        W95239  26.173  11.824   1.781
29980W        W95240  41.986  36.569   3.282
29981W        W95241  38.868   3.312  11.430
29982W        W95242   1.803  13.678  13.921
29983W        W95243   4.150   8.746   2.653
29984W        W95244  28.231  32.626   4.177
29985W        W95245  44.421  21.163   0.302
29986W        W95246  25.710  40.718  11.171
29987W        W95247  44.010  14.827  10.304
29988W        W95248  16.851  15.704  11.129
29989W        W95249  14.149  21.994   4.574
29990W        W95250  31.998  37.000   0.019
29991W        W95251  35.101  23.308  11.740
29992W        W95252  11.275   4.397   4.184
29993W        W95253  30.611  24.272  13.487
29994W        W95254   7.810   3.760   3.802
29995W        W95255  34.400  18.695  11.047
29996W        W95256  10.251   5.556   1.863
29997W        W95257  43.791  37.884  13.026
29998W        W95258  24.275   4.132  14.135
29999W        W95259  22.488  39.464  14.081
30000W        W95260  41.214  17.038  13.819
30001W        W95261   3.970   2.836  12.146
30002W        W95262  36.148  39.358  13.044
30003W        W95263  14.410  11.301  12.827
30004W        W95264  43.256  40.496  13.863
30005W        W95265  31.494  12.231   3.384
30006W        W95266  21.613  36.593  12.548
30007W        W95267  19.507   0.026   3.734
30008W        W95268  20.256   4.428   0.497
30009W        W95269   0.291  26.633  10.294
30010W        W95270   1.351  44.453  12.451
30011W        W95271  26.136  29.742   3.337
30012W        W95272  25.811   7.249   3.350
30013W        W95273  28.132  37.726  14.948
30014W        W95274  34.932   0.453  13.464
30015W        W95275  38.287  29.857   1.297
30016W        W95276   4.705  38.508  11.588
30017W        W95277  29.436   3.455  12.373
30018W        W95278   0.360   1.308  10.484
30019W        W95279  11.772  32.302   4.226
30020W        W95280  26.966  12.357   3.628
30021W        W95281  19.663  29.856   4.304
30022W        W95282  15.198  35.277  11.602
30023W        W95283  14.307   0.013   1.311
30024W        W95284  19.215  23.241  12.081
30025W        W95285  33.096  17.761  10.569
30026W        W95286  24.610   0.250   3.249
30027W        W95287  34.415  10.378   0.759
30028W        W95288  13.230  30.211  11.455
30029W        W95289  44.794  20.835  11.644
30030W        W95290  38.763   8.993   2.738
30031W        W95291  16.103  27.582  12.092
30032W        W95292  36.071  26.709  13.222
30033W        W95293  11.203  39.599  13.902
30034W        W95294  23.442  15.745   0.943
30035W        W95295  43.090  36.807  13.355
30036W        W95296  31.899   9.171   4.661
30037W        W95297  19.390  17.471   3.272
30038W        W95298  42.492  11.694   0.386
30039W        W95299  14.082  23.975   4.299
30040W        W95300  44.427  11.127  13.346
30041W        W95301   2.654  30.171  13.410
30042W        W95302  33.602   6.029   1.418
30043W        W95303  33.482   8.221  12.992
30044W        W95304  28.087   1.837   2.115
30045W        W95305   4.915  20.056   4.186
30046W        W95306  33.380  36.431  10.540
30047W        W95307  19.543   6.336   3.915
30048W        W95308  17.213  18.583   5.152
30049W        W95309  11.159  33.496   2.076
30050W        W95310  35.059  29.959   2.821
30051W        W95311  37.555  40.426  13.022
30052W        W95312  24.202  22.552   1.723
30053W        W95313  40.018  27.965  11.541
30054W        W95314  19.764  41.600  13.415
30055W        W95315  10.411  41.022   3.078
30056W        W95316   7.949   9.215  10.658
30057W        W95317  44.946   0.739  14.536
30058W        W95318  16.405   6.925  12.345
30059W        W95319   4.422  40.312   4.604
30060W        W95320  40.291  42.284   1.411
30061W        W95321  10.575   3.508  14.189
30062W        W95322  33.423   9.989  12.481
30063W        W95323  41.214  12.594  13.817
30064W        W95324  41.897  34.159   3.263
30065W        W95325  42.011  39.203   0.882
30066W        W95326   5.205  13.182  14.440
30067W        W95327   5.779   9.774   1.291
30068W        W95328  37.359  42.324   1.801
30069W        W95329   6.362  22.523  12.651
30070W        W95330  22.177   2.516  13.506
30071W        W95331  40.986  12.649   3.487
30072W        W95332  23.124  12.197   1.126
30073W        W95333   0.204  35.391   2.952
30074W        W95334  29.018  13.716   1.316
30075W        W95335  13.358  39.529   2.332
30076W        W95336  42.486   9.322  13.788
30077W        W95337  39.620  21.423   2.688
30078W        W95338  16.029  24.094   2.322
30079W        W95339  34.221  43.417   2.785
30080W        W95340  27.043   6.107   3.102
30081W        W95341  18.623  12.905  13.028
30082W        W95342  13.164  13.601   3.253
30083W        W95343  44.940  43.459  10.702
30084W        W95344  18.614   2.391   0.637
30085W        W95345  21.949  19.675   0.684
30086W        W95346   3.776  22.785  13.906
30087W        W95347  37.760  21.437  12.912
30088W        W95348  32.894  23.470   3.378
30089W        W95349  38.443  26.099   0.303
30090W        W95350  34.196  41.868  12.922
30091W        W95351  26.077   7.726  14.724
30092W        W95352  15.598  43.529  12.569
30093W        W95353   5.738  44.865  14.295
30094W        W95354  24.579  14.035   3.220
30095W        W95355   0.734  12.534   2.820
30096W        W95356  15.733  24.554  11.518
30097W        W95357  41.639  43.962  11.567
30098W        W95358  23.959  31.284   2.933
30099W        W95359  41.783   8.748  14.310
30100W        W95360   0.476  10.395   4.655
30101W        W95361  30.588  21.242  14.075
30102W        W95362   9.022  39.398   2.252
30103W        W95363   5.179  25.585  14.513
30104W        W95364  17.373  30.512   0.376
30105W        W95365  24.495  11.430  14.992
30106W        W95366  25.253  40.935   4.670
30107W        W95367  43.924   5.392  11.643
30108W        W95368  34.672  19.707   3.747
30109W        W95369  37.935  23.165  12.049
30110W        W95370  41.518   6.995   1.330
30111W        W95371  23.446   6.381   3.996
30112W        W95372  35.765  10.000   4.316
30113W        W95373  20.468   8.541  13.898
30114W        W95374   6.858  25.305   4.145
30115W        W95375  14.149  37.875   0.838
30116W        W95376  30.601  40.109  12.425
30117W        W95377  41.294  19.379   3.717
30118W        W95378  24.255  43.044   4.894
30119W        W95379   0.464   4.630   4.017
30120W        W95380  27.988  19.656  10.069
30121W        W95381   8.253  17.504  13.926
30122W        W95382  25.231  34.093   1.649
30123W        W95383   5.639  25.018   3.795
30124W        W95384   9.721  25.195   3.990
30125W        W95385  26.593  14.106  11.076
30126W        W95386  13.300   0.914   0.133
30127W        W95387  36.049  24.662  12.023
30128W        W95388  39.724  26.417  11.220
30129W        W95389  13.632   0.831   3.453
30130W        W95390  38.175  27.167  11.139
30131W        W95391  10.804  33.314  13.852
30132W        W95392  29.625  36.696  13.280
30133W        W95393  36.960  21.283  11.869
30134W        W95394  39.887  22.649  14.776
30135W        W95395   2.551   0.827  10.518
30136W        W95396  19.484  10.868   0.667
30137W        W95397  33.980  16.713   4.488
30138W        W95398  32.162   2.866  14.418
30139W        W95399   3.370  15.819  14.379
30140W        W95400   9.367  30.526   0.762
30141W        W95401   1.234   6.690   3.306
30142W        W95402  37.401  34.343  14.834
30143W        W95403  12.798   8.403  14.951
30144W        W95404  17.646  25.509   2.920
30145W        W95405  11.309  27.596  12.839
30146W        W95406  40.047  40.092  13.978
30147W        W95407   3.927  20.960   1.986
30148W        W95408  11.848  23.797   2.769
30149W        W95409  33.147  44.348   4.067
30150W        W95410  14.736   7.335   0.002
30151W        W95411  38.772   8.522  11.574
30152W        W95412  44.294  42.861  14.011
30153W        W95413  10.012   9.125  11.529
30154W        W95414   5.869  16.151   3.969
30155W        W95415   6.437  37.874   1.996
30156W        W95416   8.650  41.226  11.080
30157W        W95417  19.466  44.244  11.135
30158W        W95418   5.097  20.409   3.412
30159W        W95419   4.304  21.579  11.011
30160W        W95420  10.702  22.196  10.685
30161W        W95421  13.414  10.850  11.414
30162W        W95422   1.913  44.134   0.030
30163W        W95423  23.535  38.568  11.149
30164W        W95424   9.345  14.181   0.396
30165W        W95425  35.817  12.197  12.508
30166W        W95426  30.890  28.392   2.360
30167W        W95427  11.362  38.418   3.758
30168W        W95428  35.364  41.062   0.424
30169W        W95429  10.672   4.016  13.337
30170W        W95430  15.586  14.115  13.395
30171W        W95431  44.931  36.526   0.254
30172W        W95432  32.922  13.163   0.976
30173W        W95433  21.068  10.723  11.925
30174W        W95434  16.308   4.202   2.335
30175W        W95435   3.798  43.940  13.443
30176W        W95436  37.814  11.087   4.210
30177W        W95437   0.807   6.731   2.695
30178W        W95438  16.899  31.402  14.297
30179W        W95439  31.359   6.698   3.277
30180W        W95440  15.503  24.087  13.478
30181W        W95441  21.231  11.517  13.011
30182W        W95442  15.821  41.844   3.218
30183W        W95443  21.230  30.639  14.823
30184W        W95444  13.448  35.903   0.046
30185W        W95445  13.803  15.559  13.068
30186W        W95446   4.336  15.146  11.530
30187W        W95447  18.734  13.694   3.375
30188W        W95448  29.811  30.584   1.903
30189W        W95449  40.992   6.341  14.317
30190W        W95450   0.675   7.374   3.082
30191W        W95451  14.986  21.298   1.678
30192W        W95452   8.618  24.055  14.003
30193W        W95453  16.713  14.636   1.807
30194W        W95454   6.460  33.728  12.416
30195W        W95455  43.768   8.054  14.973
30196W        W95456   9.183   5.709   3.752
30197W        W95457  23.831  13.229   0.431
30198W        W95458  34.501  25.405   2.848
30199W        W95459   8.641  36.266   1.323
30200W        W95460  17.364  38.782  10.130
30201W        W95461  39.003  19.090   2.826
30202W        W95462   9.437  29.523  12.292
30203W        W95463  10.173  43.359  10.449
30204W        W95464   3.373   5.471   4.620
30205W        W95465   3.171  22.314   3.192
30206W        W95466  18.160   8.210   3.316
30207W        W95467   3.728  10.204   1.887
30208W        W95468  21.206   6.722  12.781
30209W        W95469  18.850  43.290  12.093
30210W        W95470   2.489  20.563   2.606
30211W        W95471  32.844  15.891  14.928
30212W        W95472  11.916  12.151   3.639
30213W        W95473  16.271  42.452   0.918
30214W        W95474  18.129  16.364   1.984
30215W        W95475  11.127  17.115  14.112
30216W        W95476  44.701  15.160   1.817
30217W        W95477   8.818  21.045  14.523
30218W        W95478  33.892   3.802   3.815
30219W        W95479   0.503  29.616  14.006
30220W        W95480  28.116  10.154   3.377
30221W        W95481  27.203  29.435  12.176
30222W        W95482  11.886  13.791   3.708
30223W        W95483  24.031  12.228   0.515
30224W        W95484  25.719  16.766   0.881
30225W        W95485  37.500  13.321   4.585
30226W        W95486  14.073   6.211   4.190
30227W        W95487  28.733  40.603   2.332
30228W        W95488  33.632  37.012   0.440
30229W        W95489   4.159   8.203   1.913
30230W        W95490  23.811   5.898  14.538
30231W        W95491  21.055  23.820  13.634
30232W        W95492  20.494  40.370  12.575
30233W        W95493  12.227   9.953   4.282
30234W        W95494  29.952  27.510  11.479
30235W        W95495  37.792  32.975   3.703
30236W        W95496  27.824   3.188   3.208
30237W        W95497  43.647   2.665   4.209
30238W        W95498  43.962  24.170  10.989
30239W        W95499   4.971   2.326  13.923
30240W        W95500  14.977  40.160  11.039
30241W        W95501  39.049  38.562   1.881
30242W        W95502  15.502  14.130   1.798
30243W        W95503  22.171  29.380   3.189
30244W        W95504  29.844   6.355  14.711
30245W        W95505  29.071  13.383   0.930
30246W        W95506  11.854  13.486   0.825
30247W        W95507  18.787  25.794   2.308
30248W        W95508  13.371   2.859  10.842
30249W        W95509   3.056   8.130   5.175
30250W        W95510  17.647  39.748   1.044
30251W        W95511  40.762  11.820  11.624
30252W        W95512  15.585  38.496  14.890
30253W        W95513  17.294  18.038   4.169
30254W        W95514  32.941  18.515   1.945
30255W        W95515   5.220  10.422  12.448
30256W        W95516   6.910   9.404   4.283
30257W        W95517  11.448  14.768   3.552
30258W        W95518  13.104  26.199   3.747
30259W        W95519  26.039  15.876  13.019
30260W        W95520  10.387  33.332  11.265
30261W        W95521   0.226  38.727   1.231
30262W        W95522  42.193  20.600   0.238
30263W        W95523  20.710   7.585  13.802
30264W        W95524  20.132  27.084  10.899
30265W        W95525  36.337  43.915  10.321
30266W        W95526  44.904  16.813  14.255
30267W        W95527  25.608   4.531   3.296
30268W        W95528  15.852  30.235  10.709
30269W        W95529   1.038   0.719   0.242
30270W        W95530   1.901   1.539   3.324
30271W        W95531  42.356   4.471   3.511
30272W        W95532  30.681  10.579  10.134
30273W        W95533  39.475  12.600  13.401
30274W        W95534  19.235  36.950   0.621
30275W        W95535   0.003  40.294  14.015
30276W        W95536   0.934  33.135  12.122
30277W        W95537  28.034  20.062  13.396
30278W        W95538  17.018  36.106  13.959
30279W        W95539  27.425   7.710  10.611
30280W        W95540  31.257  11.658  14.704
30281W        W95541  38.087  36.123   1.422
30282W        W95542  27.852  26.118  14.477
30283W        W95543   2.792  19.160  11.193
30284W        W95544  16.383  21.049  14.545
30285W        W95545  10.268  34.750  10.480
30286W        W95546  10.400  41.985   0.691
30287W        W95547  18.027   3.672  12.737
30288W        W95548  11.223  20.332  14.006
30289W        W95549  21.409  29.153  11.560
30290W        W95550   1.236  17.688  10.939
30291W        W95551  14.025   1.783  11.401
30292W        W95552  12.144  33.445   0.011
30293W        W95553   7.306  10.246   3.953
30294W        W95554  33.758   3.931   9.838
30295W        W95555  21.954  34.053  14.395
30296W        W95556  29.695  27.217  14.877
30297W        W95557   4.519   5.543   1.953
30298W        W95558  44.833  39.219  13.053
30299W        W95559   7.267  26.753   0.341
30300W        W95560  23.074  27.366  10.561
30301W        W95561  44.312  40.715  11.390
30302W        W95562  31.384  40.487  13.545
30303W        W95563  29.373  19.067   1.797
30304W        W95564  33.046  10.796   3.908
30305W        W95565  40.612  36.099  11.195
30306W        W95566  29.323  43.883  13.603
30307W        W95567   8.850  37.043  12.601
30308W        W95568  14.409  38.464  11.159
30309W        W95569  12.099  43.360  14.807
30310W        W95570  14.829  36.143  13.550
30311W        W95571  30.167   2.669  14.509
30312W        W95572  12.175  28.192   2.179
30313W        W95573   7.808  40.370   1.375
30314W        W95574  31.358  40.085  14.452
30315W        W95575   3.443  42.420   2.788
30316W        W95576   1.312  28.249   2.409
30317W        W95577  44.367  27.477  11.443
30318W        W95578  19.547  44.008  13.515
30319W        W95579   7.064  19.271   3.648
30320W        W95580  26.994  25.198   3.897
30321W        W95581  18.136  35.978  10.756
30322W        W95582  30.246  24.558   1.659
30323W        W95583  13.048  12.890  12.336
30324W        W95584   8.032  16.305   3.782
30325W        W95585  32.288  31.484   4.170
30326W        W95586   6.129  28.794  10.208
30327W        W95587  14.926   9.800   2.823
30328W        W95588   4.250  26.972  13.736
30329W        W95589  28.489   7.922  13.621
30330W        W95590  38.838  28.797  14.844
30331W        W95591  15.376   4.764  12.014
30332W        W95592  33.050  41.285  14.966
30333W        W95593   7.656  19.160  14.512
30334W        W95594  27.703   4.364  14.416
30335W        W95595  18.587   8.647  14.308
30336W        W95596  34.867   3.915   3.913
30337W        W95597  42.410  33.498   2.898
30338W        W95598  44.302   9.267   0.932
30339W        W95599  32.766  15.670   2.740
30340W        W95600  44.808   1.163  11.216
30341W        W95601  17.290  43.783   1.548
30342W        W95602  28.527  26.231   4.069
30343W        W95603  23.134  37.095  14.533
30344W        W95604  40.000  25.034   1.767
30345W        W95605  42.838  15.388  12.042
30346W        W95606  20.175  16.412  11.040
30347W        W95607  32.916  37.012   4.371
30348W        W95608  14.060  30.682   3.554
30349W        W95609  42.385  31.041  11.199
30350W        W95610  31.179  27.569   4.419
30351W        W95611  20.063   5.369   3.704
30352W        W95612  16.264  15.469  11.979
30353W        W95613  29.168  21.462  12.363
30354W        W95614  10.817   9.757   0.227
30355W        W95615   0.776  30.221   0.072
30356W        W95616  11.602  28.998   1.415
30357W        W95617  18.456  25.394   0.023
30358W        W95618  18.618   6.995   4.702
30359W        W95619  35.460  32.421  14.473
30360W        W95620  38.974   9.459   2.374
30361W        W95621  33.815  24.525  14.385
30362W        W95622  15.367  36.943  14.100
30363W        W95623  25.560  42.565  12.513
30364W        W95624  29.902  42.263   3.727
30365W        W95625  42.826  10.693   2.764
30366W        W95626   8.589  39.570  11.678
30367W        W95627   5.667  18.316   3.156
30368W        W95628   6.174  12.311  14.009
30369W        W95629  11.859  42.812  11.994
30370W        W95630  25.206   0.973   3.259
30371W        W95631  31.666   7.934  13.516
30372W        W95632  30.896  11.939  13.342
30373W        W95633   0.666  20.226   4.887
30374W        W95634   6.012  17.038   0.398
30375W        W95635  38.844   8.353   4.096
30376W        W95636  40.926   4.288  10.847
30377W        W95637  18.672  37.427  11.920
30378W        W95638   0.256  37.961  10.391
30379W        W95639  25.687  33.168   1.034
30380W        W95640  34.329  40.927   2.256
30381W        W95641  32.366  34.423   4.730
30382W        W95642  44.330  41.928   1.915
30383W        W95643  44.455  36.607   2.250
30384W        W95644  18.155  14.321  10.821
30385W        W95645  27.748  22.069  12.519
30386W        W95646  26.549   4.197   9.960
30387W        W95647  35.493  32.361   2.312
30388W        W95648  25.861  13.918   1.869
30389W        W95649   7.585  39.840  10.731
30390W        W95650  37.908   8.559  11.433
30391W        W95651  19.185  39.591   0.625
30392W        W95652  41.207   6.678  13.496
30393W        W95653  18.133  22.852  14.620
30394W        W95654  44.940  39.752   1.280
30395W        W95655  22.809  11.428   4.260
30396W        W95656   2.023  40.746  11.933
30397W        W95657  41.080   1.617  11.469
30398W        W95658   2.558   2.321   3.075
30399W        W95659  12.395  16.717  12.815
30400W        W95660  28.647   4.962   2.478
30401W        W95661  24.661  39.454   5.695
30402W        W95662   8.504  36.328  11.508
30403W        W95663  37.506  21.102   4.524
30404W        W95664  32.529  37.497   2.154
30405W        W95665   3.125  16.893   1.310
30406W        W95666  28.084   8.370   3.084
30407W        W95667  39.504  28.863  11.505
30408W        W95668  16.923  39.782  11.898
30409W        W95669  29.115   6.404   3.191
30410W        W95670  37.528  36.805  14.086
30411W        W95671  19.351  11.851   2.217
30412W        W95672  43.866  36.649  13.548
30413W        W95673   2.992  11.330  13.991
30414W        W95674  31.581  22.996   0.884
30415W        W95675  16.331  43.729   2.760
30416W        W95676  36.442  21.311   0.284
30417W        W95677  38.270  19.545   4.516
30418W        W95678  16.279   0.939  13.381
30419W        W95679  19.704  36.893  10.955
30420W        W95680  34.479  42.980  10.537
30421W        W95681  29.003  22.639  11.264
30422W        W95682  17.707   5.253   4.544
30423W        W95683  28.441  17.477  14.133
30424W        W95684  19.124  37.603  12.578
30425W        W95685  27.683  30.029  11.502
30426W        W95686  30.505   9.892   4.607
30427W        W95687  36.075  44.718   4.667
30428W        W95688  17.306  30.342  12.623
30429W        W95689  12.550  31.723   2.300
30430W        W95690   7.380  29.875  14.776
30431W        W95691  37.524   8.295   3.302
30432W        W95692  14.822  36.212   1.240
30433W        W95693  15.671  11.430  10.648
30434W        W95694  18.630   1.034  13.351
30435W        W95695  31.509   0.432   1.937
30436W        W95696  19.946  25.636   4.900
30437W        W95697  41.342  35.615  14.447
30438W        W95698  38.269  27.684  12.014
30439W        W95699  28.439  43.958  12.832
30440W        W95700   3.268   6.373  12.854
30441W        W95701  35.887  11.072   3.788
30442W        W95702  10.832  39.456   2.032
30443W        W95703  44.872   6.453   4.760
30444W        W95704   8.604  13.279  13.856
30445W        W95705  40.507  35.103  13.375
30446W        W95706   0.720  11.727  12.999
30447W        W95707   1.474   8.771   0.772
30448W        W95708  39.015  26.663   1.680
30449W        W95709  27.034  13.082   0.356
30450W        W95710  28.063   1.309   2.134
30451W        W95711  14.529  10.808   1.697
30452W        W95712   9.499   2.201  13.834
30453W        W95713   5.179  18.987  14.045
30454W        W95714  13.103   1.719   4.575
30455W        W95715   2.385  21.284  14.358
30456W        W95716   7.980  15.695  12.031
30457W        W95717  32.381  36.624  13.885
30458W        W95718   3.157  13.041   1.825
30459W        W95719  33.650  36.479  14.377
30460W        W95720  40.333  27.367   4.680
30461W        W95721  17.384  24.162   3.574
30462W        W95722   3.714  19.078   3.336
30463W        W95723  18.828  29.940   2.778
30464W        W95724  42.851  24.555  13.879
30465W        W95725  20.320  17.884  13.999
30466W        W95726  17.090  33.638  13.832
30467W        W95727  27.698  43.058   0.501
30468W        W95728  36.896  34.620  12.732
30469W        W95729  15.897  10.401   0.314
30470W        W95730   6.213  21.773  13.944
30471W        W95731  21.537  31.217  11.488
30472W        W95732  11.783  13.942   4.214
30473W        W95733   9.181  38.148   3.640
30474W        W95734  31.091  21.167  10.388
30475W        W95735  32.143  29.623  14.321
30476W        W95736  23.744  17.194  14.574
30477W        W95737  25.609  34.805   0.035
30478W        W95738  37.403  43.714  11.193
30479W        W95739   9.174  26.742  13.893
30480W        W95740  19.243  17.399  14.810
30481W        W95741   4.832  18.518  12.362
30482W        W95742  30.093   9.721   3.158
30483W        W95743  32.983   2.009   0.877
30484W        W95744  35.924  11.117   2.197
30485W        W95745  11.458   1.383   3.048
30486W        W95746  32.195  38.758   1.675
30487W        W95747  14.032  21.649  10.953
30488W        W95748  15.241   9.263  13.968
30489W        W95749  24.195  25.482  10.695
30490W        W95750  25.117  23.391  13.529
30491W        W95751  35.174  24.318   4.224
30492W        W95752  41.017  33.432  13.442
30493W        W95753  34.772  37.880   2.339
30494W        W95754  41.006  44.855  11.958
30495W        W95755  33.887   0.796   0.066
30496W        W95756  32.090  44.709  11.587
30497W        W95757  16.843  44.285   3.658
30498W        W95758  34.905  35.477   1.734
30499W        W95759  29.195  28.631   4.175
30500W        W95760  38.277  18.624   2.310
30501W        W95761  38.340  40.770  13.580
30502W        W95762  26.838  25.721  11.568
30503W        W95763  43.306  25.727   0.360
30504W        W95764   1.519  11.710   1.399
30505W        W95765  18.569   9.114  13.863
30506W        W95766  11.586  22.471  14.276
30507W        W95767   0.686   8.345  10.730
30508W        W95768   2.259  43.164  11.641
30509W        W95769  16.249  24.136  14.688
30510W        W95770  44.129  40.886   0.861
30511W        W95771  12.091  32.905   3.748
30512W        W95772  23.918  41.541  14.758
30513W        W95773  20.166  10.071   1.941
30514W        W95774  22.732  37.180   5.036
30515W        W95775   6.947  24.186   3.268
30516W        W95776   3.925  43.935   0.934
30517W        W95777  44.392  17.225  10.874
30518W        W95778  16.693  41.077   0.038
30519W        W95779  33.062  37.603   0.354
30520W        W95780  13.435  42.854   2.874
30521W        W95781  31.545  25.003   2.985
30522W        W95782  41.834  30.092  14.856
30523W        W95783   8.345   9.835  11.412
30524W        W95784  21.114  24.755   1.940
30525W        W95785  12.323   4.902   1.338
30526W        W95786  11.776   1.031   1.263
30527W        W95787   9.627  35.077  11.811
30528W        W95788   6.809  22.482   1.383
30529W        W95789   4.509  36.279  14.426
30530W        W95790  26.966  38.619  12.578
30531W        W95791  43.486  38.834  11.525
30532W        W95792  12.305  44.410   3.225
30533W        W95793  21.695  34.398   1.933
30534W        W95794   1.633  34.214  14.437
30535W        W95795  33.466   1.774   0.755
30536W        W95796  12.819  16.283   3.101
30537W        W95797  24.695  36.937   1.650
30538W        W95798  11.289  20.182   1.779
30539W        W95799   6.945  15.723  12.066
30540W        W95800   3.753  12.647  14.872
30541W        W95801  15.282  44.545  14.112
30542W        W95802  44.371   1.449  11.390
30543W        W95803  33.598  13.214   3.716
30544W        W95804   2.016  41.606   4.736
30545W        W95805  15.761  25.492  11.259
30546W        W95806  31.021  35.393   1.960
30547W        W95807  12.654   6.027   2.767
30548W        W95808  23.666   3.204   3.754
30549W        W95809   9.097  11.600  12.056
30550W        W95810  41.134   8.311   2.557
30551W        W95811  39.383   1.649  14.423
30552W        W95812  19.256  35.752  14.955
30553W        W95813  35.289  26.702  14.820
30554W        W95814  16.704  14.793  12.052
30555W        W95815  21.856  10.662   0.894
30556W        W95816  18.065  38.566   1.829
30557W        W95817  31.032  42.477  12.662
30558W        W95818  32.639   0.427  11.001
30559W        W95819  25.620  33.453   1.475
30560W        W95820   2.701  34.336   2.702
30561W        W95821   9.934  31.198   3.273
30562W        W95822   2.656   8.760   3.770
30563W        W95823   4.632   0.027  13.981
30564W        W95824  31.247  29.615   3.745
30565W        W95825  35.475  14.062  12.358
30566W        W95826  41.600  18.699  13.420
30567W        W95827  18.204   9.751   2.159
30568W        W95828  39.995  13.765   1.338
30569W        W95829  37.137  18.314  10.214
30570W        W95830  16.169  23.234  11.548
30571W        W95831  23.061  38.150   3.101
30572W        W95832  11.468  30.343  12.537
30573W        W95833  15.345  39.407   0.258
30574W        W95834  19.073  11.147   2.765
30575W        W95835   5.498  11.243  10.636
30576W        W95836  11.149  22.554   2.751
30577W        W95837  19.077  43.812  14.852
30578W        W95838  30.354  15.060  12.448
30579W        W95839  35.484  22.394   1.084
30580W        W95840   1.777  21.180   2.700
30581W        W95841  31.953  42.296   0.404
30582W        W95842  37.400  10.275   3.171
30583W        W95843  13.214  24.985  10.440
30584W        W95844  36.168  39.975   2.201
30585W        W95845  25.069  10.190  13.421
30586W        W95846  34.422  43.942   4.249
30587W        W95847  12.350   8.202  14.707
30588W        W95848   5.309  34.544  14.974
30589W        W95849   4.585  14.915  14.920
30590W        W95850  34.625  14.262  11.859
30591W        W95851  10.779  16.754  11.504
30592W        W95852   1.500  10.182  13.986
30593W        W95853  35.418   5.210  10.749
30594W        W95854  27.740   2.452  14.569
30595W        W95855  33.830  37.163   1.836
30596W        W95856  12.859  31.935   3.674
30597W        W95857  23.743  11.296   1.234
30598W        W95858  17.806   1.354   0.080
30599W        W95859  26.613  42.644   3.683
30600W        W95860  23.118  35.833  12.505
30601W        W95861  17.551   8.006   2.820
30602W        W95862  21.712  43.771   2.534
30603W        W95863  15.070  13.148  14.832
30604W        W95864  29.449  11.122   1.164
30605W        W95865  44.271  13.236  14.844
30606W        W95866   4.132  43.919   2.827
30607W        W95867  41.527  19.562  13.774
30608W        W95868  22.671  43.376   4.497
30609W        W95869   8.886  40.839   0.212
30610W        W95870   0.329  42.461   4.821
30611W        W95871  14.826  16.951  11.640
30612W        W95872  33.962  18.238   0.773
30613W        W95873   3.440  33.567  10.609
30614W        W95874  10.837  40.235   2.070
30615W        W95875   4.348  11.427  12.043
30616W        W95876  41.341  37.486   1.849
30617W        W95877   2.812   5.974  10.630
30618W        W95878  26.651  31.085   2.377
30619W        W95879  20.214  24.141  14.063
30620W        W95880  30.981  17.558   0.897
30621W        W95881  17.675  14.137   0.497
30622W        W95882  39.330  28.629   4.450
30623W        W95883  20.597  24.190   2.713
30624W        W95884  40.519   2.797   4.233
30625W        W95885  38.903  42.054   2.240
30626W        W95886   4.260   9.940  11.773
30627W        W95887   0.219   5.364   3.837
30628W        W95888  42.278  16.151   3.953
30629W        W95889  41.809   2.218  11.106
30630W        W95890  32.043  14.635   1.326
30631W        W95891  39.985  40.404  12.677
30632W        W95892   7.959  41.491   0.729
30633W        W95893  22.994  29.087   2.147
30634W        W95894   5.713  24.985  10.731
30635W        W95895   9.592   6.369   5.667
30636W        W95896  42.745   4.879   3.535
30637W        W95897  15.145  17.967  14.800
30638W        W95898  43.972   8.377  14.429
30639W        W95899  10.219  33.706   2.383
30640W        W95900  22.679   2.292  13.495
30641W        W95901  30.469  25.109   3.122
30642W        W95902   5.295  39.478   3.312
30643W        W95903   9.314  27.096  11.495
30644W        W95904  31.406   0.407   0.451
30645W        W95905  14.789  30.201  14.523
30646W        W95906   7.331  33.151   1.660
30647W        W95907  36.468  23.653   5.569
30648W        W95908  24.883  20.699   0.334
30649W        W95909  38.360  37.438  10.361
30650W        W95910   2.405  25.663  14.598
30651W        W95911   3.549  12.897  13.439
30652W        W95912  32.191   9.299   0.081
30653W        W95913  32.593   2.509  11.769
30654W        W95914  39.566   6.693   3.669
30655W        W95915   8.326  38.113  14.531
30656W        W95916  38.607  13.823  11.081
30657W        W95917  10.165   0.224  11.153
30658W        W95918  36.028  18.806  13.375
30659W        W95919  37.220  43.894  14.021
30660W        W95920  33.527   4.219   5.025
30661W        W95921   6.156  32.621   0.438
30662W        W95922  11.738  21.754  12.971
30663W        W95923   0.319   4.214  11.444
30664W        W95924   3.312   9.943  12.028
30665W        W95925  20.185  11.176   0.888
30666W        W95926  42.773  10.379  14.434
30667W        W95927   4.482  32.128   3.656
30668W        W95928  25.528  16.687  10.666
30669W        W95929  40.512  23.894  11.029
30670W        W95930   5.699  11.730   1.291
30671W        W95931  14.260  12.813  13.294
30672W        W95932  33.384  14.938  12.058
30673W        W95933  19.665   7.593  13.308
30674W        W95934   8.889  27.742   0.166
30675W        W95935  12.038  40.882  11.969
30676W        W95936  11.348  40.482  12.393
30677W        W95937  13.096  17.721  12.514
30678W        W95938  33.446  41.947   3.665
30679W        W95939  36.411  18.227  11.905
30680W        W95940  13.933  19.652   3.131
30681W        W95941  16.295  25.252  12.508
30682W        W95942  33.135  37.826   0.912
30683W        W95943  37.353  11.615  13.828
30684W        W95944  35.055  13.514   2.729
30685W        W95945  37.136  18.308   0.282
30686W        W95946  37.765  36.827   3.329
30687W        W95947  38.854  13.204  13.847
30688W        W95948  14.875  33.444  11.615
30689W        W95949  37.489  26.832   3.246
30690W        W95950  24.007  39.530  10.298
30691W        W95951   3.190  33.972  13.488
30692W        W95952  31.686  43.508   4.844
30693W        W95953  19.172  40.370  13.838
30694W        W95954  22.277  34.470  14.549
30695W        W95955   5.483   6.411  13.370
30696W        W95956  13.822   9.895  13.407
30697W        W95957   0.209  31.033  13.935
30698W        W95958  32.655   3.343   0.256
30699W        W95959   7.838  16.289   0.215
30700W        W95960  37.455  18.714   0.251
30701W        W95961  44.353  19.444   1.866
30702W        W95962  39.880  14.804  13.810
30703W        W95963  41.157  43.511  12.985
30704W        W95964  37.451  34.319  11.596
30705W        W95965  36.772  44.849  10.214
30706W        W95966  23.930   2.674  10.377
30707W        W95967  15.109  15.104  11.482
30708W        W95968  16.363  15.296   3.215
30709W        W95969   8.838  29.024   3.236
30710W        W95970  36.929  41.437   3.126
30711W        W95971  20.169  28.612  13.007
30712W        W95972  12.721  21.821  13.892
30713W        W95973  36.127  34.204   1.026
30714W        W95974  40.547  31.144   4.159
30715W        W95975   8.480  18.063  10.075
30716W        W95976  13.814   7.705  11.991
30717W        W95977  44.667   9.843  13.815
30718W        W95978  41.376  27.197  13.030
30719W        W95979   7.260  22.489  14.882
30720W        W95980  22.865  26.432   1.149
30721W        W95981  20.586   3.031  13.833
30722W        W95982   3.505  36.809   4.601
30723W        W95983  29.123   3.428   4.971
30724W        W95984   2.881  14.357  11.262
30725W        W95985  35.242  30.005   0.425
30726W        W95986  23.121  14.790   4.412
30727W        W95987   6.134  29.819  10.242
30728W        W95988  12.891  23.116   1.612
30729W        W95989  35.396  28.341   1.923
30730W        W95990  32.697  14.854  11.211
30731W        W95991  22.234  32.861  13.851
30732W        W95992  12.088  18.692  14.873
30733W        W95993  26.598   1.847   4.531
30734W        W95994  35.412   0.459   1.846
30735W        W95995  18.459  36.584   0.430
30736W        W95996  38.490  22.495  11.773
30737W        W95997  10.888   4.796   1.526
30738W        W95998  13.165  24.133  14.041
30739W        W95999  24.043  44.628  10.362
30740W        W96000  32.470  35.021  11.227
30741W        W96001  44.454  27.168   0.248
30742W        W96002  31.697  32.867   1.960
30743W        W96003  41.113  21.326  10.564
30744W        W96004  24.494  44.991   4.596
30745W        W96005  20.667  41.478  10.498
30746W        W96006  28.075  20.964   1.927
30747W        W96007   1.525  13.798   1.775
30748W        W96008  35.627  38.120   2.642
30749W        W96009  24.969  30.883   1.721
30750W        W96010  30.691  27.425   3.643
30751W        W96011   1.240  41.344   0.965
30752W        W96012  10.050  30.939  13.160
30753W        W96013   6.545   8.179  14.968
30754W        W96014  42.480  41.597  12.560
30755W        W96015  14.179   8.202   4.918
30756W        W96016  17.280   4.430  10.700
30757W        W96017  30.512  22.459   3.484
30758W        W96018  29.083  20.963   4.069
30759W        W96019  18.680  38.828   3.703
30760W        W96020  38.556  35.485  14.292
30761W        W96021   7.929   5.515  11.624
30762W        W96022   6.402  43.899  13.301
30763W        W96023  30.904  16.159  14.952
30764W        W96024  12.614  20.639   4.398
30765W        W96025  20.539  38.495   1.843
30766W        W96026  15.263  28.442   0.059
30767W        W96027   7.819  14.553   1.912
30768W        W96028  39.254  35.017  13.866
30769W        W96029  11.843   1.499   4.421
30770W        W96030  15.251  30.909   0.806
30771W        W96031   2.985  22.442   0.037
30772W        W96032   7.799  17.330   3.564
30773W        W96033  34.059  41.386   2.228
30774W        W96034  37.623  41.558  13.644
30775W        W96035  22.476  43.415  13.960
30776W        W96036  20.815  12.784  14.560
30777W        W96037  10.612  36.134   4.563
30778W        W96038  42.260   5.235   4.133
30779W        W96039  10.265   2.184  11.077
30780W        W96040   8.955  12.285   1.862
30781W        W96041  42.917  11.558   1.192
30782W        W96042  21.890   1.846  12.042
30783W        W96043   6.366  42.936  10.697
30784W        W96044  16.444  16.937  12.054
30785W        W96045  13.567  21.795  11.050
30786W        W96046  21.849   5.117   2.695
30787W        W96047  29.496   9.157   3.788
30788W        W96048  35.290   0.392  11.234
30789W        W96049   9.339  16.933   4.599
30790W        W96050  40.631  30.435   0.792
30791W        W96051  26.520   3.810   0.743
30792W        W96052   5.855   1.461   1.061
30793W        W96053  35.904  35.919  13.503
30794W        W96054   5.904  15.513  14.017
30795W        W96055  32.691  11.693   3.106
30796W        W96056  28.694  21.288   4.156
30797W        W96057   9.953  24.212   3.990
30798W        W96058  13.226  29.601   3.173
30799W        W96059   2.153  12.020   2.777
30800W        W96060   6.910   3.949   3.819
30801W        W96061   7.186  31.482  11.789
30802W        W96062  17.015  27.670  11.547
30803W        W96063  27.088  43.628  14.927
30804W        W96064   7.143  15.140   2.685
30805W        W96065  23.206  26.835  11.310
30806W        W96066   4.518  13.381  11.352
30807W        W96067  16.020   4.344   3.205
30808W        W96068   9.252  20.263   0.776
30809W        W96069  27.622  22.546   4.087
30810W        W96070  32.460  32.174   4.740
30811W        W96071  15.131  42.256   4.453
30812W        W96072  23.691  14.562   3.116
30813W        W96073  17.382   6.926  10.786
30814W        W96074  32.848   7.913  11.104
30815W        W96075  14.685  14.641  12.118
30816W        W96076  38.492  37.828   0.997
30817W        W96077   1.735   8.254  13.487
30818W        W96078   0.754   8.862   3.185
30819W        W96079  33.667  35.554   2.701
30820W        W96080   6.410  25.539  10.498
30821W        W96081  41.774  12.114  12.341
30822W        W96082   8.255  39.777   0.889
30823W        W96083  10.495  17.732   2.810
30824W        W96084  41.429  37.209   2.344
30825W        W96085  23.558  13.235  12.379
30826W        W96086   0.864   1.781  12.026
30827W        W96087  20.093  11.567   4.554
30828W        W96088  35.287  14.960   4.190
30829W        W96089  44.487  23.524  13.288
30830W        W96090   9.350  43.294  14.303
30831W        W96091  13.166   8.226  10.299
30832W        W96092  24.625   8.473  10.775
30833W        W96093   4.758  44.193  13.742
30834W        W96094  35.015  18.307   2.857
30835W        W96095  40.056  26.677  11.549
30836W        W96096  28.430  37.604   0.413
30837W        W96097  42.582  16.971   4.399
30838W        W96098  12.436  26.717  12.877
30839W        W96099  32.906   9.356   3.649
30840W        W96100   0.101  24.032  14.334
30841W        W96101  25.437  15.779  11.038
30842W        W96102   9.845   6.710  14.114
30843W        W96103  17.814  31.327  11.431
30844W        W96104  13.412  19.932   0.898
30845W        W96105  24.574   6.421  14.642
30846W        W96106  33.044  13.046  10.983
30847W        W96107   5.366  42.878   1.027
30848W        W96108  14.355  34.293  12.422
30849W        W96109  37.355   7.976   4.418
30850W        W96110  14.327  28.036  14.524
30851W        W96111  40.492  24.130   3.159
30852W        W96112  19.036  12.866   0.825
30853W        W96113  17.118  18.809   1.470
30854W        W96114  33.032  35.555  12.394
30855W        W96115  14.759  43.993   3.526
30856W        W96116  24.612  25.424  12.606
30857W        W96117  13.276  10.907  10.365
30858W        W96118   5.857  36.271  14.248
30859W        W96119  27.987  12.128   4.283
30860W        W96120  38.412  44.106   0.299
30861W        W96121  39.881  13.696  11.403
30862W        W96122   0.744   0.467   0.913
30863W        W96123  41.110  24.489   3.396
30864W        W96124  39.859  18.104  13.818
30865W        W96125  10.947  19.548  12.054
30866W        W96126  35.532  33.162  14.360
30867W        W96127  36.004  39.794   0.847
30868W        W96128   5.929  22.303  14.922
30869W        W96129   1.433  15.735  12.273
30870W        W96130  16.592  26.364   0.321
30871W        W96131  28.098  37.913  13.052
30872W        W96132  19.944   5.436  12.659
30873W        W96133   4.287  10.576   0.903
30874W        W96134  37.983  36.601   4.988
30875W        W96135  21.864  40.395  12.940
30876W        W96136  14.526  19.845   2.296
30877W        W96137  40.357   7.755   2.640
30878W        W96138   7.713  12.498  14.493
30879W        W96139   2.435  44.600   4.339
30880W        W96140   9.224  27.600   2.254
30881W        W96141  20.937  12.834  14.017
30882W        W96142  20.540  28.672  12.426
30883W        W96143  44.409  24.410   3.618
30884W        W96144  23.618   2.715   4.643
30885W        W96145  41.989   6.839  10.475
30886W        W96146  31.869  36.995  12.501
30887W        W96147  21.256  16.351   1.922
30888W        W96148  31.713  11.791   3.232
30889W        W96149  35.859  29.209   3.682
30890W        W96150  23.852  19.371   4.475
30891W        W96151   3.396  15.247   3.113
30892W        W96152  19.170  41.783  14.013
30893W        W96153  33.792   6.418   1.818
30894W        W96154  12.870  10.352   0.355
30895W        W96155  18.294  29.339   4.490
30896W        W96156  17.095  39.874  12.777
30897W        W96157  22.959  18.414  13.609
30898W        W96158  20.276  34.130   0.917
30899W        W96159  38.002  37.007   4.621
30900W        W96160  33.270  20.400   1.361
30901W        W96161  16.606   4.196   3.401
30902W        W96162  13.265  29.599   2.118
30903W        W96163  14.537  44.819  12.574
30904W        W96164  14.751  34.534   2.860
30905W        W96165  16.329  42.497   3.827
30906W        W96166  41.923  41.037   1.229
30907W        W96167  21.617  30.676   2.219
30908W        W96168  33.033  31.196   1.305
30909W        W96169  17.714   2.350   2.681
30910W        W96170  26.100  28.215   0.387
30911W        W96171  14.961   2.177   1.641
30912W        W96172   6.292   2.768  11.486
30913W        W96173  25.566   4.779  12.284
30914W        W96174  33.963   7.747  12.882
30915W        W96175  32.107  37.913   0.921
30916W        W96176  19.966  26.622  10.575
30917W        W96177  32.078  21.597   3.889
30918W        W96178   9.288  11.406   2.960
30919W        W96179  37.827  35.276  11.581
30920W        W96180   2.953   9.620   2.786
30921W        W96181  26.446  24.269  11.515
30922W        W96182   8.733   3.868  12.760
30923W        W96183  17.121  36.755   0.707
30924W        W96184  31.802  40.507  14.382
30925W        W96185  13.020  32.285  14.864
30926W        W96186   2.724  29.472  10.977
30927W        W96187  13.777   6.981  13.933
30928W        W96188   3.712  35.118   1.908
30929W        W96189  11.542  12.625  13.964
30930W        W96190   8.155  31.911  12.563
30931W        W96191  34.425  29.351   4.661
30932W        W96192   4.352  24.045   2.834
30933W        W96193   5.562  11.285   0.995
30934W        W96194  42.277  21.486  11.175
30935W        W96195   4.869  26.961   4.751
30936W        W96196   4.371  16.739  12.881
30937W        W96197   8.844  14.366   4.125
30938W        W96198   1.341   7.666  14.839
30939W        W96199  14.375  10.664   1.200
30940W        W96200   2.523  44.823   3.601
30941W        W96201  41.410  19.031  10.621
30942W        W96202  18.876   0.509  14.310
30943W        W96203  13.368  16.354  12.139
30944W        W96204  10.018  21.722  14.925
30945W        W96205  33.179  35.375   2.700
30946W        W96206   3.661  11.559   5.146
30947W        W96207  18.129  20.972  11.283
30948W        W96208   4.326  36.819  11.950
30949W        W96209   7.517   2.796   1.944
30950W        W96210  11.109   1.932   4.662
30951W        W96211  10.951  13.849   2.398
30952W        W96212  35.822  27.538   0.502
30953W        W96213  41.785  44.046  12.497
30954W        W96214   5.164  14.788   4.839
30955W        W96215  19.341  43.369  11.968
30956W        W96216  29.039  32.912  11.893
30957W        W96217  33.498  44.753   2.604
30958W        W96218  34.133  22.331   1.607
30959W        W96219  28.446   3.403   3.815
30960W        W96220   6.855  37.757   1.173
30961W        W96221  43.569   5.803  12.331
30962W        W96222  39.128   6.793  13.405
30963W        W96223  29.497  27.915   2.230
30964W        W96224  43.099  41.635   3.554
30965W        W96225  30.327  24.797   4.460
30966W        W96226  18.720  27.741   2.148
30967W        W96227  36.884  28.492   4.560
30968W        W96228  19.142   7.329  14.934
30969W        W96229  13.232  18.552  10.710
30970W        W96230  40.239  16.805  13.722
30971W        W96231  21.136  40.918   4.118
30972W        W96232  30.089  15.205  13.709
30973W        W96233  22.946  10.385   0.880
30974W        W96234  44.777  30.967   1.438
30975W        W96235  19.462  29.022  13.380
30976W        W96236  27.989  22.682  11.471
30977W        W96237  40.899  43.251  13.422
30978W        W96238   5.715   0.253   3.189
30979W        W96239   8.445  24.069  12.623
30980W        W96240  14.521   4.935   2.886
30981W        W96241  37.445   2.437   2.238
30982W        W96242  26.557  13.203  12.021
30983W        W96243  11.237  32.645  13.409
30984W        W96244  34.470  44.781  11.261
30985W        W96245   4.433  32.612   4.137
30986W        W96246  29.559  35.769   4.059
30987W        W96247  12.845  14.388   2.431
30988W        W96248  37.043  20.499  12.026
30989W        W96249  40.323  44.055  14.300
30990W        W96250  29.400  18.352   2.351
30991W        W96251  31.442  30.345   9.943
30992W        W96252  30.645   7.417   0.807
30993W        W96253  38.340  21.539   3.944
30994W        W96254  42.508  13.867  10.756
30995W        W96255  26.239  30.824   0.249
30996W        W96256  18.095  34.483  11.059
30997W        W96257   5.325  27.247   0.468
30998W        W96258  40.231  33.147  12.590
30999W        W96259  38.505  21.424  10.312
31000W        W96260   5.284   4.505   0.249
31001W        W96261  34.601  33.002  12.068
31002W        W96262  37.027  26.110  12.347
31003W        W96263  10.612  39.895  10.788
31004W        W96264  39.534  37.023   2.795
31005W        W96265   3.848  41.333   4.720
31006W        W96266   3.189  28.010   3.821
31007W        W96267  18.157   8.897  14.125
31008W        W96268   3.794  18.001   0.765
31009W        W96269   2.306  17.960   4.359
31010W        W96270  35.842   8.847  14.959
31011W        W96271  40.197  21.029   4.577
31012W        W96272   1.685  34.700  10.732
31013W        W96273  42.571  29.533   1.801
31014W        W96274  33.035  16.040  13.850
31015W        W96275  20.044   1.312   2.783
31016W        W96276  22.630  17.596  12.627
31017W        W96277  16.420  11.940  11.589
31018W        W96278  32.355  40.000  13.563
31019W        W96279  28.440   0.406  13.711
31020W        W96280   3.003  21.752  13.430
31021W        W96281  29.401  28.236   0.282
31022W        W96282  15.298  31.771  13.851
31023W        W96283  36.524  14.702  12.142
31024W        W96284  16.581   1.746  14.296
31025W        W96285  33.011   6.131  10.609
31026W        W96286  33.635  27.628   1.246
31027W        W96287   6.306  37.863   3.261
31028W        W96288  36.625  11.243  12.933
31029W        W96289  22.965  32.325   2.762
31030W        W96290  34.683  14.792   1.437
31031W        W96291  12.151  18.808  11.609
31032W        W96292  27.356   2.519  14.918
31033W        W96293   6.310  17.105   4.327
31034W        W96294  39.550  41.263  11.214
31035W        W96295  27.435  29.954   3.668
31036W        W96296  30.825   3.676   0.369
31037W        W96297  39.066  35.477   3.760
31038W        W96298   9.193  25.158   1.817
31039W        W96299  22.557   6.775  12.136
31040W        W96300  40.339  38.811  12.070
31041W        W96301   0.719   7.845  12.626
31042W        W96302  42.751  16.801  11.470
31043W        W96303  28.415  12.871  14.473
31044W        W96304  41.845  32.299   0.833
31045W        W96305  12.378   6.162  12.492
31046W        W96306  36.249  44.025   2.819
31047W        W96307  27.654   0.670  11.154
31048W        W96308  40.276   7.831  10.998
31049W        W96309   0.510   1.005  11.662
31050W        W96310  18.700   5.702   0.381
31051W        W96311   1.489  10.489   3.707
31052W        W96312   8.878   0.879  14.264
31053W        W96313  33.971  22.831   4.165
31054W        W96314  20.203  41.636  14.995
31055W        W96315  14.965   7.739   5.004
31056W        W96316  38.870   8.884   4.166
31057W        W96317  24.083   1.690  13.019
31058W        W96318  35.432  33.154   4.104
31059W        W96319  42.859  32.378  13.324
31060W        W96320  28.126  18.159   0.994
31061W        W96321  27.914   3.794   0.954
31062W        W96322  30.908  37.731   0.802
31063W        W96323   3.066   5.237   1.426
31064W        W96324   0.812  41.762  10.244
31065W        W96325  40.276  30.922  11.914
31066W        W96326   4.624  44.785   1.399
31067W        W96327   7.570  25.651   2.358
31068W        W96328   9.044  42.135  13.607
31069W        W96329  24.865   7.369   1.455
31070W        W96330  40.385  37.852   1.553
31071W        W96331  19.834   5.310  13.154
31072W        W96332  36.101  15.554   1.380
31073W        W96333  16.794  11.494  14.099
31074W        W96334  11.618   2.830   0.474
31075W        W96335   1.302  27.546   4.609
31076W        W96336  28.460   3.744   0.989
31077W        W96337  40.481  42.506   2.485
31078W        W96338  16.860  24.500   2.180
31079W        W96339  16.500  33.216   3.305
31080W        W96340  10.901  23.074   1.481
31081W        W96341   3.164  36.842  12.759
31082W        W96342  34.407  39.452  14.019
31083W        W96343  26.959   1.868  11.078
31084W        W96344  35.847  35.464   3.211
31085W        W96345  36.197  14.632   4.092
31086W        W96346  17.415   2.415  11.497
31087W        W96347  37.800  35.467   3.278
31088W        W96348  24.044  14.392  13.438
31089W        W96349  15.679  43.244   3.144
31090W        W96350  10.262  34.289   2.364
31091W        W96351  23.714   6.172  12.444
31092W        W96352  18.593  31.368  13.975
31093W        W96353  26.503  15.604   0.353
31094W        W96354  24.798  25.519   1.290
31095W        W96355   5.894  20.452  14.006
31096W        W96356  40.899  18.471   1.182
31097W        W96357  42.407   8.797  13.608
31098W        W96358  38.758  38.325  12.871
31099W        W96359  12.323  41.865  12.122
31100W        W96360  32.450  19.615  13.865
31101W        W96361  11.877   6.424   1.742
31102W        W96362   2.605  10.726   1.410
31103W        W96363   8.016  19.162   1.714
31104W        W96364  15.394  35.637   4.243
31105W        W96365  36.155  29.573  12.507
31106W        W96366  11.909  14.681  14.914
31107W        W96367  42.567  41.346   2.250
31108W        W96368  19.943  29.477  11.788
31109W        W96369  35.407  22.638  14.377
31110W        W96370  27.031  18.185  14.922
31111W        W96371  29.320  16.655   4.551
31112W        W96372   7.696   4.416   3.714
31113W        W96373  22.378   7.280  11.005
31114W        W96374  34.782  19.699  11.729
31115W        W96375  36.252  24.088   4.927
31116W        W96376   3.509   1.729  11.129
31117W        W96377  25.288  17.702  11.567
31118W        W96378  16.599  38.202   1.133
31119W        W96379  10.844  18.018  14.849
31120W        W96380  35.335  22.245  12.615
31121W        W96381  26.343   6.594   0.503
31122W        W96382  12.460   7.653  14.672
31123W        W96383  38.401  16.742   4.388
31124W        W96384  13.420  42.180  13.198
31125W        W96385   4.686  38.350   4.637
31126W        W96386   0.783  17.752   0.779
31127W        W96387  18.570  25.638   2.831
31128W        W96388   5.469  40.785  13.027
31129W        W96389  30.035  12.853   2.310
31130W        W96390  36.013  26.477  14.671
31131W        W96391   9.317   5.883  14.073
31132W        W96392  39.294  12.564   2.759
31133W        W96393   2.352  37.603   3.241
31134W        W96394  26.001  16.764  11.977
31135W        W96395  16.465  24.725  13.921
31136W        W96396  23.781  25.971   2.932
31137W        W96397  20.194  17.760  11.966
31138W        W96398  32.100  28.099   0.372
31139W        W96399  35.854  22.042   2.900
31140W        W96400   9.287  16.538   4.261
31141W        W96401   1.823  35.624  12.891
31142W        W96402  27.633   3.876   2.775
31143W        W96403   5.754  17.534  14.797
31144W        W96404   1.700  32.168   1.241
31145W        W96405  38.540  10.172  10.773
31146W        W96406  14.217  22.016  12.985
31147W        W96407  44.266   3.248  13.856
31148W        W96408  44.634  22.502  14.883
31149W        W96409  35.067   5.350   1.374
31150W        W96410  12.646  28.194   1.154
31151W        W96411  12.611   5.138  11.160
31152W        W96412  32.488  13.858   3.953
31153W        W96413  32.661  18.802  12.132
31154W        W96414  44.385   0.771   3.261
31155W        W96415  42.220  18.389  11.490
31156W        W96416  19.580  20.113  12.042
31157W        W96417   6.419  25.724   3.692
31158W        W96418  17.823  30.255  12.881
31159W        W96419  20.047   4.868  11.976
31160W        W96420  35.128  15.257   2.752
31161W        W96421  18.075  11.279   4.057
31162W        W96422   5.832  12.193   2.663
31163W        W96423  41.113   0.553   2.424
31164W        W96424   8.853  38.957   5.126
31165W        W96425  31.401  38.913  12.477
31166W        W96426  41.900  35.784  10.893
31167W        W96427  33.119  44.217  11.642
31168W        W96428  35.345  26.948   0.306
31169W        W96429   6.468  26.775   3.469
31170W        W96430  30.335   2.495  12.106
31171W        W96431   2.172  16.745   1.204
31172W        W96432  43.044  18.226  14.986
31173W        W96433  25.783  36.484  13.507
31174W        W96434  39.149   9.489  11.472
31175W        W96435  20.275   2.686  13.498
31176W        W96436   3.764  38.613   4.150
31177W        W96437   5.872  29.513   0.225
31178W        W96438  28.563  44.281  14.447
31179W        W96439  24.098   8.373  14.774
31180W        W96440   1.695  10.213  11.484
31181W        W96441  11.796  36.020   4.114
31182W        W96442  43.716  41.390   1.369
31183W        W96443  19.005  25.112   5.230
31184W        W96444   4.702   5.944   2.278
31185W        W96445   8.330   1.347  14.942
31186W        W96446   9.579  28.580  12.009
31187W        W96447  43.358  22.579  14.444
31188W        W96448  17.009  15.297  14.821
31189W        W96449  18.740  32.439   3.248
31190W        W96450  35.268   7.318   1.849
31191W        W96451  41.165  28.086   3.676
31192W        W96452  33.768   7.286   0.505
31193W        W96453  32.519  23.448  14.391
31194W        W96454  18.112  13.180  14.801
31195W        W96455  37.938  34.885   3.152
31196W        W96456  23.364  32.310   0.348
31197W        W96457  12.184  26.428  14.203
31198W        W96458  27.417  43.872   1.078
31199W        W96459  30.017  34.642  13.574
31200W        W96460  44.215   2.637   0.754
31201W        W96461  36.284  28.684  11.996
31202W        W96462  18.970  18.406   1.826
31203W        W96463  41.545  31.430  13.006
31204W        W96464  35.873   7.488   3.471
31205W        W96465  32.861  14.730   1.711
31206W        W96466  43.724  36.554   3.639
31207W        W96467   9.811  10.845  13.096
31208W        W96468  22.449  31.718   1.703
31209W        W96469  36.912  19.339   0.222
31210W        W96470  39.589  12.328  11.312
31211W        W96471  37.280  11.257  11.185
31212W        W96472   3.686   9.306   3.230
31213W        W96473  36.488  14.071  12.984
31214W        W96474   1.509  33.949   3.186
31215W        W96475  31.863   9.690   0.294
31216W        W96476  21.945  16.134  10.147
31217W        W96477  21.755  23.403  12.554
31218W        W96478  12.598  31.606   1.408
31219W        W96479  41.995  16.047  12.066
31220W        W96480  43.154  26.251  13.961
31221W        W96481   6.790  29.102   2.035
31222W        W96482  40.125  27.868   2.164
31223W        W96483  42.079   1.236  14.851
31224W        W96484  34.025   2.529  14.303
31225W        W96485  26.670  39.089  10.580
31226W        W96486  15.853   0.009   0.360
31227W        W96487  19.845  25.164  14.925
31228W        W96488   2.804  14.157   0.446
31229W        W96489   2.984  41.523   2.962
31230W        W96490  36.920  19.281  12.487
31231W        W96491  26.691  33.578  12.807
31232W        W96492  40.531  15.680  10.500
31233W        W96493   8.796  43.766   0.738
31234W        W96494  13.790  17.186  12.675
31235W        W96495  31.241   0.144  14.990
31236W        W96496  34.505   0.337   2.037
31237W        W96497  29.171  41.422  11.182
31238W        W96498  10.375   5.626   0.466
31239W        W96499  30.744  31.865   1.321
31240W        W96500  23.730  17.962  14.780
31241W        W96501   9.654   4.654  10.781
31242W        W96502  25.979  15.637   4.851
31243W        W96503  34.943  20.670  10.750
31244W        W96504  16.950  37.499  12.160
31245W        W96505  28.357   4.389   4.510
31246W        W96506   6.374  38.595   2.723
31247W        W96507  18.285   9.813  14.457
31248W        W96508  22.273  14.128  10.560
31249W        W96509  37.836  19.518   3.219
31250W        W96510  11.478  15.412   1.163
31251W        W96511  20.551  28.189  11.589
31252W        W96512  31.882   6.507  13.871
31253W        W96513  16.759  23.632  13.813
31254W        W96514   4.909  18.547  13.390
31255W        W96515  30.333  39.754   1.793
31256W        W96516  12.803  38.016   1.704
31257W        W96517  11.944  41.761   3.329
31258W        W96518  26.389  36.349  12.809
31259W        W96519  15.721  25.714   4.106
31260W        W96520  18.307   6.803  14.788
31261W        W96521  32.183  18.221  10.258
31262W        W96522  22.427  39.895  11.474
31263W        W96523   2.698   6.202   3.730
31264W        W96524   2.781  35.431   1.283
31265W        W96525  15.544   3.984   4.037
31266W        W96526  40.421  13.700   3.230
31267W        W96527  35.914  24.538  14.503
31268W        W96528  41.278  34.395   1.354
31269W        W96529  11.010   9.998   1.193
31270W        W96530  24.315  11.295  13.569
31271W        W96531   1.326  34.097  11.119
31272W        W96532  42.630  28.131   2.213
31273W        W96533  23.624   1.765   3.801
31274W        W96534   4.889  36.531   2.304
31275W        W96535  44.675   7.633   3.070
31276W        W96536  35.799  41.735   4.069
31277W        W96537  20.627   7.882   3.173
31278W        W96538  12.311   8.894   2.208
31279W        W96539  17.290  44.524   3.757
31280W        W96540  14.726  38.922  13.405
31281W        W96541  32.956  28.451   0.491
31282W        W96542  40.571  22.223   3.117
31283W        W96543  34.566  13.523   2.925
31284W        W96544  24.457  18.638  14.744
31285W        W96545  29.658  10.324  13.761
31286W        W96546  12.837   9.900  12.889
31287W        W96547  26.492  38.050  11.502
31288W        W96548  29.941  11.824  14.548
31289W        W96549  27.058   5.114   2.854
31290W        W96550   9.088  14.532   3.659
31291W        W96551   9.180  20.767  12.111
31292W        W96552  21.760  36.638  13.727
31293W        W96553   9.460  11.176   0.964
31294W        W96554  44.780  23.100  11.168
31295W        W96555  30.990  38.002   4.843
31296W        W96556  10.735  13.174   4.345
31297W        W96557   0.901   5.471  13.768
31298W        W96558   5.623  18.481  11.899
31299W        W96559  36.777  25.739  12.590
31300W        W96560  40.873   1.899  11.850
31301W        W96561   2.815   9.223  10.445
31302W        W96562  22.199  26.138  14.768
31303W        W96563  39.965  27.632   1.740
31304W        W96564   3.710  39.135  11.089
31305W        W96565  22.917  14.435  13.876
31306W        W96566  10.574  16.041  10.751
31307W        W96567   9.938  10.456  13.869
31308W        W96568  37.546  27.095   4.868
31309W        W96569  38.803  27.934  11.079
31310W        W96570  12.254  21.525   0.756
31311W        W96571  31.841  23.456   4.440
31312W        W96572  20.197  27.410   1.897
31313W        W96573   3.938  17.657  12.972
31314W        W96574  20.097  31.146   4.572
31315W        W96575  40.089  15.337   0.384
31316W        W96576  41.994  20.624  13.986
31317W        W96577  35.533   7.892   3.653
31318W        W96578  33.959  32.401  11.623
31319W        W96579  38.505  22.061   0.452
31320W        W96580  20.594   0.781   4.265
31321W        W96581  10.335  39.059   4.687
31322W        W96582  30.039  39.426   1.019
31323W        W96583  44.003   3.380  10.951
31324W        W96584  21.460  15.640   4.252
31325W        W96585  13.787  27.978   4.873
31326W        W96586  38.354  38.643  10.987
31327W        W96587  19.330  44.977   2.767
31328W        W96588  28.644  18.781  14.882
31329W        W96589   9.362  18.569  13.276
31330W        W96590  19.531  35.169  11.170
31331W        W96591   5.940  31.471   0.741
31332W        W96592  10.058  25.500  14.429
31333W        W96593  15.095  28.221  11.806
31334W        W96594   0.740  44.768   3.204
31335W        W96595   0.487  13.544   0.199
31336W        W96596  26.734  16.697   1.798
31337W        W96597  35.884  21.145  13.986
31338W        W96598  21.723  41.516  12.112
31339W        W96599  15.657  19.236   0.976
31340W        W96600  38.125   3.267   2.609
31341W        W96601  29.164  17.667   0.543
31342W        W96602  17.590  24.724   3.666
31343W        W96603  38.860  11.827  14.305
31344W        W96604  20.806   5.167   2.784
31345W        W96605  16.813  38.006   3.202
31346W        W96606   9.815   0.445   3.716
31347W        W96607  34.867  10.231   3.260
31348W        W96608  29.404  40.324  14.067
31349W        W96609  44.331   1.495  10.351
31350W        W96610  19.725  21.144   3.712
31351W        W96611   2.046  37.306  10.737
31352W        W96612  36.560  12.879  14.408
31353W        W96613  37.413   1.922  12.570
31354W        W96614  31.585   4.047   4.719
31355W        W96615   9.142  34.012  11.549
31356W        W96616  20.990   4.764  11.860
31357W        W96617   1.049  11.131  11.112
31358W        W96618  31.025  19.203  10.618
31359W        W96619  27.934   8.007  11.948
31360W        W96620   5.930  39.929   1.229
31361W        W96621   8.775  20.468  13.911
31362W        W96622  35.035  33.341  11.605
31363W        W96623  34.020  32.644  14.810
31364W        W96624   7.291   1.523   1.215
31365W        W96625  10.747   1.025  11.601
31366W        W96626  27.783  40.440   3.516
31367W        W96627  19.769   6.209  11.656
31368W        W96628   3.005  40.673   0.207
31369W        W96629  34.057   9.217  11.603
31370W        W96630  24.985  29.499   4.367
31371W        W96631  41.419   6.285   4.002
31372W        W96632  24.968  32.006  12.456
31373W        W96633  20.060  27.503  10.602
31374W        W96634  17.920  32.646  12.787
31375W        W96635  37.807  30.124   3.195
31376W        W96636  29.689  27.715   3.585
31377W        W96637  41.520  40.465   1.038
31378W        W96638   5.205  15.609  11.628
31379W        W96639  27.694   0.538  11.659
31380W        W96640   3.808  10.646  13.940
31381W        W96641  19.131  29.866   4.570
31382W        W96642  41.154  34.630   1.811
31383W        W96643  36.347  13.177   0.335
31384W        W96644  37.914  42.897  11.259
31385W        W96645  17.573   7.864  14.296
31386W        W96646  18.338  29.230  12.036
31387W        W96647   0.764   7.770  13.959
31388W        W96648  11.651   8.361   4.042
31389W        W96649   4.357  40.887  11.915
31390W        W96650  12.570  42.365   4.906
31391W        W96651   2.223  34.459   3.444
31392W        W96652  23.781  29.525  13.059
31393W        W96653   1.524  17.707   1.240
31394W        W96654  28.744  14.187  12.944
31395W        W96655  35.453  38.641   1.411
31396W        W96656  20.585   2.385   0.805
31397W        W96657   3.681  32.607   3.663
31398W        W96658  24.238  21.253   0.451
31399W        W96659   8.306  20.699   3.646
31400W        W96660  44.484  12.462  14.448
31401W        W96661  33.097  43.437  13.902
31402W        W96662  27.089  13.411  10.709
31403W        W96663  42.726  26.212  12.905
31404W        W96664  18.332  15.120   2.157
31405W        W96665   0.892   2.291   0.680
31406W        W96666  18.095   1.636  14.723
31407W        W96667  43.319   4.935  13.971
31408W        W96668  11.886  24.531  10.567
31409W        W96669  22.181   5.033  14.544
31410W        W96670  42.923  22.471  12.681
31411W        W96671  20.931  30.805  14.373
31412W        W96672  18.921  42.407  10.372
31413W        W96673  42.289  42.478  12.892
31414W        W96674  38.652   7.932   3.841
31415W        W96675   7.524   7.005   3.791
31416W        W96676  18.117  41.346   1.319
31417W        W96677   0.462  20.813   2.359
31418W        W96678  35.799   8.332  11.879
31419W        W96679  14.141  24.667   2.749
31420W        W96680  41.885   1.232   0.904
31421W        W96681   5.430  14.578   2.400
31422W        W96682  42.377  25.656   3.137
31423W        W96683   3.850  31.154  12.628
31424W        W96684  42.888  23.230  11.827
31425W        W96685  37.075  24.524  13.095
31426W        W96686  25.815  32.069  11.478
31427W        W96687   2.732  42.947  12.519
31428W        W96688  34.985   4.435   3.248
31429W        W96689  14.284  37.472  10.510
31430W        W96690  24.272  32.240   0.331
31431W        W96691   6.140  28.813   0.493
31432W        W96692  27.302   4.292  12.792
31433W        W96693  43.023  12.974   4.740
31434W        W96694  41.129  39.065   0.803
31435W        W96695  37.090  13.304   4.245
31436W        W96696  30.110  23.604  13.959
31437W        W96697  35.777  29.101   4.627
31438W        W96698  10.681  17.266   2.703
31439W        W96699  21.782   3.268   0.798
31440W        W96700  42.525  26.248   0.440
31441W        W96701   2.942  21.842  12.553
31442W        W96702  23.279   1.305   5.345
31443W        W96703  33.716   2.709  11.429
31444W        W96704  25.500  25.321  11.012
31445W        W96705  23.288  29.025   3.146
31446W        W96706  23.287   0.864   0.750
31447W        W96707   5.908  25.975   5.463
31448W        W96708  17.740   8.767  13.830
31449W        W96709  16.725   4.731  13.023
31450W        W96710  11.425  15.448   0.375
31451W        W96711  32.921  13.818  14.571
31452W        W96712  25.909  25.584   4.087
31453W        W96713  31.557  23.925   2.340
31454W        W96714   3.700  44.535   4.281
31455W        W96715  17.108  36.477   0.214
31456W        W96716   2.208  42.310  12.545
31457W        W96717  12.817  41.040   1.870
31458W        W96718  36.450  12.627   4.626
31459W        W96719  14.776  15.936  12.155
31460W        W96720  15.132  13.490  13.900
31461W        W96721  43.901  13.250  12.629
31462W        W96722  40.540  17.437  11.650
31463W        W96723  14.816   1.507   3.807
31464W        W96724  16.583  19.114  12.875
31465W        W96725  42.734   3.379   4.476
31466W        W96726   7.219  11.915  12.284
31467W        W96727  31.877  27.580   0.290
31468W        W96728  35.845  19.486   2.293
31469W        W96729  14.386  20.283   0.949
31470W        W96730  26.532  31.237   0.423
31471W        W96731  14.476   8.349   1.733
31472W        W96732   7.698  17.714   0.091
31473W        W96733  21.022  18.582  11.876
31474W        W96734  14.172  18.242   0.003
31475W        W96735  14.764  32.499   4.647
31476W        W96736  13.281  30.116  10.438
31477W        W96737  43.229  17.628   2.751
31478W        W96738  38.446  30.541   2.621
31479W        W96739  17.954  32.154   0.298
31480W        W96740  41.111  22.354  14.323
31481W        W96741  21.183   2.523   4.563
31482W        W96742  21.988   2.741  13.026
31483W        W96743  40.523  35.047   5.041
31484W        W96744  21.510  34.602   1.405
31485W        W96745   8.714  41.346   1.474
31486W        W96746  25.626  28.087   2.621
31487W        W96747  29.418  26.174   0.349
31488W        W96748   0.851  21.787  12.104
31489W        W96749  24.837  11.099   3.439
31490W        W96750  28.331  30.222   1.830
31491W        W96751  12.756   6.647   0.355
31492W        W96752  37.477  24.434   4.278
31493W        W96753  37.183  16.496  12.089
31494W        W96754  19.193  23.492  10.152
31495W        W96755  10.941  20.104   0.378
31496W        W96756   6.197  25.088  10.664
31497W        W96757  21.997  40.672  11.894
31498W        W96758  40.115   1.711  10.180
31499W        W96759   7.319  29.395   0.319
31500W        W96760  35.582  22.089  10.774
31501W        W96761   4.669  36.122   1.254
31502W        W96762  33.810  24.475   0.263
31503W        W96763  28.527  14.998   2.159
31504W        W96764  22.467  44.858   1.770
31505W        W96765  35.072  23.807   4.198
31506W        W96766  42.868   7.400  12.996
31507W        W96767  34.450   9.953  13.492
31508W        W96768  30.640  42.031   3.809
31509W        W96769  10.286   1.876   4.106
31510W        W96770  15.733   5.441  12.478
31511W        W96771  38.427  32.507   0.444
31512W        W96772  43.739  35.033  13.425
31513W        W96773  35.465  44.513   3.518
31514W        W96774  30.213   2.171  11.175
31515W        W96775  31.160   1.872  13.133
31516W        W96776  39.600   2.622  12.891
31517W        W96777   6.191  19.988  10.498
31518W        W96778  33.631  41.913   0.562
31519W        W96779  41.019  22.389  12.505
31520W        W96780  41.344  24.831   3.046
31521W        W96781  30.347  29.500   4.087
31522W        W96782  36.963  21.026  12.857
31523W        W96783  31.566   3.182   2.100
31524W        W96784   6.859  40.431   2.356
31525W        W96785   8.170   7.195   0.911
31526W        W96786  20.578  35.473  10.618
31527W        W96787  26.756   8.957   1.598
31528W        W96788  44.207  42.396   1.681
31529W        W96789  27.412   2.790  14.261
31530W        W96790  43.370  29.127  14.594
31531W        W96791   5.706   3.442   4.113
31532W        W96792  42.920  16.622  11.900
31533W        W96793  29.486   0.126   4.029
31534W        W96794  13.959  15.299  10.936
31535W        W96795   1.890  15.770  14.859
31536W        W96796  34.472  13.117   2.178
31537W        W96797  14.239  44.465   3.158
31538W        W96798  18.554   8.297  12.439
31539W        W96799  34.951  26.007   9.576
31540W        W96800  16.812  22.828   3.230
31541W        W96801  44.169  24.647  10.979
31542W        W96802  36.478  36.781   0.027
31543W        W96803  10.829  21.495   3.593
31544W        W96804  25.933  14.195   0.902
31545W        W96805  15.088  23.596   2.809
31546W        W96806  34.536  29.075  12.368
31547W        W96807  14.193  14.250  11.688
31548W        W96808  22.756  43.814  11.977
31549W        W96809  33.470  39.351   1.627
31550W        W96810  20.743  24.742   3.607
31551W        W96811  28.593  16.772   1.726
31552W        W96812  27.685  23.133  11.170
31553W        W96813  15.152  37.201   2.959
31554W        W96814  10.673  13.607   0.368
31555W        W96815  17.037   4.685   1.256
31556W        W96816   3.268  38.548   4.288
31557W        W96817  44.404  11.809   2.845
31558W        W96818  12.873  22.121  14.724
31559W        W96819  14.432  38.002   4.149
31560W        W96820  29.668  30.442   0.937
31561W        W96821  16.570  43.766  12.979
31562W        W96822  35.546   5.130   1.401
31563W        W96823  44.688  27.045   4.484
31564W        W96824  18.995  13.139  13.854
31565W        W96825  34.224   6.729   1.968
31566W        W96826  19.179  27.683   2.822
31567W        W96827  39.513  15.673  14.814
31568W        W96828  11.708  41.897   2.823
31569W        W96829   4.366  28.332   5.013
31570W        W96830   1.659  22.102  14.441
31571W        W96831   7.295   3.019   0.522
31572W        W96832  34.869  15.317   2.290
31573W        W96833  17.100  28.636   2.854
31574W        W96834   1.452  39.320  11.165
31575W        W96835  35.405  20.503   0.416
31576W        W96836   3.375  14.326   0.527
31577W        W96837  30.975   4.359  12.444
31578W        W96838  22.434  23.052   3.256
31579W        W96839  13.881   9.504  14.947
31580W        W96840   0.905  20.011  13.020
31581W        W96841   0.628  36.278  14.451
31582W        W96842  34.140  24.163   4.382
31583W        W96843   3.715  18.822   2.132
31584W        W96844  11.050  20.243  11.365
31585W        W96845  36.393  31.612   0.982
31586W        W96846  43.474  44.909  13.531
31587W        W96847  33.098   3.910  14.783
31588W        W96848  42.178  29.518   0.864
31589W        W96849  44.226  32.005   2.242
31590W        W96850   4.638  16.068  11.160
31591W        W96851   7.341  26.046  11.970
31592W        W96852  36.205   6.182   2.143
31593W        W96853  29.652  24.600  14.941
31594W        W96854  15.317  41.599   0.330
31595W        W96855  18.494  16.172  13.997
31596W        W96856   0.443  17.658  11.251
31597W        W96857  19.048  38.518   4.856
31598W        W96858  34.684  24.679   4.898
31599W        W96859  20.839   9.798  11.125
31600W        W96860  42.271  31.035   0.806
31601W        W96861  41.916  41.299   0.751
31602W        W96862  26.953   7.963  10.684
31603W        W96863  17.771  16.129   0.665
31604W        W96864  39.723  15.295  10.563
31605W        W96865  22.210  17.645  14.060
31606W        W96866  38.289  37.414  13.901
31607W        W96867   8.778  16.715   3.155
31608W        W96868  42.048  20.127   4.763
31609W        W96869  11.600  16.781  13.283
31610W        W96870  28.950  25.004   1.556
31611W        W96871  11.016  14.472   1.907
31612W        W96872  25.716  20.172  14.822
31613W        W96873  14.751  23.480   0.834
31614W        W96874  34.034  14.269  13.394
31615W        W96875  18.232  30.011   1.401
31616W        W96876  18.069  33.110  10.759
31617W        W96877   0.989  26.035   1.815
31618W        W96878  23.025  16.627   0.811
31619W        W96879  13.395  43.331   3.774
31620W        W96880  23.382   2.235   2.086
31621W        W96881  13.373  19.498   1.353
31622W        W96882  27.828  19.035   2.501
31623W        W96883   8.660  43.013  13.465
31624W        W96884   5.653  43.919   2.829
31625W        W96885  43.493  33.973   0.399
31626W        W96886  23.784  21.748   1.782
31627W        W96887  23.609  39.483  12.002
31628W        W96888  20.556  28.483   0.957
31629W        W96889   0.393   9.919   3.794
31630W        W96890  25.927   6.498   3.993
31631W        W96891  32.180  20.814  12.364
31632W        W96892  13.197  33.323  12.840
31633W        W96893  44.717  24.421   1.393
31634W        W96894  43.302  35.072  10.685
31635W        W96895  28.949  39.857  14.821
31636W        W96896  15.669  19.094  10.719
31637W        W96897   0.492  43.927   0.335
31638W        W96898  14.150  44.014   0.181
31639W        W96899   2.195  34.874   0.652
31640W        W96900  41.910  19.639  13.331
31641W        W96901  43.881  14.194   0.058
31642W        W96902   0.994  36.003   2.830
31643W        W96903  43.611   8.165   1.396
31644W        W96904   7.654  18.930  10.840
31645W        W96905  41.781  43.063  13.417
31646W        W96906  25.063  16.214   3.256
31647W        W96907  10.631  28.544   4.093
31648W        W96908  13.378  34.646  10.647
31649W        W96909   0.452  16.160  14.432
31650W        W96910  15.297   4.714  14.162
31651W        W96911  39.041   4.955   2.898
31652W        W96912  30.839  13.057   1.319
31653W        W96913   0.012  14.426   4.477
31654W        W96914  17.365  26.746  12.458
31655W        W96915   9.433  32.173   3.820
31656W        W96916  27.546  28.985  10.526
31657W        W96917   3.301   7.406  12.050
31658W        W96918  28.196  11.981  13.486
31659W        W96919  14.310  40.344  14.237
31660W        W96920  27.027  37.538   3.195
31661W        W96921  18.772  14.025   2.956
31662W        W96922  19.531  35.429   3.025
31663W        W96923  19.621   5.364   2.124
31664W        W96924  14.254   5.011   3.630
31665W        W96925  37.974   2.468  14.940
31666W        W96926  21.202  12.273   3.697
31667W        W96927  11.288   6.224  12.415
31668W        W96928  30.504  28.719   2.084
31669W        W96929  43.090   3.370  14.481
31670W        W96930   6.956  18.879  14.977
31671W        W96931  43.874   4.708   3.126
31672W        W96932  24.483  22.853   3.662
31673W        W96933  44.309   9.223  12.856
31674W        W96934  32.539   9.871   0.027
31675W        W96935   3.220   6.239   1.346
31676W        W96936  32.985   1.019  14.689
31677W        W96937   6.218  39.892   2.144
31678W        W96938  36.845   2.869  11.537
31679W        W96939  23.215   7.884   0.256
31680W        W96940   1.517  33.831   0.305
31681W        W96941  32.662  36.546   4.389
31682W        W96942  13.760  11.859  12.507
31683W        W96943  17.630  25.679  13.466
31684W        W96944  28.401  12.370   1.935
31685W        W96945  20.750  11.258  11.989
31686W        W96946   0.926   3.343   1.560
31687W        W96947   3.928  12.551   4.259
31688W        W96948  34.919  36.422   1.867
31689W        W96949  14.065   0.958   0.353
31690W        W96950  15.067  12.375   1.765
31691W        W96951   8.251   0.274   4.654
31692W        W96952  21.966  34.999  11.923
31693W        W96953  29.979  33.769  10.996
31694W        W96954  14.034  36.458   1.704
31695W        W96955  27.983  38.200   2.620
31696W        W96956   7.744  19.680   3.368
31697W        W96957  25.258  35.646  12.193
31698W        W96958  43.986  28.117  11.533
31699W        W96959  44.086  39.496  13.502
31700W        W96960   4.196  23.009   3.638
31701W        W96961   9.195  39.423  14.920
31702W        W96962   5.905  10.280  14.268
31703W        W96963  14.204  30.130  13.440
31704W        W96964  24.727  34.810  12.229
31705W        W96965  24.615  40.477  12.801
31706W        W96966  32.625   8.799  13.880
31707W        W96967  19.427  23.750  13.747
31708W        W96968  14.730  13.382   1.455
31709W        W96969  21.931  29.874   2.260
31710W        W96970  41.249  34.804  11.495
31711W        W96971  18.035   7.901   2.922
31712W        W96972  24.580   9.524   0.554
31713W        W96973  21.215   6.328  13.586
31714W        W96974  39.467  16.188   2.420
31715W        W96975  27.949   7.203  11.025
31716W        W96976  42.376   4.905  14.926
31717W        W96977  41.580  34.891   1.739
31718W        W96978   4.697  41.254   3.287
31719W        W96979  42.455  21.023  12.626
31720W        W96980   0.657  39.870  12.867
31721W        W96981  31.566  16.108   2.850
31722W        W96982  14.525  28.469   3.105
31723W        W96983   6.469  42.520   3.657
31724W        W96984  18.601  22.910   0.689
31725W        W96985  35.510  41.289  14.745
31726W        W96986   8.150  22.102  12.829
31727W        W96987  16.126  19.898  12.162
31728W        W96988  27.161  11.321   2.657
31729W        W96989  14.502   4.913   1.669
31730W        W96990   8.819  15.648  14.206
31731W        W96991  23.482  18.653   1.815
31732W        W96992  33.955  29.611  14.782
31733W        W96993  18.066   7.362   2.636
31734W        W96994  43.533  31.904   2.718
31735W        W96995   7.554  16.240  14.480
31736W        W96996  25.138   5.152  14.765
31737W        W96997  42.354  40.917  11.239
31738W        W96998  43.263  12.143   3.036
31739W        W96999   0.095  14.883   2.239
31740W        W97000   7.295  30.446   0.333
31741W        W97001  41.805  36.763   2.415
31742W        W97002   7.978  22.455   0.305
31743W        W97003  12.925  43.014   0.716
31744W        W97004  12.146   4.944  14.559
31745W        W97005   9.810   6.911  13.424
31746W        W97006  39.944  26.142  11.602
31747W        W97007   2.404  33.289   0.990
31748W        W97008  12.815  32.190  13.820
31749W        W97009  39.905   0.447   2.659
31750W        W97010   7.789  16.955   3.169
31751W        W97011  14.742   7.868  14.960
31752W        W97012   3.868  35.473   0.405
31753W        W97013  12.135  41.414   0.964
31754W        W97014  29.086  19.575   3.117
31755W        W97015  41.023  32.230  11.622
31756W        W97016   1.918  40.508   2.435
31757W        W97017  44.100  29.406  12.956
31758W        W97018   3.812   3.423   4.060
31759W        W97019  22.637   5.186   0.915
31760W        W97020  13.738   1.281   3.162
31761W        W97021  40.587  11.461  12.439
31762W        W97022  27.503  36.076   3.965
31763W        W97023   4.542   6.426   5.087
31764W        W97024  44.575   0.267  12.057
31765W        W97025  41.797  40.055   4.828
31766W        W97026   3.938  11.859   2.400
31767W        W97027  39.199  41.548  11.968
31768W        W97028  38.528   7.260   1.259
31769W        W97029  32.639   6.897   1.306
31770W        W97030   0.815  33.870  12.446
31771W        W97031  31.648  27.581   4.652
31772W        W97032   9.795  21.966  12.024
31773W        W97033   2.706  15.637  11.683
31774W        W97034  31.608  10.208   2.874
31775W        W97035  29.068  28.704  10.333
31776W        W97036  40.612   6.269   2.610
31777W        W97037  24.927  32.693   2.280
31778W        W97038   4.803  28.114   3.830
31779W        W97039   0.408  12.532   2.439
31780W        W97040  20.174  19.878   0.384
31781W        W97041  41.419  14.797   2.863
31782W        W97042  22.043   1.586   5.010
31783W        W97043  17.795  20.847  12.364
31784W        W97044   4.709   3.707  13.295
31785W        W97045  41.487  34.283  12.495
31786W        W97046   4.305  23.553   1.892
31787W        W97047  27.742  33.937   1.725
31788W        W97048  10.478  36.450   1.730
31789W        W97049  40.064  25.978   1.721
31790W        W97050  26.026  40.066   1.650
31791W        W97051  26.905  10.256  14.485
31792W        W97052  13.730  33.863   4.632
31793W        W97053  41.780  26.190  14.374
31794W        W97054  31.068  42.322  13.151
31795W        W97055  18.224   6.739  12.887
31796W        W97056  44.897   1.008   1.949
31797W        W97057  13.187  29.041   4.367
31798W        W97058  15.633   0.201   2.213
31799W        W97059  35.392  11.256  11.275
31800W        W97060   5.530  34.937   3.448
31801W        W97061  15.292   0.162  11.110
31802W        W97062  29.014  16.206   4.735
31803W        W97063   3.361  14.959  14.176
31804W        W97064  32.387  22.290   5.086
31805W        W97065  26.494  43.055  12.485
31806W        W97066  26.775   1.964   3.164
31807W        W97067   2.926   1.934  12.040
31808W        W97068   5.324  18.076  13.997
31809W        W97069   8.557  32.150  11.165
31810W        W97070  21.587  35.398   3.700
31811W        W97071  36.428  36.981   2.246
31812W        W97072  30.630  32.854  14.510
31813W        W97073   5.250  39.063  14.613
31814W        W97074  34.641  28.895  13.399
31815W        W97075   9.197  41.212  12.620
31816W        W97076  33.481   8.961   4.222
31817W        W97077  28.579  42.240  11.124
31818W        W97078  31.575  24.009   1.781
31819W        W97079  41.207  21.458  12.657
31820W        W97080   9.892  43.169   1.179
31821W        W97081  35.119   8.396   5.092
31822W        W97082  40.076  44.721   2.235
31823W        W97083  15.850  32.415   3.311
31824W        W97084   0.532   7.308  13.813
31825W        W97085  19.091   6.893  12.361
31826W        W97086  22.609  40.211  11.099
31827W        W97087  28.783  31.045   3.636
31828W        W97088  26.631  21.153  10.906
31829W        W97089   0.363  19.669   1.633
31830W        W97090   6.803  28.542   4.000
31831W        W97091  27.597  23.467  13.638
31832W        W97092   8.986  12.261  14.544
31833W        W97093  42.766   2.306  14.911
31834W        W97094  33.499  42.898   4.206
31835W        W97095  24.761  30.117   1.254
31836W        W97096  42.734  35.477  13.097
31837W        W97097  22.322  19.331  13.502
31838W        W97098  35.767  33.123   1.864
31839W        W97099  23.668  40.466  13.351
31840W        W97100  44.837  16.257  12.991
31841W        W97101  21.590  28.219  11.574
31842W        W97102   5.316  20.134  12.131
31843W        W97103  38.834  20.108  14.382
31844W        W97104   5.430  17.731  14.403
31845W        W97105  21.433  43.998  14.899
31846W        W97106   0.084   4.837  13.747
31847W        W97107  34.594  15.968   1.695
31848W        W97108   3.903  38.067   0.958
31849W        W97109  16.336  13.079  12.405
31850W        W97110  31.428   3.391  11.735
31851W        W97111   7.191  16.382   0.890
31852W        W97112  10.858  18.627   1.411
31853W        W97113  13.044  38.830   1.960
31854W        W97114  19.225   1.381  13.963
31855W        W97115  22.569  15.625  12.950
31856W        W97116  25.421  33.000   3.324
31857W        W97117  24.402   3.207   1.769
31858W        W97118  44.342  12.615  12.143
31859W        W97119  39.932  44.426  12.001
31860W        W97120  17.616   4.378   2.735
31861W        W97121  33.027  31.995  11.121
31862W        W97122   1.445  35.861   3.086
31863W        W97123  16.624  40.143  12.829
31864W        W97124  17.522  17.099   1.827
31865W        W97125  40.297   8.268   1.452
31866W        W97126  12.842  20.801   0.704
31867W        W97127   0.432  44.905   0.154
31868W        W97128  21.982  10.722   2.413
31869W        W97129   3.369  15.254   4.667
31870W        W97130   5.015  42.874  10.374
31871W        W97131  30.647  30.966  14.472
31872W        W97132  25.639  43.630  12.338
31873W        W97133  43.299   0.565   0.873
31874W        W97134   5.492  17.067  11.113
31875W        W97135  40.015   1.490  13.335
31876W        W97136  13.750   4.809   3.563
31877W        W97137  40.539  44.081   2.652
31878W        W97138  38.573  20.258   0.660
31879W        W97139  34.567  22.493   0.925
31880W        W97140  12.342  40.789   3.679
31881W        W97141  40.359  17.738  12.087
31882W        W97142  14.523   2.404   1.802
31883W        W97143   7.741  44.922  13.452
31884W        W97144  13.691  27.117  12.327
31885W        W97145   7.959  38.731   3.559
31886W        W97146   3.684  21.285   0.531
31887W        W97147  10.701  21.303  12.968
31888W        W97148  32.960   1.843   1.372
31889W        W97149  31.126  11.340   3.568
31890W        W97150  14.658  34.932   3.590
31891W        W97151  12.466  38.597   0.842
31892W        W97152   4.876  34.107   1.831
31893W        W97153  14.099   4.660  14.482
31894W        W97154  36.530  34.796   0.352
31895W        W97155  44.011  40.719  12.180
31896W        W97156   8.133  18.202  13.008
31897W        W97157   3.028  41.910  12.366
31898W        W97158  44.245   6.312  10.393
31899W        W97159  12.836  29.895  12.812
31900W        W97160  11.006  41.788  13.094
31901W        W97161  40.828  10.403   1.311
31902W        W97162  22.783  40.464  10.679
31903W        W97163  34.987  14.578  11.660
31904W        W97164  12.839  41.792  13.783
31905W        W97165  40.285  27.649   0.366
31906W        W97166   4.126  33.976   4.746
31907W        W97167   4.767  30.430  14.530
31908W        W97168  14.659  15.542  10.674
31909W        W97169  18.966   3.250   1.264
31910W        W97170  41.900  30.922   3.278
31911W        W97171  44.522  31.372  12.173
31912W        W97172  24.280  28.111   4.929
31913W        W97173  38.931  44.568  11.954
31914W        W97174  29.115  35.987   4.214
31915W        W97175  14.694  28.872  12.102
31916W        W97176  43.410  29.491  12.175
31917W        W97177  25.108  10.140   0.299
31918W        W97178   8.922   0.286  13.063
31919W        W97179  27.140  42.222  11.841
31920W        W97180  31.014  26.157   1.579
31921W        W97181  23.057  28.687   1.451
31922W        W97182   5.807  15.535   1.672
31923W        W97183  19.349  14.330  14.370
31924W        W97184  14.487  14.539  12.580
31925W        W97185  26.653   2.487   0.446
31926W        W97186  26.020   6.335   0.835
31927W        W97187   8.475   8.890  14.446
31928W        W97188   9.807  12.915  11.014
31929W        W97189  37.871  22.422  14.865
31930W        W97190  29.133  41.247  10.702
31931W        W97191  12.383  15.997   3.214
31932W        W97192  34.354  26.762  12.951
31933W        W97193  19.805  28.647   2.774
31934W        W97194  35.867  36.628  12.948
31935W        W97195  37.825  30.975   3.554
31936W        W97196  31.977   1.545   4.195
31937W        W97197  33.993  19.287  13.785
31938W        W97198   4.004  41.489   0.861
31939W        W97199  21.038  16.773  11.547
31940W        W97200  12.329  30.497   3.093
31941W        W97201  33.586  20.499   0.273
31942W        W97202  39.083  41.424  13.519
31943W        W97203  17.503   5.646  11.182
31944W        W97204   3.334  43.751  13.610
31945W        W97205   8.685  44.445  10.719
31946W        W97206  27.680  27.173  13.619
31947W        W97207  31.657  32.400  11.911
31948W        W97208  20.163  17.019   2.318
31949W        W97209  29.142  28.434   1.644
31950W        W97210  44.023  39.847   2.688
31951W        W97211  43.362   4.925  10.511
31952W        W97212   8.899  16.655   4.597
31953W        W97213   8.383   1.802   3.147
31954W        W97214  38.297   5.787  13.928
31955W        W97215  14.789  27.631  14.741
31956W        W97216  37.884  44.826   4.343
31957W        W97217  22.156  19.592   5.116
31958W        W97218  40.982  42.768   1.368
31959W        W97219  43.997  33.870   2.254
31960W        W97220   8.096  26.243   1.888
31961W        W97221   8.430  37.550  10.634
31962W        W97222  16.648  11.264   4.641
31963W        W97223  16.199  25.593  12.086
31964W        W97224  19.111   0.377  14.753
31965W        W97225  24.207   1.575  13.850
31966W        W97226  13.047  29.855   1.735
31967W        W97227  30.108  28.031  14.401
31968W        W97228  12.017  23.173  14.972
31969W        W97229   7.310   0.717   3.638
31970W        W97230  23.062  38.925   1.603
31971W        W97231  20.794  33.612  14.395
31972W        W97232  12.100  40.040   2.257
31973W        W97233  10.422   9.272  13.061
31974W        W97234  33.626  41.340  10.740
31975W        W97235   3.249   9.118   2.334
31976W        W97236   8.851  20.588   0.946
31977W        W97237   6.326  36.520  10.651
31978W        W97238   3.259   1.129   4.678
31979W        W97239  30.187   9.247   2.222
31980W        W97240  28.708   6.723  11.225
31981W        W97241  18.411  12.315   2.396
31982W        W97242  17.630  35.921  11.007
31983W        W97243  26.579  31.648  11.990
31984W        W97244   3.022  14.199   0.920
31985W        W97245   5.402   4.946   2.799
31986W        W97246   2.146  19.107  13.938
31987W        W97247  18.348  29.183   0.317
31988W        W97248   3.671  38.462   4.628
31989W        W97249  44.219  44.830   0.743
31990W        W97250  18.797  20.807   9.955
31991W        W97251  28.003  18.024  13.064
31992W        W97252  14.586   2.358  11.118
31993W        W97253   3.359  42.697  14.920
31994W        W97254  35.626  25.158   1.169
31995W        W97255   8.715   9.288   0.377
31996W        W97256   0.986   7.752  10.757
31997W        W97257  31.927  38.653   2.735
31998W        W97258  44.961  33.449  11.011
31999W        W97259  24.280  42.900   1.280
32000W        W97260  20.317  16.571   3.337
32001W        W97261   8.146  16.752   2.834
32002W        W97262   7.939  10.452   1.807
32003W        W97263  34.980  22.520  14.802
32004W        W97264  11.831  27.553  12.032
32005W        W97265   4.860  38.539  13.927
32006W        W97266  43.412  41.824  10.372
32007W        W97267  32.191  23.437  13.987
32008W        W97268  27.436  40.775  14.463
32009W        W97269  28.444  18.170   4.226
32010W        W97270  10.708  30.189  14.358
32011W        W97271  38.268  26.162  14.311
32012W        W97272   0.194  19.567   0.684
32013W        W97273  17.460   8.924  10.369
32014W        W97274  33.429  12.706  13.012
32015W        W97275  37.873  34.637   0.313
32016W        W97276  36.287   4.410   1.846
32017W        W97277  23.666   8.670  13.574
32018W        W97278   6.761   0.650  11.150
32019W        W97279   6.058  36.141   4.880
32020W        W97280  18.164  25.211  10.736
32021W        W97281  43.777  38.384  10.861
32022W        W97282   0.544  27.519  13.962
32023W        W97283  14.369  22.258  13.431
32024W        W97284  38.570  38.542  12.389
32025W        W97285   4.954   8.073   3.266
32026W        W97286  27.497  32.642  13.380
32027W        W97287  27.910  37.414   0.287
32028W        W97288  27.525  38.789   1.798
32029W        W97289  34.032   8.881   1.343
32030W        W97290  17.992  31.196   3.405
32031W        W97291  36.689  11.757  14.931
32032W        W97292  17.358  23.108   2.384
32033W        W97293  27.234   7.889  13.835
32034W        W97294  24.033  42.478   2.586
32035W        W97295  15.324  19.676  12.726
32036W        W97296   7.858  13.926   1.184
32037W        W97297  12.021  36.877  12.069
32038W        W97298  10.934  29.858   9.659
32039W        W97299  12.068  38.965   0.752
32040W        W97300   9.332  44.533  14.995
32041W        W97301  26.888  39.849   3.980
32042W        W97302  10.895  19.588  13.486
32043W        W97303   4.443  19.051   4.096
32044W        W97304  41.317  16.556  10.736
32045W        W97305  33.012  25.777  12.037
32046W        W97306  15.759  10.101  11.985
32047W        W97307  29.619  23.032  10.930
32048W        W97308   0.397   0.719   3.300
32049W        W97309  23.783  36.750  10.780
32050W        W97310  37.404  36.157  10.301
32051W        W97311  14.223  42.448  12.616
32052W        W97312  13.701  43.622  10.770
32053W        W97313  15.815   7.273   4.152
32054W        W97314  13.889  31.537   0.910
32055W        W97315  43.556   5.021   0.862
32056W        W97316  30.418   1.241  13.076
32057W        W97317  16.699  26.978   3.523
32058W        W97318  39.416  24.516  12.158
32059W        W97319   6.644  42.328   1.704
32060W        W97320  39.603  41.884  14.105
32061W        W97321  24.418  41.313   2.315
32062W        W97322  36.900  37.450  11.502
32063W        W97323  14.210  43.718   0.648
32064W        W97324  26.602  26.113  10.320
32065W        W97325  12.846   0.348   2.162
32066W        W97326  11.203  10.322  14.378
32067W        W97327  14.199  26.057   0.529
32068W        W97328   5.873  30.133   1.449
32069W        W97329  15.391  20.589  12.429
32070W        W97330  41.755  39.400  14.575
32071W        W97331  36.155  24.090  14.430
32072W        W97332  21.675   1.961   2.813
32073W        W97333   6.574  23.749  14.128
32074W        W97334  43.004   6.257   2.015
32075W        W97335  26.056  23.820   2.831
32076W        W97336   0.410  31.628  11.646
32077W        W97337  11.360  11.037  14.884
32078W        W97338  15.885   6.774  11.872
32079W        W97339  41.386   5.953  12.964
32080W        W97340  28.605   1.334  14.856
32081W        W97341   0.445  25.431  14.586
32082W        W97342   6.560   8.994   5.009
32083W        W97343  39.056  16.820  12.430
32084W        W97344  25.369  36.795  12.170
32085W        W97345  39.045  27.444   3.330
32086W        W97346  36.220  18.254   0.400
32087W        W97347  26.573  44.796   1.063
32088W        W97348  11.676  22.645  10.351
32089W        W97349  22.650  14.289  11.136
32090W        W97350   0.873  21.248  12.131
32091W        W97351  42.094  37.940  12.660
32092W        W97352  42.046   0.376  12.503
32093W        W97353   4.355   7.841  12.954
32094W        W97354  22.229  29.897   4.108
32095W        W97355   5.008   4.807   3.355
32096W        W97356  25.091   6.283  14.757
32097W        W97357  36.099  35.983  11.587
32098W        W97358  28.523  26.379  13.961
32099W        W97359  16.250  16.989  10.660
32100W        W97360   1.713  41.753   5.139
32101W        W97361  29.172   1.016   2.877
32102W        W97362  31.383  34.067  13.607
32103W        W97363   7.189  34.764  11.168
32104W        W97364  36.154  36.617   2.816
32105W        W97365  20.829   6.938   3.498
32106W        W97366  25.566  44.819  14.841
32107W        W97367   0.680  24.383  10.167
32108W        W97368  10.429  25.991   0.489
32109W        W97369   8.194  11.809   1.669
32110W        W97370  30.882  28.420   1.434
32111W        W97371   2.841   5.699   3.757
32112W        W97372  44.465  32.567   4.106
32113W        W97373   0.849  23.920   2.350
32114W        W97374   2.993   8.177   4.328
32115W        W97375  27.011   7.443  10.746
32116W        W97376  36.422   5.283  14.983
32117W        W97377  10.321  32.118   0.714
32118W        W97378  10.336  38.266  10.687
32119W        W97379   0.048  23.830   3.071
32120W        W97380  36.522  28.036   2.671
32121W        W97381  25.608   5.601   1.347
32122W        W97382  16.809  25.505   2.258
32123W        W97383   8.357  13.031  11.686
32124W        W97384   6.491  11.576  14.319
32125W        W97385  11.415  19.806  12.446
32126W        W97386  11.846   3.732   3.836
32127W        W97387  31.110   1.633  11.182
32128W        W97388  36.883   5.620   4.786
32129W        W97389   4.989   6.758   1.491
32130W        W97390  19.248  11.793  13.314
32131W        W97391  25.655  21.628  13.828
32132W        W97392  29.299  19.686   0.475
32133W        W97393  28.615   8.318  13.346
32134W        W97394  13.644  24.381   2.267
32135W        W97395   7.147  30.761  14.867
32136W        W97396  18.698  23.042   4.213
32137W        W97397  26.973   6.935  13.372
32138W        W97398   2.371  34.047  12.224
32139W        W97399  40.936   4.389  14.779
32140W        W97400  42.112  24.673  12.497
32141W        W97401  20.026  10.915  14.249
32142W        W97402  43.269   5.772  14.326
32143W        W97403   7.666  25.254  14.746
32144W        W97404  23.771  42.474   3.385
32145W        W97405   7.242  19.150   0.442
32146W        W97406  37.073   9.358   0.194
32147W        W97407   9.154  36.696  14.339
32148W        W97408  17.234   2.379  13.565
32149W        W97409  20.313  40.103   0.858
32150W        W97410  18.895   7.528   4.096
32151W        W97411   5.593  27.444   9.867
32152W        W97412   4.964  28.019  13.772
32153W        W97413   7.149   2.774  13.553
32154W        W97414  44.803  36.104   1.036
32155W        W97415   6.211   2.342   0.445
32156W        W97416  29.431   1.541  11.866
32157W        W97417  28.782   5.459  13.327
32158W        W97418  17.091  39.794  13.285
32159W        W97419  42.667  24.360   5.352
32160W        W97420  43.305   7.417  13.283
32161W        W97421  11.952   9.600   1.757
32162W        W97422   0.775   4.026   2.122
32163W        W97423   1.259  34.005  13.569
32164W        W97424  11.849  24.314  13.767
32165W        W97425  38.707  30.342  11.087
32166W        W97426  20.713  27.661  13.360
32167W        W97427  18.488  20.707  13.443
32168W        W97428  32.622  41.590   1.934
32169W        W97429  23.126  28.864  13.529
32170W        W97430  34.681  24.202  11.536
32171W        W97431  12.842  10.246  11.947
32172W        W97432  42.435  40.077  11.215
32173W        W97433  37.294  28.937  10.974
32174W        W97434  28.460  14.290  12.462
32175W        W97435  27.715   1.508   3.405
32176W        W97436  36.207   7.214  14.947
32177W        W97437  44.925  29.264  13.537
32178W        W97438  12.024  28.712   1.467
32179W        W97439  41.057   3.982   4.725
32180W        W97440  41.036  10.812   3.277
32181W        W97441  15.233  39.610  11.188
32182W        W97442  11.731  18.126  11.201
32183W        W97443   2.996  19.555   4.864
32184W        W97444  44.907  41.341  11.181
32185W        W97445  10.386  13.695   2.517
32186W        W97446  34.094  10.795  11.574
32187W        W97447   9.126  14.374  12.572
32188W        W97448  41.061  18.683  13.395
32189W        W97449  35.881  27.209   2.662
32190W        W97450   0.638  36.972  10.953
32191W        W97451  33.500   5.369  14.798
32192W        W97452  11.600  21.019  14.636
32193W        W97453  42.354  20.797   1.790
32194W        W97454  26.119  33.998  13.478
32195W        W97455  42.035  19.318   2.245
32196W        W97456  35.632   8.411   3.595
32197W        W97457  16.608  33.870  13.981
32198W        W97458  43.307  38.397   0.065
32199W        W97459  26.102  32.319   3.788
32200W        W97460  29.449   1.161   2.392
32201W        W97461  18.195  43.621   0.831
32202W        W97462   8.510   5.732  14.477
32203W        W97463  16.650  21.980  14.988
32204W        W97464  37.240  12.387  11.169
32205W        W97465  41.465  38.276  12.119
32206W        W97466  40.425  43.672   4.131
32207W        W97467  37.004  27.867   2.834
32208W        W97468   8.863  24.838   3.205
32209W        W97469  33.294  22.160   4.022
32210W        W97470  44.674   9.046   9.749
32211W        W97471   7.636  36.003  14.874
32212W        W97472  38.656  38.290  10.686
32213W        W97473  16.812  37.110  14.631
32214W        W97474  23.756  26.633  14.357
32215W        W97475  19.200  22.559   2.908
32216W        W97476  15.082   1.152  11.115
32217W        W97477  19.286  35.684  10.265
32218W        W97478  20.046  23.694   2.341
32219W        W97479   4.332   2.889  13.435
32220W        W97480  23.448  23.689  12.159
32221W        W97481  22.510  40.373   0.764
32222W        W97482  33.752  42.384  11.262
32223W        W97483  40.054  42.082  14.287
32224W        W97484  37.538  11.521   0.052
32225W        W97485   2.240  20.648  12.470
32226W        W97486  41.895  41.926   2.441
32227W        W97487   3.737  25.049   5.048
32228W        W97488  35.638   2.838   3.678
32229W        W97489  44.678  20.605   3.196
32230W        W97490   4.389  43.212  13.439
32231W        W97491  40.954  25.067   2.338
32232W        W97492  17.738  37.924   4.815
32233W        W97493  11.802  15.377  14.295
32234W        W97494  35.344   4.969   4.637
32235W        W97495  40.440   7.938   2.152
32236W        W97496  17.167  29.600   1.894
32237W        W97497   1.026  17.179   3.132
32238W        W97498  40.882  43.635  14.990
32239W        W97499   2.249  21.987   0.466
32240W        W97500  16.836  33.856   2.240
32241W        W97501  17.522  42.528   3.372
32242W        W97502  22.496  32.562   2.771
32243W        W97503  21.055  24.725  11.635
32244W        W97504   0.632  23.976   3.686
32245W        W97505  29.846   5.791   4.261
32246W        W97506  42.857   2.653   3.673
32247W        W97507  18.481  40.855   1.617
32248W        W97508  29.378  20.765   2.261
32249W        W97509  27.384   7.127  11.962
32250W        W97510   2.376  30.587  13.586
32251W        W97511  37.139  44.419   4.505
32252W        W97512   9.881  43.880   2.389
32253W        W97513  43.554   1.484   0.820
32254W        W97514  14.011  11.035   2.764
32255W        W97515  44.819   3.861  13.951
32256W        W97516  36.393  39.103   0.542
32257W        W97517  39.998  32.491  15.000
32258W        W97518  38.339  44.665   3.125
32259W        W97519  34.525  40.099   1.159
32260W        W97520  11.649  44.402   3.995
32261W        W97521  28.071  26.189   2.266
32262W        W97522   6.959  21.242   1.658
32263W        W97523  25.658  30.385  13.609
32264W        W97524   3.707  32.481  12.857
32265W        W97525  38.883  14.096  11.922
32266W        W97526   0.446   4.214   3.222
32267W        W97527   9.249  34.478   3.819
32268W        W97528  17.358  36.980   1.636
32269W        W97529  13.340  13.297  12.330
32270W        W97530  42.322  14.292   9.403
32271W        W97531  12.756  27.025   4.887
32272W        W97532  39.944  43.155  11.518
32273W        W97533   3.498  26.562  12.922
32274W        W97534  38.520  27.678  12.892
32275W        W97535  44.416   8.753   2.337
32276W        W97536  24.228  21.323   0.951
32277W        W97537  41.868  39.999   3.550
32278W        W97538  31.842  23.394  14.943
32279W        W97539  21.700  13.774   4.210
32280W        W97540  26.459  34.990  12.104
32281W        W97541  24.669  14.072   2.277
32282W        W97542  44.528  42.473  14.310
32283W        W97543  27.874  23.612   0.964
32284W        W97544   1.912  28.064   5.038
32285W        W97545  37.764   9.632   0.429
32286W        W97546  21.022   8.195   0.335
32287W        W97547   5.865  14.725   1.219
32288W        W97548  27.964  41.110   1.344
32289W        W97549  44.841   0.794   3.467
32290W        W97550  29.466  39.349  11.983
32291W        W97551   6.418  37.257  10.328
32292W        W97552   3.683   3.714   1.762
32293W        W97553   1.281  31.533   0.563
32294W        W97554   0.390  12.553  13.524
32295W        W97555   4.797   9.914  10.432
32296W        W97556  35.508  41.715  11.593
32297W        W97557   6.970  34.218  12.447
32298W        W97558  32.843   1.661  10.746
32299W        W97559  25.265  28.937   0.479
32300W        W97560   6.123  39.795   4.187
32301W        W97561  28.933  31.797   0.874
32302W        W97562  11.834  27.892   1.930
32303W        W97563   2.916  33.583  10.611
32304W        W97564  40.006   2.734   3.234
32305W        W97565   6.940  31.469  10.804
32306W        W97566   3.916   8.700  14.787
32307W        W97567  15.336   4.231  13.412
32308W        W97568  21.997  19.833   4.680
32309W        W97569  36.015  13.746   4.202
32310W        W97570  20.460  30.687   0.590
32311W        W97571  13.613  19.499   5.033
32312W        W97572  30.960   9.689  13.315
32313W        W97573  41.951  18.467   2.222
32314W        W97574  10.280  30.106   2.669
32315W        W97575  29.505  26.013  12.912
32316W        W97576  10.268   0.961   4.354
32317W        W97577  27.245  41.623   1.467
32318W        W97578  25.122  39.396   0.710
32319W        W97579   3.211  25.454   2.057
32320W        W97580  43.260   1.254  13.300
32321W        W97581  15.167  29.476  12.589
32322W        W97582  22.943   7.293   3.175
32323W        W97583  23.198  14.609   4.896
32324W        W97584  28.683  20.851  14.020
32325W        W97585  40.967  26.389  11.512
32326W        W97586  14.842  12.133   3.669
32327W        W97587  39.246  22.053   4.491
32328W        W97588   3.676  41.850  13.440
32329W        W97589  16.263  21.351  11.176
32330W        W97590  29.080  19.109  12.402
32331W        W97591  43.271  17.146  13.921
32332W        W97592  21.087  41.354   1.418
32333W        W97593  42.473   3.801  12.100
32334W        W97594   6.717  12.080   2.320
32335W        W97595   3.913   6.104  11.152
32336W        W97596   8.694  15.266   3.243
32337W        W97597  31.818   7.714   1.427
32338W        W97598  22.696  21.254  10.599
32339W        W97599  44.385  22.097  12.141
32340W        W97600  40.574  39.000   3.199
32341W        W97601   9.618  37.873   3.747
32342W        W97602  30.908  20.136   4.588
32343W        W97603  26.398  10.227  14.576
32344W        W97604  35.283   7.198   2.365
32345W        W97605  19.586   1.670   1.393
32346W        W97606  30.523  34.224  11.500
32347W        W97607   2.400  32.433  14.009
32348W        W97608  26.430  40.962   2.630
32349W        W97609  22.063  22.310   1.237
32350W        W97610  19.621  10.056   3.396
32351W        W97611  17.310  27.899   4.165
32352W        W97612  20.349  43.406   4.249
32353W        W97613  19.925   7.388   1.418
32354W        W97614   4.053   4.498   3.164
32355W        W97615  31.898  13.645  11.554
32356W        W97616  15.006  16.575   4.208
32357W        W97617   4.365   5.431   0.006
32358W        W97618  26.490  20.262  14.253
32359W        W97619  38.267  38.501  11.946
32360W        W97620  22.225  21.474  10.616
32361W        W97621  11.158  11.707  14.371
32362W        W97622  41.809  17.892  11.912
32363W        W97623  36.517  25.692   4.216
32364W        W97624   4.424   7.412  12.470
32365W        W97625  41.881  14.546   3.667
32366W        W97626  30.092  23.176   4.083
32367W        W97627  41.079  15.656   4.013
32368W        W97628  38.287  15.204   0.896
32369W        W97629  13.559  16.071   2.680
32370W        W97630  44.180  32.637  13.845
32371W        W97631  41.194  27.708  13.102
32372W        W97632  23.497  31.041  14.437
32373W        W97633   4.975  27.078  12.875
32374W        W97634  23.622   8.941   1.324
32375W        W97635  18.571  40.061  12.939
32376W        W97636  10.680  26.960  14.011
32377W        W97637  20.084   6.068   3.134
32378W        W97638   7.769  28.622   4.087
32379W        W97639  27.553  30.138  10.685
32380W        W97640  10.758   5.718  14.545
32381W        W97641   4.812  29.169   3.250
32382W        W97642  30.680   5.298   0.955
32383W        W97643  40.754  17.195   1.708
32384W        W97644  42.553  11.625  13.048
32385W        W97645  23.756  39.128   2.772
32386W        W97646  17.324  24.428  12.239
32387W        W97647  42.959   1.492   1.524
32388W        W97648  33.846   5.247  12.499
32389W        W97649   5.928  18.069  11.176
32390W        W97650  31.153   0.127  10.578
32391W        W97651  29.655  18.340   2.803
32392W        W97652  43.325   3.387  12.031
32393W        W97653  43.865   8.417   4.830
32394W        W97654   6.357  25.893   0.760
32395W        W97655   0.085  30.990  10.684
32396W        W97656  10.857   2.003  13.599
32397W        W97657   2.493  20.243  11.856
32398W        W97658  40.837  43.077  12.103
32399W        W97659  19.591  34.669  14.357
32400W        W97660  39.467  19.187  10.869
32401W        W97661  40.992  14.710  10.331
32402W        W97662  39.662  21.274  14.437
32403W        W97663  35.524  30.024  12.012
32404W        W97664  25.171  28.014  14.076
32405W        W97665  15.237   2.273   0.772
32406W        W97666   0.038   5.777  12.529
32407W        W97667  31.569  20.602  13.470
32408W        W97668  16.431   9.185   4.256
32409W        W97669   2.288  10.699  12.495
32410W        W97670   2.388   7.964  10.504
32411W        W97671   3.802   9.930  13.096
32412W        W97672  13.756  19.935  10.360
32413W        W97673  13.080  13.143   4.979
32414W        W97674  39.362   8.147  10.670
32415W        W97675  39.451  33.339  12.011
32416W        W97676  31.484   8.961  13.255
32417W        W97677  19.943  42.494   2.278
32418W        W97678  11.549  11.627  13.097
32419W        W97679  43.671  42.858   3.780
32420W        W97680  14.568  30.555   0.847
32421W        W97681  21.831  40.618   1.725
32422W        W97682  34.032  24.987  11.360
32423W        W97683   7.456  32.618  13.466
32424W        W97684  41.277  40.800   3.828
32425W        W97685   7.204  27.504  10.204
32426W        W97686  17.178  20.406  14.356
32427W        W97687  37.029  39.966   1.869
32428W        W97688  17.557  24.494   0.260
32429W        W97689  44.507   8.367  14.427
32430W        W97690  17.171   3.151   4.207
32431W        W97691  27.075  41.409  12.382
32432W        W97692  31.933  44.500   3.418
32433W        W97693  40.150  43.222   2.903
32434W        W97694  42.085  23.083   4.102
32435W        W97695  14.275   1.365   2.420
32436W        W97696  42.961  36.383   3.211
32437W        W97697  30.783  17.037  11.161
32438W        W97698  16.790  24.776   2.854
32439W        W97699  25.482   5.776  11.588
32440W        W97700  43.592   3.268   0.335
32441W        W97701  22.481   2.020   2.306
32442W        W97702  16.869  30.347   1.352
32443W        W97703  23.745   9.259  14.513
32444W        W97704  33.313  37.111  14.547
32445W        W97705   9.639  22.471  12.933
32446W        W97706  13.431  36.879  13.965
32447W        W97707   2.698  21.192   0.249
32448W        W97708   0.930  13.155  10.226
32449W        W97709  23.459  39.327   4.398
32450W        W97710  24.993  44.391   3.169
32451W        W97711  14.136  18.737  11.629
32452W        W97712  23.582  15.257  10.468
32453W        W97713  16.568  18.128   1.464
32454W        W97714  16.211  38.560   0.354
32455W        W97715  35.008  22.244   4.136
32456W        W97716  38.614  31.249   0.903
32457W        W97717  17.091  28.671   2.326
32458W        W97718   0.260  11.056   2.197
32459W        W97719  24.037  32.480   5.017
32460W        W97720  17.344  42.457   1.653
32461W        W97721   0.651  40.941  11.530
32462W        W97722  29.069  24.292  12.578
32463W        W97723  39.892   5.577  11.526
32464W        W97724   6.199   1.733  11.683
32465W        W97725  19.820  13.326  11.028
32466W        W97726  38.817  11.486   0.293
32467W        W97727  28.033   1.144  12.030
32468W        W97728  23.966   5.633   0.143
32469W        W97729  10.184  32.367  11.459
32470W        W97730   1.677  22.833   4.744
32471W        W97731  20.632  28.048   3.579
32472W        W97732  20.433  42.583   3.258
32473W        W97733  37.730  19.614   0.255
32474W        W97734  14.639  35.780   1.022
32475W        W97735  14.039  38.097  13.765
32476W        W97736  42.818  39.492  13.446
32477W        W97737   7.313  21.039  14.117
32478W        W97738  17.485  28.366  11.110
32479W        W97739  18.444  33.996   4.272
32480W        W97740   8.474  21.191   3.658
32481W        W97741  26.921  13.257  14.130
32482W        W97742  28.728  18.545   3.144
32483W        W97743  11.854  25.150  13.630
32484W        W97744   3.097  43.984  10.689
32485W        W97745  26.215  24.896   0.960
32486W        W97746  28.869  24.498   1.554
32487W        W97747  14.083  36.071  10.708
32488W        W97748  17.214  39.358  12.006
32489W        W97749  44.938  12.783  13.452
32490W        W97750   3.767   5.316   3.765
32491W        W97751  40.094  20.522  12.823
32492W        W97752  44.462  19.441  12.243
32493W        W97753   3.394  13.854   3.343
32494W        W97754  21.192   5.396   5.315
32495W        W97755  15.462   2.474   3.170
32496W        W97756  26.035  21.039   4.050
32497W        W97757   1.288   0.376   2.844
32498W        W97758  39.995   1.296   3.360
32499W        W97759  38.585  20.341  14.773
32500W        W97760  19.553  31.181   2.982
32501W        W97761  33.442  29.266  13.948
32502W        W97762  28.213  38.106   4.143
32503W        W97763   3.793  29.095   0.045
32504W        W97764  44.029  17.665  12.392
32505W        W97765  16.696  23.392   0.103
32506W        W97766  24.567  40.116  14.872
32507W        W97767  11.417   0.436  13.150
32508W        W97768  41.805  17.710   3.138
32509W        W97769   0.429  10.827  12.766
32510W        W97770  18.384   6.705  10.675
32511W        W97771  26.670  34.043   2.766
32512W        W97772  21.185  44.425   2.656
32513W        W97773  18.911  34.975   4.699
32514W        W97774   6.695  35.298   4.102
32515W        W97775   5.893  15.631  12.952
32516W        W97776  38.536  22.228  14.935
32517W        W97777  37.544  44.281  11.970
32518W        W97778  30.233  21.842   2.215
32519W        W97779   9.819  16.315  14.484
32520W        W97780  43.085  15.073  14.961
32521W        W97781  23.779   7.796   1.896
32522W        W97782   7.184  11.563   4.143
32523W        W97783  14.741  33.835  13.123
32524W        W97784  16.641  27.715  10.714
32525W        W97785   0.853  15.123   4.536
32526W        W97786  33.759  19.357   1.431
32527W        W97787  14.739   8.109   4.042
32528W        W97788  18.731  26.342  12.844
32529W        W97789  24.054   8.333   3.211
32530W        W97790  38.535  43.732   2.866
32531W        W97791   6.313   1.410  14.367
32532W        W97792  37.918  13.791  14.076
32533W        W97793  22.671  34.664  12.369
32534W        W97794   5.717  21.416  11.518
32535W        W97795   7.162  44.272  14.591
32536W        W97796  32.408  43.505   0.940
32537W        W97797  21.098  32.885  11.931
32538W        W97798  14.249  43.188   0.639
32539W        W97799  14.900  26.289  14.409
32540W        W97800   9.715   5.550  13.873
32541W        W97801   6.899  32.921   4.905
32542W        W97802  38.096  41.610  12.445
32543W        W97803  33.429  36.504   2.203
32544W        W97804  29.475  37.964   0.745
32545W        W97805  31.675  38.608   2.132
32546W        W97806   5.872   6.230   2.011
32547W        W97807  16.988  15.349  11.676
32548W        W97808  19.710  31.353  13.452
32549W        W97809  38.581  26.222  11.102
32550W        W97810   5.722  33.554   4.577
32551W        W97811  34.323   2.347   0.186
32552W        W97812   4.479  21.657  14.849
32553W        W97813  10.908  19.664   4.129
32554W        W97814  37.683  19.143   2.897
32555W        W97815  26.780   2.235   0.882
32556W        W97816   7.296  24.569   3.256
32557W        W97817  19.519  24.716  11.338
32558W        W97818  29.214  11.852  11.038
32559W        W97819  28.074  15.132   3.680
32560W        W97820  40.985  28.143  12.898
32561W        W97821  12.208  33.357  10.780
32562W        W97822   4.216  29.012   2.553
32563W        W97823  36.384  29.299   2.888
32564W        W97824  19.446  13.343   1.474
32565W        W97825  15.622   8.393  11.490
32566W        W97826  27.266  27.585  12.478
32567W        W97827  30.139  14.823  12.043
32568W        W97828  30.699  43.640  11.360
32569W        W97829   4.936  22.602   3.680
32570W        W97830   6.257   7.459  11.486
32571W        W97831  25.584  19.329   3.335
32572W        W97832  36.318  14.935  13.117
32573W        W97833   2.090  19.507  10.908
32574W        W97834  42.251   5.542  13.387
32575W        W97835  19.032  22.249  11.168
32576W        W97836  36.593  37.866  13.488
32577W        W97837  27.952  36.066  11.918
32578W        W97838  18.927  39.650  13.845
32579W        W97839  38.592  29.005  14.349
32580W        W97840  26.672  44.046  10.901
32581W        W97841  37.878   1.055  13.012
32582W        W97842   8.387  42.703  11.675
32583W        W97843  22.047  36.999   0.243
32584W        W97844  30.877  17.115  13.318
32585W        W97845  34.089  31.547   2.485
32586W        W97846  29.058  25.666   0.142
32587W        W97847  20.002   4.670  10.120
32588W        W97848  37.033  37.274   3.702
32589W        W97849   5.962  44.545   3.720
32590W        W97850  20.196  19.020   1.815
32591W        W97851  41.504  31.616  14.835
32592W        W97852  14.743  30.779   9.999
32593W        W97853   5.366  42.809  11.522
32594W        W97854  17.754  38.531  10.980
32595W        W97855  40.852  19.844  11.587
32596W        W97856   8.929  17.725  14.368
32597W        W97857  15.927   0.041  13.438
32598W        W97858  34.944  16.978   2.736
32599W        W97859   7.711  15.073   4.228
32600W        W97860   6.683  20.269   0.365
32601W        W97861  39.235  18.542   3.923
32602W        W97862   8.234   2.803  13.429
32603W        W97863  11.132  19.630   3.660
32604W        W97864   3.363  44.047   0.311
32605W        W97865  44.270  13.743   9.907
32606W        W97866   5.953  20.315   4.221
32607W        W97867  28.052  21.623  12.386
32608W        W97868   7.143  16.117  11.140
32609W        W97869   0.878  44.124   1.788
32610W        W97870  33.987  34.088  11.862
32611W        W97871   2.525   6.992  11.075
32612W        W97872  42.916  37.831  11.725
32613W        W97873  28.635  29.669  12.173
32614W        W97874   8.065  15.302  12.397
32615W        W97875  42.539  33.154  12.167
32616W        W97876  22.659  14.270   1.659
32617W        W97877  14.543  11.988  13.566
32618W        W97878  17.181  10.548   0.964
32619W        W97879  20.244  29.200   3.174
32620W        W97880  10.884  28.046  12.891
32621W        W97881  29.049  27.475   3.081
32622W        W97882  11.127  29.829   5.032
32623W        W97883   3.964  22.675  14.883
32624W        W97884  33.330   6.679  12.546
32625W        W97885  21.772  39.493   1.528
32626W        W97886   3.056   1.804   2.841
32627W        W97887  22.467  42.359   0.506
32628W        W97888  27.692  28.072   4.949
32629W        W97889  24.734  32.563   3.840
32630W        W97890  18.805  33.494   2.372
32631W        W97891  13.802   8.175   3.650
32632W        W97892  28.575   2.007  12.200
32633W        W97893  41.294  41.865   3.147
32634W        W97894  21.085  19.202   9.814
32635W        W97895  20.665  21.307   4.013
32636W        W97896  38.892   1.048  14.896
32637W        W97897  20.696  26.640  13.479
32638W        W97898  34.024  40.226   2.287
32639W        W97899   8.953  16.290  11.337
32640W        W97900   0.636  26.422  12.475
32641W        W97901  14.592  13.337   2.303
32642W        W97902  13.794  22.586   0.339
32643W        W97903   4.750  11.825   0.852
32644W        W97904   2.777   8.095   1.650
32645W        W97905  16.447   9.226  12.064
32646W        W97906  10.064   9.626  11.634
32647W        W97907   8.833   0.916   0.186
32648W        W97908   4.926  24.122   3.046
32649W        W97909   3.466   1.039  12.031
32650W        W97910   4.907  37.986  12.230
32651W        W97911  24.643   4.731   2.682
32652W        W97912   2.276  20.929   4.627
32653W        W97913  13.699  23.521   4.297
32654W        W97914   0.268   5.666   2.353
32655W        W97915  37.902  22.648   4.572
32656W        W97916  28.268   0.804   2.922
32657W        W97917  27.144   0.483   1.778
32658W        W97918  19.474   4.655  14.380
32659W        W97919  36.358  35.093  10.660
32660W        W97920  36.005  30.977  12.132
32661W        W97921  24.258  38.926  12.239
32662W        W97922   1.321  22.007  12.326
32663W        W97923   7.726   0.914  12.774
32664W        W97924  28.000  13.356   3.515
32665W        W97925  40.073  24.692   3.235
32666W        W97926  39.959   2.270   2.154
32667W        W97927  14.850   0.953   4.699
32668W        W97928   7.239  20.429  13.475
32669W        W97929  17.387  35.636  11.363
32670W        W97930  23.270  18.853   1.380
32671W        W97931  44.509  37.395   1.275
32672W        W97932  42.113   3.289   1.294
32673W        W97933  34.923  41.283   4.544
32674W        W97934   1.973  27.128   5.038
32675W        W97935  37.483  29.252  13.790
32676W        W97936  35.623  10.166   4.821
32677W        W97937  42.024  44.532  11.258
32678W        W97938  40.426  39.772   1.670
32679W        W97939   9.322   3.435  11.971
32680W        W97940  37.479  33.202  13.558
32681W        W97941  35.805  15.687   0.964
32682W        W97942  40.347   9.447   0.707
32683W        W97943   9.188   5.779  13.540
32684W        W97944  31.914  22.182  12.945
32685W        W97945  22.491  25.122  11.907
32686W        W97946  24.982  17.628  12.436
32687W        W97947   1.079  11.966  14.271
32688W        W97948  13.575   6.300   4.153
32689W        W97949  12.589   4.246   0.943
32690W        W97950  39.195   1.287   1.695
32691W        W97951   7.819  29.202   0.420
32692W        W97952  21.336  22.386   3.641
32693W        W97953  37.485  17.358   2.851
32694W        W97954   3.374   9.304   3.657
32695W        W97955  21.197   3.277   3.804
32696W        W97956  26.674  29.541   3.148
32697W        W97957  44.652  36.797  11.042
32698W        W97958   1.159   2.817  13.913
32699W        W97959  22.668   9.093   2.301
32700W        W97960  35.549  32.196  10.345
32701W        W97961   7.196   3.928  11.299
32702W        W97962  29.054  18.823   4.706
32703W        W97963   4.764  43.820   0.220
32704W        W97964  12.215   8.238  12.274
32705W        W97965  28.415  31.162  12.546
32706W        W97966  36.106   5.235  12.509
32707W        W97967  41.766  27.978   2.893
32708W        W97968  35.452  15.085   0.366
32709W        W97969  13.745  14.190   4.667
32710W        W97970  39.425  23.826   1.359
32711W        W97971  10.746  22.243  12.752
32712W        W97972  37.172  25.547   3.810
32713W        W97973  43.995  43.969   0.199
32714W        W97974  24.230  15.103  11.013
32715W        W97975  31.919  26.748   0.643
32716W        W97976  17.730  20.353   3.649
32717W        W97977  37.589  23.139   3.375
32718W        W97978  38.366  37.132   0.471
32719W        W97979  43.040  25.770  11.198
32720W        W97980   3.800   3.398  11.368
32721W        W97981   2.456  43.425  14.673
32722W        W97982  24.080  43.540   4.656
32723W        W97983   3.595  34.588   3.690
32724W        W97984  34.386   7.443   2.676
32725W        W97985  22.809  20.928  12.943
32726W        W97986  14.679  39.856  11.307
32727W        W97987  14.567  31.202   1.435
32728W        W97988  37.388   4.845   4.598
32729W        W97989  19.353  35.956  10.702
32730W        W97990  19.658  30.686  12.576
32731W        W97991  12.263  37.339  12.031
32732W        W97992   8.159  43.811  13.919
32733W        W97993  11.857  19.382  11.571
32734W        W97994   4.939  38.178  10.740
32735W        W97995  20.261  18.914   0.263
32736W        W97996   2.281  21.961  12.664
32737W        W97997   5.993  39.131  13.358
32738W        W97998  26.382   2.897   0.905
32739W        W97999  11.674  37.347   3.937
32740W        W98000  14.259  25.993   3.223
32741W        W98001  42.778   6.393   3.821
32742W        W98002  32.966  31.665   0.030
32743W        W98003  38.632   8.665   1.447
32744W        W98004  25.064  43.821  13.513
32745W        W98005  22.721   8.224  12.420
32746W        W98006  18.419  42.860  13.015
32747W        W98007  36.086   6.136   4.690
32748W        W98008  17.228   2.250   2.808
32749W        W98009  37.976  38.035  14.361
32750W        W98010  27.135  33.231   2.766
32751W        W98011  42.873  34.160   4.897
32752W        W98012   7.357  10.600  13.308
32753W        W98013   5.510  11.737   3.155
32754W        W98014  42.563  34.831   1.671
32755W        W98015  44.439  44.144   2.523
32756W        W98016   6.742   5.198  10.673
32757W        W98017  28.404   2.330  10.428
32758W        W98018  12.907  29.382  14.133
32759W        W98019  27.293  36.300   4.390
32760W        W98020   6.808  18.401  13.289
32761W        W98021  39.537  29.555   0.905
32762W        W98022   3.691  31.627  12.438
32763W        W98023   4.025   0.016  10.609
32764W        W98024  27.758  17.896   5.488
32765W        W98025  21.773   0.204  13.999
32766W        W98026  22.227  33.592   2.045
32767W        W98027  11.103  22.955   0.385
32768W        W98028   5.972   9.731   2.250
32769W        W98029   9.924  40.348   3.087
32770W        W98030  18.581   8.077  13.869
32771W        W98031  33.386  25.124   1.421
32772W        W98032  29.749  25.186   0.321
32773W        W98033  34.622  18.265  14.073
32774W        W98034   5.316   2.490  12.564
32775W        W98035   7.280  13.402   2.352
32776W        W98036  42.429  42.265   0.311
32777W        W98037   0.705  20.648  14.364
32778W        W98038  36.495  42.731   2.693
32779W        W98039  33.361   0.468   3.320
32780W        W98040  27.081  41.851   3.232
32781W        W98041  31.472  26.218   1.335
32782W        W98042  37.047  21.649  13.500
32783W        W98043  24.492  13.601  13.238
32784W        W98044  31.649   0.390   4.941
32785W        W98045  30.651  21.528   2.264
32786W        W98046  25.503  22.683   4.605
32787W        W98047  19.796  32.808  12.501
32788W        W98048  23.641   3.079   1.182
32789W        W98049   2.501  42.707  12.932
32790W        W98050  14.037  12.752   0.900
32791W        W98051   1.142   4.245   1.777
32792W        W98052  36.419  10.933   2.149
32793W        W98053  25.024   5.871   1.968
32794W        W98054  23.657  13.430  11.323
32795W        W98055  43.963   8.847  11.584
32796W        W98056  40.961  18.291   4.676
32797W        W98057  36.027   2.420   0.767
32798W        W98058  32.604  39.492   0.210
32799W        W98059  10.773  22.264   1.704
32800W        W98060  18.684   0.892   3.159
32801W        W98061  23.572  34.063   2.274
32802W        W98062   7.761   2.866   4.301
32803W        W98063  28.148   1.987  14.304
32804W        W98064  32.425  42.463   3.423
32805W        W98065  26.274  16.768  14.321
32806W        W98066   9.862  25.533   3.098
32807W        W98067  26.455  43.542  12.308
32808W        W98068  32.152  14.501   3.462
32809W        W98069  36.949  12.325   0.885
32810W        W98070  17.491   3.056  13.719
32811W        W98071   5.295   7.368   4.609
32812W        W98072   0.763  38.646  12.067
32813W        W98073  20.244  10.079   4.649
32814W        W98074  28.412  36.916   3.548
32815W        W98075  23.234  19.364   1.241
32816W        W98076  44.752  18.594  14.041
32817W        W98077  20.494  42.044  12.289
32818W        W98078   6.910  22.499  14.252
32819W        W98079  35.160  24.023   2.896
32820W        W98080  18.779  38.865  11.238
32821W        W98081   1.817  39.884  13.367
32822W        W98082  40.311  24.409   2.349
32823W        W98083  13.304  21.595  11.441
32824W        W98084  23.688  21.187  12.992
32825W        W98085   7.414  40.621  12.084
32826W        W98086  28.849  26.449  10.829
32827W        W98087  13.169  42.808   2.435
32828W        W98088  36.418  31.405   3.690
32829W        W98089  13.656  24.710  14.431
32830W        W98090  34.332   5.388   0.868
32831W        W98091  20.668  34.515   1.794
32832W        W98092  37.329   2.467   0.286
32833W        W98093  37.891  14.695   2.345
32834W        W98094  32.867   0.228  14.313
32835W        W98095  23.638   8.159  13.573
32836W        W98096  41.521   7.796  11.586
32837W        W98097  36.062  10.014  12.300
32838W        W98098  29.023  21.297   1.907
32839W        W98099  28.194  41.387  11.527
32840W        W98100  35.583  30.528  14.275
32841W        W98101  32.306  15.903   2.687
32842W        W98102   9.882  30.094   2.341
32843W        W98103  41.782   6.931   0.898
32844W        W98104  27.162  34.309  11.115
32845W        W98105  42.212   2.531  11.071
32846W        W98106   4.577  25.724  10.550
32847W        W98107  23.300   1.591   3.242
32848W        W98108  12.199  42.541  10.770
32849W        W98109  27.634  32.429   1.748
32850W        W98110  18.449  29.668  13.871
32851W        W98111   4.367  36.059   4.836
32852W        W98112  22.532  25.517   1.972
32853W        W98113  23.988  31.628   1.434
32854W        W98114  25.620   8.121   1.332
32855W        W98115   8.394  24.931  12.066
32856W        W98116   9.946  14.831   3.727
32857W        W98117  22.664   9.441  10.354
32858W        W98118  41.707  15.510   2.805
32859W        W98119   2.029  19.693   3.661
32860W        W98120  18.105  30.354  13.380
32861W        W98121   4.778  36.016   3.629
32862W        W98122   8.116  17.742  10.263
32863W        W98123   8.817  33.156  14.767
32864W        W98124  36.471  33.274  10.578
32865W        W98125  44.845  40.836   3.513
32866W        W98126  13.825  17.279   4.360
32867W        W98127   9.625  30.995   2.855
32868W        W98128   7.215  33.071  13.340
32869W        W98129  34.882  12.723  11.977
32870W        W98130   6.325  41.923   4.804
32871W        W98131  19.499  16.605  13.323
32872W        W98132  27.648  44.994   4.631
32873W        W98133  37.045  37.956  11.440
32874W        W98134  35.430  20.152  13.386
32875W        W98135  24.047   8.886  14.717
32876W        W98136  44.759  22.721   0.329
32877W        W98137  28.086   4.860  12.558
32878W        W98138  33.037  28.957  11.083
32879W        W98139  24.613  40.480  10.912
32880W        W98140   3.291  16.118   1.788
32881W        W98141  20.540  25.063   3.177
32882W        W98142  35.739  34.383  13.428
32883W        W98143  21.026   5.675   4.560
32884W        W98144   4.615  10.408  11.671
32885W        W98145  33.080  10.276   2.687
32886W        W98146  10.103  43.360   0.738
32887W        W98147  28.365  19.638   2.912
32888W        W98148  36.367  15.818   3.706
32889W        W98149   1.725   4.411   3.746
32890W        W98150  20.273  38.564  12.851
32891W        W98151   6.733  25.890   1.369
32892W        W98152   6.585   9.598  14.602
32893W        W98153  39.825  31.827   2.265
32894W        W98154  22.480  29.464   1.657
32895W        W98155  11.436  35.653   0.348
32896W        W98156   9.914   6.786   0.911
32897W        W98157  28.864  11.230   4.132
32898W        W98158   8.726  37.785  14.534
32899W        W98159  23.863   2.741   3.820
32900W        W98160   4.813  26.285   4.157
32901W        W98161  39.291  23.002   4.358
32902W        W98162  28.550  12.812  10.698
32903W        W98163   8.381   4.916   4.221
32904W        W98164   6.305  17.609   2.070
32905W        W98165   3.317  16.872   4.328
32906W        W98166  24.632   1.907  11.585
32907W        W98167  14.621  17.143  12.079
32908W        W98168  35.155   2.947   3.645
32909W        W98169  44.485  18.270   3.632
32910W        W98170  23.572   0.107   4.139
32911W        W98171   0.400   6.488   1.208
32912W        W98172  14.251  35.856   2.844
32913W        W98173  30.511  43.000   3.701
32914W        W98174   4.856  29.322  10.747
32915W        W98175   3.638  38.351   1.345
32916W        W98176   8.419  41.590   0.368
32917W        W98177   7.508  42.043  13.743
32918W        W98178  29.436   3.974  12.389
32919W        W98179  37.014  13.155  11.263
32920W        W98180   8.205  35.636  14.396
32921W        W98181  24.947  21.968   2.402
32922W        W98182  28.051  26.651  11.591
32923W        W98183   9.599   2.269   2.774
32924W        W98184  18.732  32.626   4.706
32925W        W98185  37.496  38.598  11.509
32926W        W98186   2.217  25.463   3.283
32927W        W98187  27.822  43.535  11.311
32928W        W98188  28.927  33.079  11.087
32929W        W98189  11.559   7.768  12.773
32930W        W98190  29.459   3.963  14.009
32931W        W98191  33.351  29.613   4.199
32932W        W98192  17.310  16.252   4.087
32933W        W98193  20.776  28.033  10.670
32934W        W98194  37.373   1.068  12.920
32935W        W98195  22.173  44.873   0.352
32936W        W98196  30.858  41.342   0.159
32937W        W98197  43.201  23.827   0.665
32938W        W98198  42.774   8.707   4.144
32939W        W98199  28.997  10.739  14.619
32940W        W98200  44.623  17.272  13.577
32941W        W98201  41.323  35.397  10.392
32942W        W98202  19.683  25.639   0.637
32943W        W98203  16.458   0.264   4.156
32944W        W98204  38.954  11.544   9.819
32945W        W98205  11.822  32.556   2.761
32946W        W98206  28.509  26.767   0.382
32947W        W98207  42.312  36.626   2.324
32948W        W98208  12.464   7.945   2.269
32949W        W98209  36.413  40.535   0.323
32950W        W98210   0.480  14.568   2.391
32951W        W98211  33.095   5.918  12.908
32952W        W98212  16.572  33.342  13.953
32953W        W98213  20.324  18.733   2.283
32954W        W98214  23.947  17.552   0.449
32955W        W98215  41.416  27.586  12.641
32956W        W98216   2.704  20.697   0.666
32957W        W98217  23.483  22.048  12.999
32958W        W98218  31.604   4.789  11.528
32959W        W98219  36.540  16.914   0.395
32960W        W98220  44.922  32.798   3.867
32961W        W98221   4.193  20.171   1.142
32962W        W98222  41.362   4.296   4.417
32963W        W98223  28.512  19.701  11.432
32964W        W98224  41.519  34.025  10.473
32965W        W98225  11.349  20.645  11.216
32966W        W98226  31.047  31.099  11.115
32967W        W98227  35.579  27.186  11.146
32968W        W98228  21.966  39.642  10.810
32969W        W98229  34.877  30.353   3.746
32970W        W98230  40.214   5.518   2.160
32971W        W98231  17.709  36.940  14.526
32972W        W98232  16.329  34.666   2.241
32973W        W98233  44.973   5.320  13.912
32974W        W98234  41.883  18.381   4.867
32975W        W98235  37.036  23.794   1.316
32976W        W98236  33.437  34.920   3.590
32977W        W98237   3.214   4.396   1.275
32978W        W98238  28.721   6.434   4.090
32979W        W98239  37.091   1.974   1.818
32980W        W98240   7.771  37.355  12.456
32981W        W98241   3.021   1.741   0.828
32982W        W98242  17.102  10.115   5.032
32983W        W98243  31.238   2.667   3.623
32984W        W98244   2.849   5.494  14.522
32985W        W98245  40.462  41.955   4.731
32986W        W98246  31.779  22.203  11.209
32987W        W98247  32.340   3.299   2.740
32988W        W98248  22.170  21.049   4.137
32989W        W98249  26.093   7.353  11.190
32990W        W98250  20.201  34.936   1.345
32991W        W98251  30.648  23.105  12.864
32992W        W98252  41.271  21.719   3.047
32993W        W98253  37.834  26.485   2.261
32994W        W98254   2.037  20.266  12.105
32995W        W98255  13.835  34.974  13.311
32996W        W98256   7.119  29.696  14.334
32997W        W98257   0.451  38.922  10.666
32998W        W98258   5.355   4.113   1.270
32999W        W98259   1.330   9.245   4.032
33000W        W98260  44.798  28.327   3.539
33001W        W98261   7.178  21.767   0.960
33002W        W98262  32.521  17.268   3.569
33003W        W98263  33.166  13.759  12.594
33004W        W98264   9.705  43.323  14.824
33005W        W98265  29.642  31.981  12.356
33006W        W98266  38.386  25.715   2.223
33007W        W98267  18.970  22.914  13.898
33008W        W98268   0.531  21.005   3.997
33009W        W98269  19.756  20.159   0.379
33010W        W98270   6.621  35.039  12.616
33011W        W98271  26.230  23.349   2.761
33012W        W98272  29.288  40.850  14.004
33013W        W98273  12.229   9.162   0.074
33014W        W98274   9.247  32.177  11.578
33015W        W98275   3.221   4.348  11.135
33016W        W98276  41.804  30.773  10.444
33017W        W98277  42.475   2.035   1.070
33018W        W98278  26.600  35.351   0.348
33019W        W98279  42.453  42.566  13.847
33020W        W98280  11.330   7.835  13.229
33021W        W98281  25.910  17.725  14.405
33022W        W98282  22.419   5.003  13.371
33023W        W98283  43.850   7.541   0.074
33024W        W98284  42.307  25.120   1.417
33025W        W98285  26.514  44.857   1.578
33026W        W98286   2.693  34.463  11.926
33027W        W98287  16.833  27.453   3.331
33028W        W98288  20.711  14.313   0.720
33029W        W98289  10.503  10.833   3.320
33030W        W98290  22.256  23.439   4.384
33031W        W98291  16.866  12.551   3.035
33032W        W98292  25.422  40.182   3.159
33033W        W98293  36.945  32.596   2.446
33034W        W98294  28.245  42.445  11.479
33035W        W98295  30.975  21.771   3.821
33036W        W98296  26.314  32.243  11.332
33037W        W98297  19.445  44.980  14.715
33038W        W98298   9.811   5.284   1.800
33039W        W98299  11.717   5.227  10.974
33040W        W98300   6.498  21.477  13.500
33041W        W98301  23.548  12.843  14.311
33042W        W98302  32.690  20.045   3.721
33043W        W98303   1.488  33.455  12.933
33044W        W98304   5.312  22.187  10.697
33045W        W98305  18.296  27.543   0.750
33046W        W98306  32.006  14.877  13.522
33047W        W98307   0.252   3.468   3.686
33048W        W98308  18.322  20.906  12.151
33049W        W98309  35.442  34.638  14.566
33050W        W98310   7.384  17.518  14.009
33051W        W98311  31.006  44.232   3.109
33052W        W98312  31.370  26.894   2.709
33053W        W98313  32.866  16.229  10.331
33054W        W98314   5.855  27.187   1.731
33055W        W98315  23.152  37.152   5.372
33056W        W98316  34.356  19.315   2.399
33057W        W98317  11.450  20.124   2.317
33058W        W98318  12.418  14.695   2.442
33059W        W98319  41.758  15.602  14.115
33060W        W98320   2.428   2.488  11.512
33061W        W98321  11.557  35.962  13.858
33062W        W98322  27.182  41.334   3.113
33063W        W98323  24.515  29.679  13.504
33064W        W98324  17.195  10.760   0.473
33065W        W98325   3.752  42.762  10.342
33066W        W98326  30.089   9.931   1.299
33067W        W98327  23.007  36.800   2.663
33068W        W98328  33.389  44.421  13.783
33069W        W98329  29.638  14.789  14.481
33070W        W98330  15.802   4.188   4.451
33071W        W98331  35.129  25.498   1.727
33072W        W98332  39.105   6.858   0.109
33073W        W98333   4.272  24.310  12.407
33074W        W98334  44.888   6.618  14.047
33075W        W98335  24.577  24.513   3.580
33076W        W98336  13.750  40.376   4.600
33077W        W98337  18.243  25.667  11.037
33078W        W98338  29.446   7.957  13.779
33079W        W98339  32.176   6.950  10.510
33080W        W98340  44.918  25.112   3.147
33081W        W98341  11.561  10.205   0.825
33082W        W98342  41.982  40.351  14.344
33083W        W98343  14.716   9.806   2.289
33084W        W98344  33.044   0.444  12.052
33085W        W98345  25.472  15.189   2.200
33086W        W98346  18.602  44.254   4.488
33087W        W98347   0.337   4.993   3.473
33088W        W98348  32.070  23.478  10.743
33089W        W98349  42.360  17.554   2.200
33090W        W98350  23.609  42.450   1.087
33091W        W98351  23.196  33.344   3.338
33092W        W98352  19.413  38.748  12.388
33093W        W98353  35.840   2.579   4.890
33094W        W98354  19.472  40.999   4.526
33095W        W98355  34.933   0.215   0.338
33096W        W98356  27.231  34.495   1.326
33097W        W98357  27.337  15.628   4.064
33098W        W98358  40.346  10.751  12.900
33099W        W98359  23.522   3.801   0.909
33100W        W98360  38.594  35.866  13.002
33101W        W98361  35.611   7.857  11.943
33102W        W98362   3.626  44.375  14.393
33103W        W98363  42.968  16.604   0.896
33104W        W98364  28.690  20.426  10.401
33105W        W98365  42.896  17.692  11.616
33106W        W98366   9.202  44.008   0.074
33107W        W98367   3.008  10.747  13.364
33108W        W98368  35.374  25.701  11.582
33109W        W98369  33.488  21.816  14.772
33110W        W98370  29.400  36.932   0.059
33111W        W98371  14.159  39.017  13.344
33112W        W98372   7.211  15.846  11.558
33113W        W98373  15.909   3.378  12.011
33114W        W98374  11.510  23.725   3.203
33115W        W98375  10.745   9.747  11.140
33116W        W98376  20.701  20.292  10.634
33117W        W98377  35.982  15.695  10.383
33118W        W98378  35.982  32.503   4.393
33119W        W98379  29.522  38.036  12.366
33120W        W98380  21.786  33.638  13.313
33121W        W98381  17.538  32.421  14.935
33122W        W98382  41.922  21.103   1.944
33123W        W98383  19.099  44.548   2.579
33124W        W98384  30.903  20.798  12.871
33125W        W98385   2.664  22.105  10.718
33126W        W98386   1.048   6.185   0.273
33127W        W98387  22.520  20.629  12.387
33128W        W98388  13.922  40.910   4.552
33129W        W98389  22.262  31.604  12.567
33130W        W98390  38.796  40.992  13.383
33131W        W98391  29.169  10.478   2.488
33132W        W98392   6.150  24.558  13.458
33133W        W98393  39.981  25.718  13.984
33134W        W98394  30.223  42.239  12.518
33135W        W98395  13.929  14.089  12.088
33136W        W98396  44.432  15.437  11.178
33137W        W98397  10.419  20.453  12.582
33138W        W98398  29.495  29.397   5.009
33139W        W98399   5.256   5.350  13.135
33140W        W98400  38.393  38.736  14.554
33141W        W98401  39.634  34.592   2.514
33142W        W98402  44.078  13.402   4.340
33143W        W98403  27.966   9.264  13.006
33144W        W98404   8.107  12.744   3.947
33145W        W98405   3.877  19.236   1.850
33146W        W98406   8.129  40.002   3.584
33147W        W98407  35.158  34.931   3.882
33148W        W98408   7.216  34.607   2.164
33149W        W98409  38.420  17.523  12.635
33150W        W98410  30.834  19.705  10.706
33151W        W98411  33.884  20.574  11.893
33152W        W98412  20.289  42.559   4.588
33153W        W98413  16.879  16.724  11.625
33154W        W98414  28.122  29.617   1.623
33155W        W98415  29.856  27.040   1.663
33156W        W98416  38.470  31.910   1.224
33157W        W98417  35.411  30.673   2.000
33158W        W98418  21.093  43.661   4.596
33159W        W98419  31.873  38.848  13.474
33160W        W98420  32.022  29.825   3.421
33161W        W98421  36.984  29.443  13.733
33162W        W98422  16.650  31.606  12.050
33163W        W98423   4.273   3.567   0.075
33164W        W98424  18.118  35.669   4.126
33165W        W98425  27.120  34.644   3.839
33166W        W98426   6.891   5.697  12.051
33167W        W98427  18.225  14.559   0.024
33168W        W98428  29.011  16.216  12.408
33169W        W98429  21.182  34.552   1.839
33170W        W98430  10.871  36.616  12.840
33171W        W98431  41.651  40.424  13.306
33172W        W98432  21.849   8.290  13.459
33173W        W98433   5.516  27.780  11.149
33174W        W98434  32.536  29.945   1.686
33175W        W98435   6.928  21.293   1.086
33176W        W98436   3.866  32.999   4.415
33177W        W98437  16.899   3.889   3.849
33178W        W98438  28.080  39.349   0.037
33179W        W98439   4.209  34.978  14.031
33180W        W98440  41.314   1.257   0.269
33181W        W98441  17.762   1.224   4.147
33182W        W98442  39.589  23.115   3.459
33183W        W98443  43.893   8.219  10.560
33184W        W98444  37.402   8.793   0.824
33185W        W98445   3.408  31.069   4.318
33186W        W98446  35.640  29.142   1.119
33187W        W98447  37.357  35.636  11.080
33188W        W98448  32.541  12.646  12.516
33189W        W98449  35.971  25.030   4.117
33190W        W98450   8.915   4.751   4.592
33191W        W98451  23.125  24.744   1.279
33192W        W98452  29.994  19.490   3.097
33193W        W98453   8.270  38.933   1.318
33194W        W98454   1.529   7.218   3.717
33195W        W98455  38.600  12.197  13.003
33196W        W98456  40.436  31.573   1.958
33197W        W98457  17.238  27.521  14.828
33198W        W98458  41.438   6.892   3.729
33199W        W98459   6.730  31.736  13.536
33200W        W98460   6.441  12.339  13.049
33201W        W98461  28.042  10.527  13.590
33202W        W98462  41.234  35.922  12.605
33203W        W98463  27.090  17.654  13.011
33204W        W98464  39.346  44.952  11.354
33205W        W98465  44.308  31.064  12.774
33206W        W98466   4.249  10.169   1.733
33207W        W98467  30.012  20.745  14.590
33208W        W98468  39.425  25.190  13.497
33209W        W98469  22.029  20.045   2.373
33210W        W98470  10.346   8.158  13.891
33211W        W98471  19.198  38.577  11.916
33212W        W98472   7.166  35.501   0.227
33213W        W98473   8.282  38.101   2.236
33214W        W98474  30.554  36.372   2.994
33215W        W98475  40.116  24.212  11.634
33216W        W98476  33.855  18.682   2.541
33217W        W98477  21.811  28.955  14.972
33218W        W98478  28.209  44.089  12.407
33219W        W98479   1.295  33.358   1.463
33220W        W98480  14.121   6.854   0.423
33221W        W98481  36.057  37.188  12.126
33222W        W98482  36.395  31.972  12.559
33223W        W98483  12.692  15.123   4.767
33224W        W98484  35.997  29.452  14.425
33225W        W98485  44.838  12.780  12.206
33226W        W98486  33.359  10.229  14.529
33227W        W98487  16.200  38.098   3.441
33228W        W98488  25.463  25.974  14.629
33229W        W98489   8.481  27.541   0.460
33230W        W98490   2.340  28.624  10.734
33231W        W98491  43.593  41.964   1.251
33232W        W98492  25.028  38.974   1.604
33233W        W98493   5.734  27.531  11.567
33234W        W98494  14.401  11.612  11.059
33235W        W98495  16.629   4.453  11.163
33236W        W98496   1.247   1.343   3.814
33237W        W98497   8.344  30.125   2.188
33238W        W98498  25.772  34.737   2.421
33239W        W98499  21.031  27.596   2.013
33240W        W98500  23.047  44.240   0.425
33241W        W98501  24.215  11.725  11.191
33242W        W98502   7.768   1.757  12.964
33243W        W98503   1.731   5.696   2.849
33244W        W98504  20.539  22.261  10.514
33245W        W98505  35.138   8.258   3.704
33246W        W98506   6.701  17.788   4.703
33247W        W98507  24.813  19.994   2.614
33248W        W98508   2.306   1.695   1.856
33249W        W98509  19.156   9.756   2.651
33250W        W98510  41.483   4.660   4.755
33251W        W98511  27.118  36.516  14.404
33252W        W98512   1.543  33.988   2.235
33253W        W98513  40.528   1.994   2.392
33254W        W98514   5.791  23.185  13.097
33255W        W98515  34.331   8.365   0.934
33256W        W98516  39.781  15.776  11.978
33257W        W98517   7.623  38.829  13.859
33258W        W98518   3.587  14.227  11.934
33259W        W98519   6.931   3.730  12.543
33260W        W98520  27.723   1.316   0.841
33261W        W98521  28.667  35.365  12.977
33262W        W98522  10.394  39.703  10.341
33263W        W98523  13.806  14.098  10.613
33264W        W98524  12.250  26.972   3.144
33265W        W98525  14.342  38.306   3.568
33266W        W98526  11.698  22.977   4.984
33267W        W98527  10.872  36.593  13.352
33268W        W98528   0.393  34.891  13.706
33269W        W98529  39.056  19.752   1.638
33270W        W98530  15.192  28.693   4.408
33271W        W98531   7.940   1.333  12.052
33272W        W98532  44.411   6.783   3.373
33273W        W98533  43.262  42.257   1.779
33274W        W98534  18.549  10.710   2.147
33275W        W98535  22.833  30.501  10.687
33276W        W98536   7.848  43.792   0.746
33277W        W98537  11.688   2.278   3.444
33278W        W98538   3.446   4.656   0.800
33279W        W98539  29.352  16.965   2.883
33280W        W98540   4.701   7.884   3.685
33281W        W98541  11.368  21.997   4.162
33282W        W98542  14.797  29.128  12.883
33283W        W98543  27.182  29.413   1.968
33284W        W98544  44.446  20.168   4.299
33285W        W98545  10.132  38.457   1.273
33286W        W98546  20.172  14.591   4.159
33287W        W98547  19.887   1.022   9.973
33288W        W98548  17.331  18.919  11.151
33289W        W98549  10.760   6.011  10.304
33290W        W98550  30.577   4.127   0.415
33291W        W98551  31.969  42.785   3.644
33292W        W98552  25.098  19.242  11.703
33293W        W98553  13.194   0.709  13.335
33294W        W98554  37.963  19.843   3.630
33295W        W98555  35.381  15.900  11.057
33296W        W98556  33.205  25.557   1.159
33297W        W98557   0.823  41.326   3.709
33298W        W98558  44.025  10.685   2.987
33299W        W98559   4.377  40.950   1.789
33300W        W98560  44.847  17.623   1.863
33301W        W98561  43.184  22.049   0.783
33302W        W98562   8.978   1.688   3.865
33303W        W98563  38.993  17.184  14.900
33304W        W98564  31.176  11.134   1.723
33305W        W98565  43.793  22.972   1.915
33306W        W98566  36.315  25.913  14.331
33307W        W98567  28.462  11.869   1.729
33308W        W98568   6.241  31.849  11.594
33309W        W98569  35.824  24.128  10.644
33310W        W98570  42.098  22.043   1.596
33311W        W98571  25.612  30.965   3.373
33312W        W98572  30.546  35.993  12.123
33313W        W98573  26.208  41.293   3.300
33314W        W98574   2.983  38.926  10.518
33315W        W98575  28.618  42.972   0.285
33316W        W98576  43.509   8.669   2.300
33317W        W98577  21.387  33.123   3.479
33318W        W98578   2.392  42.055  10.619
33319W        W98579   2.552  37.888  10.992
33320W        W98580  42.576  20.078  14.399
33321W        W98581   2.827  26.912   2.574
33322W        W98582  23.463   2.512  10.306
33323W        W98583  17.328  15.076  13.517
33324W        W98584  34.118  15.789  14.441
33325W        W98585  22.830  42.519   1.844
33326W        W98586  13.235   2.818   3.779
33327W        W98587  13.169  23.592  13.408
33328W        W98588  44.332  20.536   4.670
33329W        W98589  24.689  21.946   4.539
33330W        W98590  19.672  25.290  13.016
33331W        W98591  26.406  11.108  14.428
33332W        W98592  11.285   6.179  10.194
33333W        W98593  12.247  39.965  13.154
33334W        W98594  17.259   4.954  11.490
33335W        W98595  20.616  29.920   0.174
33336W        W98596  35.497  33.377  11.407
33337W        W98597  32.547  26.040  12.077
33338W        W98598  11.367  15.748   2.327
33339W        W98599  16.000  31.227  13.525
33340W        W98600  13.194  26.440   0.951
33341W        W98601  15.288  18.530  14.012
33342W        W98602  33.617  29.480  11.400
33343W        W98603  11.656   1.039  12.926
33344W        W98604  14.372  23.791  11.716
33345W        W98605  37.957  12.885  14.246
33346W        W98606  44.381  27.875   1.594
33347W        W98607  12.327  41.088   2.179
33348W        W98608  29.849  44.476   4.489
33349W        W98609  24.656  43.465   1.348
33350W        W98610  15.063   6.932  12.873
33351W        W98611  13.419  14.368  10.861
33352W        W98612  28.132  22.216  13.769
33353W        W98613  23.808  28.130   3.149
33354W        W98614   1.451   9.924   0.287
33355W        W98615  23.537  17.982   1.020
33356W        W98616  41.819   7.822   2.958
33357W        W98617  43.812  38.960  13.286
33358W        W98618  26.945  38.172  12.331
33359W        W98619   7.148  38.994   4.579
33360W        W98620  13.221   0.976  12.034
33361W        W98621  21.016  19.582  12.509
33362W        W98622  23.993  30.605  10.935
33363W        W98623  26.607  41.430  14.256
33364W        W98624  30.144  18.770  14.518
33365W        W98625  18.278  40.070   1.884
33366W        W98626  26.771  22.396   3.264
33367W        W98627  20.707   3.381  11.425
33368W        W98628   6.038  28.142   0.897
33369W        W98629  38.015   3.778   5.155
33370W        W98630  13.409   1.689  14.751
33371W        W98631  15.596   1.368   0.407
33372W        W98632   7.785  33.205   1.921
33373W        W98633  18.160  19.910  12.880
33374W        W98634  19.754  44.993  13.381
33375W        W98635   8.170  34.591  12.967
33376W        W98636  36.876  13.151   0.314
33377W        W98637  27.651  23.534   4.311
33378W        W98638  19.555  23.119   0.847
33379W        W98639  20.512  30.609   1.786
33380W        W98640  12.429  23.665  11.014
33381W        W98641  23.947  16.791   2.968
33382W        W98642  14.316   9.740  12.756
33383W        W98643  32.330  30.920  10.673
33384W        W98644  12.506  40.854  12.225
33385W        W98645   7.651  41.681   1.741
33386W        W98646   3.673  23.168  12.534
33387W        W98647  37.422  34.338   2.684
33388W        W98648  42.322  16.666   4.808
33389W        W98649  18.301   6.682   0.308
33390W        W98650  34.297  19.974   2.769
33391W        W98651  31.102  26.580  10.302
33392W        W98652  35.504  10.690   3.072
33393W        W98653  20.520  37.911   1.125
33394W        W98654   0.809   4.858  11.964
33395W        W98655  29.795  23.438   0.904
33396W        W98656  17.700  39.341  10.641
33397W        W98657  36.438  41.013   9.922
33398W        W98658   8.232  35.082  12.817
33399W        W98659  31.484  42.968   3.837
33400W        W98660  22.738  29.602  10.797
33401W        W98661   0.229  33.550  10.595
33402W        W98662   6.310   4.904   1.148
33403W        W98663  37.973  41.955  13.888
33404W        W98664   3.946  29.127  11.620
33405W        W98665  11.139  40.327   1.410
33406W        W98666  39.010   3.724  12.575
33407W        W98667   7.339  39.575  11.996
33408W        W98668  34.860  37.460   2.646
33409W        W98669   3.265   0.491   2.866
33410W        W98670   2.336  31.399  13.089
33411W        W98671  32.405  28.902   3.635
33412W        W98672  12.060  32.162  12.530
33413W        W98673  27.042  16.259  13.797
33414W        W98674  19.445   9.482   4.485
33415W        W98675   2.475  36.893   3.702
33416W        W98676  28.544   5.445   2.286
33417W        W98677  26.843   7.457   0.495
33418W        W98678   8.904  11.769   2.837
33419W        W98679   1.538  21.377  13.437
33420W        W98680  32.358  39.285   4.142
33421W        W98681   6.375  16.784   2.635
33422W        W98682  15.517  21.037  11.681
33423W        W98683  22.047  22.913  11.675
33424W        W98684  12.249  12.103  13.588
33425W        W98685  18.978   9.980   0.851
33426W        W98686   3.888  42.584  12.917
33427W        W98687  34.828  16.684  11.136
33428W        W98688  40.577   5.628   2.930
33429W        W98689  38.879  30.921  12.642
33430W        W98690  23.171  27.983   2.170
33431W        W98691   0.194   7.271  13.388
33432W        W98692   4.861  30.606  11.886
33433W        W98693   4.743  20.782  14.704
33434W        W98694  27.201  20.085  14.907
33435W        W98695  35.192  32.681  13.221
33436W        W98696  20.050  41.524   2.254
33437W        W98697  22.959  16.005  11.308
33438W        W98698  10.291  13.184   4.822
33439W        W98699  36.393  19.254   4.112
33440W        W98700  32.249   5.241  11.150
33441W        W98701  27.165  25.625   0.406
33442W        W98702   7.920  43.794   0.194
33443W        W98703  38.748  40.143   2.955
33444W        W98704  27.055  32.627   1.044
33445W        W98705   6.920  44.290   0.109
33446W        W98706  11.047  31.662  10.554
33447W        W98707   5.253   5.173  12.636
33448W        W98708  26.194  27.181  12.930
33449W        W98709  39.357   5.928   1.029
33450W        W98710  12.116   2.216   2.724
33451W        W98711  37.030  35.018  11.877
33452W        W98712  18.845  33.019   1.193
33453W        W98713  34.323  21.545  13.676
33454W        W98714  40.959   4.747   1.305
33455W        W98715  37.965  39.847  14.934
33456W        W98716  36.124  38.760  11.256
33457W        W98717  37.847  28.138  14.325
33458W        W98718   1.431  21.579   0.203
33459W        W98719  18.953   4.193  11.812
33460W        W98720  27.264  13.206  11.145
33461W        W98721  16.651   3.673  11.567
33462W        W98722  25.986  34.666  14.226
33463W        W98723  36.800   3.790   3.686
33464W        W98724   1.288  35.505  14.277
33465W        W98725  28.595   4.069  13.524
33466W        W98726  33.112   7.577   2.406
33467W        W98727  19.998  34.892   4.551
33468W        W98728  21.499   7.899  13.586
33469W        W98729  35.337  14.060  11.077
33470W        W98730  28.536  32.584   2.792
33471W        W98731  35.631  39.856   4.383
33472W        W98732  33.574  17.886   2.811
33473W        W98733   8.708  29.551   3.513
33474W        W98734   5.971   5.721  10.685
33475W        W98735  21.612  11.275  13.536
33476W        W98736   1.424  44.397   4.248
33477W        W98737   2.185  43.546   4.215
33478W        W98738  27.481  43.901   1.800
33479W        W98739   3.414  13.339   4.360
33480W        W98740  36.889  28.196  14.485
33481W        W98741  33.106  22.859   2.865
33482W        W98742  39.119  13.057   3.194
33483W        W98743  10.375   9.892   3.088
33484W        W98744  38.522  18.530   0.388
33485W        W98745   4.576   4.228   4.307
33486W        W98746   3.616  14.557  13.055
33487W        W98747  18.153   7.435  12.363
33488W        W98748  34.874   4.248   0.924
33489W        W98749  38.798  32.880   0.377
33490W        W98750  39.571  18.307   2.062
33491W        W98751  40.579  22.421  11.744
33492W        W98752  29.827   4.239  10.781
33493W        W98753  11.475  32.051  14.428
33494W        W98754  26.248  21.252   1.850
33495W        W98755  39.316   2.363   4.432
33496W        W98756   7.317  13.444   0.917
33497W        W98757  23.734  31.800  14.820
33498W        W98758  25.754  42.901  10.340
33499W        W98759  39.585  32.692  10.419
33500W        W98760  17.060  40.286  12.042
33501W        W98761   5.161  23.946   3.666
33502W        W98762  25.543  26.668   2.662
33503W        W98763  43.753  12.345   2.300
33504W        W98764  11.419  25.355   0.579
33505W        W98765   1.874  11.470   3.356
33506W        W98766  44.275   4.894  14.801
33507W        W98767  12.816  26.073  13.966
33508W        W98768  12.177  27.462   3.294
33509W        W98769   5.890  43.181  13.323
33510W        W98770  27.736  13.056  11.218
33511W        W98771  16.678  12.112  11.166
33512W        W98772  29.365  23.269   1.712
33513W        W98773   5.734  21.286  14.721
33514W        W98774   8.213  39.869   4.063
33515W        W98775  36.305  42.041  11.125
33516W        W98776  10.596  26.542  13.652
33517W        W98777  20.488  29.016  13.550
33518W        W98778  35.766  13.007  11.744
33519W        W98779  41.760  31.641   4.600
33520W        W98780  30.685  40.861   0.845
33521W        W98781  21.894  21.765   5.398
33522W        W98782   0.722  33.575  10.708
33523W        W98783  13.177  15.222  11.625
33524W        W98784  10.784  17.591  12.051
33525W        W98785  39.332  31.663  11.587
33526W        W98786  39.039   8.380   1.760
33527W        W98787  15.087   8.879   0.215
33528W        W98788  26.627  15.803  11.762
33529W        W98789  35.486  39.530  10.776
33530W        W98790  13.169   9.166   1.256
33531W        W98791  17.690  13.853  12.067
33532W        W98792  40.410  22.321   2.157
33533W        W98793  33.279  33.440   1.222
33534W        W98794  18.791  28.773  10.948
33535W        W98795   9.018  15.353   2.297
33536W        W98796   8.256   6.330   2.325
33537W        W98797   0.257  22.221   3.705
33538W        W98798   9.873  38.982  11.659
33539W        W98799  38.031  40.727   1.257
33540W        W98800  26.527  13.222   4.519
33541W        W98801  21.135  40.402  13.356
33542W        W98802  37.977  32.358  13.098
33543W        W98803   9.903  44.991  11.564
33544W        W98804  10.377  42.763  12.973
33545W        W98805  20.327  34.337  11.717
33546W        W98806  18.339  11.058  14.090
33547W        W98807   2.897   5.378  13.521
33548W        W98808   0.762  32.845   3.701
33549W        W98809  20.149  22.599   1.206
33550W        W98810  11.556  32.133  12.479
33551W        W98811   3.195   7.652   2.280
33552W        W98812  13.429  43.017  11.197
33553W        W98813  34.933  13.340   2.108
33554W        W98814  26.762  10.394   1.465
33555W        W98815  13.057  11.737   1.855
33556W        W98816  15.299   8.301  14.402
33557W        W98817  16.323  44.024   3.644
33558W        W98818  18.410  37.509   2.459
33559W        W98819  17.300  22.334   0.426
33560W        W98820  25.557   1.217  10.366
33561W        W98821  12.408  26.738   3.777
33562W        W98822  24.923  38.558  12.871
33563W        W98823  24.238  14.428   0.920
33564W        W98824  25.297   6.377   3.339
33565W        W98825  35.486  31.657  11.164
33566W        W98826  14.315   1.981  12.185
33567W        W98827   8.921  20.060   2.234
33568W        W98828  23.471  14.947   3.828
33569W        W98829  35.840   9.252  12.003
33570W        W98830  12.154  19.069   0.711
33571W        W98831  42.001   7.762  14.351
33572W        W98832  17.561  36.475  10.933
33573W        W98833  39.555   2.380  13.825
33574W        W98834  18.553  18.791   1.887
33575W        W98835   2.689  27.498   0.816
33576W        W98836  33.396  33.319   5.261
33577W        W98837   2.956  32.847  11.267
33578W        W98838  39.090  10.726  14.922
33579W        W98839  38.348  34.789   0.473
33580W        W98840  42.515  23.164   3.211
33581W        W98841  17.184  39.090  11.499
33582W        W98842  14.534   1.269   1.188
33583W        W98843  40.473  39.081  11.238
33584W        W98844   2.263  11.405   9.765
33585W        W98845  24.935   0.842   4.816
33586W        W98846  10.798  13.595  12.547
33587W        W98847  21.081  28.163  11.551
33588W        W98848   2.293  36.958  12.454
33589W        W98849  22.749  19.575   1.170
33590W        W98850  38.395  33.819  13.889
33591W        W98851  35.848  21.479   2.549
33592W        W98852  35.825   4.335  13.519
33593W        W98853  41.009   0.350  10.861
33594W        W98854  19.676  11.689   3.350
33595W        W98855  14.802  10.685   2.702
33596W        W98856  32.418  11.856  11.502
33597W        W98857   4.029  20.820  13.333
33598W        W98858  17.008   7.338   2.327
33599W        W98859  42.561   2.339  10.728
33600W        W98860  40.707  20.134   4.739
33601W        W98861   1.748  18.240  14.343
33602W        W98862   6.863  29.788  14.779
33603W        W98863   3.896  25.673  12.036
33604W        W98864  15.317  16.235  12.477
33605W        W98865  31.415  14.559   2.003
33606W        W98866  17.582  10.228   0.916
33607W        W98867   8.029   0.109   1.765
33608W        W98868   3.377  32.380  14.787
33609W        W98869  36.818   0.922   1.130
33610W        W98870  42.545  36.866  11.076
33611W        W98871  32.656  20.078   2.316
33612W        W98872  23.004  35.088   0.678
33613W        W98873  19.199  44.286   1.695
33614W        W98874  27.538  41.841   3.714
33615W        W98875   1.884  36.627   4.889
33616W        W98876  39.235  34.289  11.688
33617W        W98877  14.277  11.496   0.269
33618W        W98878  29.741  15.318  13.311
33619W        W98879  24.005  28.740  11.315
33620W        W98880   4.836  32.148  10.930
33621W        W98881  35.927   4.339   4.083
33622W        W98882  15.818  30.195   2.640
33623W        W98883  32.911   6.503   2.473
33624W        W98884   6.744  34.908  13.949
33625W        W98885  11.315  18.771   1.597
33626W        W98886  16.621  31.392   3.361
33627W        W98887  14.829  40.205  14.927
33628W        W98888  28.057   9.509   1.743
33629W        W98889  13.313   0.866   1.059
33630W        W98890  21.530  21.136   1.390
33631W        W98891  15.827   4.669  11.015
33632W        W98892  38.457  19.113   2.116
33633W        W98893   1.487  39.033  10.739
33634W        W98894  43.882   3.024   1.912
33635W        W98895  27.421  44.948  14.417
33636W        W98896  15.744  39.323  12.454
33637W        W98897   3.974  24.106   4.616
33638W        W98898   1.667  36.681  11.648
33639W        W98899  10.917  34.388   3.214
33640W        W98900  26.215  22.263  12.367
33641W        W98901  14.402  34.108  14.722
33642W        W98902   5.887  36.272  11.240
33643W        W98903  22.020  44.868  10.691
33644W        W98904   7.247  23.145   0.865
33645W        W98905  39.795  16.743   4.083
33646W        W98906  20.629  21.569  14.772
33647W        W98907  12.134  23.662   2.273
33648W        W98908  43.508   9.013  10.685
33649W        W98909   8.408  14.766  10.507
33650W        W98910  14.248  43.043  11.633
33651W        W98911  35.384  24.491   2.867
33652W        W98912   7.264  39.406   2.726
33653W        W98913  15.124   7.441  14.015
33654W        W98914   2.531   7.359   3.538
33655W        W98915  34.188  16.997  13.930
33656W        W98916  23.790  16.131   4.001
33657W        W98917  26.913  36.922  13.259
33658W        W98918   3.363  33.363   1.682
33659W        W98919  44.071  12.089  11.012
33660W        W98920  27.855  41.535  11.141
33661W        W98921   4.979  12.138   3.806
33662W        W98922  15.851  16.854   4.605
33663W        W98923  31.236  16.467  14.359
33664W        W98924  27.717  14.508  13.546
33665W        W98925  40.095   8.990   4.720
33666W        W98926   3.873  13.714  12.947
33667W        W98927  44.036   0.559   0.307
33668W        W98928   0.564  30.258  11.148
33669W        W98929  12.092  37.182  14.185
33670W        W98930  28.001  11.623  14.446
33671W        W98931  10.920  32.371   3.237
33672W        W98932  15.198  24.485   3.151
33673W        W98933   9.937  26.201   0.503
33674W        W98934  41.031  13.924   4.712
33675W        W98935   0.879  31.006   3.547
33676W        W98936  23.041  37.633   3.065
33677W        W98937  20.010  34.031   2.981
33678W        W98938  24.255  29.433  14.884
33679W        W98939  18.386  30.363   5.028
33680W        W98940  14.702  42.536   4.546
33681W        W98941  25.666  44.605   2.629
33682W        W98942   5.741   9.117   0.065
33683W        W98943  15.011   8.334  10.643
33684W        W98944   4.461  28.362  10.288
33685W        W98945  39.951  31.226  14.751
33686W        W98946  15.316   5.263  12.753
33687W        W98947  34.432  35.928  11.650
33688W        W98948  39.611  42.444   4.250
33689W        W98949  42.530  12.910  10.210
33690W        W98950  15.595  41.285  12.833
33691W        W98951  31.859  16.157  14.879
33692W        W98952  11.405  26.578   3.626
33693W        W98953   2.022  43.912  14.073
33694W        W98954  28.679  12.681   0.508
33695W        W98955  22.458   0.511  13.305
33696W        W98956  26.031  44.765  14.081
33697W        W98957  28.083  37.835  14.020
33698W        W98958  28.438  44.790  14.479
33699W        W98959  34.860  18.615   4.259
33700W        W98960  11.702  25.262  13.064
33701W        W98961  25.130  30.629   0.250
33702W        W98962  15.823  39.891  10.207
33703W        W98963  35.606   2.392   0.462
33704W        W98964  41.255  15.215  12.564
33705W        W98965  43.773  17.203   3.259
33706W        W98966  43.958  16.261   3.643
33707W        W98967  40.610  12.255   1.894
33708W        W98968   6.143   7.250  14.892
33709W        W98969  31.992  20.338  12.427
33710W        W98970  28.775  17.797   4.116
33711W        W98971  32.523  15.833  10.728
33712W        W98972  24.554   3.735  10.792
33713W        W98973   8.646  22.096  13.077
33714W        W98974  33.183  35.410   3.615
33715W        W98975  25.592  13.181   4.539
33716W        W98976  26.668  25.176  11.545
33717W        W98977   4.454  14.271  10.712
33718W        W98978  33.121  35.739   2.276
33719W        W98979   9.420  24.330  14.193
33720W        W98980  23.648  41.955  11.331
33721W        W98981  22.530   2.465   2.565
33722W        W98982  16.521  35.003   0.515
33723W        W98983  31.590  22.945  11.089
33724W        W98984  29.545   8.082   1.381
33725W        W98985  24.537   8.619  13.925
33726W        W98986  40.834  34.319  14.502
33727W        W98987  35.727  44.475  14.088
33728W        W98988  37.283  32.413  12.927
33729W        W98989   6.070  25.775   4.507
33730W        W98990  13.612  31.491   3.369
33731W        W98991  33.332  35.201  11.210
33732W        W98992  43.917  35.820  13.917
33733W        W98993  35.032  21.232  12.003
33734W        W98994   3.902  28.137   0.810
33735W        W98995  21.228  38.360  12.615
33736W        W98996  40.781  11.163   1.300
33737W        W98997  25.253  20.922  13.574
33738W        W98998  27.555  38.174   2.942
33739W        W98999  36.595   8.400   3.852
33740W        W99000   5.511  22.706  11.526
33741W        W99001  18.441   5.119   1.280
33742W        W99002  24.051  16.326   2.154
33743W        W99003   7.879  36.399   4.692
33744W        W99004  33.428  40.533   2.941
33745W        W99005  44.806  43.434   3.170
33746W        W99006  21.249  35.915   1.817
33747W        W99007  16.864  17.148   2.414
33748W        W99008   2.741  39.589  14.399
33749W        W99009  44.345  29.691   5.180
33750W        W99010  15.066  39.378  12.114
33751W        W99011  31.657   4.959   0.538
33752W        W99012  15.520  44.897   4.526
33753W        W99013  21.702  25.729   0.908
33754W        W99014  38.452  38.995  11.564
33755W        W99015  19.450  41.504   1.243
33756W        W99016  22.453   7.798  14.579
33757W        W99017  32.751  33.770  12.819
33758W        W99018   2.641  14.480  13.698
33759W        W99019  31.020   3.786  11.524
33760W        W99020  21.060  35.919  13.113
33761W        W99021  44.361  38.405   2.046
33762W        W99022  33.959   6.734  13.447
33763W        W99023  33.337   9.711   1.903
33764W        W99024  44.061  29.900  14.862
33765W        W99025  19.660  31.296   1.940
33766W        W99026  25.186   3.481   3.614
33767W        W99027  27.921  14.240   5.165
33768W        W99028  10.208  15.801   1.758
33769W        W99029   1.800  26.970   2.253
33770W        W99030  24.042  23.278   1.266
33771W        W99031   3.773  21.746  10.768
33772W        W99032  37.161  28.954  11.959
33773W        W99033  18.056  31.968  13.526
33774W        W99034  19.768  29.648  12.232
33775W        W99035   3.997  23.207  13.680
33776W        W99036  22.633  17.148   0.167
33777W        W99037   1.877   7.204   0.487
33778W        W99038  42.584  35.023  14.029
33779W        W99039  42.938  35.927  12.359
33780W        W99040  17.202  32.144   3.073
33781W        W99041  20.120  12.858  12.426
33782W        W99042   9.479  29.995  13.991
33783W        W99043  18.227  37.193  12.811
33784W        W99044  21.862  21.002  14.942
33785W        W99045   6.938  20.083  12.502
33786W        W99046   6.893  30.205  12.999
33787W        W99047  37.500  14.650  11.813
33788W        W99048  31.620  44.904  12.479
33789W        W99049  19.728  35.663  11.191
33790W        W99050  34.130  10.675  12.459
33791W        W99051  19.350  33.089  12.458
33792W        W99052  25.423  44.509  12.514
33793W        W99053  44.861   0.308  11.579
33794W        W99054  23.518  15.110   1.237
33795W        W99055  36.481  18.594  10.536
33796W        W99056  28.991  35.720   2.835
33797W        W99057  34.933   7.234  12.610
33798W        W99058  34.674  37.068  11.968
33799W        W99059  25.938  26.424   2.906
33800W        W99060  16.187  34.952   3.648
33801W        W99061  37.049  27.860   1.966
33802W        W99062   7.801   3.039   0.361
33803W        W99063  18.659  33.704  11.061
33804W        W99064  12.658   3.362  11.613
33805W        W99065  16.070   5.068  12.404
33806W        W99066  12.293  32.541   4.096
33807W        W99067  12.127  26.492  12.514
33808W        W99068   9.738  10.242   1.221
33809W        W99069  25.542   8.167  12.929
33810W        W99070  37.390  28.996   0.145
33811W        W99071  27.724  33.620  11.072
33812W        W99072  20.365  29.508   2.765
33813W        W99073  27.554  28.861   1.756
33814W        W99074  22.765   4.697   2.681
33815W        W99075  14.382  25.381  10.616
33816W        W99076  20.650  23.225   0.545
33817W        W99077  21.066  17.878   2.643
33818W        W99078  12.607   8.888   5.127
33819W        W99079   7.714  36.667  12.953
33820W        W99080  12.085  15.152  13.341
33821W        W99081  14.636  37.950   3.235
33822W        W99082   0.714  41.061  14.524
33823W        W99083  38.788  35.054   3.776
33824W        W99084   3.367  11.403   3.776
33825W        W99085   6.719  41.441  11.163
33826W        W99086  12.170   0.500   1.570
33827W        W99087  21.169  10.402  13.966
33828W        W99088  44.489  26.280   4.254
33829W        W99089  35.713   0.094   4.557
33830W        W99090  41.246  44.898  13.926
33831W        W99091  36.643  16.054   4.079
33832W        W99092  19.030   2.751  11.090
33833W        W99093  43.278  21.587   4.159
33834W        W99094  10.196   1.141   2.344
33835W        W99095  40.542  22.670   0.624
33836W        W99096   0.532  42.508  10.769
33837W        W99097  10.177  44.593   1.953
33838W        W99098  42.898  16.616   4.041
33839W        W99099   1.012  23.489  10.339
33840W        W99100   3.287  23.040  11.062
33841W        W99101  24.265  37.389   1.396
33842W        W99102  37.259  12.009   5.206
33843W        W99103  25.040  44.679  11.654
33844W        W99104   6.371  24.989   0.498
33845W        W99105  26.698  34.512   4.165
33846W        W99106  29.631  23.751   3.574
33847W        W99107   9.564  39.874  13.278
33848W        W99108  26.131   8.448   4.168
33849W        W99109   2.978  34.523  12.345
33850W        W99110  41.443  11.189  11.276
33851W        W99111  17.137  25.419  13.473
33852W        W99112  27.401  38.131  11.966
33853W        W99113  33.296   7.906   3.332
33854W        W99114  10.103  32.948  10.901
33855W        W99115   1.527  14.128  11.054
33856W        W99116  32.219  42.494   1.332
33857W        W99117  36.544   7.708   1.295
33858W        W99118  35.491   6.436   0.085
33859W        W99119   9.370  21.690  11.024
33860W        W99120  34.863  11.738   0.385
33861W        W99121  39.907  26.701  13.813
33862W        W99122   4.634  15.128  12.448
33863W        W99123  31.965  15.808   3.891
33864W        W99124   9.783  27.558   2.291
33865W        W99125  39.136   8.570  14.995
33866W        W99126  15.221  21.056   2.171
33867W        W99127  15.580  44.916   3.997
33868W        W99128  36.671  33.700  13.033
33869W        W99129  28.010  30.046   2.663
33870W        W99130  42.794  36.466  13.587
33871W        W99131   8.093  20.382   2.676
33872W        W99132   3.740  28.075   2.248
33873W        W99133   4.833  18.242  14.471
33874W        W99134   6.047  28.469  10.596
33875W        W99135  33.459  42.072   1.934
33876W        W99136  26.996  15.549  14.425
33877W        W99137   1.028  28.490  10.460
33878W        W99138   7.770  42.255   3.587
33879W        W99139   7.663  43.472  11.104
33880W        W99140   9.650  34.391   4.955
33881W        W99141  15.190  18.681   2.362
33882W        W99142  36.652  18.312   0.105
33883W        W99143   5.716  38.391   3.944
33884W        W99144  19.050  16.170  10.628
33885W        W99145  33.015  16.813   0.910
33886W        W99146  40.996   5.512  14.077
33887W        W99147  32.472  40.441   1.355
33888W        W99148  33.935  10.067  12.528
33889W        W99149  26.361  18.633   0.799
33890W        W99150  33.549  19.557  13.578
33891W        W99151   4.855   9.131  14.874
33892W        W99152  19.756  20.141  13.419
33893W        W99153  29.246  14.787   4.623
33894W        W99154   1.436  22.073  11.106
33895W        W99155  39.064   2.114   2.230
33896W        W99156  11.750  32.310   0.325
33897W        W99157   3.761  13.641  13.902
33898W        W99158  19.315   8.705   1.347
33899W        W99159  37.815  13.062   2.856
33900W        W99160  13.549  33.553   3.037
33901W        W99161  15.582  26.864   1.738
33902W        W99162  41.417  18.496   0.393
33903W        W99163  11.227  43.900  10.726
33904W        W99164   7.526  37.542  14.833
33905W        W99165  31.057  23.187   3.628
33906W        W99166  32.757  13.321   4.552
33907W        W99167   2.291   2.741  13.233
33908W        W99168  12.434  23.026  13.498
33909W        W99169   6.364  40.599  10.394
33910W        W99170  30.974  18.679  14.883
33911W        W99171  29.391   9.413   1.859
33912W        W99172  32.282  16.555   1.081
33913W        W99173   0.179  25.701   0.437
33914W        W99174  38.743  37.560   2.879
33915W        W99175   2.188  31.030  12.065
33916W        W99176  24.034  30.123  11.638
33917W        W99177  44.978   6.463  13.218
33918W        W99178  44.867  32.632   3.386
33919W        W99179  39.921  38.279   2.445
33920W        W99180   0.885  28.129   0.875
33921W        W99181  44.244  20.162  11.000
33922W        W99182  35.041   4.032  12.784
33923W        W99183  26.509   1.483   3.268
33924W        W99184  44.571  21.855  13.057
33925W        W99185  43.271  27.447   0.701
33926W        W99186  13.655  11.259  10.663
33927W        W99187  13.297  37.255  12.196
33928W        W99188  37.724   0.794   2.505
33929W        W99189  21.039  26.639   1.377
33930W        W99190  23.971  39.441   4.445
33931W        W99191  14.427   6.856   1.865
33932W        W99192  34.901  17.357   9.867
33933W        W99193  28.678  27.775   1.801
33934W        W99194   6.956   9.187   1.222
33935W        W99195  25.961  38.430   4.550
33936W        W99196  40.465   7.174  13.381
33937W        W99197   3.012  37.571   1.925
33938W        W99198  42.639  44.021  12.560
33939W        W99199   5.676  43.364  10.594
33940W        W99200  32.443  34.294  14.379
33941W        W99201   9.622  42.273   4.856
33942W        W99202  41.925  27.435  11.706
33943W        W99203  36.752  18.225   0.642
33944W        W99204  30.595   6.976  11.228
33945W        W99205  32.498  29.427  13.512
33946W        W99206  28.597  11.697   3.584
33947W        W99207  29.680  32.558  14.859
33948W        W99208   5.683  42.966   3.719
33949W        W99209  29.467   7.125  10.298
33950W        W99210  11.662  24.259  13.022
33951W        W99211  32.673   4.267   0.553
33952W        W99212  30.930  37.080  14.381
33953W        W99213  20.623  15.306  10.558
33954W        W99214   4.394  30.998  11.281
33955W        W99215  28.917  29.126  14.467
33956W        W99216  36.042  17.480   0.796
33957W        W99217  24.086  44.381  11.894
33958W        W99218  37.325  41.251   0.374
33959W        W99219  42.425  38.097  12.300
33960W        W99220   8.325  20.153  11.640
33961W        W99221  31.877   6.967  12.567
33962W        W99222  43.495  21.659  10.607
33963W        W99223  11.749  31.066   1.840
33964W        W99224   5.452  12.714  11.477
33965W        W99225  10.794  40.051  10.324
33966W        W99226  35.639  24.089   3.171
33967W        W99227   8.318  13.162   4.578
33968W        W99228  39.027  42.447  14.753
33969W        W99229   3.817   3.715   4.879
33970W        W99230  19.963   0.852   0.980
33971W        W99231  14.674  15.387   4.255
33972W        W99232  18.062  29.662  11.569
33973W        W99233  22.817  23.045   0.217
33974W        W99234  24.026  10.610  12.924
33975W        W99235  44.854   8.763   3.683
33976W        W99236  43.366  18.093   4.463
33977W        W99237  24.172  43.765   0.684
33978W        W99238  17.331  26.351   2.965
33979W        W99239   5.488  29.059   2.837
33980W        W99240   8.215  36.892   4.358
33981W        W99241  10.422  17.122  14.616
33982W        W99242  21.150  20.071  10.789
33983W        W99243  25.540  26.780   4.583
33984W        W99244   1.919  29.554  10.545
33985W        W99245  18.345  40.373   2.836
33986W        W99246  13.002  23.729  11.637
33987W        W99247  41.125   7.341   1.308
33988W        W99248  14.202  29.982   1.317
33989W        W99249  42.271   6.254   1.146
33990W        W99250  39.358  11.228   0.423
33991W        W99251  22.292  19.008   1.307
33992W        W99252   4.720  29.721  12.998
33993W        W99253   7.344  20.452  11.124
33994W        W99254   3.256   6.080  13.872
33995W        W99255  27.998  26.793  12.470
33996W        W99256  38.510   3.656   1.199
33997W        W99257  44.791  11.626   0.403
33998W        W99258  20.459  10.001   4.169
33999W        W99259  36.606  29.076  14.363
34000W        W99260  39.049  13.481  12.556
34001W        W99261  30.393   6.134  11.496
34002W        W99262  27.826  26.972   2.819
34003W        W99263  15.136  43.078  11.948
34004W        W99264  38.892  30.901  11.150
34005W        W99265  30.053  10.115   4.730
34006W        W99266   2.378  43.566  11.969
34007W        W99267  34.966   9.435  13.775
34008W        W99268   1.786  20.347   0.702
34009W        W99269   1.386  42.813   0.783
34010W        W99270  16.736   1.281   3.223
34011W        W99271  26.662  33.003   3.647
34012W        W99272  24.104  38.227   2.713
34013W        W99273  25.618  17.394   1.475
34014W        W99274  24.210  29.442   3.250
34015W        W99275  18.525  42.714  14.705
34016W        W99276   6.250  31.615   4.348
34017W        W99277  40.198  10.081   0.442
34018W        W99278  43.597  17.714   0.347
34019W        W99279  24.525  25.612   0.840
34020W        W99280  41.548  43.822   3.744
34021W        W99281   0.347  41.425  12.595
34022W        W99282  30.527  29.442   2.825
34023W        W99283  30.735  36.097   1.873
34024W        W99284   7.451  34.461   1.140
34025W        W99285   3.416   9.326  14.372
34026W        W99286  14.448  14.697  11.653
34027W        W99287  25.500  36.458   5.221
34028W        W99288  29.577  19.565  13.927
34029W        W99289  14.660  19.228  12.060
34030W        W99290  11.875   5.382  14.582
34031W        W99291  17.644  12.030  12.335
34032W        W99292  10.798  25.007   4.112
34033W        W99293  11.010  29.529   2.037
34034W        W99294   5.409  26.603  10.658
34035W        W99295  29.622  13.393   2.897
34036W        W99296  40.861  24.085  12.440
34037W        W99297  24.403   4.679  12.493
34038W        W99298  31.335  39.290  14.042
34039W        W99299  31.588   7.659   1.900
34040W        W99300  36.806  21.771  11.998
34041W        W99301   1.945  12.634   5.049
34042W        W99302  17.796  43.971   2.779
34043W        W99303  13.877  42.965   3.153
34044W        W99304   1.227  19.533   4.978
34045W        W99305  16.035  25.910  13.458
34046W        W99306  41.004  37.915  14.520
34047W        W99307  15.278  32.050   1.350
34048W        W99308  18.920  16.538  11.094
34049W        W99309  36.834  40.665  12.894
34050W        W99310  16.639  33.898   1.396
34051W        W99311   9.589  12.913   0.857
34052W        W99312  25.140   9.703   4.586
34053W        W99313  43.088  16.066   0.801
34054W        W99314  42.329  39.957   3.342
34055W        W99315   2.068  21.707  12.174
34056W        W99316  31.957  19.577   3.237
34057W        W99317   5.296   4.388   2.108
34058W        W99318   2.920  16.427   0.397
34059W        W99319  30.506  29.477   0.712
34060W        W99320  28.193  37.313  12.874
34061W        W99321   0.503  40.405  13.901
34062W        W99322   9.634  31.072   4.685
34063W        W99323  31.903  26.174   1.965
34064W        W99324  19.050  31.149  14.591
34065W        W99325  33.521   2.780   1.973
34066W        W99326   5.216   8.173  12.512
34067W        W99327  42.461  37.054  10.583
34068W        W99328  26.642  12.839   2.419
34069W        W99329  40.816  39.651   2.911
34070W        W99330  24.077  24.225  13.874
34071W        W99331   0.023  39.376   0.794
34072W        W99332  40.433  41.668  12.031
34073W        W99333  12.793  22.207  14.220
34074W        W99334   2.713   2.810  14.741
34075W        W99335   4.696  27.717  11.610
34076W        W99336  39.025  41.425   4.305
34077W        W99337  15.676  13.888  13.853
34078W        W99338  44.355  19.006  13.507
34079W        W99339  25.161  23.074   1.519
34080W        W99340  11.501   8.679   2.758
34081W        W99341  22.116   5.988   3.184
34082W        W99342  41.134  13.657   2.787
34083W        W99343  16.827  38.694   2.293
34084W        W99344  31.921  29.536   0.691
34085W        W99345  12.264  32.504   1.456
34086W        W99346  40.769  37.076   3.328
34087W        W99347  31.864   1.637   1.881
34088W        W99348   9.087  19.314   3.166
34089W        W99349  43.939  23.020   4.171
34090W        W99350   8.035  31.153  13.186
34091W        W99351   4.462  42.754  11.062
34092W        W99352  12.109  34.838  12.024
34093W        W99353   7.174  13.569  13.959
34094W        W99354  36.149   4.977  11.675
34095W        W99355   8.112  29.687   2.323
34096W        W99356   6.891   7.195  12.926
34097W        W99357  13.566   1.513  12.443
34098W        W99358   0.113  39.872   0.768
34099W        W99359  41.898   6.975  12.480
34100W        W99360  39.262  17.510  12.541
34101W        W99361  39.169   4.373  13.630
34102W        W99362  23.454  34.570   2.255
34103W        W99363   5.283   5.061  11.571
34104W        W99364  40.814  37.435  10.079
34105W        W99365  42.717  44.528  12.443
34106W        W99366  16.285  13.863   2.649
34107W        W99367  33.346  19.611  10.929
34108W        W99368  11.897  29.545   2.361
34109W        W99369   2.729  37.473  11.536
34110W        W99370  30.881  10.238  13.362
34111W        W99371  21.668   4.693   3.533
34112W        W99372  18.130  20.695   3.547
34113W        W99373  39.522  19.276   4.560
34114W        W99374  20.777  42.936  11.335
34115W        W99375  37.057  39.821  11.811
34116W        W99376  22.642  43.345   0.848
34117W        W99377  24.515  22.358   3.639
34118W        W99378   9.865  40.817   0.208
34119W        W99379  18.630  26.452  11.903
34120W        W99380  25.947  31.082  13.864
34121W        W99381  18.223   9.186   4.461
34122W        W99382  11.127   1.550  12.463
34123W        W99383  31.839  41.813   0.847
34124W        W99384  40.648  36.346  14.510
34125W        W99385   9.004  27.199   2.511
34126W        W99386  13.251  13.504   2.386
34127W        W99387  27.463  37.360  12.571
34128W        W99388  23.432  17.648   4.065
34129W        W99389  19.740  43.983  13.996
34130W        W99390  23.208  15.662   3.315
34131W        W99391  27.643  29.341  11.003
34132W        W99392  22.014   7.153  12.966
34133W        W99393   5.350  41.732   1.431
34134W        W99394  43.434  26.983  11.671
34135W        W99395  44.230  33.406  14.497
34136W        W99396  40.281  32.070  14.331
34137W        W99397   5.225  19.821   2.660
34138W        W99398   1.290   1.756   1.783
34139W        W99399  31.942  43.421  12.066
34140W        W99400  25.232  42.354  10.839
34141W        W99401  42.603  12.374  13.799
34142W        W99402  15.050  29.826   2.908
34143W        W99403  36.578   2.212   0.945
34144W        W99404  12.774  35.370   3.227
34145W        W99405  32.924  38.916   0.204
34146W        W99406  18.795  31.465  12.888
34147W        W99407   5.412  12.313   4.963
34148W        W99408  19.144  12.703  11.630
34149W        W99409  23.239  20.645  13.036
34150W        W99410  21.722   8.690  13.972
34151W        W99411  11.781  14.023   0.805
34152W        W99412  29.470   7.765  10.906
34153W        W99413  44.705   6.404  11.819
34154W        W99414  28.689   7.685   2.009
34155W        W99415  25.636  31.042  12.389
34156W        W99416  20.277  12.672  11.496
34157W        W99417  29.376  44.941  12.481
34158W        W99418  22.075   0.822   1.597
34159W        W99419  22.699  24.160   0.027
34160W        W99420   6.743  21.974   1.378
34161W        W99421  32.911  34.089   4.018
34162W        W99422  30.192  14.012   0.994
34163W        W99423  34.931  27.381  13.378
34164W        W99424  22.037  17.338  11.909
34165W        W99425  33.340  22.562   1.625
34166W        W99426  32.332   4.284   1.866
34167W        W99427  23.270   6.807  14.355
34168W        W99428   5.502  37.103  10.925
34169W        W99429  30.128   8.206   4.163
34170W        W99430  34.162  32.343  13.925
34171W        W99431  40.601  21.057  13.120
34172W        W99432   9.869  25.675   5.084
34173W        W99433  28.688   9.884  11.287
34174W        W99434   4.284   9.854   3.076
34175W        W99435  21.131  33.364  11.047
34176W        W99436   1.374  32.167   2.807
34177W        W99437   3.843  26.749   5.076
34178W        W99438   0.275  33.808  14.370
34179W        W99439  28.677  21.380  14.005
34180W        W99440  18.009  33.605   1.718
34181W        W99441  23.759  38.626  14.476
34182W        W99442  22.512  11.153   1.875
34183W        W99443  32.967  23.653  10.584
34184W        W99444   7.988  27.727  10.351
34185W        W99445  13.527   5.969   2.736
34186W        W99446  14.220  17.151   3.195
34187W        W99447  13.522  36.423  10.716
34188W        W99448  26.482  13.180  11.526
34189W        W99449  34.633  27.122   1.269
34190W        W99450   7.432  44.911  11.215
34191W        W99451  33.543  11.407  12.630
34192W        W99452  22.551  20.034   1.319
34193W        W99453  44.039   9.597  12.615
34194W        W99454  26.035  34.815   4.699
34195W        W99455  17.249   2.903   2.863
34196W        W99456   2.798  32.079   1.934
34197W        W99457  18.818  11.171  13.869
34198W        W99458  41.482  36.441   4.602
34199W        W99459  40.218  19.523   1.411
34200W        W99460  42.680  36.421   2.675
34201W        W99461  40.832  41.217   1.997
34202W        W99462   8.802  37.630   0.897
34203W        W99463  10.179  29.896   4.859
34204W        W99464  41.916   6.237   0.193
34205W        W99465   2.945  38.444  13.890
34206W        W99466   6.722  41.846  13.339
34207W        W99467   5.249  18.390  14.751
34208W        W99468  12.458  18.468   4.562
34209W        W99469  24.795   0.030   1.296
34210W        W99470  35.335  21.811  14.900
34211W        W99471  15.312   7.162   1.860
34212W        W99472  42.554  36.401  14.826
34213W        W99473  36.381   7.864  14.022
34214W        W99474  42.774   2.546  11.154
34215W        W99475   2.709  32.082  14.804
34216W        W99476   5.973  15.694   3.770
34217W        W99477  25.170  35.606   3.119
34218W        W99478  37.859  29.946   3.705
34219W        W99479  36.506  19.290  12.798
34220W        W99480   5.734  41.065  11.338
34221W        W99481  35.449   0.352   0.881
34222W        W99482   8.884  44.735   0.694
34223W        W99483  21.710   8.103   2.614
34224W        W99484  31.979  19.033   3.147
34225W        W99485  30.921  17.132  11.638
34226W        W99486   3.740  34.002   0.085
34227W        W99487  10.206  14.330  10.623
34228W        W99488  30.861  39.735  13.972
34229W        W99489  43.737  35.856   3.288
34230W        W99490  27.034  26.399   1.746
34231W        W99491  16.270  20.069   2.178
34232W        W99492  31.047  23.399  12.657
34233W        W99493   1.785  35.172   1.343
34234W        W99494  12.329   4.747   4.089
34235W        W99495  41.903  32.825  13.985
34236W        W99496  13.097  18.095  13.787
34237W        W99497  15.316  43.990  12.174
34238W        W99498  37.641   0.383  12.526
34239W        W99499  29.042  38.144   4.304
34240W        W99500  26.363  39.128   0.713
34241W        W99501   9.772   1.659   0.471
34242W        W99502  14.900  28.346  12.251
34243W        W99503  27.051  39.009  10.226
34244W        W99504  21.603   8.716   0.905
34245W        W99505  25.467   3.909   4.974
34246W        W99506  18.255  10.236  11.851
34247W        W99507  35.312  15.114  12.987
34248W        W99508  39.803  32.824  13.117
34249W        W99509  43.053  27.111  12.930
34250W        W99510   4.976   7.717   2.883
34251W        W99511   2.421   4.378   4.858
34252W        W99512  19.353  39.587  12.795
34253W        W99513  36.355  35.987   3.739
34254W        W99514  12.719   3.657  14.029
34255W        W99515  22.474  11.825   1.280
34256W        W99516  15.150  11.633  12.216
34257W        W99517   2.131  14.854  11.418
34258W        W99518  33.302  42.308  14.899
34259W        W99519  44.295   5.610  11.148
34260W        W99520  20.424   5.752  14.947
34261W        W99521   8.442  21.143   1.745
34262W        W99522  17.238  41.534   2.256
34263W        W99523  26.698  33.667   4.393
34264W        W99524  38.500  16.442  11.875
34265W        W99525  43.099   8.871   1.370
34266W        W99526  43.015  15.791   0.345
34267W        W99527  34.444  34.780  11.551
34268W        W99528  42.968  14.190  13.408
34269W        W99529  41.732  35.819  10.167
34270W        W99530  40.950   2.548   4.077
34271W        W99531  31.476  21.728   1.349
34272W        W99532   3.759   0.835  13.872
34273W        W99533  36.169   2.470   4.496
34274W        W99534  23.667  40.907  11.506
34275W        W99535  10.434  34.350  12.513
34276W        W99536  20.201   8.187  12.034
34277W        W99537   9.215   7.208   9.882
34278W        W99538  22.236   2.820  10.486
34279W        W99539   0.204  28.136  12.456
34280W        W99540  10.588   0.891  14.929
34281W        W99541   7.443   5.738   4.666
34282W        W99542  37.160  21.176  13.304
34283W        W99543   6.347  34.105  12.763
34284W        W99544  27.782  15.502  13.369
34285W        W99545  22.063  23.864   4.738
34286W        W99546   7.518   0.384  13.389
34287W        W99547  28.935   8.399  12.960
34288W        W99548  22.693   2.829  10.250
34289W        W99549  19.552  18.759   3.637
34290W        W99550  31.429  18.075  13.502
34291W        W99551  42.620  14.857  14.695
34292W        W99552  17.020  43.035  11.243
34293W        W99553  44.922  44.989  12.378
34294W        W99554  31.862  15.341  11.186
34295W        W99555   5.087  22.624   1.655
34296W        W99556   5.772  35.167  10.627
34297W        W99557   1.841   7.821  13.013
34298W        W99558  21.512  30.205   3.267
34299W        W99559  11.854  25.982  10.201
34300W        W99560   3.715   7.110  14.801
34301W        W99561  16.636  37.781   1.940
34302W        W99562  23.517   5.458  14.412
34303W        W99563  26.951  22.979  13.758
34304W        W99564  38.832   5.812  12.930
34305W        W99565  20.547  32.203  10.543
34306W        W99566  14.280  27.452  11.065
34307W        W99567  43.828  16.293   1.738
34308W        W99568   6.907  28.159   3.156
34309W        W99569  34.350  38.250   0.592
34310W        W99570  29.100  42.718  13.033
34311W        W99571  28.104  21.789   0.698
34312W        W99572   3.449  12.150   2.773
34313W        W99573  35.424   8.637   1.341
34314W        W99574  32.595  16.056   3.098
34315W        W99575  28.482  11.420   0.135
34316W        W99576  15.048  30.838  13.358
34317W        W99577  19.306  17.990   1.897
34318W        W99578   3.159  30.574  14.061
34319W        W99579  20.690  30.491  14.745
34320W        W99580  39.229  25.158   2.423
34321W        W99581  19.146   7.431   0.833
34322W        W99582   9.364  42.428  13.947
34323W        W99583  26.945  41.895  12.617
34324W        W99584  32.632  22.220  14.777
34325W        W99585  33.066   2.518   4.317
34326W        W99586  43.670  25.137  14.767
34327W        W99587  36.148  28.454  10.660
34328W        W99588  44.286   8.880  12.465
34329W        W99589  27.180  39.378  13.031
34330W        W99590  17.544   2.355   1.297
34331W        W99591  13.607  18.691  14.944
34332W        W99592  11.540  14.311   1.877
34333W        W99593  44.044   5.787  14.760
34334W        W99594   3.882  18.003   4.716
34335W        W99595   6.013  35.313  13.406
34336W        W99596  19.066  32.434   2.394
34337W        W99597  32.877  34.166   1.944
34338W        W99598  39.820  21.732  10.761
34339W        W99599   0.518  13.636   4.725
34340W        W99600  35.842   0.288   3.651
34341W        W99601  16.551  40.186  11.941
34342W        W99602  12.823  44.403   3.205
34343W        W99603  36.324  12.697  14.847
34344W        W99604  28.030  26.512   1.859
34345W        W99605  32.560  10.792   4.688
34346W        W99606  25.242  10.112  10.545
34347W        W99607  11.633  43.695  11.773
34348W        W99608  31.315  15.769  11.855
34349W        W99609   0.539  35.624  11.136
34350W        W99610  42.177  38.485   4.572
34351W        W99611  36.119  42.914   1.804
34352W        W99612   4.738   0.550  10.530
34353W        W99613  19.725  14.563   0.912
34354W        W99614   7.372  33.012   2.662
34355W        W99615  37.089  38.902   1.630
34356W        W99616  16.258   2.782   0.633
34357W        W99617  24.974   8.815   5.051
34358W        W99618  33.806  44.822  11.568
34359W        W99619  29.200  31.899  10.878
34360W        W99620  15.844  28.747   3.715
34361W        W99621  37.566  40.849   3.443
34362W        W99622  44.535  36.510   1.199
34363W        W99623  29.611  28.746  11.746
34364W        W99624   6.200  37.630   2.783
34365W        W99625  17.503  29.098   1.243
34366W        W99626  41.350  33.723  12.283
34367W        W99627  34.691  39.018  14.084
34368W        W99628   0.708  26.182   0.797
34369W        W99629  39.583   1.736   2.639
34370W        W99630   1.843  12.158  13.802
34371W        W99631  22.034  30.341  11.203
34372W        W99632  12.613  14.251   1.485
34373W        W99633  12.689  18.221  12.830
34374W        W99634   2.141  24.139   2.718
34375W        W99635  36.413   8.933  13.029
34376W        W99636  27.158  11.380   0.886
34377W        W99637   6.163   3.567  11.152
34378W        W99638  18.218  40.845   3.080
34379W        W99639  34.152  30.741   0.380
34380W        W99640  20.794   3.943  13.514
34381W        W99641  19.533  21.616   0.392
34382W        W99642   9.283  39.375  14.048
34383W        W99643   4.353  17.057   3.101
34384W        W99644  35.115  44.647   3.880
34385W        W99645  18.244  33.513  12.888
34386W        W99646  41.518  41.772   1.546
34387W        W99647  38.558  30.211  14.773
34388W        W99648  44.499  42.253  11.996
34389W        W99649  22.000  19.684  14.793
34390W        W99650  37.933  13.871   3.258
34391W        W99651  10.190  20.659   2.150
34392W        W99652  17.069  10.319   1.427
34393W        W99653  28.146  36.087   1.808
34394W        W99654   6.237  21.467  14.827
34395W        W99655  29.383  13.786   4.794
34396W        W99656  34.973  14.083  11.505
34397W        W99657  34.248  21.354   3.245
34398W        W99658  20.720  28.467   0.319
34399W        W99659  10.509  38.953   5.362
34400W        W99660   2.200  23.324   1.679
34401W        W99661  33.885  12.445  13.026
34402W        W99662   3.213   2.182  12.423
34403W        W99663  33.054   7.706  13.381
34404W        W99664  38.816  13.928  12.414
34405W        W99665  44.507  22.328  11.027
34406W        W99666   5.254  11.678   3.628
34407W        W99667  35.600  14.568   0.225
34408W        W99668  16.424  44.251  14.320
34409W        W99669  21.594   2.199   0.951
34410W        W99670  24.034  34.581   4.312
34411W        W99671  18.608  43.180   4.586
34412W        W99672  25.204  32.596   4.224
34413W        W99673  22.242   8.461   3.387
34414W        W99674   9.793  30.320   4.134
34415W        W99675  16.569  24.144   3.160
34416W        W99676  30.244   5.136   0.229
34417W        W99677  32.091   8.903  11.089
34418W        W99678  15.279   1.547   4.066
34419W        W99679   0.670  29.240   3.778
34420W        W99680  14.870  34.360   0.919
34421W        W99681  40.646  39.426   1.350
34422W        W99682  17.256  18.045  12.148
34423W        W99683  16.356   0.378   1.780
34424W        W99684  37.438   9.760   2.320
34425W        W99685  17.742   8.902   2.324
34426W        W99686  37.474  19.871  11.022
34427W        W99687  35.703  15.573  12.806
34428W        W99688  44.363  18.803   2.821
34429W        W99689  16.264  36.374  11.944
34430W        W99690  43.777  38.688  12.629
34431W        W99691  29.208  27.084   0.018
34432W        W99692  38.123  36.372   4.528
34433W        W99693   0.891  15.231  12.065
34434W        W99694   6.415   3.554   4.523
34435W        W99695  39.025  44.558  11.154
34436W        W99696  36.403  21.311  10.895
34437W        W99697  39.865  26.528  10.739
34438W        W99698  39.444   4.124   4.012
34439W        W99699   0.348  44.794  12.118
34440W        W99700  15.415  19.282  11.400
34441W        W99701  36.598  39.848  13.584
34442W        W99702  44.464   0.375   1.476
34443W        W99703  33.724  44.684  11.017
34444W        W99704  17.201  41.964  11.760
34445W        W99705   2.746  21.627   3.403
34446W        W99706   1.744   1.389   3.804
34447W        W99707  25.587  34.381  14.032
34448W        W99708  40.929  32.852   1.424
34449W        W99709  19.535  26.680  10.827
34450W        W99710   7.177  20.807   4.980
34451W        W99711   5.744  12.635  13.954
34452W        W99712  25.249  17.267   2.275
34453W        W99713  36.066  31.148  13.533
34454W        W99714  23.769  15.610   4.064
34455W        W99715  33.999  17.602   0.070
34456W        W99716  23.998   2.302  11.119
34457W        W99717   2.892  16.015  14.362
34458W        W99718   2.825  35.056   4.436
34459W        W99719   1.428  14.407  11.947
34460W        W99720  14.660  15.162   0.690
34461W        W99721  14.216  33.086  12.939
34462W        W99722   8.734  25.450   4.077
34463W        W99723   0.089  13.660  14.851
34464W        W99724  11.067  24.553  14.007
34465W        W99725  17.592   8.324  14.583
34466W        W99726  39.343  14.754   4.112
34467W        W99727  28.932  25.190  12.170
34468W        W99728   4.757   3.177   4.186
34469W        W99729  28.115   6.439   0.401
34470W        W99730  32.134  41.392   0.945
34471W        W99731  23.200  21.964   2.592
34472W        W99732  31.129   0.673  13.816
34473W        W99733  12.521  43.544  11.020
34474W        W99734   1.205  41.431  12.427
34475W        W99735  28.518  19.072   3.704
34476W        W99736   6.238  20.735   2.594
34477W        W99737  40.327   0.825  14.861
34478W        W99738  28.184  20.473  13.087
34479W        W99739  17.717  44.693  11.951
34480W        W99740   4.177  32.390  14.718
34481W        W99741   2.834  38.029  12.951
34482W        W99742   7.199   5.657  14.430
34483W        W99743   5.260   8.761  13.899
34484W        W99744  10.302   5.902   0.014
34485W        W99745  35.389  32.881  12.802
34486W        W99746   7.630  25.344  13.380
34487W        W99747  23.703   6.991  12.191
34488W        W99748  24.197  12.917   1.878
34489W        W99749  12.546  15.755   1.821
34490W        W99750   3.944  34.890   4.549
34491W        W99751  27.790   2.837   2.736
34492W        W99752  35.873  24.480   0.379
34493W        W99753  13.871   7.004  14.467
34494W        W99754   7.134  28.075   3.686
34495W        W99755   2.752   9.946   9.880
34496W        W99756   6.464   9.605  14.082
34497W        W99757  43.692   3.787   3.671
34498W        W99758  11.692  14.091  12.319
34499W        W99759  25.616  12.815   3.699
34500W        W99760  22.768  14.107   0.731
34501W        W99761  41.266  30.366   3.594
34502W        W99762   3.573   9.872  11.507
34503W        W99763  10.957   1.184   3.067
34504W        W99764  22.672  25.945   2.229
34505W        W99765  30.263  33.602  11.964
34506W        W99766  19.107  21.495  13.827
34507W        W99767  37.900   6.813  10.914
34508W        W99768  28.581  32.072   2.680
34509W        W99769  22.449  25.019   9.954
34510W        W99770  13.045  10.632  14.460
34511W        W99771  23.726  44.810   4.534
34512W        W99772  30.060  11.178   2.901
34513W        W99773  25.053  28.205   1.898
34514W        W99774   8.392  11.431   0.832
34515W        W99775  23.239  43.999   0.969
34516W        W99776   9.370  22.542  11.671
34517W        W99777  25.992  39.510  11.955
34518W        W99778  22.726  34.570   4.964
34519W        W99779  33.625  16.104   1.980
34520W        W99780  28.742  26.966  11.487
34521W        W99781  18.548  17.724  14.040
34522W        W99782  39.831  33.422   3.434
34523W        W99783  39.586  10.563   2.524
34524W        W99784  26.644  34.632   3.623
34525W        W99785  10.620  12.735   1.183
34526W        W99786  16.084   6.157  11.997
34527W        W99787  37.165  39.799   1.275
34528W        W99788  27.396  29.592  14.493
34529W        W99789   1.264  34.617  11.204
34530W        W99790  18.428  11.184   1.371
34531W        W99791   1.559  44.413   2.326
34532W        W99792  26.483  44.559  12.450
34533W        W99793  29.461  19.194  11.906
34534W        W99794  26.603   5.708  12.984
34535W        W99795  41.840   1.403   3.399
34536W        W99796  12.454  26.686  12.145
34537W        W99797   0.470  16.534   2.790
34538W        W99798   1.750  22.024  11.532
34539W        W99799  27.133  30.123   0.755
34540W        W99800   5.684   6.264  10.698
34541W        W99801  14.624  17.637  11.894
34542W        W99802   7.312   2.628   4.608
34543W        W99803  14.638  31.483  11.700
34544W        W99804  42.034  23.647  11.747
34545W        W99805  37.395  24.378   2.593
34546W        W99806  10.117  18.230  11.083
34547W        W99807   4.379  42.772   1.052
34548W        W99808  13.182  14.477   0.391
34549W        W99809  12.607  32.631  13.967
34550W        W99810  21.000  23.469   4.134
34551W        W99811  43.015  13.813  11.270
34552W        W99812  31.227   0.698   4.829
34553W        W99813  16.654  35.632  14.383
34554W        W99814  35.053  42.290  12.090
34555W        W99815  40.404  11.567   9.841
34556W        W99816  17.719  42.858  13.639
34557W        W99817   3.138   9.612  14.018
34558W        W99818  39.002  13.304  10.281
34559W        W99819  41.343   9.815  10.318
34560W        W99820  22.836   8.251   1.283
34561W        W99821  26.219  24.651  11.229
34562W        W99822  42.295  33.300   3.364
34563W        W99823   5.749   0.122  13.841
34564W        W99824  30.300   8.703  11.088
34565W        W99825  32.173   2.008   4.148
34566W        W99826  11.271   9.270  13.593
34567W        W99827  21.701  18.016   2.138
34568W        W99828  28.384  24.067   0.019
34569W        W99829   1.498  15.634  13.935
34570W        W99830  22.185  29.017  11.416
34571W        W99831  40.520  10.565  13.340
34572W        W99832  29.593  26.574   1.700
34573W        W99833  32.957  41.015   0.943
34574W        W99834  19.681  12.608  14.616
34575W        W99835  40.390  42.035   2.277
34576W        W99836  31.774  19.621  13.054
34577W        W99837  43.099  44.820   4.731
34578W        W99838  10.885  19.977   3.320
34579W        W99839  44.454  36.675  12.048
34580W        W99840  44.302  42.562   2.571
34581W        W99841   8.946  33.429   0.382
34582W        W99842   8.859  39.126   0.752
34583W        W99843   6.416  36.541   2.280
34584W        W99844  19.203   8.775   2.675
34585W        W99845  27.369  13.242   4.152
34586W        W99846   7.193   4.647  13.521
34587W        W99847  22.588   6.476  12.560
34588W        W99848  10.830   4.874   2.025
34589W        W99849  34.782  22.800  11.139
34590W        W99850  16.166  18.906  12.012
34591W        W99851  37.021   8.210   3.061
34592W        W99852   0.341  19.451  12.685
34593W        W99853  30.623  19.279   4.045
34594W        W99854  28.150  17.107  11.807
34595W        W99855  13.594  19.637  13.908
34596W        W99856   3.506  12.160  14.045
34597W        W99857  25.958   7.966   3.235
34598W        W99858   2.048   4.831  12.516
34599W        W99859  44.610  40.129   4.550
34600W        W99860  30.821  30.682  12.244
34601W        W99861  32.433   1.006   4.842
34602W        W99862  19.392  39.461  13.743
34603W        W99863   2.494  20.403  11.107
34604W        W99864  10.588  42.613   5.018
34605W        W99865  31.097  41.677  11.057
34606W        W99866   4.329  31.581  14.906
34607W        W99867  40.179  17.550  14.532
34608W        W99868   7.001  42.396   2.308
34609W        W99869  25.490  27.045  14.332
34610W        W99870  36.461  27.139   4.613
34611W        W99871   6.318  32.936   2.644
34612W        W99872  12.154  14.840   4.113
34613W        W99873   3.469  11.643   0.171
34614W        W99874  44.945  10.166  13.512
34615W        W99875  40.254  40.212  13.086
34616W        W99876  43.517  10.347  14.830
34617W        W99877  28.000  15.329  10.876
34618W        W99878  24.000  15.219   4.914
34619W        W99879  10.588   8.153   2.202
34620W        W99880  43.677   7.079  14.908
34621W        W99881   6.392  13.301   1.930
34622W        W99882   3.053   5.361   0.397
34623W        W99883  23.406  27.868   0.029
34624W        W99884   1.875  24.982   1.766
34625W        W99885  26.427  42.884  13.883
34626W        W99886  27.402   9.168   2.241
34627W        W99887  31.713  27.827   4.213
34628W        W99888   0.281  30.592  14.460
34629W        W99889  44.817  24.142  14.766
34630W        W99890  11.192  24.496   0.414
34631W        W99891  12.287  16.736   4.158
34632W        W99892  35.404  12.730   1.840
34633W        W99893  23.755  42.090   2.221
34634W        W99894  39.842   4.428   0.279
34635W        W99895  36.081  15.970  12.021
34636W        W99896  24.395  39.793  14.479
34637W        W99897  30.551   4.637  11.225
34638W        W99898  14.779  41.728   1.466
34639W        W99899   4.227   5.927  13.915
34640W        W99900   8.011  36.896   0.371
34641W        W99901  31.636   2.716   2.694
34642W        W99902   4.250  32.963  13.910
34643W        W99903  40.959  12.197   0.251
34644W        W99904  17.740   7.621   3.299
34645W        W99905  19.159   9.309  10.368
34646W        W99906  43.036  19.277   2.177
34647W        W99907  17.624  11.323  12.928
34648W        W99908  14.304   7.681   0.849
34649W        W99909  21.735  22.760  12.976
34650W        W99910  38.529  21.519  11.601
34651W        W99911  13.383  40.816  13.065
34652W        W99912  13.439  11.255  11.126
34653W        W99913  35.371  21.900   1.239
34654W        W99914   2.813  40.015  10.449
34655W        W99915  42.372   1.666  11.380
34656W        W99916  30.604  16.221   0.563
34657W        W99917   0.534  34.049  13.991
34658W        W99918   2.302  26.321  12.080
34659W        W99919   3.112  32.519   1.250
34660W        W99920  17.350  37.767  11.975
34661W        W99921   4.496  28.962   4.015
34662W        W99922  21.218   4.740  12.847
34663W        W99923  44.663  10.139  11.560
34664W        W99924  10.237  42.250  12.961
34665W        W99925   7.294  16.730  13.566
34666W        W99926  17.769  41.871   3.392
34667W        W99927  33.639  41.731   3.118
34668W        W99928  18.349  24.689   2.094
34669W        W99929  29.471  10.917   3.089
34670W        W99930   4.368  40.226   0.430
34671W        W99931  40.561  36.586  14.940
34672W        W99932  34.348  19.201   3.865
34673W        W99933  25.696  34.237  14.952
34674W        W99934   9.436  21.593   2.669
34675W        W99935   3.219  17.525   3.636
34676W        W99936  31.848   5.149   0.032
34677W        W99937   8.826  36.168   3.655
34678W        W99938  42.958  43.263  13.941
34679W        W99939  19.139  35.111   0.835
34680W        W99940  27.953   4.255   2.063
34681W        W99941  32.187   0.121   1.808
34682W        W99942   1.790   0.162  14.821
34683W        W99943  38.726  38.964   2.134
34684W        W99944  35.067   3.515  13.482
34685W        W99945  20.926   8.409   2.942
34686W        W99946  28.997  33.986   4.670
34687W        W99947  23.804  19.926  10.611
34688W        W99948  36.049  24.141  12.074
34689W        W99949  34.965  41.364   3.791
34690W        W99950   2.511  41.797  11.541
34691W        W99951  43.738  38.437   0.769
34692W        W99952  33.197  20.548   3.227
34693W        W99953  39.465  29.081  12.315
34694W        W99954  36.766   1.935   2.646
34695W        W99955  29.102  24.141   1.248
34696W        W99956  30.390   9.018  10.695
34697W        W99957  18.659  34.413   0.788
34698W        W99958  11.708   3.012   4.505
34699W        W99959  42.478   2.983   0.810
34700W        W99960  18.517   9.761   0.835
34701W        W99961   6.357   4.385  14.438
34702W        W99962  11.138  20.096  11.869
34703W        W99963  33.702  15.681  13.414
34704W        W99964  22.266  27.618  13.115
34705W        W99965  33.958  41.090  11.083
34706W        W99966  29.407  39.404   3.822
34707W        W99967  35.139  44.365   4.315
34708W        W99968  35.644  28.503  10.724
34709W        W99969  26.126  17.218   5.531
34710W        W99970  42.381  24.215   4.407
34711W        W99971   0.242  34.891   3.071
34712W        W99972   2.016  27.992  13.503
34713W        W99973   8.608  14.203   2.715
34714W        W99974  23.484  10.148  14.952
34715W        W99975  39.997  43.289  12.467
34716W        W99976  21.015  37.525  12.564
34717W        W99977  39.789  20.539  12.040
34718W        W99978   8.895  38.518  10.792
34719W        W99979  21.809   1.933  14.484
34720W        W99980   6.626   1.237  12.968
34721W        W99981  23.269  34.998  13.912
34722W        W99982   7.324   7.897   0.426
34723W        W99983  24.669  19.188   3.283
34724W        W99984  24.760  37.138   3.470
34725W        W99985  26.146  41.581   0.486
34726W        W99986  32.074   2.965   3.805
34727W        W99987  17.155   8.008   3.142
34728W        W99988  41.506  16.528   1.896
34729W        W99989   6.797  15.141  12.911
34730W        W99990  27.526  12.745   4.954
34731W        W99991   6.291  12.011  12.040
34732W        W99992  42.836  25.086   2.436
34733W        W99993  34.924   5.348   0.004
34734W        W99994   5.771  43.474   4.770
34735W        W99995   0.366   2.942   3.644
34736W        W99996  13.813  12.146  12.959
34737W        W99997  22.772  26.940  10.300
34738W        W99998  16.095  38.548  12.026
34739W        W99999  23.225  22.724  12.067
34740W        W    0   3.904  31.080  14.018
34741W        W    1  21.989  37.308  13.405
34742W        W    2   5.513   3.397  13.015
34743W        W    3  26.104  31.186   3.057
34744W        W    4  31.072  13.938   1.398
34745W        W    5  39.794  16.744   3.149
34746W        W    6  28.035  20.072  10.369
34747W        W    7  35.544  22.406  12.138
34748W        W    8  23.456  21.971   2.148
34749W        W    9   4.480   9.774   2.585
34750W        W   10  44.873  34.306  11.094
34751W        W   11  20.955   4.604  12.386
34752W        W   12   4.816  24.626   0.856
34753W        W   13  42.723  18.126   3.148
34754W        W   14   5.082  33.585  12.079
34755W        W   15  27.505  29.096  13.416
34756W        W   16   3.737  16.571   4.543
34757W        W   17  39.797   9.672  14.794
34758W        W   18   3.884  34.587  12.321
34759W        W   19  31.128  34.993   1.628
34760W        W   20  35.657  12.138  13.439
34761W        W   21  22.403   4.705   1.901
34762W        W   22  41.338  40.098   4.568
34763W        W   23  37.580  29.487   4.576
34764W        W   24  34.653  26.030  14.860
34765W        W   25  26.608  11.183  10.691
34766W        W   26  44.814  19.060  14.281
34767W        W   27   7.259   3.048   3.693
34768W        W   28  31.354  11.881  13.075
34769W        W   29  30.007  17.225  13.271
34770W        W   30  24.603  30.328   4.618
34771W        W   31  32.183  25.422  11.672
34772W        W   32   1.991  17.533   4.237
34773W        W   33  37.956  23.120  11.143
34774W        W   34  12.828  23.960   4.334
34775W        W   35  16.686  28.098  10.365
34776W        W   36  42.804   7.911  13.046
34777W        W   37  30.016  23.414  12.593
34778W        W   38   2.360  25.249  14.262
34779W        W   39  38.792   9.660  11.139
34780W        W   40  40.966   2.038  14.046
34781W        W   41  41.819   3.666  12.633
34782W        W   42   5.598  32.997   2.269
34783W        W   43  27.551  32.937  12.005
34784W        W   44  35.428  17.591  14.970
34785W        W   45  35.495  33.864  11.245
34786W        W   46  39.346  21.824   0.978
34787W        W   47  10.878  13.269  12.004
34788W        W   48  24.323  17.039  13.267
34789W        W   49   1.931  24.498   0.255
34790W        W   50  38.915  44.189   3.256
34791W        W   51  19.579   9.860  13.332
34792W        W   52   7.266  18.973   4.528
34793W        W   53  34.333  11.739  10.971
34794W        W   54  31.820  32.502  14.333
34795W        W   55  44.906  16.741   9.777
34796W        W   56   5.696  30.988  14.491
34797W        W   57  26.670  28.424  14.289
34798W        W   58  22.574  23.076   4.587
34799W        W   59  19.045  27.573   1.460
34800W        W   60  30.147  20.828  10.815
34801W        W   61  40.601  13.630   2.724
34802W        W   62   7.357  11.707   0.056
34803W        W   63   8.880  41.879   4.226
34804W        W   64  24.937  36.202   0.945
34805W        W   65  38.883   9.941   2.571
34806W        W   66  38.014   8.439   2.403
34807W        W   67  13.070  44.189  14.403
34808W        W   68  12.245  37.571  14.491
34809W        W   69  40.007   3.644   2.206
34810W        W   70  13.928   6.953  10.118
34811W        W   71  31.659  16.203  11.067
34812W        W   72   7.672  22.502   1.242
34813W        W   73   2.244   9.436   1.754
34814W        W   74  43.816  33.983  13.259
34815W        W   75  31.174  33.190  11.093
34816W        W   76  28.288  34.712   1.397
34817W        W   77   0.369  41.741   2.794
34818W        W   78  16.806  34.896   2.224
34819W        W   79   0.447  29.038  10.631
34820W        W   80  20.987  24.494  14.999
34821W        W   81  19.640  40.330   3.388
34822W        W   82  17.647  37.305   2.617
34823W        W   83  20.528  17.504  14.318
34824W        W   84  20.508   4.036   4.853
34825W        W   85  37.373   7.773  11.538
34826W        W   86  41.984  11.522   3.728
34827W        W   87   0.780  34.353   2.304
34828W        W   88  32.481  14.385  12.109
34829W        W   89  28.697  13.277  14.888
34830W        W   90  39.011   7.746  13.604
34831W        W   91  26.800  20.091   3.622
34832W        W   92  23.698  29.973   4.000
34833W        W   93   6.346  31.103   2.095
34834W        W   94   6.700   9.719   4.809
34835W        W   95  20.019   6.288  12.109
34836W        W   96   3.755  31.566  13.873
34837W        W   97  30.794  33.469  11.971
34838W        W   98  15.088   2.287  13.830
34839W        W   99   6.252  40.074   4.631
34840W        W  100   5.252  27.628  12.918
34841W        W  101  40.454  32.052   4.040
34842W        W  102  40.720   3.265  14.907
34843W        W  103  34.552  20.706   3.303
34844W        W  104  36.149  43.372  10.205
34845W        W  105  41.407  11.163   3.253
34846W        W  106  17.003  13.761   3.000
34847W        W  107   9.200   0.935   4.500
34848W        W  108  26.139  37.254  11.584
34849W        W  109  12.688   3.048   4.662
34850W        W  110  17.082  17.236   0.938
34851W        W  111  37.371  18.697  11.995
34852W        W  112  25.305  28.482  12.527
34853W        W  113  31.201  44.170   4.613
34854W        W  114   6.648   9.523  11.961
34855W        W  115  13.138  26.113  10.949
34856W        W  116  41.983  35.843  14.399
34857W        W  117  41.540  12.897  12.131
34858W        W  118   9.216  16.282  12.345
34859W        W  119  16.619   7.309   2.691
34860W        W  120   9.302  14.544  14.968
34861W        W  121  34.471   8.960  12.054
34862W        W  122  41.572  29.827  11.895
34863W        W  123  43.416   1.686  10.594
34864W        W  124  32.416   4.443  10.647
34865W        W  125  33.377  42.836  14.527
34866W        W  126  34.578  25.578   2.373
34867W        W  127  31.210  14.088  11.619
34868W        W  128  10.168  11.089  11.937
34869W        W  129  16.281  22.436   1.230
34870W        W  130  41.764  24.577  11.128
34871W        W  131  33.125  38.764   0.657
34872W        W  132  17.516  14.126  11.608
34873W        W  133  24.569  31.969   5.094
34874W        W  134  33.277  34.551   1.884
34875W        W  135  14.421  37.431   0.838
34876W        W  136  44.498  11.569  14.943
34877W        W  137   9.872  33.448  13.931
34878W        W  138   4.647  23.711   3.169
34879W        W  139  38.810   2.340  12.617
34880W        W  140  44.026  32.863   1.612
34881W        W  141   3.953  10.450   0.495
34882W        W  142  31.598  13.201  14.055
34883W        W  143  44.383  19.033  12.583
34884W        W  144  26.957  42.412  12.828
34885W        W  145  13.630  25.134  11.610
34886W        W  146   4.391  38.700  14.112
34887W        W  147  21.259  44.414   2.141
34888W        W  148  25.315  10.944  13.960
34889W        W  149  19.663   6.415  11.200
34890W        W  150  43.786  36.096  14.415
34891W        W  151  31.337  15.649  11.112
34892W        W  152  24.689  17.202   9.861
34893W        W  153   8.268  11.191  14.421
34894W        W  154  21.407  39.624   4.615
34895W        W  155  40.559  26.113   3.712
34896W        W  156  43.994  12.707  13.508
34897W        W  157  12.408  39.088  14.885
34898W        W  158   6.824  26.969   3.131
34899W        W  159  43.510  40.367   4.066
34900W        W  160  12.744   9.063  13.141
34901W        W  161  12.386   7.240  13.153
34902W        W  162  19.769   3.372  11.096
34903W        W  163  41.484   9.688   0.263
34904W        W  164  15.753  43.715  13.517
34905W        W  165  13.235  23.809  12.942
34906W        W  166  39.752   8.718   5.057
34907W        W  167   9.312  14.638  10.778
34908W        W  168  36.088  27.667   1.794
34909W        W  169   7.680  44.751   1.669
34910W        W  170   2.928  34.902   2.527
34911W        W  171   5.251  34.056   3.155
34912W        W  172  34.393  40.799  11.372
34913W        W  173   4.337   5.874   1.590
34914W        W  174  35.419  18.077   4.611
34915W        W  175   7.209  18.685  10.697
34916W        W  176  39.211  17.111  12.877
34917W        W  177  21.845  42.720   3.843
34918W        W  178  40.764   5.364   1.434
34919W        W  179  30.436  22.646  11.265
34920W        W  180  23.976  16.594   5.345
34921W        W  181  14.384   9.734  11.094
34922W        W  182  23.107  44.471  12.149
34923W        W  183  22.220  35.180   1.213
34924W        W  184  32.080   8.802  11.589
34925W        W  185   5.941  39.611   1.800
34926W        W  186  23.012  17.472   0.399
34927W        W  187   6.759   5.365   0.209
34928W        W  188  15.150  15.446  13.497
34929W        W  189   5.185  32.945   0.441
34930W        W  190  26.686   5.287  11.428
34931W        W  191   1.386  25.211  13.805
34932W        W  192  18.715   3.819   2.397
34933W        W  193   9.260   9.200  13.800
34934W        W  194  23.213   0.454  12.953
34935W        W  195   4.294  35.889  14.163
34936W        W  196  28.563  29.089  11.485
34937W        W  197  43.689   0.326   1.684
34938W        W  198  10.840  44.436  13.906
34939W        W  199  25.648   4.626  13.482
34940W        W  200   6.950  19.649   2.451
34941W        W  201  43.244  20.581  12.507
34942W        W  202  17.700   4.464   4.111
34943W        W  203  32.301  13.108   0.326
34944W        W  204  16.788  33.060  12.609
34945W        W  205   6.142  36.722  13.137
34946W        W  206  32.901  33.893   3.135
34947W        W  207  24.952   8.850   3.296
34948W        W  208  15.607  20.711  14.975
34949W        W  209  40.796   1.862  14.926
34950W        W  210  13.351  13.012  11.897
34951W        W  211  24.630   7.288   4.143
34952W        W  212  23.258  37.883   3.987
34953W        W  213  35.284  31.547  13.097
34954W        W  214  33.454  43.194   3.191
34955W        W  215  34.889  43.746  10.906
34956W        W  216  32.910   8.171   1.460
34957W        W  217   3.105  34.117  14.471
34958W        W  218   8.995   8.738   1.693
34959W        W  219  31.917   1.328  13.034
34960W        W  220  13.590  26.984  10.821
34961W        W  221  37.522   6.011  14.578
34962W        W  222  31.750  34.551   0.806
34963W        W  223  40.424  18.049  10.723
34964W        W  224  42.245  16.956  13.748
34965W        W  225   7.763  18.809   3.145
34966W        W  226  30.908  44.692  10.258
34967W        W  227  25.040  43.384   0.872
34968W        W  228  28.303  10.080  13.429
34969W        W  229   3.733   5.812   4.776
34970W        W  230  43.793   2.941  14.505
34971W        W  231  27.103  29.787  13.252
34972W        W  232   4.649  21.274  10.181
34973W        W  233  35.739  43.259   5.168
34974W        W  234  27.488  27.158  11.666
34975W        W  235   5.298   7.809   4.257
34976W        W  236  19.823   3.769   1.426
34977W        W  237   1.231  36.805  10.508
34978W        W  238   2.664  40.257   0.326
34979W        W  239  39.761   4.121  13.906
34980W        W  240  37.470  22.630   1.129
34981W        W  241  38.553  23.557  10.713
34982W        W  242  17.527  31.285  14.787
34983W        W  243   6.891  38.898  14.864
34984W        W  244  24.481  41.566   3.661
34985W        W  245  24.264   4.927  14.384
34986W        W  246  18.088  25.152  14.306
34987W        W  247   5.533  10.356  13.298
34988W        W  248  37.420   6.318   1.770
34989W        W  249  30.607  38.432  12.481
34990W        W  250   5.713  43.208   1.265
34991W        W  251  39.070  18.249   3.400
34992W        W  252  39.923  39.911   4.600
34993W        W  253  35.573  13.564   2.650
34994W        W  254  33.062  26.504   3.170
34995W        W  255  29.017  30.687   2.095
34996W        W  256  37.981   5.830   2.684
34997W        W  257  17.813   7.927  11.035
34998W        W  258  16.936  18.010   4.577
34999W        W  259   8.268  22.157  13.684
35000W        W  260   7.918   5.782   4.856
35001W        W  261  12.580  37.917  12.594
35002W        W  262  25.575  11.647   2.855
35003W        W  263  13.984  33.031  12.490
35004W        W  264  11.144  29.477  13.404
35005W        W  265  33.118  14.844   4.750
35006W        W  266  32.071  17.706  10.662
35007W        W  267  44.036  15.745  11.149
35008W        W  268  22.107   6.719  11.856
35009W        W  269  43.228   3.424   4.562
35010W        W  270  31.593  41.835  13.930
35011W        W  271  39.987  22.053   3.782
35012W        W  272  18.164  13.361   1.185
35013W        W  273  44.445  35.768   0.830
35014W        W  274  43.245  28.711  13.139
35015W        W  275  36.698  41.125  12.023
35016W        W  276   5.061   4.171  11.604
35017W        W  277  44.870  24.818   0.949
35018W        W  278  18.808   1.463  10.436
35019W        W  279  29.418  18.232  12.933
35020W        W  280  18.757  12.377  12.893
35021W        W  281  24.954  34.083   0.301
35022W        W  282   2.471  36.569   1.468
35023W        W  283  26.728  43.380   1.796
35024W        W  284   4.158  14.698  13.021
35025W        W  285   9.117   9.111  11.332
35026W        W  286  27.631  23.986  12.542
35027W        W  287   9.465   0.508   4.671
35028W        W  288  39.055  12.328   4.614
35029W        W  289  36.030  26.106   0.722
35030W        W  290  38.757  43.882   1.204
35031W        W  291   2.375  21.044  10.320
35032W        W  292  40.370  10.274  11.762
35033W        W  293   0.912   0.021  14.992
35034W        W  294  10.269  12.675   2.493
35035W        W  295  12.131  23.061   4.711
35036W        W  296  28.565  43.416   0.039
35037W        W  297   6.012   6.674  10.754
35038W        W  298  30.136   4.032  11.184
35039W        W  299   7.608  34.238  10.559
35040W        W  300  21.829  14.639  13.950
35041W        W  301  41.633  23.090  12.587
35042W        W  302   6.667   2.245  14.315
35043W        W  303   8.895   5.959   2.569
35044W        W  304  38.707  35.073  14.564
35045W        W  305  20.097   9.240  12.201
35046W        W  306   4.960  40.426   0.658
35047W        W  307   9.626  39.041   3.345
35048W        W  308  35.700  10.321  12.110
35049W        W  309  22.196  21.975  10.504
35050W        W  310  12.086   7.996   9.798
35051W        W  311  31.633  44.993   0.677
35052W        W  312  21.658   1.403  14.231
35053W        W  313  25.455  38.252   1.598
35054W        W  314   9.251  16.043   0.245
35055W        W  315  29.996   4.760  10.696
35056W        W  316  16.081  42.424  12.587
35057W        W  317  15.077  32.643  13.976
35058W        W  318  14.892  16.786   1.268
35059W        W  319  41.977  21.715   4.721
35060W        W  320  39.506  38.578   2.207
35061W        W  321   1.002   8.878  11.493
35062W        W  322  41.614  14.833  14.658
35063W        W  323   1.822  26.893  14.881
35064W        W  324  13.358  22.596   9.725
35065W        W  325  32.969  31.498  10.339
35066W        W  326  37.430   9.564   2.821
35067W        W  327  44.502   0.317   0.431
35068W        W  328  12.086  21.326  12.289
35069W        W  329  19.758  23.805  14.879
35070W        W  330  21.660  10.381   2.628
35071W        W  331  34.334  23.704   4.573
35072W        W  332  39.908  15.361   2.001
35073W        W  333   7.915  40.785  14.921
35074W        W  334  27.637  24.610   1.781
35075W        W  335  40.946   3.734  14.897
35076W        W  336  39.386  30.991  12.605
35077W        W  337   1.770  43.518  13.106
35078W        W  338  37.439  21.320   2.806
35079W        W  339  18.657  42.310   4.412
35080W        W  340  38.233   4.457  10.518
35081W        W  341  37.871  24.446  14.914
35082W        W  342  30.141   1.766  14.217
35083W        W  343   1.768   0.188   0.836
35084W        W  344  38.082  13.532   0.320
35085W        W  345  17.137  12.512  10.309
35086W        W  346  10.392   8.390   1.391
35087W        W  347  33.522   1.165  14.475
35088W        W  348   1.330   6.879  13.049
35089W        W  349  34.228  12.777  14.389
35090W        W  350  41.825  33.898  14.923
35091W        W  351  25.943  26.730  12.937
35092W        W  352  30.843  43.685  13.664
35093W        W  353  37.599  41.607  14.179
35094W        W  354  12.361   1.224   2.407
35095W        W  355  17.573  10.285   4.843
35096W        W  356  37.908  23.122  13.994
35097W        W  357  18.567  15.110  13.798
35098W        W  358  42.003  33.581  12.919
35099W        W  359  18.085  22.622  12.163
35100W        W  360   3.851  19.199  12.115
35101W        W  361  43.916   1.301   4.185
35102W        W  362   5.409  26.051   0.940
35103W        W  363  22.317   3.160  14.811
35104W        W  364  43.219  41.370   3.983
35105W        W  365  24.673  11.418   2.474
35106W        W  366  35.881  43.677  14.818
35107W        W  367   9.858  12.640  10.560
35108W        W  368  23.845  15.647  12.475
35109W        W  369  26.979  32.608  14.995
35110W        W  370  21.377  24.199  12.831
35111W        W  371  21.618   1.381   3.801
35112W        W  372  44.333  31.874   3.203
35113W        W  373  27.827  34.452  12.467
35114W        W  374  38.612  34.847  13.231
35115W        W  375  16.257  23.672  12.572
35116W        W  376  19.317  16.796  12.881
35117W        W  377  26.610  29.609   4.085
35118W        W  378   9.091  44.057   2.425
35119W        W  379   9.631  27.172   3.117
35120W        W  380  17.935   1.414  12.193
35121W        W  381  14.975  31.421   1.675
35122W        W  382  26.067  33.502   1.766
35123W        W  383  18.335   0.042   1.768
35124W        W  384  42.094   0.522   3.839
35125W        W  385  43.283  36.750  11.115
35126W        W  386  42.089  18.531  14.244
35127W        W  387  19.639   4.412   1.216
35128W        W  388  18.765  14.776   2.290
35129W        W  389  26.807  12.835   1.198
35130W        W  390   3.434   9.710   1.364
35131W        W  391  20.314   3.738  13.281
35132W        W  392   2.792  24.720  12.149
35133W        W  393  25.137  27.189   1.841
35134W        W  394  37.745  23.569   3.642
35135W        W  395  25.503  30.134   3.807
35136W        W  396  31.951  11.135  13.142
35137W        W  397  35.928  40.746  10.955
35138W        W  398   0.363   5.412   4.689
35139W        W  399   4.372  38.355   0.435
35140W        W  400   0.669   3.712  13.473
35141W        W  401  42.894   1.957   2.700
35142W        W  402   1.919  13.077  11.929
35143W        W  403  27.910  11.284  11.127
35144W        W  404   3.748  32.946  13.097
35145W        W  405  22.811  17.998  13.377
35146W        W  406  41.015  21.456   1.240
35147W        W  407   1.314  22.366  11.495
35148W        W  408  32.060  44.753   2.168
35149W        W  409  28.179  39.018   2.663
35150W        W  410  43.272  22.528   4.589
35151W        W  411   7.396  30.789   3.292
35152W        W  412   9.443  14.910   3.640
35153W        W  413   6.714  19.200   1.325
35154W        W  414  20.230  30.012   2.783
35155W        W  415   1.751  33.423   2.620
35156W        W  416  38.079  27.421  13.028
35157W        W  417  23.477   6.989   0.243
35158W        W  418  34.437  29.592  12.448
35159W        W  419  26.425  37.976  14.484
35160W        W  420  19.671  11.279   4.321
35161W        W  421   1.967  30.049   1.725
35162W        W  422  37.398   3.551  14.499
35163W        W  423   5.309  25.576   4.103
35164W        W  424  28.648  15.509   4.173
35165W        W  425   4.257  40.469  13.818
35166W        W  426  28.502  37.602  13.176
35167W        W  427   8.468   9.318   0.871
35168W        W  428  21.404  42.789   3.162
35169W        W  429  17.100  43.966  11.287
35170W        W  430  25.220  36.917   1.691
35171W        W  431   1.234  30.744  13.022
35172W        W  432  43.819  17.154  11.510
35173W        W  433  28.319  31.504   4.226
35174W        W  434  15.513  16.148  14.724
35175W        W  435  23.999   0.137   3.769
35176W        W  436  22.833  32.935   1.992
35177W        W  437  42.861  22.219  10.822
35178W        W  438  31.450  43.521  11.883
35179W        W  439  23.726   4.210  14.049
35180W        W  440  16.165  34.932  13.346
35181W        W  441  29.644   7.803  12.911
35182W        W  442   7.933   0.837  10.435
35183W        W  443  41.252  39.467   1.348
35184W        W  444  14.611   7.637   0.408
35185W        W  445  29.226   5.266  13.507
35186W        W  446  20.092  35.273  10.688
35187W        W  447  33.558   1.762  13.197
35188W        W  448   6.119  17.186   2.862
35189W        W  449   2.674  38.491  13.026
35190W        W  450  18.696  17.585  14.506
35191W        W  451  37.996  32.181   1.295
35192W        W  452  33.236   9.745  14.419
35193W        W  453  14.999  22.362  14.418
35194W        W  454   0.806  39.032   5.231
35195W        W  455  31.615  32.343  12.424
35196W        W  456  42.687  21.782  11.051
35197W        W  457  10.732  11.633  13.736
35198W        W  458  29.911   8.780   2.438
35199W        W  459  29.975   8.800  10.446
35200W        W  460  23.580  38.077   2.798
35201W        W  461  23.704  41.309  11.851
35202W        W  462  39.802   5.510   1.801
35203W        W  463  12.179  43.412  11.432
35204W        W  464   6.110   3.660  13.909
35205W        W  465  14.215  19.053   2.240
35206W        W  466  23.461  27.176   0.809
35207W        W  467  17.079  18.819  10.710
35208W        W  468  13.082   5.722   2.664
35209W        W  469  37.930  38.269  11.543
35210W        W  470  17.217  17.621  10.213
35211W        W  471  18.782  42.774  13.419
35212W        W  472  28.399  39.526   3.669
35213W        W  473  39.469   8.548   1.446
35214W        W  474   8.625   5.233  14.382
35215W        W  475  34.084  14.206   0.340
35216W        W  476  40.821  20.098   2.389
35217W        W  477  28.258  25.084  10.269
35218W        W  478  15.841  27.960   1.068
35219W        W  479  22.490  39.411   1.012
35220W        W  480  41.759  22.313   4.658
35221W        W  481  11.364  30.449   3.106
35222W        W  482   3.845  16.827   3.180
35223W        W  483   6.318  39.238  11.160
35224W        W  484  11.471   7.314  13.066
35225W        W  485  16.654   1.833  11.042
35226W        W  486  31.575  12.759  11.173
35227W        W  487  10.634  19.717  13.059
35228W        W  488   0.892  14.987  10.676
35229W        W  489  43.718  21.610  14.295
35230W        W  490  40.656   6.602  11.303
35231W        W  491  31.997  14.034   3.838
35232W        W  492  26.505  12.706   4.842
35233W        W  493  15.898  43.833  14.976
35234W        W  494  13.208  35.483  14.847
35235W        W  495  16.681  27.424   1.214
35236W        W  496  42.050  38.405  11.421
35237W        W  497  28.111  29.664   1.111
35238W        W  498  38.569  14.261   9.909
35239W        W  499  35.825  42.498   1.815
35240W        W  500  37.748  32.493  14.938
35241W        W  501  33.114  11.528  14.358
35242W        W  502  11.661   3.009  11.530
35243W        W  503  44.890   6.851  12.002
35244W        W  504   7.205  24.454  12.997
35245W        W  505  12.707  40.798  10.413
35246W        W  506  29.701  30.861  11.073
35247W        W  507  41.995  37.793  12.149
35248W        W  508  33.531   2.736  13.515
35249W        W  509  37.955  16.752  10.720
35250W        W  510  15.330  20.845   0.405
35251W        W  511  20.647  40.583  11.590
35252W        W  512  26.951  31.275  11.095
35253W        W  513  16.065   8.646  11.541
35254W        W  514  39.351  42.452   2.895
35255W        W  515  36.283  33.217   1.864
35256W        W  516  20.406  39.454   4.646
35257W        W  517   3.372  28.930   3.290
35258W        W  518  27.131  21.646   1.867
35259W        W  519  33.072  12.809   1.483
35260W        W  520  24.301  14.071   4.574
35261W        W  521  17.837  21.626  13.426
35262W        W  522  20.631  34.203   0.531
35263W        W  523  38.805  26.969  12.454
35264W        W  524  32.105  20.969   4.525
35265W        W  525   3.911  12.389  14.218
35266W        W  526   6.097  36.501   1.880
35267W        W  527  16.123  19.067   2.376
35268W        W  528  19.598  17.014   4.545
35269W        W  529  16.759   6.907  13.998
35270W        W  530   3.211  18.777  13.437
35271W        W  531  31.169  30.161   1.841
35272W        W  532  34.101  26.555   3.999
35273W        W  533   4.002   5.988   2.882
35274W        W  534  37.376  24.597   3.053
35275W        W  535  31.165  22.638   4.959
35276W        W  536   4.410  20.516  13.488
35277W        W  537  10.321   0.089  14.542
35278W        W  538   0.462  23.127  11.577
35279W        W  539  44.565   4.848   2.380
35280W        W  540  12.536  33.214  11.420
35281W        W  541  44.039  13.202   0.319
35282W        W  542  17.603  14.629  11.408
35283W        W  543  11.491   2.314   2.380
35284W        W  544  42.478  19.350  11.571
35285W        W  545  32.957  38.134  13.269
35286W        W  546  31.778  39.073   3.694
35287W        W  547   7.659  13.332  13.869
35288W        W  548  43.470  21.158  14.456
35289W        W  549   1.167  19.130   1.782
35290W        W  550   9.246  23.804  11.830
35291W        W  551  30.397  41.535   4.072
35292W        W  552  38.787  25.842   1.917
35293W        W  553  18.986   3.275  11.592
35294W        W  554  31.190  18.758  13.860
35295W        W  555  33.524  41.987  11.037
35296W        W  556   0.931  29.932  11.021
35297W        W  557  38.928  15.968   3.759
35298W        W  558  12.566  25.074   3.314
35299W        W  559  35.042  16.584   2.434
35300W        W  560  44.813  20.261   1.235
35301W        W  561  29.657  12.839   5.115
35302W        W  562  19.185  34.721  10.564
35303W        W  563  16.593  42.892  13.057
35304W        W  564  27.697  42.577   0.705
35305W        W  565   6.340  13.774  13.024
35306W        W  566   9.899  38.667   0.061
35307W        W  567  20.658   8.061  13.987
35308W        W  568   3.273  20.810   4.094
35309W        W  569  26.268  23.160   4.919
35310W        W  570  28.560   8.958  14.379
35311W        W  571  39.974  22.483   2.394
35312W        W  572  43.957  23.209   0.935
35313W        W  573  26.424  29.621   4.571
35314W        W  574  20.956  20.665  13.958
35315W        W  575  41.788  37.531   3.053
35316W        W  576   8.378  13.547   3.669
35317W        W  577  24.946   4.079   2.241
35318W        W  578  30.597  42.478  13.358
35319W        W  579   4.534   8.165   4.566
35320W        W  580  19.663  42.014   4.191
35321W        W  581   2.877  38.143  12.084
35322W        W  582  37.048  33.029  13.812
35323W        W  583  36.396  11.727   0.389
35324W        W  584  41.286  14.723  14.220
35325W        W  585  23.889   2.166  10.223
35326W        W  586  37.460  24.093   3.024
35327W        W  587  15.600  44.169   2.269
35328W        W  588  39.146  21.934   1.444
35329W        W  589  37.511  38.520   1.908
35330W        W  590  14.181  26.411  14.838
35331W        W  591  43.567  14.625  11.587
35332W        W  592  23.219  25.679   0.364
35333W        W  593   8.801   9.735   2.245
35334W        W  594  32.789  16.349  14.643
35335W        W  595  37.423  25.549  10.547
35336W        W  596  33.952  29.817  12.323
35337W        W  597  22.166   9.863  10.940
35338W        W  598  32.470  15.857  13.038
35339W        W  599  17.208  44.577  12.498
35340W        W  600   8.133  23.991   4.665
35341W        W  601  16.958  44.886   2.323
35342W        W  602  11.525  39.961  13.050
35343W        W  603  37.566  29.231  14.301
35344W        W  604  23.643  18.310  13.900
35345W        W  605  32.524  42.975  13.886
35346W        W  606  12.174   9.795  11.702
35347W        W  607  43.591   5.441  11.269
35348W        W  608  34.248  34.320  11.407
35349W        W  609  26.842   6.252  12.103
35350W        W  610  30.110   7.882   0.332
35351W        W  611  37.198  17.315  13.573
35352W        W  612  22.998  19.615   4.157
35353W        W  613  17.623  30.585   2.880
35354W        W  614  37.765   7.277  10.733
35355W        W  615  34.920  40.847  12.419
35356W        W  616  23.998  32.270  12.500
35357W        W  617  10.200   4.875  14.241
35358W        W  618  16.606  23.331   3.139
35359W        W  619  42.027  10.416  13.013
35360W        W  620  43.907  39.762   2.202
35361W        W  621  14.276  25.677   3.981
35362W        W  622  18.846   2.451   2.155
35363W        W  623   2.716  10.937   3.314
35364W        W  624  13.337  39.763  11.135
35365W        W  625  11.394  35.861   2.262
35366W        W  626  24.676  16.754  10.129
35367W        W  627   5.887  22.298  12.463
35368W        W  628  43.383  43.321   2.349
35369W        W  629  32.453   4.280  13.683
35370W        W  630  30.457  24.536  11.671
35371W        W  631  37.367   0.065   0.259
35372W        W  632   6.804  12.116  12.071
35373W        W  633  19.513  18.518  11.177
35374W        W  634   6.626  32.717  12.433
35375W        W  635  42.509   8.032   1.610
35376W        W  636   8.725  11.326  12.972
35377W        W  637  21.460  33.647   0.357
35378W        W  638   4.979   0.428  14.784
35379W        W  639   4.114  21.810  12.489
35380W        W  640  11.821  39.593  12.841
35381W        W  641  11.813   0.259   0.823
35382W        W  642  11.350  35.154   0.274
35383W        W  643   4.910   6.407  11.149
35384W        W  644  32.575   0.448   0.959
35385W        W  645  25.755  15.826  14.046
35386W        W  646  13.236  11.132  12.612
35387W        W  647  25.777  12.317  14.883
35388W        W  648   7.152  21.697   1.474
35389W        W  649  42.838   8.368   2.799
35390W        W  650  35.553  11.719  11.136
35391W        W  651  37.790  15.616   2.615
35392W        W  652  26.079   4.804  10.570
35393W        W  653  34.630  22.234   0.169
35394W        W  654  39.396   8.398  14.501
35395W        W  655  29.340   9.933   1.819
35396W        W  656  28.757   4.459   1.432
35397W        W  657  39.342  35.565   4.197
35398W        W  658  16.796   2.535   2.850
35399W        W  659  11.645  40.387   3.657
35400W        W  660  33.994  39.513   0.240
35401W        W  661  39.445  33.966   1.875
35402W        W  662  39.587  22.653  14.345
35403W        W  663  11.130  11.646  13.426
35404W        W  664  10.868   4.722   1.013
35405W        W  665  23.382  29.075   1.795
35406W        W  666  27.588   7.553  13.289
35407W        W  667  40.598   4.761   3.785
35408W        W  668  20.599  43.268   1.726
35409W        W  669   0.578  21.049  10.745
35410W        W  670  26.706  37.367   1.775
35411W        W  671  25.787  23.123  12.615
35412W        W  672   0.210   1.503   2.901
35413W        W  673   8.431  12.105  11.923
35414W        W  674  40.315  31.071   0.706
35415W        W  675  13.868  15.736  14.372
35416W        W  676  42.877   4.309  12.148
35417W        W  677  15.353  23.293  12.926
35418W        W  678  22.300  28.210   1.455
35419W        W  679  36.140  31.671   2.350
35420W        W  680  21.301  27.535  14.043
35421W        W  681  11.757  33.606   0.861
35422W        W  682   4.150  42.324   1.197
35423W        W  683  30.468   3.811   3.407
35424W        W  684   5.394  44.780   0.922
35425W        W  685   6.847  15.162  11.421
35426W        W  686  21.192   5.979  14.414
35427W        W  687  13.281  41.335  13.514
35428W        W  688  29.903   0.521   3.172
35429W        W  689   5.977   8.915  10.762
35430W        W  690  13.598  42.023   4.207
35431W        W  691  20.461   9.871   0.334
35432W        W  692  33.177  38.461   0.234
35433W        W  693   6.010  29.593   2.690
35434W        W  694  10.005   1.367  13.896
35435W        W  695   9.109   4.697   2.811
35436W        W  696  17.788  19.565  13.086
35437W        W  697  32.480  35.060   3.395
35438W        W  698  25.740  33.476   3.316
35439W        W  699   8.778  10.288   4.788
35440W        W  700   6.226  24.564  10.671
35441W        W  701  39.968  35.585  14.304
35442W        W  702  41.561   2.141  12.181
35443W        W  703  17.181  33.949   4.581
35444W        W  704   5.254  26.204   2.368
35445W        W  705   7.865  18.577  13.439
35446W        W  706  37.553  21.667   4.321
35447W        W  707   7.475  20.522   1.295
35448W        W  708  41.427  17.851   3.581
35449W        W  709  29.191  30.956  11.056
35450W        W  710  24.522   2.268  11.127
35451W        W  711  39.461   1.192  11.583
35452W        W  712  12.396  36.551   0.878
35453W        W  713  35.240  40.354  11.101
35454W        W  714  32.379  36.904  11.582
35455W        W  715  22.834  14.900   3.171
35456W        W  716  25.674  24.174   3.799
35457W        W  717  44.000   3.138   1.408
35458W        W  718  13.616  29.470  11.142
35459W        W  719  13.239   7.654  12.114
35460W        W  720  43.072   5.687  13.864
35461W        W  721   2.933   1.422   2.048
35462W        W  722   8.793  25.611  14.996
35463W        W  723  41.803  23.086  13.081
35464W        W  724   4.668  26.892   1.845
35465W        W  725  26.767  27.659  10.712
35466W        W  726  13.711  14.985   4.071
35467W        W  727  19.038  25.574  10.342
35468W        W  728  13.620   6.961  12.547
35469W        W  729  18.199  27.513   2.848
35470W        W  730  17.393   5.265  13.543
35471W        W  731  35.954   2.588  13.913
35472W        W  732  20.617  38.747   2.283
35473W        W  733   7.129   7.386  11.769
35474W        W  734  25.121   3.236  12.892
35475W        W  735  22.281  18.513  14.938
35476W        W  736  41.029  10.303   0.808
35477W        W  737  44.551  24.125  14.306
35478W        W  738   2.319   3.330  12.832
35479W        W  739  27.611  22.816  11.919
35480W        W  740   6.418  44.969   3.128
35481W        W  741  24.118  39.063   2.357
35482W        W  742  42.437  42.611  12.377
35483W        W  743   0.280   1.168   0.803
35484W        W  744  26.091  44.963   0.942
35485W        W  745   9.212  34.033   0.059
35486W        W  746   2.955   4.491   0.672
35487W        W  747  20.842  10.784  12.571
35488W        W  748  30.161   8.953  12.077
35489W        W  749  32.819   3.335   2.379
35490W        W  750  22.077   8.688   4.899
35491W        W  751  17.169  35.539  13.195
35492W        W  752  21.005  23.499   0.282
35493W        W  753  23.488  37.981  13.986
35494W        W  754  12.174   4.436   3.111
35495W        W  755   7.603   3.576  10.375
35496W        W  756   5.937   3.782   4.448
35497W        W  757  41.323  39.077   1.686
35498W        W  758  17.576  17.112   3.853
35499W        W  759  13.251  42.323   3.669
35500W        W  760  29.419  11.342   4.384
35501W        W  761  25.517  22.412   1.395
35502W        W  762  10.780  23.673  12.694
35503W        W  763   8.863  38.929   3.675
35504W        W  764  38.027  25.935  12.984
35505W        W  765  20.916  25.789  11.912
35506W        W  766  19.187  23.168   1.742
35507W        W  767  12.217  26.496   5.463
35508W        W  768  16.294  35.909  12.969
35509W        W  769  17.283   0.788  13.072
35510W        W  770  28.670   1.388   0.782
35511W        W  771  30.631  22.662  13.559
35512W        W  772  20.979  38.583  12.220
35513W        W  773  13.703  33.166   3.382
35514W        W  774  32.051  44.730  14.922
35515W        W  775  16.187  10.088   4.091
35516W        W  776  16.342  38.636   4.031
35517W        W  777   8.004  39.118   2.261
35518W        W  778  10.062  42.405   2.801
35519W        W  779  40.612   4.578  10.218
35520W        W  780  21.491   8.690   4.105
35521W        W  781  18.254  23.771   2.889
35522W        W  782  25.037  12.557  10.725
35523W        W  783   0.542  15.087   2.382
35524W        W  784  12.137  16.716   1.788
35525W        W  785   7.271   2.857   1.018
35526W        W  786  35.193  40.934   3.592
35527W        W  787   7.676  16.501   2.848
35528W        W  788  30.065  17.342   2.411
35529W        W  789  43.499  32.300  14.576
35530W        W  790   8.610   5.376  14.867
35531W        W  791  30.101  40.593  11.035
35532W        W  792  33.521  11.403  13.537
35533W        W  793  34.503  38.425   4.032
35534W        W  794  12.224  38.869   1.751
35535W        W  795  10.596  14.538   2.828
35536W        W  796  21.978  28.096   0.251
35537W        W  797  17.461  33.676  12.436
35538W        W  798  30.966  30.366   4.875
35539W        W  799  40.363   8.100  14.449
35540W        W  800  30.453  12.801  13.230
35541W        W  801  25.585  42.911   2.125
35542W        W  802  22.388  24.063  14.104
35543W        W  803   3.030  43.852  11.516
35544W        W  804  31.610  20.063  10.671
35545W        W  805   9.861  24.122   4.488
35546W        W  806  39.984  17.666  14.051
35547W        W  807  39.383   5.643  14.697
35548W        W  808  14.609  42.747  12.511
35549W        W  809   7.212  39.920   2.595
35550W        W  810  33.126  22.052  10.740
35551W        W  811  32.536  16.377   2.694
35552W        W  812  41.344  36.886  11.989
35553W        W  813  23.132  17.712  12.620
35554W        W  814  41.845   0.863  12.628
35555W        W  815  27.889  39.523   3.615
35556W        W  816   5.355  43.959  13.042
35557W        W  817   6.009  10.528   1.925
35558W        W  818  39.221  15.304  10.430
35559W        W  819  19.821  14.245   3.545
35560W        W  820  19.699  30.880   2.254
35561W        W  821  35.690  44.516  11.019
35562W        W  822  26.234  35.531  10.724
35563W        W  823   8.899  25.999  12.051
35564W        W  824  25.294  38.587   3.182
35565W        W  825   9.947  27.778   4.526
35566W        W  826  41.847  29.864  11.476
35567W        W  827  38.872  27.397   4.654
35568W        W  828  36.308  18.307   0.914
35569W        W  829  38.637   0.117   4.190
35570W        W  830  40.947   1.896  12.348
35571W        W  831  24.600  12.197   1.784
35572W        W  832   1.473  29.687  11.702
35573W        W  833  11.643  29.402   1.090
35574W        W  834  39.437  34.597  13.112
35575W        W  835   5.842  16.014   0.721
35576W        W  836  15.028   2.519   4.014
35577W        W  837  13.007  34.913   2.858
35578W        W  838  28.138  41.606   1.284
35579W        W  839  40.763  23.626   3.408
35580W        W  840  35.074   5.658  14.033
35581W        W  841  22.918  12.049   5.034
35582W        W  842  34.320  29.778  11.641
35583W        W  843   8.452   3.896   1.655
35584W        W  844  29.671   0.374  10.123
35585W        W  845  29.609   5.993   0.788
35586W        W  846  20.557  40.369  13.328
35587W        W  847   6.199  34.320   0.266
35588W        W  848  44.370  28.369   1.749
35589W        W  849  42.856   0.908   4.795
35590W        W  850  38.846   7.627  14.574
35591W        W  851  37.390  39.546   2.013
35592W        W  852  30.880  10.097  11.094
35593W        W  853  38.376   1.154  13.921
35594W        W  854  12.383  19.819   3.371
35595W        W  855  30.035  42.825   3.824
35596W        W  856  19.847  28.100   2.658
35597W        W  857  10.319   9.629   2.587
35598W        W  858  32.607  26.008  14.416
35599W        W  859   6.822  31.986  14.299
35600W        W  860  13.216  34.012  11.828
35601W        W  861  44.280  19.831   0.485
35602W        W  862  28.688   9.847   4.193
35603W        W  863  35.466  42.039   4.316
35604W        W  864  31.853  40.855   2.745
35605W        W  865  19.961   6.378   0.331
35606W        W  866  18.289   4.093   4.865
35607W        W  867  16.502  25.091   3.175
35608W        W  868  16.327   0.830   1.442
35609W        W  869   7.792  30.807   4.986
35610W        W  870   9.722  33.024   4.922
35611W        W  871  13.212  24.639   3.703
35612W        W  872  37.254  15.384   0.701
35613W        W  873  42.342  24.168   0.016
35614W        W  874  44.923  32.467   0.650
35615W        W  875   0.950  18.152  12.541
35616W        W  876   2.656  41.016  10.695
35617W        W  877   9.880  29.444  12.040
35618W        W  878   9.551   9.378  11.549
35619W        W  879   7.868  34.428   1.487
35620W        W  880  33.476  16.306  13.910
35621W        W  881  33.644  12.444  13.512
35622W        W  882  17.344  38.138   0.678
35623W        W  883  16.325   9.280   2.960
35624W        W  884  39.732  29.879   3.535
35625W        W  885   6.979  44.487  13.395
35626W        W  886  41.362  10.721   4.579
35627W        W  887  20.865  15.242  13.336
35628W        W  888  13.728   2.149   2.463
35629W        W  889  43.452  25.145  10.507
35630W        W  890   8.714  22.212   3.630
35631W        W  891  16.547  35.919  13.891
35632W        W  892  10.001  10.027   2.695
35633W        W  893   3.204  27.907  11.571
35634W        W  894  18.952  32.899   3.128
35635W        W  895   8.608   5.369   3.240
35636W        W  896  27.375  40.460  11.576
35637W        W  897  27.640  30.074   4.418
35638W        W  898  43.699  12.480  13.042
35639W        W  899  15.105  26.740   0.995
35640W        W  900  16.374  44.010   1.436
35641W        W  901  37.495  34.558   3.178
35642W        W  902  15.605  27.886   1.534
35643W        W  903  44.774  25.983   0.190
35644W        W  904  21.158  32.814  11.094
35645W        W  905  39.797  13.564   0.833
35646W        W  906   6.256   6.892   0.404
35647W        W  907  20.962  16.166   0.468
35648W        W  908   9.755  17.139   2.618
35649W        W  909  16.310   2.288   2.867
35650W        W  910  16.049  28.456  11.857
35651W        W  911  39.100  20.677   2.886
35652W        W  912  10.804  10.935  14.910
35653W        W  913  40.967  39.839  11.143
35654W        W  914  44.557  40.825  14.886
35655W        W  915   1.934   4.675   4.172
35656W        W  916  23.784  41.274   3.306
35657W        W  917  21.735  13.433   4.625
35658W        W  918  40.903  13.567   5.072
35659W        W  919  24.009  36.865  11.809
35660W        W  920  16.232  28.961   0.131
35661W        W  921   4.712   5.397   4.849
35662W        W  922  14.740  36.696  11.390
35663W        W  923  19.807  11.920   1.954
35664W        W  924  37.480   0.566  13.825
35665W        W  925   4.452  14.208   0.153
35666W        W  926  39.511  31.067  13.535
35667W        W  927   3.451  19.583  11.705
35668W        W  928  40.854   4.415   4.526
35669W        W  929  28.873  36.916   0.118
35670W        W  930   2.472  44.765  14.420
35671W        W  931   1.977  19.511   2.703
35672W        W  932  39.510  34.133  12.358
35673W        W  933  15.443  20.762  14.076
35674W        W  934  33.063  44.716  14.528
35675W        W  935   1.204   3.419   2.830
35676W        W  936  36.031  22.357  10.692
35677W        W  937   0.519  27.148  13.600
35678W        W  938  32.474  16.605  14.236
35679W        W  939  40.839  19.599   2.245
35680W        W  940  44.279  31.189   2.761
35681W        W  941  12.194   9.784   2.913
35682W        W  942  40.868  27.275  12.990
35683W        W  943  26.208   9.230   3.628
35684W        W  944  41.304   9.268  13.157
35685W        W  945  19.258  22.275  12.480
35686W        W  946   8.247  37.634  14.355
35687W        W  947  33.123  28.183   1.499
35688W        W  948  38.785  44.345  14.444
35689W        W  949  12.942  43.534   3.886
35690W        W  950   7.769  21.965  14.497
35691W        W  951  37.416  15.679  12.046
35692W        W  952  19.746   7.656  10.721
35693W        W  953  27.499  12.542   2.878
35694W        W  954  23.209  40.085   1.884
35695W        W  955   9.270  32.652   0.352
35696W        W  956  39.823  20.156   4.641
35697W        W  957   4.927  40.065   0.001
35698W        W  958  18.764  41.099  12.856
35699W        W  959   7.166  15.363  14.602
35700W        W  960   8.901  18.158   0.691
35701W        W  961  24.559  21.184  13.419
35702W        W  962  37.073  32.153   2.219
35703W        W  963  23.369  34.764   4.957
35704W        W  964  20.942  14.895  14.535
35705W        W  965  35.860  11.067  11.082
35706W        W  966  27.425  14.769   4.154
35707W        W  967  44.347  29.891   2.784
35708W        W  968  44.814   7.807   4.520
35709W        W  969   9.736  37.945   2.454
35710W        W  970  29.106   8.379   2.315
35711W        W  971  31.873   6.666   3.316
35712W        W  972  44.067  22.134  12.599
35713W        W  973   2.752  44.852  12.304
35714W        W  974  27.113  27.395  12.942
35715W        W  975  23.788  22.754   4.180
35716W        W  976  27.273  23.970   0.725
35717W        W  977   4.222   0.715   3.245
35718W        W  978   0.904  31.451   3.792
35719W        W  979  41.472  28.012  12.010
35720W        W  980  27.686  17.824  12.119
35721W        W  981  29.678  37.746  11.122
35722W        W  982  14.800  22.639   2.213
35723W        W  983  11.415   2.799   2.705
35724W        W  984  10.877  23.886   2.565
35725W        W  985  37.109  11.847  11.145
35726W        W  986  39.304  20.847  14.463
35727W        W  987  27.165  33.547   0.332
35728W        W  988  26.105  38.213  13.432
35729W        W  989  17.288  11.162  12.109
35730W        W  990  13.228  11.260   1.278
35731W        W  991   7.193   1.230   4.714
35732W        W  992  14.095  20.682   4.270
35733W        W  993  15.025   0.383  11.483
35734W        W  994   5.857  18.584  13.772
35735W        W  995   1.791  16.808   2.121
35736W        W  996   9.652  41.384  13.829
35737W        W  997  24.159  26.550   3.863
35738W        W  998  33.096   7.684  10.722
35739W        W  999  14.430  15.375   3.249
35740W        W 1000  36.459  38.608   0.428
35741W        W 1001   6.192  44.786   2.711
35742W        W 1002  42.562  27.687  13.955
35743W        W 1003  26.861   9.781  14.265
35744W        W 1004  35.097  18.097  14.244
35745W        W 1005  12.756  23.104  14.402
35746W        W 1006  16.456  21.496   1.685
35747W        W 1007  16.098  39.261  14.799
35748W        W 1008  41.950  23.483  13.984
35749W        W 1009  33.101  25.528   0.236
35750W        W 1010  29.888  21.716  10.706
35751W        W 1011  21.509  25.619  14.014
35752W        W 1012  27.616  30.653   2.283
35753W        W 1013  15.058  34.803  12.522
35754W        W 1014  39.532   8.730   0.325
35755W        W 1015  36.600  24.572  14.736
35756W        W 1016  35.831  36.327  13.839
35757W        W 1017  44.505  16.720   0.095
35758W        W 1018  41.320  23.683   4.615
35759W        W 1019  33.599  40.479  13.931
35760W        W 1020  32.417  40.102  10.795
35761W        W 1021  35.634  23.521  13.929
35762W        W 1022  43.416   1.627  14.782
35763W        W 1023  12.509  32.391   0.939
35764W        W 1024  14.559   8.479   3.060
35765W        W 1025   9.538  28.408   1.856
35766W        W 1026  29.225   3.376   0.750
35767W        W 1027   0.018  42.054  12.978
35768W        W 1028   3.359  31.140  13.256
35769W        W 1029  38.431  19.700   3.820
35770W        W 1030  30.067   9.570   4.660
35771W        W 1031  26.426   5.428   4.581
35772W        W 1032  40.021  33.692   4.327
35773W        W 1033  35.364  31.357   0.453
35774W        W 1034  41.374  34.780   4.742
35775W        W 1035  39.048  12.126   1.032
35776W        W 1036  16.672  38.159   4.082
35777W        W 1037   9.969   8.120  11.305
35778W        W 1038   3.156  40.751  11.521
35779W        W 1039  39.598  26.760   3.115
35780W        W 1040   3.632  18.169   3.406
35781W        W 1041  13.269  17.107   0.373
35782W        W 1042  27.455   2.983  14.734
35783W        W 1043  44.445   4.868  12.587
35784W        W 1044  13.054   4.209   2.769
35785W        W 1045  18.868   4.677   1.152
35786W        W 1046  16.325  28.062  11.655
35787W        W 1047  34.365   4.904   2.293
35788W        W 1048  28.436  20.580   0.495
35789W        W 1049  30.004  41.824   1.818
35790W        W 1050  27.931  20.232   4.515
35791W        W 1051  27.637  42.845  11.895
35792W        W 1052  11.782  17.476   2.368
35793W        W 1053  31.012  24.630  13.436
35794W        W 1054  19.805  31.457   3.328
35795W        W 1055  22.640  38.086   2.244
35796W        W 1056  39.223  18.075  12.540
35797W        W 1057  17.351  27.954   1.891
35798W        W 1058  17.896   7.364   2.166
35799W        W 1059  13.724  38.265  13.385
35800W        W 1060  38.952   2.650   2.411
35801W        W 1061  21.172  25.545   0.402
35802W        W 1062  14.741  28.580   3.584
35803W        W 1063  15.633  41.039   0.881
35804W        W 1064  34.108  22.175   0.222
35805W        W 1065   4.223   5.828   0.342
35806W        W 1066   3.203  38.630   1.435
35807W        W 1067  26.384  30.481   4.219
35808W        W 1068   5.778   3.825  10.965
35809W        W 1069  22.291   9.525  14.390
35810W        W 1070  17.757  36.860   3.541
35811W        W 1071   9.315   2.134  10.280
35812W        W 1072  28.815   2.525   2.376
35813W        W 1073  29.262  25.147   2.418
35814W        W 1074  12.341  28.501  13.438
35815W        W 1075  21.804  35.358   0.953
35816W        W 1076  33.366  44.456  12.399
35817W        W 1077  20.822  22.107   1.517
35818W        W 1078  37.784   6.301   4.059
35819W        W 1079  21.573  15.659  12.481
35820W        W 1080   2.626  43.457  11.126
35821W        W 1081  19.232   1.505  11.271
35822W        W 1082  34.987  17.846   1.734
35823W        W 1083  22.278  32.925  14.854
35824W        W 1084  12.584  19.580   2.783
35825W        W 1085  19.913  36.732   4.244
35826W        W 1086  38.062   4.237   1.336
35827W        W 1087  21.246   0.010  13.265
35828W        W 1088  29.533  41.560   0.914
35829W        W 1089   9.853  25.713   2.602
35830W        W 1090  15.528  34.959   2.669
35831W        W 1091  34.523  39.357  14.516
35832W        W 1092  16.560  10.345  12.593
35833W        W 1093  31.492  15.384  12.965
35834W        W 1094  18.888  43.199   4.131
35835W        W 1095  43.965  18.197  10.470
35836W        W 1096  44.181   0.292   1.912
35837W        W 1097  14.843  14.715   0.876
35838W        W 1098  15.024  44.824   4.653
35839W        W 1099  31.934  27.507   3.081
35840W        W 1100  43.862  33.077  10.525
35841W        W 1101  15.099   8.394   0.369
35842W        W 1102   5.196   1.022  14.085
35843W        W 1103  18.647   5.811  12.198
35844W        W 1104   7.310  36.008   0.312
35845W        W 1105  15.629   1.500   3.422
35846W        W 1106  43.462   2.001  12.507
35847W        W 1107   8.273  13.658  13.966
35848W        W 1108   8.002  37.805  13.513
35849W        W 1109  33.410  43.335   0.758
35850W        W 1110  25.575   3.887  12.548
35851W        W 1111  22.513  39.351  11.903
35852W        W 1112   9.314   4.247   2.128
35853W        W 1113   7.824  10.577   1.306
35854W        W 1114   3.951   4.435   0.228
35855W        W 1115  21.559   2.422  14.507
35856W        W 1116  18.216   8.804  12.227
35857W        W 1117  29.099  42.685  13.940
35858W        W 1118   7.733  22.200  11.106
35859W        W 1119  27.662   0.451   1.871
35860W        W 1120  34.431  18.119   2.891
35861W        W 1121  32.234  15.997  11.838
35862W        W 1122  33.876  15.755  14.885
35863W        W 1123  33.969  12.871   0.319
35864W        W 1124  30.975  36.649   3.138
35865W        W 1125  24.566   1.804  10.559
35866W        W 1126  44.411  33.573  11.590
35867W        W 1127  26.666  17.661  14.343
35868W        W 1128   6.108  29.020  13.733
35869W        W 1129  19.265   3.857   1.533
35870W        W 1130  38.958  22.915   1.161
35871W        W 1131  38.577  32.035  14.769
35872W        W 1132  37.337  13.756   3.175
35873W        W 1133  20.628  26.565  12.514
35874W        W 1134  28.999  25.449  11.677
35875W        W 1135  28.515  29.031   3.721
35876W        W 1136   7.263  27.280  13.917
35877W        W 1137   6.912  11.766   3.318
35878W        W 1138  35.418  42.020  12.438
35879W        W 1139   9.130  21.766   4.071
35880W        W 1140  24.724  15.201  11.104
35881W        W 1141  20.174  20.963  11.513
35882W        W 1142  37.125  17.279   0.658
35883W        W 1143  18.120  10.653   0.018
35884W        W 1144  12.241  33.871   1.797
35885W        W 1145   6.587  39.820  10.516
35886W        W 1146  22.930  15.713   0.914
35887W        W 1147  34.590   5.002  14.705
35888W        W 1148  31.480   5.832   2.868
35889W        W 1149  16.052  16.501   4.284
35890W        W 1150  15.225  32.178  14.355
35891W        W 1151  19.674  40.343  11.262
35892W        W 1152  30.265  33.031   4.044
35893W        W 1153   0.405  40.277  14.917
35894W        W 1154   8.061  28.912   1.277
35895W        W 1155  27.647  18.184   3.824
35896W        W 1156  38.635  22.559   0.310
35897W        W 1157   1.464  23.608  10.578
35898W        W 1158  28.613   2.850   3.079
35899W        W 1159  37.102  12.094  13.335
35900W        W 1160  10.193   6.276  14.078
35901W        W 1161   2.014  33.036  14.464
35902W        W 1162  12.158  34.194  13.068
35903W        W 1163  14.842  30.975  14.812
35904W        W 1164  19.736  16.616   0.273
35905W        W 1165  40.876  14.820  10.823
35906W        W 1166  40.895  36.432   0.323
35907W        W 1167   2.499  31.645   5.103
35908W        W 1168  20.984  10.816   0.664
35909W        W 1169  38.192  33.469   4.134
35910W        W 1170  28.101  20.871   0.768
35911W        W 1171   7.317  29.916   0.310
35912W        W 1172   2.912   2.269   0.913
35913W        W 1173  42.451  18.993   1.926
35914W        W 1174  10.582   7.738  14.086
35915W        W 1175   6.134  43.389   1.020
35916W        W 1176   8.742   7.992  10.468
35917W        W 1177   4.216  28.940  12.022
35918W        W 1178  30.956   6.655   1.898
35919W        W 1179  36.875   8.684   4.919
35920W        W 1180  30.672  42.273   3.261
35921W        W 1181  18.398   3.164   4.125
35922W        W 1182  42.831  21.563  14.266
35923W        W 1183  28.468   3.888  11.042
35924W        W 1184   7.732  26.386  13.076
35925W        W 1185  43.773  32.516  11.174
35926W        W 1186  15.654  36.061  13.691
35927W        W 1187  33.119  23.240   3.803
35928W        W 1188  10.378  12.322   0.337
35929W        W 1189  12.779  37.120   4.695
35930W        W 1190  31.524  40.322  14.007
35931W        W 1191  41.833  37.550   0.215
35932W        W 1192   2.453  41.536   2.204
35933W        W 1193  14.161  15.409   2.791
35934W        W 1194  37.791  27.023   0.380
35935W        W 1195  11.114   6.824  11.736
35936W        W 1196  14.661  10.708  11.023
35937W        W 1197  28.547   4.255  13.029
35938W        W 1198  27.757  10.277  14.916
35939W        W 1199  20.592  34.522  10.941
35940W        W 1200  26.669  17.593  12.036
35941W        W 1201  40.519  31.028  13.915
35942W        W 1202  29.163  38.048  14.182
35943W        W 1203  10.790  11.650   1.872
35944W        W 1204  17.656  13.154   4.518
35945W        W 1205  14.292  21.579  14.728
35946W        W 1206  25.590  35.264  10.228
35947W        W 1207  43.390   3.127   2.739
35948W        W 1208  38.922  43.275   1.300
35949W        W 1209  42.953  30.882  13.609
35950W        W 1210  44.366  33.162  10.618
35951W        W 1211  34.657  14.757   3.599
35952W        W 1212  12.824  19.475  13.244
35953W        W 1213  12.801  25.985  14.878
35954W        W 1214  33.888   6.667   4.145
35955W        W 1215  23.303  42.316   2.026
35956W        W 1216  16.162   1.848  10.879
35957W        W 1217  12.538  28.679   3.173
35958W        W 1218  20.548  27.578  10.408
35959W        W 1219   4.652   0.457   1.154
35960W        W 1220  43.602  39.381   0.747
35961W        W 1221  25.022  38.023   1.422
35962W        W 1222   9.124   8.123  11.103
35963W        W 1223  37.827  36.919   0.710
35964W        W 1224  26.656   2.671  11.743
35965W        W 1225  31.222  22.752   0.471
35966W        W 1226  22.946  35.573   0.833
35967W        W 1227  18.036  34.510   2.599
35968W        W 1228  42.892  10.532   2.271
35969W        W 1229  24.115  30.181   2.182
35970W        W 1230  24.085  30.722   0.811
35971W        W 1231  43.048  16.692   1.872
35972W        W 1232  28.705  33.432  14.402
35973W        W 1233  42.305   9.350  12.504
35974W        W 1234  29.067  11.419   2.345
35975W        W 1235  12.937  11.412  13.316
35976W        W 1236  19.534   2.897  11.045
35977W        W 1237  40.933  43.271   2.461
35978W        W 1238  34.130   6.396   2.922
35979W        W 1239   2.164  16.264   9.883
35980W        W 1240  10.122  23.559   2.632
35981W        W 1241  28.652  38.081  13.888
35982W        W 1242  11.585  22.004   0.444
35983W        W 1243  41.512   1.311   4.273
35984W        W 1244  14.029  34.818   2.792
35985W        W 1245  40.000  18.769  13.384
35986W        W 1246  27.793   1.785  13.374
35987W        W 1247  26.168  43.352  13.655
35988W        W 1248  35.691  12.346   0.292
35989W        W 1249   3.123   8.863   1.831
35990W        W 1250  42.674   7.835   3.683
35991W        W 1251  15.646  32.135   4.040
35992W        W 1252   9.192  26.237  13.993
35993W        W 1253  21.099  16.031  14.967
35994W        W 1254  31.837  35.521   3.513
35995W        W 1255   5.177   6.243  12.948
35996W        W 1256   1.361  37.650   0.457
35997W        W 1257  42.584  16.228   0.753
35998W        W 1258  21.244  17.246  12.914
35999W        W 1259   4.518  19.027   3.596
36000W        W 1260  16.040  12.922   2.792
36001W        W 1261  35.174  41.790  12.037
36002W        W 1262  27.731  33.278   4.974
36003W        W 1263   2.840  35.932   4.418
36004W        W 1264  10.387   3.129  13.850
36005W        W 1265  12.212  16.112  12.145
36006W        W 1266  12.327  12.702   4.795
36007W        W 1267  36.847  11.876  12.908
36008W        W 1268  32.485  26.108  13.450
36009W        W 1269  37.926  36.614  11.898
36010W        W 1270  37.354  31.006  10.356
36011W        W 1271  21.204  11.778  10.720
36012W        W 1272  32.455  11.294   4.932
36013W        W 1273  35.643  30.438   3.205
36014W        W 1274  37.949  12.750  11.264
36015W        W 1275  39.205  26.239  14.523
36016W        W 1276  14.672  10.706   2.194
36017W        W 1277  14.206   2.206   0.838
36018W        W 1278  40.094  34.391   4.531
36019W        W 1279   4.928   6.202   2.687
36020W        W 1280  44.568  44.452   0.840
36021W        W 1281   4.121  14.584  11.585
36022W        W 1282  37.137  43.693   3.205
36023W        W 1283  43.868  18.746  11.889
36024W        W 1284  20.650  14.708  12.579
36025W        W 1285  17.924  39.109  12.001
36026W        W 1286  10.788  22.668   3.630
36027W        W 1287  14.770  44.456  10.640
36028W        W 1288  29.539  39.315   0.601
36029W        W 1289   1.462  15.148   1.388
36030W        W 1290   6.991  14.927  14.822
36031W        W 1291  25.717   6.040   3.190
36032W        W 1292  40.496  41.879  14.019
36033W        W 1293  23.815  37.511   0.234
36034W        W 1294  31.469   8.932   4.496
36035W        W 1295  19.986  28.977  11.606
36036W        W 1296  38.060  18.786  10.767
36037W        W 1297  35.159  26.156  11.670
36038W        W 1298  13.678  17.703  13.416
36039W        W 1299  41.431  26.263   1.913
36040W        W 1300  33.110  35.993  13.352
36041W        W 1301  30.261  13.783   3.288
36042W        W 1302  11.772  21.779   3.876
36043W        W 1303  43.362  29.434   4.177
36044W        W 1304  12.564  26.043   2.293
36045W        W 1305  20.154  26.055  14.382
36046W        W 1306  33.532  38.497   3.688
36047W        W 1307  19.658  12.664  12.652
36048W        W 1308   8.665  44.926  10.425
36049W        W 1309  32.871   5.303   0.856
36050W        W 1310  21.552  10.908  11.674
36051W        W 1311   0.683  43.186   3.076
36052W        W 1312   3.285  11.179   0.374
36053W        W 1313  16.245  40.321   0.827
36054W        W 1314  21.745  42.608  14.160
36055W        W 1315  23.972  44.457   2.230
36056W        W 1316   9.120   4.642  10.692
36057W        W 1317   1.491  24.766  14.053
36058W        W 1318  35.791   1.281  11.773
36059W        W 1319  31.048  22.088   4.854
36060W        W 1320  22.250   1.595  11.294
36061W        W 1321   7.642   7.472   4.592
36062W        W 1322  17.512  30.672   4.590
36063W        W 1323  35.361  36.529  12.883
36064W        W 1324  16.770   8.130   4.831
36065W        W 1325  28.683  27.106   1.342
36066W        W 1326  20.176  36.304   3.154
36067W        W 1327  14.239  36.513   1.229
36068W        W 1328   8.405  38.870   4.082
36069W        W 1329   0.572  24.964   2.214
36070W        W 1330  33.627  25.018   0.972
36071W        W 1331   5.272  20.265   2.918
36072W        W 1332   7.009   2.864  12.572
36073W        W 1333  43.301  23.158  11.463
36074W        W 1334   8.469  12.206  14.475
36075W        W 1335  18.797  12.662   2.349
36076W        W 1336  44.978  11.584   0.915
36077W        W 1337  18.184   0.731   4.099
36078W        W 1338  31.055  28.728  14.852
36079W        W 1339  32.392  41.245  13.354
36080W        W 1340  36.292  25.300   4.495
36081W        W 1341  30.603   2.490   0.705
36082W        W 1342  43.499  30.481   0.723
36083W        W 1343  40.646   9.153   0.329
36084W        W 1344  29.481  13.138   1.907
36085W        W 1345  28.112  29.088   2.409
36086W        W 1346  21.897  44.271  13.785
36087W        W 1347  35.537  30.460   1.062
36088W        W 1348  20.034   0.828   2.183
36089W        W 1349  34.157  15.154  11.084
36090W        W 1350   5.124  28.991   1.769
36091W        W 1351  24.418  44.881   4.087
36092W        W 1352   6.645  13.806  10.783
36093W        W 1353  10.684   0.972  10.711
36094W        W 1354  37.713   2.271  13.371
36095W        W 1355  22.854  14.409   3.259
36096W        W 1356  24.945  43.886   2.647
36097W        W 1357  14.387  34.618  12.847
36098W        W 1358   1.227  10.468  14.416
36099W        W 1359  35.131  27.575  14.695
36100W        W 1360   3.963  27.767   3.687
36101W        W 1361  34.396  23.176   1.301
36102W        W 1362   9.348  36.395  12.363
36103W        W 1363  28.093  38.568   2.932
36104W        W 1364   9.709   5.405  12.905
36105W        W 1365   5.225  41.909  10.567
36106W        W 1366  16.837  44.823  12.930
36107W        W 1367  32.072  11.365   1.696
36108W        W 1368  19.101  44.335   0.156
36109W        W 1369  32.365  15.829   3.551
36110W        W 1370  16.961  23.624  12.008
36111W        W 1371  41.834  35.156   0.414
36112W        W 1372   7.998   3.644  14.452
36113W        W 1373  18.931  39.276   3.270
36114W        W 1374  14.726  39.007  11.996
36115W        W 1375  17.952  24.151  14.511
36116W        W 1376  24.583   3.926   3.128
36117W        W 1377  18.145  44.979  12.017
36118W        W 1378   3.782  18.728  13.438
36119W        W 1379   5.105   4.224  12.135
36120W        W 1380  29.098  30.039   4.735
36121W        W 1381  38.229  21.784  14.938
36122W        W 1382   4.836   6.715  14.899
36123W        W 1383   6.193   0.569  14.558
36124W        W 1384  36.837  37.651  14.825
36125W        W 1385  43.576  14.596  12.547
36126W        W 1386   5.815   9.585  14.865
36127W        W 1387   4.488  44.228   1.009
36128W        W 1388  22.787  40.346  13.283
36129W        W 1389  27.717  37.563  12.963
36130W        W 1390  14.279  21.798   0.201
36131W        W 1391  28.240  33.593   0.401
36132W        W 1392   4.857   8.211  13.827
36133W        W 1393  40.757  25.657   3.589
36134W        W 1394  29.847  34.440   2.794
36135W        W 1395  33.064   0.759  12.490
36136W        W 1396   3.654  10.807   1.201
36137W        W 1397  39.640   1.430  12.002
36138W        W 1398  24.640  24.196   3.963
36139W        W 1399  25.671  34.197   1.934
36140W        W 1400  28.429   6.856   4.211
36141W        W 1401  13.778  14.557   3.760
36142W        W 1402   2.995  29.164  12.622
36143W        W 1403   1.806  12.127  10.140
36144W        W 1404  36.016  41.461   2.167
36145W        W 1405  22.971   3.431   2.133
36146W        W 1406  17.736  43.563   1.479
36147W        W 1407  18.226  35.062   0.984
36148W        W 1408  42.554  40.617   1.850
36149W        W 1409  44.323  33.859  14.213
36150W        W 1410  36.945  44.856   9.706
36151W        W 1411  13.380  27.035  13.640
36152W        W 1412  43.445  37.687   4.945
36153W        W 1413   1.822   7.880   3.410
36154W        W 1414  14.671  30.109   3.158
36155W        W 1415  17.735  10.494  14.489
36156W        W 1416  44.472  36.403  12.542
36157W        W 1417   8.887  25.202   9.819
36158W        W 1418   1.447  25.104  11.909
36159W        W 1419  42.539  39.094  11.526
36160W        W 1420  28.221  35.852   2.738
36161W        W 1421   6.335   3.730  14.819
36162W        W 1422  18.603   7.989  14.861
36163W        W 1423   8.406  25.752   1.862
36164W        W 1424  27.404   2.392   2.644
36165W        W 1425   3.675  15.141  14.982
36166W        W 1426  35.848  16.572   0.910
36167W        W 1427  26.917   5.893  12.552
36168W        W 1428   3.875  44.605   3.337
36169W        W 1429  16.647  32.869   2.196
36170W        W 1430   4.188  17.449  13.887
36171W        W 1431  28.525  43.849  14.748
36172W        W 1432  35.371  33.940  12.220
36173W        W 1433  16.031  36.804   1.203
36174W        W 1434  37.359  29.389   3.727
36175W        W 1435   3.501   1.788   2.571
36176W        W 1436   4.697  35.589   1.355
36177W        W 1437  12.618   2.997   0.262
36178W        W 1438  39.033  30.431   4.881
36179W        W 1439  33.579  12.674   0.582
36180W        W 1440  16.448  21.572   1.100
36181W        W 1441   4.040  38.960   1.854
36182W        W 1442  10.959   2.856  12.423
36183W        W 1443  10.661   3.280  14.774
36184W        W 1444  14.796   3.461   5.049
36185W        W 1445   2.238  24.494  11.557
36186W        W 1446  24.542  30.537   1.001
36187W        W 1447  20.602   6.632   3.844
36188W        W 1448  39.951  33.856  12.645
36189W        W 1449  39.975  41.107  13.949
36190W        W 1450  37.150  20.587  14.806
36191W        W 1451  11.942   6.432  12.429
36192W        W 1452  40.561  14.112   4.027
36193W        W 1453  26.178  34.824  11.416
36194W        W 1454  15.019  38.373  14.049
36195W        W 1455  31.985  13.173   4.184
36196W        W 1456   8.204   6.722  13.543
36197W        W 1457   6.450  20.041   4.156
36198W        W 1458  15.126   0.619  10.305
36199W        W 1459  12.888   1.888   3.720
36200W        W 1460  29.623   1.342  12.336
36201W        W 1461  33.673  22.676  12.969
36202W        W 1462   5.196   3.371   2.363
36203W        W 1463  29.704  12.060  12.512
36204W        W 1464   6.747  10.854   2.858
36205W        W 1465  28.865  22.090   2.294
36206W        W 1466  19.140   6.867  12.885
36207W        W 1467  20.257  30.608  13.006
36208W        W 1468  36.915   4.038   0.732
36209W        W 1469  19.861  29.865   1.481
36210W        W 1470   2.358   8.636   2.111
36211W        W 1471  34.656  23.525  14.766
36212W        W 1472  10.485   4.380   2.301
36213W        W 1473  23.656  32.317  14.869
36214W        W 1474  38.424  29.121  13.805
36215W        W 1475   9.595  20.927   4.283
36216W        W 1476  14.494  19.633   5.012
36217W        W 1477  13.631   8.637   1.653
36218W        W 1478  44.369  34.841   0.957
36219W        W 1479  21.948   8.003  12.167
36220W        W 1480  44.344   2.789  12.943
36221W        W 1481  32.137  23.750   3.684
36222W        W 1482  34.262  35.998   0.960
36223W        W 1483   4.331   6.905   5.110
36224W        W 1484  16.056  26.584   3.773
36225W        W 1485   9.123  25.164  14.889
36226W        W 1486  35.423   6.714   3.170
36227W        W 1487  44.778   0.723  13.083
36228W        W 1488  32.130  11.450  13.517
36229W        W 1489  30.404   8.637   4.048
36230W        W 1490  41.506   8.583   4.608
36231W        W 1491  39.297  18.850   0.813
36232W        W 1492   4.877  13.120   2.820
36233W        W 1493   6.465  13.314   1.417
36234W        W 1494  12.762  43.882   1.916
36235W        W 1495  19.546  23.628   0.640
36236W        W 1496  22.758  44.502  13.508
36237W        W 1497  16.349  35.913   2.904
36238W        W 1498   8.140  42.825  12.161
36239W        W 1499  39.249  34.640   0.047
36240W        W 1500  39.248   9.171   2.722
36241W        W 1501  11.692  43.601   1.473
36242W        W 1502   8.481  17.237   2.791
36243W        W 1503  13.531  39.345  14.669
36244W        W 1504  12.844  20.789  14.673
36245W        W 1505  13.864  18.538   0.663
36246W        W 1506  27.603   9.772  14.827
36247W        W 1507  19.404   1.839   1.857
36248W        W 1508   2.042  31.973  11.209
36249W        W 1509   7.348  13.947   1.010
36250W        W 1510  24.543  30.433  12.163
36251W        W 1511  44.423  40.216  11.502
36252W        W 1512  41.940  17.002   2.715
36253W        W 1513   0.860  29.479   3.334
36254W        W 1514   0.796  30.233   2.512
36255W        W 1515  29.323  14.289  11.298
36256W        W 1516  34.659  34.517   0.947
36257W        W 1517  31.810  17.243   1.476
36258W        W 1518  24.546  30.189   2.763
36259W        W 1519  20.316  35.265   2.805
36260W        W 1520  17.353   6.957  12.557
36261W        W 1521   4.487  41.986   1.429
36262W        W 1522  33.419  15.258  12.498
36263W        W 1523   4.309   5.078   4.994
36264W        W 1524  19.516  12.124   4.268
36265W        W 1525  34.942   0.754  12.058
36266W        W 1526  25.959  10.343   1.724
36267W        W 1527  41.497  39.411   0.901
36268W        W 1528   3.551  11.159   4.844
36269W        W 1529  25.231  12.672   2.257
36270W        W 1530  35.907  26.251  10.471
36271W        W 1531  11.067  22.534  11.127
36272W        W 1532  17.125  40.314  11.091
36273W        W 1533  15.552   5.723   1.789
36274W        W 1534  42.247  13.320  14.753
36275W        W 1535   7.361   3.860   0.832
36276W        W 1536  23.789   5.283  13.497
36277W        W 1537  25.886  10.233  12.954
36278W        W 1538  29.338  23.537  14.450
36279W        W 1539   1.453  38.370   4.062
36280W        W 1540  28.377  31.171   1.787
36281W        W 1541   2.169   4.932  13.488
36282W        W 1542  20.697  21.767   2.365
36283W        W 1543  38.079  13.549   3.638
36284W        W 1544   4.137  23.800  11.660
36285W        W 1545  36.667   5.382   4.290
36286W        W 1546  33.517   9.793  13.386
36287W        W 1547  31.601  35.575  12.048
36288W        W 1548  38.252  15.269  11.016
36289W        W 1549   6.938  26.152   4.540
36290W        W 1550  25.705  31.421  10.709
36291W        W 1551  30.620  31.558  12.197
36292W        W 1552  38.761  40.441   0.724
36293W        W 1553   7.930  21.274   0.960
36294W        W 1554  35.393  11.123   2.237
36295W        W 1555  36.921   8.828  13.059
36296W        W 1556  10.645  37.847  12.822
36297W        W 1557  39.452   3.485  12.650
36298W        W 1558  13.131  19.663  11.045
36299W        W 1559   4.994  31.949  14.630
36300W        W 1560  21.126  16.522   0.032
36301W        W 1561   0.992  34.413  11.608
36302W        W 1562  10.429  41.723   5.268
36303W        W 1563  15.652  31.621  14.847
36304W        W 1564  39.930  37.056  11.469
36305W        W 1565  23.467  16.034   0.061
36306W        W 1566  29.000   4.651   0.966
36307W        W 1567  28.696  19.960   3.174
36308W        W 1568  36.229  40.549  11.320
36309W        W 1569  29.125  40.890  14.847
36310W        W 1570  43.764  20.636   0.235
36311W        W 1571   1.018  14.845   0.430
36312W        W 1572  29.659  32.390   1.816
36313W        W 1573  43.396  18.770   0.544
36314W        W 1574   3.819  38.300   0.468
36315W        W 1575   2.129  11.465  14.949
36316W        W 1576   1.235  24.558   3.237
36317W        W 1577  31.608  11.525   1.873
36318W        W 1578   9.775  22.891   9.560
36319W        W 1579   4.618   1.427   1.475
36320W        W 1580  24.977   7.694   4.134
36321W        W 1581  41.862   4.479   1.786
36322W        W 1582  20.584  25.176   1.711
36323W        W 1583  17.251  20.714   1.749
36324W        W 1584  10.759  18.564  13.076
36325W        W 1585  27.999   6.965   3.638
36326W        W 1586   2.166  13.871  11.707
36327W        W 1587   2.026   5.702   3.288
36328W        W 1588   0.352  44.424  13.861
36329W        W 1589  32.938  29.698  13.371
36330W        W 1590  36.881   6.683   2.563
36331W        W 1591  24.266  37.753   1.754
36332W        W 1592   9.100  33.157  13.753
36333W        W 1593   8.831  42.560  12.155
36334W        W 1594  21.037   8.368  11.813
36335W        W 1595  39.317  42.700   5.088
36336W        W 1596  28.403  19.352  12.141
36337W        W 1597  35.603   8.773  12.084
36338W        W 1598  11.913  26.234   9.755
36339W        W 1599  21.565  41.053   1.898
36340W        W 1600  13.298  18.993  12.275
36341W        W 1601   8.263   8.109  11.005
36342W        W 1602  37.307  24.002   0.920
36343W        W 1603  38.394   6.800  14.735
36344W        W 1604  14.751  39.481   2.214
36345W        W 1605  19.673   4.856  13.387
36346W        W 1606  16.295  37.451  12.509
36347W        W 1607   7.989   2.961   1.781
36348W        W 1608   7.255  22.194   1.325
36349W        W 1609  19.831  23.751  11.544
36350W        W 1610  27.244  19.653  10.526
36351W        W 1611  29.559  27.044   0.801
36352W        W 1612  39.088  14.421  14.556
36353W        W 1613  16.367  21.623   3.185
36354W        W 1614   2.408  11.311  12.446
36355W        W 1615   7.224   5.234   0.421
36356W        W 1616  44.456  30.591  12.955
36357W        W 1617   1.492  37.948   1.261
36358W        W 1618  17.763   5.339  12.951
36359W        W 1619  40.491  31.455   0.425
36360W        W 1620   5.500  23.231  11.568
36361W        W 1621   8.183   0.705  12.959
36362W        W 1622  27.445   5.319   0.545
36363W        W 1623  26.990  37.243  11.952
36364W        W 1624   9.915  10.145   4.170
36365W        W 1625  18.194  12.846  12.498
36366W        W 1626  10.218   3.534   1.860
36367W        W 1627  18.665  34.897  10.594
36368W        W 1628   6.833  28.356   4.483
36369W        W 1629  29.465  15.040   1.386
36370W        W 1630  24.800  11.354  13.404
36371W        W 1631  18.347   0.775  11.386
36372W        W 1632  12.579  37.076  14.277
36373W        W 1633  24.000  33.533   4.135
36374W        W 1634  42.272  42.920   4.581
36375W        W 1635  38.074  28.060   0.747
36376W        W 1636   2.620   8.320  14.727
36377W        W 1637  37.438   2.622   5.314
36378W        W 1638  21.452  14.745  11.222
36379W        W 1639  27.374   4.323  11.453
36380W        W 1640  14.244  30.099   4.418
36381W        W 1641  15.176  28.227  14.245
36382W        W 1642   5.207  14.778   0.603
36383W        W 1643  26.422  22.339   3.724
36384W        W 1644  44.959   4.920   1.899
36385W        W 1645  43.027   1.021   0.237
36386W        W 1646  43.224  18.468   1.432
36387W        W 1647  21.047  29.631  14.840
36388W        W 1648  18.056  34.833  14.834
36389W        W 1649  36.613   8.678  12.123
36390W        W 1650  36.194  22.351  12.109
36391W        W 1651  33.268  35.312  11.996
36392W        W 1652  37.137  31.442   4.339
36393W        W 1653  38.841  42.335  12.453
36394W        W 1654  10.889   9.627  13.703
36395W        W 1655  23.671  38.379  11.602
36396W        W 1656  25.563  40.831  14.371
36397W        W 1657  10.178  14.673  13.076
36398W        W 1658  43.338  16.991   0.759
36399W        W 1659  12.326  18.113  11.042
36400W        W 1660  37.577  44.569   2.990
36401W        W 1661  23.055  15.665   3.820
36402W        W 1662   7.689  29.003  12.050
36403W        W 1663  34.486   8.287  13.897
36404W        W 1664  30.161  29.778   2.787
36405W        W 1665  23.708  29.939   0.463
36406W        W 1666  14.308   7.174  11.358
36407W        W 1667  28.000  23.831  12.855
36408W        W 1668  39.343  12.529  11.728
36409W        W 1669  28.710  34.000  13.446
36410W        W 1670   7.504   1.227  13.975
36411W        W 1671   4.787  33.870   4.131
36412W        W 1672   2.167   5.782  11.623
36413W        W 1673  21.983  20.789  11.038
36414W        W 1674  34.375  33.970  10.671
36415W        W 1675  10.764   1.644   0.485
36416W        W 1676  15.341   9.736  10.739
36417W        W 1677   5.502  41.046  13.983
36418W        W 1678  19.075   1.777   1.435
36419W        W 1679  19.285   3.176  12.535
36420W        W 1680  32.003   8.293   4.693
36421W        W 1681  10.335  19.649  13.514
36422W        W 1682   2.074  25.747  13.634
36423W        W 1683   6.239  34.640   3.339
36424W        W 1684  24.776  44.074   4.282
36425W        W 1685  28.155  21.957   3.785
36426W        W 1686  37.505  33.388   3.579
36427W        W 1687  17.612  38.001  11.019
36428W        W 1688  31.793  21.849  13.967
36429W        W 1689  24.473   4.867  11.981
36430W        W 1690   1.340  31.162  13.297
36431W        W 1691  35.679  16.028  11.483
36432W        W 1692  21.205  14.798  12.523
36433W        W 1693  44.182   6.412   3.657
36434W        W 1694  29.034  39.266  12.704
36435W        W 1695  30.617  39.359  12.638
36436W        W 1696   3.210   9.795   1.838
36437W        W 1697   8.777  20.976   3.279
36438W        W 1698   9.032  29.550  13.701
36439W        W 1699  12.311  29.791   3.823
36440W        W 1700   1.741  34.336   3.552
36441W        W 1701  35.951  42.034  10.725
36442W        W 1702  42.433   3.681   3.093
36443W        W 1703  29.566  44.409   2.465
36444W        W 1704  40.370  15.990  11.473
36445W        W 1705  19.594  29.545   3.262
36446W        W 1706  36.677  13.298   1.707
36447W        W 1707   3.188  22.261  14.078
36448W        W 1708  26.133  33.925  11.704
36449W        W 1709  28.587  40.000  13.060
36450W        W 1710   7.829  33.949   4.597
36451W        W 1711   0.498   4.801  12.732
36452W        W 1712  26.402  19.087  12.122
36453W        W 1713  28.066  21.530  10.434
36454W        W 1714  15.325  36.406  10.757
36455W        W 1715  15.790  23.263   0.743
36456W        W 1716  44.456  44.801   1.220
36457W        W 1717  34.048  19.767  13.536
36458W        W 1718  11.388   9.387  11.575
36459W        W 1719  38.466  18.023   4.023
36460W        W 1720   6.250  36.697   2.742
36461W        W 1721   0.807   0.254   4.309
36462W        W 1722  31.716   4.807   1.405
36463W        W 1723  19.288   0.842   2.683
36464W        W 1724  23.600  10.226   4.625
36465W        W 1725   7.851  23.546  12.990
36466W        W 1726  29.753  16.161   1.257
36467W        W 1727   8.919  37.450  13.832
36468W        W 1728  30.671  43.242   0.434
36469W        W 1729   2.858   0.953   2.268
36470W        W 1730  10.580  31.915  12.326
36471W        W 1731   2.475  17.878   1.781
36472W        W 1732   2.400  32.887  12.958
36473W        W 1733  27.843   7.796   0.254
36474W        W 1734   5.228  36.533   4.489
36475W        W 1735  18.510  35.074  11.066
36476W        W 1736  41.369   8.875  11.147
36477W        W 1737  34.956  43.502  13.669
36478W        W 1738  27.431  44.933   2.598
36479W        W 1739  39.284   4.751  10.075
36480W        W 1740  19.306  22.824  12.429
36481W        W 1741  20.232  29.496  13.468
36482W        W 1742  30.969  28.900   2.334
36483W        W 1743  23.471  16.854   3.646
36484W        W 1744  37.448  30.551  13.726
36485W        W 1745  39.103  41.448  12.470
36486W        W 1746   2.443  27.507   3.705
36487W        W 1747  23.008  26.257  12.461
36488W        W 1748  15.776  18.615   0.285
36489W        W 1749   7.340   5.811  13.853
36490W        W 1750  41.596  10.636   1.359
36491W        W 1751  40.250   6.540   1.707
36492W        W 1752   0.101  43.723   4.701
36493W        W 1753  28.282   2.625   2.706
36494W        W 1754  41.795  39.580   3.848
36495W        W 1755  21.980  43.933  10.643
36496W        W 1756  30.216  32.954   0.866
36497W        W 1757  12.852  31.682  13.907
36498W        W 1758  36.117   6.920  13.003
36499W        W 1759  11.268  36.974   0.250
36500W        W 1760  13.066  24.974  14.665
36501W        W 1761  19.149  20.204   0.923
36502W        W 1762  30.160  18.245   1.522
36503W        W 1763  39.551  34.490   1.082
36504W        W 1764  18.177   3.969  12.363
36505W        W 1765  14.099  44.390   3.750
36506W        W 1766   6.357   1.404   0.287
36507W        W 1767  38.464  25.125   3.182
36508W        W 1768  18.219  26.599   2.625
36509W        W 1769  40.687  13.401   9.628
36510W        W 1770  18.367   6.221  12.876
36511W        W 1771  16.663  40.084  10.996
36512W        W 1772   8.279   7.006  13.115
36513W        W 1773  34.684   8.823   3.336
36514W        W 1774  23.174  28.604  10.888
36515W        W 1775   3.888  24.404   3.820
36516W        W 1776  21.191  14.580  14.855
36517W        W 1777  29.180  32.806   0.972
36518W        W 1778  22.044   9.930   1.302
36519W        W 1779   6.703  14.775   1.442
36520W        W 1780  32.601  37.397  12.321
36521W        W 1781  37.880  40.869  12.002
36522W        W 1782  21.611  31.432   1.767
36523W        W 1783  28.978   6.202  13.252
36524W        W 1784   6.358  28.681  11.372
36525W        W 1785  23.950   9.363   2.145
36526W        W 1786   9.700  39.557   4.034
36527W        W 1787  32.942  19.852   2.728
36528W        W 1788  37.901  41.083  13.549
36529W        W 1789   9.935  14.667   1.889
36530W        W 1790   9.957  24.811   2.343
36531W        W 1791  39.407   9.378   3.182
36532W        W 1792  23.963  16.728  11.215
36533W        W 1793   2.372   5.823   0.233
36534W        W 1794  29.925  36.853   0.931
36535W        W 1795   5.418  40.255  12.916
36536W        W 1796  26.649  12.102  14.363
36537W        W 1797  44.010  36.328   3.277
36538W        W 1798  13.076   5.279  11.903
36539W        W 1799  12.689   8.681  13.964
36540W        W 1800  36.764  21.217  13.641
36541W        W 1801  29.211  42.502   3.242
36542W        W 1802   5.182   3.163   1.117
36543W        W 1803   1.674  38.953   1.167
36544W        W 1804  11.464   0.533   4.666
36545W        W 1805   0.284  12.807   2.862
36546W        W 1806  11.083  44.934   4.351
36547W        W 1807   5.286   6.995   2.234
36548W        W 1808   9.326   9.421  14.286
36549W        W 1809   9.845  32.133   4.602
36550W        W 1810  34.520  25.174   9.745
36551W        W 1811  42.252   3.944  10.786
36552W        W 1812  33.809  42.734  12.235
36553W        W 1813   4.506   6.833   1.345
36554W        W 1814   4.348  15.698  14.770
36555W        W 1815  44.004  19.556   3.850
36556W        W 1816  28.497  27.070   4.499
36557W        W 1817   8.327  31.328  10.994
36558W        W 1818  30.545   8.912   3.172
36559W        W 1819   2.342  22.522  12.848
36560W        W 1820   0.158   2.267  13.310
36561W        W 1821  22.283   7.769   3.340
36562W        W 1822  23.122   2.258  14.357
36563W        W 1823  29.923  32.429  11.146
36564W        W 1824  22.708  34.487  11.542
36565W        W 1825  33.742  35.935   0.947
36566W        W 1826  32.005  42.784   0.215
36567W        W 1827  41.154   5.172  14.455
36568W        W 1828  21.030  24.903   3.202
36569W        W 1829  19.828   9.210   0.459
36570W        W 1830  39.409  26.207  11.603
36571W        W 1831  27.154  14.301  13.306
36572W        W 1832  26.045  44.363   1.869
36573W        W 1833   8.189  29.659   1.795
36574W        W 1834  18.375  18.722   4.150
36575W        W 1835  39.476  17.845  11.224
36576W        W 1836  36.595  42.497   2.227
36577W        W 1837  20.619   4.491  14.928
36578W        W 1838   4.289  24.749   3.209
36579W        W 1839  14.793  10.383   1.791
36580W        W 1840  18.153  13.319   4.332
36581W        W 1841  36.852  40.662  11.039
36582W        W 1842   8.698   9.305  13.553
36583W        W 1843  35.566  14.838  10.622
36584W        W 1844  13.017  11.208   0.220
36585W        W 1845  10.702   5.268   5.420
36586W        W 1846  29.243  36.040   1.762
36587W        W 1847   4.055  37.519  13.379
36588W        W 1848   6.026  12.877   0.217
36589W        W 1849  21.833  21.281   5.140
36590W        W 1850  27.759  21.034  13.446
36591W        W 1851   1.020  22.456   4.129
36592W        W 1852  23.872  37.151   0.663
36593W        W 1853   6.749  32.593  10.758
36594W        W 1854  29.095  38.655   4.193
36595W        W 1855  39.960   3.999   4.078
36596W        W 1856  33.565  10.157   3.615
36597W        W 1857  29.320  41.182   1.239
36598W        W 1858  10.825  24.383   2.394
36599W        W 1859  40.288   1.256   2.368
36600W        W 1860  44.230  21.961  14.878
36601W        W 1861   2.396  16.153  14.444
36602W        W 1862  24.836   8.346   4.925
36603W        W 1863  44.837   1.509   0.140
36604W        W 1864  35.676  12.263  14.439
36605W        W 1865  31.468  27.040  13.135
36606W        W 1866   8.330  44.311  10.388
36607W        W 1867  26.975  15.198  13.474
36608W        W 1868  19.677   9.354   4.921
36609W        W 1869  17.429   2.567  13.984
36610W        W 1870   5.319   8.669  11.294
36611W        W 1871   8.738  11.250   3.741
36612W        W 1872  36.086  21.859  10.821
36613W        W 1873  37.757  29.579   0.257
36614W        W 1874   3.158  35.382  13.372
36615W        W 1875   5.050  39.277  13.062
36616W        W 1876  33.058  40.342   4.108
36617W        W 1877  20.791  10.242  11.369
36618W        W 1878  25.025   3.309  11.433
36619W        W 1879   1.245   4.879  14.253
36620W        W 1880  20.019   9.118  13.864
36621W        W 1881  27.632  26.497  11.876
36622W        W 1882  18.280  15.809  14.308
36623W        W 1883  14.236  20.650   4.883
36624W        W 1884   9.449  32.313  14.760
36625W        W 1885  17.127  44.788  14.217
36626W        W 1886  24.672  19.990   1.203
36627W        W 1887  23.169  33.872   3.058
36628W        W 1888   3.882   3.913   3.877
36629W        W 1889  11.145  40.543  14.802
36630W        W 1890  24.070   2.916  13.997
36631W        W 1891  29.601  16.141   2.627
36632W        W 1892  42.926  42.789  14.997
36633W        W 1893  38.448  13.254  13.064
36634W        W 1894  14.182  42.959   2.217
36635W        W 1895  21.938  42.061  14.258
36636W        W 1896  18.939  40.901   4.517
36637W        W 1897  22.994  44.392   4.210
36638W        W 1898  25.998  30.918   4.739
36639W        W 1899  22.692   3.153  10.650
36640W        W 1900  31.185  25.682   0.308
36641W        W 1901  20.922  44.232  13.822
36642W        W 1902  22.969  25.566  13.580
36643W        W 1903   8.375  13.082  10.756
36644W        W 1904  24.052  27.061   1.657
36645W        W 1905  36.528   3.433  12.638
36646W        W 1906  15.797  26.659   2.183
36647W        W 1907  26.581  10.173  14.084
36648W        W 1908   7.814  24.499   1.780
36649W        W 1909  21.466  24.491   4.118
36650W        W 1910  42.787   5.358   0.317
36651W        W 1911  33.844  33.012  11.548
36652W        W 1912  39.534  24.167  13.053
36653W        W 1913  15.064   4.054   0.409
36654W        W 1914  27.769  36.438   2.530
36655W        W 1915  44.908   2.739  12.613
36656W        W 1916   4.350  12.135  12.516
36657W        W 1917  19.634  28.201  12.409
36658W        W 1918  27.525   0.979   2.051
36659W        W 1919  16.311  36.745   2.793
36660W        W 1920  27.157   7.866  13.293
36661W        W 1921  25.307  34.305   5.006
36662W        W 1922  12.849  19.123   0.045
36663W        W 1923   8.762  15.721   0.393
36664W        W 1924   6.456  11.122   3.915
36665W        W 1925  24.412   9.766  10.553
36666W        W 1926  24.547  23.843   4.901
36667W        W 1927  10.841  31.531  11.013
36668W        W 1928   7.185  39.073   0.279
36669W        W 1929  34.718  37.615  12.731
36670W        W 1930  23.827   6.016   0.493
36671W        W 1931  10.149  28.424  14.488
36672W        W 1932  12.320  27.184   4.660
36673W        W 1933  33.908  39.033  13.496
36674W        W 1934   3.991  22.716   0.722
36675W        W 1935  16.215  27.115   3.714
36676W        W 1936   9.052   4.655   3.748
36677W        W 1937  30.617  31.878   4.781
36678W        W 1938   6.945  41.669  10.752
36679W        W 1939  22.289  29.313  13.956
36680W        W 1940   4.655  38.367   2.226
36681W        W 1941  13.111  20.206   3.213
36682W        W 1942  30.604  26.663   3.285
36683W        W 1943  29.602  28.243   1.831
36684W        W 1944   3.443   4.398   0.346
36685W        W 1945  22.194  14.038  11.056
36686W        W 1946   2.319  44.872   3.146
36687W        W 1947   4.010   2.456  10.876
36688W        W 1948   3.201  21.700   0.012
36689W        W 1949  20.540  16.133   3.539
36690W        W 1950  34.064   6.172   3.383
36691W        W 1951  30.903  15.258   3.246
36692W        W 1952  41.040  13.782  13.444
36693W        W 1953  33.366  36.255  14.765
36694W        W 1954  14.597  12.596   1.764
36695W        W 1955  24.403  33.635   2.596
36696W        W 1956   6.155  38.538  14.773
36697W        W 1957  38.161  42.502   0.785
36698W        W 1958  31.064  40.883   1.898
36699W        W 1959  11.243   9.581  14.891
36700W        W 1960  16.555   1.457  13.831
36701W        W 1961  13.665  23.528   1.777
36702W        W 1962   6.826  26.692   0.926
36703W        W 1963  28.573  41.871   3.791
36704W        W 1964  33.106  41.043  13.231
36705W        W 1965  30.925   1.670  13.970
36706W        W 1966  23.353  23.947   3.681
36707W        W 1967  34.716  34.066  10.276
36708W        W 1968  44.633  35.577  10.784
36709W        W 1969   8.571   8.288  12.439
36710W        W 1970   9.486  27.137   2.216
36711W        W 1971  20.836  19.246   2.842
36712W        W 1972   0.142  17.075  13.273
36713W        W 1973  25.285  35.993  14.474
36714W        W 1974  19.896  38.477  10.198
36715W        W 1975  33.422  11.180  14.013
36716W        W 1976  25.700  37.416   0.514
36717W        W 1977  28.909  20.530  10.898
36718W        W 1978  44.526   5.617  12.145
36719W        W 1979  26.572  41.978   4.140
36720W        W 1980   9.447  34.471  13.724
36721W        W 1981  13.409  40.773  11.343
36722W        W 1982  25.937  19.741  12.908
36723W        W 1983  18.569  40.261  11.077
36724W        W 1984  38.581  21.126   3.678
36725W        W 1985  20.558  12.743  12.058
36726W        W 1986   5.885  11.048   4.585
36727W        W 1987  28.988  19.696  14.588
36728W        W 1988  39.467  16.227   1.059
36729W        W 1989  30.284   5.456   0.649
36730W        W 1990  34.494  43.789  14.271
36731W        W 1991  20.076  11.351   1.378
36732W        W 1992  37.102  11.742   0.256
36733W        W 1993  36.597  43.340  12.517
36734W        W 1994   8.808  22.735  14.239
36735W        W 1995  17.753  25.585   3.464
36736W        W 1996  39.990  29.413  10.699
36737W        W 1997  19.046  18.731  14.940
36738W        W 1998  13.675  10.165  14.425
36739W        W 1999   7.864  36.357  12.525
36740W        W 2000  36.798  34.463  11.127
36741W        W 2001  13.168  32.845  10.657
36742W        W 2002  30.678  19.169  11.271
36743W        W 2003  43.464  12.672   0.836
36744W        W 2004  35.906  44.890   0.317
36745W        W 2005  21.010  40.120  11.943
36746W        W 2006   9.322  32.927  10.319
36747W        W 2007   3.981  12.135   2.845
36748W        W 2008   5.256  43.747   0.713
36749W        W 2009  21.228   8.845   1.778
36750W        W 2010  23.739  25.431  14.017
36751W        W 2011   2.368  35.607  13.840
36752W        W 2012  27.278   8.295  12.503
36753W        W 2013  22.076   5.478   3.260
36754W        W 2014  25.496  18.057  13.512
36755W        W 2015  28.214  39.918  13.750
36756W        W 2016  16.691   8.216   3.134
36757W        W 2017  12.630  38.549   1.769
36758W        W 2018   1.448  36.113  12.020
36759W        W 2019   7.449  20.135  12.563
36760W        W 2020   7.883  23.470   2.002
36761W        W 2021  42.226  44.339  12.556
36762W        W 2022   8.070   1.204  13.085
36763W        W 2023  33.388  36.105   4.259
36764W        W 2024  15.838  43.021   4.524
36765W        W 2025  23.706  23.039  11.584
36766W        W 2026  39.787  11.867  11.487
36767W        W 2027  10.907   9.104   4.042
36768W        W 2028  41.858  25.038  10.320
36769W        W 2029   8.137   4.275   1.853
36770W        W 2030  27.946  23.109  13.542
36771W        W 2031  10.300  27.558   2.273
36772W        W 2032   1.508  42.610  10.630
36773W        W 2033  10.109  32.450   1.158
36774W        W 2034  15.737  15.246   1.694
36775W        W 2035   4.807  14.137  10.349
36776W        W 2036   7.271  29.389  10.691
36777W        W 2037  17.434   7.523   2.018
36778W        W 2038  32.444  34.410  14.901
36779W        W 2039  17.151   7.863   4.600
36780W        W 2040   1.835  36.889   2.054
36781W        W 2041  33.904  22.700   2.322
36782W        W 2042  34.975  25.898  13.691
36783W        W 2043   4.215  16.095  12.492
36784W        W 2044  41.151  23.900  11.606
36785W        W 2045  39.789  41.998  11.529
36786W        W 2046  39.066   9.892   2.085
36787W        W 2047  43.716  26.047  14.608
36788W        W 2048  27.639  23.626  13.156
36789W        W 2049  17.102  28.496  12.893
36790W        W 2050  10.345  26.245   2.279
36791W        W 2051  32.614   5.772  14.715
36792W        W 2052  25.678   1.969  11.544
36793W        W 2053  28.109  42.716   4.099
36794W        W 2054  17.650  44.756  14.315
36795W        W 2055  10.308  17.038  11.114
36796W        W 2056  32.384  36.271  10.964
36797W        W 2057  41.925  36.590   1.352
36798W        W 2058  30.250  37.735   3.806
36799W        W 2059  12.056  33.046  11.194
36800W        W 2060  37.530  31.244  11.165
36801W        W 2061  34.555   7.537   4.350
36802W        W 2062  37.437  40.306  13.503
36803W        W 2063  44.382  41.477   1.188
36804W        W 2064  33.992  44.900   3.101
36805W        W 2065   9.756  42.444   1.676
36806W        W 2066  16.413  10.966   3.333
36807W        W 2067  20.482  16.223   2.207
36808W        W 2068  31.850  30.364   5.458
36809W        W 2069  12.673  16.100  10.577
36810W        W 2070  27.406  17.218  13.769
36811W        W 2071  24.604  23.426   4.536
36812W        W 2072  30.483  39.441   0.740
36813W        W 2073  12.577  44.771   4.793
36814W        W 2074  44.188  11.012   4.182
36815W        W 2075  40.358  20.158   0.322
36816W        W 2076  22.637  30.768   4.451
36817W        W 2077   9.675  25.057   4.473
36818W        W 2078  24.685   6.905  14.835
36819W        W 2079  26.499   1.454  13.099
36820W        W 2080  32.943  43.918  12.096
36821W        W 2081  14.618  21.670   0.981
36822W        W 2082   4.207  15.191   2.022
36823W        W 2083  23.963  38.747  10.271
36824W        W 2084   3.776  10.880  12.905
36825W        W 2085   4.924  18.813   4.132
36826W        W 2086  41.915  37.101   1.602
36827W        W 2087  12.434  24.175   3.308
36828W        W 2088  42.320  38.010  13.710
36829W        W 2089  23.972  12.242   2.358
36830W        W 2090  37.293  39.323  13.264
36831W        W 2091  13.830  29.991   3.121
36832W        W 2092  13.826  17.280   1.357
36833W        W 2093  15.787  38.828   1.980
36834W        W 2094  27.592  27.227   3.256
36835W        W 2095  20.874  25.649  12.418
36836W        W 2096  18.778  30.453   1.385
36837W        W 2097  41.644  39.101   2.531
36838W        W 2098  19.012   4.449   0.320
36839W        W 2099   7.268  18.063   4.013
36840W        W 2100   3.249  24.411   4.075
36841W        W 2101   5.930  28.702  11.090
36842W        W 2102  21.716  25.316  14.375
36843W        W 2103  24.586   1.772  11.065
36844W        W 2104  12.680  32.153   0.511
36845W        W 2105  16.212   4.965   1.785
36846W        W 2106   6.416   3.251   3.640
36847W        W 2107  44.002  38.307   4.289
36848W        W 2108  35.634  24.646  14.935
36849W        W 2109  13.450  14.032   3.231
36850W        W 2110  42.244  35.398  11.261
36851W        W 2111  44.789  15.397   4.601
36852W        W 2112  38.360  36.077  13.434
36853W        W 2113  40.145   9.949   0.929
36854W        W 2114  11.728  18.298  14.976
36855W        W 2115  20.091  33.571  13.590
36856W        W 2116  18.237  19.632  12.410
36857W        W 2117  42.220  26.672   0.453
36858W        W 2118  42.300  16.161   2.437
36859W        W 2119   5.162  24.684   3.097
36860W        W 2120   8.131  21.512   3.153
36861W        W 2121  21.959  29.721  13.468
36862W        W 2122  36.966  43.820  10.960
36863W        W 2123   8.944  17.300   0.454
36864W        W 2124  12.861  34.588  10.525
36865W        W 2125  44.503  25.670   2.548
36866W        W 2126  28.983  23.538  13.382
36867W        W 2127   7.017  28.268   1.032
36868W        W 2128  10.321  38.539  12.084
36869W        W 2129  27.696  18.698   1.226
36870W        W 2130   9.839  12.814  14.861
36871W        W 2131   4.164  40.571   4.197
36872W        W 2132  12.255  23.168  13.971
36873W        W 2133   0.494  15.560  12.069
36874W        W 2134   2.307  40.624  10.843
36875W        W 2135  12.580  35.859   3.158
36876W        W 2136  34.740   5.703   3.295
36877W        W 2137  25.268  35.439   4.565
36878W        W 2138  28.624  22.166   1.695
36879W        W 2139  22.989  43.578   2.778
36880W        W 2140   1.958  44.747  14.395
36881W        W 2141  31.447  27.916   1.880
36882W        W 2142  27.887  15.008  13.541
36883W        W 2143  29.895  12.858  11.573
36884W        W 2144  37.306  32.883   3.566
36885W        W 2145  23.486  27.783  12.385
36886W        W 2146   4.947  12.188   4.825
36887W        W 2147  21.848  33.562  12.482
36888W        W 2148   6.196  13.833   0.776
36889W        W 2149  42.750   3.883  14.292
36890W        W 2150   9.981  32.284  10.126
36891W        W 2151  11.367   3.707  12.641
36892W        W 2152  40.545  32.350   0.872
36893W        W 2153  24.939   2.186  12.651
36894W        W 2154   8.312  32.112   2.803
36895W        W 2155  15.703   6.320  12.630
36896W        W 2156   7.933  15.610  10.924
36897W        W 2157   5.984  28.610   3.565
36898W        W 2158  15.309  25.037  13.495
36899W        W 2159  26.379   8.137  13.322
36900W        W 2160   0.470  21.104  14.329
36901W        W 2161  16.669  34.455  12.104
36902W        W 2162  38.236   3.600   0.344
36903W        W 2163  42.030  10.799   0.647
36904W        W 2164   1.430  15.994  10.619
36905W        W 2165  43.396  26.410   2.309
36906W        W 2166  40.351  40.988  13.441
36907W        W 2167  12.793  19.749   2.281
36908W        W 2168  16.313  42.889   4.390
36909W        W 2169  29.432  28.962  12.179
36910W        W 2170  19.021  13.257   2.152
36911W        W 2171   0.292  14.759   4.073
36912W        W 2172   1.435  14.715  12.375
36913W        W 2173  25.592  16.533   3.723
36914W        W 2174  11.209  35.080  13.916
36915W        W 2175  26.131  10.895   4.454
36916W        W 2176  23.539  25.249  14.465
36917W        W 2177   5.961   0.953   0.904
36918W        W 2178  30.948  36.045   1.410
36919W        W 2179  23.721   8.411   0.450
36920W        W 2180  26.870  37.984  11.157
36921W        W 2181  42.886   0.260  14.027
36922W        W 2182  28.497  42.478  14.559
36923W        W 2183  27.472  41.255  14.241
36924W        W 2184  26.171  25.673  12.103
36925W        W 2185  44.253  44.524  13.488
36926W        W 2186  17.725  24.727  12.132
36927W        W 2187  19.763  21.154  14.322
36928W        W 2188   0.956   2.789  12.529
36929W        W 2189   3.389  39.206  10.647
36930W        W 2190  12.281  15.031   3.223
36931W        W 2191  16.424  13.293  14.832
36932W        W 2192   0.327  17.240  10.963
36933W        W 2193  36.189  19.728   4.373
36934W        W 2194  35.369  24.545  14.508
36935W        W 2195  42.289  31.417   4.588
36936W        W 2196  38.282  26.961  13.330
36937W        W 2197  17.172   5.519   1.839
36938W        W 2198   9.292  30.376   4.058
36939W        W 2199   6.750  10.160   0.292
36940W        W 2200  30.611   5.368   1.463
36941W        W 2201   8.427  40.866  12.219
36942W        W 2202  12.354   0.206  14.907
36943W        W 2203  21.495  14.733   5.032
36944W        W 2204  37.300  31.103   1.827
36945W        W 2205  26.027  31.711   1.149
36946W        W 2206  12.333   3.001  10.740
36947W        W 2207  33.335  21.564   3.100
36948W        W 2208   1.717   2.127  12.543
36949W        W 2209  18.560   2.856   1.945
36950W        W 2210   9.995  32.574  11.885
36951W        W 2211  14.712  26.569   2.713
36952W        W 2212  19.724  32.962   4.389
36953W        W 2213  29.073  34.067   0.323
36954W        W 2214  16.524  25.009  12.970
36955W        W 2215  20.008  13.156  11.505
36956W        W 2216  17.688  36.378   2.387
36957W        W 2217   0.060  15.596   2.756
36958W        W 2218  12.773  20.768  13.689
36959W        W 2219  31.139  11.525   2.147
36960W        W 2220   0.551  17.056   2.891
36961W        W 2221   0.407  40.280  12.410
36962W        W 2222   0.120  10.049   2.442
36963W        W 2223  24.252  42.015  12.567
36964W        W 2224   5.249  21.158  13.428
36965W        W 2225  39.259  24.814  12.577
36966W        W 2226  43.781  23.974  13.984
36967W        W 2227  31.941  12.831   3.154
36968W        W 2228   3.353  10.544   5.052
36969W        W 2229  17.061  40.824   1.859
36970W        W 2230  32.833   6.390  11.066
36971W        W 2231  34.760  44.933  11.693
36972W        W 2232   0.140  37.505   3.111
36973W        W 2233  17.550  10.823   3.674
36974W        W 2234   7.885  38.150  13.140
36975W        W 2235  38.376   7.503   0.282
36976W        W 2236   3.696   8.257  10.591
36977W        W 2237  29.378   8.634  13.284
36978W        W 2238   3.040  16.270   2.852
36979W        W 2239  38.119  44.234  12.142
36980W        W 2240  16.886  17.784  10.609
36981W        W 2241  31.590  41.532   1.679
36982W        W 2242  34.435  26.221  12.870
36983W        W 2243  39.570  26.191   3.741
36984W        W 2244  34.339  24.201  14.843
36985W        W 2245  40.283  25.145   1.307
36986W        W 2246  23.540  36.142   0.892
36987W        W 2247  38.465  34.842  13.742
36988W        W 2248  31.626  44.577  14.233
36989W        W 2249  35.961  44.981  14.784
36990W        W 2250  21.442   6.144   1.748
36991W        W 2251   6.593  40.714   1.947
36992W        W 2252  17.170   8.694  14.436
36993W        W 2253  17.261   5.452  13.055
36994W        W 2254  41.845  39.029  11.062
36995W        W 2255   3.497  35.554  12.518
36996W        W 2256   3.347  34.856   4.537
36997W        W 2257  11.913  15.674   4.813
36998W        W 2258  34.900  19.691   3.130
36999W        W 2259  17.393  21.461  11.707
37000W        W 2260  18.036  31.848  10.268
37001W        W 2261  40.776  17.779  12.547
37002W        W 2262   8.711  42.403   2.115
37003W        W 2263  24.934  30.586  11.398
37004W        W 2264  41.295  10.734  10.987
37005W        W 2265  22.163  39.462   3.203
37006W        W 2266  33.559  43.937   4.584
37007W        W 2267   7.405  30.967   0.304
37008W        W 2268  11.243  28.670   3.213
37009W        W 2269  24.464  32.281  11.472
37010W        W 2270   0.111  37.962   1.783
37011W        W 2271  28.684  20.699   3.650
37012W        W 2272  22.401  35.161  10.999
37013W        W 2273  30.373  33.597   2.819
37014W        W 2274  34.603  29.095  12.900
37015W        W 2275  30.950  19.787  14.875
37016W        W 2276  43.051   4.653   1.334
37017W        W 2277  43.738   8.629  13.493
37018W        W 2278  33.792  34.871  10.397
37019W        W 2279  33.001   1.869  14.996
37020W        W 2280  21.272  32.366   0.327
37021W        W 2281  14.578  32.352  11.141
37022W        W 2282  20.261  38.702   0.740
37023W        W 2283  17.146  40.401  13.926
37024W        W 2284   7.258  22.259  11.602
37025W        W 2285  41.484   7.335   3.468
37026W        W 2286  12.469   9.393  11.483
37027W        W 2287  35.972  38.414   1.227
37028W        W 2288   4.783  33.835   3.320
37029W        W 2289  42.752  22.136  12.218
37030W        W 2290   3.706  29.247   0.536
37031W        W 2291  28.489  33.413  11.729
37032W        W 2292  42.033  15.452  12.946
37033W        W 2293  30.462  36.940  12.441
37034W        W 2294  28.507   4.516   2.768
37035W        W 2295  37.305  28.340   3.283
37036W        W 2296   9.700  40.473  14.021
37037W        W 2297  22.790  22.323  13.352
37038W        W 2298   3.667  28.166   1.289
37039W        W 2299   9.712  10.756   1.990
37040W        W 2300  11.849  26.134  10.710
37041W        W 2301   4.235   0.524  10.603
37042W        W 2302  21.575  12.679   4.590
37043W        W 2303   9.696   2.332   3.626
37044W        W 2304  17.063  34.136   0.353
37045W        W 2305  29.999   6.778   2.914
37046W        W 2306  14.205  39.848  11.132
37047W        W 2307  28.872  26.044  14.446
37048W        W 2308  20.783  19.109  13.294
37049W        W 2309  13.053  36.007  10.675
37050W        W 2310  30.127  36.093  13.348
37051W        W 2311  36.575   6.369   4.623
37052W        W 2312  40.991  28.971   1.411
37053W        W 2313  26.537  27.633  14.781
37054W        W 2314  16.088  25.411   0.269
37055W        W 2315  39.269  37.891  11.373
37056W        W 2316  21.942   7.834  14.474
37057W        W 2317  38.915  36.911  14.309
37058W        W 2318  29.562   9.721   2.232
37059W        W 2319  42.339  33.096  14.642
37060W        W 2320  30.543   6.432   2.222
37061W        W 2321   2.044   8.250  11.954
37062W        W 2322  31.790  15.352  12.529
37063W        W 2323   9.646  35.551   2.135
37064W        W 2324  20.693  37.059   1.525
37065W        W 2325  40.071   6.823  13.191
37066W        W 2326  36.399   6.495  14.051
37067W        W 2327  16.803   2.787  14.793
37068W        W 2328  35.583   3.061   2.677
37069W        W 2329   7.889   7.619   1.024
37070W        W 2330  29.303  17.864   1.417
37071W        W 2331   8.473  36.497   0.009
37072W        W 2332   1.340  44.783  12.042
37073W        W 2333  15.056  17.792   2.359
37074W        W 2334  12.105  32.511   4.585
37075W        W 2335  16.483  12.095   0.338
37076W        W 2336  12.241  27.689   0.291
37077W        W 2337  16.970  41.127   3.660
37078W        W 2338  14.072  40.398   1.465
37079W        W 2339  26.220  30.033   2.906
37080W        W 2340  37.757  28.469   1.720
37081W        W 2341  27.627  27.394   1.993
37082W        W 2342  36.252  41.118   4.934
37083W        W 2343  12.138  40.869  14.476
37084W        W 2344  37.529  12.137   1.446
37085W        W 2345  24.128  35.935   1.302
37086W        W 2346  36.683   2.046  13.486
37087W        W 2347  26.829  17.800   5.030
37088W        W 2348   8.807   7.396   5.021
37089W        W 2349   6.596   7.598   1.719
37090W        W 2350  25.119  18.105   3.288
37091W        W 2351  21.121  12.047  14.847
37092W        W 2352  11.668  29.705  11.483
37093W        W 2353  39.067  34.302   0.419
37094W        W 2354   5.188  27.000  12.420
37095W        W 2355   7.957   7.153   0.062
37096W        W 2356  43.036  34.939  11.881
37097W        W 2357  42.887  20.547  12.143
37098W        W 2358  27.453  12.132  12.910
37099W        W 2359  28.491   1.832   4.256
37100W        W 2360  22.685  15.833  13.445
37101W        W 2361  27.754  20.136   4.050
37102W        W 2362  39.913  22.274  13.260
37103W        W 2363   0.726  42.996   5.299
37104W        W 2364  29.520  18.035   0.931
37105W        W 2365  11.686  38.494  10.981
37106W        W 2366  44.553  18.757   5.093
37107W        W 2367   5.244  17.104   3.342
37108W        W 2368  14.777  31.843   2.936
37109W        W 2369  15.823  27.084   1.301
37110W        W 2370  29.654  14.356  12.818
37111W        W 2371  25.993  36.070   4.170
37112W        W 2372  28.776   0.686   2.832
37113W        W 2373  43.935  44.968  11.466
37114W        W 2374  28.784   0.809   1.478
37115W        W 2375   0.675  24.747  13.892
37116W        W 2376  20.685  26.701   0.797
37117W        W 2377  34.628  32.894  12.925
37118W        W 2378  11.343   2.672   3.636
37119W        W 2379  43.794  42.776  13.868
37120W        W 2380  34.860  33.682   9.923
37121W        W 2381  40.809   2.827   5.515
37122W        W 2382  31.430  30.205   4.611
37123W        W 2383  23.960  44.890  13.506
37124W        W 2384  28.239   6.891  11.405
37125W        W 2385  43.795  32.703   4.567
37126W        W 2386  28.016   5.456   3.895
37127W        W 2387  44.897   7.830   0.253
37128W        W 2388  25.570  39.419  11.574
37129W        W 2389  30.517  32.586   4.230
37130W        W 2390   0.743   1.342   0.692
37131W        W 2391  22.629   7.381  14.352
37132W        W 2392  30.212  12.281   0.366
37133W        W 2393  16.253  18.172  11.532
37134W        W 2394  24.542   7.313  11.124
37135W        W 2395   1.320  43.616   1.388
37136W        W 2396  28.641   1.180   2.787
37137W        W 2397  41.467  38.088  14.710
37138W        W 2398  17.611  17.070  12.542
37139W        W 2399  17.824  44.957   1.448
37140W        W 2400  13.177   4.902   1.346
37141W        W 2401  23.964  26.081   3.778
37142W        W 2402   9.103  29.387   4.292
37143W        W 2403  29.833   8.564  11.209
37144W        W 2404  22.641  17.987   9.800
37145W        W 2405  27.912  12.903   3.738
37146W        W 2406  19.035  32.187   4.831
37147W        W 2407  18.322  44.801  14.458
37148W        W 2408  20.523  40.895  13.298
37149W        W 2409  41.640  39.078  12.971
37150W        W 2410   2.486  11.285   5.501
37151W        W 2411  33.160  30.913   3.556
37152W        W 2412  26.073  29.818   0.425
37153W        W 2413  27.176  18.692  12.931
37154W        W 2414  18.521  30.619  11.052
37155W        W 2415   7.772   9.179  11.623
37156W        W 2416  20.971  30.111   4.243
37157W        W 2417  27.478  37.537  13.425
37158W        W 2418   2.768  11.355   2.595
37159W        W 2419  23.710   6.795   4.128
37160W        W 2420  14.891  28.356   0.930
37161W        W 2421   3.039  35.048   0.994
37162W        W 2422  25.426  13.800  13.446
37163W        W 2423  31.826  15.119   2.654
37164W        W 2424  34.982  40.594  13.093
37165W        W 2425  31.770  28.494  10.633
37166W        W 2426  42.509  18.854  13.555
37167W        W 2427   9.158   7.393   2.320
37168W        W 2428  21.113  10.589   2.733
37169W        W 2429  32.962  38.026  11.876
37170W        W 2430  24.230   3.417   0.326
37171W        W 2431  42.560  30.582  12.834
37172W        W 2432  31.371  41.034   2.734
37173W        W 2433   0.970  25.162  12.132
37174W        W 2434  19.058  29.996  11.495
37175W        W 2435  13.089  26.656  11.495
37176W        W 2436  36.619   8.884  14.479
37177W        W 2437  38.936  16.069   0.934
37178W        W 2438  28.643  38.679  11.969
37179W        W 2439  31.676  16.837  10.833
37180W        W 2440  32.550  36.606   2.658
37181W        W 2441  35.540  36.064  13.074
37182W        W 2442  20.672  22.125  14.632
37183W        W 2443  37.916  21.769   3.330
37184W        W 2444  40.342  31.964   2.604
37185W        W 2445   6.709  26.402  11.100
37186W        W 2446   9.503  11.341   3.490
37187W        W 2447  25.064  25.661   2.779
37188W        W 2448  19.137  17.036   0.440
37189W        W 2449  11.990  31.109  11.119
37190W        W 2450  32.041  40.444  13.879
37191W        W 2451  10.087  33.092  13.002
37192W        W 2452  26.726  44.419   3.587
37193W        W 2453  15.080  29.145  11.872
37194W        W 2454  29.969  14.077   3.603
37195W        W 2455  26.522   8.352   4.710
37196W        W 2456  29.163   3.730  12.770
37197W        W 2457  44.608  33.053  11.045
37198W        W 2458   3.705  10.248  13.523
37199W        W 2459   8.292  21.553   0.357
37200W        W 2460  30.259   1.377  10.970
37201W        W 2461  25.033   0.361  12.158
37202W        W 2462   4.325  15.253   4.075
37203W        W 2463  20.720   5.663  13.483
37204W        W 2464  21.674   6.377   4.433
37205W        W 2465   5.263  25.148   1.287
37206W        W 2466  36.903  26.614  13.193
37207W        W 2467  20.803   7.197  10.932
37208W        W 2468   2.922  15.060   0.314
37209W        W 2469  22.709  34.100   3.159
37210W        W 2470  33.367  41.460  13.102
37211W        W 2471  15.361  33.340  12.497
37212W        W 2472  27.642  41.104   3.224
37213W        W 2473  22.085  15.204   3.675
37214W        W 2474  40.195  35.836   0.282
37215W        W 2475  38.865   9.476   2.874
37216W        W 2476  34.942  40.438   2.856
37217W        W 2477  30.530  12.713   1.637
37218W        W 2478  30.500  22.473   0.861
37219W        W 2479  27.173  43.019   1.433
37220W        W 2480  22.436  42.942   1.125
37221W        W 2481  25.628   1.355  11.958
37222W        W 2482   4.850  20.042  10.303
37223W        W 2483  44.442  24.993   2.223
37224W        W 2484   4.169   2.964  10.933
37225W        W 2485  26.934  29.271   0.219
37226W        W 2486   0.478  37.416  12.517
37227W        W 2487  42.819  26.671   0.769
37228W        W 2488  42.691  36.516  13.076
37229W        W 2489  32.657  11.691  12.492
37230W        W 2490  12.451  39.818   1.299
37231W        W 2491  25.512  10.391   4.065
37232W        W 2492   0.664  37.999   0.799
37233W        W 2493  33.343  32.883  14.415
37234W        W 2494  20.737  41.792   4.810
37235W        W 2495  36.535   1.193  14.943
37236W        W 2496   7.134  11.656  11.825
37237W        W 2497  35.541  18.639  13.456
37238W        W 2498  19.014  27.296   3.137
37239W        W 2499  35.474  43.360  14.918
37240W        W 2500   3.974   5.596   1.319
37241W        W 2501  35.202  30.141   1.344
37242W        W 2502  19.825   6.985  10.297
37243W        W 2503   9.637   9.844   1.535
37244W        W 2504  30.071  15.338  11.970
37245W        W 2505  43.329   6.273  14.954
37246W        W 2506  44.526  44.543   9.934
37247W        W 2507  36.002  37.069   4.603
37248W        W 2508   4.283   7.233   4.689
37249W        W 2509  33.481  19.525  12.351
37250W        W 2510  34.081  33.041  12.012
37251W        W 2511  38.834  37.036   0.714
37252W        W 2512  40.400  22.084   0.766
37253W        W 2513  32.960   6.640  14.387
37254W        W 2514   1.710  14.564  11.235
37255W        W 2515  41.890  38.745   2.854
37256W        W 2516   9.283  41.645  13.552
37257W        W 2517  19.664  44.885  13.886
37258W        W 2518  44.451  12.817   0.985
37259W        W 2519  39.608   9.246   0.384
37260W        W 2520   1.051  28.584  10.970
37261W        W 2521  38.781  34.868  10.655
37262W        W 2522  44.399  32.707   3.607
37263W        W 2523  27.987  18.928   1.589
37264W        W 2524  42.799  19.391   1.701
37265W        W 2525  28.487  24.624  10.469
37266W        W 2526  34.606  42.096   3.207
37267W        W 2527  32.909  11.234  13.939
37268W        W 2528  18.995  41.882   2.363
37269W        W 2529  41.633  23.640  12.406
37270W        W 2530  34.256  42.815  12.023
37271W        W 2531  44.492  30.168   4.832
37272W        W 2532   0.903  31.780  14.887
37273W        W 2533  33.338  43.888   4.126
37274W        W 2534   5.073  26.144  12.472
37275W        W 2535  23.986  36.347   2.716
37276W        W 2536   5.571  15.786  14.316
37277W        W 2537  30.440  28.706   3.305
37278W        W 2538  19.151  34.882   3.886
37279W        W 2539  19.780  18.695   0.443
37280W        W 2540   3.563   6.735   4.747
37281W        W 2541  43.304  44.787  12.571
37282W        W 2542  40.876  20.660   4.597
37283W        W 2543  30.023  37.419  14.354
37284W        W 2544  31.863   9.128  12.935
37285W        W 2545  26.940  17.157   2.785
37286W        W 2546   0.991  31.788  12.648
37287W        W 2547  43.260  18.731   3.789
37288W        W 2548  22.972  39.441   3.651
37289W        W 2549  14.971  44.407  13.153
37290W        W 2550  13.211  32.894   3.692
37291W        W 2551  35.520  35.149  10.529
37292W        W 2552  21.210  21.965   4.423
37293W        W 2553  36.728  11.954   3.589
37294W        W 2554   3.332  20.537   2.092
37295W        W 2555  11.120   2.351  13.189
37296W        W 2556  13.012  42.435  13.039
37297W        W 2557  10.246  19.987  13.933
37298W        W 2558  24.485  28.828  11.479
37299W        W 2559  13.910  44.002  14.640
37300W        W 2560  22.610   0.985   2.823
37301W        W 2561  15.363  22.840  10.794
37302W        W 2562  30.049  42.555   0.272
37303W        W 2563   3.409  16.583   0.827
37304W        W 2564  42.491  40.128   0.311
37305W        W 2565   1.140  32.690   4.634
37306W        W 2566   6.012  36.500  12.683
37307W        W 2567   9.942   9.920  12.538
37308W        W 2568   5.310  27.268  11.999
37309W        W 2569  13.386  29.031   0.852
37310W        W 2570  17.058  22.297   0.912
37311W        W 2571  24.097  42.933   3.399
37312W        W 2572  40.739  19.436   1.446
37313W        W 2573  10.982  14.877   2.774
37314W        W 2574  42.427  17.784  13.937
37315W        W 2575  30.324  17.209  11.080
37316W        W 2576  19.036  34.998  13.585
37317W        W 2577  10.425  19.477   4.079
37318W        W 2578  32.080  25.210   1.830
37319W        W 2579   8.593  34.321  12.945
37320W        W 2580  17.067  16.329  14.047
37321W        W 2581  43.754  35.548   3.717
37322W        W 2582  32.493  13.634   3.196
37323W        W 2583  12.876  42.894  12.868
37324W        W 2584  15.812   9.930  10.682
37325W        W 2585  24.641  39.019   3.705
37326W        W 2586  27.895  31.993   1.609
37327W        W 2587  19.013  38.000  13.520
37328W        W 2588   9.334   7.438   3.721
37329W        W 2589  10.861  24.920  11.949
37330W        W 2590  11.876  26.496  10.299
37331W        W 2591  33.386  37.021   4.083
37332W        W 2592   8.156   6.149   3.369
37333W        W 2593  36.305  35.354   3.036
37334W        W 2594  15.737  11.083   2.915
37335W        W 2595   0.825  43.800   1.353
37336W        W 2596  37.729  38.015   2.104
37337W        W 2597  26.079  18.446   2.635
37338W        W 2598   3.015  10.358  10.110
37339W        W 2599  10.658  35.038   0.470
37340W        W 2600  15.555  41.984   1.872
37341W        W 2601  37.258  18.390   4.842
37342W        W 2602   0.989   7.694  13.444
37343W        W 2603  23.642  41.492  12.324
37344W        W 2604  43.429  14.174   1.514
37345W        W 2605  14.335   5.817   1.061
37346W        W 2606  39.364  16.681   4.378
37347W        W 2607  24.431  36.925   2.640
37348W        W 2608   4.199  24.589  11.983
37349W        W 2609  16.609  28.910   1.427
37350W        W 2610   0.771  32.596  12.979
37351W        W 2611   5.249  35.090  12.989
37352W        W 2612  33.099  44.016   3.615
37353W        W 2613  38.428  11.759  13.973
37354W        W 2614  30.886  17.148   4.016
37355W        W 2615  13.654   1.702  12.919
37356W        W 2616   8.718  18.785   2.709
37357W        W 2617  12.810  35.861  13.392
37358W        W 2618  18.001   3.121  11.381
37359W        W 2619  24.348   6.034   3.094
37360W        W 2620  17.700  10.004  14.275
37361W        W 2621   4.472   4.136  13.567
37362W        W 2622   2.412  10.780  11.600
37363W        W 2623  40.294  14.859  14.085
37364W        W 2624   9.091  24.512   5.409
37365W        W 2625  29.847  27.914  13.944
37366W        W 2626  18.183  23.990   4.224
37367W        W 2627  25.014  37.395  11.892
37368W        W 2628  40.587   7.539   1.805
37369W        W 2629  31.015  28.565   0.963
37370W        W 2630  29.673  37.959   1.245
37371W        W 2631  41.395  32.597  13.404
37372W        W 2632  10.665  44.560  14.770
37373W        W 2633   4.964  27.893   1.636
37374W        W 2634  35.639   2.931   1.597
37375W        W 2635  20.537  16.165  10.742
37376W        W 2636  28.206  13.559  14.954
37377W        W 2637  12.689  20.463  12.859
37378W        W 2638  13.597  16.355  13.796
37379W        W 2639   3.796   1.008   2.348
37380W        W 2640  34.730  22.685   4.251
37381W        W 2641  22.505   1.277   4.938
37382W        W 2642   6.540  35.394  11.425
37383W        W 2643   7.313  39.055  12.921
37384W        W 2644  44.271  21.173  10.298
37385W        W 2645  28.538  19.512   3.384
37386W        W 2646  41.854  11.609  12.269
37387W        W 2647  25.704   1.188   0.758
37388W        W 2648  44.318  16.065   4.199
37389W        W 2649  35.209   3.867   0.862
37390W        W 2650  36.231  22.252  11.172
37391W        W 2651   1.180  30.899  14.962
37392W        W 2652  23.510  38.476  10.267
37393W        W 2653  22.240   1.070   4.106
37394W        W 2654  27.731   2.844   3.615
37395W        W 2655  23.759  30.379  14.784
37396W        W 2656  13.838  34.751   3.810
37397W        W 2657  18.174  36.692  14.975
37398W        W 2658  33.601  15.511  10.023
37399W        W 2659  18.109  24.423  14.911
37400W        W 2660  32.155  19.062   0.784
37401W        W 2661  19.349   1.822   4.556
37402W        W 2662  30.759  39.465  10.781
37403W        W 2663  38.165   0.246   1.878
37404W        W 2664  42.503  16.027  12.490
37405W        W 2665  10.053   5.982   1.674
37406W        W 2666  25.829  16.692  11.107
37407W        W 2667  23.979  24.444  11.369
37408W        W 2668  35.645   3.231   0.527
37409W        W 2669  22.735  28.101   4.679
37410W        W 2670   8.364   6.902  11.760
37411W        W 2671  31.514  34.043   4.653
37412W        W 2672  37.389  17.517   0.216
37413W        W 2673  44.496  20.054   4.800
37414W        W 2674  44.866  35.395  12.960
37415W        W 2675  39.610  44.667  13.063
37416W        W 2676   9.393  35.246   1.807
37417W        W 2677  25.629  34.446  12.038
37418W        W 2678  18.115  27.651   3.857
37419W        W 2679  33.438   1.253   0.758
37420W        W 2680  28.134  27.151  13.862
37421W        W 2681  19.156   9.937  14.581
37422W        W 2682  33.416  30.626  11.924
37423W        W 2683  35.241  35.969  11.051
37424W        W 2684   5.363  25.357  10.733
37425W        W 2685  23.123  17.999  13.942
37426W        W 2686  37.308  18.790  13.360
37427W        W 2687  11.238  37.476   3.657
37428W        W 2688  19.780  42.591  13.358
37429W        W 2689   2.437   5.659  10.465
37430W        W 2690   7.469  33.980   2.780
37431W        W 2691   6.389  36.149  11.273
37432W        W 2692  41.188  29.783   2.818
37433W        W 2693  19.529  27.986   0.318
37434W        W 2694  29.287  28.115  12.932
37435W        W 2695  10.109  19.840   2.193
37436W        W 2696  14.597  14.389   4.118
37437W        W 2697  10.390  36.652  11.557
37438W        W 2698  31.158  36.326  14.251
37439W        W 2699  22.157   8.125  14.860
37440W        W 2700  26.016  22.095  11.580
37441W        W 2701  35.541   9.701  14.434
37442W        W 2702  35.003  30.091  11.693
37443W        W 2703  29.545  37.009  14.279
37444W        W 2704   9.246   7.628   0.378
37445W        W 2705   3.905  10.252  10.837
37446W        W 2706  41.771   7.448   0.713
37447W        W 2707  26.706  43.154  10.780
37448W        W 2708  44.701  35.603  14.376
37449W        W 2709  36.898   9.777   4.595
37450W        W 2710  21.752  37.716   3.339
37451W        W 2711  40.075  18.283   2.239
37452W        W 2712  11.171  31.616   1.367
37453W        W 2713  40.767  26.090  13.337
37454W        W 2714  24.118   8.120   0.257
37455W        W 2715  43.532   0.866  11.746
37456W        W 2716  29.148  24.401   2.231
37457W        W 2717  11.345  14.670   4.045
37458W        W 2718  19.010  10.192   3.983
37459W        W 2719  10.381  18.261  10.618
37460W        W 2720  20.590  24.155  14.932
37461W        W 2721  11.186   3.326   2.835
37462W        W 2722  12.306  27.591   4.335
37463W        W 2723  19.659   9.440  11.995
37464W        W 2724  25.982  14.633  11.559
37465W        W 2725   3.667  19.704   4.270
37466W        W 2726  24.625   2.232   0.720
37467W        W 2727  12.134  13.810  13.587
37468W        W 2728  17.474  41.067  13.064
37469W        W 2729  42.937  38.025  13.164
37470W        W 2730  22.468  31.232  11.333
37471W        W 2731  34.408  43.106  14.764
37472W        W 2732  39.474   4.185  14.982
37473W        W 2733  13.947  37.199  12.627
37474W        W 2734   5.809  17.301   4.517
37475W        W 2735  40.406  31.625   4.335
37476W        W 2736  25.626  10.904   2.256
37477W        W 2737   9.889  27.688  11.934
37478W        W 2738  29.919  42.349  14.811
37479W        W 2739  13.167   4.371  12.433
37480W        W 2740  40.373  25.877  12.032
37481W        W 2741  39.080   1.265   0.820
37482W        W 2742   1.002   7.311  14.040
37483W        W 2743   4.161  25.793  11.569
37484W        W 2744  17.631   2.870   0.474
37485W        W 2745   9.877   0.785   1.700
37486W        W 2746  17.321   5.883  14.858
37487W        W 2747   8.118  15.614  12.811
37488W        W 2748  34.652  28.190   0.425
37489W        W 2749  38.268   8.401  12.536
37490W        W 2750   1.937  21.326   1.834
37491W        W 2751  14.506  25.335   1.701
37492W        W 2752   0.979   1.341   1.137
37493W        W 2753  28.804   5.410   0.741
37494W        W 2754  23.507   6.484  11.431
37495W        W 2755  37.575   8.088  11.187
37496W        W 2756   3.253  41.381   1.198
37497W        W 2757  15.120   7.977  13.160
37498W        W 2758  19.067   5.344   0.579
37499W        W 2759  44.161  23.276   1.753
37500W        W 2760   9.398   7.130  12.541
37501W        W 2761  14.948   1.302  10.606
37502W        W 2762  28.668   8.679  14.844
37503W        W 2763  34.050  16.817  12.520
37504W        W 2764  17.860  22.417   3.165
37505W        W 2765  12.162  27.149   9.718
37506W        W 2766   4.914  12.592   2.851
37507W        W 2767  28.911   5.843  12.908
37508W        W 2768  23.769   7.305  12.591
37509W        W 2769  24.181   8.553   9.738
37510W        W 2770   6.965  27.848   4.533
37511W        W 2771  17.800  17.870   4.211
37512W        W 2772  16.776   8.667   3.333
37513W        W 2773  14.716  12.200   2.660
37514W        W 2774  17.988  41.027   4.077
37515W        W 2775  19.760   7.403   3.631
37516W        W 2776  26.529  42.044   1.852
37517W        W 2777  12.956  31.079   4.287
37518W        W 2778  37.646   8.832   0.185
37519W        W 2779  26.180  25.008  10.512
37520W        W 2780   8.878  14.597  13.402
37521W        W 2781  42.862  24.501   1.285
37522W        W 2782  33.410   6.249   5.012
37523W        W 2783  18.962  31.928  10.682
37524W        W 2784   8.020   6.025  11.548
37525W        W 2785  42.970  44.958  13.580
37526W        W 2786  12.713  34.817  12.879
37527W        W 2787  40.197  14.222  11.971
37528W        W 2788   2.727  14.775  14.880
37529W        W 2789   2.313  43.421   0.187
37530W        W 2790   4.749   5.284   1.145
37531W        W 2791  22.980   6.599   3.969
37532W        W 2792  17.205  28.525  13.412
37533W        W 2793  36.619  31.948  12.049
37534W        W 2794   6.555  30.502   4.312
37535W        W 2795   8.224  15.374   4.144
37536W        W 2796   1.946  11.573  14.072
37537W        W 2797  10.248  35.501   3.617
37538W        W 2798  33.672  19.321   2.531
37539W        W 2799   1.174   2.349  10.623
37540W        W 2800   4.482   0.292   0.128
37541W        W 2801  23.485  43.816   3.740
37542W        W 2802  41.388   4.669  14.824
37543W        W 2803  26.277  20.362   0.679
37544W        W 2804   6.226  22.161   3.895
37545W        W 2805  32.623   1.781   4.128
37546W        W 2806  18.523   3.089   0.304
37547W        W 2807  31.569  26.495   0.926
37548W        W 2808  37.370   8.783  12.566
37549W        W 2809   9.155  26.204   1.078
37550W        W 2810  33.957   8.740  14.349
37551W        W 2811  16.738  30.845  12.863
37552W        W 2812  12.238  20.647  13.912
37553W        W 2813  16.077   9.162   2.510
37554W        W 2814   7.352  42.939   0.765
37555W        W 2815  32.243  14.282  14.342
37556W        W 2816  11.949  17.877   3.666
37557W        W 2817  43.349  32.513   2.115
37558W        W 2818  39.433  37.065  10.750
37559W        W 2819  13.084   6.949   2.893
37560W        W 2820  20.039  11.074   3.652
37561W        W 2821  44.809  19.745   0.356
37562W        W 2822  39.032   5.152  11.838
37563W        W 2823  22.578  18.571   1.325
37564W        W 2824  19.572  13.846   1.432
37565W        W 2825  43.950  27.253   5.353
37566W        W 2826  14.898  11.628  13.198
37567W        W 2827  31.038  35.801  12.059
37568W        W 2828  31.267   4.573   1.328
37569W        W 2829  15.298   3.696   0.141
37570W        W 2830  22.204  15.102  13.377
37571W        W 2831  14.098  30.016  11.589
37572W        W 2832  30.794   2.832   4.257
37573W        W 2833  39.103   4.440   2.893
37574W        W 2834  44.587  23.514  12.765
37575W        W 2835  37.137  22.940   2.233
37576W        W 2836  11.668  14.071  12.842
37577W        W 2837  37.450  28.011   1.659
37578W        W 2838   6.488   9.676   2.287
37579W        W 2839  26.055  14.515   2.751
37580W        W 2840  36.664  39.970  12.675
37581W        W 2841  14.836  43.490   1.701
37582W        W 2842  19.167  27.491   3.588
37583W        W 2843  25.974  36.030  12.840
37584W        W 2844  10.135  40.325   0.041
37585W        W 2845  22.573  14.049   0.264
37586W        W 2846  33.555  17.087   3.122
37587W        W 2847  44.111  14.064   0.534
37588W        W 2848   4.462   9.386   1.277
37589W        W 2849   7.775   7.941  14.561
37590W        W 2850   0.441  15.142  12.455
37591W        W 2851  37.107  37.916   1.242
37592W        W 2852  22.715   2.025   3.687
37593W        W 2853  24.468  33.587   2.075
37594W        W 2854  33.435  13.230  13.112
37595W        W 2855  21.439  12.936  13.907
37596W        W 2856   5.378   2.234  14.231
37597W        W 2857  15.747  40.922  12.491
37598W        W 2858  33.086  14.046   0.439
37599W        W 2859  22.501  29.978  12.899
37600W        W 2860  16.084  30.571   1.908
37601W        W 2861  44.929   2.796  12.070
37602W        W 2862  42.587   0.871  11.186
37603W        W 2863  42.841  37.425   0.995
37604W        W 2864  44.901   8.669  10.614
37605W        W 2865  25.565  33.187   2.373
37606W        W 2866  44.298   6.626  12.043
37607W        W 2867  11.657  13.710   0.380
37608W        W 2868  33.600  17.288  11.869
37609W        W 2869  42.230  39.338  11.196
37610W        W 2870  11.637  25.636   2.638
37611W        W 2871   6.991   6.958  14.676
37612W        W 2872  11.094  26.985  12.138
37613W        W 2873  16.263  20.836   1.730
37614W        W 2874  21.960  21.184   3.574
37615W        W 2875  24.014   2.702   4.299
37616W        W 2876  10.477  24.061  13.441
37617W        W 2877  41.914  21.246  11.444
37618W        W 2878  42.962   3.943   3.975
37619W        W 2879  40.747  31.462  13.710
37620W        W 2880  37.734  29.672  13.668
37621W        W 2881  23.764  42.230   2.943
37622W        W 2882  28.535  36.552   0.276
37623W        W 2883   1.651  16.205   0.026
37624W        W 2884  25.102  44.343  13.513
37625W        W 2885  25.268  30.160   3.362
37626W        W 2886  22.310  22.159  13.462
37627W        W 2887  36.601   7.673   0.401
37628W        W 2888  12.375  21.910   1.480
37629W        W 2889  34.927  14.872  13.327
37630W        W 2890  10.182   5.021  12.964
37631W        W 2891   4.816  35.094   3.915
37632W        W 2892   4.976   9.906   3.810
37633W        W 2893  23.489  21.396  12.072
37634W        W 2894  28.961  44.967  10.550
37635W        W 2895   0.416  10.228   0.323
37636W        W 2896   9.296  33.960  11.053
37637W        W 2897  31.203  16.669   1.877
37638W        W 2898   4.134  44.390   4.057
37639W        W 2899  29.504  16.610   1.382
37640W        W 2900  37.116  43.279  14.320
37641W        W 2901   5.377  40.924  14.979
37642W        W 2902  20.729  25.008   4.490
37643W        W 2903   3.811  14.346   2.191
37644W        W 2904   5.674  40.432   2.721
37645W        W 2905  25.345  36.498  11.759
37646W        W 2906  43.552  39.398   4.820
37647W        W 2907  30.324  36.450  11.200
37648W        W 2908  30.592  14.133  14.847
37649W        W 2909  40.465  32.922  10.486
37650W        W 2910  18.604   5.776  10.222
37651W        W 2911   3.440  39.331  12.003
37652W        W 2912  43.260  41.089  11.867
37653W        W 2913   3.124  42.945   3.835
37654W        W 2914  17.490   1.387   2.770
37655W        W 2915  16.849  21.539   0.765
37656W        W 2916  44.727  19.982  11.087
37657W        W 2917  31.437  37.221  14.345
37658W        W 2918   1.914  15.660   3.269
37659W        W 2919  11.062  28.505   2.751
37660W        W 2920  15.071   3.721   2.729
37661W        W 2921  10.740   2.254   3.124
37662W        W 2922  12.363  30.930  13.106
37663W        W 2923   8.476  11.780   1.235
37664W        W 2924  37.051  23.382  14.891
37665W        W 2925  17.089  35.932  11.669
37666W        W 2926  28.961  18.465  13.024
37667W        W 2927   3.337   5.807   2.213
37668W        W 2928  31.359  38.106  13.504
37669W        W 2929   5.793  29.956   2.389
37670W        W 2930   4.275   6.914   4.290
37671W        W 2931   1.392  25.721   2.246
37672W        W 2932  34.132  29.380   0.339
37673W        W 2933  26.943   2.416  12.673
37674W        W 2934  29.904  41.119   1.217
37675W        W 2935  24.686   3.639  13.571
37676W        W 2936   0.850  18.691  14.772
37677W        W 2937   7.252  38.746   0.758
37678W        W 2938  33.236  34.787  11.852
37679W        W 2939  42.096  30.536   3.010
37680W        W 2940  41.770  28.376   2.436
37681W        W 2941  38.543  27.921  10.635
37682W        W 2942  24.729  27.464  10.409
37683W        W 2943  16.203  10.060   3.574
37684W        W 2944  36.318  31.486  11.744
37685W        W 2945  10.454  32.495  14.752
37686W        W 2946  37.290  32.387   3.367
37687W        W 2947  26.983  16.406  11.444
37688W        W 2948  27.411   0.078  11.621
37689W        W 2949  35.204   2.922  11.462
37690W        W 2950  17.191  23.204   0.505
37691W        W 2951  27.982  42.402  11.956
37692W        W 2952  38.360  40.762  12.181
37693W        W 2953   0.741  31.458   4.276
37694W        W 2954   2.203   7.501   4.140
37695W        W 2955  33.641   7.824  12.495
37696W        W 2956  22.641  20.812   4.111
37697W        W 2957  29.983  27.310   0.684
37698W        W 2958  43.247   9.869   2.515
37699W        W 2959  31.429   5.103  14.705
37700W        W 2960   4.709  44.999   1.909
37701W        W 2961  12.380  25.138   2.849
37702W        W 2962   8.758  32.406  11.609
37703W        W 2963   1.763  20.027  11.705
37704W        W 2964  26.966   0.420   0.923
37705W        W 2965  40.281  12.834   9.781
37706W        W 2966  37.604  36.265   1.247
37707W        W 2967  23.970   3.439  12.533
37708W        W 2968   4.985  35.796  11.584
37709W        W 2969   2.452  39.562   1.542
37710W        W 2970  34.084  14.877  13.192
37711W        W 2971  17.793  39.615   4.244
37712W        W 2972  14.155  11.694   3.276
37713W        W 2973  23.281   5.005   2.556
37714W        W 2974  20.650  18.880   4.099
37715W        W 2975  17.966   2.627   0.108
37716W        W 2976  32.823  25.637   3.350
37717W        W 2977  12.796   9.699  10.307
37718W        W 2978  41.794  30.068   1.668
37719W        W 2979  41.402   5.199  14.922
37720W        W 2980  20.085  31.451   4.044
37721W        W 2981  42.705  43.796   1.434
37722W        W 2982   1.052  11.313   1.527
37723W        W 2983  19.358  41.269  14.954
37724W        W 2984   6.484  10.120   5.105
37725W        W 2985  40.705  37.476  11.589
37726W        W 2986  11.304  34.534   0.932
37727W        W 2987  18.074  21.938  12.169
37728W        W 2988   3.718  33.209  11.938
37729W        W 2989  16.154  17.677  12.144
37730W        W 2990  33.408  42.301  13.052
37731W        W 2991  26.266  10.298  13.706
37732W        W 2992  38.090  16.146  13.095
37733W        W 2993  43.284  14.223  11.413
37734W        W 2994  26.667   3.882  13.024
37735W        W 2995  20.664  29.441  14.479
37736W        W 2996  40.517  10.268  12.709
37737W        W 2997  44.320  36.855   3.155
37738W        W 2998  11.622  19.026   9.896
37739W        W 2999  28.567  40.362   0.428
37740W        W 3000  44.138  21.171   1.940
37741W        W 3001  29.042   9.205  13.864
37742W        W 3002  29.904  40.914  10.670
37743W        W 3003   7.759  31.092  14.353
37744W        W 3004  30.236  12.258   1.678
37745W        W 3005  42.737  29.133   3.622
37746W        W 3006   3.597  28.331   0.418
37747W        W 3007  11.582  19.188  12.940
37748W        W 3008  19.162  18.508  10.582
37749W        W 3009  13.785   0.891   3.965
37750W        W 3010  41.441  14.197   4.281
37751W        W 3011  31.804  21.171  12.358
37752W        W 3012  36.988   9.394   0.705
37753W        W 3013  37.385  40.909   4.395
37754W        W 3014  31.514  38.858  11.055
37755W        W 3015  42.209  34.494   0.007
37756W        W 3016   2.756  34.943  10.654
37757W        W 3017  35.624  44.503   4.517
37758W        W 3018   9.660  31.870   4.174
37759W        W 3019  36.048  36.944  14.343
37760W        W 3020  33.526   6.201  12.421
37761W        W 3021   1.730  40.326   3.960
37762W        W 3022  35.304  20.512  11.561
37763W        W 3023   4.813  11.128  11.110
37764W        W 3024  29.592   4.316   0.826
37765W        W 3025  30.733  36.621  14.293
37766W        W 3026  22.827  37.271  14.147
37767W        W 3027  37.821  24.938  14.736
37768W        W 3028  20.582   5.286   2.332
37769W        W 3029  37.656  32.117   5.092
37770W        W 3030   9.574   0.442  12.608
37771W        W 3031  11.476   5.534  13.262
37772W        W 3032  18.329  39.944  12.474
37773W        W 3033  41.062  23.048   4.230
37774W        W 3034  15.260  38.866   4.680
37775W        W 3035  30.474  23.728   3.107
37776W        W 3036   6.691  17.677  11.011
37777W        W 3037   5.874  11.824   2.322
37778W        W 3038   5.264  26.896  13.336
37779W        W 3039  23.673  43.570  10.697
37780W        W 3040  30.333  36.907   1.852
37781W        W 3041  19.030  31.106   3.071
37782W        W 3042  10.947  24.043   1.632
37783W        W 3043  27.253  39.565  12.547
37784W        W 3044  38.191   5.414  11.502
37785W        W 3045  24.501   7.213  13.627
37786W        W 3046  34.719  40.504   0.873
37787W        W 3047  22.218  27.504   2.750
37788W        W 3048  34.160  16.367   3.220
37789W        W 3049  35.420   8.415  13.637
37790W        W 3050  44.532  40.381  11.040
37791W        W 3051  38.264   9.553   0.548
37792W        W 3052  15.226   8.237   2.719
37793W        W 3053   2.487  12.107  14.556
37794W        W 3054  24.699   1.255   2.198
37795W        W 3055  29.412  17.541   1.023
37796W        W 3056  37.829  41.971  13.379
37797W        W 3057   8.770   6.939   9.761
37798W        W 3058   8.281  28.910   0.326
37799W        W 3059  33.977  41.351   4.323
37800W        W 3060  30.719   6.933  14.741
37801W        W 3061   3.362  39.983  13.504
37802W        W 3062  16.767  18.804   2.230
37803W        W 3063  34.505  22.213  11.514
37804W        W 3064  11.772  34.839   0.302
37805W        W 3065  44.614  41.112  14.120
37806W        W 3066   7.662   9.414   3.588
37807W        W 3067  11.286  34.936  12.624
37808W        W 3068  37.470   8.110  13.062
37809W        W 3069  42.713  40.613  13.935
37810W        W 3070  44.927   4.725   1.417
37811W        W 3071  44.904  15.824   4.864
37812W        W 3072  29.229   3.234   3.605
37813W        W 3073   0.040   5.823   1.833
37814W        W 3074  33.081  35.062   1.805
37815W        W 3075   8.447  24.315   0.446
37816W        W 3076  29.137  18.762  13.424
37817W        W 3077   7.133  32.026  11.608
37818W        W 3078  10.357  33.394  10.744
37819W        W 3079  32.064   4.545  11.485
37820W        W 3080  20.043   3.982  11.909
37821W        W 3081  18.659  36.354  13.140
37822W        W 3082  28.059  34.916  12.474
37823W        W 3083  33.506  13.368  13.596
37824W        W 3084  28.496  10.743  11.552
37825W        W 3085  42.048  10.768   1.161
37826W        W 3086  33.845  18.391  12.849
37827W        W 3087  10.651  35.917  10.728
37828W        W 3088  12.839  12.452   4.290
37829W        W 3089  24.515   7.623   3.370
37830W        W 3090   5.213  26.274  14.885
37831W        W 3091  29.687  29.077  14.895
37832W        W 3092  40.089  21.116   3.618
37833W        W 3093  17.680  28.029  14.810
37834W        W 3094   5.362  36.095   0.207
37835W        W 3095  40.041  36.792  14.056
37836W        W 3096  31.460  43.274  14.994
37837W        W 3097  21.137   8.495   0.777
37838W        W 3098  40.807   4.858   4.249
37839W        W 3099  43.910   9.220  13.960
37840W        W 3100   5.928  24.687  11.081
37841W        W 3101   2.343  43.351   3.771
37842W        W 3102  20.736  15.282   2.168
37843W        W 3103  23.544   2.941   4.184
37844W        W 3104  19.129   8.955   0.933
37845W        W 3105  27.376   5.429   4.587
37846W        W 3106  31.040  39.425   1.281
37847W        W 3107   3.476  16.470   3.037
37848W        W 3108  13.190  21.823   1.305
37849W        W 3109  32.002  43.792   0.716
37850W        W 3110  16.115  30.348   4.331
37851W        W 3111  21.384  16.757  11.953
37852W        W 3112  36.262  24.059  13.535
37853W        W 3113  44.500  39.942   4.051
37854W        W 3114  39.045  34.904   0.490
37855W        W 3115  31.169  22.016  13.343
37856W        W 3116  18.029   8.287   4.603
37857W        W 3117   2.374  13.420  11.861
37858W        W 3118  33.399  34.152   3.218
37859W        W 3119   9.666  23.269   1.742
37860W        W 3120  18.296  17.295  14.229
37861W        W 3121  15.312  27.084   1.341
37862W        W 3122  21.994  16.328   0.479
37863W        W 3123  10.343   6.226  11.113
37864W        W 3124  10.984  25.907  10.058
37865W        W 3125  38.338  39.009  12.071
37866W        W 3126   0.948  43.834  11.638
37867W        W 3127   3.213  17.477  12.001
37868W        W 3128  16.407  21.156   3.417
37869W        W 3129   2.431   9.371   2.693
37870W        W 3130  35.031  26.853  13.365
37871W        W 3131  31.881  30.645   1.671
37872W        W 3132  18.056  10.251  13.367
37873W        W 3133  23.494  34.906   2.657
37874W        W 3134   0.398  14.837  10.627
37875W        W 3135  15.465  34.409  14.833
37876W        W 3136  19.630  21.050  12.882
37877W        W 3137  32.455  29.674   3.144
37878W        W 3138   8.737  15.248   4.115
37879W        W 3139  21.685  40.601  12.431
37880W        W 3140   8.623   8.951   2.637
37881W        W 3141  11.609  42.326   1.822
37882W        W 3142  25.555  20.531  10.793
37883W        W 3143   4.569  25.023  11.085
37884W        W 3144  31.270  26.177   0.426
37885W        W 3145  44.742  35.980   3.306
37886W        W 3146  18.719  31.082   2.137
37887W        W 3147  40.029  32.092   1.636
37888W        W 3148  34.579  28.531   9.923
37889W        W 3149  10.767   4.163  12.788
37890W        W 3150  27.792   1.043  11.576
37891W        W 3151  40.650  35.056   4.228
37892W        W 3152  26.488  22.697   0.956
37893W        W 3153  34.770   7.928  10.928
37894W        W 3154  12.906  18.559  14.453
37895W        W 3155   6.476  22.092   2.717
37896W        W 3156  34.418   3.760   4.147
37897W        W 3157  22.042   8.780   3.013
37898W        W 3158   6.403  19.978   3.232
37899W        W 3159  33.815  23.610  14.529
37900W        W 3160  35.261  20.574  13.669
37901W        W 3161  23.546  33.487   5.180
37902W        W 3162  13.668  14.347  12.488
37903W        W 3163  22.735  25.206  13.106
37904W        W 3164  37.590  11.085   2.804
37905W        W 3165  33.068  31.433   2.306
37906W        W 3166  29.511  34.826  13.018
37907W        W 3167  21.932  39.599   2.752
37908W        W 3168  21.612  27.983   3.133
37909W        W 3169  36.374   5.301  11.051
37910W        W 3170   7.597  21.644  11.999
37911W        W 3171  19.686  22.744  14.085
37912W        W 3172   2.857   0.363  10.586
37913W        W 3173  17.951  19.638  10.732
37914W        W 3174  38.065  12.845  14.777
37915W        W 3175   1.683   7.886   0.885
37916W        W 3176  29.643  23.763  14.834
37917W        W 3177  23.452  12.958  11.175
37918W        W 3178  43.022  15.996  12.654
37919W        W 3179  25.156  16.022   0.984
37920W        W 3180  22.054  27.729   1.864
37921W        W 3181   1.759  43.518  13.836
37922W        W 3182  42.993  32.291  14.746
37923W        W 3183  26.699  18.769  14.800
37924W        W 3184  33.684  35.409  12.910
37925W        W 3185  26.542  34.145   2.263
37926W        W 3186   5.286   0.479   4.285
37927W        W 3187   3.303   0.476  11.399
37928W        W 3188   0.861  15.905   5.181
37929W        W 3189  26.333   3.819   0.268
37930W        W 3190  32.529  36.133  14.022
37931W        W 3191  39.734   3.178  12.958
37932W        W 3192  42.416  37.851  10.966
37933W        W 3193  43.255  29.557   2.249
37934W        W 3194  18.592  38.544  12.933
37935W        W 3195  32.623  41.371   1.441
37936W        W 3196  24.076  27.172   3.121
37937W        W 3197  31.864  29.393  13.314
37938W        W 3198  28.627  25.141   2.285
37939W        W 3199  10.097  27.196  13.979
37940W        W 3200  38.034  11.943  14.274
37941W        W 3201  37.028  14.064  10.805
37942W        W 3202  34.825  28.659  13.867
37943W        W 3203  14.559   7.812   3.666
37944W        W 3204  17.138  25.835   0.725
37945W        W 3205   1.366   3.911  10.669
37946W        W 3206  36.631  27.767   0.543
37947W        W 3207  21.339  26.044  10.980
37948W        W 3208  36.325   2.377   4.992
37949W        W 3209  44.080   3.437   0.302
37950W        W 3210   2.918  13.916  12.995
37951W        W 3211  35.590  21.537   0.297
37952W        W 3212  12.346   0.357   2.038
37953W        W 3213  26.314  11.649  14.368
37954W        W 3214  43.509  26.497  11.411
37955W        W 3215  19.046  23.277  14.869
37956W        W 3216  14.248  24.904  12.404
37957W        W 3217  28.082  30.575  10.760
37958W        W 3218  29.463  36.489   5.004
37959W        W 3219  35.952  10.641   1.461
37960W        W 3220  12.746   7.972   3.431
37961W        W 3221  30.421   4.030   0.964
37962W        W 3222  29.453  27.560  13.577
37963W        W 3223  29.866  38.462   2.101
37964W        W 3224   7.286  19.644   0.215
37965W        W 3225  26.248  33.209   0.992
37966W        W 3226  29.361  34.823  12.417
37967W        W 3227  13.879   6.736  14.939
37968W        W 3228  13.345  18.141   1.833
37969W        W 3229  39.103  32.112  10.654
37970W        W 3230  23.423  19.790  10.944
37971W        W 3231   8.652   4.384  11.574
37972W        W 3232   5.009  31.902   3.632
37973W        W 3233  20.444  26.711  10.678
37974W        W 3234   7.958   8.462   4.578
37975W        W 3235  27.653  21.964   3.253
37976W        W 3236  44.535   1.043   2.308
37977W        W 3237  27.891  20.016   0.550
37978W        W 3238  29.144  30.410  12.390
37979W        W 3239  35.258  41.588   4.126
37980W        W 3240  11.744  25.276  11.063
37981W        W 3241   8.811  34.113  13.713
37982W        W 3242  32.104   6.900   0.667
37983W        W 3243  22.390  38.699   3.663
37984W        W 3244  22.574  41.476  14.535
37985W        W 3245  22.156   3.240   2.711
37986W        W 3246   8.816  13.601  11.190
37987W        W 3247  18.766  35.412  10.716
37988W        W 3248   3.849  25.546  13.759
37989W        W 3249  30.509  12.994   2.894
37990W        W 3250  11.793  44.472   3.160
37991W        W 3251  25.973  21.503   2.816
37992W        W 3252   7.379  11.401  11.063
37993W        W 3253  33.217  28.577   3.142
37994W        W 3254  21.239  32.019   0.831
37995W        W 3255  31.394  12.946   1.241
37996W        W 3256  41.009  22.843   0.462
37997W        W 3257  13.845   8.443  14.794
37998W        W 3258   8.262  42.500  14.820
37999W        W 3259  38.621  42.649   0.498
38000W        W 3260   3.021  24.213   3.144
38001W        W 3261  34.139  39.005  13.996
38002W        W 3262  43.845  43.932  10.528
38003W        W 3263  18.702  14.380  13.114
38004W        W 3264  18.202  17.784  14.438
38005W        W 3265   1.132  29.778  13.135
38006W        W 3266  34.337  11.797   1.816
38007W        W 3267   8.660  35.856  11.460
38008W        W 3268   5.009  10.207   1.342
38009W        W 3269  37.923  10.547   0.404
38010W        W 3270  33.459   1.811   1.628
38011W        W 3271  27.001  16.886   2.222
38012W        W 3272   9.681  18.976  14.735
38013W        W 3273  10.533  31.397  13.652
38014W        W 3274  31.706  25.213   3.447
38015W        W 3275   6.801  40.382   4.176
38016W        W 3276  25.797  36.578   2.790
38017W        W 3277  14.173   9.850   1.440
38018W        W 3278   5.746   8.422   1.934
38019W        W 3279  40.285  11.106   1.381
38020W        W 3280  24.369  43.494  14.371
38021W        W 3281   1.958  44.396   4.293
38022W        W 3282  36.416  20.494  13.459
38023W        W 3283  39.119  40.852  11.473
38024W        W 3284  42.245   8.795  14.552
38025W        W 3285  41.885  21.099  12.475
38026W        W 3286  18.791  32.393  11.502
38027W        W 3287  19.941  24.529  11.583
38028W        W 3288  37.089  30.159  13.993
38029W        W 3289  40.879  35.556  10.603
38030W        W 3290   8.171  13.331   0.916
38031W        W 3291   2.352   3.165  12.329
38032W        W 3292  23.262  42.380  10.636
38033W        W 3293  12.261   0.484  14.009
38034W        W 3294   0.727   5.570  11.033
38035W        W 3295  29.195  10.404  10.546
38036W        W 3296  15.280  20.130   2.351
38037W        W 3297   5.210  20.049   3.745
38038W        W 3298  20.141  13.163  10.631
38039W        W 3299  43.263  32.396   0.483
38040W        W 3300  17.341  37.489   1.956
38041W        W 3301  14.714  36.410   3.525
38042W        W 3302  39.832  40.857   3.639
38043W        W 3303   4.251  33.977  10.482
38044W        W 3304  41.270  24.682   2.565
38045W        W 3305  26.803  14.726   1.469
38046W        W 3306  23.310  27.620  14.560
38047W        W 3307  17.361  26.509  10.113
38048W        W 3308  26.009  14.378  12.937
38049W        W 3309  40.910  14.838  13.313
38050W        W 3310  17.745  35.970  14.403
38051W        W 3311  42.192  23.639   4.138
38052W        W 3312  22.173  19.684  12.865
38053W        W 3313   0.542  30.507   1.894
38054W        W 3314  14.577  18.653   4.485
38055W        W 3315  40.857  31.937   1.115
38056W        W 3316  34.689  14.093   1.064
38057W        W 3317  39.002  27.276   0.003
38058W        W 3318  32.920   8.735  10.419
38059W        W 3319  18.163   2.226   0.437
38060W        W 3320   6.642  16.047  11.225
38061W        W 3321   8.950   4.838   1.759
38062W        W 3322  34.499   8.288   2.269
38063W        W 3323   7.262   6.903  11.910
38064W        W 3324  22.518  24.047   4.531
38065W        W 3325  25.176  43.916   0.801
38066W        W 3326  33.085  39.421   4.676
38067W        W 3327   4.168  18.032  10.459
38068W        W 3328  26.681  13.725   4.483
38069W        W 3329   0.869  23.200   5.393
38070W        W 3330  16.670  32.330   1.215
38071W        W 3331   8.044  17.102   4.470
38072W        W 3332  21.041   8.435   5.120
38073W        W 3333   2.927  38.542   3.354
38074W        W 3334  14.713  20.499  12.850
38075W        W 3335  38.801  43.109  10.857
38076W        W 3336  43.939  34.935   1.906
38077W        W 3337   3.722  41.287   0.104
38078W        W 3338  27.192  43.234  11.931
38079W        W 3339  36.595  38.534   2.655
38080W        W 3340  29.022  43.302   0.269
38081W        W 3341  34.577   8.443  11.836
38082W        W 3342  34.038  35.367   4.538
38083W        W 3343  41.963  37.399   0.690
38084W        W 3344  14.586  21.646   1.505
38085W        W 3345  30.121  28.127  13.283
38086W        W 3346  24.123   2.895  11.451
38087W        W 3347  27.002  44.360  10.660
38088W        W 3348  15.041   0.507  13.616
38089W        W 3349  26.634  34.879  14.802
38090W        W 3350   1.679  22.446   2.135
38091W        W 3351  28.630  44.790   0.056
38092W        W 3352  22.803  13.617  12.178
38093W        W 3353  28.597  12.591   1.087
38094W        W 3354  42.336  14.036   0.278
38095W        W 3355  19.304  15.703  10.636
38096W        W 3356  32.655   7.864  10.522
38097W        W 3357  40.815   4.945  11.608
38098W        W 3358  32.608  28.256  13.963
38099W        W 3359   6.630  19.389  12.258
38100W        W 3360   9.639  19.688   2.310
38101W        W 3361  41.667  11.622   3.319
38102W        W 3362  41.709   6.658  13.401
38103W        W 3363   3.170  38.920  13.810
38104W        W 3364  28.397  43.959   4.603
38105W        W 3365  24.931  29.869   2.672
38106W        W 3366  40.472  12.875  14.262
38107W        W 3367  42.410  38.350  11.029
38108W        W 3368  11.426  24.511   0.924
38109W        W 3369   4.767  17.601   3.685
38110W        W 3370  27.623  26.355   4.231
38111W        W 3371  41.428  30.310   4.892
38112W        W 3372  30.154  15.637   4.440
38113W        W 3373  34.939   0.640  10.178
38114W        W 3374  39.836  25.145   3.775
38115W        W 3375   1.298  12.567   1.382
38116W        W 3376  24.626   4.173   2.658
38117W        W 3377  16.326  31.097  13.020
38118W        W 3378  12.307  25.163   1.885
38119W        W 3379  23.095  21.510  12.435
38120W        W 3380   1.154  17.141   0.390
38121W        W 3381  25.527  39.268  12.064
38122W        W 3382   2.816  23.403   2.711
38123W        W 3383  44.423  10.894   3.225
38124W        W 3384  40.445  20.825   2.768
38125W        W 3385   3.116  42.183  12.802
38126W        W 3386   5.277  40.146   2.333
38127W        W 3387   9.388  15.110  13.739
38128W        W 3388  39.619  25.936  11.066
38129W        W 3389   5.201  30.621  10.561
38130W        W 3390  31.180  13.831   0.390
38131W        W 3391   8.154  28.656  14.536
38132W        W 3392   1.103  24.890   1.408
38133W        W 3393  25.319  25.992  11.032
38134W        W 3394  10.184  34.099  14.510
38135W        W 3395  39.157  28.498   0.131
38136W        W 3396  31.114  33.369   2.404
38137W        W 3397   1.770   8.466  14.941
38138W        W 3398  41.292   7.207  13.482
38139W        W 3399   9.326  26.144  12.535
38140W        W 3400  22.706   1.901  11.587
38141W        W 3401  13.185  35.308   4.887
38142W        W 3402  10.363  34.163   3.382
38143W        W 3403  32.865  22.477  13.135
38144W        W 3404  31.102  27.941   0.925
38145W        W 3405  42.407   9.677  11.564
38146W        W 3406  25.387  39.199  14.948
38147W        W 3407  25.705   8.286   4.953
38148W        W 3408  23.866   6.324  14.132
38149W        W 3409   1.542   7.278  14.009
38150W        W 3410  13.274   9.936   9.564
38151W        W 3411  38.345  38.340  14.253
38152W        W 3412   2.747  44.921  11.034
38153W        W 3413  22.591  41.278  13.072
38154W        W 3414   4.948  14.724   2.210
38155W        W 3415  32.347   5.414  14.430
38156W        W 3416  20.087  16.166  11.499
38157W        W 3417  30.846  13.106   0.379
38158W        W 3418  35.013  21.462   4.975
38159W        W 3419   7.385  30.389  10.697
38160W        W 3420  18.648  21.945  13.911
38161W        W 3421  14.424  40.739  11.179
38162W        W 3422  32.961  16.834   4.659
38163W        W 3423   5.606  16.556   4.119
38164W        W 3424  25.528  15.648   0.922
38165W        W 3425   0.098   0.927   1.201
38166W        W 3426  16.999   4.298  12.038
38167W        W 3427   8.770  26.080   2.745
38168W        W 3428  36.484   4.047   1.444
38169W        W 3429   4.020   9.606  11.478
38170W        W 3430   0.250  13.344   5.071
38171W        W 3431  27.486  31.043   3.561
38172W        W 3432  13.774  33.484   1.662
38173W        W 3433  17.291  24.696  10.490
38174W        W 3434  11.194  38.600  10.948
38175W        W 3435  41.645  31.811  13.965
38176W        W 3436  22.056  15.178   4.648
38177W        W 3437  19.615  12.766   1.472
38178W        W 3438  34.837  22.865  10.301
38179W        W 3439  32.924  32.085  13.644
38180W        W 3440   1.850   4.178  11.176
38181W        W 3441  14.982  15.271   3.866
38182W        W 3442  20.021  15.784  13.417
38183W        W 3443  39.999  24.693  11.443
38184W        W 3444  36.347  18.037  12.912
38185W        W 3445  13.310  28.145   4.741
38186W        W 3446  22.712  34.051   4.947
38187W        W 3447  10.808   8.880   2.676
38188W        W 3448  43.547  19.406  13.010
38189W        W 3449   0.752   6.878   3.181
38190W        W 3450   8.080  26.499   2.359
38191W        W 3451  41.982  33.645   0.345
38192W        W 3452  43.173  29.830  11.399
38193W        W 3453  12.439  27.142   0.353
38194W        W 3454  22.821  26.753  12.453
38195W        W 3455  37.961  19.698   4.128
38196W        W 3456  38.635  41.277   2.114
38197W        W 3457  30.686   7.711  13.082
38198W        W 3458   6.454  42.329  13.346
38199W        W 3459  30.454  33.368  11.134
38200W        W 3460   5.195  18.804   0.063
38201W        W 3461  16.340  34.846   1.404
38202W        W 3462  34.652   3.010   1.902
38203W        W 3463   1.540   5.616  13.513
38204W        W 3464   9.145  18.213  12.197
38205W        W 3465  24.989   0.715  11.359
38206W        W 3466  12.278  14.519   3.243
38207W        W 3467  12.574  11.775  13.852
38208W        W 3468  28.704  35.667   4.174
38209W        W 3469  35.112  23.222  14.356
38210W        W 3470   2.992  21.629   0.479
38211W        W 3471  29.644  30.045   2.778
38212W        W 3472  10.110  21.511  10.580
38213W        W 3473  21.746  32.179   2.185
38214W        W 3474  41.834  10.706  14.787
38215W        W 3475  39.320  41.503   1.556
38216W        W 3476  12.881  10.209   1.232
38217W        W 3477  19.095   9.230   1.383
38218W        W 3478  18.201  18.293  14.745
38219W        W 3479  11.166  35.593  13.916
38220W        W 3480  39.658  21.688   0.568
38221W        W 3481  39.967  19.372   2.870
38222W        W 3482  44.882  29.516  10.981
38223W        W 3483  28.992  40.993  11.704
38224W        W 3484  32.633  23.642  12.806
38225W        W 3485  12.708  42.561   0.559
38226W        W 3486  39.085   1.483  13.276
38227W        W 3487  31.115  24.057  12.124
38228W        W 3488  20.549  39.583   1.732
38229W        W 3489  17.357  15.504   0.195
38230W        W 3490  28.458  11.917  11.624
38231W        W 3491  29.724  15.627  12.534
38232W        W 3492  35.972  14.079  12.564
38233W        W 3493   7.739  13.696   1.674
38234W        W 3494   8.756  38.719  11.949
38235W        W 3495  40.029   2.373   3.624
38236W        W 3496  25.118   2.509   2.503
38237W        W 3497   1.138  12.203   2.813
38238W        W 3498  31.539  22.247  11.658
38239W        W 3499  28.739   2.564   3.896
38240W        W 3500  31.875  10.021  13.513
38241W        W 3501   0.881  33.192   4.535
38242W        W 3502  41.568   5.151  10.560
38243W        W 3503  15.921  31.823   4.436
38244W        W 3504  19.359  18.143  13.881
38245W        W 3505  24.306   7.244   0.362
38246W        W 3506  42.218  12.347  12.512
38247W        W 3507  20.054  41.974  12.576
38248W        W 3508  10.198  18.458  12.915
38249W        W 3509  14.840  28.695  14.928
38250W        W 3510  35.297  21.044  11.580
38251W        W 3511   0.810   1.361  10.740
38252W        W 3512  30.860  30.208  11.543
38253W        W 3513  17.822  19.590   4.087
38254W        W 3514  17.126  24.001   3.982
38255W        W 3515  34.372  34.675   3.908
38256W        W 3516  39.274  17.478  14.289
38257W        W 3517  28.443  31.609   0.978
38258W        W 3518  31.661   5.489  11.878
38259W        W 3519  30.130  21.957  13.414
38260W        W 3520  13.054   1.968  11.112
38261W        W 3521   5.016   4.282   3.483
38262W        W 3522  13.851  23.473   2.558
38263W        W 3523  19.088  39.791   4.349
38264W        W 3524   3.313  39.592   1.334
38265W        W 3525  15.276   9.824  13.218
38266W        W 3526  33.552  40.587  12.572
38267W        W 3527  25.861  11.803  14.149
38268W        W 3528  14.161  22.751   1.828
38269W        W 3529   7.341  23.554  11.231
38270W        W 3530  44.697  35.988  11.084
38271W        W 3531  13.727  33.998   1.742
38272W        W 3532  26.503  35.022   1.192
38273W        W 3533   7.356   1.214   3.713
38274W        W 3534   1.410  34.478   0.872
38275W        W 3535  32.940  17.853   3.244
38276W        W 3536  28.726   4.787   3.702
38277W        W 3537  14.408  10.062  12.322
38278W        W 3538  44.181  16.134   5.052
38279W        W 3539   5.901  35.442  14.310
38280W        W 3540  34.666  20.238   2.466
38281W        W 3541  16.728  25.544  12.014
38282W        W 3542   4.142  10.601  12.431
38283W        W 3543  15.963  30.092  14.957
38284W        W 3544   2.987  14.091   5.077
38285W        W 3545  10.553  31.480  10.597
38286W        W 3546  29.166   7.593   1.856
38287W        W 3547  15.310  15.177   4.257
38288W        W 3548   6.394  24.703   2.744
38289W        W 3549   0.988  33.878   2.188
38290W        W 3550  29.594  41.422  10.503
38291W        W 3551  16.177  18.726  12.880
38292W        W 3552   9.730  39.901   3.250
38293W        W 3553  21.476   0.350  12.849
38294W        W 3554  20.436   0.426  11.202
38295W        W 3555  41.854   0.318  13.939
38296W        W 3556  28.520   5.972  12.580
38297W        W 3557  31.531  16.584  14.799
38298W        W 3558  14.656   2.787   4.249
38299W        W 3559  28.155   2.198  13.483
38300W        W 3560  39.782  37.867   0.718
38301W        W 3561  26.082   7.819  12.361
38302W        W 3562  25.209  22.116  14.461
38303W        W 3563  11.863  26.604   3.891
38304W        W 3564  30.064  21.030  11.326
38305W        W 3565   2.164  36.611  11.626
38306W        W 3566  32.370  38.951  12.424
38307W        W 3567   5.944  23.156  12.185
38308W        W 3568  31.459  11.092  14.906
38309W        W 3569  13.249   9.167  13.489
38310W        W 3570  31.231  39.972   0.705
38311W        W 3571  44.796  15.784   3.183
38312W        W 3572  25.431  29.497  13.410
38313W        W 3573  26.121   7.836   1.727
38314W        W 3574  10.429  23.241   9.694
38315W        W 3575  43.374  20.338   3.231
38316W        W 3576   8.925  41.279  13.441
38317W        W 3577  18.287  18.768   3.217
38318W        W 3578  25.813  18.907  10.265
38319W        W 3579  31.868  29.935  12.422
38320W        W 3580  37.791   5.020   2.930
38321W        W 3581  18.670  30.963  14.285
38322W        W 3582   2.725  14.296   2.400
38323W        W 3583  32.896  15.277  13.614
38324W        W 3584  11.744  39.416  10.151
38325W        W 3585  35.112  30.646  10.945
38326W        W 3586  18.572  33.025  10.704
38327W        W 3587  30.376  11.248   0.933
38328W        W 3588  24.059  12.875  14.474
38329W        W 3589  25.478  24.903   1.349
38330W        W 3590  12.498  39.880   0.426
38331W        W 3591   8.836   5.402  11.611
38332W        W 3592  26.014  24.534  10.770
38333W        W 3593   8.103  31.093  14.753
38334W        W 3594  35.645   8.029   2.863
38335W        W 3595  32.086  35.920   2.346
38336W        W 3596  11.345  30.494   2.157
38337W        W 3597   7.168  18.125   3.494
38338W        W 3598  13.113  22.741   1.329
38339W        W 3599   8.821  11.906   5.012
38340W        W 3600  21.198  21.800   1.248
38341W        W 3601  15.579  42.811  11.903
38342W        W 3602  36.524  36.344   4.607
38343W        W 3603   6.746  38.153  11.197
38344W        W 3604  10.681  27.571  13.554
38345W        W 3605  28.573  37.847  10.524
38346W        W 3606  42.481   2.313  12.849
38347W        W 3607  14.458  35.172   1.738
38348W        W 3608   3.710   1.279   0.340
38349W        W 3609  15.283  29.677   3.350
38350W        W 3610  28.343  31.893   2.258
38351W        W 3611   2.903  20.431  11.566
38352W        W 3612   9.432  10.529  14.848
38353W        W 3613  37.120  44.747  10.577
38354W        W 3614  26.662  26.661  12.545
38355W        W 3615  35.054   8.403  11.150
38356W        W 3616  10.250  19.565   1.774
38357W        W 3617  13.711  14.906   3.351
38358W        W 3618  38.420  35.948  12.496
38359W        W 3619  20.170  19.372   0.467
38360W        W 3620   4.915  23.487  10.718
38361W        W 3621   3.367   8.978   4.518
38362W        W 3622  44.388  39.526  10.828
38363W        W 3623  34.622  38.107  12.576
38364W        W 3624   6.777  12.619  11.196
38365W        W 3625  39.823  20.294   0.325
38366W        W 3626  31.978   5.152  14.055
38367W        W 3627  12.549  37.498   3.750
38368W        W 3628  30.520  13.493  14.815
38369W        W 3629  25.603   3.924  14.020
38370W        W 3630  34.804  39.266  12.009
38371W        W 3631  21.708  44.195  10.262
38372W        W 3632  25.928  43.990  12.049
38373W        W 3633  13.617  13.352   0.178
38374W        W 3634  27.493  38.508   4.567
38375W        W 3635  25.225   6.341  11.526
38376W        W 3636  29.157  37.870   3.588
38377W        W 3637  14.613  14.148   2.691
38378W        W 3638  33.477  13.057   0.080
38379W        W 3639  28.387  15.228   2.672
38380W        W 3640  27.103  12.419  11.623
38381W        W 3641  32.087   4.345   0.523
38382W        W 3642  21.893   3.403  12.643
38383W        W 3643  40.326  24.622  13.964
38384W        W 3644  10.188  44.606  13.122
38385W        W 3645  42.002  29.903  13.016
38386W        W 3646   8.752  14.301  13.823
38387W        W 3647  14.025   3.826   4.898
38388W        W 3648  24.757  29.322   1.246
38389W        W 3649  35.489  17.562   2.496
38390W        W 3650  32.447  20.346   3.187
38391W        W 3651  42.332  44.929  10.570
38392W        W 3652  20.045  19.269  13.901
38393W        W 3653  40.319  12.624   2.762
38394W        W 3654  30.924  17.622   2.356
38395W        W 3655   9.095   3.978   4.888
38396W        W 3656  26.305  20.667  14.527
38397W        W 3657  22.861  42.384   3.168
38398W        W 3658  22.833   3.398   1.427
38399W        W 3659  25.495  17.586   1.923
38400W        W 3660  29.955  34.394   4.088
38401W        W 3661  22.011  40.873   3.502
38402W        W 3662  19.547  28.373  11.000
38403W        W 3663  39.307  11.711   2.691
38404W        W 3664  33.107  15.685   0.342
38405W        W 3665   5.014  13.866  12.129
38406W        W 3666  10.661  13.487   2.149
38407W        W 3667   0.492  44.794  12.630
38408W        W 3668   6.815  37.296   3.198
38409W        W 3669  34.838  25.581   9.849
38410W        W 3670  25.556  41.848   1.062
38411W        W 3671  19.204  31.185  13.570
38412W        W 3672  38.101  22.632   0.322
38413W        W 3673  25.127  27.415   1.353
38414W        W 3674   2.816  22.004  14.833
38415W        W 3675  12.823  39.913   2.870
38416W        W 3676  20.972  17.478  11.115
38417W        W 3677  31.719   6.009  13.884
38418W        W 3678  33.168   6.979  12.093
38419W        W 3679  43.062  20.150   1.048
38420W        W 3680  20.360  20.997   0.424
38421W        W 3681  15.172   0.935   2.258
38422W        W 3682  15.263  29.218   0.867
38423W        W 3683  36.723  23.602   3.662
38424W        W 3684  39.926  32.880  11.093
38425W        W 3685  30.931  32.307  13.497
38426W        W 3686  33.379  21.424   1.268
38427W        W 3687   7.223   4.353   3.993
38428W        W 3688  12.169  12.733  12.895
38429W        W 3689  12.721  27.212  11.092
38430W        W 3690  42.878  42.744  11.462
38431W        W 3691   8.092  23.949  12.068
38432W        W 3692   1.057  20.204   1.783
38433W        W 3693  12.070  39.098  12.003
38434W        W 3694  37.627  43.311  13.433
38435W        W 3695  39.030  43.998  12.805
38436W        W 3696  18.004   9.343   2.407
38437W        W 3697  13.047  39.228  14.857
38438W        W 3698  11.091  23.143   3.727
38439W        W 3699  13.130  28.973   1.282
38440W        W 3700   6.408  20.796   3.711
38441W        W 3701  11.386  41.945   0.455
38442W        W 3702  17.552  43.759   4.153
38443W        W 3703  18.810  13.321   3.721
38444W        W 3704  26.750  13.745   2.790
38445W        W 3705  37.368   1.673  12.119
38446W        W 3706   8.611   7.312   4.538
38447W        W 3707  33.858  42.557   2.785
38448W        W 3708  35.482   1.507  12.667
38449W        W 3709  41.359   4.824   4.279
38450W        W 3710  37.875  12.192   3.961
38451W        W 3711  28.652  37.681  11.921
38452W        W 3712   1.719  42.701  12.519
38453W        W 3713  13.096  37.979  10.736
38454W        W 3714  31.665  41.418   1.162
38455W        W 3715  11.062   6.334  11.516
38456W        W 3716  21.667  26.558  11.218
38457W        W 3717  41.682  40.741  14.499
38458W        W 3718   7.369  22.214  10.740
38459W        W 3719  26.592   7.813  12.453
38460W        W 3720  10.853   3.004   0.718
38461W        W 3721   2.664  35.054   3.409
38462W        W 3722  37.662  22.153   3.710
38463W        W 3723  18.352  37.499  12.394
38464W        W 3724   6.408  32.924   4.741
38465W        W 3725  37.896  13.300  13.852
38466W        W 3726  36.937   6.952  10.919
38467W        W 3727   2.345  17.503  11.190
38468W        W 3728  19.851  41.512  12.513
38469W        W 3729  18.644  44.192  12.046
38470W        W 3730  40.093  13.815   4.840
38471W        W 3731   3.921   8.255  13.916
38472W        W 3732  38.657  16.279  14.815
38473W        W 3733  25.930  15.751  10.870
38474W        W 3734  29.444   0.877   3.685
38475W        W 3735  37.397   9.600   3.666
38476W        W 3736  40.051  38.966   0.024
38477W        W 3737   3.615  29.007  11.217
38478W        W 3738  31.905  26.551  12.405
38479W        W 3739  43.325  33.841  10.451
38480W        W 3740   5.239  41.312  13.116
38481W        W 3741  10.213   5.513  12.890
38482W        W 3742  37.149  13.264   0.743
38483W        W 3743  21.264   0.770   0.919
38484W        W 3744   1.703  37.593  11.695
38485W        W 3745  40.698  16.970  11.901
38486W        W 3746  37.865  34.625  14.787
38487W        W 3747  23.300   7.656   3.221
38488W        W 3748  41.527  39.948   4.111
38489W        W 3749  21.716  30.730  11.503
38490W        W 3750   7.735  22.018   0.431
38491W        W 3751   0.341  24.043   2.321
38492W        W 3752  39.552  23.449   2.261
38493W        W 3753  30.115  24.719  14.701
38494W        W 3754  14.231  21.735   4.129
38495W        W 3755  43.134  33.006  11.221
38496W        W 3756  13.817  32.959   1.409
38497W        W 3757  19.252  41.735   3.327
38498W        W 3758   9.285  25.413   4.551
38499W        W 3759  18.124   5.245  10.651
38500W        W 3760  22.688  37.389   3.413
38501W        W 3761  25.758   0.963  11.601
38502W        W 3762  24.430  18.608  12.761
38503W        W 3763  17.342  21.416  13.340
38504W        W 3764   3.796   1.904   1.897
38505W        W 3765  26.499  18.624   0.262
38506W        W 3766  11.116  22.601  14.568
38507W        W 3767  16.186   9.617  14.259
38508W        W 3768  21.981  19.345  13.920
38509W        W 3769   0.259  43.726  14.135
38510W        W 3770  21.594  38.131  10.794
38511W        W 3771   7.321  44.628  11.644
38512W        W 3772  12.691  19.544  14.784
38513W        W 3773  44.828  14.814   0.490
38514W        W 3774  24.947   8.092   0.208
38515W        W 3775  21.971  29.690  12.489
38516W        W 3776  31.861  22.737  10.371
38517W        W 3777   6.323  26.680   1.221
38518W        W 3778  36.351  20.288  14.471
38519W        W 3779  27.164  35.294   2.437
38520W        W 3780  31.077   0.768   3.777
38521W        W 3781  39.453   7.849  13.369
38522W        W 3782  20.190  18.562   1.374
38523W        W 3783  12.619  33.398   2.599
38524W        W 3784  39.490  29.653  10.730
38525W        W 3785  39.580  20.522  12.738
38526W        W 3786  24.513   0.783   0.006
38527W        W 3787   4.182  11.264  14.927
38528W        W 3788  15.244  21.983   0.755
38529W        W 3789  25.542  23.146   4.882
38530W        W 3790   0.119   3.508  12.846
38531W        W 3791  16.345  20.936   0.834
38532W        W 3792  23.000  21.795   1.358
38533W        W 3793  17.915  43.504  11.215
38534W        W 3794  38.847  30.578   1.313
38535W        W 3795  22.504  43.776   2.695
38536W        W 3796   7.093  18.315  12.878
38537W        W 3797  19.237  29.457   3.606
38538W        W 3798  12.841   9.432   1.632
38539W        W 3799  18.080  11.720   3.074
38540W        W 3800  25.849  18.652   0.871
38541W        W 3801  27.536   9.652  10.714
38542W        W 3802  24.144  16.669  14.106
38543W        W 3803  24.587  14.562   3.286
38544W        W 3804  30.345   7.816  13.516
38545W        W 3805   1.699  12.188   1.292
38546W        W 3806   3.913  28.935  14.577
38547W        W 3807   6.530  37.355   1.206
38548W        W 3808   8.245  10.560   0.247
38549W        W 3809  22.651  15.898   4.526
38550W        W 3810  20.347  17.267   4.492
38551W        W 3811  22.047  19.090   3.991
38552W        W 3812  36.968  10.897   2.854
38553W        W 3813  40.506   1.623  12.467
38554W        W 3814  27.910  31.998   2.626
38555W        W 3815  13.900  43.992  11.944
38556W        W 3816  31.620  20.555  11.517
38557W        W 3817   0.743  14.136   2.702
38558W        W 3818  12.374  14.197   2.284
38559W        W 3819   9.282  23.029   3.562
38560W        W 3820  27.144  23.911  14.867
38561W        W 3821  35.993   8.975  10.338
38562W        W 3822  27.734  24.648   2.289
38563W        W 3823  39.311  18.111   4.364
38564W        W 3824  38.533  38.154  13.451
38565W        W 3825  31.170  14.326  14.800
38566W        W 3826   1.756  27.039  10.812
38567W        W 3827  17.593  27.733  13.046
38568W        W 3828   0.502   4.379  12.043
38569W        W 3829   7.980  17.619   0.547
38570W        W 3830  15.276  41.599   3.605
38571W        W 3831   5.426  28.998   4.839
38572W        W 3832  29.683  41.843   2.444
38573W        W 3833  36.491  44.717   4.056
38574W        W 3834  14.566  21.758   2.438
38575W        W 3835   5.222  18.863  14.535
38576W        W 3836  40.341  34.888   3.857
38577W        W 3837   8.826   9.797  13.509
38578W        W 3838  36.970  26.597  12.670
38579W        W 3839  29.413  33.379  13.751
38580W        W 3840  43.001   0.379  12.376
38581W        W 3841  25.654  32.837   2.781
38582W        W 3842   2.154  14.335  11.428
38583W        W 3843  30.802   9.604   1.748
38584W        W 3844  20.630  40.372  13.839
38585W        W 3845   7.952  41.268  12.343
38586W        W 3846  40.750   9.625  11.120
38587W        W 3847  44.007  11.953  11.503
38588W        W 3848  14.783  32.498   2.160
38589W        W 3849   8.357  41.827  10.599
38590W        W 3850  18.233  23.223   0.412
38591W        W 3851  23.516  41.363   3.733
38592W        W 3852  41.021  23.471   1.646
38593W        W 3853  22.725   7.177   2.686
38594W        W 3854  25.934  33.144  12.977
38595W        W 3855  14.861  15.755  11.673
38596W        W 3856  24.279   2.761   2.071
38597W        W 3857   0.916  10.628   4.424
38598W        W 3858  20.840  26.095  10.843
38599W        W 3859  10.695  12.585  11.528
38600W        W 3860   2.808  25.088   1.415
38601W        W 3861  17.032  14.408  14.310
38602W        W 3862  22.007  17.238  13.315
38603W        W 3863  32.055  24.747   1.256
38604W        W 3864  44.561  20.970  14.796
38605W        W 3865  38.730  43.776  11.730
38606W        W 3866  30.887   8.260  10.628
38607W        W 3867  12.033  20.316  11.577
38608W        W 3868  43.782   9.063  14.828
38609W        W 3869  22.194  42.849  11.241
38610W        W 3870  39.585   2.589  14.315
38611W        W 3871  32.026  31.456   0.171
38612W        W 3872   6.705  35.905  13.072
38613W        W 3873  26.298  33.616  13.185
38614W        W 3874   0.700  40.052  11.970
38615W        W 3875  26.251  13.556   2.761
38616W        W 3876  13.096  12.266  14.070
38617W        W 3877  11.142  10.565  13.395
38618W        W 3878  11.598  26.399  12.591
38619W        W 3879  17.563   1.236  11.100
38620W        W 3880  21.676  25.320   2.720
38621W        W 3881   2.136   0.252  13.966
38622W        W 3882  22.083  39.361  12.222
38623W        W 3883  44.494  20.144   0.140
38624W        W 3884  37.935   1.455  13.928
38625W        W 3885   0.781   1.423   2.891
38626W        W 3886  23.613  44.351  11.686
38627W        W 3887  43.319   4.672   2.642
38628W        W 3888  38.251  31.020   1.738
38629W        W 3889  14.262  37.324  11.791
38630W        W 3890   2.821   7.036  10.655
38631W        W 3891  23.947  31.581   4.629
38632W        W 3892  43.357  23.730  11.488
38633W        W 3893  43.900  30.155  13.288
38634W        W 3894  10.095  33.320   0.630
38635W        W 3895  38.261   5.715   4.264
38636W        W 3896   5.697   6.784   3.854
38637W        W 3897  28.899  23.380  12.853
38638W        W 3898  38.611   7.915  11.882
38639W        W 3899  43.454  27.919   2.483
38640W        W 3900  17.447   9.116   0.236
38641W        W 3901   3.629  39.846   0.740
38642W        W 3902   7.251  18.482   4.833
38643W        W 3903  12.101  27.111   3.655
38644W        W 3904   2.013  36.804   1.575
38645W        W 3905  13.340  27.986   2.842
38646W        W 3906  41.450  15.901   2.423
38647W        W 3907   8.838  10.646   1.861
38648W        W 3908   7.156   9.436   0.799
38649W        W 3909   8.909  24.120  13.143
38650W        W 3910  10.808   8.717  13.685
38651W        W 3911  38.729  23.539   0.181
38652W        W 3912  17.643  18.511  11.138
38653W        W 3913  22.091  29.383  14.843
38654W        W 3914  16.671  10.084   3.326
38655W        W 3915  35.632  37.339   0.317
38656W        W 3916  35.408   9.400  14.857
38657W        W 3917  17.458   6.971   4.525
38658W        W 3918   8.324  10.951   3.790
38659W        W 3919  29.453  32.819   4.116
38660W        W 3920  20.479   0.215  12.960
38661W        W 3921  18.881  11.296  11.102
38662W        W 3922  37.010  34.952   0.534
38663W        W 3923  30.473  11.386   1.935
38664W        W 3924  27.618  42.907   0.025
38665W        W 3925   5.638  29.185  12.948
38666W        W 3926  20.219   4.649  10.596
38667W        W 3927  21.228  27.926  12.567
38668W        W 3928  43.574   7.617  13.687
38669W        W 3929  20.165  19.519  14.984
38670W        W 3930  21.169  10.193  12.124
38671W        W 3931  27.255  17.429   4.108
38672W        W 3932  12.043  10.507  14.591
38673W        W 3933  30.832   6.131  13.554
38674W        W 3934  11.458  30.170  11.614
38675W        W 3935   3.932  17.857   0.038
38676W        W 3936   9.920  18.226   4.397
38677W        W 3937  17.785   6.701  12.617
38678W        W 3938  27.714  12.089   2.665
38679W        W 3939  17.069  31.585  11.134
38680W        W 3940  22.236  20.812   1.206
38681W        W 3941   2.027  12.149  12.848
38682W        W 3942   6.031   5.770   1.774
38683W        W 3943   0.555  26.382  14.796
38684W        W 3944  30.659   5.288  10.605
38685W        W 3945  35.385   9.234   2.182
38686W        W 3946  11.181  43.907  12.203
38687W        W 3947  37.450   8.052   2.751
38688W        W 3948  25.892  36.374  10.156
38689W        W 3949  39.384  27.028   1.745
38690W        W 3950  18.574  42.372  12.549
38691W        W 3951  43.417  28.619  14.525
38692W        W 3952  15.646   0.682   1.427
38693W        W 3953   9.007  39.361  12.499
38694W        W 3954  29.753  22.632  14.511
38695W        W 3955  36.390  10.397  11.548
38696W        W 3956  18.377  15.282  14.262
38697W        W 3957  33.241  13.150   2.777
38698W        W 3958  15.852  16.125   1.773
38699W        W 3959  27.622  19.885  13.115
38700W        W 3960  39.658  39.388   0.756
38701W        W 3961   8.719  11.878  14.815
38702W        W 3962  12.614  18.718   0.852
38703W        W 3963  21.854  25.198   3.722
38704W        W 3964   7.688  23.866  12.430
38705W        W 3965   9.693  16.792  14.289
38706W        W 3966   7.861  42.160   4.145
38707W        W 3967  31.738  41.285   4.202
38708W        W 3968  26.894  29.012  14.442
38709W        W 3969  23.618  41.799  12.750
38710W        W 3970  11.183  32.482  13.907
38711W        W 3971  40.735   8.252   1.206
38712W        W 3972  36.370  34.317   0.531
38713W        W 3973  14.302  39.862  13.398
38714W        W 3974   3.274  27.707   3.108
38715W        W 3975  36.788  25.465   4.602
38716W        W 3976   0.868  27.371   2.170
38717W        W 3977  32.384  40.012   2.722
38718W        W 3978   3.323  36.421  13.026
38719W        W 3979   3.696  19.615   1.506
38720W        W 3980   2.878   3.394  12.929
38721W        W 3981  31.558  32.655   3.292
38722W        W 3982  40.427  26.850   1.712
38723W        W 3983  34.596   3.898   2.200
38724W        W 3984  20.295  23.071  14.577
38725W        W 3985  24.753   7.665   0.452
38726W        W 3986  22.721  21.922  11.221
38727W        W 3987   4.382  33.991  13.849
38728W        W 3988  16.255  38.479  10.390
38729W        W 3989  17.484  14.684   2.832
38730W        W 3990  38.911  26.454   9.701
38731W        W 3991  27.969  40.260  10.700
38732W        W 3992  40.983  41.493  11.178
38733W        W 3993  32.378  21.316  13.523
38734W        W 3994  25.904  35.870   0.851
38735W        W 3995  36.415   1.440  14.528
38736W        W 3996  20.173  28.183   3.348
38737W        W 3997  14.236  42.596  14.011
38738W        W 3998  44.791  15.965   5.537
38739W        W 3999  39.661  28.484   0.294
38740W        W 4000   7.302  26.128  13.304
38741W        W 4001   2.999  35.666  11.103
38742W        W 4002  13.598   5.693  12.626
38743W        W 4003   3.967  39.113  12.768
38744W        W 4004  13.069  16.882   0.840
38745W        W 4005  24.997  34.488  11.909
38746W        W 4006  27.524  36.353   3.529
38747W        W 4007  19.648   1.805   3.320
38748W        W 4008  38.797  34.275   2.919
38749W        W 4009  41.298   4.691  14.299
38750W        W 4010   0.386  37.119   0.397
38751W        W 4011  12.878  18.650  13.058
38752W        W 4012  10.646   2.061  11.499
38753W        W 4013  28.699  33.581   4.138
38754W        W 4014  31.549  30.892   3.700
38755W        W 4015  40.772   0.387   1.192
38756W        W 4016  37.623  34.913  13.084
38757W        W 4017   5.704  44.911   2.786
38758W        W 4018  29.473  38.906   3.919
38759W        W 4019  17.100   3.929  10.718
38760W        W 4020  40.345  23.304  14.008
38761W        W 4021  13.581   1.647  11.640
38762W        W 4022  24.724  23.301   1.783
38763W        W 4023  33.358  30.440   1.745
38764W        W 4024  35.713   2.714   1.114
38765W        W 4025   8.437  16.470  11.224
38766W        W 4026  27.990  41.853  11.560
38767W        W 4027   7.897  22.151  13.323
38768W        W 4028  32.446   7.381  10.507
38769W        W 4029   6.474   4.940   5.080
38770W        W 4030   4.771  31.187   0.692
38771W        W 4031  33.993   8.192  14.118
38772W        W 4032  34.584  41.577   3.225
38773W        W 4033   9.339  13.326  14.325
38774W        W 4034   2.971  13.213  14.795
38775W        W 4035   7.668  21.740  14.957
38776W        W 4036  38.584  21.096  12.790
38777W        W 4037   6.274  14.600  14.558
38778W        W 4038   3.477  31.619  13.432
38779W        W 4039  40.858  30.239   1.785
38780W        W 4040  36.863  28.091   3.297
38781W        W 4041  36.157  34.116   2.798
38782W        W 4042  44.508   3.367  11.161
38783W        W 4043  24.736  24.072  11.328
38784W        W 4044  36.892  30.161  12.458
38785W        W 4045  23.602  29.138  10.685
38786W        W 4046  43.652   3.001  11.105
38787W        W 4047  30.670  17.223   3.197
38788W        W 4048  22.922  36.002   3.202
38789W        W 4049  42.801  36.807   2.321
38790W        W 4050  19.237   4.681   4.677
38791W        W 4051  26.507  35.181   2.117
38792W        W 4052  21.770  11.782  14.411
38793W        W 4053  24.374  37.033   0.723
38794W        W 4054  36.835  38.539   4.871
38795W        W 4055   8.706  12.028   3.291
38796W        W 4056  15.734  40.316   4.154
38797W        W 4057  11.731  34.971  14.290
38798W        W 4058   9.851  12.743  11.875
38799W        W 4059   3.924  39.100  12.012
38800W        W 4060  40.485  11.592   1.442
38801W        W 4061  21.499  26.261   2.778
38802W        W 4062  30.722   5.785  13.957
38803W        W 4063   2.137  39.336   1.881
38804W        W 4064   7.234  22.150   0.297
38805W        W 4065   0.037  34.387   4.135
38806W        W 4066  17.604  34.014  10.567
38807W        W 4067  10.722  14.903  11.435
38808W        W 4068  14.186  31.615  10.947
38809W        W 4069  28.258  10.808  12.908
38810W        W 4070  42.222  21.506  12.577
38811W        W 4071   9.099  32.025  12.476
38812W        W 4072  10.622  10.104  12.438
38813W        W 4073  41.334  40.024  14.720
38814W        W 4074  12.151  23.995   0.411
38815W        W 4075   8.832  34.866  10.637
38816W        W 4076  37.498  24.012   3.520
38817W        W 4077  36.666  25.107  11.682
38818W        W 4078   7.421   7.515   0.805
38819W        W 4079  16.303   9.709   2.624
38820W        W 4080  31.587  33.222   0.870
38821W        W 4081  37.965  34.351   4.986
38822W        W 4082  40.649  44.802  14.275
38823W        W 4083   9.852  22.663   0.380
38824W        W 4084  23.884  25.469  12.830
38825W        W 4085  31.864  15.314   4.043
38826W        W 4086  36.917  32.652  14.975
38827W        W 4087  38.663  21.126  14.257
38828W        W 4088  38.810  34.788   2.968
38829W        W 4089  21.107  25.737   3.638
38830W        W 4090  26.501  29.164   4.303
38831W        W 4091  21.698  32.080  14.921
38832W        W 4092  37.603  23.768  13.891
38833W        W 4093  40.395   1.926  12.061
38834W        W 4094  18.698  16.214  13.522
38835W        W 4095  17.883  36.542  13.587
38836W        W 4096  33.879  32.088  14.780
38837W        W 4097   1.625   4.910  11.566
38838W        W 4098  33.588  24.926  11.626
38839W        W 4099  25.127  14.822   3.155
38840W        W 4100  27.979  11.861   3.481
38841W        W 4101  26.227  43.384  14.706
38842W        W 4102  24.957  33.891  13.608
38843W        W 4103   6.876   8.633  10.316
38844W        W 4104  14.187  21.256  11.240
38845W        W 4105   3.180  34.541   2.815
38846W        W 4106  44.211  21.704  10.719
38847W        W 4107  11.550  17.588   4.861
38848W        W 4108   1.909  18.639  12.961
38849W        W 4109  12.502  35.317  13.401
38850W        W 4110  22.961  18.061   1.771
38851W        W 4111  17.433  35.992   3.609
38852W        W 4112  38.996  26.652  14.820
38853W        W 4113  43.344   6.171  13.963
38854W        W 4114  38.806  26.055  13.483
38855W        W 4115  39.741  21.171   4.852
38856W        W 4116  32.437  10.433  11.994
38857W        W 4117  19.311   6.210   3.107
38858W        W 4118  17.850   4.947   1.776
38859W        W 4119  19.694  28.065   4.038
38860W        W 4120  34.933  44.486   0.848
38861W        W 4121  41.543  14.776   3.356
38862W        W 4122  12.889  27.997  14.204
38863W        W 4123  44.824   9.143  11.460
38864W        W 4124  10.696   3.272  13.055
38865W        W 4125   4.433  33.676  13.413
38866W        W 4126  35.310  36.443  11.404
38867W        W 4127  35.656  27.335   1.817
38868W        W 4128  26.685  13.349   3.188
38869W        W 4129  41.251  33.273   1.522
38870W        W 4130  21.245  36.381  12.914
38871W        W 4131  20.157  11.830  10.748
38872W        W 4132   2.936  18.056   4.761
38873W        W 4133  29.433  19.194   4.753
38874W        W 4134  10.026   5.396   3.185
38875W        W 4135  42.302  44.699  13.106
38876W        W 4136  37.863  26.071  12.522
38877W        W 4137  28.437  41.627  14.224
38878W        W 4138  38.392  11.136   0.193
38879W        W 4139   4.884  18.586   2.292
38880W        W 4140  42.695  34.312  14.964
38881W        W 4141  34.368  17.342   3.802
38882W        W 4142  35.927  15.566  12.343
38883W        W 4143   3.203  14.974  14.895
38884W        W 4144  13.119  34.084   1.294
38885W        W 4145  39.104   2.859   4.355
38886W        W 4146  44.943  39.032   3.283
38887W        W 4147  12.360  16.799   2.276
38888W        W 4148  38.827   6.362  13.396
38889W        W 4149  23.565  25.764  13.080
38890W        W 4150  27.633  14.184  12.911
38891W        W 4151  31.770  34.689  11.532
38892W        W 4152  26.499  28.113  12.610
38893W        W 4153  39.704   9.867  13.917
38894W        W 4154  43.997  21.572   0.746
38895W        W 4155  11.436  13.827  14.903
38896W        W 4156   9.237  16.311  12.880
38897W        W 4157  20.592  11.758  11.841
38898W        W 4158  37.325   0.824  13.379
38899W        W 4159   8.169   9.271   0.435
38900W        W 4160   3.121  20.213   4.179
38901W        W 4161  25.965  37.444  12.034
38902W        W 4162  15.548   5.869   5.070
38903W        W 4163  40.007   3.004   4.176
38904W        W 4164  36.561   6.765   3.747
38905W        W 4165  18.510  39.781   1.459
38906W        W 4166  28.912  21.743  11.495
38907W        W 4167  39.045  23.565  13.533
38908W        W 4168   5.780  21.733   3.933
38909W        W 4169   5.950  17.226  11.807
38910W        W 4170  23.034  25.502   0.810
38911W        W 4171  43.263  15.789  13.710
38912W        W 4172  15.004  39.523   3.745
38913W        W 4173  20.769  12.575  11.612
38914W        W 4174   7.744  30.789   3.691
38915W        W 4175  29.101  16.657   1.696
38916W        W 4176  43.948  12.088   2.882
38917W        W 4177  30.878  26.899   0.825
38918W        W 4178  21.794  26.360  14.481
38919W        W 4179  23.194  37.932  10.766
38920W        W 4180  28.396  38.083  14.313
38921W        W 4181  10.133   3.014  14.553
38922W        W 4182  37.799  19.553  13.473
38923W        W 4183  21.797  14.211  12.869
38924W        W 4184  20.280  43.988  12.900
38925W        W 4185  21.240   5.893  12.355
38926W        W 4186  22.099  36.801   2.667
38927W        W 4187  33.554  12.795   2.925
38928W        W 4188   3.770   0.989   4.588
38929W        W 4189  22.292  26.729   3.342
38930W        W 4190   7.027  29.613  11.854
38931W        W 4191  15.395  10.204   4.522
38932W        W 4192  39.914  10.362   1.765
38933W        W 4193   6.477  10.547   2.562
38934W        W 4194  37.681  28.465  12.755
38935W        W 4195  24.398  23.350   3.694
38936W        W 4196   9.772  18.667   0.713
38937W        W 4197  42.750  32.117   0.388
38938W        W 4198  34.369  21.081   1.402
38939W        W 4199   6.892  19.583   0.545
38940W        W 4200  20.760  37.470   0.311
38941W        W 4201  38.396  16.819  11.522
38942W        W 4202  29.368  33.115   0.580
38943W        W 4203  27.604  29.661   3.273
38944W        W 4204   0.874   0.755  12.871
38945W        W 4205  30.405  18.970  14.058
38946W        W 4206  19.247  13.391  14.723
38947W        W 4207  28.480  38.333   2.673
38948W        W 4208  40.623  40.097  13.465
38949W        W 4209  41.567  28.470   2.903
38950W        W 4210   0.706  29.021  14.587
38951W        W 4211   1.295  40.370   4.762
38952W        W 4212   7.418  19.472   4.625
38953W        W 4213  39.919   4.772  14.870
38954W        W 4214   1.822  15.599   1.766
38955W        W 4215  18.828  24.271   4.072
38956W        W 4216   0.730  17.187  11.551
38957W        W 4217  32.791  12.055   4.720
38958W        W 4218   6.310  32.625  10.216
38959W        W 4219  40.295  34.778   2.279
38960W        W 4220  40.489  34.091  12.491
38961W        W 4221   7.837  43.983  10.928
38962W        W 4222  40.486  12.283   4.726
38963W        W 4223  41.683  32.339  14.378
38964W        W 4224  36.443  32.720  11.822
38965W        W 4225  17.286  38.577  11.540
38966W        W 4226  19.958  12.268  11.465
38967W        W 4227  28.620  37.084  10.925
38968W        W 4228   5.820   4.242  14.547
38969W        W 4229   5.948  29.021  14.236
38970W        W 4230   6.207  36.069   2.170
38971W        W 4231  34.078   2.500   5.005
38972W        W 4232   5.549  15.958  12.061
38973W        W 4233  10.320  29.026   0.955
38974W        W 4234   5.689  32.034  10.472
38975W        W 4235  12.591  36.453  13.777
38976W        W 4236  20.282   4.741  12.870
38977W        W 4237  12.248  12.185  13.078
38978W        W 4238  14.861  20.297   1.807
38979W        W 4239  36.797  40.492   2.938
38980W        W 4240   1.989  23.220   4.578
38981W        W 4241  28.064  44.823   4.310
38982W        W 4242   4.738  17.086  11.063
38983W        W 4243  14.146  41.581  13.939
38984W        W 4244  36.053  30.337   1.891
38985W        W 4245  37.054  16.676   3.604
38986W        W 4246  16.411  16.284  13.188
38987W        W 4247  22.940   0.992  14.046
38988W        W 4248   8.603   4.480   2.767
38989W        W 4249  21.531   7.107  14.793
38990W        W 4250  43.533  27.259  12.656
38991W        W 4251  35.824  18.697   4.551
38992W        W 4252  20.282  39.540  13.736
38993W        W 4253  23.186  23.250   1.192
38994W        W 4254  23.078  31.106   3.968
38995W        W 4255  15.082   2.476  14.890
38996W        W 4256   1.054  21.226   3.154
38997W        W 4257  37.051  12.576  12.446
38998W        W 4258   4.938  21.358  12.493
38999W        W 4259  35.905  11.813  12.836
39000W        W 4260   9.836  25.538  12.831
39001W        W 4261   2.471  24.373   2.365
39002W        W 4262  42.011  32.897  14.968
39003W        W 4263  21.910  40.179  12.000
39004W        W 4264  26.018   9.915  14.781
39005W        W 4265  24.598  42.463   4.949
39006W        W 4266   7.818   6.768  14.731
39007W        W 4267  36.539   5.529  12.499
39008W        W 4268   7.867  18.555  11.299
39009W        W 4269  15.887  22.542   3.148
39010W        W 4270   8.839  38.414  13.556
39011W        W 4271   9.215  32.923  10.854
39012W        W 4272  21.475  18.393  10.214
39013W        W 4273   8.761  25.533   4.984
39014W        W 4274  39.114   5.954  14.332
39015W        W 4275  38.403  11.292   2.642
39016W        W 4276  41.085  16.770  11.620
39017W        W 4277  43.494  32.181  10.109
39018W        W 4278  34.032   2.961   1.822
39019W        W 4279   8.915  14.616  11.209
39020W        W 4280  32.900  36.961  12.463
39021W        W 4281  32.847  33.587   0.992
39022W        W 4282  44.770  30.889   4.265
39023W        W 4283   2.677  15.594  12.676
39024W        W 4284   3.914   9.219   4.803
39025W        W 4285  40.475  35.519  14.344
39026W        W 4286  32.130  16.323   1.774
39027W        W 4287  30.444  39.738  11.172
39028W        W 4288  29.445  41.341   0.403
39029W        W 4289  36.216  29.623   5.120
39030W        W 4290  44.777   9.392  10.160
39031W        W 4291  19.382  36.696  13.366
39032W        W 4292  44.748   0.029  13.895
39033W        W 4293   3.947  24.607  14.971
39034W        W 4294  28.617  38.787   2.454
39035W        W 4295  38.796  26.479   3.087
39036W        W 4296  44.532  38.744   3.820
39037W        W 4297  11.951  30.541   4.087
39038W        W 4298  22.516   1.764  13.894
39039W        W 4299  24.729   3.269  14.979
39040W        W 4300  11.707   4.706  10.900
39041W        W 4301  13.238  32.628   2.797
39042W        W 4302  31.467  41.576   3.867
39043W        W 4303  23.636  13.580   4.280
39044W        W 4304  11.881  32.891  14.378
39045W        W 4305   4.176  44.768   4.770
39046W        W 4306  17.676   3.970  13.057
39047W        W 4307  24.891  36.888  11.978
39048W        W 4308  32.962   4.792  11.129
39049W        W 4309  16.229   1.468   2.272
39050W        W 4310  13.339   0.704   4.631
39051W        W 4311  41.005  24.960  14.963
39052W        W 4312  36.490  26.136   1.422
39053W        W 4313  31.013  32.924   4.133
39054W        W 4314   0.423  26.582  12.947
39055W        W 4315  33.798  37.826   4.514
39056W        W 4316  15.085  11.178  14.383
39057W        W 4317   6.346  39.373   2.133
39058W        W 4318   9.582  44.223   2.611
39059W        W 4319  36.036  24.174  13.059
39060W        W 4320  28.478  43.499   2.363
39061W        W 4321  14.661  26.699  13.509
39062W        W 4322  11.232  40.936  12.590
39063W        W 4323   2.043  35.859  12.061
39064W        W 4324  42.949  13.076   2.837
39065W        W 4325  40.377  24.964   3.641
39066W        W 4326   1.290  17.675  14.804
39067W        W 4327  15.680   4.438   4.886
39068W        W 4328  15.135  43.116  13.313
39069W        W 4329  44.006  38.515  13.060
39070W        W 4330  29.055  28.571   4.654
39071W        W 4331  41.243   0.282  12.128
39072W        W 4332  22.732  20.186   2.677
39073W        W 4333  30.549  26.068   1.828
39074W        W 4334  43.883   3.873  13.513
39075W        W 4335  31.361  44.057  12.055
39076W        W 4336  36.530  17.805  10.932
39077W        W 4337  17.775  27.934  12.080
39078W        W 4338  10.296  17.761   2.185
39079W        W 4339  35.816  15.135  13.156
39080W        W 4340  30.215  31.572   3.027
39081W        W 4341  30.913  23.656   3.367
39082W        W 4342   1.871  28.476  10.551
39083W        W 4343   7.923  33.570  13.314
39084W        W 4344  40.868  39.306   3.902
39085W        W 4345  28.943  30.322   1.162
39086W        W 4346  10.433  21.671   4.471
39087W        W 4347   0.295  25.928  14.714
39088W        W 4348   3.914  40.850  13.591
39089W        W 4349  22.529  32.780  11.822
39090W        W 4350   4.067   9.043  10.768
39091W        W 4351  15.243  30.545   1.250
39092W        W 4352   5.211  41.224   1.394
39093W        W 4353   3.190  12.266   0.029
39094W        W 4354  33.540  19.958  12.606
39095W        W 4355   1.214  21.150   0.778
39096W        W 4356  31.281   4.119   3.345
39097W        W 4357  44.611  35.330  11.604
39098W        W 4358  11.818   7.249   4.502
39099W        W 4359  41.695  17.658  11.046
39100W        W 4360  14.198  16.080   4.912
39101W        W 4361  11.985  41.138  11.526
39102W        W 4362  32.178  29.505  12.476
39103W        W 4363  39.547  10.083  10.860
39104W        W 4364  21.131  38.840  12.904
39105W        W 4365  28.882  18.122   1.606
39106W        W 4366  44.194  25.260   2.651
39107W        W 4367   0.855   0.372  14.166
39108W        W 4368  42.906  32.715   4.637
39109W        W 4369   1.966  37.006   3.772
39110W        W 4370   4.132  17.361  10.264
39111W        W 4371  44.714  19.531   0.827
39112W        W 4372  12.351  31.729   0.488
39113W        W 4373  25.240  35.952   5.319
39114W        W 4374  19.752   2.418  12.721
39115W        W 4375  16.758  29.881  11.901
39116W        W 4376  25.085  34.564   0.375
39117W        W 4377  15.788  18.065   0.304
39118W        W 4378   5.352  29.254   0.306
39119W        W 4379  10.654  21.459  13.466
39120W        W 4380   0.266  27.347  14.902
39121W        W 4381  21.039  29.138  13.884
39122W        W 4382   6.132  17.358   0.926
39123W        W 4383  20.739  34.514  11.460
39124W        W 4384   1.390  20.025  10.632
39125W        W 4385  11.338  31.045  11.994
39126W        W 4386  24.585  30.932   3.329
39127W        W 4387  24.018  18.811   1.452
39128W        W 4388   1.774  24.287  11.703
39129W        W 4389  15.865  32.621  12.434
39130W        W 4390  38.110   9.870   1.884
39131W        W 4391  15.866  37.025   2.718
39132W        W 4392  11.629  15.889  14.246
39133W        W 4393   8.868  36.377   5.217
39134W        W 4394   9.745  43.324   3.023
39135W        W 4395  24.691  28.069  13.815
39136W        W 4396  20.045  27.108  13.030
39137W        W 4397   7.681   4.716   1.177
39138W        W 4398  11.085  20.549  13.008
39139W        W 4399  21.326  26.080   2.310
39140W        W 4400  32.744  10.385   2.305
39141W        W 4401  44.294  29.380  14.192
39142W        W 4402  15.006  30.632   4.310
39143W        W 4403  42.538  37.570  11.433
39144W        W 4404  35.835   7.818   1.811
39145W        W 4405  27.165  34.342   2.831
39146W        W 4406  17.248  37.629  13.974
39147W        W 4407  42.030  34.253  12.346
39148W        W 4408  27.492  16.486  13.583
39149W        W 4409   2.854  28.349  12.782
39150W        W 4410  29.611   8.707  11.644
39151W        W 4411   4.218   5.747   2.308
39152W        W 4412  33.193  15.065   4.288
39153W        W 4413  19.321  11.285   4.692
39154W        W 4414  15.060  17.853   4.039
39155W        W 4415  33.445  44.299  14.805
39156W        W 4416  38.652   6.758   1.440
39157W        W 4417  39.485  31.067   0.851
39158W        W 4418  25.931   7.935   4.171
39159W        W 4419   5.736  15.805  11.601
39160W        W 4420  17.772  12.351  14.243
39161W        W 4421  13.922  12.716   4.134
39162W        W 4422  15.329  44.416  10.616
39163W        W 4423  19.593  23.955   1.950
39164W        W 4424  32.065  15.686   4.385
39165W        W 4425  14.716   7.744   1.973
39166W        W 4426  21.640  26.427  13.791
39167W        W 4427  12.697  40.987   4.284
39168W        W 4428   8.811  17.336  14.035
39169W        W 4429  20.461  21.502  12.389
39170W        W 4430  10.300  29.263   2.187
39171W        W 4431  30.690  23.591  13.063
39172W        W 4432  38.028  16.263  11.567
39173W        W 4433  23.692  22.963   0.008
39174W        W 4434  37.606  20.605   4.474
39175W        W 4435  15.843   0.370   1.767
39176W        W 4436  31.957   4.572  13.371
39177W        W 4437  42.102  36.867   2.844
39178W        W 4438  44.788  11.302  12.109
39179W        W 4439  32.125  27.095   4.322
39180W        W 4440  18.886  22.582   4.307
39181W        W 4441  23.179  15.638  11.636
39182W        W 4442  38.431  13.590   0.934
39183W        W 4443  44.360  25.453   3.976
39184W        W 4444  10.133  32.885  11.420
39185W        W 4445  14.180   8.220  10.329
39186W        W 4446  24.734  35.420   2.871
39187W        W 4447   8.464  30.966  11.950
39188W        W 4448  15.120  19.162   3.796
39189W        W 4449  12.853  10.352   3.262
39190W        W 4450  32.556  40.802  11.566
39191W        W 4451  41.496  36.976   1.896
39192W        W 4452   8.436   9.683  10.014
39193W        W 4453  20.950   2.341  12.343
39194W        W 4454  29.203  40.818  12.147
39195W        W 4455  27.495  20.967   4.117
39196W        W 4456  35.467  31.716   2.772
39197W        W 4457  37.166   6.829   1.743
39198W        W 4458  43.184  34.969   2.737
39199W        W 4459  25.001  34.547   4.650
39200W        W 4460   5.417   5.467   2.707
39201W        W 4461  44.467  39.340  11.597
39202W        W 4462  15.938  30.024  14.014
39203W        W 4463  39.396  42.934  11.670
39204W        W 4464   1.673  33.543  11.118
39205W        W 4465  33.466  29.026   1.404
39206W        W 4466   9.675  24.718  11.878
39207W        W 4467  12.204  39.396   1.016
39208W        W 4468   8.403  40.545  12.935
39209W        W 4469  37.636  35.774  11.510
39210W        W 4470  34.072  27.029  12.492
39211W        W 4471  42.453   6.610  12.979
39212W        W 4472   1.985   3.747  12.969
39213W        W 4473  12.798  19.535  10.648
39214W        W 4474  17.170   5.802  13.434
39215W        W 4475   5.517  19.235   3.756
39216W        W 4476  44.368  36.071  13.919
39217W        W 4477  38.198  37.796  14.809
39218W        W 4478  13.017  33.478  11.153
39219W        W 4479  31.086  25.633  13.788
39220W        W 4480  31.010  18.159  14.822
39221W        W 4481  19.093   0.027   4.657
39222W        W 4482  12.050  19.637   1.731
39223W        W 4483  38.704   6.516  12.493
39224W        W 4484  24.214  41.952  14.960
39225W        W 4485   3.170  37.250   4.655
39226W        W 4486  40.538  18.645  13.362
39227W        W 4487   8.518  37.333  14.721
39228W        W 4488   2.171  14.797   3.651
39229W        W 4489   6.445  15.844  10.312
39230W        W 4490  32.612  12.235  10.719
39231W        W 4491  44.019  15.074  11.628
39232W        W 4492  32.032   3.136   1.915
39233W        W 4493   9.533  20.559   1.700
39234W        W 4494  15.264  41.515   1.871
39235W        W 4495  13.048  31.881   2.278
39236W        W 4496  14.353   6.035  14.705
39237W        W 4497   5.749  10.211   2.233
39238W        W 4498  21.960  28.118   3.667
39239W        W 4499  36.965  15.127   3.744
39240W        W 4500   3.692  40.839   4.611
39241W        W 4501  13.332  20.018   2.765
39242W        W 4502  27.470  35.866  14.724
39243W        W 4503  43.552   9.705   4.648
39244W        W 4504   4.714  41.317  13.094
39245W        W 4505  23.478  17.101  13.539
39246W        W 4506  24.042  34.968  14.101
39247W        W 4507  20.791  34.844   3.845
39248W        W 4508  32.489   8.409   4.534
39249W        W 4509  39.964  11.810  13.402
39250W        W 4510  35.243  44.881  11.523
39251W        W 4511  39.560  21.018  12.910
39252W        W 4512  33.391  27.050  13.569
39253W        W 4513  37.636   7.772   2.260
39254W        W 4514  21.698  26.660   0.350
39255W        W 4515  31.667  29.429   2.054
39256W        W 4516  28.960  42.940   4.315
39257W        W 4517  20.272   4.190   0.967
39258W        W 4518  43.896  11.254  14.245
39259W        W 4519  25.281  32.520  14.274
39260W        W 4520  37.626  15.100   2.940
39261W        W 4521  20.724  26.716   1.789
39262W        W 4522   2.294  23.499  12.576
39263W        W 4523  38.019  23.365   3.181
39264W        W 4524  28.219  39.068  11.101
39265W        W 4525  18.674  29.620   2.406
39266W        W 4526  25.731  31.558  11.592
39267W        W 4527  43.917  10.552   5.466
39268W        W 4528  37.862  26.194   0.115
39269W        W 4529  25.646  23.091  10.759
39270W        W 4530   9.908  31.627   4.575
39271W        W 4531  13.225  22.089  11.311
39272W        W 4532  10.481  34.794   2.346
39273W        W 4533  39.614  26.024   2.006
39274W        W 4534  43.348  16.779  12.122
39275W        W 4535  38.981  43.025  14.372
39276W        W 4536  21.246  15.748   0.402
39277W        W 4537  33.547   3.214   3.596
39278W        W 4538  27.899  42.385   3.768
39279W        W 4539   8.125   4.945   0.792
39280W        W 4540  30.622  27.191  14.498
39281W        W 4541   8.131   5.858   2.004
39282W        W 4542   4.023  29.419  12.065
39283W        W 4543  26.597   6.728  14.335
39284W        W 4544  35.095  40.875   0.924
39285W        W 4545  12.117  39.867  11.446
39286W        W 4546  22.681  26.478   3.567
39287W        W 4547   6.260  22.049   0.698
39288W        W 4548   1.957  16.872   3.525
39289W        W 4549  11.113  27.612   2.618
39290W        W 4550   6.837  16.574   0.328
39291W        W 4551   4.907   7.317  12.501
39292W        W 4552   3.116   0.276  12.419
39293W        W 4553  21.220  32.322  12.914
39294W        W 4554  14.623  24.609  13.904
39295W        W 4555  36.038  44.332  11.648
39296W        W 4556  19.397  17.395   4.174
39297W        W 4557  13.246  28.224   3.293
39298W        W 4558  12.350  31.909   3.581
39299W        W 4559  22.346  19.826  14.374
39300W        W 4560  27.937  20.446   1.895
39301W        W 4561  12.613  11.249  12.939
39302W        W 4562  29.450   4.236  14.781
39303W        W 4563  33.151  31.860   3.318
39304W        W 4564   3.330   4.976   3.557
39305W        W 4565  38.049   8.095   1.989
39306W        W 4566  33.455  13.684   1.885
39307W        W 4567  12.148  33.928  12.619
39308W        W 4568  26.457  39.081   3.732
39309W        W 4569  11.180  25.136  13.783
39310W        W 4570   0.262  31.571   4.105
39311W        W 4571   4.503  24.758  14.080
39312W        W 4572  31.114  24.063   4.582
39313W        W 4573  30.263   4.693   4.926
39314W        W 4574  30.002   7.758   4.416
39315W        W 4575  24.981   6.261  10.784
39316W        W 4576  31.517  21.408  14.013
39317W        W 4577   6.419  26.104  14.752
39318W        W 4578   4.621  16.867   1.603
39319W        W 4579  10.466   2.834   3.736
39320W        W 4580  21.765  38.591   2.879
39321W        W 4581  14.732   9.194  11.037
39322W        W 4582  34.824   1.679  11.593
39323W        W 4583  37.152  39.066  11.183
39324W        W 4584  37.576  12.064  13.589
39325W        W 4585  24.581  32.871   1.269
39326W        W 4586  33.276  12.887  13.458
39327W        W 4587  23.636  11.214  10.735
39328W        W 4588   3.693  22.325  11.481
39329W        W 4589  33.425  37.385  13.958
39330W        W 4590   1.522  20.979   4.112
39331W        W 4591   6.142  35.129   3.374
39332W        W 4592  30.215  15.034  11.584
39333W        W 4593   4.192  41.838  11.436
39334W        W 4594   5.906  23.991   2.443
39335W        W 4595  17.022  24.601  11.844
39336W        W 4596   7.442  42.537   2.608
39337W        W 4597  18.278  41.272  12.354
39338W        W 4598  34.920  19.786  10.228
39339W        W 4599   8.805  11.390   1.143
39340W        W 4600  39.483  24.731   1.249
39341W        W 4601  19.962  15.174  14.269
39342W        W 4602  10.723   3.926  13.899
39343W        W 4603  20.532  17.798  12.373
39344W        W 4604  13.240  18.487  12.045
39345W        W 4605  28.857  27.942   2.285
39346W        W 4606  30.830  25.258   1.444
39347W        W 4607  15.384  39.201  11.628
39348W        W 4608   7.573  15.589   4.173
39349W        W 4609  15.061  10.897  13.943
39350W        W 4610  44.345  11.004   2.157
39351W        W 4611   7.687   8.155  11.561
39352W        W 4612  38.651  24.276  13.834
39353W        W 4613  23.271  11.651   0.392
39354W        W 4614  14.694  42.764  11.030
39355W        W 4615  29.223   8.747  14.074
39356W        W 4616  32.116   3.886   3.470
39357W        W 4617  18.823  25.181   2.818
39358W        W 4618  17.879  23.090  12.421
39359W        W 4619  33.973   5.263  10.417
39360W        W 4620  17.502  19.993   3.968
39361W        W 4621   9.505   9.023   4.227
39362W        W 4622  16.564  11.778   4.570
39363W        W 4623  22.772  11.800   0.348
39364W        W 4624  22.750  33.682  14.481
39365W        W 4625  21.075   0.361  14.612
39366W        W 4626  38.829  13.737  12.958
39367W        W 4627  21.008   2.449   3.179
39368W        W 4628   8.771   1.376   4.630
39369W        W 4629  30.000  16.884  12.840
39370W        W 4630  32.475  22.200  12.918
39371W        W 4631  39.321  35.573   2.535
39372W        W 4632  31.711  21.382  11.886
39373W        W 4633  19.854  38.270   2.258
39374W        W 4634  43.338  18.690   1.873
39375W        W 4635   9.744  36.968  10.582
39376W        W 4636  19.122  24.675   3.879
39377W        W 4637  11.231  19.204   3.404
39378W        W 4638  27.394  35.404  14.983
39379W        W 4639  43.553  29.399   0.934
39380W        W 4640   6.130  28.676   1.005
39381W        W 4641  13.872  16.706  11.598
39382W        W 4642  14.360  26.548   2.319
39383W        W 4643  12.234  26.235   3.771
39384W        W 4644  32.067  38.423  10.465
39385W        W 4645   8.432   1.764   4.619
39386W        W 4646  10.409  37.801   3.384
39387W        W 4647  42.333  35.894  11.223
39388W        W 4648  28.954  33.412   2.836
39389W        W 4649  19.109  41.449   0.374
39390W        W 4650   4.627  14.319  12.076
39391W        W 4651  41.414   6.477   1.324
39392W        W 4652  37.022  32.489  10.648
39393W        W 4653  13.014  12.578   2.765
39394W        W 4654  10.512   5.585   3.165
39395W        W 4655  18.192  18.867  13.349
39396W        W 4656  26.047  25.462   1.942
39397W        W 4657  28.698  28.615   0.387
39398W        W 4658  32.447  40.578  12.689
39399W        W 4659  27.737  32.156   1.129
39400W        W 4660   9.877   4.331  13.457
39401W        W 4661  22.139   0.369  10.712
39402W        W 4662  43.414  36.854   0.710
39403W        W 4663   1.368  16.226  12.403
39404W        W 4664  40.548  16.258  14.498
39405W        W 4665  29.107  32.035  12.386
39406W        W 4666  21.987  16.378  11.016
39407W        W 4667  12.755  33.849   3.155
39408W        W 4668  42.789  40.347  12.174
39409W        W 4669  32.726  21.936   4.930
39410W        W 4670   9.873  39.919  12.432
39411W        W 4671   0.578  31.308   2.825
39412W        W 4672  36.348  13.131  12.705
39413W        W 4673  44.411  19.668   2.358
39414W        W 4674  39.860  23.774  13.012
39415W        W 4675   2.250   4.251  12.010
39416W        W 4676  17.167   0.493  12.175
39417W        W 4677  26.091   6.002   4.097
39418W        W 4678   5.528  44.432   2.877
39419W        W 4679  10.963  38.480   0.772
39420W        W 4680  17.283  35.481   4.220
39421W        W 4681  44.941  10.647  13.692
39422W        W 4682  19.183  39.000  14.866
39423W        W 4683  32.496  19.317  13.032
39424W        W 4684  21.420  40.092   3.842
39425W        W 4685  38.477   8.872  14.694
39426W        W 4686  25.748  36.446  14.035
39427W        W 4687  25.067  17.701   4.473
39428W        W 4688   9.679  26.005  11.580
39429W        W 4689  41.600   3.241  11.117
39430W        W 4690  17.713  29.643   2.766
39431W        W 4691   6.904  30.102   1.290
39432W        W 4692  14.507   4.139   3.671
39433W        W 4693  41.525  44.929  11.875
39434W        W 4694  11.859  38.795  13.836
39435W        W 4695  39.260   5.663   4.486
39436W        W 4696  38.964  28.872   4.892
39437W        W 4697  36.094  39.839   4.641
39438W        W 4698  42.545   5.805   1.328
39439W        W 4699  21.507  43.818  11.489
39440W        W 4700  18.576  25.176   4.231
39441W        W 4701   2.873  41.553   0.063
39442W        W 4702  16.274   4.207  12.592
39443W        W 4703  29.620   8.167  13.343
39444W        W 4704  11.058  25.672  10.511
39445W        W 4705  11.114  29.662  10.814
39446W        W 4706  29.950   7.793  10.676
39447W        W 4707  41.006  43.235   3.308
39448W        W 4708   3.757  37.906  12.155
39449W        W 4709  38.019   6.389  11.180
39450W        W 4710  12.686  36.372   1.281
39451W        W 4711  26.245   7.567   1.276
39452W        W 4712  21.319  44.438  11.717
39453W        W 4713   3.439  42.169  14.933
39454W        W 4714  35.620  36.827  11.201
39455W        W 4715  28.897  29.545  11.451
39456W        W 4716  17.164  16.734   4.177
39457W        W 4717  41.260  23.021  14.813
39458W        W 4718  27.608  24.917  11.638
39459W        W 4719   4.156  38.279   4.703
39460W        W 4720  23.919   1.442  13.442
39461W        W 4721  12.083  12.204   4.483
39462W        W 4722   5.590  39.832   4.114
39463W        W 4723  12.182   8.204  12.872
39464W        W 4724   9.347  16.097   2.869
39465W        W 4725  17.058  17.569  12.076
39466W        W 4726  35.215   5.821   3.074
39467W        W 4727  15.244  18.998  10.983
39468W        W 4728  36.349  28.003  13.792
39469W        W 4729  19.734  17.535  13.161
39470W        W 4730   6.203  44.922   0.276
39471W        W 4731  33.381  31.576  14.188
39472W        W 4732  17.024  17.165   1.925
39473W        W 4733   6.324  16.074   0.455
39474W        W 4734  34.193  31.974  10.642
39475W        W 4735  21.599  36.038   2.661
39476W        W 4736  13.157  29.208  11.091
39477W        W 4737  40.388   1.825  12.919
39478W        W 4738  38.083  39.481  12.102
39479W        W 4739  26.084  33.597  12.718
39480W        W 4740  28.992  38.317   3.809
39481W        W 4741  16.444  12.190   1.687
39482W        W 4742  39.581  35.918   2.243
39483W        W 4743   1.115  13.537   1.909
39484W        W 4744  12.280  13.084   1.718
39485W        W 4745  39.087  20.550  14.825
39486W        W 4746  12.410  30.934   1.918
39487W        W 4747  15.557  37.391  14.730
39488W        W 4748  13.348   1.113   0.598
39489W        W 4749  25.527  16.733  14.584
39490W        W 4750  29.288  35.589  11.176
39491W        W 4751  15.832   1.742   2.955
39492W        W 4752  14.804   3.961  14.324
39493W        W 4753   2.452  40.930   1.011
39494W        W 4754  14.705  40.636  13.610
39495W        W 4755  27.562  35.340   1.850
39496W        W 4756  19.642  38.754   2.229
39497W        W 4757  22.982  41.306   3.658
39498W        W 4758  10.696  10.204  14.457
39499W        W 4759   9.318   7.909  14.431
39500W        W 4760  27.922  38.897  13.364
39501W        W 4761  13.244  30.658   3.057
39502W        W 4762   8.478  19.218   4.210
39503W        W 4763  31.901  32.127  11.161
39504W        W 4764  34.839   4.357   1.465
39505W        W 4765  27.217  25.674  13.837
39506W        W 4766  29.186   3.604  14.237
39507W        W 4767  31.994   5.687   4.253
39508W        W 4768  44.983  31.866   2.771
39509W        W 4769   2.267   5.961   1.427
39510W        W 4770  31.578  17.539   0.199
39511W        W 4771  34.804   8.805  14.966
39512W        W 4772   2.773  19.782   0.313
39513W        W 4773  39.914  40.339   0.204
39514W        W 4774  44.769  29.931   0.497
39515W        W 4775  29.533  33.949   4.743
39516W        W 4776  31.989  19.294  12.513
39517W        W 4777  43.294  33.348   2.387
39518W        W 4778  44.199  44.070  13.277
39519W        W 4779   7.907  17.861  14.298
39520W        W 4780  27.746  36.929   2.405
39521W        W 4781   7.966  23.938   5.160
39522W        W 4782   7.522  42.737   4.966
39523W        W 4783  23.666  40.871   3.026
39524W        W 4784  22.247   2.255  12.128
39525W        W 4785  31.113  14.759   1.264
39526W        W 4786  19.535  22.435   2.542
39527W        W 4787  15.990  40.549  14.521
39528W        W 4788   5.680  14.569  12.040
39529W        W 4789  18.380  12.000   5.096
39530W        W 4790  23.341   6.514   4.863
39531W        W 4791  42.904   7.116   3.324
39532W        W 4792  20.596  14.793   2.102
39533W        W 4793  37.790  30.687   2.665
39534W        W 4794  26.697  16.144  11.026
39535W        W 4795   2.809  10.945   2.285
39536W        W 4796  17.551  35.926  11.996
39537W        W 4797  23.686   1.143   4.117
39538W        W 4798  10.882  44.766  13.322
39539W        W 4799  30.436  28.193   3.222
39540W        W 4800  22.266  40.321  14.096
39541W        W 4801  29.112   5.190  12.471
39542W        W 4802  10.545  10.223  11.201
39543W        W 4803  40.309   6.229   1.298
39544W        W 4804  17.488  31.255  13.443
39545W        W 4805  42.754  31.755  13.892
39546W        W 4806  29.367  25.892   4.551
39547W        W 4807  10.372  38.657   0.275
39548W        W 4808   4.664  27.144  11.582
39549W        W 4809  11.354  35.890   3.917
39550W        W 4810   2.847   8.591  12.495
39551W        W 4811  38.504  14.830  14.089
39552W        W 4812  43.520  26.358  10.513
39553W        W 4813  30.958  37.598  10.628
39554W        W 4814  43.370   8.430   3.756
39555W        W 4815  23.964  16.173   5.041
39556W        W 4816   0.343  28.846   4.657
39557W        W 4817  17.377  34.858   1.280
39558W        W 4818  22.265  20.624  11.877
39559W        W 4819  21.759  10.026  13.223
39560W        W 4820   5.400  43.254  13.474
39561W        W 4821  25.396  35.510   1.677
39562W        W 4822   6.440  13.120  14.391
39563W        W 4823   1.865  27.611  10.084
39564W        W 4824  24.529  31.131   3.806
39565W        W 4825  21.048  29.536   4.149
39566W        W 4826  27.011  28.968  12.060
39567W        W 4827  28.543   1.670  14.448
39568W        W 4828  13.567  10.716  11.887
39569W        W 4829   8.314  38.803  12.865
39570W        W 4830  14.000  41.958  14.308
39571W        W 4831  12.346   1.726  13.490
39572W        W 4832  18.548  42.537   0.226
39573W        W 4833  23.641  38.235   5.026
39574W        W 4834   7.594  26.886   9.934
39575W        W 4835  41.715  20.605  12.676
39576W        W 4836  32.548   4.425   1.070
39577W        W 4837  37.823   4.667   1.489
39578W        W 4838  28.236  33.627  14.486
39579W        W 4839   6.496  36.245   4.107
39580W        W 4840   1.723  34.477   2.070
39581W        W 4841  30.754   3.799   4.144
39582W        W 4842  21.716  30.407   2.784
39583W        W 4843  18.125  20.751   0.798
39584W        W 4844  38.395  27.981  12.455
39585W        W 4845  24.110  30.190  13.964
39586W        W 4846  35.437  10.756  11.229
39587W        W 4847  28.331  33.552  12.178
39588W        W 4848  41.834  35.259  11.000
39589W        W 4849   5.349  12.910   2.851
39590W        W 4850  20.176  16.346   2.862
39591W        W 4851  41.960   2.461   1.897
39592W        W 4852  25.685   8.926  10.889
39593W        W 4853   1.774   2.679  11.219
39594W        W 4854  28.564  10.707  14.926
39595W        W 4855  13.336  15.162   1.656
39596W        W 4856  40.989  39.492   1.791
39597W        W 4857  35.341  12.496  14.839
39598W        W 4858   0.240  34.206   2.834
39599W        W 4859  30.479  42.545   2.786
39600W        W 4860  24.184  34.727   1.799
39601W        W 4861  21.757  36.381  12.993
39602W        W 4862  40.285  26.007  13.517
39603W        W 4863  37.059   7.645   1.327
39604W        W 4864  41.643  15.582   3.860
39605W        W 4865  28.939   9.293   3.035
39606W        W 4866  37.247  20.039  13.003
39607W        W 4867  35.998  43.533  10.669
39608W        W 4868  39.482  29.399   0.105
39609W        W 4869  29.051  28.835  11.183
39610W        W 4870  34.372   8.856   3.774
39611W        W 4871  23.873  39.612  11.135
39612W        W 4872  37.844  43.333  11.543
39613W        W 4873   8.277  21.045  14.484
39614W        W 4874  27.715  38.611   1.344
39615W        W 4875   7.478  39.771  14.839
39616W        W 4876   6.300  43.613   4.116
39617W        W 4877  30.952  35.322   2.464
39618W        W 4878   0.295   3.730  10.517
39619W        W 4879  22.813  39.434   4.530
39620W        W 4880  20.439   5.321   4.637
39621W        W 4881  35.875   2.207   2.879
39622W        W 4882   8.433  39.213   0.475
39623W        W 4883  40.062  16.653   1.816
39624W        W 4884  40.951  12.553   2.273
39625W        W 4885  32.190  17.569   1.377
39626W        W 4886  10.839  38.347  12.005
39627W        W 4887  30.425  42.865  11.122
39628W        W 4888   4.610   1.836  12.523
39629W        W 4889  21.019   3.251  12.757
39630W        W 4890  27.006  42.097  14.766
39631W        W 4891  24.555  13.240  14.944
39632W        W 4892  27.685  44.956  13.855
39633W        W 4893  44.343  41.840  10.567
39634W        W 4894  23.275   9.762   2.740
39635W        W 4895  31.961  38.365  14.873
39636W        W 4896   0.345  42.799  14.079
39637W        W 4897   2.049  21.456  12.618
39638W        W 4898  22.581  28.890  12.166
39639W        W 4899   1.682  28.218  12.128
39640W        W 4900  22.850  43.812   0.698
39641W        W 4901  11.335  31.725  14.854
39642W        W 4902  10.845   5.700  13.033
39643W        W 4903  15.052   7.673   4.145
39644W        W 4904  11.187  30.944  13.906
39645W        W 4905   1.792  23.701   5.362
39646W        W 4906  12.728  34.176  11.738
39647W        W 4907   5.074  23.186  13.356
39648W        W 4908  29.036   6.191   1.882
39649W        W 4909  30.153   9.196   4.261
39650W        W 4910  35.804  42.887   4.216
39651W        W 4911  44.518  37.356   3.820
39652W        W 4912   3.473  41.492  10.741
39653W        W 4913  34.058   3.855  10.250
39654W        W 4914  15.787  41.702  11.074
39655W        W 4915  29.977   1.313   2.319
39656W        W 4916  33.649  34.509  13.987
39657W        W 4917  29.989  23.149   3.578
39658W        W 4918  31.661  43.601  14.360
39659W        W 4919  15.088  41.557  14.811
39660W        W 4920   6.675  40.105   1.981
39661W        W 4921  30.968  22.769   0.939
39662W        W 4922   8.294  22.012  14.553
39663W        W 4923   2.784  11.551   9.895
39664W        W 4924  31.738  12.723   4.096
39665W        W 4925   1.396  26.980   2.785
39666W        W 4926  14.101   4.052   4.085
39667W        W 4927  42.751  32.244   3.777
39668W        W 4928  14.823  44.880  11.413
39669W        W 4929  31.576  40.896   2.265
39670W        W 4930  39.460  18.659  10.777
39671W        W 4931  14.687  14.054  12.579
39672W        W 4932  19.990  15.028   0.963
39673W        W 4933  42.069  19.732  13.841
39674W        W 4934  23.305  35.485   3.822
39675W        W 4935   6.785  42.117   1.215
39676W        W 4936  39.897  19.832  14.462
39677W        W 4937  16.696  17.653   0.788
39678W        W 4938   8.264  25.990   0.009
39679W        W 4939  44.867   9.688  10.610
39680W        W 4940   7.640  38.373   3.769
39681W        W 4941  41.199  37.965  11.142
39682W        W 4942  30.630  19.747  12.044
39683W        W 4943  20.942  11.660   1.156
39684W        W 4944  11.882  31.976   4.615
39685W        W 4945  31.982   6.719  12.118
39686W        W 4946  30.536  40.561  12.652
39687W        W 4947  24.739   6.810   4.274
39688W        W 4948  10.166  17.817   4.612
39689W        W 4949   2.120  37.824  10.744
39690W        W 4950  36.359  22.183   4.500
39691W        W 4951  28.282   5.502   2.745
39692W        W 4952  42.619   4.200  11.704
39693W        W 4953  38.795  38.522   3.375
39694W        W 4954  23.425  10.739  10.649
39695W        W 4955  42.336   8.335   3.541
39696W        W 4956  16.571   5.624   4.412
39697W        W 4957  12.315  18.300  11.559
39698W        W 4958  38.649   6.852  12.053
39699W        W 4959  32.746  12.976   2.852
39700W        W 4960   4.909   2.810  10.598
39701W        W 4961  19.109  44.529  11.760
39702W        W 4962  15.532  23.042  12.462
39703W        W 4963  41.397  40.247   2.255
39704W        W 4964   3.470  44.388   2.092
39705W        W 4965  23.458  23.590  14.306
39706W        W 4966  14.780   0.230   1.418
39707W        W 4967  30.157  22.429   1.286
39708W        W 4968  10.946  21.197  13.837
39709W        W 4969   6.174  30.398  11.540
39710W        W 4970  17.521  27.083  14.298
39711W        W 4971   0.870  26.320   9.901
39712W        W 4972   2.551  43.393  13.328
39713W        W 4973   1.820  42.323   2.479
39714W        W 4974   6.168  27.959  10.530
39715W        W 4975  21.787  24.990  11.160
39716W        W 4976   2.385   4.462   4.329
39717W        W 4977  26.213  16.632   0.859
39718W        W 4978  16.175  42.356  13.602
39719W        W 4979   9.488  16.042   1.784
39720W        W 4980  12.791  35.521  12.991
39721W        W 4981  28.545   1.925  11.651
39722W        W 4982   2.764  28.230  11.657
39723W        W 4983   2.877  20.039   4.638
39724W        W 4984  39.272  18.564  13.150
39725W        W 4985   1.791   6.619   1.328
39726W        W 4986  16.057  33.566  12.610
39727W        W 4987  34.672  28.000   2.482
39728W        W 4988  27.656  27.972   0.930
39729W        W 4989  40.782  29.356   0.468
39730W        W 4990  40.547  32.633  11.746
39731W        W 4991  17.518  32.439  12.540
39732W        W 4992  28.466  23.534   3.185
39733W        W 4993  14.018  36.103  13.985
39734W        W 4994  39.910  41.341   1.544
39735W        W 4995  40.418  39.044  14.345
39736W        W 4996  15.301  16.135  13.884
39737W        W 4997  20.238   0.448   4.028
39738W        W 4998  29.906  31.431  14.564
39739W        W 4999   3.783   9.723   0.957
39740W        W 5000  10.895  32.780  14.696
39741W        W 5001  31.531   1.526   4.654
39742W        W 5002  20.555  39.076   3.958
39743W        W 5003  26.194  29.810   2.432
39744W        W 5004  11.023  39.296  12.002
39745W        W 5005  22.962  25.216   3.992
39746W        W 5006  34.389  27.110  13.889
39747W        W 5007  19.989  14.907   3.773
39748W        W 5008  13.307  23.482  10.908
39749W        W 5009  18.552  42.915   3.265
39750W        W 5010  22.469  35.364   3.455
39751W        W 5011  21.131   2.972  12.023
39752W        W 5012   7.909  17.851   1.697
39753W        W 5013  15.378  15.737  14.404
39754W        W 5014   5.857  16.099   4.474
39755W        W 5015   5.354  44.236   0.843
39756W        W 5016  25.908  25.215   1.495
39757W        W 5017  37.180   6.375  14.475
39758W        W 5018  32.536  19.634  10.751
39759W        W 5019  35.055  22.518  12.045
39760W        W 5020  10.463  15.327  14.871
39761W        W 5021   1.831  23.704   1.569
39762W        W 5022  28.380  37.408   3.796
39763W        W 5023  29.584  14.224  12.319
39764W        W 5024  34.519  18.825  13.408
39765W        W 5025  37.489  10.095   3.646
39766W        W 5026  35.111   4.899   2.964
39767W        W 5027  36.824  24.273   0.858
39768W        W 5028   2.287   5.191   3.421
39769W        W 5029   9.772  19.898   3.249
39770W        W 5030  29.700  25.707  13.377
39771W        W 5031  17.765   8.304  13.570
39772W        W 5032   7.533  13.725   0.125
39773W        W 5033  43.022  11.858   1.650
39774W        W 5034  42.621   3.037  11.069
39775W        W 5035   7.448  33.851  12.064
39776W        W 5036  22.458  41.975  14.240
39777W        W 5037  41.926  13.122  11.460
39778W        W 5038  37.190  22.426   0.694
39779W        W 5039   1.212   3.714   2.118
39780W        W 5040  11.899   1.423  10.714
39781W        W 5041  26.925  15.579   3.137
39782W        W 5042  23.959  44.731   0.414
39783W        W 5043  15.130  41.571   1.013
39784W        W 5044   9.255  29.974  12.452
39785W        W 5045  31.091  18.485  14.406
39786W        W 5046  32.451  39.564  13.866
39787W        W 5047  44.253  25.100   3.631
39788W        W 5048  22.673  44.710   3.205
39789W        W 5049  10.447  25.456   3.726
39790W        W 5050  41.622  21.499  14.316
39791W        W 5051  16.154   1.971  11.793
39792W        W 5052  24.520  38.409   2.959
39793W        W 5053  17.139   0.740   1.378
39794W        W 5054  39.403  15.692   3.028
39795W        W 5055  11.921   0.889  11.392
39796W        W 5056  27.286   2.277  11.169
39797W        W 5057   6.355  18.465  13.961
39798W        W 5058   6.877   6.371   2.978
39799W        W 5059  42.048  36.497  14.788
39800W        W 5060  39.559  31.465  12.047
39801W        W 5061  12.201   5.407   1.293
39802W        W 5062  10.721  17.510  14.771
39803W        W 5063  18.842  35.957  10.125
39804W        W 5064  18.526  15.579   2.902
39805W        W 5065  20.795   8.407   2.265
39806W        W 5066  32.741  24.799  12.024
39807W        W 5067  23.209  15.075  14.966
39808W        W 5068   6.712  27.720   1.842
39809W        W 5069  39.307   2.197   1.746
39810W        W 5070  37.479   4.704  13.951
39811W        W 5071  11.145  25.696   0.298
39812W        W 5072   7.610  35.145   4.071
39813W        W 5073  15.297   4.822   3.187
39814W        W 5074  19.640   1.219   1.125
39815W        W 5075  23.478   4.771   0.901
39816W        W 5076   2.873   1.386  14.545
39817W        W 5077   0.791  14.240  12.924
39818W        W 5078   2.824   8.391  10.640
39819W        W 5079   3.938  37.497   4.740
39820W        W 5080   8.609  15.759   4.132
39821W        W 5081  15.206  12.158  12.633
39822W        W 5082   3.471  23.976  12.098
39823W        W 5083   8.656  37.803   0.425
39824W        W 5084  29.026  41.899   1.863
39825W        W 5085  24.386  35.710  14.441
39826W        W 5086   9.966  31.382  14.747
39827W        W 5087  23.365  44.038   4.197
39828W        W 5088  22.996  41.246   1.216
39829W        W 5089  17.594  27.446   3.933
39830W        W 5090  27.115  40.357   2.810
39831W        W 5091  15.144   2.980  12.915
39832W        W 5092  30.483  39.327  13.494
39833W        W 5093   1.741   7.671   3.872
39834W        W 5094   5.922  27.966  12.385
39835W        W 5095  29.861  44.817  12.666
39836W        W 5096   6.274  14.676  13.708
39837W        W 5097  28.039  12.105  14.672
39838W        W 5098  17.202  17.274   2.819
39839W        W 5099   1.664  30.676   0.155
39840W        W 5100  18.110  30.292  14.314
39841W        W 5101  11.605  21.387  12.627
39842W        W 5102  35.874  40.971   1.365
39843W        W 5103  14.667  33.984   1.224
39844W        W 5104  33.458  33.003   1.011
39845W        W 5105  23.232  36.909   1.268
39846W        W 5106  26.429  26.971  13.397
39847W        W 5107  30.134  19.118   2.342
39848W        W 5108   8.919  16.474  14.701
39849W        W 5109  33.437  36.918   1.447
39850W        W 5110  11.845  21.963  14.381
39851W        W 5111  42.819  38.973   1.327
39852W        W 5112  30.586  30.345   0.815
39853W        W 5113   2.353  10.347   2.709
39854W        W 5114  41.041  44.764  13.316
39855W        W 5115   5.752  37.040   0.383
39856W        W 5116  31.546   4.432   0.441
39857W        W 5117   4.217   0.675   2.333
39858W        W 5118   2.485  30.322  10.990
39859W        W 5119  22.114  30.453   1.333
39860W        W 5120  10.891   5.767   1.491
39861W        W 5121  36.036  21.797   3.393
39862W        W 5122  31.498  27.540  12.376
39863W        W 5123  29.399   0.683   3.214
39864W        W 5124  44.147  28.878  11.660
39865W        W 5125  36.005  37.213   1.773
39866W        W 5126  15.563  31.074   0.397
39867W        W 5127   2.743   0.141   0.712
39868W        W 5128  12.638  37.058  12.851
39869W        W 5129  39.346   3.540  13.152
39870W        W 5130  43.438   8.846  13.888
39871W        W 5131   4.160  12.721  11.089
39872W        W 5132   5.276  19.091   0.508
39873W        W 5133  16.330   6.430   2.809
39874W        W 5134  27.563  24.741  13.024
39875W        W 5135   2.850  34.479  13.852
39876W        W 5136  33.979  29.628   1.794
39877W        W 5137  21.258  31.649  11.498
39878W        W 5138  14.214  15.367  13.492
39879W        W 5139   9.049  28.475   0.752
39880W        W 5140  11.652   6.695   0.078
39881W        W 5141  44.886  28.660  14.342
39882W        W 5142  12.675  28.104  13.393
39883W        W 5143  30.373  32.821   1.366
39884W        W 5144  44.027  26.216   2.239
39885W        W 5145   0.789   6.540  12.515
39886W        W 5146  27.951  31.025   3.200
39887W        W 5147  44.691   9.240  13.194
39888W        W 5148   2.309  35.494  10.741
39889W        W 5149  32.684  17.320  13.795
39890W        W 5150   8.176  32.117  13.535
39891W        W 5151  12.974  33.358   3.877
39892W        W 5152  13.612   6.274  13.868
39893W        W 5153   9.985  17.748   1.762
39894W        W 5154  30.866  21.057   1.833
39895W        W 5155  12.690  16.355  13.225
39896W        W 5156  30.363  25.383   1.229
39897W        W 5157   0.336   6.625   2.883
39898W        W 5158  28.695  41.310  11.427
39899W        W 5159  34.973  37.838  14.435
39900W        W 5160  25.058  34.863  13.353
39901W        W 5161  37.116  27.611  12.849
39902W        W 5162  13.673   5.979  12.196
39903W        W 5163  31.326  17.799   1.199
39904W        W 5164   6.830  40.756  11.603
39905W        W 5165  15.432  23.471   3.188
39906W        W 5166  33.814  40.304  10.713
39907W        W 5167  10.954   4.792  11.978
39908W        W 5168  27.263  10.270   1.469
39909W        W 5169  13.677  34.822  11.138
39910W        W 5170  44.750  42.230   0.834
39911W        W 5171  27.755  11.747  11.979
39912W        W 5172  29.166   9.722  11.086
39913W        W 5173  38.020   3.531  13.518
39914W        W 5174   6.706  22.616   2.405
39915W        W 5175  19.943   2.104  11.102
39916W        W 5176  27.938  43.866  13.919
39917W        W 5177  30.923  32.426   2.096
39918W        W 5178  22.440  29.495  13.442
39919W        W 5179  25.565   5.074   3.848
39920W        W 5180  43.384  37.099  10.744
39921W        W 5181  41.398  29.362  11.816
39922W        W 5182  33.857  33.909  10.703
39923W        W 5183  23.939  43.970  14.816
39924W        W 5184  35.975  26.157   4.563
39925W        W 5185   3.309   9.932   4.053
39926W        W 5186  16.143  37.222  14.044
39927W        W 5187  33.301   3.536   0.435
39928W        W 5188  15.790   2.512  12.402
39929W        W 5189  24.250  15.759   0.450
39930W        W 5190  34.825  25.933   0.357
39931W        W 5191  11.980  26.948   5.427
39932W        W 5192   9.818  22.668  14.022
39933W        W 5193  23.208   1.800  13.021
39934W        W 5194   7.897  12.096   4.316
39935W        W 5195  32.711  29.766  11.215
39936W        W 5196  12.755  10.805   3.567
39937W        W 5197  11.292  27.240   2.295
39938W        W 5198  44.933  14.942   3.725
39939W        W 5199  44.272  15.184  12.863
39940W        W 5200   3.595  37.375   3.641
39941W        W 5201  10.348   1.534  12.087
39942W        W 5202  42.952  33.745  11.010
39943W        W 5203  21.558  12.757   1.736
39944W        W 5204  23.687  29.034  14.205
39945W        W 5205  37.289  13.510   2.278
39946W        W 5206  23.469  34.341  12.024
39947W        W 5207  42.899   6.038   4.187
39948W        W 5208  10.088  34.622  13.024
39949W        W 5209   3.942  26.550  10.612
39950W        W 5210  19.576  37.440   1.859
39951W        W 5211  13.815  28.970   4.578
39952W        W 5212  25.213  31.059   3.041
39953W        W 5213  25.650  18.073   1.723
39954W        W 5214  14.864  44.759   3.365
39955W        W 5215  29.208  21.604   3.634
39956W        W 5216  26.611  10.171   3.243
39957W        W 5217  42.295  17.205   0.333
39958W        W 5218  35.087  35.139   0.436
39959W        W 5219  18.628  20.217  11.155
39960W        W 5220  44.448  37.873   3.984
39961W        W 5221  35.956  32.904  10.719
39962W        W 5222  25.468  28.719   3.131
39963W        W 5223   2.852  34.967  11.556
39964W        W 5224  44.280  33.474   3.275
39965W        W 5225  12.071   8.290   4.342
39966W        W 5226  20.752   5.893   0.345
39967W        W 5227   4.175  27.377  12.917
39968W        W 5228  44.969  29.161   1.793
39969W        W 5229  17.504  33.519   1.827
39970W        W 5230  43.349  16.272  13.945
39971W        W 5231  20.310   8.226   3.738
39972W        W 5232   2.466   3.048  11.370
39973W        W 5233   2.368  42.275  11.407
39974W        W 5234  13.919  41.469  10.786
39975W        W 5235   3.671  22.122  14.216
39976W        W 5236  14.901   5.077   0.204
39977W        W 5237  11.676  16.743  14.263
39978W        W 5238  25.400  11.750  12.475
39979W        W 5239  30.853   0.566   1.355
39980W        W 5240  20.724  42.612  14.476
39981W        W 5241   7.041  12.392  13.473
39982W        W 5242  10.429   0.437  12.843
39983W        W 5243  22.791  39.400   1.435
39984W        W 5244  25.149  44.058   0.279
39985W        W 5245  12.341  29.641   0.386
39986W        W 5246  18.831  41.002   0.383
39987W        W 5247   7.308  42.980   2.867
39988W        W 5248  13.597  33.364   4.557
39989W        W 5249  32.343   2.887  11.550
39990W        W 5250  32.463  26.027   1.212
39991W        W 5251   1.827  13.741   2.681
39992W        W 5252  37.110  42.411   2.248
39993W        W 5253  19.768  15.203   2.188
39994W        W 5254   0.695  15.185  12.946
39995W        W 5255  29.927  41.403   4.321
39996W        W 5256  36.942  27.598   0.150
39997W        W 5257  11.601   1.832  10.830
39998W        W 5258   9.207   6.699   0.264
39999W        W 5259  21.041  11.793   3.760
40000W        W 5260   4.318  37.634   2.944
40001W        W 5261  11.792  18.814   1.355
40002W        W 5262  39.896  20.222  12.442
40003W        W 5263  36.350  37.576  13.108
40004W        W 5264  18.896  29.712   5.287
40005W        W 5265  29.769  30.043   1.834
40006W        W 5266  33.030  25.267  12.008
40007W        W 5267  20.166  18.183  10.668
40008W        W 5268  18.529  24.010  10.838
40009W        W 5269  33.873  12.724   5.063
40010W        W 5270  35.925  40.445   3.791
40011W        W 5271  34.474  26.321   5.356
40012W        W 5272   2.790  27.916  13.050
40013W        W 5273  44.672  12.970   4.305
40014W        W 5274  11.602   7.916   1.199
40015W        W 5275  29.535  38.551  13.096
40016W        W 5276   3.423  12.080   0.467
40017W        W 5277  16.282  39.619   2.425
40018W        W 5278  12.745  37.048  11.553
40019W        W 5279  24.088  44.420  12.401
40020W        W 5280  10.393  30.242   2.175
40021W        W 5281  25.743  38.292   3.122
40022W        W 5282  26.494  31.762  13.073
40023W        W 5283  14.123   6.294   1.164
40024W        W 5284  32.608  41.419  14.252
40025W        W 5285  29.740  21.990  12.070
40026W        W 5286   1.830  39.797  12.871
40027W        W 5287  23.075   3.687   3.911
40028W        W 5288  17.507  16.330  13.770
40029W        W 5289  21.211  34.953   2.134
40030W        W 5290  32.287  32.532   0.275
40031W        W 5291   9.564  11.191  12.763
40032W        W 5292  35.883  16.471  13.478
40033W        W 5293   5.374  13.261  10.763
40034W        W 5294  19.270   3.493   0.801
40035W        W 5295  36.573  12.431   3.423
40036W        W 5296  28.038   2.652   0.950
40037W        W 5297  41.742  44.854  13.770
40038W        W 5298  43.851  19.953   3.081
40039W        W 5299  20.359  18.585  11.378
40040W        W 5300   5.233  35.342   3.256
40041W        W 5301  26.148  10.195  10.480
40042W        W 5302  11.127  15.068   3.256
40043W        W 5303  31.616  11.205  13.542
40044W        W 5304  34.622   4.963   5.078
40045W        W 5305  11.163  33.683   1.196
40046W        W 5306   7.673   9.596   2.933
40047W        W 5307  41.774  10.632   2.793
40048W        W 5308  22.978   8.781  13.341
40049W        W 5309  14.723  18.578   2.593
40050W        W 5310  12.754  34.284  14.685
40051W        W 5311  30.352  13.242   0.364
40052W        W 5312  27.641  16.768   1.476
40053W        W 5313  36.607   4.235   4.549
40054W        W 5314   3.301  37.165   3.257
40055W        W 5315  43.559   2.163   4.369
40056W        W 5316  28.971   9.737   1.479
40057W        W 5317  21.024  36.806  13.110
40058W        W 5318  38.128  43.727   3.200
40059W        W 5319  12.683   4.267  12.604
40060W        W 5320  31.209  43.450  14.575
40061W        W 5321   9.804  39.482   3.529
40062W        W 5322  19.475  16.165   2.369
40063W        W 5323   3.194  32.455   4.650
40064W        W 5324   2.520   9.127  14.862
40065W        W 5325  35.937   7.146   4.765
40066W        W 5326  10.898  31.086  12.950
40067W        W 5327  21.457   9.626  13.967
40068W        W 5328  38.400  34.471   1.700
40069W        W 5329   1.203  12.838   1.908
40070W        W 5330   0.708  36.274  12.868
40071W        W 5331  12.148  20.541  12.892
40072W        W 5332  38.763   1.574  12.455
40073W        W 5333  20.569  41.268   3.084
40074W        W 5334  13.761   3.763   3.180
40075W        W 5335  18.990  31.709   0.912
40076W        W 5336  26.989  16.553   1.144
40077W        W 5337  25.091  19.803   1.519
40078W        W 5338  35.569  15.819   3.330
40079W        W 5339  42.454  33.580  14.426
40080W        W 5340   3.496   9.533  14.820
40081W        W 5341  13.586  12.285  13.907
40082W        W 5342  31.366  44.556   0.832
40083W        W 5343  33.114  22.037   0.526
40084W        W 5344  37.265  10.285   0.841
40085W        W 5345  41.074  11.303  12.540
40086W        W 5346   9.020  15.934   3.654
40087W        W 5347  38.879  36.443  12.245
40088W        W 5348  14.637  14.861   3.818
40089W        W 5349  44.089  11.745   3.292
40090W        W 5350   0.888  15.660   0.812
40091W        W 5351  22.918  20.762  13.431
40092W        W 5352  20.743  24.871   1.341
40093W        W 5353   1.686  25.145  11.416
40094W        W 5354  15.620  10.258   1.299
40095W        W 5355   8.293  40.025   0.430
40096W        W 5356  29.031  39.931   1.226
40097W        W 5357   9.630   0.944  12.880
40098W        W 5358  33.310  40.836   1.350
40099W        W 5359  33.067  28.318  10.545
40100W        W 5360  37.118   9.766  13.399
40101W        W 5361  16.740  31.998   4.507
40102W        W 5362   7.814  10.171   0.055
40103W        W 5363  17.590  22.806  12.132
40104W        W 5364  38.156  37.335   1.661
40105W        W 5365  17.582  44.008   1.177
40106W        W 5366  40.441   7.734   3.154
40107W        W 5367  15.088  27.430   0.230
40108W        W 5368  37.309   5.674  13.756
40109W        W 5369  15.088  39.114   4.137
40110W        W 5370   4.992  28.519  13.746
40111W        W 5371  13.619  40.688   1.370
40112W        W 5372  12.040  27.084  10.631
40113W        W 5373  26.462  36.020   3.958
40114W        W 5374  26.247  21.262   0.921
40115W        W 5375  21.630  19.747  13.817
40116W        W 5376   4.286   4.532   4.622
40117W        W 5377   6.327   2.301  12.528
40118W        W 5378   0.647  13.771   1.863
40119W        W 5379  33.129   1.759   2.839
40120W        W 5380  37.424  36.151   1.727
40121W        W 5381  17.643  17.650   0.721
40122W        W 5382   1.763  42.861  11.002
40123W        W 5383  43.001   5.574   1.428
40124W        W 5384   1.472   2.880   4.560
40125W        W 5385  37.465   9.357  10.586
40126W        W 5386  27.280   4.159   0.308
40127W        W 5387  13.885  43.750   1.354
40128W        W 5388  42.447   7.608   1.910
40129W        W 5389  12.267  36.711  12.942
40130W        W 5390  16.948  25.414   3.989
40131W        W 5391   5.283  23.719   4.178
40132W        W 5392  24.472  23.716  14.505
40133W        W 5393  26.200  38.138   0.370
40134W        W 5394  42.352  40.581   4.108
40135W        W 5395  42.151   7.234  13.961
40136W        W 5396  38.365   6.860  11.126
40137W        W 5397  13.848  36.997   1.589
40138W        W 5398  33.603  31.022  13.492
40139W        W 5399  11.418  17.518   3.222
40140W        W 5400  31.253   2.937  13.358
40141W        W 5401   3.407  33.556   3.798
40142W        W 5402  12.648  26.449   2.670
40143W        W 5403   3.035   3.985   2.745
40144W        W 5404  28.438  16.679   3.557
40145W        W 5405  15.051  27.397  11.563
40146W        W 5406  21.599  27.962   4.042
40147W        W 5407  20.617  37.496   1.774
40148W        W 5408  19.957   2.880   4.670
40149W        W 5409  18.197  38.820  14.504
40150W        W 5410   0.868  32.736  13.917
40151W        W 5411  22.300   3.206  13.954
40152W        W 5412  12.279  15.304   1.774
40153W        W 5413  13.608  29.155   1.312
40154W        W 5414  27.037  12.563   4.147
40155W        W 5415  44.735  15.590  11.557
40156W        W 5416   5.491  19.148   2.787
40157W        W 5417  28.521  13.330  10.736
40158W        W 5418  22.915   0.968  11.758
40159W        W 5419   9.775   8.248  11.777
40160W        W 5420  14.320  19.727   1.620
40161W        W 5421  17.742  41.372   2.039
40162W        W 5422  41.717  13.768   3.959
40163W        W 5423  42.040  37.419   3.683
40164W        W 5424  31.468  32.306  10.917
40165W        W 5425  38.854  38.673   4.551
40166W        W 5426  31.162  24.220  11.160
40167W        W 5427   1.789  21.741  14.848
40168W        W 5428  36.508   6.494  12.401
40169W        W 5429  43.397   0.425   4.213
40170W        W 5430   1.259  37.059  12.292
40171W        W 5431  20.115  30.152   2.293
40172W        W 5432  11.412  16.088   0.431
40173W        W 5433  26.208  14.813   0.122
40174W        W 5434  37.783   3.698  13.051
40175W        W 5435  34.402   1.426  10.261
40176W        W 5436   8.786   1.551   1.775
40177W        W 5437  15.324  20.801   3.205
40178W        W 5438  23.024  25.602   2.825
40179W        W 5439  38.201  17.549  13.502
40180W        W 5440  24.398  36.943   3.154
40181W        W 5441  29.820  24.634  13.844
40182W        W 5442   7.798   6.159   1.660
40183W        W 5443  18.144   7.181   0.298
40184W        W 5444  42.703  29.157  12.107
40185W        W 5445  23.256   1.931  13.972
40186W        W 5446   5.389  40.272  11.425
40187W        W 5447  42.664  17.055   3.873
40188W        W 5448  14.009  42.469  14.437
40189W        W 5449  12.719  34.642   2.476
40190W        W 5450   8.730  18.874  13.855
40191W        W 5451  19.044  15.106  11.581
40192W        W 5452  44.648  24.775  14.026
40193W        W 5453   8.000  37.132   5.049
40194W        W 5454   4.891  35.926   1.696
40195W        W 5455  16.251   5.473   3.265
40196W        W 5456  30.239  30.997   3.284
40197W        W 5457   0.830  23.934  13.324
40198W        W 5458   8.345  31.134  11.465
40199W        W 5459  35.452   0.280  13.582
40200W        W 5460  25.238  27.598   3.330
40201W        W 5461  29.331  14.117  10.746
40202W        W 5462  19.203  29.453  13.588
40203W        W 5463  43.028  25.986   2.365
40204W        W 5464  28.476  29.427  10.633
40205W        W 5465   9.397  16.507  11.514
40206W        W 5466  43.520   8.211   0.482
40207W        W 5467  18.395  22.529   4.163
40208W        W 5468   5.508  28.803   3.579
40209W        W 5469  13.857   2.216  12.070
40210W        W 5470  36.127   4.739  13.389
40211W        W 5471  17.347  42.267  14.772
40212W        W 5472  29.195  44.327  13.325
40213W        W 5473  32.176  34.523   4.239
40214W        W 5474  23.135  24.001   0.714
40215W        W 5475  24.732  44.388   2.678
40216W        W 5476  30.955  21.746   1.255
40217W        W 5477  39.097  42.774  12.534
40218W        W 5478  34.470   9.686   1.353
40219W        W 5479  18.097  10.752  13.077
40220W        W 5480  15.555  35.076  11.910
40221W        W 5481  14.864  36.335   0.172
40222W        W 5482  17.127  19.742   2.095
40223W        W 5483  26.979   9.512  11.538
40224W        W 5484   0.529   0.860   0.416
40225W        W 5485  29.754  39.223  10.882
40226W        W 5486  42.500  36.640   3.096
40227W        W 5487  33.661   9.259  11.245
40228W        W 5488   9.385  29.406  12.796
40229W        W 5489  40.560  18.827   1.381
40230W        W 5490  16.226  28.484  12.405
40231W        W 5491  35.967  35.522   4.867
40232W        W 5492  33.031  10.103   0.827
40233W        W 5493  37.766   1.124   0.265
40234W        W 5494  11.653  42.331  13.450
40235W        W 5495  25.281  21.011   0.280
40236W        W 5496  38.286  21.661   1.068
40237W        W 5497  13.676  30.466  12.761
40238W        W 5498  21.234  30.112   2.841
40239W        W 5499  18.116   6.325  14.750
40240W        W 5500   0.668  18.620   2.208
40241W        W 5501  33.519  41.473  12.618
40242W        W 5502  18.344  31.850  14.417
40243W        W 5503  27.298  28.957  10.987
40244W        W 5504  22.710  12.744   2.123
40245W        W 5505  28.051  16.840   3.984
40246W        W 5506  34.659  42.044   2.320
40247W        W 5507   6.661   5.303   3.879
40248W        W 5508   3.782   6.466   1.108
40249W        W 5509  30.178  12.576  14.933
40250W        W 5510  27.514   6.727  14.579
40251W        W 5511   3.226  31.039   0.827
40252W        W 5512  24.455  22.706  12.481
40253W        W 5513  34.471  40.312   2.672
40254W        W 5514  39.258   6.869   4.497
40255W        W 5515  20.987  37.582  12.021
40256W        W 5516  13.166  41.243  11.463
40257W        W 5517  33.993   2.021   4.782
40258W        W 5518  31.447  20.282  11.109
40259W        W 5519   2.407  38.376   2.007
40260W        W 5520  20.713  29.539   1.045
40261W        W 5521  25.651  22.175  12.328
40262W        W 5522  18.794  12.708   4.202
40263W        W 5523  24.498  29.876  14.870
40264W        W 5524  29.053  22.870   1.738
40265W        W 5525  40.489  11.506  14.886
40266W        W 5526  26.881  38.567   2.296
40267W        W 5527   1.216  12.719   2.947
40268W        W 5528  26.206  35.936   1.787
40269W        W 5529  14.600   7.151  13.176
40270W        W 5530  25.139  25.458   3.666
40271W        W 5531  25.265  11.670  11.178
40272W        W 5532   1.530  41.912  13.895
40273W        W 5533  24.149  22.270   9.971
40274W        W 5534   7.612   2.791   2.836
40275W        W 5535  30.972  43.543  14.130
40276W        W 5536  18.251  27.105  12.447
40277W        W 5537   8.902  25.111  10.695
40278W        W 5538  38.582   5.385  13.092
40279W        W 5539  13.972  33.465   2.710
40280W        W 5540  15.340   9.334   1.524
40281W        W 5541  44.104  11.246   0.819
40282W        W 5542  14.354  31.540   2.885
40283W        W 5543  34.421  28.024  11.040
40284W        W 5544  44.534  13.830   0.720
40285W        W 5545  24.997   9.191   0.640
40286W        W 5546   0.512   0.200  13.449
40287W        W 5547  42.060  24.255  13.722
40288W        W 5548  16.219  34.630   4.927
40289W        W 5549  28.692  42.764  12.726
40290W        W 5550  32.370  17.100  14.347
40291W        W 5551  41.719   0.943   0.105
40292W        W 5552  12.644   3.856   1.818
40293W        W 5553  10.642   2.351  12.946
40294W        W 5554  36.903  40.423   0.187
40295W        W 5555  34.721  19.594   4.654
40296W        W 5556  21.009  22.117  12.231
40297W        W 5557   8.850  15.231   0.567
40298W        W 5558  19.134   6.694   3.095
40299W        W 5559   2.912  15.786  14.820
40300W        W 5560  29.722  18.794   2.300
40301W        W 5561  34.372  40.617   4.010
40302W        W 5562   3.956  20.103  14.811
40303W        W 5563  26.976  10.615   4.326
40304W        W 5564  34.399   4.826   3.692
40305W        W 5565  28.874   3.227  14.417
40306W        W 5566   5.932  21.582   2.115
40307W        W 5567  26.187   2.169   4.391
40308W        W 5568  21.697  28.487   2.197
40309W        W 5569  11.587  44.985   1.199
40310W        W 5570  17.901  25.135  11.181
40311W        W 5571   2.346  42.940  10.824
40312W        W 5572  31.105  15.040  10.672
40313W        W 5573  34.702  27.212   3.792
40314W        W 5574   4.630  16.282  12.773
40315W        W 5575   1.257  30.297  10.403
40316W        W 5576  37.523  16.625  10.215
40317W        W 5577   5.814   8.619   0.260
40318W        W 5578  11.217  11.139   0.788
40319W        W 5579  42.432   6.728   1.365
40320W        W 5580   9.835  39.712   1.905
40321W        W 5581  14.032  44.944   3.176
40322W        W 5582  30.215   2.436  10.744
40323W        W 5583  34.755   9.922   1.728
40324W        W 5584  33.347  14.386   4.792
40325W        W 5585   5.863  32.694  12.791
40326W        W 5586  36.735   7.282  10.595
40327W        W 5587   7.917  25.941  11.656
40328W        W 5588   1.441  28.632  12.925
40329W        W 5589   9.220   8.915   3.786
40330W        W 5590   7.432  17.117   1.423
40331W        W 5591  29.604  17.442  12.288
40332W        W 5592   3.961  35.140   2.773
40333W        W 5593  34.864  41.407   1.200
40334W        W 5594  17.673  15.289   2.057
40335W        W 5595  14.656  30.175   1.169
40336W        W 5596   9.360  12.091   3.683
40337W        W 5597   9.287  41.476  11.893
40338W        W 5598  25.194  31.671   1.479
40339W        W 5599  21.498  38.976   3.066
40340W        W 5600   2.770   7.710  13.841
40341W        W 5601  18.523  43.988   3.133
40342W        W 5602  21.993  10.456  13.516
40343W        W 5603  40.107   0.288   4.288
40344W        W 5604  42.829   4.337  11.225
40345W        W 5605  28.694  11.773   0.858
40346W        W 5606  15.580   4.455   2.267
40347W        W 5607   0.968   3.292  13.568
40348W        W 5608  37.811  41.349   2.914
40349W        W 5609   5.750  14.860  12.485
40350W        W 5610  18.460  39.012  10.176
40351W        W 5611   7.828  40.447   3.300
40352W        W 5612  38.354  30.356   1.188
40353W        W 5613  35.191   5.364  11.577
40354W        W 5614  27.913  42.848  11.465
40355W        W 5615  23.048   9.687  12.971
40356W        W 5616  20.001  28.047   0.856
40357W        W 5617  32.120  41.815   0.245
40358W        W 5618   2.252   4.661   2.205
40359W        W 5619   2.570  26.634   2.169
40360W        W 5620  24.713  15.080  14.286
40361W        W 5621  34.594  15.648   3.874
40362W        W 5622   7.293  10.256   3.456
40363W        W 5623  31.025  22.750   4.172
40364W        W 5624   4.693  17.596  12.283
40365W        W 5625  21.552  17.763   5.008
40366W        W 5626  40.322   6.997   0.929
40367W        W 5627  20.497  26.680  14.358
40368W        W 5628  12.176  24.935  14.474
40369W        W 5629   7.885  42.479   2.325
40370W        W 5630   4.428  32.680  11.621
40371W        W 5631  32.839  20.307  14.614
40372W        W 5632  29.699  42.911   1.315
40373W        W 5633  39.323  29.800   3.860
40374W        W 5634   3.804  24.585   2.330
40375W        W 5635  24.157  38.955  12.742
40376W        W 5636  44.379  20.514  10.613
40377W        W 5637  36.303   7.196  13.575
40378W        W 5638  15.327  35.607   0.344
40379W        W 5639  14.116   9.447  13.427
40380W        W 5640   8.387  31.854   0.854
40381W        W 5641  15.336  38.591  14.417
40382W        W 5642  25.403  29.449   4.060
40383W        W 5643  33.192  26.017   1.444
40384W        W 5644   7.188  16.174  11.999
40385W        W 5645  27.471   1.766   1.424
40386W        W 5646  10.253  41.807   4.187
40387W        W 5647   1.011  32.474   1.762
40388W        W 5648  11.286  20.690  14.395
40389W        W 5649   2.524  36.424   2.418
40390W        W 5650   3.740  18.779  14.921
40391W        W 5651  41.899  33.391  14.856
40392W        W 5652  36.519  24.972  12.890
40393W        W 5653   6.585   8.627   3.248
40394W        W 5654  38.141   9.603   3.203
40395W        W 5655  42.731   7.045   2.538
40396W        W 5656  32.619  26.242   9.845
40397W        W 5657   3.259  20.543  11.911
40398W        W 5658   8.591  33.418   1.828
40399W        W 5659  28.205   7.276   4.026
40400W        W 5660  39.514  43.677   3.515
40401W        W 5661  10.364  29.515   0.691
40402W        W 5662   9.450   6.173  12.708
40403W        W 5663   7.982   5.223  11.192
40404W        W 5664  31.037  33.696   3.706
40405W        W 5665  36.897  34.605   1.336
40406W        W 5666  31.120  24.764  14.348
40407W        W 5667  16.673  15.345   0.754
40408W        W 5668  15.035  17.236  12.415
40409W        W 5669  42.694  11.633  14.271
40410W        W 5670  32.690  23.001   3.595
40411W        W 5671  42.932  34.523  14.272
40412W        W 5672   9.442  33.154   3.106
40413W        W 5673   7.744  12.669  11.161
40414W        W 5674  32.599   9.354   4.074
40415W        W 5675  20.563  40.354  12.071
40416W        W 5676   4.341  17.057   2.574
40417W        W 5677  16.123  31.178   4.718
40418W        W 5678  38.713   0.816   2.663
40419W        W 5679  38.901  40.347   1.713
40420W        W 5680   9.231  31.042  13.903
40421W        W 5681   4.794  32.118   0.636
40422W        W 5682  31.112  27.090  10.207
40423W        W 5683  23.625  37.908  14.474
40424W        W 5684  19.094  25.508  14.245
40425W        W 5685  28.839  20.133  14.861
40426W        W 5686  41.347  22.843  11.665
40427W        W 5687   9.360  37.835   1.310
40428W        W 5688  33.617  39.451   3.799
40429W        W 5689  31.518   5.511   0.913
40430W        W 5690  27.212  22.186   3.045
40431W        W 5691   0.380  42.802  11.168
40432W        W 5692  36.439  26.510  10.712
40433W        W 5693  19.760   1.301  10.433
40434W        W 5694  18.755  10.097  13.051
40435W        W 5695  41.007  12.819   4.351
40436W        W 5696  11.107   7.324  12.141
40437W        W 5697  30.100   4.403  12.951
40438W        W 5698   0.157   5.299  13.421
40439W        W 5699  17.119  35.399   2.862
40440W        W 5700  43.565  24.242  12.176
40441W        W 5701  14.925  32.329   0.754
40442W        W 5702   5.759  19.140  12.878
40443W        W 5703  26.595  10.647  14.763
40444W        W 5704  43.016  39.342  11.537
40445W        W 5705  40.374  29.423   0.837
40446W        W 5706   2.357  36.106  13.997
40447W        W 5707  37.792   0.689  14.404
40448W        W 5708  15.829  22.190  11.256
40449W        W 5709  41.132  25.265   2.825
40450W        W 5710  26.862  23.953  11.370
40451W        W 5711  32.565   1.103  11.584
40452W        W 5712  39.932  32.926  13.938
40453W        W 5713   3.775  13.742  11.912
40454W        W 5714   0.787  20.975  14.993
40455W        W 5715  25.608  26.243   3.251
40456W        W 5716  14.839  25.532   0.296
40457W        W 5717  32.581  43.296  12.977
40458W        W 5718   1.352  19.121   0.845
40459W        W 5719  24.141  20.131  12.067
40460W        W 5720  35.452  30.660   4.535
40461W        W 5721  29.684  16.743  14.564
40462W        W 5722  19.308  30.690  14.900
40463W        W 5723   2.911  19.587  12.979
40464W        W 5724   5.299  31.600  13.299
40465W        W 5725  20.301  22.085   2.258
40466W        W 5726  27.048  15.855   3.701
40467W        W 5727  36.884   5.385  11.115
40468W        W 5728   3.970  21.245  10.792
40469W        W 5729  17.494  21.021  13.632
40470W        W 5730   5.683  12.239   1.387
40471W        W 5731  32.429  25.149  14.144
40472W        W 5732  21.172  27.190   0.055
40473W        W 5733  41.332   4.288  10.499
40474W        W 5734  44.299  21.224   2.876
40475W        W 5735   9.446  34.825  12.466
40476W        W 5736  14.973  31.420   4.244
40477W        W 5737   3.842   7.092   4.003
40478W        W 5738  34.228  42.631  14.786
40479W        W 5739  37.457  11.283   3.707
40480W        W 5740  36.236  27.383  11.994
40481W        W 5741  24.010   2.494  12.432
40482W        W 5742  36.552  39.075  13.874
40483W        W 5743   9.601  19.099  11.075
40484W        W 5744  23.133   8.115  12.782
40485W        W 5745  31.570   1.840  12.064
40486W        W 5746   9.350  14.443   2.262
40487W        W 5747  14.944  38.421   0.858
40488W        W 5748  39.710  41.490   3.230
40489W        W 5749  30.151  26.982  12.776
40490W        W 5750  20.573  40.346   0.451
40491W        W 5751  41.006  12.154   3.647
40492W        W 5752  13.020  18.363   0.713
40493W        W 5753  20.629  16.227   3.058
40494W        W 5754   1.535   0.921  11.415
40495W        W 5755  10.060  41.386  12.283
40496W        W 5756  43.629  40.820   0.860
40497W        W 5757  31.480  29.040   4.521
40498W        W 5758  33.510   7.997  10.770
40499W        W 5759  10.639  16.108   1.336
40500W        W 5760  42.977  35.355   2.459
40501W        W 5761  30.025  36.317   1.392
40502W        W 5762   1.304  38.742  12.625
40503W        W 5763   3.750  14.807   4.139
40504W        W 5764  41.561  25.909  12.038
40505W        W 5765   5.188  23.768  11.630
40506W        W 5766  20.287  21.156  13.574
40507W        W 5767  14.552  26.519   4.089
40508W        W 5768  44.979   3.667   1.280
40509W        W 5769  39.299  39.076  12.488
40510W        W 5770   9.511  30.182   2.700
40511W        W 5771  39.775  13.608  13.548
40512W        W 5772  37.487  34.373   3.663
40513W        W 5773   9.843  43.777  11.871
40514W        W 5774   8.904   5.217   3.655
40515W        W 5775  17.250  43.531  10.352
40516W        W 5776   3.211   6.832  12.576
40517W        W 5777   1.017  34.109   3.148
40518W        W 5778  16.630  19.564   2.935
40519W        W 5779  22.598   5.911   2.255
40520W        W 5780   8.552  28.234   3.614
40521W        W 5781  21.178   3.718   1.750
40522W        W 5782  35.551  26.578   1.386
40523W        W 5783   3.890   1.416  13.951
40524W        W 5784   1.159   2.799  14.823
40525W        W 5785  20.222  15.315   3.044
40526W        W 5786  22.152   8.944   1.585
40527W        W 5787  14.108  42.072   2.713
40528W        W 5788  30.650  14.554   2.945
40529W        W 5789  44.459  34.880  12.403
40530W        W 5790   2.708  23.474   1.692
40531W        W 5791  30.206  31.963   2.200
40532W        W 5792   7.685  19.207   4.256
40533W        W 5793   3.175  33.656   2.931
40534W        W 5794   4.398   2.251   2.390
40535W        W 5795  40.094  22.506   0.810
40536W        W 5796  43.572   4.887   0.346
40537W        W 5797   0.375  35.835  12.352
40538W        W 5798   0.645  33.028   1.211
40539W        W 5799  22.489  35.934  13.094
40540W        W 5800  44.446  44.966   4.630
40541W        W 5801  20.199  20.531  10.502
40542W        W 5802  29.689  33.232  13.212
40543W        W 5803  37.589  34.044   3.234
40544W        W 5804  15.173   0.729   3.626
40545W        W 5805   4.221   4.599  13.532
40546W        W 5806  37.931  23.886   3.194
40547W        W 5807  41.858  34.687   3.183
40548W        W 5808  12.211  36.397   1.860
40549W        W 5809  34.679  34.250   1.404
40550W        W 5810  23.518  41.847   2.662
40551W        W 5811  36.455  10.689   1.661
40552W        W 5812  39.441   5.800   3.889
40553W        W 5813   6.536  13.639   0.406
40554W        W 5814   2.709  22.977   3.769
40555W        W 5815  14.225  23.036   2.887
40556W        W 5816  44.341  26.869  14.833
40557W        W 5817  44.286  21.946  13.945
40558W        W 5818  40.651   3.274  11.136
40559W        W 5819  39.193  24.294   1.389
40560W        W 5820  20.047  18.993   3.603
40561W        W 5821   3.366  42.431  14.429
40562W        W 5822  17.789  21.033  14.487
40563W        W 5823  14.120  42.117   0.647
40564W        W 5824  16.681  44.277  12.044
40565W        W 5825   0.298  39.392   3.989
40566W        W 5826  21.680  15.578   2.447
40567W        W 5827   6.113  38.169   3.669
40568W        W 5828  39.073  41.919  12.679
40569W        W 5829   3.760  33.010   0.955
40570W        W 5830  27.450  24.173   0.276
40571W        W 5831  38.972  19.822  13.974
40572W        W 5832  14.227  24.557   3.249
40573W        W 5833  12.838  28.515   2.771
40574W        W 5834  30.482  41.331   0.901
40575W        W 5835  26.433  14.532  14.496
40576W        W 5836  32.991   1.501   4.330
40577W        W 5837  36.457  30.476  10.680
40578W        W 5838  41.802  44.345  10.280
40579W        W 5839   6.904  22.645   4.346
40580W        W 5840  11.304  39.452   0.763
40581W        W 5841  37.291  21.482   4.781
40582W        W 5842  13.069  11.624  11.994
40583W        W 5843  31.076  17.174  14.852
40584W        W 5844  39.971  32.150   4.810
40585W        W 5845  29.232  18.113  12.466
40586W        W 5846  12.814  41.392   1.414
40587W        W 5847   3.792  34.501  13.419
40588W        W 5848  43.735  44.449  13.401
40589W        W 5849  15.745  11.354   4.411
40590W        W 5850  16.749  22.969  14.770
40591W        W 5851  30.411  20.717   0.317
40592W        W 5852  20.300  25.018  14.696
40593W        W 5853  44.664  44.518   4.511
40594W        W 5854   6.911  41.764   4.156
40595W        W 5855  28.040   4.314   4.008
40596W        W 5856  43.992  28.916  12.761
40597W        W 5857   5.052  42.894   5.127
40598W        W 5858   5.856   4.369   3.313
40599W        W 5859  41.907  14.773   4.146
40600W        W 5860  34.427  32.057   3.603
40601W        W 5861  16.034  11.671   1.341
40602W        W 5862  16.554   8.786  14.069
40603W        W 5863  39.511  14.849  13.417
40604W        W 5864  37.754  33.561   2.264
40605W        W 5865  29.735  33.887  12.037
40606W        W 5866  39.753  24.127  12.594
40607W        W 5867  19.245  39.394   1.196
40608W        W 5868  19.571  37.511  11.592
40609W        W 5869  37.922   2.754  14.517
40610W        W 5870  10.625  10.202  13.525
40611W        W 5871   3.431  14.546  13.858
40612W        W 5872  17.530   6.747  13.550
40613W        W 5873   7.304   5.510  13.415
40614W        W 5874  36.278  19.270  14.430
40615W        W 5875  20.637   9.836  13.141
40616W        W 5876  37.832   0.990   1.134
40617W        W 5877  26.536  30.450  13.304
40618W        W 5878   2.284  43.780   0.934
40619W        W 5879  34.726   3.990   5.019
40620W        W 5880  42.581  17.281  14.678
40621W        W 5881  18.940  28.991  13.584
40622W        W 5882  10.251  41.875  13.825
40623W        W 5883  41.690  35.518   2.263
40624W        W 5884  21.474   9.309  14.802
40625W        W 5885  10.413  22.112  11.543
40626W        W 5886  13.410  27.887  10.222
40627W        W 5887  40.290  35.992  14.405
40628W        W 5888  26.123  12.808  13.984
40629W        W 5889  36.073  24.946  13.812
40630W        W 5890  28.415  14.332   0.042
40631W        W 5891   7.502   3.684   3.185
40632W        W 5892  22.064   0.681  14.877
40633W        W 5893  32.011  27.675  13.585
40634W        W 5894  27.617  23.231   1.767
40635W        W 5895  25.120  34.666  11.455
40636W        W 5896   8.150  18.843   4.376
40637W        W 5897  33.002   7.450  13.873
40638W        W 5898  21.576   7.622  11.076
40639W        W 5899  29.242  12.273  12.547
40640W        W 5900  43.503  20.563  11.585
40641W        W 5901  20.534  15.675  14.706
40642W        W 5902  26.771  27.356  13.386
40643W        W 5903  24.570  11.426   4.811
40644W        W 5904  39.568  12.319   4.573
40645W        W 5905  18.303  31.079   3.876
40646W        W 5906  10.177  29.320   3.763
40647W        W 5907  13.873  25.640   2.649
40648W        W 5908   0.557  10.994  12.292
40649W        W 5909  23.248  17.661   4.567
40650W        W 5910   7.876  44.224  14.728
40651W        W 5911  42.735  37.024  12.982
40652W        W 5912   0.218  13.282   1.343
40653W        W 5913   8.454  19.636  14.463
40654W        W 5914   9.833  40.600  11.109
40655W        W 5915  14.279  44.428   1.684
40656W        W 5916  36.987  32.016   3.616
40657W        W 5917  16.620  36.303  11.074
40658W        W 5918   2.378  43.380   1.850
40659W        W 5919  10.646  43.833   0.332
40660W        W 5920  34.901  10.136   2.418
40661W        W 5921  32.094  43.459  13.083
40662W        W 5922  30.626   3.890  11.836
40663W        W 5923  14.909  34.406  10.636
40664W        W 5924  34.272  35.932  10.675
40665W        W 5925  11.147  32.595   2.322
40666W        W 5926  27.063  29.709  11.561
40667W        W 5927   0.461  41.681   3.781
40668W        W 5928   6.199  40.062  10.756
40669W        W 5929  31.465  43.822  14.823
40670W        W 5930  37.758   5.787   4.239
40671W        W 5931  24.549  28.346   0.833
40672W        W 5932  13.711  13.589   3.296
40673W        W 5933  36.037  32.926   4.748
40674W        W 5934  34.747  16.848   3.254
40675W        W 5935  35.009  44.906  12.663
40676W        W 5936  30.393  15.284   3.267
40677W        W 5937  25.719  13.814  10.676
40678W        W 5938   9.324  39.514   0.908
40679W        W 5939  23.761  26.271   1.483
40680W        W 5940  10.603  43.467  13.809
40681W        W 5941  37.665   6.758   1.692
40682W        W 5942  24.520  41.539  14.949
40683W        W 5943   8.491  22.680   3.622
40684W        W 5944  12.621  11.791   0.813
40685W        W 5945   2.465   2.348  14.730
40686W        W 5946  24.216  44.279   4.087
40687W        W 5947  21.462  31.036  13.350
40688W        W 5948  15.139   4.650  13.655
40689W        W 5949  37.729   4.241  11.982
40690W        W 5950   7.460  35.802   0.762
40691W        W 5951  14.211  13.064  14.021
40692W        W 5952  40.827  25.492   1.676
40693W        W 5953  19.650  35.525  10.706
40694W        W 5954  33.423  42.507  10.894
40695W        W 5955  30.529  42.749   1.810
40696W        W 5956  33.836   2.192  12.998
40697W        W 5957  37.661  19.023   3.791
40698W        W 5958  18.501  39.534   3.154
40699W        W 5959  12.889   4.868  13.183
40700W        W 5960  24.575  28.541   3.190
40701W        W 5961  33.007   3.902   1.014
40702W        W 5962   4.778   4.313   0.964
40703W        W 5963  22.576  13.377  10.970
40704W        W 5964   2.200   6.351   3.727
40705W        W 5965  11.746  30.042  13.898
40706W        W 5966   6.015  16.235  13.466
40707W        W 5967  35.487  22.318  14.844
40708W        W 5968  42.938  41.806   0.856
40709W        W 5969  18.267   7.725  14.582
40710W        W 5970  39.709  17.778  12.570
40711W        W 5971  11.716  25.133  14.642
40712W        W 5972   4.967   5.015  11.066
40713W        W 5973  14.351  17.586   3.404
40714W        W 5974   3.474   6.775  11.949
40715W        W 5975   7.563  17.713  12.465
40716W        W 5976  40.216  21.279   5.030
40717W        W 5977  13.341  34.642   3.184
40718W        W 5978   5.632  20.135  13.070
40719W        W 5979  33.907  22.438   3.203
40720W        W 5980   5.004  38.468  12.037
40721W        W 5981   5.228   3.273  11.587
40722W        W 5982  23.959  16.639   0.447
40723W        W 5983   8.684  32.576   2.672
40724W        W 5984  23.020  21.646   0.813
40725W        W 5985  30.950  18.212  13.336
40726W        W 5986  14.642  39.395   4.149
40727W        W 5987  37.657  11.470   1.735
40728W        W 5988  24.461   6.377   2.284
40729W        W 5989  30.608  10.568  10.666
40730W        W 5990  41.930  13.716   0.351
40731W        W 5991   0.483  11.510   2.183
40732W        W 5992  12.660   1.013   4.725
40733W        W 5993  17.001  15.854  13.815
40734W        W 5994   8.877  13.098  14.246
40735W        W 5995   1.668  23.286   5.014
40736W        W 5996  35.640   2.834   0.008
40737W        W 5997  24.490  42.581   0.909
40738W        W 5998  44.100  16.852  11.128
40739W        W 5999  16.738  32.616   0.322
40740W        W 6000  34.099  14.893  14.535
40741W        W 6001  33.033  36.102   0.301
40742W        W 6002  41.391  29.452  13.338
40743W        W 6003  35.011  27.397  12.511
40744W        W 6004  16.247  30.592  12.911
40745W        W 6005  32.709  25.533   2.858
40746W        W 6006  19.568  10.897   1.909
40747W        W 6007  41.881  41.180  14.718
40748W        W 6008   3.562  43.774  10.833
40749W        W 6009  10.153  13.773  12.015
40750W        W 6010  41.924  14.622   1.903
40751W        W 6011  28.090  16.501   3.060
40752W        W 6012  20.871   2.913  11.559
40753W        W 6013  15.291   8.874  13.392
40754W        W 6014  25.328  31.613   0.867
40755W        W 6015   0.299  15.315   3.734
40756W        W 6016  23.502   7.251   0.881
40757W        W 6017  22.457  10.873   1.151
40758W        W 6018  35.950  25.432  14.535
40759W        W 6019  23.739  10.583  12.246
40760W        W 6020  34.907  44.935  14.915
40761W        W 6021  21.092   6.818  13.825
40762W        W 6022  36.596  37.922  14.390
40763W        W 6023  16.983  12.647   4.355
40764W        W 6024   1.284   8.403   1.704
40765W        W 6025  31.067  38.427   0.001
40766W        W 6026  28.115  14.345  14.308
40767W        W 6027  24.055   5.254   3.169
40768W        W 6028  11.594  31.983  11.280
40769W        W 6029   9.424  40.862   4.533
40770W        W 6030  44.470  40.979  13.634
40771W        W 6031  39.672   8.600  11.804
40772W        W 6032  21.995   2.019  11.115
40773W        W 6033  25.152  17.972   4.935
40774W        W 6034  34.211  20.315   3.175
40775W        W 6035  43.998  28.990  12.155
40776W        W 6036  16.724  40.924   0.519
40777W        W 6037  26.184  11.816  13.347
40778W        W 6038  20.140   2.310  11.610
40779W        W 6039  20.742  29.100   4.135
40780W        W 6040   3.221   7.178   0.140
40781W        W 6041  32.502  35.167   4.262
40782W        W 6042  22.152  44.556  11.971
40783W        W 6043  21.187  23.184   3.549
40784W        W 6044  38.004  19.522  12.984
40785W        W 6045  30.854  16.711   2.275
40786W        W 6046   3.945  43.935  13.945
40787W        W 6047  30.944  30.898  14.052
40788W        W 6048  43.845  31.912  12.862
40789W        W 6049  39.333  13.686   1.018
40790W        W 6050  40.793  32.619   2.221
40791W        W 6051   6.773   2.550   1.749
40792W        W 6052   8.419   7.425  11.685
40793W        W 6053  43.464  33.339   0.931
40794W        W 6054  32.536  26.630   5.419
40795W        W 6055  39.590  28.369  10.647
40796W        W 6056   3.468  12.822  14.318
40797W        W 6057  44.969  29.810   3.558
40798W        W 6058  28.512  18.154  13.040
40799W        W 6059  16.153  35.092  11.181
40800W        W 6060   6.380  29.115   1.380
40801W        W 6061  12.695  40.025   1.976
40802W        W 6062  16.419  12.395   3.198
40803W        W 6063  27.414   3.435  13.013
40804W        W 6064   3.715  41.788   4.496
40805W        W 6065  36.775  38.295  11.128
40806W        W 6066   4.985  39.164   4.978
40807W        W 6067  32.591   2.730  13.559
40808W        W 6068   4.430  10.200  12.950
40809W        W 6069  22.630  18.502  12.600
40810W        W 6070  24.695  40.911  11.154
40811W        W 6071   0.398   6.790  13.340
40812W        W 6072   8.662  24.930  11.153
40813W        W 6073  27.777  17.350  12.503
40814W        W 6074  18.725  15.752   3.770
40815W        W 6075  13.784  39.368   0.113
40816W        W 6076  30.055  35.607   3.907
40817W        W 6077   8.679  32.696   0.672
40818W        W 6078   8.252  32.558   1.862
40819W        W 6079  23.041  22.969   0.727
40820W        W 6080  39.848   3.222   2.536
40821W        W 6081  25.489   6.898   4.145
40822W        W 6082  30.183  26.657   4.542
40823W        W 6083  21.668  37.607   1.620
40824W        W 6084  22.514  40.241  10.218
40825W        W 6085  33.461  42.785  11.439
40826W        W 6086   5.705  37.403  14.550
40827W        W 6087  28.438  40.790   2.905
40828W        W 6088  25.215  38.984  10.475
40829W        W 6089   5.891  36.511  14.715
40830W        W 6090   5.257  14.120   3.635
40831W        W 6091  31.419  13.209  12.418
40832W        W 6092  16.819  34.667  13.578
40833W        W 6093  18.188  31.979   3.658
40834W        W 6094  26.450   4.926  14.766
40835W        W 6095  14.239  23.103  10.160
40836W        W 6096   3.459   9.462   4.669
40837W        W 6097  35.677  24.724   0.840
40838W        W 6098  17.644  14.579  13.285
40839W        W 6099  43.796  44.864  10.429
40840W        W 6100   3.272   6.247  10.608
40841W        W 6101  29.523   2.814   2.996
40842W        W 6102  26.668  43.850  12.663
40843W        W 6103  18.348  24.349   3.911
40844W        W 6104   3.468   2.493  11.515
40845W        W 6105  33.399  43.938  12.474
40846W        W 6106  21.197  41.945  13.490
40847W        W 6107  32.765  26.390   3.576
40848W        W 6108   2.226   3.382   3.603
40849W        W 6109  38.108  12.846  13.220
40850W        W 6110  36.665   6.247  10.645
40851W        W 6111   8.670   4.189  12.062
40852W        W 6112   3.435  24.609   5.114
40853W        W 6113  32.354  38.979   4.572
40854W        W 6114  18.873  39.242   4.634
40855W        W 6115   0.824  29.458  10.599
40856W        W 6116  36.154  34.389   2.340
40857W        W 6117  30.343  10.852   0.368
40858W        W 6118   7.551  23.618  14.066
40859W        W 6119   6.216  17.061  13.766
40860W        W 6120  30.998  32.116   3.624
40861W        W 6121  26.643   4.873   5.008
40862W        W 6122  35.023   2.366   0.444
40863W        W 6123   6.080  15.926  14.315
40864W        W 6124   8.895  10.530  14.782
40865W        W 6125  43.437  19.784   4.522
40866W        W 6126  35.487  27.581  12.458
40867W        W 6127  35.780  27.625  12.896
40868W        W 6128  42.855  26.222  11.616
40869W        W 6129  10.868  35.061   2.570
40870W        W 6130   2.698  44.307   0.454
40871W        W 6131  13.009  10.077  13.506
40872W        W 6132  30.906  26.957  11.954
40873W        W 6133  37.435  16.035  13.315
40874W        W 6134  18.305  21.820  13.304
40875W        W 6135  38.505  44.234   2.795
40876W        W 6136  33.927  17.841   4.437
40877W        W 6137   5.635  36.554   3.330
40878W        W 6138  30.578  22.934  14.505
40879W        W 6139   1.048   9.168   4.477
40880W        W 6140   2.306  44.387  14.781
40881W        W 6141  20.441   8.299   1.898
40882W        W 6142  20.807  41.069  11.618
40883W        W 6143  12.867  26.346  13.043
40884W        W 6144  17.672   4.475  12.914
40885W        W 6145  17.580  22.585  13.716
40886W        W 6146  27.888  23.763   2.331
40887W        W 6147   1.510  41.892   3.874
40888W        W 6148  38.918  44.726  10.679
40889W        W 6149  25.961  44.387  11.324
40890W        W 6150  39.558  41.740  12.412
40891W        W 6151  36.050  43.348  13.556
40892W        W 6152  34.194  20.607   1.261
40893W        W 6153  40.287   8.329  11.866
40894W        W 6154  38.032  41.936   3.740
40895W        W 6155  14.502  29.486   3.829
40896W        W 6156   8.821  13.218  11.523
40897W        W 6157  31.306  35.505  14.752
40898W        W 6158  31.417   4.227  14.140
40899W        W 6159   6.174  22.247  13.079
40900W        W 6160   6.506  39.603  13.832
40901W        W 6161  43.562  11.347  13.792
40902W        W 6162   0.416  27.676   1.232
40903W        W 6163  35.835  17.142  14.504
40904W        W 6164   3.697  40.413  12.549
40905W        W 6165  19.254  18.647   4.696
40906W        W 6166  39.396  34.437   1.596
40907W        W 6167  32.337  23.202  14.814
40908W        W 6168  31.526  16.887  14.357
40909W        W 6169  42.104  29.629  14.854
40910W        W 6170  32.596  12.297   0.838
40911W        W 6171  43.752  35.556   1.404
40912W        W 6172  37.451   9.308  13.460
40913W        W 6173   0.748  32.699   0.805
40914W        W 6174  36.426  22.927  10.055
40915W        W 6175  19.039  43.859   3.136
40916W        W 6176  38.288  13.747  13.115
40917W        W 6177   8.258  41.110  14.643
40918W        W 6178  22.793  11.321  11.877
40919W        W 6179  17.755   5.394  12.000
40920W        W 6180  26.271  20.845   4.457
40921W        W 6181   0.289  20.631  10.797
40922W        W 6182   1.979  14.298   4.091
40923W        W 6183  39.829  18.609  14.877
40924W        W 6184  22.180  18.217   2.235
40925W        W 6185  44.958   8.203   1.378
40926W        W 6186  15.405   5.938  14.868
40927W        W 6187   5.305  10.807   1.899
40928W        W 6188  26.231  39.373  10.431
40929W        W 6189  21.144  26.928  11.208
40930W        W 6190  37.377   9.324  14.398
40931W        W 6191  31.503  36.296  13.467
40932W        W 6192  18.720  43.638  13.063
40933W        W 6193  28.010  19.986  14.831
40934W        W 6194   6.993  41.712  12.906
40935W        W 6195   0.939  26.703  14.899
40936W        W 6196  34.220   6.688  14.852
40937W        W 6197  29.048  23.214   3.165
40938W        W 6198  17.408  44.716  13.357
40939W        W 6199  42.837  25.388   3.737
40940W        W 6200   9.821  36.427  12.177
40941W        W 6201   6.023  13.647   0.304
40942W        W 6202   4.747   8.935   1.252
40943W        W 6203  14.703  25.158  14.525
40944W        W 6204   3.819  33.946   4.301
40945W        W 6205  28.716  13.457   3.100
40946W        W 6206  23.261  36.190  12.122
40947W        W 6207  20.316  22.937   3.146
40948W        W 6208  15.593   1.320   4.445
40949W        W 6209  37.255  40.835   3.889
40950W        W 6210  12.157  20.062  12.011
40951W        W 6211  36.004   7.893   4.304
40952W        W 6212   1.260  19.205   3.751
40953W        W 6213   6.121   7.460   2.557
40954W        W 6214  23.297  24.068  11.859
40955W        W 6215   0.904   7.994  11.212
40956W        W 6216   1.104  27.574  14.837
40957W        W 6217  26.927  29.544   4.490
40958W        W 6218  17.620  13.856  14.502
40959W        W 6219  40.236  41.801  14.885
40960W        W 6220   2.903  42.750   4.308
40961W        W 6221  34.388  28.625   0.560
40962W        W 6222  26.502  34.197  10.646
40963W        W 6223  37.598  21.087  11.660
40964W        W 6224  25.572  15.108  14.414
40965W        W 6225  19.634  32.161   2.692
40966W        W 6226  30.165  17.346  10.622
40967W        W 6227  16.755  32.966  13.593
40968W        W 6228  36.384  30.966  10.519
40969W        W 6229  15.192  17.988   3.056
40970W        W 6230   1.712  13.651  11.629
40971W        W 6231  28.582  16.292  10.394
40972W        W 6232  30.407  40.399   0.869
40973W        W 6233  35.391  29.584   1.174
40974W        W 6234  38.077  40.385  11.930
40975W        W 6235  33.517  21.473  13.873
40976W        W 6236  10.346  16.302   1.747
40977W        W 6237  27.552  31.106   1.379
40978W        W 6238  11.346   6.439   2.481
40979W        W 6239  18.720  40.879  12.396
40980W        W 6240  23.536   4.724   3.620
40981W        W 6241  13.094  25.670   3.769
40982W        W 6242  25.346  25.472   1.292
40983W        W 6243  24.465  26.918  14.273
40984W        W 6244  23.788  38.044  14.970
40985W        W 6245  16.038  25.931   2.596
40986W        W 6246  37.151   1.944   4.573
40987W        W 6247  29.157  12.586   1.813
40988W        W 6248  26.907  22.644  11.563
40989W        W 6249  23.783  40.357  10.726
40990W        W 6250  39.801  17.198  11.658
40991W        W 6251  20.328  27.844  11.976
40992W        W 6252  26.292  25.817   0.256
40993W        W 6253  29.480  11.446   3.197
40994W        W 6254  10.189   9.836  11.159
40995W        W 6255  29.707  18.028  13.345
40996W        W 6256  18.860  36.062  14.841
40997W        W 6257  18.215  32.465  11.004
40998W        W 6258   9.979  19.777  11.343
40999W        W 6259  34.589  20.617   0.897
41000W        W 6260  17.969  33.914   4.445
41001W        W 6261  23.535  39.967  12.103
41002W        W 6262  11.505  38.432   9.558
41003W        W 6263   1.452  33.955  13.107
41004W        W 6264   6.281  20.458   0.630
41005W        W 6265  10.899  34.323   0.702
41006W        W 6266  17.491  22.164  10.589
41007W        W 6267  42.858  42.737   0.547
41008W        W 6268  23.582  24.768   3.289
41009W        W 6269  12.679  44.970  11.117
41010W        W 6270  14.224  35.079   3.864
41011W        W 6271   3.768   5.981   2.410
41012W        W 6272   2.435   1.687   4.948
41013W        W 6273  21.217  28.593   1.921
41014W        W 6274  41.976  40.009  13.955
41015W        W 6275   9.948  39.385   2.499
41016W        W 6276  32.472  19.496  11.674
41017W        W 6277  16.029  22.494  12.958
41018W        W 6278  12.234  23.408  12.034
41019W        W 6279  32.974  35.774   0.711
41020W        W 6280  40.178  27.439  11.468
41021W        W 6281  12.840   5.902   0.898
41022W        W 6282  14.777   1.809  11.453
41023W        W 6283  43.044  21.872   0.297
41024W        W 6284   6.533   3.738   3.528
41025W        W 6285  44.024  15.210   4.132
41026W        W 6286   7.179   2.018   1.152
41027W        W 6287  11.624  17.234  14.056
41028W        W 6288  20.074  36.535   4.679
41029W        W 6289  21.420   6.949   3.643
41030W        W 6290  43.518  20.831  12.911
41031W        W 6291  25.596   6.902   2.684
41032W        W 6292   3.310  32.721  12.557
41033W        W 6293  39.908   8.464   3.176
41034W        W 6294  12.426  32.810   3.294
41035W        W 6295   0.973  21.375  10.797
41036W        W 6296   3.415  11.211  12.661
41037W        W 6297   2.128  23.457  11.611
41038W        W 6298  22.599  31.664   0.887
41039W        W 6299  30.008  15.555   2.481
41040W        W 6300  26.938   9.325  12.998
41041W        W 6301   7.235   0.260   2.749
41042W        W 6302  21.436  21.536   5.384
41043W        W 6303  22.010  31.056  10.696
41044W        W 6304  37.389  36.489  10.742
41045W        W 6305  20.953  18.432  10.096
41046W        W 6306  40.402  19.111  10.808
41047W        W 6307  20.412  26.018   0.361
41048W        W 6308  24.326  16.239  14.730
41049W        W 6309   1.839  37.509   3.709
41050W        W 6310  18.844  14.158  11.482
41051W        W 6311  27.093  43.608   4.713
41052W        W 6312  41.128  27.932  12.412
41053W        W 6313   5.216  20.134   4.607
41054W        W 6314  39.854   4.592  11.679
41055W        W 6315  20.849  44.148   2.373
41056W        W 6316  17.868  43.286  12.039
41057W        W 6317  27.477  25.254  14.039
41058W        W 6318  37.202  43.694   1.915
41059W        W 6319  42.978  38.829  11.540
41060W        W 6320  25.772  37.445   4.233
41061W        W 6321   0.542  30.239  13.303
41062W        W 6322  13.095  29.434  14.603
41063W        W 6323   3.314  44.855   1.916
41064W        W 6324  29.548   6.097  11.561
41065W        W 6325  17.324  19.219   1.226
41066W        W 6326  22.325  10.952  12.393
41067W        W 6327  15.857  25.647  13.022
41068W        W 6328  35.874  13.666   2.193
41069W        W 6329  22.585  31.064   2.325
41070W        W 6330  14.260  22.755  13.566
41071W        W 6331  38.338  24.767  14.854
41072W        W 6332  11.269  37.320  11.204
41073W        W 6333   5.192  40.440  11.869
41074W        W 6334  24.547  15.837  10.637
41075W        W 6335   7.142  26.007   2.181
41076W        W 6336  31.457  34.924  13.055
41077W        W 6337  42.553  30.512  10.653
41078W        W 6338  34.959  26.353  13.466
41079W        W 6339  34.251  27.752   3.294
41080W        W 6340  44.000  38.950   1.673
41081W        W 6341  21.790  14.361   4.612
41082W        W 6342  11.421   6.524  12.018
41083W        W 6343  28.337  26.143  11.521
41084W        W 6344  26.608  33.818  13.572
41085W        W 6345  29.227  22.683  14.554
41086W        W 6346  35.510  21.244   9.871
41087W        W 6347   3.481  35.602   2.773
41088W        W 6348  36.817  21.033  14.959
41089W        W 6349  12.091   7.844  14.985
41090W        W 6350  34.654  39.862   2.300
41091W        W 6351  24.006  42.300  11.109
41092W        W 6352  31.586  38.087  13.053
41093W        W 6353  28.813  33.458   1.304
41094W        W 6354  16.562   3.008  12.394
41095W        W 6355  40.366  36.366   3.716
41096W        W 6356  10.972  31.344  14.876
41097W        W 6357   2.002   8.237   0.361
41098W        W 6358  29.611  25.772  10.142
41099W        W 6359   5.176  29.736   9.922
41100W        W 6360  21.131   0.783   0.085
41101W        W 6361  28.949  30.419  14.919
41102W        W 6362  33.039  15.552  14.032
41103W        W 6363  40.090  34.523  11.998
41104W        W 6364  21.475  15.557   0.834
41105W        W 6365   9.437  32.085  13.086
41106W        W 6366   9.569  12.780  13.362
41107W        W 6367  44.944  10.191   3.849
41108W        W 6368  32.937  33.950   0.621
41109W        W 6369  17.800  27.459  10.743
41110W        W 6370   7.663  17.215  12.368
41111W        W 6371  23.006  28.410  14.640
41112W        W 6372  39.816  24.992  12.544
41113W        W 6373   2.697  35.487   3.105
41114W        W 6374   5.154  13.210   4.573
41115W        W 6375  30.560  27.709   0.956
41116W        W 6376  34.371  15.539   1.816
41117W        W 6377  31.977  11.208  14.890
41118W        W 6378  10.483  22.677   1.661
41119W        W 6379  38.915   0.601  10.696
41120W        W 6380  30.717   6.882  10.734
41121W        W 6381  41.851  14.985  12.065
41122W        W 6382  27.192  35.423  12.837
41123W        W 6383  29.584   3.801   4.279
41124W        W 6384  10.728  20.304   4.664
41125W        W 6385   4.217  19.699   1.420
41126W        W 6386  30.588  37.340  11.426
41127W        W 6387  15.755  30.040  13.544
41128W        W 6388   0.790  15.804  10.044
41129W        W 6389  11.562  38.533  14.612
41130W        W 6390  12.880  23.216  11.623
41131W        W 6391  18.740  33.875   1.841
41132W        W 6392   7.862   0.832  10.953
41133W        W 6393  30.687  44.528  10.712
41134W        W 6394  16.736  39.213  11.899
41135W        W 6395   3.310  30.972  13.746
41136W        W 6396   9.924  28.105   4.114
41137W        W 6397  23.086  42.555  14.831
41138W        W 6398  24.703   1.632   2.579
41139W        W 6399  16.400  39.503   4.101
41140W        W 6400  17.904  23.834   2.275
41141W        W 6401  25.719  23.635  11.904
41142W        W 6402   2.979  34.107   3.045
41143W        W 6403   3.776  25.037  14.273
41144W        W 6404   2.805   2.414   4.381
41145W        W 6405  12.640   8.346   2.623
41146W        W 6406   2.783  44.032  11.092
41147W        W 6407   6.776  38.520  13.388
41148W        W 6408  29.433   7.486  13.969
41149W        W 6409   7.250  39.301   1.723
41150W        W 6410   3.947  11.603   1.939
41151W        W 6411  16.549  32.475  13.575
41152W        W 6412  26.441  12.704  12.604
41153W        W 6413  14.407  38.948   1.452
41154W        W 6414   5.116  23.947   1.749
41155W        W 6415   4.261  34.627   0.746
41156W        W 6416  27.591  38.033  13.275
41157W        W 6417   2.344  44.055   4.254
41158W        W 6418  32.643  16.637   3.142
41159W        W 6419   1.512  33.549  13.435
41160W        W 6420  27.146  13.890  14.761
41161W        W 6421  37.504  10.324  12.634
41162W        W 6422  41.624  21.817  13.527
41163W        W 6423  11.180  10.559  14.886
41164W        W 6424  41.105  38.589  13.463
41165W        W 6425   0.769  16.043   4.664
41166W        W 6426  36.297  22.027   2.648
41167W        W 6427   1.889   5.655   0.420
41168W        W 6428  44.873  27.111   4.011
41169W        W 6429  42.476  28.652   1.446
41170W        W 6430  31.956   9.911  10.723
41171W        W 6431  33.816  21.698   1.484
41172W        W 6432  33.830  28.077   2.894
41173W        W 6433  24.119  41.985   4.416
41174W        W 6434  12.573  40.419  11.120
41175W        W 6435   2.192  22.800   2.701
41176W        W 6436  37.194  38.178   0.674
41177W        W 6437  21.251  12.225  12.016
41178W        W 6438  10.181  18.738   2.682
41179W        W 6439   7.178  29.444   3.596
41180W        W 6440  43.338   4.525  11.200
41181W        W 6441  26.959  35.062  11.527
41182W        W 6442  36.530   6.251   3.671
41183W        W 6443  14.289  15.868   0.373
41184W        W 6444  28.775  38.463   0.546
41185W        W 6445  40.276   4.475   4.124
41186W        W 6446  43.339  25.545   1.282
41187W        W 6447  39.408   6.717  11.810
41188W        W 6448  17.357   0.146  14.497
41189W        W 6449  30.653  37.775  11.136
41190W        W 6450  17.140  18.718  13.814
41191W        W 6451   1.468  36.050   1.665
41192W        W 6452  12.242   5.988   2.201
41193W        W 6453  44.492  35.374  12.585
41194W        W 6454  25.544  19.287  12.011
41195W        W 6455  29.385   7.419   0.580
41196W        W 6456  23.465  31.788  11.930
41197W        W 6457  11.467  44.313  10.560
41198W        W 6458  34.321  26.578  11.630
41199W        W 6459  29.458   6.631  14.435
41200W        W 6460  21.427   1.374  12.953
41201W        W 6461  31.786  43.713   1.201
41202W        W 6462  34.262  38.015   2.253
41203W        W 6463  11.422  27.083   0.330
41204W        W 6464  23.034  29.655   0.254
41205W        W 6465  28.500  11.210   4.487
41206W        W 6466   4.771  41.267   1.851
41207W        W 6467  12.153  20.573  12.018
41208W        W 6468  38.583  29.884   3.243
41209W        W 6469  40.804  18.036  11.180
41210W        W 6470  28.701  28.280   1.887
41211W        W 6471  18.642  44.094   0.002
41212W        W 6472   6.953   9.387   2.742
41213W        W 6473  18.041   2.396  10.702
41214W        W 6474  13.812   6.727   3.640
41215W        W 6475  25.040  38.786  11.246
41216W        W 6476  39.496  30.442   4.512
41217W        W 6477  42.795  37.873  14.085
41218W        W 6478  24.279  24.032  11.561
41219W        W 6479  18.275   3.497  11.942
41220W        W 6480   0.495   0.249  11.174
41221W        W 6481  26.743  33.315   4.757
41222W        W 6482  43.842  14.824   1.763
41223W        W 6483  25.618  38.403  11.092
41224W        W 6484  26.769  25.765  10.681
41225W        W 6485  37.329  44.182   3.254
41226W        W 6486  20.556  13.922   4.562
41227W        W 6487  27.067  37.041  12.411
41228W        W 6488  15.051   5.719  12.060
41229W        W 6489   1.637  29.477  14.548
41230W        W 6490  15.277  28.839   0.447
41231W        W 6491  35.881  36.247   0.776
41232W        W 6492  35.343  28.838   1.846
41233W        W 6493  18.199  34.864   3.714
41234W        W 6494  14.276  11.271   1.682
41235W        W 6495  19.554  16.784  13.815
41236W        W 6496  18.747  19.600  14.403
41237W        W 6497  33.669  33.574  11.170
41238W        W 6498   0.242  41.669   4.268
41239W        W 6499   3.852  14.673  12.126
41240W        W 6500  13.005  42.910   1.646
41241W        W 6501  11.402  42.500   3.230
41242W        W 6502  29.619  14.117   2.270
41243W        W 6503  26.678   1.733  11.546
41244W        W 6504   9.274  43.700   0.484
41245W        W 6505  40.066  37.048   4.631
41246W        W 6506  39.250   2.024  13.591
41247W        W 6507  16.173  25.291  14.747
41248W        W 6508  38.050   2.866   2.284
41249W        W 6509  24.512   0.696   2.945
41250W        W 6510   9.998   4.553  12.996
41251W        W 6511  22.012  27.189  13.279
41252W        W 6512  35.488  21.089  13.626
41253W        W 6513  19.146  17.807   4.389
41254W        W 6514  16.640  36.047   0.493
41255W        W 6515  44.535  32.627  12.264
41256W        W 6516  29.716  44.380  12.915
41257W        W 6517   0.924  27.454   1.294
41258W        W 6518  37.083  40.208  10.970
41259W        W 6519  24.420  30.559   2.379
41260W        W 6520  21.577  21.641   0.470
41261W        W 6521  25.979  44.958  11.683
41262W        W 6522  33.774  13.092   1.372
41263W        W 6523  37.606   8.849  10.617
41264W        W 6524  22.724  11.523   3.205
41265W        W 6525   5.941  16.558   1.708
41266W        W 6526  29.934  36.201  12.403
41267W        W 6527   2.405  27.001   4.773
41268W        W 6528  33.297  24.503  14.362
41269W        W 6529  32.346  26.785  12.253
41270W        W 6530  35.078  19.949   2.282
41271W        W 6531  17.093  26.252   1.019
41272W        W 6532   0.886  19.008   0.203
41273W        W 6533  32.787  15.000  13.203
41274W        W 6534  33.904  17.138   0.740
41275W        W 6535  41.222  28.512  13.349
41276W        W 6536  34.891  12.219  14.965
41277W        W 6537  17.233  39.799   1.730
41278W        W 6538   0.988  38.361  11.186
41279W        W 6539  29.478  34.486   2.420
41280W        W 6540  31.214  35.949   2.644
41281W        W 6541   1.354  31.973  12.323
41282W        W 6542  37.089  22.645  12.043
41283W        W 6543  17.695  26.972   4.139
41284W        W 6544   9.481  17.943   4.496
41285W        W 6545  24.578  30.979  14.025
41286W        W 6546  38.535  14.215   3.209
41287W        W 6547   7.765  44.395   4.573
41288W        W 6548   9.653  23.595   1.360
41289W        W 6549  12.797  17.663   1.004
41290W        W 6550  43.491  16.793   2.572
41291W        W 6551  36.903   3.721  14.424
41292W        W 6552  10.982  37.511   2.808
41293W        W 6553   4.618   2.717   3.986
41294W        W 6554  29.477  32.609  10.755
41295W        W 6555   1.013  44.567   2.803
41296W        W 6556  10.737  20.180  13.979
41297W        W 6557  35.042  29.603   0.188
41298W        W 6558   5.389  34.999   4.761
41299W        W 6559  29.613  10.280  10.065
41300W        W 6560  22.668  35.120  13.134
41301W        W 6561  37.521  15.654   4.491
41302W        W 6562  25.928   0.924   2.787
41303W        W 6563  20.519  36.973  11.487
41304W        W 6564  14.640  29.636   0.273
41305W        W 6565  11.878  14.722  11.509
41306W        W 6566  42.837   3.371   0.844
41307W        W 6567  26.628  34.402   0.481
41308W        W 6568  25.215  34.944   4.336
41309W        W 6569  34.879   0.774   0.331
41310W        W 6570  15.390  10.166   3.110
41311W        W 6571  21.627   0.937   1.836
41312W        W 6572  15.622  32.673   2.753
41313W        W 6573  12.086  31.352  10.679
41314W        W 6574  40.354  20.550   4.755
41315W        W 6575  41.948  24.108   4.134
41316W        W 6576  38.061  19.059  12.780
41317W        W 6577  41.307  29.948  14.929
41318W        W 6578  18.872  39.546   2.179
41319W        W 6579  30.856  40.420   2.088
41320W        W 6580   9.894  35.510  12.107
41321W        W 6581  23.926  16.296  14.402
41322W        W 6582  42.944  16.206  13.625
41323W        W 6583   7.923  44.145   2.191
41324W        W 6584  35.524  35.018   4.954
41325W        W 6585   9.905  31.402  12.415
41326W        W 6586  43.674  28.456   4.137
41327W        W 6587  17.164  41.883  10.798
41328W        W 6588  14.273  17.151   1.061
41329W        W 6589  19.171  32.194   0.929
41330W        W 6590  24.570  32.948   3.224
41331W        W 6591  38.969  13.338   2.793
41332W        W 6592  35.355   8.519   0.842
41333W        W 6593  19.645   7.963   4.748
41334W        W 6594  24.526  13.394  10.602
41335W        W 6595   1.040  17.732   4.149
41336W        W 6596  42.256  30.422   4.829
41337W        W 6597  20.628  40.879  14.760
41338W        W 6598  18.703  41.397   4.319
41339W        W 6599  38.913  40.735   1.342
41340W        W 6600  26.442   6.183  14.349
41341W        W 6601   6.563  14.262   0.775
41342W        W 6602  17.689   5.657   1.239
41343W        W 6603  40.868  16.148  11.484
41344W        W 6604  24.116  24.663   2.240
41345W        W 6605  10.862   1.533  12.029
41346W        W 6606  22.041  12.263  13.472
41347W        W 6607   1.459  11.600   5.459
41348W        W 6608  42.103  14.177   1.214
41349W        W 6609  30.672  20.981   0.690
41350W        W 6610  30.515  35.322   0.792
41351W        W 6611  16.896   2.710   4.441
41352W        W 6612  44.980  34.643  13.437
41353W        W 6613  33.648  28.026   2.371
41354W        W 6614  11.353  41.504  10.547
41355W        W 6615  37.800  41.705  14.914
41356W        W 6616  11.199  14.781  13.938
41357W        W 6617  21.956  26.618  14.900
41358W        W 6618   6.305  10.448  12.891
41359W        W 6619   7.654  24.573   0.375
41360W        W 6620  42.111  33.316  12.488
41361W        W 6621  22.185  37.467   1.711
41362W        W 6622  21.960   2.111   4.942
41363W        W 6623   1.245  18.384   3.740
41364W        W 6624  22.121  10.730  14.864
41365W        W 6625  33.539   4.714   3.293
41366W        W 6626  13.559   0.508   4.199
41367W        W 6627  28.469  24.655   4.180
41368W        W 6628   7.883  10.847   2.164
41369W        W 6629  26.872  12.075  10.854
41370W        W 6630  32.503  44.749  11.911
41371W        W 6631  35.962   5.616   3.738
41372W        W 6632  12.730  36.358   3.197
41373W        W 6633   0.480  17.912   2.681
41374W        W 6634  13.707  17.552  14.338
41375W        W 6635  38.065  22.566   3.743
41376W        W 6636   4.209  21.719  11.542
41377W        W 6637   9.776   2.026   3.209
41378W        W 6638  14.299  12.894  14.529
41379W        W 6639   1.242  12.265   3.310
41380W        W 6640  15.173  30.084   4.654
41381W        W 6641   6.239  17.578   4.596
41382W        W 6642  35.341   1.497   3.081
41383W        W 6643  19.701   4.357   2.813
41384W        W 6644  34.107  35.844   2.750
41385W        W 6645  31.112  14.658  11.986
41386W        W 6646   4.108  23.294  10.743
41387W        W 6647   4.097  18.963  10.809
41388W        W 6648  23.689  22.638   3.291
41389W        W 6649  40.443  24.955   4.575
41390W        W 6650   4.941  23.505   3.562
41391W        W 6651  13.339  44.494  13.532
41392W        W 6652  15.166   2.669   1.758
41393W        W 6653  42.260  19.020  11.192
41394W        W 6654  25.722  16.232   1.758
41395W        W 6655  42.601  38.774   0.480
41396W        W 6656  34.318  23.004  11.100
41397W        W 6657  16.532  20.235  12.217
41398W        W 6658  17.990  40.297   0.327
41399W        W 6659  41.851  20.669   1.668
41400W        W 6660   0.209  20.991   2.767
41401W        W 6661  36.410  30.640   0.776
41402W        W 6662   0.361  32.966   4.459
41403W        W 6663  12.147  39.273   3.881
41404W        W 6664   8.438  21.950  11.046
41405W        W 6665  40.479  12.145  13.828
41406W        W 6666   0.305  11.438  12.169
41407W        W 6667  24.555   6.733   3.786
41408W        W 6668  32.226  19.194  14.080
41409W        W 6669  35.047  20.561   3.655
41410W        W 6670  23.010   3.976   2.249
41411W        W 6671  14.373   7.004   4.051
41412W        W 6672  15.702  37.989   3.754
41413W        W 6673  21.571  24.225  10.291
41414W        W 6674   8.075  32.084  14.057
41415W        W 6675  40.253   8.080  12.327
41416W        W 6676  33.132   4.696  11.619
41417W        W 6677  43.368  32.066  14.141
41418W        W 6678  38.309  35.564   4.145
41419W        W 6679  44.910  34.236  12.075
41420W        W 6680  11.102  41.429   4.604
41421W        W 6681  39.038  14.044   5.013
41422W        W 6682   7.817  42.465  12.001
41423W        W 6683  44.463  17.132  14.796
41424W        W 6684  29.146  33.869  11.520
41425W        W 6685   6.494  37.983   2.487
41426W        W 6686  38.131   1.195   0.609
41427W        W 6687  10.861  41.400  11.694
41428W        W 6688  40.480   0.902  12.948
41429W        W 6689  43.073   2.398  14.502
41430W        W 6690   1.360  29.908  13.939
41431W        W 6691  13.608  21.186   4.784
41432W        W 6692  31.414  18.862  10.627
41433W        W 6693  42.795  24.167   0.337
41434W        W 6694  25.645   2.229   1.849
41435W        W 6695  33.559  11.430  11.165
41436W        W 6696  11.719   5.378  13.722
41437W        W 6697   0.712   0.974   3.679
41438W        W 6698  36.465  27.262  12.462
41439W        W 6699  32.162  19.364   2.779
41440W        W 6700   6.387  11.631  12.617
41441W        W 6701  40.255  32.115   3.103
41442W        W 6702   2.590  43.283  12.844
41443W        W 6703  20.544  35.532  11.602
41444W        W 6704  18.061  41.690  13.708
41445W        W 6705  16.770  26.603  11.464
41446W        W 6706  42.496   9.925  11.128
41447W        W 6707  23.537  27.192  10.736
41448W        W 6708  39.913  34.350  11.057
41449W        W 6709  28.741  43.668   1.550
41450W        W 6710  22.256  32.681   4.065
41451W        W 6711   6.365  43.308  12.605
41452W        W 6712  29.412  37.405   3.604
41453W        W 6713  35.353  17.259   2.905
41454W        W 6714  28.068  13.602  12.135
41455W        W 6715   0.447  29.671   3.623
41456W        W 6716  32.108  30.451  11.610
41457W        W 6717  18.826  10.222   2.769
41458W        W 6718  32.056   8.223   0.400
41459W        W 6719  14.142  10.338  14.333
41460W        W 6720  10.853  38.441   4.631
41461W        W 6721  29.894  15.591   0.460
41462W        W 6722  36.760   7.208   1.303
41463W        W 6723  33.188  28.359   0.965
41464W        W 6724  35.723  22.830   3.989
41465W        W 6725  36.860   9.116   2.327
41466W        W 6726  15.221  13.409   3.437
41467W        W 6727  28.261  28.552   2.100
41468W        W 6728  37.161  23.085  13.502
41469W        W 6729   2.822   8.599  11.614
41470W        W 6730  37.645   3.382   2.772
41471W        W 6731  27.376  20.194   2.807
41472W        W 6732   2.710  32.230  11.740
41473W        W 6733   9.137  11.142   4.368
41474W        W 6734  40.431  26.583   3.924
41475W        W 6735  44.415   6.234   4.745
41476W        W 6736  44.415  27.004   2.138
41477W        W 6737   6.259  10.795  10.550
41478W        W 6738  32.698  19.119   2.026
41479W        W 6739  13.429  36.322   3.866
41480W        W 6740  24.786  14.220   4.693
41481W        W 6741  42.073   8.304  14.301
41482W        W 6742  12.134  32.729   0.993
41483W        W 6743  21.695  12.196  11.762
41484W        W 6744   7.139  12.905   2.678
41485W        W 6745  26.141  19.696   3.103
41486W        W 6746   6.458  11.253   2.702
41487W        W 6747  33.037  27.631  13.321
41488W        W 6748  40.926  34.332   4.385
41489W        W 6749  44.946   9.759   4.112
41490W        W 6750  16.765  18.738  14.192
41491W        W 6751  32.806  35.300   2.199
41492W        W 6752  10.992  41.414  12.730
41493W        W 6753  35.784  18.549  12.971
41494W        W 6754  16.405  42.567  14.056
41495W        W 6755  31.824  41.273  12.630
41496W        W 6756  32.712  41.691   4.011
41497W        W 6757  12.832  25.382  12.803
41498W        W 6758  10.532  34.902   1.348
41499W        W 6759  20.763  31.466  12.826
41500W        W 6760  10.981  19.481  14.302
41501W        W 6761  39.766  30.926   1.897
41502W        W 6762   7.352  21.466  11.135
41503W        W 6763  28.496  16.098   4.219
41504W        W 6764   0.342  33.611  11.698
41505W        W 6765  32.408  42.441   3.927
41506W        W 6766   9.191   8.298   1.919
41507W        W 6767   0.726  15.938  12.389
41508W        W 6768  36.783  21.650   4.024
41509W        W 6769  26.406  38.035   1.345
41510W        W 6770   0.959  13.278   4.036
41511W        W 6771   6.649   5.796  12.524
41512W        W 6772  27.333  26.028  14.490
41513W        W 6773  21.046  14.658   3.221
41514W        W 6774  20.694  30.183  13.755
41515W        W 6775  12.303  34.867  11.116
41516W        W 6776   2.092  38.377   3.621
41517W        W 6777   4.275  27.589   4.814
41518W        W 6778  44.232  24.823  12.992
41519W        W 6779  17.989  17.020  11.076
41520W        W 6780   6.919  33.474  14.523
41521W        W 6781   1.721  41.799  13.420
41522W        W 6782  44.884  44.397   4.053
41523W        W 6783  15.137  24.619  14.759
41524W        W 6784  40.776  25.565  13.384
41525W        W 6785  17.157  26.063  14.356
41526W        W 6786  32.204  39.657  14.450
41527W        W 6787   4.631  22.176   0.995
41528W        W 6788  41.847   4.435   3.660
41529W        W 6789  18.344  38.327   1.455
41530W        W 6790  32.092  28.506   2.225
41531W        W 6791  36.063  43.032   2.665
41532W        W 6792  17.574  14.590   0.199
41533W        W 6793   3.372  37.416  13.463
41534W        W 6794  30.119  24.159   1.347
41535W        W 6795   0.168  15.415  13.840
41536W        W 6796  27.285   8.585   5.186
41537W        W 6797  10.421   4.290   4.836
41538W        W 6798  40.046  24.276  12.976
41539W        W 6799  40.170  25.238  12.882
41540W        W 6800  28.054  24.222   4.619
41541W        W 6801   0.525   1.583  12.361
41542W        W 6802  29.176  44.537  10.718
41543W        W 6803  35.472  18.268   2.616
41544W        W 6804  24.950   4.439   1.539
41545W        W 6805  28.835   9.435   0.225
41546W        W 6806   9.575  25.643   4.207
41547W        W 6807  32.567  15.317  14.058
41548W        W 6808  14.208  37.184  11.303
41549W        W 6809  27.183   1.867  11.535
41550W        W 6810  32.822   3.726   0.558
41551W        W 6811  12.219  12.062   3.184
41552W        W 6812   9.316   2.896  12.319
41553W        W 6813   0.993   9.390   2.323
41554W        W 6814   6.328   1.046   3.215
41555W        W 6815  42.792  24.135   4.700
41556W        W 6816  42.642  25.128  14.586
41557W        W 6817   7.844  14.806   0.867
41558W        W 6818  17.272   8.439   3.446
41559W        W 6819  24.199  23.151  10.561
41560W        W 6820  32.647   9.370   1.902
41561W        W 6821  20.578   0.066   0.133
41562W        W 6822  40.556   5.909   0.347
41563W        W 6823  38.171  22.230  10.571
41564W        W 6824   5.208  14.119  12.562
41565W        W 6825  21.550  25.234  10.782
41566W        W 6826  34.065  40.784  12.613
41567W        W 6827  43.024  21.249  14.920
41568W        W 6828  31.832  15.965   2.000
41569W        W 6829  18.276   3.437   3.670
41570W        W 6830   4.894   3.704  11.501
41571W        W 6831  40.324   0.503   5.192
41572W        W 6832  15.622  17.685   3.192
41573W        W 6833  14.712  14.072  10.497
41574W        W 6834  35.396  18.444   0.071
41575W        W 6835  16.214  28.532   2.329
41576W        W 6836  24.131  32.489  14.920
41577W        W 6837  35.524  27.118   1.329
41578W        W 6838   4.827   4.216   1.989
41579W        W 6839  35.570  37.665   3.999
41580W        W 6840  33.507   5.906  14.899
41581W        W 6841  25.603  26.116   1.396
41582W        W 6842  21.996  41.374   3.364
41583W        W 6843  14.765  13.275  11.681
41584W        W 6844  30.075  29.939  12.648
41585W        W 6845  27.111  37.243  10.044
41586W        W 6846  19.214  42.933  12.224
41587W        W 6847  43.642  21.833   4.844
41588W        W 6848  30.994  16.971  14.347
41589W        W 6849  41.264  17.280   4.864
41590W        W 6850  35.235  12.527  14.318
41591W        W 6851  24.771   9.890  12.562
41592W        W 6852   1.745  36.945  14.852
41593W        W 6853  39.205  29.752   1.320
41594W        W 6854  16.608  41.575   0.125
41595W        W 6855  15.749  29.107   4.083
41596W        W 6856  33.461  15.191   4.915
41597W        W 6857  26.526  35.607  10.265
41598W        W 6858  36.466  11.244  10.494
41599W        W 6859  40.449  30.585   1.262
41600W        W 6860  15.428  14.743   4.983
41601W        W 6861   9.757  42.351   3.595
41602W        W 6862  33.833  13.477   4.601
41603W        W 6863   7.882  17.837   3.889
41604W        W 6864  35.922  39.586  14.926
41605W        W 6865  28.562   6.231   0.211
41606W        W 6866  42.547   1.232  10.587
41607W        W 6867  44.570   3.811   3.165
41608W        W 6868   3.921  15.545  12.151
41609W        W 6869  30.060  42.445  11.657
41610W        W 6870  13.263  14.256   0.864
41611W        W 6871  36.761  19.663  13.656
41612W        W 6872  19.285  10.134   1.736
41613W        W 6873   3.832  12.233  13.211
41614W        W 6874  18.042  12.547   0.369
41615W        W 6875  19.629  14.407   2.728
41616W        W 6876  15.612   4.484  13.821
41617W        W 6877  44.500  31.724   3.692
41618W        W 6878  13.689   3.241  11.610
41619W        W 6879  22.189  34.948   3.251
41620W        W 6880   4.470  37.047   4.651
41621W        W 6881  31.306  29.030  10.910
41622W        W 6882  33.537   2.974  12.980
41623W        W 6883   7.926  15.233   2.853
41624W        W 6884   3.860  31.277   3.488
41625W        W 6885   5.194  12.868  13.127
41626W        W 6886  42.250  10.771  11.355
41627W        W 6887  35.957  38.327  12.937
41628W        W 6888  39.813  19.303  14.412
41629W        W 6889   0.207  29.122  14.420
41630W        W 6890  36.055  30.983   3.262
41631W        W 6891  37.028  29.979   1.835
41632W        W 6892  14.053   0.479  13.896
41633W        W 6893  19.698  18.861   4.501
41634W        W 6894  34.164  15.718   1.352
41635W        W 6895  29.917   4.205  12.508
41636W        W 6896  36.543  39.745   1.887
41637W        W 6897  43.521  26.850  12.990
41638W        W 6898  39.948  12.068   0.840
41639W        W 6899  14.800  44.418   1.775
41640W        W 6900  22.251  26.477  11.166
41641W        W 6901  35.985  15.957  13.552
41642W        W 6902  27.741   8.698   0.204
41643W        W 6903  41.802  10.565   3.686
41644W        W 6904  40.253  21.102   0.969
41645W        W 6905   7.219  30.785  13.504
41646W        W 6906  35.218  37.095   4.550
41647W        W 6907  43.359  14.145  12.412
41648W        W 6908   2.281   8.452  13.513
41649W        W 6909  37.091  12.814  14.380
41650W        W 6910  35.917   1.717  12.012
41651W        W 6911  31.220  29.001   4.081
41652W        W 6912   8.194  10.926   1.741
41653W        W 6913  22.685   2.322   4.086
41654W        W 6914  31.238   1.888   2.177
41655W        W 6915  33.389   8.187   1.189
41656W        W 6916  34.399  24.474   2.921
41657W        W 6917  13.384  10.842   0.896
41658W        W 6918  28.630   7.380  14.512
41659W        W 6919  27.185   1.361   0.886
41660W        W 6920  21.369  19.044  10.657
41661W        W 6921  44.100  24.338   0.267
41662W        W 6922  16.838  15.347  13.533
41663W        W 6923   0.459  37.923   3.040
41664W        W 6924   4.770  39.260   1.332
41665W        W 6925  10.540   0.565   1.240
41666W        W 6926  12.494  36.550  10.749
41667W        W 6927   9.652  18.608  12.827
41668W        W 6928  13.140  36.118   0.432
41669W        W 6929  23.254  14.685   3.443
41670W        W 6930  13.050  11.047   4.314
41671W        W 6931  38.766  22.687  13.603
41672W        W 6932  25.179  27.677   4.646
41673W        W 6933   7.774  24.028  13.833
41674W        W 6934   6.894  30.065   4.353
41675W        W 6935  34.833  19.213  14.500
41676W        W 6936  18.395  15.292   1.333
41677W        W 6937  42.813  16.810  10.677
41678W        W 6938   7.034  14.135   4.669
41679W        W 6939  19.606  13.571  11.635
41680W        W 6940  22.525  43.866   1.654
41681W        W 6941  36.413  44.959   9.866
41682W        W 6942   8.620  24.661   3.642
41683W        W 6943  12.905   2.427  11.934
41684W        W 6944  23.451  33.969   0.341
41685W        W 6945  18.628   5.343   0.848
41686W        W 6946  39.514  25.416  11.077
41687W        W 6947  25.616   2.783   1.877
41688W        W 6948   4.348  40.381  11.949
41689W        W 6949  27.502   5.874   3.172
41690W        W 6950  11.742   8.451   3.144
41691W        W 6951   4.243  37.997  13.526
41692W        W 6952  21.729   7.498   1.742
41693W        W 6953   1.971  11.565  11.501
41694W        W 6954  15.152  17.579   3.376
41695W        W 6955  22.126   5.908  13.804
41696W        W 6956  39.012  39.551  12.453
41697W        W 6957  38.094   1.266  13.453
41698W        W 6958   1.245  17.352   4.845
41699W        W 6959   4.346   3.866  10.723
41700W        W 6960  37.451   2.983  14.461
41701W        W 6961  28.536  42.361  13.032
41702W        W 6962  22.026   1.725  14.918
41703W        W 6963  25.509  42.155  13.408
41704W        W 6964  29.572  38.868   4.873
41705W        W 6965  34.530  43.840   2.869
41706W        W 6966   8.107  17.985   4.919
41707W        W 6967  17.391  18.059   3.189
41708W        W 6968   5.560  40.865   4.718
41709W        W 6969   3.236  26.419   0.738
41710W        W 6970  27.739  38.502  13.056
41711W        W 6971  27.604  33.625   3.283
41712W        W 6972  30.114  32.662  13.935
41713W        W 6973  26.399  34.450   4.691
41714W        W 6974  16.400  14.385  14.977
41715W        W 6975  29.564  26.964  10.956
41716W        W 6976  33.912  23.756  10.958
41717W        W 6977  26.123  31.175  12.191
41718W        W 6978  34.350   1.734   1.542
41719W        W 6979  32.959  15.316   4.888
41720W        W 6980   6.711  35.563  12.442
41721W        W 6981  20.416   5.683   3.946
41722W        W 6982  34.588   7.699  12.169
41723W        W 6983  33.594  39.023   0.798
41724W        W 6984  44.428  10.282   0.687
41725W        W 6985   6.383  10.419  14.795
41726W        W 6986  12.046  38.786   3.722
41727W        W 6987  17.712  26.592   2.720
41728W        W 6988   4.366  34.545   3.351
41729W        W 6989  43.862  28.051   2.749
41730W        W 6990  26.545  29.189   1.669
41731W        W 6991  44.434  15.593  13.114
41732W        W 6992  34.380  16.663  12.137
41733W        W 6993   8.915  29.481  11.519
41734W        W 6994  20.052  19.027   5.379
41735W        W 6995  12.349  39.639   4.662
41736W        W 6996  43.978   8.414   0.367
41737W        W 6997  32.880  38.285   4.817
41738W        W 6998  17.236  41.772   2.729
41739W        W 6999  32.326   8.857   2.680
41740W        W 7000   1.195  41.982  14.859
41741W        W 7001  19.075  19.500   0.413
41742W        W 7002  32.180  25.976   0.379
41743W        W 7003  18.971   2.717   3.617
41744W        W 7004  33.861  43.609   0.387
41745W        W 7005  26.883  40.533  12.484
41746W        W 7006  19.628  34.446  10.719
41747W        W 7007  19.732  23.462  13.469
41748W        W 7008  16.589  44.049   0.429
41749W        W 7009  40.260  23.973   2.095
41750W        W 7010  17.663  21.678  10.813
41751W        W 7011  35.253   4.328  12.385
41752W        W 7012  27.371  16.290  12.650
41753W        W 7013  22.244  14.331  11.909
41754W        W 7014  15.627  11.722  11.961
41755W        W 7015   0.179  18.237  12.011
41756W        W 7016  26.281  43.472  11.532
41757W        W 7017  39.231   6.226   3.716
41758W        W 7018  22.145  42.487  11.601
41759W        W 7019  37.762  31.039  12.993
41760W        W 7020  17.725  40.479   3.584
41761W        W 7021   1.591  24.308  14.808
41762W        W 7022  28.159  12.859   1.339
41763W        W 7023  21.929   1.797   1.620
41764W        W 7024  30.257  22.932   2.613
41765W        W 7025  20.003  27.227   3.301
41766W        W 7026  40.085  19.811  12.682
41767W        W 7027  34.708   2.684   1.486
41768W        W 7028   3.859  11.272  11.962
41769W        W 7029  41.796  42.377  12.008
41770W        W 7030  24.021  19.635  12.077
41771W        W 7031  35.717  40.365  11.320
41772W        W 7032   1.352  43.378   4.592
41773W        W 7033  23.601  29.509   4.803
41774W        W 7034   6.341   3.870   0.793
41775W        W 7035  18.610  42.022  12.975
41776W        W 7036  33.628  18.583   3.322
41777W        W 7037  40.544  19.826  14.936
41778W        W 7038  40.507   8.268  11.252
41779W        W 7039  33.199   3.881  12.928
41780W        W 7040  31.865  19.237  13.707
41781W        W 7041   6.385  39.514  11.942
41782W        W 7042  44.927  10.383   1.769
41783W        W 7043  35.650   8.443   2.570
41784W        W 7044  19.205  27.819   1.034
41785W        W 7045  27.839  24.196   1.539
41786W        W 7046  35.431   5.098  12.856
41787W        W 7047  22.557  11.329  14.531
41788W        W 7048  10.534  12.251   4.682
41789W        W 7049  33.923  17.265   4.456
41790W        W 7050  21.442  37.645  10.891
41791W        W 7051   2.397  42.563  12.146
41792W        W 7052  11.377   0.750   0.365
41793W        W 7053  27.504  41.410   2.177
41794W        W 7054   0.331  33.840  13.514
41795W        W 7055   7.384  32.032   1.203
41796W        W 7056  35.350  36.377   3.734
41797W        W 7057  10.803  32.158  13.224
41798W        W 7058  21.348  19.260  11.986
41799W        W 7059  21.344  34.189  11.483
41800W        W 7060  23.959  18.996  13.446
41801W        W 7061  40.428  22.781   2.399
41802W        W 7062   5.407  44.347   4.573
41803W        W 7063  14.312  39.480   4.588
41804W        W 7064   9.733  27.499  13.248
41805W        W 7065  37.632  44.407   4.545
41806W        W 7066   3.797  10.745  12.021
41807W        W 7067  38.302  24.148  11.612
41808W        W 7068  20.544  17.077  11.043
41809W        W 7069  41.719  33.205   5.025
41810W        W 7070   5.343   3.389  14.367
41811W        W 7071  41.073   7.308   4.272
41812W        W 7072   8.371  25.972  13.633
41813W        W 7073  40.560  15.375  11.332
41814W        W 7074   3.436   7.757  14.263
41815W        W 7075  26.393  40.080   4.072
41816W        W 7076  17.557  15.789   2.046
41817W        W 7077  28.574  11.268   2.220
41818W        W 7078  40.173  22.319   1.701
41819W        W 7079  35.982  35.692  11.125
41820W        W 7080  30.709  19.733   4.301
41821W        W 7081   7.543   8.348  14.790
41822W        W 7082   4.101  30.436  12.937
41823W        W 7083  10.223   6.256   2.092
41824W        W 7084  22.736   6.633  14.864
41825W        W 7085  24.351  41.129   4.864
41826W        W 7086  13.112  25.646  11.160
41827W        W 7087  13.607  27.001   1.967
41828W        W 7088   3.895  34.921   0.484
41829W        W 7089  14.135  37.011   1.111
41830W        W 7090  22.135   4.802  12.964
41831W        W 7091  27.483  15.440  12.043
41832W        W 7092  24.189  43.507  13.872
41833W        W 7093  13.882  23.206  12.912
41834W        W 7094  42.806  18.209   4.389
41835W        W 7095  25.550   1.771  14.311
41836W        W 7096   0.444  16.360  10.849
41837W        W 7097   1.408  40.557   3.171
41838W        W 7098  31.122  39.829  14.843
41839W        W 7099   2.740  12.912   9.990
41840W        W 7100  19.432   9.448  12.485
41841W        W 7101  22.452  27.996   3.746
41842W        W 7102   2.108  13.337   9.670
41843W        W 7103  40.288   9.854  14.828
41844W        W 7104  30.676   9.839  14.866
41845W        W 7105  29.231  34.043  13.471
41846W        W 7106  12.805  28.056   4.590
41847W        W 7107  31.083  35.225  14.395
41848W        W 7108  34.539  18.831   3.578
41849W        W 7109  31.290  24.739  13.848
41850W        W 7110   2.396  27.835   5.058
41851W        W 7111  29.200  14.440   2.309
41852W        W 7112  14.116  27.003   2.223
41853W        W 7113   5.731  38.382  10.706
41854W        W 7114  20.623  39.267  11.113
41855W        W 7115  16.789  38.366  14.535
41856W        W 7116  35.040  11.717   4.187
41857W        W 7117  27.691  35.043  13.425
41858W        W 7118   8.691  29.987  14.409
41859W        W 7119   7.374  30.009  12.953
41860W        W 7120   1.858  28.238   2.550
41861W        W 7121  11.689   1.000   3.666
41862W        W 7122  35.923   3.488   2.173
41863W        W 7123   7.970   6.876  11.104
41864W        W 7124  32.606  10.680  12.420
41865W        W 7125  30.440  27.680   3.195
41866W        W 7126  33.470   8.338   4.812
41867W        W 7127  22.365  28.121  12.978
41868W        W 7128  44.875  16.776  12.900
41869W        W 7129  36.362  24.067  10.637
41870W        W 7130   2.283   3.676   1.831
41871W        W 7131   7.328  14.603  10.994
41872W        W 7132  40.863  25.704  12.073
41873W        W 7133  18.798  12.836  14.494
41874W        W 7134   5.721  44.554   2.003
41875W        W 7135  19.548   2.778  12.346
41876W        W 7136   7.390  34.518  12.532
41877W        W 7137   6.146  16.382   3.316
41878W        W 7138  20.654   7.266  12.371
41879W        W 7139   6.351  18.546   4.201
41880W        W 7140   0.956   6.196   2.739
41881W        W 7141  14.919  24.592   1.830
41882W        W 7142  32.927  40.962  14.565
41883W        W 7143  35.571  33.925  13.252
41884W        W 7144  32.512  21.674   1.036
41885W        W 7145  15.666  37.993   1.669
41886W        W 7146  37.494  27.646  13.968
41887W        W 7147  17.526  18.569   2.808
41888W        W 7148  20.005  44.997   3.796
41889W        W 7149  30.702   4.936  10.220
41890W        W 7150  43.810  35.044   4.685
41891W        W 7151  25.289  24.041   1.516
41892W        W 7152  10.134  26.185  12.992
41893W        W 7153  33.515  18.677  10.616
41894W        W 7154  31.594  13.349  13.134
41895W        W 7155  42.187   4.464  11.539
41896W        W 7156  27.648  16.619   0.499
41897W        W 7157  13.819  21.566   0.311
41898W        W 7158  23.419  42.970  12.408
41899W        W 7159  13.690  11.349  12.524
41900W        W 7160   7.287   6.100   3.754
41901W        W 7161   2.445   2.138  10.713
41902W        W 7162  41.914  13.729   4.472
41903W        W 7163  29.722  29.537  11.130
41904W        W 7164   0.360   4.847  12.248
41905W        W 7165   7.188  24.457   2.015
41906W        W 7166  27.077  17.549   9.764
41907W        W 7167  19.988  11.396  11.503
41908W        W 7168  35.301  36.474   3.231
41909W        W 7169  35.756  39.017   4.102
41910W        W 7170  42.024  23.886  10.718
41911W        W 7171  28.481  22.597  11.233
41912W        W 7172  39.290  20.000   0.326
41913W        W 7173   0.751   7.268  10.735
41914W        W 7174  20.337  31.766   3.078
41915W        W 7175  26.126  34.003  11.204
41916W        W 7176  19.397  15.105  13.328
41917W        W 7177  19.201  35.999   0.400
41918W        W 7178  17.051   8.440   0.793
41919W        W 7179   9.924  20.576  12.409
41920W        W 7180  24.837  39.207  13.443
41921W        W 7181  19.650  15.307   0.170
41922W        W 7182  11.185  25.246   3.263
41923W        W 7183  34.896  13.131  14.011
41924W        W 7184  31.959  34.691  14.834
41925W        W 7185  17.199   8.665   1.253
41926W        W 7186  11.759  15.407  11.916
41927W        W 7187  39.677  39.249  12.900
41928W        W 7188  25.742  34.949   0.562
41929W        W 7189  17.873  41.283  12.777
41930W        W 7190   2.146  12.820  13.246
41931W        W 7191  17.537  12.037   4.364
41932W        W 7192  30.525  27.693  12.565
41933W        W 7193  28.119  13.730   4.381
41934W        W 7194  30.146  30.331  13.917
41935W        W 7195  26.989  27.121  12.504
41936W        W 7196   4.142  15.625  10.778
41937W        W 7197  19.847  23.677  10.708
41938W        W 7198  27.627   7.215  10.551
41939W        W 7199  43.358  32.944   4.405
41940W        W 7200  23.174  25.660   2.294
41941W        W 7201  22.609  22.544   3.323
41942W        W 7202  17.012   4.946  12.343
41943W        W 7203  11.416  32.384  10.980
41944W        W 7204   0.367  12.171  14.866
41945W        W 7205  42.258  30.156  14.507
41946W        W 7206  22.060  24.923  11.635
41947W        W 7207  18.653  40.337   3.658
41948W        W 7208  26.464  39.008  13.584
41949W        W 7209  11.217  21.216  14.344
41950W        W 7210  14.539  12.247  13.993
41951W        W 7211  42.366  26.440   0.909
41952W        W 7212  29.556  14.822   1.859
41953W        W 7213   3.829  18.298   0.303
41954W        W 7214  35.364  26.136   2.147
41955W        W 7215   7.392   1.444   2.350
41956W        W 7216  41.245  15.707  10.284
41957W        W 7217  34.066  34.407   3.054
41958W        W 7218  13.969  38.666   2.858
41959W        W 7219   1.273   3.492  12.496
41960W        W 7220  34.865  16.287   0.764
41961W        W 7221  15.236  34.872  13.387
41962W        W 7222  11.674  25.725   0.338
41963W        W 7223  42.963  43.781  13.868
41964W        W 7224   7.119   7.745  13.967
41965W        W 7225  32.619  34.036  12.015
41966W        W 7226  34.914  43.993   4.021
41967W        W 7227  37.294  33.989   4.603
41968W        W 7228  13.178   0.407  13.751
41969W        W 7229  29.461  34.574   4.679
41970W        W 7230  29.918  11.559   3.619
41971W        W 7231  31.062  16.428   0.463
41972W        W 7232  18.246  39.056  10.669
41973W        W 7233  22.998  37.375  14.936
41974W        W 7234  36.338  34.445   0.023
41975W        W 7235  20.886  20.293  14.305
41976W        W 7236  20.669  19.112   2.377
41977W        W 7237  32.027   3.111  13.970
41978W        W 7238   1.418  12.389  14.399
41979W        W 7239  32.692   9.342   0.203
41980W        W 7240  38.447  31.394   1.389
41981W        W 7241   8.901  11.636  11.543
41982W        W 7242  39.468  36.285   3.244
41983W        W 7243   1.791   9.759   1.866
41984W        W 7244  22.976  37.763   0.499
41985W        W 7245   7.148   1.917  11.632
41986W        W 7246  39.423  30.286   2.681
41987W        W 7247  24.939  36.717  11.485
41988W        W 7248   9.438   1.386  12.034
41989W        W 7249  40.087  35.042   3.148
41990W        W 7250   2.533  21.601  11.920
41991W        W 7251  17.525  35.633   1.950
41992W        W 7252   1.197  14.355   2.880
41993W        W 7253  20.468  13.124   1.387
41994W        W 7254  31.057  35.034   0.425
41995W        W 7255  26.155   8.799  10.653
41996W        W 7256  42.497  38.387   1.921
41997W        W 7257  24.457  36.551  13.549
41998W        W 7258  24.839   3.086   3.625
41999W        W 7259   0.851  19.721   1.873
42000W        W 7260  39.212  19.638  11.013
42001W        W 7261  10.255  12.575  13.036
42002W        W 7262  32.685  33.475  11.708
42003W        W 7263  35.923  40.560   1.871
42004W        W 7264  38.329  12.681   4.496
42005W        W 7265  38.993  23.213   1.843
42006W        W 7266  42.096   7.003   4.501
42007W        W 7267  24.161  15.389  11.915
42008W        W 7268  17.583   7.771  10.600
42009W        W 7269  23.646  14.792  12.508
42010W        W 7270  39.935   2.851   0.243
42011W        W 7271  23.082  27.269  11.626
42012W        W 7272  23.113  22.091  10.564
42013W        W 7273  16.246  20.645  14.229
42014W        W 7274   3.391   3.271  13.561
42015W        W 7275   1.910  42.318  12.136
42016W        W 7276   4.168  19.336   3.332
42017W        W 7277  29.552  44.447  12.430
42018W        W 7278  30.020   3.199   0.419
42019W        W 7279  14.853  30.167   2.311
42020W        W 7280  37.222  12.844  10.500
42021W        W 7281   1.003  43.840   0.267
42022W        W 7282  13.173  28.393  13.387
42023W        W 7283  41.030  21.093  11.038
42024W        W 7284   5.381  15.269   1.601
42025W        W 7285  21.090  16.359  14.548
42026W        W 7286  12.051  23.257  12.495
42027W        W 7287  44.676  18.632   3.204
42028W        W 7288  31.200  28.539  12.978
42029W        W 7289   8.186  25.292   1.744
42030W        W 7290   3.737  19.736  13.401
42031W        W 7291  35.401  27.148   4.311
42032W        W 7292  36.003  18.453   5.034
42033W        W 7293   2.481   8.831  10.584
42034W        W 7294  24.980  32.562   1.306
42035W        W 7295  36.944  33.643  12.608
42036W        W 7296  34.051   7.245  13.023
42037W        W 7297  21.516   8.685  13.327
42038W        W 7298  13.045   7.158  14.281
42039W        W 7299  44.296  17.733   2.716
42040W        W 7300  34.659   2.911   3.645
42041W        W 7301  38.279  25.097  11.364
42042W        W 7302  40.735  42.953  10.398
42043W        W 7303  27.081  12.346   1.881
42044W        W 7304  11.235  10.659   2.781
42045W        W 7305  28.389  20.174   0.156
42046W        W 7306  42.863  43.962   2.682
42047W        W 7307   1.079  11.792   0.188
42048W        W 7308  43.344  34.816  14.360
42049W        W 7309  22.972  36.025  12.952
42050W        W 7310  28.615   4.848  11.431
42051W        W 7311  24.906  35.558   3.576
42052W        W 7312  34.953   1.506   4.813
42053W        W 7313   8.772  19.197  14.290
42054W        W 7314  36.871  43.798  13.503
42055W        W 7315  14.892   9.480   1.710
42056W        W 7316  12.680  31.620  13.004
42057W        W 7317   8.608  14.027   4.420
42058W        W 7318  35.767  34.195   3.617
42059W        W 7319  23.114  22.344   4.076
42060W        W 7320  39.229  19.601   1.170
42061W        W 7321  32.741  24.061   3.989
42062W        W 7322  25.558  17.262  11.664
42063W        W 7323  18.842  13.829  12.935
42064W        W 7324  36.325  10.768  11.156
42065W        W 7325  37.894   2.960   2.941
42066W        W 7326   1.721   7.742  12.142
42067W        W 7327  21.021  41.053   3.212
42068W        W 7328  40.907  29.631  14.111
42069W        W 7329  38.458  39.911  14.110
42070W        W 7330   3.387  16.830  14.512
42071W        W 7331  35.936  41.629  14.775
42072W        W 7332   0.964  23.912  10.009
42073W        W 7333  40.637  37.626   4.972
42074W        W 7334   4.315  24.717  10.729
42075W        W 7335  31.476  43.919   3.468
42076W        W 7336  35.280   7.231   0.449
42077W        W 7337  27.672  30.974  12.799
42078W        W 7338   6.766   6.740   1.097
42079W        W 7339  18.543  26.413   3.154
42080W        W 7340  17.833  29.383   2.177
42081W        W 7341  14.567  19.738  14.826
42082W        W 7342  37.922  31.966  11.173
42083W        W 7343   0.532  30.543  12.439
42084W        W 7344  40.909  21.888  14.381
42085W        W 7345  16.559   7.793  14.464
42086W        W 7346   0.793  41.744  11.109
42087W        W 7347  34.961   0.503   0.763
42088W        W 7348   2.272  21.766   3.712
42089W        W 7349  24.129  36.735  12.800
42090W        W 7350  21.879  35.102   0.273
42091W        W 7351  40.795   0.287   5.116
42092W        W 7352   6.059  36.011  12.795
42093W        W 7353  27.588   6.657  11.995
42094W        W 7354  18.567  38.704   1.825
42095W        W 7355   3.862   1.479  10.735
42096W        W 7356  33.834  22.802  14.059
42097W        W 7357  18.823   8.894  10.273
42098W        W 7358  15.320   9.770  14.746
42099W        W 7359  15.174  10.766   0.097
42100W        W 7360  10.605  16.703   1.984
42101W        W 7361  39.498   7.598  12.918
42102W        W 7362  40.076   9.409  14.465
42103W        W 7363  28.883  22.740  15.000
42104W        W 7364  11.219  32.479   0.988
42105W        W 7365  43.222  34.585  12.956
42106W        W 7366   1.370   0.942  12.967
42107W        W 7367  10.283   9.990  12.041
42108W        W 7368  40.344  26.690   0.163
42109W        W 7369   6.755  16.670  14.518
42110W        W 7370   8.449   8.022   1.246
42111W        W 7371  23.707  34.901   4.572
42112W        W 7372  44.292  13.667   2.639
42113W        W 7373  16.121  12.518  11.560
42114W        W 7374   0.321  33.524   3.372
42115W        W 7375  20.548  12.896   3.655
42116W        W 7376  20.196  39.756   3.931
42117W        W 7377  21.497  40.711  14.257
42118W        W 7378  16.235  39.200  12.089
42119W        W 7379  14.861  40.259   0.785
42120W        W 7380   2.317  31.153   2.714
42121W        W 7381  14.695  20.004   3.775
42122W        W 7382  14.754   1.524  11.024
42123W        W 7383  32.144  22.980  10.750
42124W        W 7384   0.562   2.720   3.219
42125W        W 7385  10.158  22.967   3.125
42126W        W 7386  33.885  40.845  14.415
42127W        W 7387   2.161   2.932  14.161
42128W        W 7388   5.011   3.778  12.412
42129W        W 7389  43.827  23.721  11.244
42130W        W 7390  43.171   0.381  13.358
42131W        W 7391  16.613  29.459  11.564
42132W        W 7392  28.624  30.053  14.084
42133W        W 7393   3.181   4.866  11.499
42134W        W 7394  14.859   6.927  10.165
42135W        W 7395  40.412  14.124   2.700
42136W        W 7396  17.042  36.912  11.415
42137W        W 7397  17.912  11.761   0.867
42138W        W 7398  31.153  41.742   0.344
42139W        W 7399   8.245   9.271  12.393
42140W        W 7400  18.999  32.284  13.154
42141W        W 7401  32.344   2.401   2.282
42142W        W 7402  20.972  12.013   3.289
42143W        W 7403   6.420   4.000  12.066
42144W        W 7404  11.819   8.380   0.011
42145W        W 7405  12.014  36.404   3.851
42146W        W 7406  38.865  27.717   0.711
42147W        W 7407  15.734   5.702  13.823
42148W        W 7408  19.301  26.645  12.670
42149W        W 7409   1.614  36.987   2.526
42150W        W 7410   3.428  20.606  11.005
42151W        W 7411  41.534  40.338   3.761
42152W        W 7412   0.954  42.722   2.300
42153W        W 7413   1.910   1.468   4.661
42154W        W 7414   6.651  24.758   4.658
42155W        W 7415  41.069   3.810   0.955
42156W        W 7416   2.435  23.064   1.291
42157W        W 7417  33.995  15.678  12.837
42158W        W 7418  32.037  30.995   4.474
42159W        W 7419  16.524   6.835   2.517
42160W        W 7420   1.346   8.115   2.139
42161W        W 7421  10.255  31.940  14.830
42162W        W 7422  16.714  18.078   1.991
42163W        W 7423  39.393   4.962   2.130
42164W        W 7424  32.420  22.932  11.194
42165W        W 7425  35.501   3.816  13.264
42166W        W 7426  33.341  15.965   3.592
42167W        W 7427  27.634  39.541  14.859
42168W        W 7428  18.816  18.706  14.488
42169W        W 7429   4.150  23.647   3.267
42170W        W 7430  31.840  28.203  13.795
42171W        W 7431  32.458  22.723   4.298
42172W        W 7432  16.907  22.320   3.190
42173W        W 7433  44.017  14.670   2.723
42174W        W 7434   9.248  27.988   0.978
42175W        W 7435  44.573  26.087  12.901
42176W        W 7436  33.388  27.270   4.675
42177W        W 7437  34.874  19.639  10.756
42178W        W 7438  31.411  16.077   1.196
42179W        W 7439   9.170  24.513   2.695
42180W        W 7440  37.527  16.202   4.610
42181W        W 7441  20.787   3.152  14.962
42182W        W 7442  43.766  17.826   0.914
42183W        W 7443   2.992  27.230   2.983
42184W        W 7444   1.323   7.909   4.093
42185W        W 7445  13.268  13.607  13.178
42186W        W 7446  19.347  22.614  13.725
42187W        W 7447  16.592  37.763   1.428
42188W        W 7448   2.775  22.227  14.372
42189W        W 7449  19.361   8.628   2.185
42190W        W 7450  30.458  25.680  14.485
42191W        W 7451   1.815   9.779  10.359
42192W        W 7452   2.322   5.122  14.930
42193W        W 7453  37.246  10.815   3.742
42194W        W 7454  29.518   3.371   0.310
42195W        W 7455  31.882  41.842  11.575
42196W        W 7456  37.388  22.134   4.156
42197W        W 7457  26.605   6.537   3.690
42198W        W 7458  37.923  26.578   3.155
42199W        W 7459  32.588  11.409  11.007
42200W        W 7460  36.599  30.524  12.645
42201W        W 7461  29.969  12.026   1.275
42202W        W 7462  23.703  38.560   0.024
42203W        W 7463  20.589  36.509   0.736
42204W        W 7464   6.952  25.180  11.654
42205W        W 7465   7.319  33.372   0.338
42206W        W 7466   3.840  22.148  11.962
42207W        W 7467   7.465  40.898   1.779
42208W        W 7468  10.655  40.176   1.308
42209W        W 7469  26.580  31.635   3.175
42210W        W 7470  21.961  21.520  12.265
42211W        W 7471  38.482  25.462   1.770
42212W        W 7472  41.438  41.964  14.757
42213W        W 7473  15.682  16.328   4.666
42214W        W 7474  11.406  35.928  14.867
42215W        W 7475  37.463  17.287  10.998
42216W        W 7476  13.320   8.194   0.834
42217W        W 7477  22.971   3.256   0.495
42218W        W 7478  26.649  18.196   1.596
42219W        W 7479  27.302  16.063   3.309
42220W        W 7480  32.394   9.481   3.537
42221W        W 7481  26.976  37.980  11.674
42222W        W 7482  40.011   5.163  12.927
42223W        W 7483  19.997  34.650  13.506
42224W        W 7484   9.476  33.076   1.077
42225W        W 7485  39.941  44.841   4.437
42226W        W 7486   8.582  41.889   1.422
42227W        W 7487  44.942  43.853  12.910
42228W        W 7488  34.843  36.238  11.525
42229W        W 7489  36.458  36.125  10.284
42230W        W 7490   4.935  26.282  13.946
42231W        W 7491  32.689  18.538  11.673
42232W        W 7492  37.936  36.615  14.420
42233W        W 7493   6.376  34.611  12.962
42234W        W 7494  22.515  12.711  10.215
42235W        W 7495  12.935  25.470  14.949
42236W        W 7496  30.976  22.066  14.687
42237W        W 7497  21.993  19.217   3.442
42238W        W 7498  44.717  12.274  12.070
42239W        W 7499  23.534   1.462   4.524
42240W        W 7500  29.115   3.454   1.276
42241W        W 7501   5.727  24.460  10.661
42242W        W 7502  26.628  12.661  11.597
42243W        W 7503  23.735  14.245   0.932
42244W        W 7504  26.336  35.322  14.837
42245W        W 7505  41.617  36.691   2.918
42246W        W 7506  29.009  16.595  10.525
42247W        W 7507   4.734  25.833  13.852
42248W        W 7508  26.719   6.863  11.386
42249W        W 7509  21.534   2.524  12.938
42250W        W 7510  27.376  42.428  13.119
42251W        W 7511   4.355  21.265   4.365
42252W        W 7512  12.312  32.042  12.087
42253W        W 7513   5.786  15.123   3.106
42254W        W 7514  30.490   9.630  13.038
42255W        W 7515  16.716  23.366  14.397
42256W        W 7516   5.657  15.146   4.031
42257W        W 7517  42.342  30.967  12.160
42258W        W 7518  32.616  24.785  13.765
42259W        W 7519  15.850  38.434   2.369
42260W        W 7520   6.401  30.620   3.430
42261W        W 7521  34.872  26.389  12.486
42262W        W 7522  39.765  13.148  13.807
42263W        W 7523  30.806  41.537  12.551
42264W        W 7524  26.710  43.281  14.858
42265W        W 7525  10.930  30.819   9.963
42266W        W 7526  17.362   1.712  12.549
42267W        W 7527  16.540  16.243  14.745
42268W        W 7528  39.755   5.727   4.648
42269W        W 7529  24.668   5.434  10.753
42270W        W 7530  37.653  19.128  13.118
42271W        W 7531  22.667  33.360  14.069
42272W        W 7532   6.436  10.759  12.468
42273W        W 7533  10.421  31.097  10.959
42274W        W 7534  20.838  38.028  12.524
42275W        W 7535  18.620  14.678   1.764
42276W        W 7536  11.924  28.492  14.243
42277W        W 7537  44.913  29.050  10.722
42278W        W 7538  43.379  25.534   3.225
42279W        W 7539  38.090  39.528  10.952
42280W        W 7540  39.898   0.644   4.586
42281W        W 7541  24.182   0.968  10.437
42282W        W 7542  24.501  18.243   0.829
42283W        W 7543   5.307  14.837   4.329
42284W        W 7544  20.772   8.652  12.570
42285W        W 7545  17.585  20.727   0.357
42286W        W 7546  14.045  36.702  12.536
42287W        W 7547   1.859  19.191   3.558
42288W        W 7548   5.425  42.880   4.156
42289W        W 7549  21.595  29.550  13.127
42290W        W 7550  18.434  33.661  13.347
42291W        W 7551  37.346   2.996   0.335
42292W        W 7552  23.192  34.810  14.828
42293W        W 7553  40.952  25.002   3.306
42294W        W 7554  16.100  32.571  11.138
42295W        W 7555  35.136  20.497   0.979
42296W        W 7556   8.838  24.408  12.688
42297W        W 7557  24.086  16.241   2.701
42298W        W 7558   0.114  42.680  11.578
42299W        W 7559  38.376  36.496   4.099
42300W        W 7560   2.057  34.642  13.011
42301W        W 7561  42.584  34.425   0.954
42302W        W 7562  12.813  22.422   4.691
42303W        W 7563  15.473   9.090  12.968
42304W        W 7564   4.953  20.218   5.027
42305W        W 7565  32.007  11.189   4.636
42306W        W 7566   9.899  19.587  12.376
42307W        W 7567   9.192   2.818   0.258
42308W        W 7568  29.871  18.903   0.492
42309W        W 7569   6.204  31.184  14.372
42310W        W 7570  16.516  39.622  12.155
42311W        W 7571   4.500  26.398  12.879
42312W        W 7572   3.960  18.547  12.983
42313W        W 7573   8.723  10.965  12.615
42314W        W 7574  36.448  19.009   3.101
42315W        W 7575  33.064  15.031  14.040
42316W        W 7576   9.355  23.446  10.926
42317W        W 7577  22.357  42.296  12.051
42318W        W 7578  40.442   5.969   2.221
42319W        W 7579  42.498  23.710  12.511
42320W        W 7580  38.886  23.544  11.098
42321W        W 7581  23.593  27.008   0.325
42322W        W 7582  25.495   5.042   3.310
42323W        W 7583  30.098   3.463  12.994
42324W        W 7584  30.683  17.575   2.825
42325W        W 7585  22.514  15.402   4.629
42326W        W 7586  13.734  23.685  14.699
42327W        W 7587  32.593   2.534   0.736
42328W        W 7588  44.196  26.912   5.014
42329W        W 7589  20.131  37.490  14.440
42330W        W 7590  23.083   3.460  10.715
42331W        W 7591  14.179  19.760   0.230
42332W        W 7592  30.716   3.371   3.546
42333W        W 7593  28.598  18.112  10.543
42334W        W 7594  31.485  23.749   1.287
42335W        W 7595  13.706  23.883   4.688
42336W        W 7596  23.174   7.114  12.919
42337W        W 7597   9.593  18.291  14.009
42338W        W 7598  43.955   8.689   2.592
42339W        W 7599  26.560   9.349  11.225
42340W        W 7600  34.995  26.481   1.756
42341W        W 7601  34.514  21.162  13.956
42342W        W 7602  18.529  34.055  13.040
42343W        W 7603  20.546   5.827  13.966
42344W        W 7604  38.166  33.125  14.478
42345W        W 7605  12.203   8.758  13.617
42346W        W 7606  19.243  36.705   2.654
42347W        W 7607  35.530  34.563   1.265
42348W        W 7608  44.080  36.893   2.701
42349W        W 7609  38.338  13.120   3.560
42350W        W 7610   9.862   2.790  12.532
42351W        W 7611  17.328  35.566   0.538
42352W        W 7612  31.051  44.156  10.620
42353W        W 7613   6.148  18.752   0.764
42354W        W 7614   3.259   7.577  13.795
42355W        W 7615  12.538   2.651   2.186
42356W        W 7616  15.138   2.836  11.921
42357W        W 7617  22.440  27.687  12.385
42358W        W 7618  18.060   3.786   3.367
42359W        W 7619  23.497  18.869  13.039
42360W        W 7620  40.271  28.622  13.680
42361W        W 7621  15.699  26.329   0.271
42362W        W 7622  35.110  10.763  13.580
42363W        W 7623  30.041  18.062   3.562
42364W        W 7624  31.528  27.432   1.720
42365W        W 7625   0.377  22.659  14.427
42366W        W 7626  25.693  10.091  10.190
42367W        W 7627  18.371  10.454   2.654
42368W        W 7628  16.426   4.032   0.727
42369W        W 7629  26.904  24.584   0.508
42370W        W 7630  34.969  35.551   4.620
42371W        W 7631   2.083  11.075  14.104
42372W        W 7632   2.768  17.230  11.134
42373W        W 7633   2.897  37.752   0.309
42374W        W 7634  37.879   7.643   1.770
42375W        W 7635  13.377   9.331  11.659
42376W        W 7636  22.014  35.534   2.027
42377W        W 7637   6.218  13.071  11.185
42378W        W 7638  12.719  12.596   1.505
42379W        W 7639  35.583  24.908   0.366
42380W        W 7640  21.477  12.182  12.714
42381W        W 7641  18.610  17.868   3.160
42382W        W 7642  30.162  42.121  14.056
42383W        W 7643  32.177  28.547   1.253
42384W        W 7644  18.652   7.162  12.201
42385W        W 7645  12.303   2.785  14.897
42386W        W 7646   6.497  36.568  12.576
42387W        W 7647  30.140   3.731  11.741
42388W        W 7648  12.236  20.850  10.602
42389W        W 7649   8.950  39.917  14.975
42390W        W 7650  24.600   9.216  14.524
42391W        W 7651   5.437   6.403  11.149
42392W        W 7652  38.558  16.669   1.772
42393W        W 7653   2.435  15.074  13.411
42394W        W 7654  34.532  39.658   1.825
42395W        W 7655  33.855   8.633  10.844
42396W        W 7656  26.236   5.701  14.368
42397W        W 7657  31.000  10.662  11.954
42398W        W 7658   1.673  17.331  14.679
42399W        W 7659  42.660  34.078  14.382
42400W        W 7660  17.224   6.464  11.653
42401W        W 7661  40.047  36.190  12.987
42402W        W 7662  41.768  23.111   2.281
42403W        W 7663   4.429   9.839  11.260
42404W        W 7664  39.531   4.524  14.605
42405W        W 7665  10.816  38.318  12.838
42406W        W 7666  13.400  38.845  14.810
42407W        W 7667  20.682   6.858   0.732
42408W        W 7668  12.600  12.753  12.592
42409W        W 7669   5.473   2.419   2.222
42410W        W 7670  16.272  29.890  13.605
42411W        W 7671  21.821  13.039   3.720
42412W        W 7672  33.888  39.317   2.426
42413W        W 7673   0.514  18.321   1.795
42414W        W 7674  36.563  20.851  11.141
42415W        W 7675  18.871   1.887  11.422
42416W        W 7676  36.941   3.879   5.306
42417W        W 7677  30.737  39.462   3.116
42418W        W 7678  38.671  13.766   2.925
42419W        W 7679  16.243  43.297   4.727
42420W        W 7680  22.853  32.015   1.855
42421W        W 7681  16.116   0.428   2.221
42422W        W 7682   4.762   3.773   0.185
42423W        W 7683  40.829  11.679  14.537
42424W        W 7684  17.781  10.682   4.122
42425W        W 7685  35.360  42.667  10.398
42426W        W 7686  10.660  20.249  13.008
42427W        W 7687   0.289   6.890   4.563
42428W        W 7688   0.247  16.691   3.663
42429W        W 7689  23.162   1.264  14.436
42430W        W 7690  26.969  18.854  14.362
42431W        W 7691  15.384  13.155   0.957
42432W        W 7692  17.921  44.425  14.587
42433W        W 7693   3.892  39.465   0.515
42434W        W 7694  27.213  33.211  13.324
42435W        W 7695  13.928  40.915   2.253
42436W        W 7696  12.186  32.184  13.384
42437W        W 7697   8.947  19.115   4.030
42438W        W 7698   5.328  11.796  11.328
42439W        W 7699  27.610  43.480   4.644
42440W        W 7700  44.461  32.118  12.536
42441W        W 7701  42.130  19.705  11.645
42442W        W 7702  14.586   0.224   3.386
42443W        W 7703   3.257  12.873  11.790
42444W        W 7704  12.590   7.941   0.094
42445W        W 7705  35.612  35.163   0.418
42446W        W 7706  38.097  14.684  11.160
42447W        W 7707  30.890   1.930  11.547
42448W        W 7708  44.236  21.121   0.968
42449W        W 7709  38.829  36.005   0.808
42450W        W 7710   6.182   8.150   1.935
42451W        W 7711  11.949  35.810   2.301
42452W        W 7712   8.934  31.473   2.879
42453W        W 7713  26.946   5.309  10.639
42454W        W 7714  41.871   1.754  11.988
42455W        W 7715  28.029  11.077   4.262
42456W        W 7716  10.896  44.005   2.389
42457W        W 7717  16.231  35.841   0.263
42458W        W 7718  30.526  15.218  10.756
42459W        W 7719   5.070  42.707   0.602
42460W        W 7720   1.236  38.371  11.662
42461W        W 7721  17.300  12.053   1.023
42462W        W 7722  11.305  20.611  13.473
42463W        W 7723  41.074  15.742   1.725
42464W        W 7724   0.922  41.108   2.735
42465W        W 7725   4.469  12.385   1.932
42466W        W 7726  18.768  12.407   3.785
42467W        W 7727   0.254  20.554   1.947
42468W        W 7728  20.057  11.584   3.695
42469W        W 7729  34.077  33.819   2.513
42470W        W 7730   3.294   8.001  14.713
42471W        W 7731   2.008  40.763  13.162
42472W        W 7732   7.378  42.447  13.254
42473W        W 7733  20.604  32.999   1.747
42474W        W 7734  19.564  15.486  12.891
42475W        W 7735  40.974  10.109   3.758
42476W        W 7736  36.415   0.972  13.375
42477W        W 7737   7.196  19.960   2.761
42478W        W 7738   3.874   0.171   3.482
42479W        W 7739  44.051  26.394   3.039
42480W        W 7740   8.071  16.681   4.140
42481W        W 7741  21.188  15.542   1.317
42482W        W 7742  31.695  31.650   3.364
42483W        W 7743  29.493  30.796   2.261
42484W        W 7744  10.231  44.142  12.078
42485W        W 7745  12.039  30.370  10.582
42486W        W 7746  11.773  41.023   1.411
42487W        W 7747  27.464   4.804   2.693
42488W        W 7748  19.067   6.516   4.072
42489W        W 7749  36.420  44.448   3.061
42490W        W 7750  21.694  19.325   5.119
42491W        W 7751   5.528  18.160   4.172
42492W        W 7752  42.447  43.786   3.584
42493W        W 7753  32.486  27.737  11.139
42494W        W 7754  32.023  24.021   0.367
42495W        W 7755  36.058  19.474  14.890
42496W        W 7756  26.542  40.477   2.354
42497W        W 7757  42.493  11.016  12.200
42498W        W 7758  38.549  20.758   1.966
42499W        W 7759  22.115  33.145   5.459
42500W        W 7760  21.686  21.223  11.265
42501W        W 7761  20.083  42.110  14.916
42502W        W 7762  17.109  16.557  12.065
42503W        W 7763  13.291  11.361   4.642
42504W        W 7764   2.464  19.117  11.625
42505W        W 7765  37.658  39.875   1.180
42506W        W 7766  21.884   6.997   1.818
42507W        W 7767  14.838  18.617  11.043
42508W        W 7768   4.941  42.522  10.745
42509W        W 7769   9.659  38.988   0.527
42510W        W 7770  37.330  42.190   0.249
42511W        W 7771  43.279   8.193  11.144
42512W        W 7772  30.941  28.919   4.513
42513W        W 7773  43.442   5.497   3.179
42514W        W 7774   6.150  16.109   2.885
42515W        W 7775  41.232  33.625  10.701
42516W        W 7776  37.610  43.052   1.466
42517W        W 7777   9.595  17.339   1.771
42518W        W 7778  35.594  34.261  12.598
42519W        W 7779  33.826  11.126   2.765
42520W        W 7780   7.346  31.996   2.341
42521W        W 7781  24.158  31.770   3.391
42522W        W 7782  15.774   1.244  14.382
42523W        W 7783  17.167   7.423  10.675
42524W        W 7784  14.689  29.478  14.299
42525W        W 7785  24.698  18.643  11.851
42526W        W 7786   4.729   3.457   3.050
42527W        W 7787  37.707   5.305  11.640
42528W        W 7788  44.460  43.805   1.702
42529W        W 7789  27.570  41.987  12.903
42530W        W 7790  17.852  26.841   1.346
42531W        W 7791  10.818  42.758   3.671
42532W        W 7792  12.844  16.802  13.931
42533W        W 7793  24.207  17.051   5.226
42534W        W 7794  40.537  40.368   3.081
42535W        W 7795  15.780  32.161  10.277
42536W        W 7796  17.836  42.537   1.262
42537W        W 7797  24.481   2.904   3.217
42538W        W 7798  17.399  25.079  11.066
42539W        W 7799  29.901  14.390  13.790
42540W        W 7800  31.541  18.838  13.041
42541W        W 7801   1.675  39.782  11.083
42542W        W 7802  20.973  27.272  13.112
42543W        W 7803   9.369  10.216   3.305
42544W        W 7804   7.338  23.282  11.656
42545W        W 7805  27.555   4.480  14.932
42546W        W 7806  13.286  19.061  13.239
42547W        W 7807  43.557  20.883   2.271
42548W        W 7808  16.610   4.732   4.390
42549W        W 7809  11.875   8.236  10.217
42550W        W 7810  10.192  21.025  10.482
42551W        W 7811   7.913  29.260  12.933
42552W        W 7812  25.252   9.227  12.610
42553W        W 7813  30.128   9.176   0.012
42554W        W 7814  38.931  30.656  10.699
42555W        W 7815  41.530  34.986  10.671
42556W        W 7816  26.383  14.116  12.678
42557W        W 7817  15.313  37.422  10.743
42558W        W 7818  43.263  43.164   3.789
42559W        W 7819  34.665  40.211   4.170
42560W        W 7820  40.272   5.799  10.966
42561W        W 7821  27.096  43.724  13.573
42562W        W 7822  25.070  19.929   5.214
42563W        W 7823  39.996   8.432  14.223
42564W        W 7824  23.228  38.394  13.834
42565W        W 7825  21.228  18.435  11.408
42566W        W 7826   4.465  27.815  10.321
42567W        W 7827  44.684  39.302   0.349
42568W        W 7828  10.223  30.900  12.357
42569W        W 7829  19.237  26.068   2.307
42570W        W 7830  21.714  13.599   0.115
42571W        W 7831  12.117  29.011   4.719
42572W        W 7832  11.615  11.122  12.987
42573W        W 7833  31.107   7.658  11.656
42574W        W 7834  13.615  24.163  12.839
42575W        W 7835   5.109  31.404   3.743
42576W        W 7836  32.300  16.076   2.207
42577W        W 7837  34.117  44.340   0.423
42578W        W 7838   5.847  19.796   1.450
42579W        W 7839  43.085  19.793  11.634
42580W        W 7840  12.206  34.359  11.868
42581W        W 7841  10.385   7.019   0.861
42582W        W 7842  18.281  28.402   4.982
42583W        W 7843  12.706  10.776   5.094
42584W        W 7844  43.217  38.716  11.984
42585W        W 7845  10.648  29.032   1.372
42586W        W 7846  29.810  28.211   1.340
42587W        W 7847   1.939  33.980  11.141
42588W        W 7848  26.697  41.469   3.217
42589W        W 7849  33.640   5.508   1.478
42590W        W 7850  11.085  15.310  11.517
42591W        W 7851   0.475   1.257  13.948
42592W        W 7852  20.443  29.242   1.764
42593W        W 7853  35.485   8.919   3.668
42594W        W 7854  36.947   7.029   3.522
42595W        W 7855  31.060   5.306  13.958
42596W        W 7856  38.827  25.037   4.664
42597W        W 7857  18.429  14.602  13.856
42598W        W 7858   4.320  27.573   3.265
42599W        W 7859   6.321  26.289   5.365
42600W        W 7860  43.736  29.628   4.492
42601W        W 7861   4.164   6.892  12.700
42602W        W 7862  35.620  38.871  11.240
42603W        W 7863  28.764  16.231   0.958
42604W        W 7864  15.875  12.795  13.867
42605W        W 7865  30.586  26.536   1.588
42606W        W 7866  13.468  29.934   1.433
42607W        W 7867  22.151  14.129   1.734
42608W        W 7868  20.067  36.317  11.724
42609W        W 7869  32.155  32.395   3.319
42610W        W 7870  30.075  38.530   1.239
42611W        W 7871  24.911  18.658   3.773
42612W        W 7872  29.499   3.145   1.136
42613W        W 7873  25.074  22.489  11.596
42614W        W 7874   5.829  43.751   2.379
42615W        W 7875  19.614  32.527  10.760
42616W        W 7876   9.307  10.411   2.005
42617W        W 7877  30.336   7.702  11.028
42618W        W 7878  16.928   1.710   0.187
42619W        W 7879  41.537   1.251   2.679
42620W        W 7880  34.663   9.824  14.979
42621W        W 7881   0.456  44.379  11.134
42622W        W 7882   2.216  37.583  11.560
42623W        W 7883  29.445  11.927   0.264
42624W        W 7884  31.846  11.752   4.594
42625W        W 7885  30.550  19.055  12.652
42626W        W 7886   7.177  37.750  11.884
42627W        W 7887  32.494   5.305  11.858
42628W        W 7888  20.686  33.091  12.161
42629W        W 7889  32.382  22.004   2.275
42630W        W 7890  22.608  32.024   2.996
42631W        W 7891  17.808  31.819  11.322
42632W        W 7892  20.988  44.841   3.862
42633W        W 7893  30.166  18.768   0.907
42634W        W 7894  40.930  10.214   1.813
42635W        W 7895   5.763  21.174   0.713
42636W        W 7896  10.234  29.948  13.516
42637W        W 7897  17.947  40.925   2.262
42638W        W 7898  15.183   0.948   3.166
42639W        W 7899  35.354  40.201   3.094
42640W        W 7900   7.898   3.566   2.894
42641W        W 7901  30.018  11.778  13.467
42642W        W 7902  39.048  38.790   5.027
42643W        W 7903   7.099  34.896   3.236
42644W        W 7904   3.929  26.599  10.096
42645W        W 7905  38.146   5.488  13.353
42646W        W 7906  27.671  41.250  13.442
42647W        W 7907  44.292  23.836   0.303
42648W        W 7908  25.472  19.594   5.124
42649W        W 7909  38.316  28.352   0.367
42650W        W 7910   8.811  27.546  12.828
42651W        W 7911  23.471  13.875  12.616
42652W        W 7912  32.526  24.588   4.090
42653W        W 7913  40.244  26.416   0.782
42654W        W 7914  21.729  42.580   1.887
42655W        W 7915  38.200   9.818  12.483
42656W        W 7916   1.027  14.704  14.569
42657W        W 7917  21.827  15.410  13.627
42658W        W 7918   9.998   2.833  10.968
42659W        W 7919  13.034   8.279  12.003
42660W        W 7920  31.408  42.581  11.901
42661W        W 7921   7.334  20.992   4.492
42662W        W 7922   0.557  25.034   1.326
42663W        W 7923  37.759   4.669   3.312
42664W        W 7924  37.940  17.061  11.150
42665W        W 7925  39.533   5.812  13.380
42666W        W 7926   2.461  25.043   3.052
42667W        W 7927   9.089  40.965  11.208
42668W        W 7928  39.869   9.187  14.933
42669W        W 7929  12.193   9.062   4.580
42670W        W 7930   0.538   4.397  11.004
42671W        W 7931  39.328  26.812  12.073
42672W        W 7932  25.484  23.142   4.339
42673W        W 7933  33.760  18.776   4.193
42674W        W 7934  18.078  21.477  11.321
42675W        W 7935   7.101  17.876  12.589
42676W        W 7936   3.751  11.289  14.448
42677W        W 7937  31.523  12.027   1.968
42678W        W 7938  17.716   9.036   1.159
42679W        W 7939  20.358  20.791   5.066
42680W        W 7940  43.351  25.122   2.647
42681W        W 7941  24.877  16.224   5.265
42682W        W 7942  43.446  10.820   0.309
42683W        W 7943  28.815  11.264   0.541
42684W        W 7944  10.532  39.686   1.323
42685W        W 7945  18.181   5.765  10.546
42686W        W 7946  25.193  10.465  11.472
42687W        W 7947  26.157  44.635  10.540
42688W        W 7948   7.262  30.126  11.118
42689W        W 7949   4.975  22.562   0.884
42690W        W 7950  17.822  14.687   4.667
42691W        W 7951  12.764  15.620   3.198
42692W        W 7952  36.065  19.043  11.191
42693W        W 7953  23.233  38.529   2.813
42694W        W 7954  21.563  37.103  12.582
42695W        W 7955  37.310  27.043   1.782
42696W        W 7956  17.758  36.382  10.095
42697W        W 7957  22.241   7.812   2.373
42698W        W 7958  18.842  28.047   2.969
42699W        W 7959  13.786  30.129   1.045
42700W        W 7960  11.699   7.712  12.278
42701W        W 7961   5.613  30.029  11.120
42702W        W 7962  34.855  14.453  10.275
42703W        W 7963   9.149  22.063   4.756
42704W        W 7964  27.549  21.151  14.348
42705W        W 7965   7.239  41.446   5.038
42706W        W 7966  13.808  23.035   2.161
42707W        W 7967  15.647  39.171   5.188
42708W        W 7968   1.492  15.206   3.987
42709W        W 7969  43.613  10.435   9.908
42710W        W 7970  40.601  42.525   3.498
42711W        W 7971  44.397  35.554  13.916
42712W        W 7972  19.381  41.865   4.617
42713W        W 7973   3.688  16.069  14.733
42714W        W 7974   7.367   7.477   1.784
42715W        W 7975  36.720  20.630  10.710
42716W        W 7976  35.161  14.423  14.958
42717W        W 7977  42.573  18.579  14.534
42718W        W 7978   0.729  15.541   4.848
42719W        W 7979  41.784   4.726  14.474
42720W        W 7980  25.726  34.954  11.197
42721W        W 7981   2.260  14.312  14.717
42722W        W 7982  34.589  14.428  10.721
42723W        W 7983  29.940   3.646   1.776
42724W        W 7984  36.831  27.011  10.682
42725W        W 7985   3.173  31.529   2.359
42726W        W 7986  43.038  30.397  13.446
42727W        W 7987   8.489  19.277  12.426
42728W        W 7988  13.084  18.566  13.524
42729W        W 7989  37.479   7.065  11.162
42730W        W 7990  42.411  18.535   4.266
42731W        W 7991  35.548  14.663  13.131
42732W        W 7992  44.312  33.438   2.371
42733W        W 7993   1.545  32.484  12.572
42734W        W 7994   3.885  39.054   2.679
42735W        W 7995   4.829  11.326   0.693
42736W        W 7996  36.535  16.853   2.260
42737W        W 7997  19.693   8.704   0.400
42738W        W 7998   0.939  20.659   2.592
42739W        W 7999  27.194  25.653   3.644
42740W        W 8000   1.764  29.540   3.897
42741W        W 8001  12.550  24.951  10.965
42742W        W 8002  44.241  35.540   2.745
42743W        W 8003  27.017  28.922  10.566
42744W        W 8004  25.541   4.407  10.288
42745W        W 8005  15.304  17.451   3.844
42746W        W 8006   6.840  22.733  14.714
42747W        W 8007  10.402  37.658  13.256
42748W        W 8008  20.534  14.896   1.229
42749W        W 8009   8.735   3.224   2.258
42750W        W 8010  41.838  42.310   2.011
42751W        W 8011  22.217  30.927  13.022
42752W        W 8012  28.674  43.982   2.473
42753W        W 8013  32.130  40.224  12.503
42754W        W 8014   4.358  26.771   0.384
42755W        W 8015  44.292  10.339  12.939
42756W        W 8016  23.755   5.615   9.877
42757W        W 8017   7.953  14.660  10.724
42758W        W 8018  26.479  13.166   0.980
42759W        W 8019  19.080  38.112  12.846
42760W        W 8020  20.295  18.117   1.145
42761W        W 8021  20.490  13.121   4.195
42762W        W 8022  44.976  19.195   2.422
42763W        W 8023  28.859  21.701   3.278
42764W        W 8024  40.147  43.401  14.964
42765W        W 8025  42.075  24.601   0.217
42766W        W 8026  26.067  42.283  12.583
42767W        W 8027  36.525  42.336  12.332
42768W        W 8028  10.932  11.428   3.678
42769W        W 8029  33.353  29.566   1.164
42770W        W 8030  23.742   9.420  14.036
42771W        W 8031  44.213   0.764   0.772
42772W        W 8032  15.261  17.825  13.478
42773W        W 8033   7.631  15.551  12.412
42774W        W 8034  22.093   3.352   5.023
42775W        W 8035  27.445  43.082   3.194
42776W        W 8036   9.153   1.303  13.401
42777W        W 8037  10.856  29.667   4.642
42778W        W 8038  20.761  11.701   0.664
42779W        W 8039  23.720  38.064   4.130
42780W        W 8040  11.250  12.632   2.820
42781W        W 8041  26.079  41.112   1.771
42782W        W 8042  44.569  10.424  12.495
42783W        W 8043  14.616  13.890   4.244
42784W        W 8044   5.202  35.188   4.299
42785W        W 8045  40.457   2.454   4.620
42786W        W 8046  18.340  36.361  13.988
42787W        W 8047  42.472  10.811   2.386
42788W        W 8048  35.400  35.377   1.881
42789W        W 8049  36.630  15.527   1.270
42790W        W 8050  29.747  39.376  14.282
42791W        W 8051  34.567  12.676  12.396
42792W        W 8052   8.438  14.137   2.211
42793W        W 8053  13.568  16.169  11.709
42794W        W 8054  38.300  44.069  11.668
42795W        W 8055  16.511  40.993   2.686
42796W        W 8056  26.087  34.052   2.838
42797W        W 8057  39.105   2.487  14.090
42798W        W 8058  15.391  30.095   1.040
42799W        W 8059  30.137  17.592   3.733
42800W        W 8060  13.377   5.231  12.868
42801W        W 8061   1.336  10.833   2.675
42802W        W 8062  15.666  30.555  12.820
42803W        W 8063  27.109  32.298  13.482
42804W        W 8064  10.195  23.068   0.295
42805W        W 8065  13.602   2.907   1.279
42806W        W 8066  33.790  31.645  12.843
42807W        W 8067  35.395   5.414  13.254
42808W        W 8068  35.367   1.454   2.554
42809W        W 8069  14.740  34.450  14.514
42810W        W 8070  34.099  26.729  14.152
42811W        W 8071  44.263  20.740   3.648
42812W        W 8072  11.175  11.129  11.052
42813W        W 8073  38.914  36.411   4.059
42814W        W 8074  35.888  25.607   4.635
42815W        W 8075  26.887  16.419  12.844
42816W        W 8076   7.607   6.871  11.516
42817W        W 8077  21.658  28.220   2.655
42818W        W 8078   6.638  38.032   3.649
42819W        W 8079   4.234  34.520   2.819
42820W        W 8080  29.479  41.329  13.983
42821W        W 8081   3.321  10.919  14.555
42822W        W 8082  36.506  21.071   0.873
42823W        W 8083  27.691  10.662   3.717
42824W        W 8084   9.806  16.314   4.062
42825W        W 8085  27.525  19.161  12.665
42826W        W 8086  42.092  14.221  10.776
42827W        W 8087  44.752  39.451   2.674
42828W        W 8088  40.803  32.080  14.370
42829W        W 8089   6.852  43.460  12.439
42830W        W 8090   1.975   5.722  10.689
42831W        W 8091  26.137  18.235   1.624
42832W        W 8092  35.120  11.791   1.335
42833W        W 8093  10.637  11.804   1.408
42834W        W 8094  40.044   6.038   1.898
42835W        W 8095  15.784  18.488  14.281
42836W        W 8096  41.610  20.703   2.158
42837W        W 8097  43.560  29.632  11.680
42838W        W 8098  21.863   8.851   4.461
42839W        W 8099  19.888  38.589   4.591
42840W        W 8100  19.308   5.250   1.691
42841W        W 8101  10.650  34.901   4.183
42842W        W 8102  11.198  28.550  14.947
42843W        W 8103  42.808  18.372   4.893
42844W        W 8104  34.856   3.413   1.608
42845W        W 8105  17.909  39.521  12.798
42846W        W 8106  34.113  20.111   1.140
42847W        W 8107  37.465  10.668  13.831
42848W        W 8108  24.455  10.355   1.689
42849W        W 8109  26.542  26.606  10.500
42850W        W 8110  34.485   5.378   3.623
42851W        W 8111  44.215  32.501   2.381
42852W        W 8112   0.961  38.830  13.053
42853W        W 8113  30.484  37.991  13.860
42854W        W 8114  40.812   7.198  12.537
42855W        W 8115  21.284  17.507  13.959
42856W        W 8116  13.512  39.784   4.092
42857W        W 8117  14.630  17.512   0.988
42858W        W 8118  43.896   4.342   4.926
42859W        W 8119  36.886   5.947   3.299
42860W        W 8120  21.700  24.595  13.797
42861W        W 8121  23.488  39.599  12.492
42862W        W 8122   4.364  41.814  14.915
42863W        W 8123   2.352  21.605   1.641
42864W        W 8124   8.661  11.321   2.813
42865W        W 8125  20.318   7.152  12.000
42866W        W 8126  16.560  42.459  12.772
42867W        W 8127  32.871  35.078  14.205
42868W        W 8128  30.094  22.256   4.568
42869W        W 8129  26.646  23.526  13.075
42870W        W 8130  38.235  39.410  14.849
42871W        W 8131  33.722  20.482   3.225
42872W        W 8132   7.748  16.251   4.222
42873W        W 8133   0.982   5.338   0.476
42874W        W 8134  18.287  18.784   2.405
42875W        W 8135  23.377  32.433  14.439
42876W        W 8136  21.843  35.606  12.686
42877W        W 8137   2.082  44.478  11.988
42878W        W 8138  11.218  34.138   4.054
42879W        W 8139   1.172  25.677  13.928
42880W        W 8140  27.454  35.678  14.195
42881W        W 8141  43.764  29.997   1.605
42882W        W 8142  37.098  30.241  11.983
42883W        W 8143  10.239  41.769   1.689
42884W        W 8144  35.854  30.644   3.645
42885W        W 8145  34.624   6.670  12.149
42886W        W 8146  33.183  32.618  13.881
42887W        W 8147  15.524  19.794  11.450
42888W        W 8148  10.033   2.205  13.828
42889W        W 8149   6.913  23.617  13.004
42890W        W 8150  31.281   8.288  12.670
42891W        W 8151  28.704  41.434  10.933
42892W        W 8152  13.563  30.950  14.389
42893W        W 8153  31.494   2.988   0.744
42894W        W 8154  40.492  32.781   0.626
42895W        W 8155  36.002  36.379  11.032
42896W        W 8156   6.165  12.084  10.977
42897W        W 8157  34.388  34.113   2.798
42898W        W 8158  39.000  18.293   0.351
42899W        W 8159  43.506  35.082   0.699
42900W        W 8160  13.695  27.978   4.364
42901W        W 8161   7.127  21.737  10.736
42902W        W 8162  15.314   5.532   4.220
42903W        W 8163  24.239  30.936   0.302
42904W        W 8164  39.051  37.947  14.287
42905W        W 8165  27.831  36.225   5.241
42906W        W 8166   4.411  34.302  12.388
42907W        W 8167  13.242  11.106  14.577
42908W        W 8168  20.283  14.114   1.554
42909W        W 8169  20.520  33.709   0.375
42910W        W 8170  19.805   9.618   3.586
42911W        W 8171  24.963  18.125   2.405
42912W        W 8172  14.202  39.201  14.470
42913W        W 8173  40.578   1.700   4.166
42914W        W 8174  43.693  32.048   0.493
42915W        W 8175  19.589   8.810  14.897
42916W        W 8176   5.732  42.001   3.699
42917W        W 8177  16.541  15.582   1.731
42918W        W 8178  13.399  43.430  14.853
42919W        W 8179  31.523   0.484   4.448
42920W        W 8180   3.748  15.704   3.054
42921W        W 8181  29.686  24.068  10.861
42922W        W 8182   1.884  10.744  10.293
42923W        W 8183   3.870  15.832  14.236
42924W        W 8184  36.903   0.990   1.631
42925W        W 8185  32.977  40.778   2.677
42926W        W 8186  16.218  34.791  10.749
42927W        W 8187   6.199  15.479   2.437
42928W        W 8188  25.741  36.983  13.269
42929W        W 8189  37.646  10.748   0.793
42930W        W 8190  20.002  21.822   3.693
42931W        W 8191   6.519  28.977   2.758
42932W        W 8192   5.291  23.756   9.735
42933W        W 8193  39.427  39.893  10.969
42934W        W 8194  30.332  17.295  12.825
42935W        W 8195   6.891   0.007   4.177
42936W        W 8196  25.559  24.146   0.290
42937W        W 8197  20.726  28.871  10.914
42938W        W 8198  18.767  10.122  12.043
42939W        W 8199  33.858  26.714   9.938
42940W        W 8200  14.323  28.968  13.111
42941W        W 8201  25.901   6.037   2.694
42942W        W 8202  21.186   0.306   1.168
42943W        W 8203  28.553  31.021  13.870
42944W        W 8204  20.706  41.797  13.728
42945W        W 8205  11.080  11.824   1.151
42946W        W 8206  18.661  21.761   3.743
42947W        W 8207  11.121  42.358  14.886
42948W        W 8208  24.134  19.827   1.671
42949W        W 8209   8.141   1.087   2.971
42950W        W 8210  11.978  36.307  14.028
42951W        W 8211  33.934  16.046  13.805
42952W        W 8212  20.615  21.203  11.999
42953W        W 8213  28.515  17.454  11.102
42954W        W 8214  13.165  10.641   5.845
42955W        W 8215  41.226  23.519  11.239
42956W        W 8216  24.381  27.432  14.415
42957W        W 8217  35.939   4.904   0.720
42958W        W 8218  13.560  34.995  12.890
42959W        W 8219   5.239  37.524  11.117
42960W        W 8220  18.612  35.390   4.586
42961W        W 8221   3.932   9.767  13.570
42962W        W 8222  44.863  21.518  14.184
42963W        W 8223   9.651  26.400   3.361
42964W        W 8224  42.783  17.300   0.156
42965W        W 8225  33.594  17.587   3.259
42966W        W 8226  43.914   4.231   0.503
42967W        W 8227   7.195   5.850   4.221
42968W        W 8228  27.487  41.040  14.948
42969W        W 8229  37.831   0.222  13.650
42970W        W 8230  38.962  13.764  11.532
42971W        W 8231  18.925  41.764   1.777
42972W        W 8232  22.472  24.534  13.413
42973W        W 8233  38.573  40.799  14.033
42974W        W 8234   5.245  15.553  10.297
42975W        W 8235  12.164  14.176   1.800
42976W        W 8236  18.669   4.388  14.902
42977W        W 8237   0.226  14.383  13.796
42978W        W 8238  40.825   7.532  13.909
42979W        W 8239  21.341  23.909   3.223
42980W        W 8240  24.601  32.426   4.866
42981W        W 8241  15.203   4.917   1.425
42982W        W 8242  11.806  43.841   1.985
42983W        W 8243  12.358  28.701  14.461
42984W        W 8244  19.752  39.758  14.505
42985W        W 8245   5.827  40.936  11.812
42986W        W 8246  25.516  36.618   9.878
42987W        W 8247  21.713  19.871  12.970
42988W        W 8248  25.770  43.844   4.119
42989W        W 8249  12.084  15.679  13.355
42990W        W 8250  21.037  29.120   0.919
42991W        W 8251   6.112  11.904  12.997
42992W        W 8252  11.776  12.858  13.499
42993W        W 8253  36.872  27.938  10.642
42994W        W 8254  21.704  23.215   0.629
42995W        W 8255  21.320  18.597   9.743
42996W        W 8256  29.166  21.747   0.971
42997W        W 8257  22.126   1.465   2.200
42998W        W 8258  24.286  18.662   0.244
42999W        W 8259  41.040   5.622   1.030
43000W        W 8260  36.844   2.848   3.657
43001W        W 8261  10.817  21.950   0.040
43002W        W 8262  22.043  33.334  11.193
43003W        W 8263  23.276  44.360   2.674
43004W        W 8264  39.038  40.865   0.846
43005W        W 8265   8.443  13.198   1.857
43006W        W 8266  23.393  25.953   1.908
43007W        W 8267  15.409   0.277   2.816
43008W        W 8268   2.282  29.972  13.698
43009W        W 8269  28.261   9.595  13.807
43010W        W 8270   0.306   0.009  11.609
43011W        W 8271  28.544  23.480   0.378
43012W        W 8272  22.664   8.902  11.544
43013W        W 8273  26.944  25.132  11.107
43014W        W 8274  37.009  23.683   4.609
43015W        W 8275  23.742   5.240  14.866
43016W        W 8276  22.303   8.150   1.281
43017W        W 8277  20.712  13.797   3.264
43018W        W 8278  10.845  33.806   0.775
43019W        W 8279   8.005  43.780  11.922
43020W        W 8280  26.327  10.386   2.859
43021W        W 8281   9.871  29.474   4.703
43022W        W 8282  32.642   1.426   1.295
43023W        W 8283  25.689   7.260  13.406
43024W        W 8284  38.208   4.454  11.075
43025W        W 8285  37.680  42.618  14.370
43026W        W 8286  38.623  10.214  12.939
43027W        W 8287  36.801  26.681   0.446
43028W        W 8288  29.683  35.420   1.470
43029W        W 8289   8.185  18.263   1.379
43030W        W 8290   6.195  31.064  11.125
43031W        W 8291  31.416  15.344  11.567
43032W        W 8292   1.223  36.198   3.382
43033W        W 8293   1.194  15.729   4.653
43034W        W 8294  12.504   4.633  11.271
43035W        W 8295  14.155  30.598   4.513
43036W        W 8296   7.370  22.331   2.591
43037W        W 8297   6.822  24.631  13.298
43038W        W 8298  10.224  38.796  10.723
43039W        W 8299  25.151  34.392   3.184
43040W        W 8300  31.188  20.836   3.410
43041W        W 8301  21.984  21.519   0.759
43042W        W 8302   6.012   5.013  13.975
43043W        W 8303   7.027  41.944   3.148
43044W        W 8304  20.884  31.719  12.311
43045W        W 8305  12.846   4.142   1.406
43046W        W 8306  39.792   1.158   4.559
43047W        W 8307   4.680  22.797   4.989
43048W        W 8308  27.014  35.028  10.703
43049W        W 8309  30.920   4.956   1.307
43050W        W 8310  28.214  22.543  14.255
43051W        W 8311  12.281  15.207   0.653
43052W        W 8312  42.100  40.584  10.695
43053W        W 8313   6.076   3.062  11.099
43054W        W 8314  17.989  40.919  13.118
43055W        W 8315  36.132  34.567  14.281
43056W        W 8316  23.141   5.249  12.933
43057W        W 8317  37.357  36.080  12.470
43058W        W 8318  30.665  12.659   0.848
43059W        W 8319   9.213  22.767  12.991
43060W        W 8320  14.330   6.036   3.753
43061W        W 8321  24.927  36.105   2.226
43062W        W 8322  28.500  40.088  14.983
43063W        W 8323   2.309   4.876   3.888
43064W        W 8324  35.275  19.597  14.403
43065W        W 8325  26.952  28.398   3.324
43066W        W 8326  28.418   4.674   4.095
43067W        W 8327  21.963  29.888  14.775
43068W        W 8328  42.296  34.414  13.540
43069W        W 8329  18.196  22.073   4.080
43070W        W 8330  40.018   2.161  13.934
43071W        W 8331  37.376   3.934  12.742
43072W        W 8332   7.762  20.561   4.361
43073W        W 8333  41.680   9.717   1.919
43074W        W 8334  21.740  39.785   3.185
43075W        W 8335  44.561   1.910  11.623
43076W        W 8336  26.203  19.627  14.127
43077W        W 8337   4.488  37.982  11.473
43078W        W 8338  32.924   0.373   1.314
43079W        W 8339   3.318  14.669  11.132
43080W        W 8340  37.301  40.898   1.868
43081W        W 8341   8.009  19.516  12.399
43082W        W 8342  23.268  30.434  12.870
43083W        W 8343  36.576  21.136  11.561
43084W        W 8344  20.122  20.673  12.386
43085W        W 8345  20.185  43.240   3.774
43086W        W 8346  42.952   2.410  13.078
43087W        W 8347  22.450  33.413   0.027
43088W        W 8348  14.358   0.888   1.617
43089W        W 8349   5.352   1.314   3.188
43090W        W 8350  41.444   6.459   0.462
43091W        W 8351  41.844  13.521  11.911
43092W        W 8352   7.831  17.934  12.080
43093W        W 8353  44.502  17.538  12.056
43094W        W 8354  34.364  43.074  13.377
43095W        W 8355  12.376  38.361   3.823
43096W        W 8356  31.339   3.683   0.310
43097W        W 8357  21.740  17.398  12.901
43098W        W 8358  41.300  11.694  13.957
43099W        W 8359  24.547   8.131   0.544
43100W        W 8360   3.828  35.161   4.086
43101W        W 8361  28.534  14.212   1.031
43102W        W 8362  43.282  30.899  14.004
43103W        W 8363  44.337  17.583  14.612
43104W        W 8364  35.987  39.058  13.438
43105W        W 8365  10.066  30.369  12.358
43106W        W 8366  24.163   1.784  12.515
43107W        W 8367  21.180   7.983  11.526
43108W        W 8368  18.772  26.298  13.810
43109W        W 8369  19.574  17.629   2.337
43110W        W 8370  23.006  20.657   1.878
43111W        W 8371   2.807   0.741  12.115
43112W        W 8372   2.430  11.629   4.562
43113W        W 8373  11.928   3.200  12.521
43114W        W 8374  22.149  44.350   0.207
43115W        W 8375  24.632  43.929  14.482
43116W        W 8376   0.823  22.410  14.533
43117W        W 8377  37.655  30.427  11.997
43118W        W 8378  12.122  10.592   0.343
43119W        W 8379  34.659  44.480   2.154
43120W        W 8380  24.392  33.219  12.355
43121W        W 8381  19.064  38.008   4.724
43122W        W 8382  12.892  12.246   3.338
43123W        W 8383  19.525   7.864   3.565
43124W        W 8384   6.408  21.783  11.267
43125W        W 8385  14.882  41.190   1.255
43126W        W 8386  41.823   2.265   4.467
43127W        W 8387   3.238  21.313  11.764
43128W        W 8388  25.939   3.173   0.999
43129W        W 8389   4.282  11.331   0.502
43130W        W 8390  16.500  15.392  14.952
43131W        W 8391  34.826  33.035   2.763
43132W        W 8392  23.940  10.664  10.634
43133W        W 8393  21.863  42.282  12.948
43134W        W 8394  28.009   9.654  13.351
43135W        W 8395  37.044  14.058  11.323
43136W        W 8396  41.048  19.070  12.973
43137W        W 8397  28.340  36.963   4.061
43138W        W 8398  42.829   1.419   4.678
43139W        W 8399  34.869  33.423  13.761
43140W        W 8400  13.260  20.097   4.083
43141W        W 8401  31.454  43.933   3.985
43142W        W 8402  34.438  29.478  11.207
43143W        W 8403  18.795  19.937   0.650
43144W        W 8404   5.488  22.091  13.528
43145W        W 8405  40.296  19.280  12.054
43146W        W 8406  30.866  36.446   4.528
43147W        W 8407   7.036  24.001   0.004
43148W        W 8408  25.655  36.961   0.266
43149W        W 8409  17.555  37.054   0.623
43150W        W 8410   8.739  10.047  13.948
43151W        W 8411  29.211  37.366   4.825
43152W        W 8412  17.522  12.618  11.730
43153W        W 8413   7.331   9.386  12.381
43154W        W 8414   2.094   3.357  10.613
43155W        W 8415  20.811  22.165   2.032
43156W        W 8416  18.216  36.431   2.654
43157W        W 8417  24.296   3.321  13.742
43158W        W 8418  17.517   0.398   1.271
43159W        W 8419  44.047  34.079   1.309
43160W        W 8420  38.548  36.016   4.185
43161W        W 8421  19.561  29.101   1.666
43162W        W 8422  29.056  25.222  10.347
43163W        W 8423  35.035   3.630  14.830
43164W        W 8424  36.330  18.779   4.446
43165W        W 8425  15.585  12.777  13.458
43166W        W 8426  18.479  13.792   2.626
43167W        W 8427  10.571  27.234  14.858
43168W        W 8428  34.767  19.278   1.437
43169W        W 8429  34.533  35.012  10.592
43170W        W 8430  37.327  35.402  14.818
43171W        W 8431  27.706   2.347   4.362
43172W        W 8432   9.290   6.219   2.770
43173W        W 8433  19.215  16.053   3.678
43174W        W 8434   9.154  29.528   3.283
43175W        W 8435  25.083   0.993   0.200
43176W        W 8436  22.771   8.740  12.447
43177W        W 8437   8.217  27.127  14.262
43178W        W 8438   8.343   0.927  11.221
43179W        W 8439  34.090  21.656   2.391
43180W        W 8440  30.493  14.770   2.357
43181W        W 8441  12.153  18.368   0.271
43182W        W 8442  39.227  20.557  13.120
43183W        W 8443  25.233  44.532  14.006
43184W        W 8444  39.392   2.144  14.398
43185W        W 8445   7.198  14.785   0.277
43186W        W 8446  40.076   9.857  11.665
43187W        W 8447   9.437  37.376   4.549
43188W        W 8448   6.988   2.335   4.190
43189W        W 8449  38.462  30.021   1.736
43190W        W 8450  19.634  15.103  14.693
43191W        W 8451  12.787  34.936   0.361
43192W        W 8452  38.227  32.113  14.396
43193W        W 8453  21.201   3.002   2.155
43194W        W 8454  19.178  32.284   2.928
43195W        W 8455   7.119  19.068  13.550
43196W        W 8456   1.502  20.786  11.536
43197W        W 8457  28.725   0.323  13.278
43198W        W 8458   6.842   3.756   0.816
43199W        W 8459  29.441  44.590   4.145
43200W        W 8460  36.333   7.122   9.936
43201W        W 8461   7.745   6.641   4.087
43202W        W 8462   7.713  41.302  11.126
43203W        W 8463   0.981  16.085  14.435
43204W        W 8464  28.591  41.707   0.803
43205W        W 8465   1.521   3.388   2.398
43206W        W 8466  28.756  14.686   5.338
43207W        W 8467  15.704  23.063   4.069
43208W        W 8468  12.142  28.965   2.629
43209W        W 8469  11.897   7.623   3.540
43210W        W 8470  16.824  44.800   3.711
43211W        W 8471  25.517  41.846   4.146
43212W        W 8472  12.828  31.360   1.806
43213W        W 8473  44.907  27.993   2.424
43214W        W 8474  39.594  14.387  13.678
43215W        W 8475  44.722  24.573   2.361
43216W        W 8476  13.536  34.100   0.900
43217W        W 8477  14.495  32.420  13.068
43218W        W 8478  36.101   4.353   2.353
43219W        W 8479   8.789  41.351  12.938
43220W        W 8480  38.268  18.858  14.487
43221W        W 8481   8.706   6.622   1.400
43222W        W 8482   3.389  13.263  12.607
43223W        W 8483  16.238  35.851  10.716
43224W        W 8484  38.376  15.992  10.525
43225W        W 8485  38.800  36.547  14.801
43226W        W 8486  33.680  43.155  10.125
43227W        W 8487  42.929  22.987  12.835
43228W        W 8488  16.609   7.349   4.483
43229W        W 8489   6.946  34.612   0.264
43230W        W 8490  35.177  15.975   0.482
43231W        W 8491   5.814   4.439   2.424
43232W        W 8492  23.918  21.280  14.259
43233W        W 8493   4.383   5.923  14.863
43234W        W 8494  24.506  11.946  10.814
43235W        W 8495  40.901  18.952   3.934
43236W        W 8496   8.605   5.775   1.738
43237W        W 8497  44.742  35.021   2.972
43238W        W 8498  42.720  40.929   0.519
43239W        W 8499   3.407   3.702   3.990
43240W        W 8500  35.537   9.725   2.163
43241W        W 8501  18.360  13.996  13.018
43242W        W 8502   2.967  43.769  14.248
43243W        W 8503  43.822  10.783   1.538
43244W        W 8504   2.284  21.051   3.708
43245W        W 8505  24.119   6.363   5.351
43246W        W 8506  32.030  18.889   4.099
43247W        W 8507  19.544  17.130  13.413
43248W        W 8508   9.923  19.133   1.886
43249W        W 8509  22.266  21.770   9.605
43250W        W 8510  40.706  34.057   0.549
43251W        W 8511  27.114  31.514   0.451
43252W        W 8512  14.464  10.238   2.162
43253W        W 8513  41.666  17.413  12.088
43254W        W 8514  20.272  10.486  13.006
43255W        W 8515  15.197   9.345  14.485
43256W        W 8516  28.439  26.798  10.723
43257W        W 8517  28.962  11.205  14.336
43258W        W 8518  21.497   6.597   4.005
43259W        W 8519   8.194   8.232  13.414
43260W        W 8520  30.007  27.977   2.322
43261W        W 8521  26.829  17.695  14.918
43262W        W 8522  14.345  23.248  13.483
43263W        W 8523   1.755  25.169   2.781
43264W        W 8524  39.852   6.943  11.101
43265W        W 8525   4.660  40.106  13.843
43266W        W 8526  29.367  41.443  13.470
43267W        W 8527   6.484  29.091  10.446
43268W        W 8528  36.241  42.913  11.683
43269W        W 8529  23.558  21.850  13.913
43270W        W 8530   8.171  14.567   2.721
43271W        W 8531  34.919  36.153   2.316
43272W        W 8532  15.559  18.537  11.603
43273W        W 8533  36.634   3.792  10.016
43274W        W 8534  21.222   2.235   2.733
43275W        W 8535   4.986  44.861  11.093
43276W        W 8536   2.453  17.867   4.856
43277W        W 8537  31.628   8.656  11.093
43278W        W 8538   9.088  11.272  13.404
43279W        W 8539   2.399  33.493  10.608
43280W        W 8540  39.827  29.874  14.481
43281W        W 8541  29.361   7.745   3.727
43282W        W 8542  38.105  30.666   2.220
43283W        W 8543  32.633  31.790  11.424
43284W        W 8544  13.297   7.367   3.530
43285W        W 8545  29.085   3.844  14.691
43286W        W 8546  29.642  42.896  11.649
43287W        W 8547   5.254  42.932  14.732
43288W        W 8548  11.650  14.067   1.322
43289W        W 8549  35.353   6.220  12.004
43290W        W 8550  25.530  24.200  11.397
43291W        W 8551  31.592   2.934  14.854
43292W        W 8552  41.935  38.794  12.474
43293W        W 8553  12.681  14.017   0.915
43294W        W 8554  35.612   2.411  12.224
43295W        W 8555  42.453  25.980   4.326
43296W        W 8556  33.268  21.315   5.216
43297W        W 8557  26.353  18.009   2.576
43298W        W 8558  16.667   0.944  12.468
43299W        W 8559  15.376  14.342  13.827
43300W        W 8560  33.827   1.022  11.144
43301W        W 8561  44.187  17.942  11.981
43302W        W 8562  10.168  24.647  11.966
43303W        W 8563  41.148  38.933   2.388
43304W        W 8564  31.524   9.722   2.221
43305W        W 8565  14.322   0.396   1.848
43306W        W 8566  12.634  27.985   2.087
43307W        W 8567   9.766  37.618   0.941
43308W        W 8568  15.080  26.294  13.576
43309W        W 8569   7.720  33.460  14.984
43310W        W 8570  42.613  43.497  12.676
43311W        W 8571  31.947  25.004   0.507
43312W        W 8572  15.763  39.040  11.980
43313W        W 8573  37.068   3.309   3.677
43314W        W 8574   6.240  44.827   1.307
43315W        W 8575  36.120  30.731  14.409
43316W        W 8576  17.015  34.673  14.061
43317W        W 8577  10.250  35.832  11.069
43318W        W 8578  33.144   1.976   3.310
43319W        W 8579  43.528  18.097  14.935
43320W        W 8580  30.258   9.923  11.887
43321W        W 8581  24.176  34.892   1.319
43322W        W 8582   3.396  17.343  12.454
43323W        W 8583  11.454  29.329  13.818
43324W        W 8584  31.163  19.637  13.337
43325W        W 8585   5.175  36.418   3.597
43326W        W 8586   1.989  24.096   3.205
43327W        W 8587  11.304  31.987   0.417
43328W        W 8588  33.561   2.293   0.766
43329W        W 8589   6.461  29.101   3.699
43330W        W 8590  27.555   8.718   2.046
43331W        W 8591  35.632  14.261   0.826
43332W        W 8592  26.595  31.548   4.772
43333W        W 8593  18.577  34.989  11.625
43334W        W 8594  43.925  36.057   1.551
43335W        W 8595   2.913  40.824  13.986
43336W        W 8596  42.254  30.485  14.930
43337W        W 8597   3.725   4.895  11.594
43338W        W 8598  39.272  40.130   2.885
43339W        W 8599   0.608   4.201  13.336
43340W        W 8600  29.129   3.770   4.569
43341W        W 8601  30.545  20.545   1.847
43342W        W 8602  17.761  34.144   1.745
43343W        W 8603  43.862  30.023   3.647
43344W        W 8604  39.865  38.489  13.576
43345W        W 8605  28.116   1.525  14.917
43346W        W 8606  37.854  33.125  12.632
43347W        W 8607  40.370  10.154  13.621
43348W        W 8608  20.283  23.126  12.732
43349W        W 8609  30.156  30.609   0.860
43350W        W 8610  30.184  39.047   1.324
43351W        W 8611  31.108  40.280   4.689
43352W        W 8612  14.589   5.357   1.955
43353W        W 8613  34.970  18.624   0.813
43354W        W 8614  36.799  13.637  13.024
43355W        W 8615  14.820  38.325  10.745
43356W        W 8616   9.717   3.279  11.146
43357W        W 8617  25.151  22.054   2.870
43358W        W 8618  13.842  24.534  12.423
43359W        W 8619  14.060  35.022   4.371
43360W        W 8620  26.748  27.603  12.422
43361W        W 8621  24.873  24.542   3.179
43362W        W 8622  34.061  17.052  12.008
43363W        W 8623  27.123  26.148   4.172
43364W        W 8624  39.561  24.841   4.125
43365W        W 8625  13.161  36.568   1.356
43366W        W 8626  18.473  23.606  12.026
43367W        W 8627  15.369  43.819  14.938
43368W        W 8628   2.931   1.511   4.894
43369W        W 8629  41.002   8.745   0.330
43370W        W 8630  44.059  38.540   3.843
43371W        W 8631  41.067  40.554   1.841
43372W        W 8632  22.226  33.485   5.094
43373W        W 8633  38.889  42.312   3.800
43374W        W 8634   2.506  21.075   2.852
43375W        W 8635  26.732  20.221  14.749
43376W        W 8636  18.671   3.132   3.665
43377W        W 8637  35.747  33.608  13.632
43378W        W 8638  26.370  15.735  11.325
43379W        W 8639  33.061  26.268  13.891
43380W        W 8640   6.708   6.768  11.283
43381W        W 8641  43.753  26.480  14.329
43382W        W 8642  10.895  27.054   0.402
43383W        W 8643  42.759  39.596  11.928
43384W        W 8644  42.017  31.916  12.412
43385W        W 8645  33.300  21.254  12.370
43386W        W 8646  17.644  43.866  12.539
43387W        W 8647  39.961  24.059  12.139
43388W        W 8648  18.861  33.317  14.215
43389W        W 8649  42.505  16.767   0.721
43390W        W 8650  39.996  37.502   0.395
43391W        W 8651  10.025  40.111  11.167
43392W        W 8652  26.260  39.362  12.448
43393W        W 8653  35.514  12.826   0.265
43394W        W 8654  42.972   5.814  10.244
43395W        W 8655  25.954  34.607  12.384
43396W        W 8656  42.146  18.604   1.756
43397W        W 8657  34.144   2.927   4.700
43398W        W 8658  17.506  12.391  11.003
43399W        W 8659  41.584   1.515  11.481
43400W        W 8660   8.526  23.864  11.178
43401W        W 8661  36.113  41.367  13.707
43402W        W 8662   2.650   8.427   2.481
43403W        W 8663   3.263  33.402   4.277
43404W        W 8664  13.721  12.232   4.269
43405W        W 8665   3.976  31.329   1.991
43406W        W 8666  20.195  26.528  13.244
43407W        W 8667  24.025  17.748   2.818
43408W        W 8668   3.243  12.333   4.494
43409W        W 8669   8.850   7.639  14.433
43410W        W 8670   4.390  26.572  13.416
43411W        W 8671  11.550  44.194  11.578
43412W        W 8672  13.397  41.014   2.206
43413W        W 8673  29.591  33.908   1.682
43414W        W 8674  30.053  19.773  14.731
43415W        W 8675  20.574  40.290   3.253
43416W        W 8676  24.914   7.824  11.903
43417W        W 8677  20.440  34.000   3.278
43418W        W 8678  29.835  44.046   4.797
43419W        W 8679   7.619  42.216  14.466
43420W        W 8680   3.192  18.125  13.060
43421W        W 8681  43.955   8.928   0.302
43422W        W 8682  23.134  28.642   1.950
43423W        W 8683  40.973   2.973   5.031
43424W        W 8684  20.858  20.261   4.674
43425W        W 8685  14.621  24.628   2.275
43426W        W 8686  11.105  39.831   2.284
43427W        W 8687   6.274  22.158   4.410
43428W        W 8688  33.739  29.602  11.888
43429W        W 8689  17.108  13.951  14.561
43430W        W 8690  36.876   2.446   1.819
43431W        W 8691  30.660  44.939  11.443
43432W        W 8692  14.330  23.631  13.843
43433W        W 8693  10.925  20.761   4.875
43434W        W 8694  33.836  15.193  11.521
43435W        W 8695  43.814  16.634  14.541
43436W        W 8696  39.387   6.786   2.715
43437W        W 8697   2.455  18.524  11.211
43438W        W 8698  23.749  15.323   0.817
43439W        W 8699  20.963  42.739  14.023
43440W        W 8700   4.362   1.727   2.265
43441W        W 8701  23.021   9.748   0.661
43442W        W 8702  24.994  44.302  14.440
43443W        W 8703  19.523  28.848   4.335
43444W        W 8704   9.778  34.313   0.892
43445W        W 8705  27.187  16.346   3.739
43446W        W 8706  30.972  39.186  10.397
43447W        W 8707  17.969  32.653  11.884
43448W        W 8708  24.447  28.874   4.056
43449W        W 8709  31.504  23.952  13.776
43450W        W 8710  35.191  31.141  11.137
43451W        W 8711  31.340  24.643   3.326
43452W        W 8712  22.423  15.127   5.065
43453W        W 8713   4.393  35.374   3.768
43454W        W 8714  36.706  17.315   3.134
43455W        W 8715  16.109   2.666  11.120
43456W        W 8716  39.684  39.856  14.928
43457W        W 8717  22.149  44.435   2.063
43458W        W 8718  17.932   6.339   1.284
43459W        W 8719  44.879  19.639  11.509
43460W        W 8720  35.758  44.752  11.487
43461W        W 8721  38.947  44.272  12.390
43462W        W 8722  30.369  39.225   1.771
43463W        W 8723  17.632  36.582   1.418
43464W        W 8724   6.614  16.628   1.194
43465W        W 8725  23.006  32.882  10.537
43466W        W 8726  30.563  11.862  12.112
43467W        W 8727  20.247  31.707  14.845
43468W        W 8728   2.795  16.523  14.487
43469W        W 8729  29.672  21.566   0.922
43470W        W 8730  28.525  25.484   4.579
43471W        W 8731  14.129  14.891  11.231
43472W        W 8732  12.923   3.823  14.469
43473W        W 8733  40.875  43.755  13.516
43474W        W 8734   6.185  32.504   4.470
43475W        W 8735  32.517  26.527   0.985
43476W        W 8736  41.896   0.813   1.487
43477W        W 8737  37.722  41.850   4.155
43478W        W 8738  24.403  14.499  13.811
43479W        W 8739  26.685  39.547   2.837
43480W        W 8740  30.344  34.903  13.953
43481W        W 8741  34.479  11.734  11.495
43482W        W 8742   1.754  44.888   2.256
43483W        W 8743  40.252  19.215  13.404
43484W        W 8744  37.548  34.864   2.777
43485W        W 8745   0.504  26.200  14.314
43486W        W 8746  22.759   8.756  11.049
43487W        W 8747   7.763  34.465  13.346
43488W        W 8748  27.720  22.249   1.816
43489W        W 8749  40.088  34.598   2.851
43490W        W 8750  16.506  17.858  13.907
43491W        W 8751  20.065  18.630  14.845
43492W        W 8752  43.968  32.025   0.930
43493W        W 8753  32.673  24.443   3.594
43494W        W 8754  34.557  29.647   4.265
43495W        W 8755  37.375   1.951   0.368
43496W        W 8756  19.587  37.398  12.090
43497W        W 8757   7.563  17.246   4.561
43498W        W 8758  26.929  20.237   4.088
43499W        W 8759  29.691  43.547  14.496
43500W        W 8760  20.028  30.413  13.454
43501W        W 8761  43.606  26.514   3.276
43502W        W 8762   5.815  23.076   4.655
43503W        W 8763  40.513  17.169  10.759
43504W        W 8764  10.217  21.292   0.903
43505W        W 8765   2.022   0.915  11.661
43506W        W 8766  43.091  16.060  11.239
43507W        W 8767  16.739  20.562   1.776
43508W        W 8768   0.617   0.446   0.069
43509W        W 8769  25.712  21.443  12.425
43510W        W 8770  43.317  26.980   4.078
43511W        W 8771  28.173  44.793   2.277
43512W        W 8772  24.475  37.989  11.681
43513W        W 8773  37.919  11.599   3.348
43514W        W 8774  41.125  25.483  13.035
43515W        W 8775  42.510  14.564  12.513
43516W        W 8776  21.385  11.875  11.564
43517W        W 8777  41.473   4.274  14.015
43518W        W 8778  41.639   2.245  14.311
43519W        W 8779   3.906   2.014   1.405
43520W        W 8780   7.959  33.624   4.123
43521W        W 8781  20.171  37.064  11.097
43522W        W 8782  36.973  20.394  13.873
43523W        W 8783  44.130  41.963  11.624
43524W        W 8784  30.522   1.995   0.809
43525W        W 8785  36.603  16.762  13.216
43526W        W 8786  31.907   9.506   3.761
43527W        W 8787  34.585   8.095  12.607
43528W        W 8788  21.427  26.658  10.795
43529W        W 8789   6.293  36.928   1.409
43530W        W 8790  33.366  20.788  14.882
43531W        W 8791  31.617  29.271   1.109
43532W        W 8792   3.831  20.947  11.196
43533W        W 8793  37.252  17.797   3.641
43534W        W 8794  13.601  24.213   0.931
43535W        W 8795  29.426   4.382  11.700
43536W        W 8796  39.204   2.679  13.551
43537W        W 8797  44.852  37.925   4.289
43538W        W 8798  34.114  18.357  13.890
43539W        W 8799  34.570   9.711  11.050
43540W        W 8800  27.267  35.923  11.507
43541W        W 8801  41.494  13.187   4.611
43542W        W 8802   3.999  43.488   0.690
43543W        W 8803   6.219  23.713  10.298
43544W        W 8804  23.757  18.201   3.085
43545W        W 8805  21.052  30.572   3.055
43546W        W 8806   8.670  41.216   4.852
43547W        W 8807  13.561  38.912   2.635
43548W        W 8808  27.210  25.711   2.684
43549W        W 8809   1.954  32.347  11.545
43550W        W 8810  17.212  21.980  10.994
43551W        W 8811  42.920   7.408  14.408
43552W        W 8812  29.587  33.582   0.779
43553W        W 8813  18.960   4.721   5.120
43554W        W 8814  24.057  36.267  12.573
43555W        W 8815  35.368  13.120   1.186
43556W        W 8816  23.300   6.186   3.536
43557W        W 8817  33.021   5.086   0.389
43558W        W 8818   2.803  42.245  12.060
43559W        W 8819  43.532  37.971  14.875
43560W        W 8820   6.245  12.899   3.281
43561W        W 8821  44.371  21.238   1.469
43562W        W 8822   0.579  41.835  13.832
43563W        W 8823  21.951  22.634  14.365
43564W        W 8824   7.831  10.449  11.160
43565W        W 8825  40.449  42.853   0.550
43566W        W 8826  38.506   3.377  13.777
43567W        W 8827  23.299  20.121  12.420
43568W        W 8828  26.738  37.922  14.899
43569W        W 8829  41.988   2.858   0.979
43570W        W 8830  10.311  19.834   2.665
43571W        W 8831  42.405   7.991   1.103
43572W        W 8832  30.872   9.102   0.480
43573W        W 8833  30.576  40.817   2.256
43574W        W 8834  12.711  32.672  12.142
43575W        W 8835  43.152   7.898  13.463
43576W        W 8836   9.165  38.772   3.302
43577W        W 8837  33.001  28.974  12.440
43578W        W 8838   8.428  43.397  14.333
43579W        W 8839  21.974  13.248  13.920
43580W        W 8840  10.209   7.185   0.403
43581W        W 8841   3.659  24.149  13.893
43582W        W 8842   7.621  27.474  12.139
43583W        W 8843  25.181  37.818  13.608
43584W        W 8844   9.160  41.316  13.930
43585W        W 8845  34.016  36.186  11.532
43586W        W 8846  15.857   4.235  13.443
43587W        W 8847  27.497   7.018  13.325
43588W        W 8848  32.655  27.134   2.594
43589W        W 8849  27.719  19.642  12.662
43590W        W 8850  23.969  34.332  11.090
43591W        W 8851  32.038  37.328   2.159
43592W        W 8852  43.427  35.050  14.815
43593W        W 8853  43.234  34.005   2.936
43594W        W 8854  23.082  24.510   0.784
43595W        W 8855  25.044  40.215  12.630
43596W        W 8856   4.275  28.500   4.188
43597W        W 8857  31.038  28.668  13.461
43598W        W 8858   9.338  42.822   2.866
43599W        W 8859  43.122  22.240   1.631
43600W        W 8860  11.809  32.005   2.737
43601W        W 8861   5.611  42.241  13.027
43602W        W 8862  37.193  17.027   0.172
43603W        W 8863   8.647  22.095   4.590
43604W        W 8864  26.049  32.345   2.407
43605W        W 8865  26.769  12.114  11.368
43606W        W 8866   4.008  13.114  14.921
43607W        W 8867  42.825  24.454   4.286
43608W        W 8868  17.718  12.615   1.299
43609W        W 8869   3.125  31.976   1.130
43610W        W 8870  29.045  33.710   2.377
43611W        W 8871  11.377  35.863   4.938
43612W        W 8872  35.463   7.908  13.612
43613W        W 8873  40.766  39.440   3.411
43614W        W 8874  36.937  31.335   0.451
43615W        W 8875  28.877   4.976   1.386
43616W        W 8876  20.530  13.640  11.981
43617W        W 8877  43.985  21.278  13.523
43618W        W 8878  13.875   7.506   5.295
43619W        W 8879   8.767   1.695  13.551
43620W        W 8880  43.231  26.057  14.455
43621W        W 8881  24.699  13.154  13.413
43622W        W 8882  37.775   6.501   3.125
43623W        W 8883  13.100   3.696   2.751
43624W        W 8884   4.448  18.240   0.992
43625W        W 8885   5.524  36.541   0.473
43626W        W 8886   2.695  13.185  11.517
43627W        W 8887   1.300   6.897   4.277
43628W        W 8888  13.793  22.672  11.869
43629W        W 8889   2.163  38.444  13.063
43630W        W 8890   8.246  42.487  13.788
43631W        W 8891  14.037  26.295  11.492
43632W        W 8892  26.555  24.282  13.866
43633W        W 8893  12.195  43.923  10.941
43634W        W 8894  23.661  30.847   3.350
43635W        W 8895  20.051   5.167   2.376
43636W        W 8896  26.205  35.468   1.298
43637W        W 8897  36.277  10.914  11.654
43638W        W 8898  21.228   0.347   2.216
43639W        W 8899  37.423  28.443   4.404
43640W        W 8900  31.212  38.857   1.369
43641W        W 8901  21.139  32.642   3.301
43642W        W 8902  36.569  17.304  10.991
43643W        W 8903  29.921  39.860  13.032
43644W        W 8904  29.201  43.422   1.619
43645W        W 8905  17.217  26.149   4.736
43646W        W 8906  30.072  38.394  11.806
43647W        W 8907  40.360  10.750  14.342
43648W        W 8908  28.410  18.739  13.324
43649W        W 8909  27.647  27.036  14.996
43650W        W 8910  24.610   4.227  12.315
43651W        W 8911  25.708  31.121  14.408
43652W        W 8912   4.772  35.387   4.870
43653W        W 8913  23.525  20.398   2.167
43654W        W 8914  32.873   9.666  12.539
43655W        W 8915  39.961  20.641   2.737
43656W        W 8916  12.351  25.980   9.954
43657W        W 8917   3.858  31.891  11.160
43658W        W 8918   7.254   8.911   2.108
43659W        W 8919  28.159  27.749   2.632
43660W        W 8920  19.601  10.594   0.255
43661W        W 8921  28.476  16.764  10.569
43662W        W 8922  10.681  29.697  13.438
43663W        W 8923   6.091  38.676   5.161
43664W        W 8924  24.620  35.750   2.439
43665W        W 8925  34.446  36.147  11.188
43666W        W 8926  16.789  21.231   1.334
43667W        W 8927  42.616  29.243   2.754
43668W        W 8928  40.955   6.862   2.265
43669W        W 8929  15.339  33.037  12.066
43670W        W 8930  43.235  21.501  12.500
43671W        W 8931  25.731  31.599   3.485
43672W        W 8932  30.385  13.165   4.551
43673W        W 8933  40.468  18.514  11.626
43674W        W 8934  38.107  32.419  11.382
43675W        W 8935   4.656  21.845  10.690
43676W        W 8936  10.932  42.951  11.532
43677W        W 8937  24.034  33.417   1.853
43678W        W 8938  32.539  42.139   0.337
43679W        W 8939  40.010  14.905   2.887
43680W        W 8940   0.548  31.967   1.835
43681W        W 8941   7.539  16.522   3.837
43682W        W 8942  34.175  31.351  14.307
43683W        W 8943  44.379  43.883  13.720
43684W        W 8944  43.926  10.545  11.245
43685W        W 8945  17.106  29.622   4.960
43686W        W 8946  10.188  21.670   0.494
43687W        W 8947   8.505   6.789   0.921
43688W        W 8948  10.267  42.814   0.010
43689W        W 8949  16.205  17.841  11.148
43690W        W 8950   4.131  34.740  11.468
43691W        W 8951  37.813  29.060   2.372
43692W        W 8952  28.921  33.921   2.841
43693W        W 8953  35.302  18.573   4.528
43694W        W 8954  20.005  43.910  14.442
43695W        W 8955   4.379  34.515  14.699
43696W        W 8956   8.839  21.075   2.362
43697W        W 8957  32.965  34.015   0.072
43698W        W 8958  15.597  29.463   5.088
43699W        W 8959  14.744  40.725   4.366
43700W        W 8960  20.656  26.369  13.953
43701W        W 8961  39.525   1.174  14.513
43702W        W 8962   5.804  14.148  10.602
43703W        W 8963  43.381   6.265   1.255
43704W        W 8964  35.342  32.681   3.778
43705W        W 8965  12.546  13.166  12.868
43706W        W 8966  30.884  14.369   3.378
43707W        W 8967  36.323   4.801   2.264
43708W        W 8968  30.800   3.266   4.537
43709W        W 8969  26.118  21.651   3.307
43710W        W 8970   7.310  18.037  11.184
43711W        W 8971   5.413  21.016  11.594
43712W        W 8972  32.141  32.299  12.142
43713W        W 8973  35.725  16.291  14.681
43714W        W 8974  32.535   2.035   3.691
43715W        W 8975  35.173   5.455   3.404
43716W        W 8976  35.522   8.691   0.376
43717W        W 8977  36.336  38.590  13.145
43718W        W 8978  21.120  23.961   2.729
43719W        W 8979  35.852  44.037  14.417
43720W        W 8980  36.832   8.767   4.387
43721W        W 8981  42.207  10.179   4.338
43722W        W 8982  26.052  38.207  11.272
43723W        W 8983  12.646  33.018   4.678
43724W        W 8984  28.433  25.634  13.384
43725W        W 8985  32.851  34.004  14.519
43726W        W 8986  27.178  38.045  10.703
43727W        W 8987   0.796  38.661  13.596
43728W        W 8988  44.096  25.630  13.431
43729W        W 8989  40.783  18.540  14.756
43730W        W 8990  40.673  31.954  10.739
43731W        W 8991   1.515  35.498  14.747
43732W        W 8992  15.468  19.799  10.495
43733W        W 8993  20.115  15.242   0.447
43734W        W 8994  25.067  25.592  12.387
43735W        W 8995  35.376  25.001   2.642
43736W        W 8996  34.122  36.093   3.218
43737W        W 8997  24.593   0.381  12.898
43738W        W 8998  12.667  15.524   0.843
43739W        W 8999  21.076  13.064  12.916
43740W        W 9000  37.010  19.878   4.304
43741W        W 9001  12.264  39.751   2.733
43742W        W 9002  17.683  43.470  14.310
43743W        W 9003  41.971  22.072  14.487
43744W        W 9004  39.341  23.272   1.327
43745W        W 9005  39.811   4.450   1.679
43746W        W 9006  24.682  42.106   0.169
43747W        W 9007   9.602  13.749  12.881
43748W        W 9008  11.715  44.701  14.785
43749W        W 9009  22.184   8.619  14.774
43750W        W 9010  21.497  19.072   3.581
43751W        W 9011  24.292  20.549  13.213
43752W        W 9012  29.419   1.398   1.299
43753W        W 9013   0.059   0.956  14.055
43754W        W 9014   2.017   0.698   1.706
43755W        W 9015   4.875  11.612  11.242
43756W        W 9016   4.095   0.687  14.259
43757W        W 9017  35.008  34.342  10.655
43758W        W 9018   7.979  26.640  14.325
43759W        W 9019   8.394  25.028  14.321
43760W        W 9020  20.593  16.616  11.304
43761W        W 9021  13.915  21.535   4.526
43762W        W 9022  31.480  17.177   0.546
43763W        W 9023  12.463   2.506   0.329
43764W        W 9024   8.280  35.382   2.046
43765W        W 9025  12.533   2.256  14.043
43766W        W 9026   3.060  31.050   2.190
43767W        W 9027  40.503  42.010  10.799
43768W        W 9028  31.997  36.941  11.224
43769W        W 9029  11.864  41.724  11.972
43770W        W 9030   4.987  15.100  10.231
43771W        W 9031  18.612  34.582   4.874
43772W        W 9032  16.513  13.508   2.995
43773W        W 9033   3.075  12.595   0.432
43774W        W 9034  15.648  12.742  12.246
43775W        W 9035  20.229  28.208   4.754
43776W        W 9036  42.769  35.890  10.388
43777W        W 9037  41.107  28.462  10.733
43778W        W 9038  11.286  26.530  11.644
43779W        W 9039  44.069  28.181   0.734
43780W        W 9040  38.790  42.356   4.633
43781W        W 9041   3.212  19.999  14.096
43782W        W 9042   4.318   7.260   3.120
43783W        W 9043  27.112   1.746   4.570
43784W        W 9044  37.358  43.001  14.722
43785W        W 9045  11.353  38.097  14.947
43786W        W 9046  22.637  34.617  14.898
43787W        W 9047  28.611  34.841  12.108
43788W        W 9048  31.862  35.929  12.538
43789W        W 9049  37.844  11.761  12.894
43790W        W 9050  23.853  13.663  12.338
43791W        W 9051  10.421  37.964  11.106
43792W        W 9052  14.923  41.076  13.830
43793W        W 9053  37.861  43.812  10.988
43794W        W 9054  44.631   6.393   3.908
43795W        W 9055  40.958   2.641  11.588
43796W        W 9056  33.509  22.257   0.777
43797W        W 9057  43.100  11.418   1.921
43798W        W 9058   7.945   4.694  11.140
43799W        W 9059  17.299  39.359  13.436
43800W        W 9060   5.849  16.791   4.498
43801W        W 9061  16.823  12.618  11.188
43802W        W 9062  11.649   6.183   4.736
43803W        W 9063  44.695  14.185  11.721
43804W        W 9064  31.729  31.497   1.955
43805W        W 9065  36.329  42.423   1.767
43806W        W 9066  42.758  31.580   0.393
43807W        W 9067  15.733  24.631   3.042
43808W        W 9068  25.194  13.580  12.228
43809W        W 9069  44.625  27.973  14.577
43810W        W 9070  15.738  35.556   1.597
43811W        W 9071  41.875  29.502   3.922
43812W        W 9072  39.906   3.960   3.073
43813W        W 9073  40.575  34.053  11.654
43814W        W 9074   7.155  41.909  12.438
43815W        W 9075  28.115  39.439   4.557
43816W        W 9076   1.835   6.357   4.749
43817W        W 9077  21.282   4.011   1.341
43818W        W 9078  34.442  32.582   0.894
43819W        W 9079  39.617  27.963  14.022
43820W        W 9080  41.972  31.434  14.735
43821W        W 9081  15.626  17.846   1.081
43822W        W 9082  11.209  33.888   3.578
43823W        W 9083   5.061  12.681   4.647
43824W        W 9084  27.708   7.552  11.943
43825W        W 9085  16.230   4.871  14.016
43826W        W 9086  30.974  35.145   3.984
43827W        W 9087  35.993  44.522  14.544
43828W        W 9088  44.897  38.091  12.015
43829W        W 9089  17.441  33.231   0.485
43830W        W 9090  37.448  29.129  12.950
43831W        W 9091   3.456  13.282  11.509
43832W        W 9092   3.528  28.780   2.750
43833W        W 9093  40.535   0.357   0.721
43834W        W 9094  25.760   5.716  10.632
43835W        W 9095  30.503  35.407  13.999
43836W        W 9096  43.815  42.544  13.417
43837W        W 9097   5.388  34.686  14.495
43838W        W 9098  41.436   7.482  14.866
43839W        W 9099  28.890   5.085  11.043
43840W        W 9100  25.667  16.360  11.894
43841W        W 9101  19.739  12.414   1.838
43842W        W 9102  41.938   0.037   2.372
43843W        W 9103  28.371  22.756  12.087
43844W        W 9104  24.085  34.573   4.818
43845W        W 9105  33.419  41.060   0.284
43846W        W 9106  25.512   8.650  12.675
43847W        W 9107  40.510  18.294   5.012
43848W        W 9108  34.918  32.038   2.718
43849W        W 9109  24.296   4.322   0.795
43850W        W 9110   0.577   9.846  14.130
43851W        W 9111  30.845  35.126   3.485
43852W        W 9112  35.209  38.735  10.343
43853W        W 9113  15.738  29.501   2.394
43854W        W 9114  30.916  35.200  14.918
43855W        W 9115  11.471  15.755  12.704
43856W        W 9116  27.035  11.827  13.002
43857W        W 9117  22.191  14.621   2.700
43858W        W 9118  42.824  36.093   4.495
43859W        W 9119  40.970   6.675   3.806
43860W        W 9120  39.679  33.334   4.019
43861W        W 9121   8.118  14.763   0.419
43862W        W 9122  31.856  17.102  13.544
43863W        W 9123  25.490  29.564   0.928
43864W        W 9124  10.508   1.346  14.074
43865W        W 9125  14.677  23.565   3.758
43866W        W 9126  15.349  27.214  10.723
43867W        W 9127   1.680   2.545   1.921
43868W        W 9128   3.810   7.161  11.964
43869W        W 9129  20.562  33.482   4.136
43870W        W 9130   1.755  36.357  13.876
43871W        W 9131  44.940  27.837   0.560
43872W        W 9132  21.302  32.311  11.069
43873W        W 9133  36.997  38.342  12.461
43874W        W 9134  26.593  36.279  11.829
43875W        W 9135   4.697   6.868  10.984
43876W        W 9136   5.709   6.197   5.045
43877W        W 9137  20.682  13.179  13.245
43878W        W 9138  44.291  14.388   5.337
43879W        W 9139  17.204  38.563   3.759
43880W        W 9140  28.957   5.737   3.745
43881W        W 9141  30.752   5.760  12.747
43882W        W 9142  38.546  22.763  10.924
43883W        W 9143  22.107  19.151   1.785
43884W        W 9144  17.242   3.424  10.765
43885W        W 9145   1.969  43.226  13.477
43886W        W 9146  42.066  36.554   4.799
43887W        W 9147  12.365  17.110  12.432
43888W        W 9148  11.296  36.422  12.591
43889W        W 9149  11.695   8.114  11.936
43890W        W 9150  40.040  44.320   0.738
43891W        W 9151   4.160  24.039   1.887
43892W        W 9152  29.526  35.453   1.972
43893W        W 9153  41.818  18.917   2.023
43894W        W 9154  42.685  35.193   0.362
43895W        W 9155  30.924  31.458  12.828
43896W        W 9156  44.025   8.274   3.459
43897W        W 9157   1.769  19.330  11.251
43898W        W 9158  17.253  22.431  13.361
43899W        W 9159   8.652  16.843  10.422
43900W        W 9160   7.497  31.764   0.775
43901W        W 9161  33.463  38.464   2.640
43902W        W 9162  30.545  36.939  14.724
43903W        W 9163  43.431  12.788   2.390
43904W        W 9164  40.540  26.419  13.706
43905W        W 9165  13.333  30.982  10.720
43906W        W 9166  26.163  21.419  12.173
43907W        W 9167  37.863   7.123  13.003
43908W        W 9168  13.196  39.691   3.197
43909W        W 9169  15.144  42.421   0.779
43910W        W 9170  25.474  12.325   3.658
43911W        W 9171  31.731  16.084  11.903
43912W        W 9172  44.022  31.539  11.595
43913W        W 9173  41.891  43.618   2.619
43914W        W 9174  29.157  38.910  14.016
43915W        W 9175  34.862  24.095  10.886
43916W        W 9176  44.912  30.640  12.728
43917W        W 9177   7.304  27.938  13.022
43918W        W 9178   6.706   4.422   3.778
43919W        W 9179   2.466  10.187  12.879
43920W        W 9180  14.735  23.364   1.347
43921W        W 9181  30.557   3.996  14.123
43922W        W 9182  33.892   5.502   2.655
43923W        W 9183  16.885  33.991  14.881
43924W        W 9184  25.932   8.522  14.237
43925W        W 9185  19.347  27.830   4.352
43926W        W 9186  29.370   5.742   2.197
43927W        W 9187   5.894  33.017   4.604
43928W        W 9188  25.448  11.873   3.881
43929W        W 9189  40.813  27.533   4.881
43930W        W 9190  28.400  25.122  12.127
43931W        W 9191  28.127  11.171   2.469
43932W        W 9192  38.647   1.267  13.483
43933W        W 9193  38.123  35.892   3.238
43934W        W 9194  20.796  26.658  11.573
43935W        W 9195  36.878   6.341   4.148
43936W        W 9196  30.134  13.757  13.022
43937W        W 9197  37.375  34.977   4.713
43938W        W 9198  24.135   8.526  10.589
43939W        W 9199  16.270  24.683   2.940
43940W        W 9200   7.001  37.391  14.811
43941W        W 9201  44.344   3.041  10.350
43942W        W 9202  25.516   7.180  11.873
43943W        W 9203   6.146  24.432  14.422
43944W        W 9204  13.692  32.007  13.858
43945W        W 9205  37.875  17.774  10.817
43946W        W 9206   3.267   2.260   2.651
43947W        W 9207  29.133  31.923  11.393
43948W        W 9208  33.869   9.592  14.995
43949W        W 9209  31.030  20.992   2.864
43950W        W 9210  42.856  32.588   0.152
43951W        W 9211  16.754  16.719  14.777
43952W        W 9212   6.996   6.388  11.048
43953W        W 9213  35.107  29.473  12.486
43954W        W 9214   4.965  43.323  11.996
43955W        W 9215  12.788  16.148  14.255
43956W        W 9216  32.071  35.910   0.866
43957W        W 9217  40.522   2.150  12.531
43958W        W 9218  39.030  18.007  11.068
43959W        W 9219  39.364  42.969  14.023
43960W        W 9220  43.118  14.684   2.182
43961W        W 9221   8.107  38.553  12.427
43962W        W 9222  42.054  13.265   1.855
43963W        W 9223  29.539  39.253   4.341
43964W        W 9224  40.978   2.367  14.929
43965W        W 9225  16.186  29.117   1.119
43966W        W 9226  16.887  20.236   3.189
43967W        W 9227  42.854   2.806  10.677
43968W        W 9228  40.879  25.005  11.154
43969W        W 9229  17.237   1.262   4.150
43970W        W 9230  28.100   2.375   1.399
43971W        W 9231  37.872   8.345  14.351
43972W        W 9232  10.546  27.713  12.622
43973W        W 9233  31.504  31.011  11.351
43974W        W 9234  19.161  20.465  12.983
43975W        W 9235   7.593  35.277   2.437
43976W        W 9236  29.893   1.350  14.410
43977W        W 9237  34.019  41.341  12.612
43978W        W 9238  36.380   9.470   4.806
43979W        W 9239  10.827  29.473  12.960
43980W        W 9240  16.666  11.382  10.657
43981W        W 9241  18.615   7.662  12.331
43982W        W 9242  27.194  17.867   2.194
43983W        W 9243  11.439   3.848   3.532
43984W        W 9244  33.508  36.756  14.876
43985W        W 9245  29.340  31.283   0.825
43986W        W 9246  23.806  29.024  12.962
43987W        W 9247  31.811  43.457  13.514
43988W        W 9248   4.332  14.603  13.893
43989W        W 9249  31.145  42.982  10.699
43990W        W 9250  35.025  22.269   1.356
43991W        W 9251  26.336   5.734   1.395
43992W        W 9252  18.677  34.635   3.827
43993W        W 9253  43.677  11.787  14.393
43994W        W 9254  26.727  24.580  13.350
43995W        W 9255   9.488  13.941   2.365
43996W        W 9256  41.716  34.819  11.687
43997W        W 9257   1.407  39.695  11.540
43998W        W 9258  14.151  21.707   1.181
43999W        W 9259  15.542  17.036   3.643
44000W        W 9260  41.590  13.810  13.602
44001W        W 9261  17.491  22.183   3.826
44002W        W 9262  23.610  13.522   0.047
44003W        W 9263   7.289  37.578   1.470
44004W        W 9264  30.983  36.105  10.740
44005W        W 9265  20.465  22.223   2.757
44006W        W 9266  27.178   4.188   2.489
44007W        W 9267  14.726  32.229  14.508
44008W        W 9268   1.676  43.819   0.969
44009W        W 9269  13.828  23.714  12.955
44010W        W 9270  24.009   8.573  14.298
44011W        W 9271   5.896  24.277   3.295
44012W        W 9272  30.082   0.223   3.792
44013W        W 9273  17.796  11.564   4.389
44014W        W 9274   0.114  32.015  11.196
44015W        W 9275  11.282  40.803   1.221
44016W        W 9276  35.358  11.373   3.937
44017W        W 9277  25.702  42.964   0.269
44018W        W 9278  29.949  31.899   1.762
44019W        W 9279   0.933  17.867  12.109
44020W        W 9280   1.460  33.104  10.954
44021W        W 9281  20.522  32.697   0.258
44022W        W 9282  16.684  40.039   0.842
44023W        W 9283  41.983  43.077   0.339
44024W        W 9284   8.929  43.509  10.538
44025W        W 9285  20.628  33.595  10.438
44026W        W 9286  16.599  16.214   2.729
44027W        W 9287  22.540  15.364  12.495
44028W        W 9288  26.803   3.625  11.869
44029W        W 9289   6.544  20.692   4.763
44030W        W 9290  17.760  44.288   2.099
44031W        W 9291  34.064  27.547  12.583
44032W        W 9292  43.497  22.083  14.411
44033W        W 9293  31.620  36.131   1.013
44034W        W 9294  20.337  40.067  12.957
44035W        W 9295  13.372  30.699  11.591
44036W        W 9296  42.572  30.631  13.363
44037W        W 9297  18.102  21.464  12.975
44038W        W 9298  14.666  20.974  13.734
44039W        W 9299   5.864  22.153   4.728
44040W        W 9300   5.567   9.716   3.159
44041W        W 9301  25.515   9.250   4.303
44042W        W 9302  30.176  43.767   1.304
44043W        W 9303  38.520  11.296   3.747
44044W        W 9304  34.128  20.449   0.745
44045W        W 9305  17.345   8.905   2.697
44046W        W 9306   5.258  11.224  10.127
44047W        W 9307   3.870  15.770   1.234
44048W        W 9308  18.366  29.417  14.699
44049W        W 9309   4.604   7.142  12.888
44050W        W 9310  20.753  43.761  11.176
44051W        W 9311  25.912  23.568  10.734
44052W        W 9312  32.562  40.085   0.027
44053W        W 9313   2.882  18.599   2.702
44054W        W 9314  20.721  41.029   2.646
44055W        W 9315  27.474  34.360   2.132
44056W        W 9316  27.671   1.450  12.604
44057W        W 9317   4.977  10.188  14.970
44058W        W 9318   2.006  28.286  11.005
44059W        W 9319  14.882  15.089  11.945
44060W        W 9320  28.637  40.431   3.233
44061W        W 9321  24.540   2.304  13.523
44062W        W 9322  13.078  31.678   4.799
44063W        W 9323  43.341  29.990  12.053
44064W        W 9324  38.721  32.030  14.247
44065W        W 9325  21.632  44.322   3.692
44066W        W 9326  26.158  27.852   0.794
44067W        W 9327  15.536   0.379  11.531
44068W        W 9328  17.824  18.680  10.278
44069W        W 9329  18.301  17.935   2.738
44070W        W 9330  18.639   7.888   2.287
44071W        W 9331  12.186  27.715   4.858
44072W        W 9332  18.773  37.786  13.951
44073W        W 9333  25.960  28.372   2.217
44074W        W 9334   6.966  14.119  12.510
44075W        W 9335  37.566  34.528  14.366
44076W        W 9336   9.917  42.667   1.224
44077W        W 9337  17.090  25.954   2.435
44078W        W 9338  30.180   9.486   2.684
44079W        W 9339  28.409  27.137  14.551
44080W        W 9340   1.849  23.953  10.529
44081W        W 9341  44.367   3.969  14.581
44082W        W 9342  19.318  19.319   1.893
44083W        W 9343  10.271   3.227  13.363
44084W        W 9344   1.214   2.396   4.744
44085W        W 9345   0.482   8.564  11.487
44086W        W 9346   2.001   2.206   0.259
44087W        W 9347  28.906  14.279  10.993
44088W        W 9348  29.675  17.645   0.590
44089W        W 9349   1.241  40.307  14.353
44090W        W 9350  42.020  25.505   1.695
44091W        W 9351  20.424  37.384   2.243
44092W        W 9352  35.388  10.144   3.074
44093W        W 9353  19.804  18.653   2.321
44094W        W 9354  26.472   8.352   3.769
44095W        W 9355  18.132  17.094  12.571
44096W        W 9356  16.091  43.615  11.546
44097W        W 9357  21.138  27.052  14.086
44098W        W 9358   0.799  15.879   0.346
44099W        W 9359   4.952  37.318   3.254
44100W        W 9360  24.522   2.815   4.184
44101W        W 9361  42.336   9.307   1.659
44102W        W 9362  18.724  36.907  11.532
44103W        W 9363  37.680  14.328   0.304
44104W        W 9364  38.481   5.939   0.965
44105W        W 9365  15.646  17.901  14.026
44106W        W 9366  14.568   6.649   1.333
44107W        W 9367   4.275   6.291   4.492
44108W        W 9368   0.460   8.865   4.914
44109W        W 9369  17.613  29.611   3.666
44110W        W 9370  38.075  37.600   1.198
44111W        W 9371  13.324  20.737  14.489
44112W        W 9372  28.738  22.605   2.738
44113W        W 9373  22.003   6.503  10.563
44114W        W 9374  10.201  37.068  14.938
44115W        W 9375  20.512   2.586  12.429
44116W        W 9376   3.885  20.300  11.893
44117W        W 9377  41.900  11.835  12.740
44118W        W 9378   8.854  12.125   1.357
44119W        W 9379  10.896  33.476   0.390
44120W        W 9380  44.833   8.251  10.876
44121W        W 9381  24.973  29.353   2.711
44122W        W 9382  15.839  30.118   3.954
44123W        W 9383  37.042  25.049  13.033
44124W        W 9384   9.121   4.836  13.276
44125W        W 9385   7.606  29.139  12.551
44126W        W 9386  14.882  29.653   2.416
44127W        W 9387  31.405   2.328  13.074
44128W        W 9388  29.470  27.301   1.413
44129W        W 9389  29.962  10.288  12.602
44130W        W 9390  22.151  43.350  12.554
44131W        W 9391   4.211  22.215   0.713
44132W        W 9392  25.513  37.407  13.496
44133W        W 9393  44.534  33.953   3.269
44134W        W 9394   8.069  42.413  12.461
44135W        W 9395  33.979   2.761  12.077
44136W        W 9396   9.486   4.829   1.739
44137W        W 9397  43.601  27.934  11.256
44138W        W 9398  40.703  28.643  13.402
44139W        W 9399  18.649   6.259  12.430
44140W        W 9400   3.230  30.122   0.818
44141W        W 9401  10.582  13.371   0.827
44142W        W 9402   6.001  17.534   0.241
44143W        W 9403  42.991  42.793  10.447
44144W        W 9404  19.780  26.486   0.276
44145W        W 9405   1.002  29.507  13.948
44146W        W 9406  14.850  23.694  11.074
44147W        W 9407  15.727  37.264   4.297
44148W        W 9408  35.466   8.922   2.687
44149W        W 9409  41.953  36.677   1.905
44150W        W 9410  34.031  23.076  14.518
44151W        W 9411  41.842   2.990  10.721
44152W        W 9412   5.113   3.762  12.977
44153W        W 9413  12.224  34.980   4.670
44154W        W 9414  43.431  22.665  10.092
44155W        W 9415  24.490   8.271   4.535
44156W        W 9416  13.343  29.478  12.440
44157W        W 9417   8.295  16.862   3.306
44158W        W 9418  37.547  44.973  11.281
44159W        W 9419   5.318  25.735   0.520
44160W        W 9420  19.302  14.682   2.395
44161W        W 9421  36.374   8.796  14.949
44162W        W 9422   4.463   9.760  12.671
44163W        W 9423  29.768  23.234   1.401
44164W        W 9424  41.550  32.300  12.976
44165W        W 9425  33.582   8.808   0.575
44166W        W 9426  37.836   5.144  12.451
44167W        W 9427  10.164   9.116   5.452
44168W        W 9428  25.138   2.681   2.034
44169W        W 9429   5.882  17.420  13.506
44170W        W 9430  21.781  21.168   0.413
44171W        W 9431  39.351  31.686  10.892
44172W        W 9432  36.968  43.197   0.314
44173W        W 9433  34.317  13.979   2.941
44174W        W 9434   6.863  44.442   3.698
44175W        W 9435  28.732  38.479   4.693
44176W        W 9436   9.396  41.461   0.719
44177W        W 9437  23.072   0.346   1.271
44178W        W 9438  33.785  21.601   3.346
44179W        W 9439  32.216  41.567  13.928
44180W        W 9440  11.518  17.756   2.768
44181W        W 9441  25.780  14.952  13.456
44182W        W 9442   7.595  16.217   4.828
44183W        W 9443  40.970   8.741   2.790
44184W        W 9444  10.697   4.334  14.228
44185W        W 9445   1.270  43.100   1.387
44186W        W 9446  16.103  21.214   4.222
44187W        W 9447   5.886  21.469  12.864
44188W        W 9448  20.534   7.874  14.766
44189W        W 9449  30.784  23.639  10.715
44190W        W 9450  37.264  17.030  12.020
44191W        W 9451  31.113   2.399  11.472
44192W        W 9452  40.255  40.890   1.473
44193W        W 9453  19.731   4.313  14.061
44194W        W 9454  21.089  37.061   1.213
44195W        W 9455  32.597   3.171  14.454
44196W        W 9456   0.448  28.507   2.937
44197W        W 9457  12.575  10.821  13.941
44198W        W 9458  23.524  17.203   0.406
44199W        W 9459  25.733   8.134  13.933
44200W        W 9460  40.915   9.689   4.140
44201W        W 9461  13.550  10.746  14.343
44202W        W 9462   1.609  28.677  13.398
44203W        W 9463  10.527  20.398  11.180
44204W        W 9464   2.788  25.407   2.438
44205W        W 9465  26.050   6.412  11.725
44206W        W 9466  20.268  38.765  11.485
44207W        W 9467  18.047  34.414   3.098
44208W        W 9468  28.562  41.556  11.862
44209W        W 9469  44.477  21.092  13.503
44210W        W 9470  44.301  11.475   1.228
44211W        W 9471  43.002  18.009   1.757
44212W        W 9472  12.610  12.164  10.371
44213W        W 9473  33.787  43.399  12.633
44214W        W 9474   9.304  37.270  11.215
44215W        W 9475   4.951   9.937   2.362
44216W        W 9476  20.142   2.238  12.456
44217W        W 9477  12.872  21.068   2.589
44218W        W 9478  14.452  24.834   1.827
44219W        W 9479  15.133  14.916  13.491
44220W        W 9480  13.187  21.763   4.053
44221W        W 9481   5.925   7.245   2.108
44222W        W 9482  34.447  26.059  13.903
44223W        W 9483  29.573  24.806  13.382
44224W        W 9484  18.086  25.223   3.323
44225W        W 9485   4.188  30.562   1.721
44226W        W 9486  25.998  16.301  13.316
44227W        W 9487  40.306  14.366  11.061
44228W        W 9488  28.231  24.277   3.214
44229W        W 9489  37.089  18.245  12.050
44230W        W 9490   6.610  43.252  12.022
44231W        W 9491   3.731  13.345  14.560
44232W        W 9492  30.618  33.825  14.241
44233W        W 9493  15.814  33.599   3.748
44234W        W 9494  13.131  22.648   3.171
44235W        W 9495  44.784  28.970   2.693
44236W        W 9496  26.609   9.663   3.237
44237W        W 9497  41.764  14.258   2.232
44238W        W 9498   6.203  38.475   4.090
44239W        W 9499  44.497  18.149  13.884
44240W        W 9500  11.374  14.379  13.127
44241W        W 9501  30.353   8.654   9.858
44242W        W 9502  28.498  32.960  11.962
44243W        W 9503  33.018  10.801  12.688
44244W        W 9504  14.530  22.158   3.948
44245W        W 9505   8.813  28.726  14.000
44246W        W 9506  40.550   2.637   5.097
44247W        W 9507   9.319  11.154  12.240
44248W        W 9508   3.200  34.417   0.759
44249W        W 9509   1.317  38.375   2.219
44250W        W 9510  29.529  38.193  13.510
44251W        W 9511  16.807  27.025   3.033
44252W        W 9512  42.175  29.876  13.535
44253W        W 9513  41.778  19.756   2.135
44254W        W 9514  17.642  24.884   4.180
44255W        W 9515   7.208  28.846   3.171
44256W        W 9516  21.210  34.421   2.327
44257W        W 9517   5.410  16.713  13.884
44258W        W 9518   6.198   5.904   3.216
44259W        W 9519  44.878  19.330  11.948
44260W        W 9520  35.426  43.818  14.621
44261W        W 9521  15.730  23.456  14.785
44262W        W 9522  29.657   0.295  14.833
44263W        W 9523  10.264   1.856  14.768
44264W        W 9524   4.061  11.104   1.834
44265W        W 9525  25.737  37.292   2.023
44266W        W 9526  22.225  12.051   2.312
44267W        W 9527  19.065   3.989  10.965
44268W        W 9528   5.272   7.268   4.088
44269W        W 9529  44.259  34.369  14.016
44270W        W 9530   0.123  40.995   4.858
44271W        W 9531   4.202  20.418  13.948
44272W        W 9532  41.294  34.998   1.331
44273W        W 9533   1.483  41.440   1.933
44274W        W 9534   3.486   8.063  13.746
44275W        W 9535  40.173  37.057   0.687
44276W        W 9536  33.943   2.884  10.617
44277W        W 9537  38.209  41.307   2.419
44278W        W 9538  19.845  36.363   3.902
44279W        W 9539  37.319  42.523  13.915
44280W        W 9540   9.544  15.327   2.361
44281W        W 9541  30.933   9.295  11.862
44282W        W 9542   3.749  14.309   4.617
44283W        W 9543  20.367  16.121  12.365
44284W        W 9544  20.984   6.841  11.278
44285W        W 9545  38.835  34.075  13.864
44286W        W 9546  31.091   4.869  10.609
44287W        W 9547  35.102  28.403   2.664
44288W        W 9548  22.091   3.024   2.248
44289W        W 9549  34.493  15.017   0.199
44290W        W 9550  21.961  15.488   0.706
44291W        W 9551  32.616  24.271  12.080
44292W        W 9552  23.669  32.543   2.463
44293W        W 9553   5.948  26.496  13.503
44294W        W 9554   9.365   4.227  12.582
44295W        W 9555  44.491   7.287  14.016
44296W        W 9556  21.249   9.715  11.909
44297W        W 9557  39.163  44.919  12.875
44298W        W 9558  36.320  33.614  14.409
44299W        W 9559  28.492  39.408  10.407
44300W        W 9560  32.149  33.950  10.562
44301W        W 9561   7.264   8.404   0.715
44302W        W 9562  31.609  11.771   4.128
44303W        W 9563  14.310   6.897  11.799
44304W        W 9564  28.554  23.700   1.882
44305W        W 9565  20.281  27.972   2.891
44306W        W 9566  20.363   7.432  11.568
44307W        W 9567  25.272  37.044  11.126
44308W        W 9568  11.332  34.012   0.819
44309W        W 9569  42.969  37.654  11.133
44310W        W 9570  27.157   6.542  11.167
44311W        W 9571  10.259  41.596  11.138
44312W        W 9572   9.385  17.230  11.130
44313W        W 9573   9.086  15.694   3.192
44314W        W 9574  24.782  31.582   4.270
44315W        W 9575  17.951  19.634   3.195
44316W        W 9576  17.759  40.983   1.355
44317W        W 9577  20.347   6.944  13.386
44318W        W 9578  14.595  28.779  14.090
44319W        W 9579  40.936  32.709   0.402
44320W        W 9580  14.596  30.920   4.470
44321W        W 9581   4.191  22.446  11.088
44322W        W 9582  35.875  30.879   1.894
44323W        W 9583  18.057   5.125   2.303
44324W        W 9584  35.030   8.866  12.923
44325W        W 9585  30.543  13.137  11.644
44326W        W 9586   5.694  28.032  13.498
44327W        W 9587  35.071   8.675   4.471
44328W        W 9588  40.307  19.463  12.958
44329W        W 9589  36.908  39.611   2.231
44330W        W 9590  30.559   1.469   0.753
44331W        W 9591  38.853  34.845   4.614
44332W        W 9592  27.921  25.036   2.618
44333W        W 9593   9.820  11.597  11.993
44334W        W 9594  29.658  15.580  14.957
44335W        W 9595   3.556  21.317   2.804
44336W        W 9596  40.086  23.614  14.871
44337W        W 9597  34.501  11.353   0.433
44338W        W 9598  19.215   8.991  12.626
44339W        W 9599  22.220  34.853  10.232
44340W        W 9600  44.722  41.871  12.562
44341W        W 9601  38.261  31.552   4.190
44342W        W 9602   1.687  16.142   4.647
44343W        W 9603   5.211   7.451   0.894
44344W        W 9604  39.578  29.535   4.897
44345W        W 9605   3.371  25.651  13.007
44346W        W 9606  22.539  35.382   2.102
44347W        W 9607  33.697   6.756  12.995
44348W        W 9608  30.499   8.140  12.194
44349W        W 9609  34.035  37.946  14.457
44350W        W 9610  25.920  38.332   0.849
44351W        W 9611  25.465  41.018  12.472
44352W        W 9612  36.635   5.867   0.252
44353W        W 9613  13.753  44.407  12.569
44354W        W 9614   0.266  21.468   4.077
44355W        W 9615  44.427  39.797  12.456
44356W        W 9616  44.893   5.698  14.472
44357W        W 9617  19.059  33.459  14.670
44358W        W 9618  42.951   2.822   1.546
44359W        W 9619   0.401  33.595   0.974
44360W        W 9620   7.087  18.508   3.845
44361W        W 9621  40.010  38.544  11.554
44362W        W 9622   6.877  25.104   3.200
44363W        W 9623   9.863   1.859   3.797
44364W        W 9624  35.433   3.452   2.378
44365W        W 9625  19.217  42.006  10.725
44366W        W 9626   7.817  13.891  14.711
44367W        W 9627   9.888  12.743  13.817
44368W        W 9628   7.806   0.241  13.858
44369W        W 9629  21.955  17.773   0.435
44370W        W 9630  42.350  22.991   4.550
44371W        W 9631  10.338  20.511  13.869
44372W        W 9632  12.278  41.960   0.987
44373W        W 9633   3.964  28.620   2.941
44374W        W 9634  22.356  20.099  14.898
44375W        W 9635  11.886  44.512  11.307
44376W        W 9636  16.318  24.149   1.020
44377W        W 9637  17.113  43.237   4.715
44378W        W 9638  27.879   6.471   2.817
44379W        W 9639  27.655  17.978  11.003
44380W        W 9640   9.723  21.876   3.945
44381W        W 9641   4.650  24.124   0.735
44382W        W 9642  43.781  30.599  12.205
44383W        W 9643  22.754  16.961   2.170
44384W        W 9644  15.542  36.684   3.486
44385W        W 9645  25.722  27.786   3.461
44386W        W 9646   2.884  38.256   1.249
44387W        W 9647   8.145  24.492   1.307
44388W        W 9648  38.517  30.373  10.568
44389W        W 9649   4.314  43.616  12.247
44390W        W 9650  26.564  21.376  11.371
44391W        W 9651  21.552  42.915   1.520
44392W        W 9652  29.147   6.061   1.362
44393W        W 9653  21.470  21.019  10.396
44394W        W 9654  28.670   2.188  13.538
44395W        W 9655  41.557  37.624  11.008
44396W        W 9656  39.932  24.461   2.704
44397W        W 9657  28.412  38.825  11.508
44398W        W 9658  14.056  25.044   1.562
44399W        W 9659  13.224   4.460   2.350
44400W        W 9660  30.685  36.788  12.000
44401W        W 9661   9.653  22.851  10.807
44402W        W 9662   8.793   6.758  14.964
44403W        W 9663   1.372  28.928   4.592
44404W        W 9664   4.548  23.130  11.480
44405W        W 9665   9.646  13.619  11.528
44406W        W 9666  17.529  33.810   4.209
44407W        W 9667  20.931  18.308   5.385
44408W        W 9668  29.930   5.205  14.420
44409W        W 9669  19.525  37.423  14.306
44410W        W 9670  20.216  14.874   3.304
44411W        W 9671  22.903   7.651  10.669
44412W        W 9672  29.217  16.960  12.828
44413W        W 9673   8.622  23.503  12.617
44414W        W 9674  36.520   5.286   3.375
44415W        W 9675  14.653  42.276   1.365
44416W        W 9676  14.651   0.994   2.906
44417W        W 9677  11.224  23.305   3.258
44418W        W 9678  22.095  18.488   1.091
44419W        W 9679   0.487  24.960  14.334
44420W        W 9680  13.280  12.388   4.568
44421W        W 9681   9.134  39.602  13.371
44422W        W 9682  34.648   4.319   3.644
44423W        W 9683  37.557  20.050  11.502
44424W        W 9684  26.104  21.392  14.044
44425W        W 9685   5.821  27.499  14.725
44426W        W 9686  30.418  38.875  14.370
44427W        W 9687   2.427   0.932  14.473
44428W        W 9688  32.439  37.915   0.392
44429W        W 9689   6.328  10.138   3.525
44430W        W 9690   5.440  41.194  14.511
44431W        W 9691  16.804  14.955   2.245
44432W        W 9692  28.588   3.226   4.965
44433W        W 9693  20.438   4.878  13.995
44434W        W 9694   2.972  32.902   3.382
44435W        W 9695  35.647  34.781   3.920
44436W        W 9696  26.413  12.598  13.582
44437W        W 9697  44.699  19.175  14.764
44438W        W 9698   4.637   5.638   3.599
44439W        W 9699   0.395  10.898  13.501
44440W        W 9700  29.242  39.915   2.628
44441W        W 9701  16.044  40.633  13.632
44442W        W 9702   8.832  37.850  12.232
44443W        W 9703  18.716  39.845  13.403
44444W        W 9704  40.427   3.007   0.270
44445W        W 9705  32.865  30.513  13.092
44446W        W 9706   2.564  14.625  11.578
44447W        W 9707  36.213  12.122  13.521
44448W        W 9708  27.100   1.250   2.264
44449W        W 9709  41.492   0.524   1.166
44450W        W 9710  37.865   9.485  14.553
44451W        W 9711  19.618  34.900   4.152
44452W        W 9712   5.172   2.518   3.578
44453W        W 9713  31.464  43.976   2.953
44454W        W 9714  14.279   7.638   2.253
44455W        W 9715  22.030   5.600   0.129
44456W        W 9716  36.397  35.854   2.344
44457W        W 9717  11.092  32.634   4.555
44458W        W 9718   9.601  14.170  12.568
44459W        W 9719  10.129  39.209   1.900
44460W        W 9720  40.127  28.638   0.505
44461W        W 9721  29.149   7.904   0.206
44462W        W 9722  30.789  44.324   0.315
44463W        W 9723   9.063   1.160   3.668
44464W        W 9724  44.963  23.203   0.293
44465W        W 9725  30.553  25.525  13.865
44466W        W 9726   4.489  18.570   4.325
44467W        W 9727  38.378   8.625  11.241
44468W        W 9728   5.921   0.827  13.885
44469W        W 9729  38.032  24.614  12.273
44470W        W 9730  22.760  36.487  12.989
44471W        W 9731  31.081  16.921   0.325
44472W        W 9732   2.282  36.129  11.401
44473W        W 9733  31.160  22.602  12.459
44474W        W 9734  20.907  13.064   5.158
44475W        W 9735  10.393   4.481   0.973
44476W        W 9736  11.710  33.823  11.378
44477W        W 9737  19.933  33.800   4.002
44478W        W 9738  33.965   6.224   4.385
44479W        W 9739  30.712  43.300  14.529
44480W        W 9740  43.633   6.096  10.157
44481W        W 9741  22.528  44.018  12.562
44482W        W 9742  43.927  12.777   3.616
44483W        W 9743  39.643  12.541   4.102
44484W        W 9744  32.163  39.582  11.435
44485W        W 9745   7.707   5.145   1.493
44486W        W 9746  43.083  44.432   2.725
44487W        W 9747  10.686  16.837  14.275
44488W        W 9748   2.444  20.666  11.526
44489W        W 9749  30.565  14.851  13.542
44490W        W 9750  15.844  24.957  12.461
44491W        W 9751  26.623  36.569   0.951
44492W        W 9752  14.129  34.291  11.131
44493W        W 9753  28.021  24.534   2.742
44494W        W 9754  40.470   3.458  12.415
44495W        W 9755   3.845  13.058  12.474
44496W        W 9756  25.254  42.931   1.041
44497W        W 9757  43.853  16.307  14.087
44498W        W 9758  36.137  24.986  14.315
44499W        W 9759  28.498  19.296   0.033
44500W        W 9760  39.504  19.823   0.772
44501W        W 9761  29.233  39.066   0.295
44502W        W 9762  37.747  10.771  12.447
44503W        W 9763  28.848  30.213   1.862
44504W        W 9764   6.400  30.114   3.571
44505W        W 9765  20.006  43.767   0.442
44506W        W 9766  37.255   2.015  10.648
44507W        W 9767  18.261  39.865  11.152
44508W        W 9768  24.937   1.428   0.445
44509W        W 9769   4.712   3.244  11.447
44510W        W 9770   8.300  37.899  12.447
44511W        W 9771   9.624   3.979   4.751
44512W        W 9772  31.120   0.180  13.091
44513W        W 9773  26.514  16.652   0.432
44514W        W 9774   7.149   5.697  12.554
44515W        W 9775  27.634  22.605  11.088
44516W        W 9776   9.619  24.212   0.979
44517W        W 9777  18.521   1.506  13.606
44518W        W 9778   9.756  41.323  10.346
44519W        W 9779  13.508  10.273  13.548
44520W        W 9780  32.637   8.435  11.212
44521W        W 9781   4.671  30.565  14.045
44522W        W 9782  33.144  37.278   1.196
44523W        W 9783  39.308   0.979  10.664
44524W        W 9784  19.697   5.841  14.426
44525W        W 9785   2.900   6.769  12.998
44526W        W 9786  41.535  17.302   2.902
44527W        W 9787  16.338  39.103   3.751
44528W        W 9788  35.924   6.631  11.740
44529W        W 9789  31.785  28.287   1.450
44530W        W 9790  44.818  12.579   0.699
44531W        W 9791   2.216   6.399   5.100
44532W        W 9792  11.354  38.257  13.575
44533W        W 9793  44.381  39.801   0.008
44534W        W 9794  39.676  10.032   0.690
44535W        W 9795  18.640  16.578  14.289
44536W        W 9796   6.219  19.179  11.116
44537W        W 9797  30.578  41.072   1.792
44538W        W 9798  11.227   4.337   0.919
44539W        W 9799  13.518  44.100  10.611
44540W        W 9800  28.247  19.622   2.038
44541W        W 9801  21.667  41.256  11.657
44542W        W 9802  40.512  18.103  12.938
44543W        W 9803  27.240  28.640  13.414
44544W        W 9804  39.368  26.609  13.865
44545W        W 9805   0.384  14.780  11.497
44546W        W 9806  28.237   1.845  12.566
44547W        W 9807  44.987   5.839   0.794
44548W        W 9808  31.119  19.436   4.120
44549W        W 9809  27.953   8.853  12.634
44550W        W 9810   1.469   1.851  13.339
44551W        W 9811  37.426  37.158  11.364
44552W        W 9812  21.617  31.930   2.664
44553W        W 9813  39.067  34.590   3.721
44554W        W 9814  16.074  15.546   4.332
44555W        W 9815  24.136  13.778   3.227
44556W        W 9816  40.758   9.620  14.760
44557W        W 9817  29.930  28.355  12.503
44558W        W 9818   7.234  11.133  10.648
44559W        W 9819  14.671  25.633   4.298
44560W        W 9820  29.198   5.145   0.988
44561W        W 9821  38.943  43.675   4.095
44562W        W 9822  42.542  34.444   2.695
44563W        W 9823  33.650  44.486   0.249
44564W        W 9824  14.279  29.392  10.538
44565W        W 9825  18.180  28.894   4.245
44566W        W 9826  21.487   8.866  14.427
44567W        W 9827  19.204  13.916  13.446
44568W        W 9828   8.186  18.306  12.110
44569W        W 9829  21.677  21.778   1.994
44570W        W 9830  30.716   1.938   2.650
44571W        W 9831   8.392  42.335  10.684
44572W        W 9832  32.637   9.827  12.984
44573W        W 9833   3.615  23.674   3.280
44574W        W 9834  43.835  39.933  11.596
44575W        W 9835   9.189   1.453   1.229
44576W        W 9836  25.272  14.659   2.296
44577W        W 9837  18.326  16.545  11.812
44578W        W 9838  22.735  22.643  12.975
44579W        W 9839  40.929  16.848  10.533
44580W        W 9840   8.232   3.485   3.654
44581W        W 9841  28.587  28.533  13.053
44582W        W 9842  21.220  37.253  12.950
44583W        W 9843  23.862   5.322   3.643
44584W        W 9844  44.533  23.250  14.394
44585W        W 9845  43.909  10.451  10.357
44586W        W 9846  29.870  26.054  11.974
44587W        W 9847   0.189  31.689   2.323
44588W        W 9848  42.511  20.680  13.947
44589W        W 9849   0.517   4.572   0.865
44590W        W 9850  27.970  17.239  14.055
44591W        W 9851  22.752   8.610   3.380
44592W        W 9852  31.299  43.865  13.854
44593W        W 9853  19.277  40.389   2.614
44594W        W 9854   4.389  26.634   2.526
44595W        W 9855  25.985   1.287   3.798
44596W        W 9856  18.510   3.661   4.108
44597W        W 9857   3.313   6.562  13.962
44598W        W 9858  25.745   9.900   3.383
44599W        W 9859   4.570  33.570   2.918
44600W        W 9860  12.804  17.394   0.458
44601W        W 9861  32.477  34.976   1.478
44602W        W 9862   1.543  36.046   3.731
44603W        W 9863  26.981  44.815   3.862
44604W        W 9864  13.698   2.385  13.442
44605W        W 9865   0.695  11.669   1.730
44606W        W 9866  13.670  16.298   0.442
44607W        W 9867  35.250  38.385  11.895
44608W        W 9868  20.998   0.568   4.557
44609W        W 9869  29.109   2.762   3.315
44610W        W 9870  30.950  34.349  12.029
44611W        W 9871   6.686   8.354   4.358
44612W        W 9872  27.900  29.021   0.357
44613W        W 9873   2.122  23.001   5.036
44614W        W 9874  38.948  30.047   4.116
44615W        W 9875  27.078  40.937  12.184
44616W        W 9876  36.889  23.087  11.149
44617W        W 9877  33.873  36.026   4.045
44618W        W 9878  19.289  12.401  14.923
44619W        W 9879  43.276  25.019  10.978
44620W        W 9880  27.050   1.008   1.804
44621W        W 9881  19.156   9.194   3.365
44622W        W 9882  28.668   7.049  11.636
44623W        W 9883   7.934  37.390   2.663
44624W        W 9884  11.533  27.104  13.873
44625W        W 9885  21.235   7.489   2.689
44626W        W 9886   1.419  21.520   2.900
44627W        W 9887  32.498  40.430  11.183
44628W        W 9888  12.876  14.039   0.415
44629W        W 9889  35.955  16.148   0.165
44630W        W 9890  13.372  20.555   2.866
44631W        W 9891  11.042  36.651   1.050
44632W        W 9892  33.096  35.519  13.775
44633W        W 9893  33.673  39.971  13.030
44634W        W 9894  37.566  32.412   2.357
44635W        W 9895  16.640  28.445  14.380
44636W        W 9896  28.583  41.604   2.439
44637W        W 9897   7.461  31.841   3.295
44638W        W 9898  40.700   2.337  12.096
44639W        W 9899  44.588  16.981   1.843
44640W        W 9900  16.658  16.665  10.012
44641W        W 9901  25.623  18.329  12.279
44642W        W 9902  14.665  22.764  11.930
44643W        W 9903  43.402  28.186  13.172
44644W        W 9904  19.523  38.150   5.042
44645W        W 9905  34.708  40.434  14.468
44646W        W 9906  36.947  36.371  10.391
44647W        W 9907  23.891  25.863   4.287
44648W        W 9908  30.052  27.032   2.149
44649W        W 9909  18.742  33.660   4.689
44650W        W 9910  28.810  40.773  13.850
44651W        W 9911   7.936  12.964  12.493
44652W        W 9912  37.252  28.810   3.005
44653W        W 9913  22.685  21.057   1.131
44654W        W 9914  10.469  26.365  14.320
44655W        W 9915  34.883  34.695  14.812
44656W        W 9916  28.678  30.899  12.910
44657W        W 9917  43.510  41.532  11.712
44658W        W 9918   7.153  34.427   2.662
44659W        W 9919  20.297   6.652  14.351
44660W        W 9920  40.562  18.571   4.150
44661W        W 9921  19.309   6.910  14.660
44662W        W 9922   2.602  22.553   2.471
44663W        W 9923  33.985  14.892   4.139
44664W        W 9924  23.546  29.046   3.590
44665W        W 9925  22.755  11.911   4.045
44666W        W 9926  32.653   2.665  14.425
44667W        W 9927  19.754  38.765  12.846
44668W        W 9928   2.944   9.815  11.114
44669W        W 9929  24.618  27.248   2.850
44670W        W 9930   4.956  36.413  14.741
44671W        W 9931  38.510  23.380  12.803
44672W        W 9932  37.106   0.030  12.960
44673W        W 9933  44.468   5.898   3.832
44674W        W 9934  15.073  17.966   4.722
44675W        W 9935  14.863  11.827  10.786
44676W        W 9936  31.224  23.320  11.286
44677W        W 9937  38.519  39.440  12.362
44678W        W 9938  42.464  25.746  12.914
44679W        W 9939   8.314  32.383   0.864
44680W        W 9940  30.056  39.710  10.560
44681W        W 9941  36.118  35.375   1.321
44682W        W 9942  14.381  10.632  14.683
44683W        W 9943  36.001   4.017   0.152
44684W        W 9944  39.787  28.692  13.476
44685W        W 9945   1.485  14.335   1.792
44686W        W 9946  14.539  43.848   3.060
44687W        W 9947  32.095  13.525   3.794
44688W        W 9948  43.820  23.758  12.033
44689W        W 9949  42.797  39.379  12.912
44690W        W 9950  32.501  28.200   2.602
44691W        W 9951  42.846  25.774   3.371
44692W        W 9952  44.180   6.767  10.131
44693W        W 9953  34.682  44.307  13.819
44694W        W 9954  11.773   5.703   1.432
44695W        W 9955  16.176  41.595   4.151
44696W        W 9956  15.842  28.004   3.352
44697W        W 9957   8.121  40.706   2.576
44698W        W 9958  38.489  27.498   2.935
44699W        W 9959  37.876  21.235  12.414
44700W        W 9960   9.667  24.701   2.748
44701W        W 9961  32.215  23.537   1.876
44702W        W 9962  37.927  23.618  12.295
44703W        W 9963  10.350  14.538  14.530
44704W        W 9964  38.244  17.427   1.478
44705W        W 9965  27.557  43.502  13.720
44706W        W 9966   2.819   8.172  11.121
44707W        W 9967   0.881  14.451   3.705
44708W        W 9968  18.176  38.455   4.412
44709W        W 9969  30.943  22.465  10.753
44710W        W 9970  39.749  39.433  14.353
44711W        W 9971  31.871   9.948  12.572
44712W        W 9972  26.128   9.779  12.880
44713W        W 9973  20.502  35.884  12.539
44714W        W 9974  35.310  30.688  11.408
44715W        W 9975  22.499  42.861  11.648
44716W        W 9976  30.525  37.387   1.941
44717W        W 9977  31.685  44.469  11.331
44718W        W 9978  28.193  43.017   4.821
44719W        W 9979   0.961  18.183  11.653
44720W        W 9980  22.081  32.921  12.085
44721W        W 9981  28.161  20.645   3.692
44722W        W 9982  18.841  11.641  10.677
44723W        W 9983  15.779  39.819  13.854
44724W        W 9984  42.286  39.051   1.303
44725W        W 9985  14.432  37.037  12.618
44726W        W 9986  10.990   5.210  14.328
44727W        W 9987  30.583  35.079  14.383
44728W        W 9988  38.089   8.610   4.560
44729W        W 9989  36.771   2.482   3.233
44730W        W 9990  41.717   2.345   1.363
44731W        W 9991  11.787  34.592   0.771
44732W        W 9992   3.793  16.355  14.309
44733W        W 9993   7.040  24.202  13.498
44734W        W 9994  38.022  44.407   2.754
44735W        W 9995  33.880   7.268   2.678
44736W        W 9996   6.830  44.814  12.931
44737W        W 9997  35.142  41.867   1.431
44738W        W 9998  14.732  21.685   0.474
44739W        W 9999  31.976  14.189   1.634
44740W        W10000   7.108  39.890  14.493
44741W        W10001  38.533  28.944   3.161
44742W        W10002   9.650  36.890  11.928
44743W        W10003   6.598  34.283  14.914
44744W        W10004  29.316  17.231  11.905
44745W        W10005  16.577  43.299   0.241
44746W        W10006  43.338  24.007  14.301
44747W        W10007  41.687  19.549  12.850
44748W        W10008  21.089  16.973  14.819
44749W        W10009  42.873  36.832  14.967
44750W        W10010   0.263  13.774   1.499
44751W        W10011   2.431   3.477   4.052
44752W        W10012  22.624  26.026   9.956
44753W        W10013  40.942  12.748   0.475
44754W        W10014  41.488   2.038   2.222
44755W        W10015  41.293  13.907   3.365
44756W        W10016  37.794   1.232  14.421
44757W        W10017  18.863   4.338   2.361
44758W        W10018  30.989  28.675   0.459
44759W        W10019   6.241  43.429   2.357
44760W        W10020  19.716  44.477   0.861
44761W        W10021  10.136  38.957  13.663
44762W        W10022   2.138   0.603   2.708
44763W        W10023  33.937  34.056  14.633
44764W        W10024  26.711   3.306   2.286
44765W        W10025  41.289  41.913   3.724
44766W        W10026  19.628  22.952  11.993
44767W        W10027  27.388  31.966  12.861
44768W        W10028  21.012  29.581  10.976
44769W        W10029   5.403  40.334   4.648
44770W        W10030  30.496  24.996   1.730
44771W        W10031   2.914  37.653  13.395
44772W        W10032  43.473   8.730   0.254
44773W        W10033  20.061   2.965  11.046
44774W        W10034  27.327  19.221   4.270
44775W        W10035   5.445  22.897   1.945
44776W        W10036  37.314  41.413   2.759
44777W        W10037  26.889  44.949   0.678
44778W        W10038  38.288   9.673  10.429
44779W        W10039  34.792  36.986  12.480
44780W        W10040  12.211  35.295  14.015
44781W        W10041  25.474  18.125  11.827
44782W        W10042   8.852   2.120  13.278
44783W        W10043  29.403  31.692   2.223
44784W        W10044   4.321  32.656  14.300
44785W        W10045  22.202  42.959   2.993
44786W        W10046   4.341   4.358  12.537
44787W        W10047  42.252  39.903  14.445
44788W        W10048   5.731  29.186  11.070
44789W        W10049   3.257  22.002   0.902
44790W        W10050   7.866  34.765  12.558
44791W        W10051   3.162  41.984   2.777
44792W        W10052  28.060  40.780   3.250
44793W        W10053  17.641  27.057   2.238
44794W        W10054  29.354  38.884   1.834
44795W        W10055  16.019  16.318  11.878
44796W        W10056  33.967  17.447  13.434
44797W        W10057  38.628   8.192  11.172
44798W        W10058  22.217  12.584   2.311
44799W        W10059  25.944  12.158  10.791
44800W        W10060  12.773  30.356  14.271
44801W        W10061  28.432  41.353   3.746
44802W        W10062  29.060   7.828   1.393
44803W        W10063   9.562   7.694  14.009
44804W        W10064  36.492  38.515   1.354
44805W        W10065   9.921  35.994  11.452
44806W        W10066  18.825   7.639  10.719
44807W        W10067  30.506  16.167   2.768
44808W        W10068   2.584  43.732   3.326
44809W        W10069  12.616  30.100  12.002
44810W        W10070   8.885   0.912   0.704
44811W        W10071  38.854  38.060   0.713
44812W        W10072  22.083   2.401  14.415
44813W        W10073   4.269  44.825   0.293
44814W        W10074  35.793   3.683   3.481
44815W        W10075  15.714  21.168   4.597
44816W        W10076  33.331  38.943   2.753
44817W        W10077  23.580  43.214  14.616
44818W        W10078   9.324  42.580   3.815
44819W        W10079  19.481   3.855   2.879
44820W        W10080  33.683  32.454  13.801
44821W        W10081   5.485  31.137   0.470
44822W        W10082  23.672  19.844   3.988
44823W        W10083   4.505  25.152  13.420
44824W        W10084  42.388   2.142  13.831
44825W        W10085   1.100  40.486   0.274
44826W        W10086   5.931   6.623  13.573
44827W        W10087  14.158   3.947  14.893
44828W        W10088  18.263  39.856   4.160
44829W        W10089  39.340   5.222   1.669
44830W        W10090  16.698   8.385  11.968
44831W        W10091  36.372   8.686  11.665
44832W        W10092   2.151  15.645  10.701
44833W        W10093  38.424  10.225  11.647
44834W        W10094  40.525  32.016  14.819
44835W        W10095   2.903   1.510   3.915
44836W        W10096  28.634  17.820  12.009
44837W        W10097   8.772   0.947  10.499
44838W        W10098  34.683   3.444   0.206
44839W        W10099  22.572   7.153   3.613
44840W        W10100   3.214  13.642  13.939
44841W        W10101  40.497  25.533  12.488
44842W        W10102   2.694  31.846   1.472
44843W        W10103   5.499  29.640  13.501
44844W        W10104  15.499   2.464   2.308
44845W        W10105  22.195  32.649  13.352
44846W        W10106  34.345  25.530  13.556
44847W        W10107  34.372  40.610   1.261
44848W        W10108  23.627   7.513  12.131
44849W        W10109  44.796  36.074   0.532
44850W        W10110  39.530   0.316   0.221
44851W        W10111  24.194  25.088   0.848
44852W        W10112  11.648  40.942   2.845
44853W        W10113  27.857  14.613   1.530
44854W        W10114   8.624  22.021   4.094
44855W        W10115  12.923  26.738  11.964
44856W        W10116   2.894  12.778   4.295
44857W        W10117  31.007  28.024   0.372
44858W        W10118   0.917  40.945   0.992
44859W        W10119  27.008   9.291   2.553
44860W        W10120   2.738  19.672   2.108
44861W        W10121  38.788   0.242  14.410
44862W        W10122  30.128  36.408   1.965
44863W        W10123  29.983  32.585   4.080
44864W        W10124   3.717   6.882  12.400
44865W        W10125  21.453  31.796   4.269
44866W        W10126   0.577  43.555  14.988
44867W        W10127  24.026   8.420  12.361
44868W        W10128  16.156  23.989   3.767
44869W        W10129   4.845   5.257   1.665
44870W        W10130  41.555  26.588   3.182
44871W        W10131  41.480   2.405  11.485
44872W        W10132  37.853  35.129  14.922
44873W        W10133  43.098  16.837  11.093
44874W        W10134  29.244  16.295  13.951
44875W        W10135  12.460  22.756  11.692
44876W        W10136   2.220  11.827  13.196
44877W        W10137   7.629  34.459   2.825
44878W        W10138  22.201  41.225   1.195
44879W        W10139  19.715   8.275   2.340
44880W        W10140  40.439  33.708   0.899
44881W        W10141  12.888   1.159  14.891
44882W        W10142  22.805  34.447   0.927
44883W        W10143  20.349  15.372  11.996
44884W        W10144  10.137   4.907  11.631
44885W        W10145  26.973  35.520   5.494
44886W        W10146  39.904  14.747  12.022
44887W        W10147  43.465  32.166  10.641
44888W        W10148  37.283   7.209  13.641
44889W        W10149  14.087  15.354  11.418
44890W        W10150  14.955  29.878   0.853
44891W        W10151  22.224  31.363   3.377
44892W        W10152  38.344  26.952  11.613
44893W        W10153  33.603  20.972  12.047
44894W        W10154  15.575   9.352  13.401
44895W        W10155  19.303  29.408  12.140
44896W        W10156  11.283  22.306   3.340
44897W        W10157  20.530  13.696   1.796
44898W        W10158  20.023  17.465   0.787
44899W        W10159  14.622  12.749  13.955
44900W        W10160  17.227  35.948  14.393
44901W        W10161  28.572  22.519   2.211
44902W        W10162  19.145  32.063  11.609
44903W        W10163  36.999  41.356  12.411
44904W        W10164   7.364  18.562  11.204
44905W        W10165   0.855  43.585   1.830
44906W        W10166   1.749   8.695   4.652
44907W        W10167  20.313  11.015  13.007
44908W        W10168   7.309   2.957  11.596
44909W        W10169  36.555  30.301  14.057
44910W        W10170  28.166  43.242   0.350
44911W        W10171   8.169  15.626   1.049
44912W        W10172  41.938  20.455  13.128
44913W        W10173  25.493  28.189   3.678
44914W        W10174  43.371   9.449   4.173
44915W        W10175   9.655  41.504   3.054
44916W        W10176   2.258  31.693  12.653
44917W        W10177   6.965  40.954   1.542
44918W        W10178  19.263   2.481  12.020
44919W        W10179  16.670  20.226  13.551
44920W        W10180  19.627   5.743  12.955
44921W        W10181  30.939  25.678  14.278
44922W        W10182   5.031  16.356   0.168
44923W        W10183  23.980   1.940   1.893
44924W        W10184  10.150  26.648   2.647
44925W        W10185   5.285   3.062   1.638
44926W        W10186  21.771  17.813  11.065
44927W        W10187  37.326  26.154  14.970
44928W        W10188  44.335  41.762  12.053
44929W        W10189  21.575  42.112  12.558
44930W        W10190  30.655  16.697   3.251
44931W        W10191   7.212  32.581   1.880
44932W        W10192  39.294  36.492  14.950
44933W        W10193  41.761  31.014   0.843
44934W        W10194   7.809  42.160  11.273
44935W        W10195  22.575  14.376  12.693
44936W        W10196  40.287  24.102  10.617
44937W        W10197  18.279  26.241   1.454
44938W        W10198  24.781  31.261  14.456
44939W        W10199   8.717  30.191  10.783
44940W        W10200   5.340  39.886   3.659
44941W        W10201  44.339   3.688  11.904
44942W        W10202   0.974   4.739  12.478
44943W        W10203  17.899  31.657  13.010
44944W        W10204   5.482  10.798  14.448
44945W        W10205   7.207  32.603   4.604
44946W        W10206  44.213   0.728   4.121
44947W        W10207  43.063  13.742  13.897
44948W        W10208   7.587  24.777   3.740
44949W        W10209   7.391  28.873  10.889
44950W        W10210  17.872  16.194  12.932
44951W        W10211  31.652   0.703   2.654
44952W        W10212   4.385  13.893  12.974
44953W        W10213  34.875  39.352   2.274
44954W        W10214  34.463  37.143   2.691
44955W        W10215   7.800   6.365  13.465
44956W        W10216  17.281  41.320   1.785
44957W        W10217  21.452   3.611   4.552
44958W        W10218  26.021  36.590  14.467
44959W        W10219  16.596  23.709   0.953
44960W        W10220   0.940  28.965   2.983
44961W        W10221  12.603  34.659  11.900
44962W        W10222  24.210   6.055   2.588
44963W        W10223  33.551  19.471   4.666
44964W        W10224  17.754   5.743  11.613
44965W        W10225   0.642  11.161   1.270
44966W        W10226  43.636  14.904   5.072
44967W        W10227  33.072  34.924   4.265
44968W        W10228  28.450  26.561   2.180
44969W        W10229   6.477  43.729   3.248
44970W        W10230  15.663  23.774  13.063
44971W        W10231  10.715  37.947   2.673
44972W        W10232  30.722  33.311  14.268
44973W        W10233  28.323   1.000   1.687
44974W        W10234  24.405  39.410  13.645
44975W        W10235  43.380  10.864  13.574
44976W        W10236  40.758  19.118  13.446
44977W        W10237  39.590  24.177  14.405
44978W        W10238  21.980   8.881   3.524
44979W        W10239  26.631  29.823  11.183
44980W        W10240  28.635  32.182  14.857
44981W        W10241   9.377  44.267  10.640
44982W        W10242  24.212  11.086   4.671
44983W        W10243  30.148  14.940   1.241
44984W        W10244  25.282  34.145  14.409
44985W        W10245  25.799   4.360   0.780
44986W        W10246  31.676   1.497   3.755
44987W        W10247   9.660  24.343  12.402
44988W        W10248  19.562  24.807   0.179
44989W        W10249  42.558  26.593   4.527
44990W        W10250  22.826  24.163  11.182
44991W        W10251   7.889  22.639  13.564
44992W        W10252  37.401  34.404  12.546
44993W        W10253  26.685  13.873   3.694
44994W        W10254  27.090  27.265  10.658
44995W        W10255  30.446  20.494  13.723
44996W        W10256  15.012  14.231   4.431
44997W        W10257  27.126   0.787  14.224
44998W        W10258  36.352   8.128   0.345
44999W        W10259  28.251  33.953   0.010
45000W        W10260  20.825  20.195   9.759
45001W        W10261  24.330  28.330  13.293
45002W        W10262  24.547  41.520  12.485
45003W        W10263   2.019   1.170   4.237
45004W        W10264   1.614  27.441  10.496
45005W        W10265   0.242  22.779  12.920
45006W        W10266  27.626  44.761   1.227
45007W        W10267  36.427  14.664  13.862
45008W        W10268  19.543  34.133  12.029
45009W        W10269  29.952  16.300  14.722
45010W        W10270  17.271  11.266   2.297
45011W        W10271  27.187  11.879  13.951
45012W        W10272  42.923  40.093  11.379
45013W        W10273  21.130  27.138  12.257
45014W        W10274  17.802  33.198  11.216
45015W        W10275  19.426  12.185   4.793
45016W        W10276  36.580   1.066  13.869
45017W        W10277  41.567  23.604  10.855
45018W        W10278   2.926   7.167   4.177
45019W        W10279  19.689   4.812  12.397
45020W        W10280  35.072  24.692   0.798
45021W        W10281  19.196  10.288  14.213
45022W        W10282   3.671   8.361   2.810
45023W        W10283  38.466  40.008   3.364
45024W        W10284  13.641  37.974  14.726
45025W        W10285  24.222  21.146   1.968
45026W        W10286  16.189  15.360   1.406
45027W        W10287  10.081  21.361   1.397
45028W        W10288  29.818  27.865  12.877
45029W        W10289  20.226   3.720  12.745
45030W        W10290   8.372  21.125  10.629
45031W        W10291   1.365   6.755   3.796
45032W        W10292  32.473  23.791  10.682
45033W        W10293  42.831  14.618   0.834
45034W        W10294  10.138  28.103  12.407
45035W        W10295  17.001  18.569   3.701
45036W        W10296   7.363  16.474  14.031
45037W        W10297  38.228  35.430   0.137
45038W        W10298  22.606  33.386  11.436
45039W        W10299   8.949  40.410  12.733
45040W        W10300  33.865   4.257   4.049
45041W        W10301   6.282  27.738  12.079
45042W        W10302  20.395  35.067   0.125
45043W        W10303  23.722   5.311  10.743
45044W        W10304  38.862  26.638  11.040
45045W        W10305  44.400  42.549   3.890
45046W        W10306  41.651  17.543   4.618
45047W        W10307  32.872  26.904   0.932
45048W        W10308  10.060   8.963  11.005
45049W        W10309  30.934  15.077   2.258
45050W        W10310  29.059  24.179   0.726
45051W        W10311  28.513  29.701   3.173
45052W        W10312  23.987  22.120   1.469
45053W        W10313   2.556  20.275  12.380
45054W        W10314  10.361  44.752  11.247
45055W        W10315  34.867  20.084   4.806
45056W        W10316  44.516  31.397  14.878
45057W        W10317  18.125  33.080  11.668
45058W        W10318   8.219  12.636  12.731
45059W        W10319  16.325  16.643   2.917
45060W        W10320  40.454  30.938   3.257
45061W        W10321  32.001  20.832  10.595
45062W        W10322  28.229  14.151  12.916
45063W        W10323   5.276  33.150   1.309
45064W        W10324  36.467  11.452  14.241
45065W        W10325   4.644   6.850  13.520
45066W        W10326  23.280  33.540  13.536
45067W        W10327  43.613   3.473  10.076
45068W        W10328   1.625   4.402   2.064
45069W        W10329   9.728  19.841  10.789
45070W        W10330  14.800  44.230   1.158
45071W        W10331  37.965  33.166   1.289
45072W        W10332  44.838  20.913   4.495
45073W        W10333  19.654   8.698   4.130
45074W        W10334  23.916   7.290  14.526
45075W        W10335  13.510  10.420   2.332
45076W        W10336  14.500   5.038  13.898
45077W        W10337  40.678  36.568   4.090
45078W        W10338   6.807  29.153   3.318
45079W        W10339   1.123   1.340  14.498
45080W        W10340   3.436   8.401   4.161
45081W        W10341   8.846  32.723  14.022
45082W        W10342  39.020  30.508   4.366
45083W        W10343   6.196  14.141   3.617
45084W        W10344  42.534  28.652   0.059
45085W        W10345  36.599  32.909  14.654
45086W        W10346  37.420  30.471   0.678
45087W        W10347  23.110   2.268   4.352
45088W        W10348   9.914  34.356  10.278
45089W        W10349  13.222  42.743   4.337
45090W        W10350  18.204   5.966  13.304
45091W        W10351  34.054  38.558  13.695
45092W        W10352   6.756  43.273  10.756
45093W        W10353   7.417  35.027  12.382
45094W        W10354  27.744  36.667   1.274
45095W        W10355  44.390  25.241  13.238
45096W        W10356  20.959  32.395  11.910
45097W        W10357  26.178  28.951   3.505
45098W        W10358  31.219  31.474   2.054
45099W        W10359   0.428  24.986   3.152
45100W        W10360   9.670  15.835   0.511
45101W        W10361  13.580  10.914   1.380
45102W        W10362  36.041  14.013  14.923
45103W        W10363  42.249   3.966  12.546
45104W        W10364  34.354  31.635   3.888
45105W        W10365  21.359  13.556  11.615
45106W        W10366  23.717  35.211  13.814
45107W        W10367  36.995  30.996   4.625
45108W        W10368  11.764  28.026   1.444
45109W        W10369  14.577  34.123   4.706
45110W        W10370  10.648  14.309  10.894
45111W        W10371  16.444   0.039   2.357
45112W        W10372  31.987  24.493   4.137
45113W        W10373  20.147  40.982   3.118
45114W        W10374  28.039  16.535  12.559
45115W        W10375   4.040   5.218  12.486
45116W        W10376  13.093  10.702   1.318
45117W        W10377  22.973  31.557  13.847
45118W        W10378   1.511  28.932   3.705
45119W        W10379  15.404  42.330  14.049
45120W        W10380   6.730  42.445  11.127
45121W        W10381  40.003   0.990  11.178
45122W        W10382  29.062   0.476  11.369
45123W        W10383   8.446  25.780   0.465
45124W        W10384  28.208  30.301   3.685
45125W        W10385  28.182   6.341   4.986
45126W        W10386  24.733  41.948  12.255
45127W        W10387  33.166  29.434  12.536
45128W        W10388  31.116  33.852  12.096
45129W        W10389  29.805  42.793   4.584
45130W        W10390  44.066   0.826  14.281
45131W        W10391  41.222  18.233  12.372
45132W        W10392  11.155  34.558   2.766
45133W        W10393  10.935  42.440   2.339
45134W        W10394  21.037  40.270   1.357
45135W        W10395  42.447  15.176   1.693
45136W        W10396  36.845  23.694   1.786
45137W        W10397  16.620  35.628   1.735
45138W        W10398  42.335  35.368  14.893
45139W        W10399  13.065  23.203  12.338
45140W        W10400  23.174  41.917  11.828
45141W        W10401   4.799  35.957  10.420
45142W        W10402  44.145  20.691  10.135
45143W        W10403  15.282   3.178  14.208
45144W        W10404  16.487   6.990   3.419
45145W        W10405   8.893  37.859   3.299
45146W        W10406   1.296   6.762   2.050
45147W        W10407   8.216  34.087  11.556
45148W        W10408  23.981   1.372   3.723
45149W        W10409  27.893  26.640   5.004
45150W        W10410  15.221   1.457   2.290
45151W        W10411   0.942   7.569   1.768
45152W        W10412  17.753  25.512  10.842
45153W        W10413  42.826  40.083  10.883
45154W        W10414   3.419  15.154   3.605
45155W        W10415   8.341  43.322   4.264
45156W        W10416  39.995  41.369   3.652
45157W        W10417  36.347  33.860   4.518
45158W        W10418  11.835  20.880  10.954
45159W        W10419   4.998  41.088  13.914
45160W        W10420  42.476  36.626  12.605
45161W        W10421  43.211   1.837  14.277
45162W        W10422  31.728  17.305  13.059
45163W        W10423  43.984   6.913   2.654
45164W        W10424  10.342  25.551  14.879
45165W        W10425  24.159  25.634  14.333
45166W        W10426  43.389  26.797   5.006
45167W        W10427  24.340  21.692  10.801
45168W        W10428  30.169  35.758  13.752
45169W        W10429   9.883  33.014   2.890
45170W        W10430  42.890  42.149   3.686
45171W        W10431  23.720  16.296  11.097
45172W        W10432   0.256  37.491  10.165
45173W        W10433   8.373   8.193   3.088
45174W        W10434   6.335  17.141  10.463
45175W        W10435  11.338  43.712   3.504
45176W        W10436  23.137  24.926  11.666
45177W        W10437  20.202  16.678   0.530
45178W        W10438   7.759  23.304  12.493
45179W        W10439  40.144  28.860  12.546
45180W        W10440  20.948  28.614   4.135
45181W        W10441  44.736  38.733   1.366
45182W        W10442  14.695   0.432   4.710
45183W        W10443  37.735  44.400  14.279
45184W        W10444  14.622  35.596   2.023
45185W        W10445  14.202  31.932   0.113
45186W        W10446  23.174  10.846  14.900
45187W        W10447   9.141  32.632   0.896
45188W        W10448  43.041  13.941  10.779
45189W        W10449   2.025  36.816  13.620
45190W        W10450  38.450  16.542   3.348
45191W        W10451  44.191   4.737   4.604
45192W        W10452  20.766  15.788  11.560
45193W        W10453  39.538  23.179   1.832
45194W        W10454  36.481  15.758  11.036
45195W        W10455  35.361   3.742   1.436
45196W        W10456  18.586  35.881  13.857
45197W        W10457  11.386  11.187  13.459
45198W        W10458  11.275  11.381   3.182
45199W        W10459  44.995  31.183   0.425
45200W        W10460  36.108  35.936  14.441
45201W        W10461   0.016  22.013   3.266
45202W        W10462  39.249  21.751   2.837
45203W        W10463  29.322   2.601   0.446
45204W        W10464  19.721   4.126   2.292
45205W        W10465  25.697  36.802   1.911
45206W        W10466  14.126   3.929   2.834
45207W        W10467  40.480  29.924   3.263
45208W        W10468  27.974  35.465  13.275
45209W        W10469  41.900  30.402   0.296
45210W        W10470  18.319  19.787   3.996
45211W        W10471  14.526  31.085   0.225
45212W        W10472  44.983   5.799  13.425
45213W        W10473  37.392  10.116  14.054
45214W        W10474  12.292  41.533  10.651
45215W        W10475  31.600   7.202  14.495
45216W        W10476  30.444  34.456  14.887
45217W        W10477  26.695  12.132  13.836
45218W        W10478  31.479   8.387   4.628
45219W        W10479  43.463   5.000   3.046
45220W        W10480  26.025   7.359   0.873
45221W        W10481  22.637  18.550   3.687
45222W        W10482  16.543  19.262   2.164
45223W        W10483  25.953  38.380  12.554
45224W        W10484  12.287  29.946  10.747
45225W        W10485  43.803   9.409  14.443
45226W        W10486   0.930  12.386  12.499
45227W        W10487  17.174  11.642  13.794
45228W        W10488  39.681  27.185  12.229
45229W        W10489   8.628  25.158  10.262
45230W        W10490  44.197  19.414   9.951
45231W        W10491  23.332  33.509   0.777
45232W        W10492  36.720  15.242   2.040
45233W        W10493  11.459  13.159   0.939
45234W        W10494  26.665   7.236  13.838
45235W        W10495  41.335  23.217  13.924
45236W        W10496   3.250  36.545   0.323
45237W        W10497  11.721   2.326  10.938
45238W        W10498  40.417   4.710   4.580
45239W        W10499  30.991  26.915   2.322
45240W        W10500   8.746   5.945   0.760
45241W        W10501  38.421  41.348  10.518
45242W        W10502  20.729  22.671  12.998
45243W        W10503   7.123  28.123  13.525
45244W        W10504  23.035  13.617  11.145
45245W        W10505  39.782  11.181   4.275
45246W        W10506  15.661  40.256   0.374
45247W        W10507  24.967   8.723   2.435
45248W        W10508  44.202  16.817   2.424
45249W        W10509  35.451  37.949  10.666
45250W        W10510   7.129  12.755  10.651
45251W        W10511  23.648  24.708  12.908
45252W        W10512  24.003  25.961  12.908
45253W        W10513  43.308  44.852   2.531
45254W        W10514  13.013  34.147   4.139
45255W        W10515  38.404   2.473   2.310
45256W        W10516  30.453  43.338   2.360
45257W        W10517  41.570  44.394   0.762
45258W        W10518  17.563  39.588  14.658
45259W        W10519  29.018  19.504   0.064
45260W        W10520  21.449  20.154  14.507
45261W        W10521   5.946  12.425  13.281
45262W        W10522  25.491  19.716  14.752
45263W        W10523  20.163   2.913  13.034
45264W        W10524  42.909  32.600   2.841
45265W        W10525  25.967   7.785  10.470
45266W        W10526  40.546   9.286  12.099
45267W        W10527  20.623   4.988   1.430
45268W        W10528  39.815  33.197  11.667
45269W        W10529  34.760  42.908   1.371
45270W        W10530  32.137  13.298  11.228
45271W        W10531  30.763  35.509  11.052
45272W        W10532  13.963   6.254  11.349
45273W        W10533  39.834  22.663   3.939
45274W        W10534   1.774  25.139  14.931
45275W        W10535  33.104  36.047  13.885
45276W        W10536   9.387  38.452  10.620
45277W        W10537  38.044  33.070   3.197
45278W        W10538  37.668   7.709   3.659
45279W        W10539  44.731  31.165  14.046
45280W        W10540  16.590   3.933   4.275
45281W        W10541  28.695  44.287  12.536
45282W        W10542   4.089  43.536   3.212
45283W        W10543  30.485  38.388  14.200
45284W        W10544  10.911   2.425  14.874
45285W        W10545  14.036  21.047  10.245
45286W        W10546  27.761  35.813  11.514
45287W        W10547  41.651  31.125  14.989
45288W        W10548  26.463  34.066   4.146
45289W        W10549   6.358  27.601  10.827
45290W        W10550  41.831  38.571  11.866
45291W        W10551  20.518  35.391   1.598
45292W        W10552  18.618   8.733  11.556
45293W        W10553   5.425   9.358   2.808
45294W        W10554   6.725  12.259   0.591
45295W        W10555  23.470  19.221  13.417
45296W        W10556  35.046  29.378   3.617
45297W        W10557  31.002  15.620  11.485
45298W        W10558  35.538  42.985  13.914
45299W        W10559  44.884  43.544   1.871
45300W        W10560   6.289   0.809   1.293
45301W        W10561  37.269  20.142   1.520
45302W        W10562  36.320  24.840  11.339
45303W        W10563  39.102  42.767   4.635
45304W        W10564  35.005   9.443  11.108
45305W        W10565  18.545  27.889   0.288
45306W        W10566  33.181  23.043  11.695
45307W        W10567  19.431  26.405  14.886
45308W        W10568  44.771  13.258   0.080
45309W        W10569   5.994  41.452  13.560
45310W        W10570  27.627  27.765   4.431
45311W        W10571  19.595  24.621   0.678
45312W        W10572  35.916  44.330   0.949
45313W        W10573  41.590   8.675  10.730
45314W        W10574  12.208  41.777  11.227
45315W        W10575  21.740   2.266  14.054
45316W        W10576  38.312  29.943   2.225
45317W        W10577   6.784  24.832   2.172
45318W        W10578   6.878   2.093  14.783
45319W        W10579  40.958  38.298  11.472
45320W        W10580   6.175   8.354   3.614
45321W        W10581  39.563  34.106   2.365
45322W        W10582  37.006  11.645   3.246
45323W        W10583   9.525  22.704  12.142
45324W        W10584  20.145  27.906   3.768
45325W        W10585  12.032  27.115  13.960
45326W        W10586  26.696  25.727   2.832
45327W        W10587   0.556  37.976  14.859
45328W        W10588  14.673  42.360  14.940
45329W        W10589  34.168  40.930   4.565
45330W        W10590  15.127  38.084   3.378
45331W        W10591  41.766   9.309  12.564
45332W        W10592  28.982  40.488   1.054
45333W        W10593  29.122  29.414   2.204
45334W        W10594  14.873  25.643   2.143
45335W        W10595  10.816  23.941  11.182
45336W        W10596  41.854  18.759  11.375
45337W        W10597  15.992  13.404  11.135
45338W        W10598  25.226  36.198  12.215
45339W        W10599  34.032  23.162   3.767
45340W        W10600  40.546  37.373  10.555
45341W        W10601  11.355  25.984  14.483
45342W        W10602  18.099   4.179  12.829
45343W        W10603  43.226  13.319  14.139
45344W        W10604  37.526   8.108  13.955
45345W        W10605  36.537  40.432  11.716
45346W        W10606   9.564   4.281   1.211
45347W        W10607  30.095   6.172   5.084
45348W        W10608   7.368  24.538   4.195
45349W        W10609  18.854  26.769  13.617
45350W        W10610  16.142  33.264  13.629
45351W        W10611  20.681  43.422  12.428
45352W        W10612  12.407  12.187   2.256
45353W        W10613  35.307   0.794   1.318
45354W        W10614  42.140  40.267   1.721
45355W        W10615  19.871  36.001  10.806
45356W        W10616  18.014  39.928   1.389
45357W        W10617  37.867   1.903  12.147
45358W        W10618  19.460  31.563  13.849
45359W        W10619  39.710  13.554   1.964
45360W        W10620  37.763  44.589  13.018
45361W        W10621  11.898  39.580  11.935
45362W        W10622  20.221  28.400   0.078
45363W        W10623  27.928  28.169   1.337
45364W        W10624  14.146  37.428   1.743
45365W        W10625  23.985  28.704   4.245
45366W        W10626  20.285  39.887  12.447
45367W        W10627   6.085  43.729  12.777
45368W        W10628  28.755  20.325   0.808
45369W        W10629  27.217  17.708   2.680
45370W        W10630  35.304  36.920  12.550
45371W        W10631   8.425  16.061  14.054
45372W        W10632  41.707  27.588  13.065
45373W        W10633  25.990   3.655  13.824
45374W        W10634  40.854  15.750  13.503
45375W        W10635   8.919  18.864  10.647
45376W        W10636  32.861  31.635   2.771
45377W        W10637  30.225   6.818   2.445
45378W        W10638  40.945  41.223   3.287
45379W        W10639  30.937  29.662  14.787
45380W        W10640   2.542  26.380  10.781
45381W        W10641  37.864   9.817  14.135
45382W        W10642   1.055  32.812  12.518
45383W        W10643  14.729  18.145  10.134
45384W        W10644   3.419  43.995  14.064
45385W        W10645  16.271  24.968   4.604
45386W        W10646  43.315  17.827  13.148
45387W        W10647   3.689  22.556   0.307
45388W        W10648   1.751  38.579  14.511
45389W        W10649  41.001  15.270   0.292
45390W        W10650  23.718  33.967   3.750
45391W        W10651  40.842  34.124   0.048
45392W        W10652  39.454   9.129   0.864
45393W        W10653  33.779  37.071   2.352
45394W        W10654  10.542  19.741  14.451
45395W        W10655  43.335  44.705  14.492
45396W        W10656  43.612  41.602  13.053
45397W        W10657  14.102  20.259   4.612
45398W        W10658  18.621   5.772  11.693
45399W        W10659  15.241  21.147   4.346
45400W        W10660  29.431  34.059   2.746
45401W        W10661   3.641  31.869   1.314
45402W        W10662  15.339  27.780  13.005
45403W        W10663  33.703  40.564  10.234
45404W        W10664  42.848  40.098   1.807
45405W        W10665  29.505  33.553   2.530
45406W        W10666  11.217   9.462   0.420
45407W        W10667  24.221   3.729  12.901
45408W        W10668   9.271  29.995  13.518
45409W        W10669   3.352  26.420  11.260
45410W        W10670  22.634  26.114  10.488
45411W        W10671  21.774  18.809  10.266
45412W        W10672  20.192  33.677   2.624
45413W        W10673  20.479  36.570  11.872
45414W        W10674  38.912   6.936   1.847
45415W        W10675  17.454  17.122  10.286
45416W        W10676   8.041  19.243  11.949
45417W        W10677  16.590  42.819   1.633
45418W        W10678  23.924  16.745   1.483
45419W        W10679  36.477   1.245   1.847
45420W        W10680  28.766  42.959  14.274
45421W        W10681   5.876  25.747  12.855
45422W        W10682  27.733  40.196  11.155
45423W        W10683  32.305  24.751   1.744
45424W        W10684  18.284   9.328  14.896
45425W        W10685  37.781   4.527   0.989
45426W        W10686  29.954  44.143  11.197
45427W        W10687  42.472  17.537   3.715
45428W        W10688  37.930  27.625   1.612
45429W        W10689  38.095  22.220  12.563
45430W        W10690  22.713  33.593   3.081
45431W        W10691  34.881   9.312  14.288
45432W        W10692   6.485  29.478   2.782
45433W        W10693  28.892   0.217  13.912
45434W        W10694  41.799  27.117  13.338
45435W        W10695   5.863  14.919  14.438
45436W        W10696  38.805  21.252   2.356
45437W        W10697  30.594  44.849   1.874
45438W        W10698   1.688  42.716  13.627
45439W        W10699  43.667  15.350   0.832
45440W        W10700  11.696  31.772   4.162
45441W        W10701   0.367   2.275  11.536
45442W        W10702  38.998  43.910  14.666
45443W        W10703   0.923  21.986  13.076
45444W        W10704  24.453  27.136  10.693
45445W        W10705   1.681   8.731   1.790
45446W        W10706  40.371   5.909  12.907
45447W        W10707  22.645  21.437  11.085
45448W        W10708  42.975  17.146   2.809
45449W        W10709  20.713  12.229  12.927
45450W        W10710   4.810  22.175  11.911
45451W        W10711  31.095   4.810   4.509
45452W        W10712  43.269  24.649   4.442
45453W        W10713  21.796  41.727   0.787
45454W        W10714  20.469   2.744  14.932
45455W        W10715  27.151  20.310   1.259
45456W        W10716  16.046  16.005   4.530
45457W        W10717  36.505  16.700  12.639
45458W        W10718   5.429   1.694   3.731
45459W        W10719  16.706  26.535   3.188
45460W        W10720  16.679   4.839  13.523
45461W        W10721  17.832   6.140   2.330
45462W        W10722  37.059  36.479   1.869
45463W        W10723  33.212  21.085  11.149
45464W        W10724  13.652  28.531  13.538
45465W        W10725  15.694  32.065  14.577
45466W        W10726  32.411   2.949   0.982
45467W        W10727  43.461  16.370  12.869
45468W        W10728  33.293  36.530   3.198
45469W        W10729  39.311   0.220  14.312
45470W        W10730  44.459  17.111  10.359
45471W        W10731  27.544  17.131  10.594
45472W        W10732   5.028  27.491  14.502
45473W        W10733   0.631  10.770  10.255
45474W        W10734  27.657  25.608  12.122
45475W        W10735   5.625  33.370   1.908
45476W        W10736  14.170  10.642   2.036
45477W        W10737   5.009   4.753  13.945
45478W        W10738  21.331  10.543   0.945
45479W        W10739  42.003   0.244   2.860
45480W        W10740  38.707  14.662  12.904
45481W        W10741  30.434  27.032  13.682
45482W        W10742  35.342  13.809   0.927
45483W        W10743   0.917  16.257   2.586
45484W        W10744   0.172  26.158   0.725
45485W        W10745  13.324  40.025   0.175
45486W        W10746  31.685   9.736  11.253
45487W        W10747  38.859  14.972  14.969
45488W        W10748  22.057  19.637   3.173
45489W        W10749  13.775  11.646   4.974
45490W        W10750  13.898   2.768  14.292
45491W        W10751  42.034  42.935  13.003
45492W        W10752  32.100  43.394  13.974
45493W        W10753  31.855  28.598   0.301
45494W        W10754  11.842  21.269   1.826
45495W        W10755  15.398  33.045  14.465
45496W        W10756  18.494   9.321   2.237
45497W        W10757  42.789   0.699   4.335
45498W        W10758  32.572  37.408   0.336
45499W        W10759  27.899  39.844   3.110
45500W        W10760  18.976  44.871  12.356
45501W        W10761  42.096   9.588  14.040
45502W        W10762  22.541  29.742  14.322
45503W        W10763  18.212  36.864   1.357
45504W        W10764  44.525  28.329  10.350
45505W        W10765  34.416  19.837   3.275
45506W        W10766  37.288  35.542   3.372
45507W        W10767  27.090   4.817  10.541
45508W        W10768  27.324   5.180  13.344
45509W        W10769  14.714  21.100   2.094
45510W        W10770  14.781  19.166  11.156
45511W        W10771  25.130  21.559  12.597
45512W        W10772  35.495  42.467   2.184
45513W        W10773  41.405  13.676   4.371
45514W        W10774  26.055  44.324   4.109
45515W        W10775   5.454  44.095   4.122
45516W        W10776  26.458  10.317   1.033
45517W        W10777  16.004  41.927  13.826
45518W        W10778   8.803  34.051  14.227
45519W        W10779  39.360  44.934   3.775
45520W        W10780  41.597  13.784   2.958
45521W        W10781  34.480   3.799  11.410
45522W        W10782  38.957  12.822  13.319
45523W        W10783  27.731  37.249  14.270
45524W        W10784   3.817  25.577   0.880
45525W        W10785   2.171   0.238  12.586
45526W        W10786  30.330   3.928  12.752
45527W        W10787  10.032   5.369   4.171
45528W        W10788  43.020   1.520   0.112
45529W        W10789  25.243  21.247  12.129
45530W        W10790   5.430  43.000  13.966
45531W        W10791  12.126  16.161   2.757
45532W        W10792  32.379  21.564   1.543
45533W        W10793   6.724  11.392  13.380
45534W        W10794   7.695  11.333  11.480
45535W        W10795  31.994   6.666   3.831
45536W        W10796   9.313  39.138  14.489
45537W        W10797  43.828  19.719   4.864
45538W        W10798  22.201  29.434   2.219
45539W        W10799  39.133  18.628   2.637
45540W        W10800  37.384  31.589   3.885
45541W        W10801  12.010  16.738  12.360
45542W        W10802  33.283  30.262  14.082
45543W        W10803  30.953  41.875   1.871
45544W        W10804  40.999  32.410   1.771
45545W        W10805  11.830  20.940  12.761
45546W        W10806   1.306  22.954   2.770
45547W        W10807   8.456  40.684   2.206
45548W        W10808  25.015   5.415  12.610
45549W        W10809  40.920  43.923  14.014
45550W        W10810  18.336   2.381  12.700
45551W        W10811  40.296  32.908   2.706
45552W        W10812  28.049  43.371  13.777
45553W        W10813  10.307  15.680  12.933
45554W        W10814  22.223  42.238  14.709
45555W        W10815  13.095   3.761  11.101
45556W        W10816  10.430   7.679   2.561
45557W        W10817  17.823  20.095  13.970
45558W        W10818  20.570   9.409  10.951
45559W        W10819  16.222  31.391   4.250
45560W        W10820  19.028  32.494  14.714
45561W        W10821  25.617  21.209  10.128
45562W        W10822   5.877   5.847  12.905
45563W        W10823  29.924  37.542   2.646
45564W        W10824  14.995  32.677  14.474
45565W        W10825  41.938   0.715   0.976
45566W        W10826  38.817  19.055   0.807
45567W        W10827  10.998   5.296  13.341
45568W        W10828  42.147  35.771   4.848
45569W        W10829   7.830  29.760  12.888
45570W        W10830   2.153  27.926   2.244
45571W        W10831   7.385   6.925  12.558
45572W        W10832  34.620  16.462  12.993
45573W        W10833  10.620  11.844  11.094
45574W        W10834   8.633  23.538   5.306
45575W        W10835   3.491  33.869  13.899
45576W        W10836  42.293  27.613   0.387
45577W        W10837  41.994  11.610  11.765
45578W        W10838  13.763   8.730   0.265
45579W        W10839  37.552  44.322  12.463
45580W        W10840  38.334   9.270   2.661
45581W        W10841  39.263  13.428   2.307
45582W        W10842  36.537  23.970  13.044
45583W        W10843  19.679  29.175   3.630
45584W        W10844  13.057  44.710  14.521
45585W        W10845  26.667   5.867   9.611
45586W        W10846  35.158  32.385  10.686
45587W        W10847  42.435   5.826   3.755
45588W        W10848  10.355  31.932   2.764
45589W        W10849  18.580  10.309   0.853
45590W        W10850  19.844  39.807  12.757
45591W        W10851  30.591  42.567  12.413
45592W        W10852  19.955   4.811   4.084
45593W        W10853  42.550   1.893  13.382
45594W        W10854   5.069   2.950   3.848
45595W        W10855  36.526  42.402   3.118
45596W        W10856   9.646  19.459   1.316
45597W        W10857  40.226   2.404   1.350
45598W        W10858   1.039  44.902   3.602
45599W        W10859  26.875  17.230  13.718
45600W        W10860  14.216  11.268  13.845
45601W        W10861  36.959  28.811  14.889
45602W        W10862  10.808  38.826  12.901
45603W        W10863  24.694   2.981  12.826
45604W        W10864  35.432  17.774   1.481
45605W        W10865  35.327  20.840  12.830
45606W        W10866  22.649  22.730   5.451
45607W        W10867   4.274  35.243  11.458
45608W        W10868  20.143  29.091  14.424
45609W        W10869  18.070   8.943  14.629
45610W        W10870  21.717  44.861   4.420
45611W        W10871  18.479  36.443  12.191
45612W        W10872  42.796  14.899  11.920
45613W        W10873  39.045  36.841   3.785
45614W        W10874  33.180  26.014   3.297
45615W        W10875  44.866  10.405   0.044
45616W        W10876  21.722  30.362   0.968
45617W        W10877  29.728   0.343   2.653
45618W        W10878  29.549  32.302   4.148
45619W        W10879   7.893   7.976   3.760
45620W        W10880  29.603  22.447   4.210
45621W        W10881  22.721  25.012   3.568
45622W        W10882   4.366  21.007   2.694
45623W        W10883  12.363  33.427  13.846
45624W        W10884  29.652  42.989   2.540
45625W        W10885   3.417  32.936   1.370
45626W        W10886  38.330  14.210   3.681
45627W        W10887  29.695  14.338   1.813
45628W        W10888  32.140  15.094  10.423
45629W        W10889   7.601  40.835  13.027
45630W        W10890  16.274   1.995   2.128
45631W        W10891  32.852  33.614  13.736
45632W        W10892  42.053  18.751  12.403
45633W        W10893  43.362  41.026  11.023
45634W        W10894  42.851  38.271   0.250
45635W        W10895  16.503   2.495   3.298
45636W        W10896  27.914  41.065  13.045
45637W        W10897   9.227  14.495   4.469
45638W        W10898  21.763  15.088  14.830
45639W        W10899  20.251   6.866   3.514
45640W        W10900  37.809  42.525  10.587
45641W        W10901  36.061  15.667  14.949
45642W        W10902   1.542   2.736  11.698
45643W        W10903  34.823  32.188   0.911
45644W        W10904   1.715  16.112   0.743
45645W        W10905  24.717  19.577  12.537
45646W        W10906  44.517  39.215   0.829
45647W        W10907   6.077  12.332   1.729
45648W        W10908  17.338  25.770  13.923
45649W        W10909  27.934  42.042  11.098
45650W        W10910  43.714  14.138  11.684
45651W        W10911   8.353  11.690  11.555
45652W        W10912  34.602  21.098  10.734
45653W        W10913   1.475   5.970   4.826
45654W        W10914  21.629  35.536  13.160
45655W        W10915  44.814  41.646  10.773
45656W        W10916   1.855  20.969  12.549
45657W        W10917  41.280  16.660   3.250
45658W        W10918  31.180  23.948   5.512
45659W        W10919  19.879  14.336  12.121
45660W        W10920  19.321  25.580   1.002
45661W        W10921  14.336  28.088  13.037
45662W        W10922  14.600   5.655   4.101
45663W        W10923  18.322  42.064  11.832
45664W        W10924   9.761  11.690   1.820
45665W        W10925  29.795  19.665  10.713
45666W        W10926  44.363   8.554   4.258
45667W        W10927  10.847   1.297   4.371
45668W        W10928  43.818  29.341  12.509
45669W        W10929   5.029  40.732   4.067
45670W        W10930  14.359  33.377  13.354
45671W        W10931  12.124  34.024   4.130
45672W        W10932  30.894  44.252   0.827
45673W        W10933  33.462  23.821  12.389
45674W        W10934  38.460  36.334  11.925
45675W        W10935  35.539  19.653  13.536
45676W        W10936   9.654  20.605  11.439
45677W        W10937   5.329  17.720  12.901
45678W        W10938  36.152   3.538  11.821
45679W        W10939  24.625  25.679  11.614
45680W        W10940  32.618  11.682  13.406
45681W        W10941  19.743  43.351   4.307
45682W        W10942  39.062   7.860   1.060
45683W        W10943  13.248  22.978   2.798
45684W        W10944  41.481   3.009   2.417
45685W        W10945   6.433  13.381  11.660
45686W        W10946  25.445  41.077   0.528
45687W        W10947  18.218  43.883  13.840
45688W        W10948  15.829   6.300   4.572
45689W        W10949   1.840  42.395   1.428
45690W        W10950  15.122  44.400  11.912
45691W        W10951  44.135   6.857   1.780
45692W        W10952  14.700  13.576  14.345
45693W        W10953  35.209  23.366   9.732
45694W        W10954  30.412  33.985  14.682
45695W        W10955  42.207  12.871  10.615
45696W        W10956  15.780   0.797  14.091
45697W        W10957  13.720   0.290   2.609
45698W        W10958   7.221  19.771  10.598
45699W        W10959   2.335  37.613   2.403
45700W        W10960  39.399  16.112  12.599
45701W        W10961  36.620  32.813  12.620
45702W        W10962  29.680  37.089  11.914
45703W        W10963   5.276  17.500   1.840
45704W        W10964   1.446  21.791  13.796
45705W        W10965   4.846   5.870  12.671
45706W        W10966  26.407  19.773  15.000
45707W        W10967  36.434   5.471  13.972
45708W        W10968   8.177  26.452   3.122
45709W        W10969  31.163  16.551   1.028
45710W        W10970  33.976   2.570  13.334
45711W        W10971  11.126  32.065   2.294
45712W        W10972  37.643  21.758  11.200
45713W        W10973  44.874   2.265   4.008
45714W        W10974   0.457  26.683   2.810
45715W        W10975  24.972  29.245  13.558
45716W        W10976  19.590   2.702   2.815
45717W        W10977  31.600  44.608   1.284
45718W        W10978  21.043  19.230   3.330
45719W        W10979   1.381  29.254  10.532
45720W        W10980   9.729  16.242   2.537
45721W        W10981   8.933  37.585  10.478
45722W        W10982  10.636   5.435  12.073
45723W        W10983  31.117  16.694   4.121
45724W        W10984  35.126  38.878   2.316
45725W        W10985   7.633  17.586  10.393
45726W        W10986   1.246   2.487   3.195
45727W        W10987  33.653   4.403  13.893
45728W        W10988  17.074  19.727   3.176
45729W        W10989   5.196  31.043   3.335
45730W        W10990  28.402  17.729   0.924
45731W        W10991  38.952  23.559  11.984
45732W        W10992   2.673  37.939   2.223
45733W        W10993  24.452   4.585  13.965
45734W        W10994  44.364  16.416   4.645
45735W        W10995  43.981  42.967  14.987
45736W        W10996  20.435  19.685   0.792
45737W        W10997   9.758  28.429  14.074
45738W        W10998  42.748   3.787   0.192
45739W        W10999  10.124  44.334   0.945
45740W        W11000  32.893  42.890  12.037
45741W        W11001  44.432  13.050  13.425
45742W        W11002  35.626  37.416   4.445
45743W        W11003  31.423  30.169   2.316
45744W        W11004  39.816  23.152  10.795
45745W        W11005  12.863  41.838  14.307
45746W        W11006  36.128   4.773  13.900
45747W        W11007   0.804  23.268  11.190
45748W        W11008  17.191   7.363   4.731
45749W        W11009  32.206  24.210  10.337
45750W        W11010  38.498   9.167   0.148
45751W        W11011  27.585  32.619   3.752
45752W        W11012  30.911  30.747   4.244
45753W        W11013  20.590  40.078  11.639
45754W        W11014   3.629   9.667  13.984
45755W        W11015  37.833  36.082   4.887
45756W        W11016   8.820  15.567  12.081
45757W        W11017  25.812  10.771  10.999
45758W        W11018  19.690  30.378   4.400
45759W        W11019  40.785  30.544  11.138
45760W        W11020  33.357  34.633  13.518
45761W        W11021  31.107   6.974  13.902
45762W        W11022  41.062  30.138   4.036
45763W        W11023  34.774  31.515   4.175
45764W        W11024  44.879  28.650   1.764
45765W        W11025  35.275  35.125   2.984
45766W        W11026  32.017  19.248  11.620
45767W        W11027  22.720  43.923  13.988
45768W        W11028  30.069  33.494  10.209
45769W        W11029  15.066   8.426   3.157
45770W        W11030  27.148  35.580   0.423
45771W        W11031  26.980  26.278  10.675
45772W        W11032  23.931  16.620   3.475
45773W        W11033   3.363  39.283   4.713
45774W        W11034  30.055  12.567  14.107
45775W        W11035  19.983   6.708  11.667
45776W        W11036   3.748  31.378  11.203
45777W        W11037  24.460   7.186   5.114
45778W        W11038  23.842  16.319  10.593
45779W        W11039  25.524  20.777  11.239
45780W        W11040  35.379  22.178   3.774
45781W        W11041  26.500  19.064   1.564
45782W        W11042  29.028   0.347   1.377
45783W        W11043  15.179  29.191   3.204
45784W        W11044   5.169  24.568   4.500
45785W        W11045  22.158  16.048   1.874
45786W        W11046  44.382   5.168   2.760
45787W        W11047  11.468   8.853  12.444
45788W        W11048   1.930  21.783  13.513
45789W        W11049  24.946   7.445   2.629
45790W        W11050  24.265  34.630  11.501
45791W        W11051  34.008  40.521   1.790
45792W        W11052  35.047   1.303  12.917
45793W        W11053  38.373   1.690  13.334
45794W        W11054   9.914  33.680   0.295
45795W        W11055   6.745   9.745   3.535
45796W        W11056  17.261  38.473   4.460
45797W        W11057   6.711  25.091   2.640
45798W        W11058   0.472  38.361  11.143
45799W        W11059   9.336   1.948  14.357
45800W        W11060  28.133  34.670  12.023
45801W        W11061  21.560  20.104   0.446
45802W        W11062  43.754  37.373  12.972
45803W        W11063  30.180  44.397  13.327
45804W        W11064  18.946   6.963   2.699
45805W        W11065  16.693   8.794  14.600
45806W        W11066  11.258  20.483  12.206
45807W        W11067  12.303   8.631  12.623
45808W        W11068  35.942  39.669  12.677
45809W        W11069  33.613  13.185   1.865
45810W        W11070  41.894  36.897   4.462
45811W        W11071  29.912  20.726  13.073
45812W        W11072  20.109   0.900   4.492
45813W        W11073  26.388  35.060  13.092
45814W        W11074  32.979  36.254   2.415
45815W        W11075  18.176  32.863   3.757
45816W        W11076  27.471   2.709   0.413
45817W        W11077  42.906  43.320  14.837
45818W        W11078  42.086  12.848  12.538
45819W        W11079  27.240  21.155   1.949
45820W        W11080  30.606  13.781  10.922
45821W        W11081  15.578  10.651  11.029
45822W        W11082   8.698  43.061   2.373
45823W        W11083  26.537  41.411  11.518
45824W        W11084  27.779   5.249   4.850
45825W        W11085  17.667  31.937  14.903
45826W        W11086  27.131  15.840  12.850
45827W        W11087  13.774  10.410   1.390
45828W        W11088  14.109  32.072  11.167
45829W        W11089  17.498  36.442  14.435
45830W        W11090  18.182  26.494  12.687
45831W        W11091  27.572  12.177   2.175
45832W        W11092  30.882   5.652   3.314
45833W        W11093  44.882  13.193   5.416
45834W        W11094  18.722  27.021  14.474
45835W        W11095   0.948  34.570   4.149
45836W        W11096   3.914  32.995   3.877
45837W        W11097  23.953  21.617   0.178
45838W        W11098  16.097  42.127   4.904
45839W        W11099  21.393  13.292   2.918
45840W        W11100  14.384  11.777  13.142
45841W        W11101  10.933  18.886  14.262
45842W        W11102   3.285  38.107   0.303
45843W        W11103  35.727  40.485  14.186
45844W        W11104  26.438  38.470  14.287
45845W        W11105  37.741   5.156  10.753
45846W        W11106   8.719  13.840  12.898
45847W        W11107  21.717  29.448   2.978
45848W        W11108  42.125  18.512  13.400
45849W        W11109  10.284  42.427   0.948
45850W        W11110  12.099  29.168   1.238
45851W        W11111   6.431  13.582  11.190
45852W        W11112   8.418   1.891  14.862
45853W        W11113   5.732   1.911  12.850
45854W        W11114  41.562  21.462   2.652
45855W        W11115  35.399  23.995  13.953
45856W        W11116  12.895  23.745  10.750
45857W        W11117  19.202   5.776  10.910
45858W        W11118   2.445   0.995   0.791
45859W        W11119  36.951  24.754   1.000
45860W        W11120  37.749  42.959  12.222
45861W        W11121   7.402  19.095  11.244
45862W        W11122  44.745   6.729  14.531
45863W        W11123  39.126  26.714  14.312
45864W        W11124  25.939   4.630  11.396
45865W        W11125  10.852  16.243   1.852
45866W        W11126  37.449  43.478   5.035
45867W        W11127  44.667  24.921  13.535
45868W        W11128  21.770  35.189   4.135
45869W        W11129  19.897   7.518   1.933
45870W        W11130  38.523  37.847  14.400
45871W        W11131  44.580  40.452   4.142
45872W        W11132  44.382   7.529   4.031
45873W        W11133   3.246  38.611  12.443
45874W        W11134  44.373   9.739  12.981
45875W        W11135  38.006  21.135   1.318
45876W        W11136  37.428  42.043  14.739
45877W        W11137  38.739  24.682   1.946
45878W        W11138   9.856  15.742   2.465
45879W        W11139   1.166  18.368  12.987
45880W        W11140  18.247  32.578   4.454
45881W        W11141   1.944  28.123  10.182
45882W        W11142  32.982   7.456  12.017
45883W        W11143  23.103  32.025   1.003
45884W        W11144  16.331  34.097   4.504
45885W        W11145  41.314  30.828  14.341
45886W        W11146  27.423  20.082   4.443
45887W        W11147  33.457  31.814   3.719
45888W        W11148  38.986  18.453  11.917
45889W        W11149  42.486   0.321   4.177
45890W        W11150  35.559  10.089  12.980
45891W        W11151  35.011  35.886  13.330
45892W        W11152  42.793  18.124  11.131
45893W        W11153   5.642  29.448  14.298
45894W        W11154   7.434   2.436   1.287
45895W        W11155  33.991  18.038  14.754
45896W        W11156  43.472  32.449  12.506
45897W        W11157  42.525  39.894   1.465
45898W        W11158  23.237  23.644   4.220
45899W        W11159  13.740  26.594   2.717
45900W        W11160  39.353   6.237   2.849
45901W        W11161  29.582   7.452   4.355
45902W        W11162  34.433  31.134   2.575
45903W        W11163  21.824   1.264   1.400
45904W        W11164  31.878  31.475  11.728
45905W        W11165   9.250  24.639  12.169
45906W        W11166   2.080   7.220   4.575
45907W        W11167  32.512   8.996   3.685
45908W        W11168  40.766  21.180   0.856
45909W        W11169  29.738   9.765   0.947
45910W        W11170  35.506  39.006  13.239
45911W        W11171  21.261  23.664   3.693
45912W        W11172  34.872  12.572   0.928
45913W        W11173  10.970  14.922   3.736
45914W        W11174   4.946  23.499  12.020
45915W        W11175  18.416   2.782  14.096
45916W        W11176  30.230   5.755  12.676
45917W        W11177  39.483   9.067  11.674
45918W        W11178  11.349  11.918   4.854
45919W        W11179   0.704  41.455   4.203
45920W        W11180   5.809   5.864  13.733
45921W        W11181   4.898   3.749   2.176
45922W        W11182   2.017  26.687  13.813
45923W        W11183  31.363  29.015  11.427
45924W        W11184   8.662  40.714  11.040
45925W        W11185  26.257  33.902   4.597
45926W        W11186  12.772  26.760   3.077
45927W        W11187  40.656  21.334  10.798
45928W        W11188  29.865  28.101  10.665
45929W        W11189  20.025  26.157   4.773
45930W        W11190  11.326  18.890   2.149
45931W        W11191  26.005   0.140  14.927
45932W        W11192   6.723  41.507   3.249
45933W        W11193   5.149   7.306   2.625
45934W        W11194  23.075  38.797  12.362
45935W        W11195  39.912   9.662   1.293
45936W        W11196  18.302   9.842  12.175
45937W        W11197  18.600  23.572  14.935
45938W        W11198   5.897   9.823   2.763
45939W        W11199  23.039  34.125  13.691
45940W        W11200  29.946  14.347  11.962
45941W        W11201  41.035  38.972  13.940
45942W        W11202  22.946   6.323   2.297
45943W        W11203  34.925  35.504   3.128
45944W        W11204  33.957  42.850  11.304
45945W        W11205  39.165  18.650   4.461
45946W        W11206  20.161  44.819  14.022
45947W        W11207  22.056  27.016  13.749
45948W        W11208  40.469  19.185   4.672
45949W        W11209  26.934   2.016   4.113
45950W        W11210   8.074  10.149  13.527
45951W        W11211  31.585  14.728   1.017
45952W        W11212  28.508  11.448   1.215
45953W        W11213  41.923  27.462   0.742
45954W        W11214  27.888  37.628   5.017
45955W        W11215   3.455   8.378   3.620
45956W        W11216  18.767  31.207   0.815
45957W        W11217  36.975  28.106   0.382
45958W        W11218  19.496  34.782  13.485
45959W        W11219  15.658   9.868   4.227
45960W        W11220   1.784  11.207  13.725
45961W        W11221  20.775   0.050  11.078
45962W        W11222   1.160  29.239  11.523
45963W        W11223  31.535  37.718  14.482
45964W        W11224  37.504  31.928   1.373
45965W        W11225  18.966  19.083  12.351
45966W        W11226  39.852  27.101   4.931
45967W        W11227  39.516  38.877   3.881
45968W        W11228   7.623  15.635   2.796
45969W        W11229  30.989  38.630  10.595
45970W        W11230   2.830  14.711  10.291
45971W        W11231  17.660  26.746  13.109
45972W        W11232   0.998   7.747   3.197
45973W        W11233  24.953  36.804  14.818
45974W        W11234  23.958  11.904   3.773
45975W        W11235  16.563  28.708  11.082
45976W        W11236  41.039   9.888   0.443
45977W        W11237  33.311  27.106  14.878
45978W        W11238  17.807  10.112   1.387
45979W        W11239  16.106  22.814  10.408
45980W        W11240  18.144  42.190  11.067
45981W        W11241  11.615  37.818  12.566
45982W        W11242  33.638  15.732   0.341
45983W        W11243  15.662  25.610  11.734
45984W        W11244  31.899  14.604  14.853
45985W        W11245  37.983   9.361  12.704
45986W        W11246  31.006  34.055  12.565
45987W        W11247  25.934   2.426  10.579
45988W        W11248   8.936  35.572  13.435
45989W        W11249  32.875  43.408  12.100
45990W        W11250  30.845  38.086  13.491
45991W        W11251   2.111  22.693   9.810
45992W        W11252  13.503  33.304   1.183
45993W        W11253  42.553   0.218   3.681
45994W        W11254  44.082  37.337   0.294
45995W        W11255  25.477  30.746   1.833
45996W        W11256   2.365  25.059   1.159
45997W        W11257  38.465   6.459   2.436
45998W        W11258  33.328   4.221   4.039
45999W        W11259  34.451  17.642  11.274
46000W        W11260  39.295  42.421   2.315
46001W        W11261   0.358  34.294  11.816
46002W        W11262  27.235  33.803  11.159
46003W        W11263  12.315   6.374  12.015
46004W        W11264  23.174   9.382  10.254
46005W        W11265  36.409  28.694   0.150
46006W        W11266  12.692   1.347  12.699
46007W        W11267  20.273   2.207  10.717
46008W        W11268  44.809  41.955   4.178
46009W        W11269  27.185   3.905  13.111
46010W        W11270  11.331  44.914   0.083
46011W        W11271   0.874   9.907   4.009
46012W        W11272  19.731   7.719   3.104
46013W        W11273  30.181   1.272   3.669
46014W        W11274  20.074  42.883  12.835
46015W        W11275   5.978  10.688  14.586
46016W        W11276  38.649  36.349  14.339
46017W        W11277  35.073  24.727  12.086
46018W        W11278  28.997   9.383  13.001
46019W        W11279  17.148   1.730   1.581
46020W        W11280  10.252  15.508   4.130
46021W        W11281  19.070   0.275   3.809
46022W        W11282  40.731  38.296   2.865
46023W        W11283  18.309   1.193  11.707
46024W        W11284  14.130  34.064  11.994
46025W        W11285  40.466  38.246   4.163
46026W        W11286  29.653  10.477  14.248
46027W        W11287  25.583  32.424  12.134
46028W        W11288  36.563  20.170   4.385
46029W        W11289   7.427  19.474   2.611
46030W        W11290  30.488   2.777  13.500
46031W        W11291  36.320  22.684   0.440
46032W        W11292   7.921   2.739  14.298
46033W        W11293  18.820   2.277  11.096
46034W        W11294  23.037   2.898  13.836
46035W        W11295  30.738  23.174   2.235
46036W        W11296  28.245  21.308  11.202
46037W        W11297  16.570   6.653  11.064
46038W        W11298  15.316   4.141   4.570
46039W        W11299  20.530  41.938  11.158
46040W        W11300  22.879  17.582  12.178
46041W        W11301  41.196  14.863   1.170
46042W        W11302  38.470   3.737  13.392
46043W        W11303  24.549   6.902  12.803
46044W        W11304  10.415  27.593   3.186
46045W        W11305  12.084   1.993  10.705
46046W        W11306  33.315  37.985   2.427
46047W        W11307  15.565  14.446  10.720
46048W        W11308  17.839   5.266  14.417
46049W        W11309  16.418   6.401   1.722
46050W        W11310  14.245   4.781   5.008
46051W        W11311  22.955  25.221   0.335
46052W        W11312  36.941  34.825  14.002
46053W        W11313  23.710  11.642  12.101
46054W        W11314  29.577   1.376   2.860
46055W        W11315  33.020   9.287  14.374
46056W        W11316  11.241  41.954   2.482
46057W        W11317  16.254   4.491   0.497
46058W        W11318  32.831  13.667  11.659
46059W        W11319   4.877  17.681   2.612
46060W        W11320  10.351  41.834  14.664
46061W        W11321   4.789  27.628   3.036
46062W        W11322   1.026  16.757   1.775
46063W        W11323  18.851  30.241  12.831
46064W        W11324  31.025  21.045  14.336
46065W        W11325  44.746  15.789   2.205
46066W        W11326   7.838   1.831  13.473
46067W        W11327  29.961  23.621   1.827
46068W        W11328  10.069   0.933  14.912
46069W        W11329  34.313  12.177   1.401
46070W        W11330  26.516  31.927   3.658
46071W        W11331  11.566   7.200  13.836
46072W        W11332  13.784  24.476   0.104
46073W        W11333  40.190  16.705   0.939
46074W        W11334  22.741  17.607   4.574
46075W        W11335  10.045  30.551  10.177
46076W        W11336  33.982  19.781  14.589
46077W        W11337  16.177   6.896   2.956
46078W        W11338  17.106   7.928   0.877
46079W        W11339  25.720  27.189  11.969
46080W        W11340  31.445  18.034  12.146
46081W        W11341  10.436  40.990   0.191
46082W        W11342  18.793   6.516   4.516
46083W        W11343  15.784  26.227  12.464
46084W        W11344  26.521   2.389   2.184
46085W        W11345  24.968  16.281  14.310
46086W        W11346  38.237  28.692  13.527
46087W        W11347  32.097  35.378  10.774
46088W        W11348  31.909   9.139   3.375
46089W        W11349  19.585  36.709   4.659
46090W        W11350  21.728  19.547   2.299
46091W        W11351  37.575  27.201  11.998
46092W        W11352  41.242  33.182  10.956
46093W        W11353   3.400  33.041  11.569
46094W        W11354  22.977  40.571  14.997
46095W        W11355  30.235  20.673  11.647
46096W        W11356   5.602  10.412  11.607
46097W        W11357  37.477   9.220   0.511
46098W        W11358  15.943   0.499  10.764
46099W        W11359  37.440  20.894   3.134
46100W        W11360  22.043  17.085   1.821
46101W        W11361  19.359  32.925   1.315
46102W        W11362   1.952   6.406   2.151
46103W        W11363  13.767  26.634  12.510
46104W        W11364  10.751  32.649   0.408
46105W        W11365  14.634  19.369   2.188
46106W        W11366  39.411  14.377   3.253
46107W        W11367  31.402  22.501   0.889
46108W        W11368  12.205  28.522   4.199
46109W        W11369   0.224   3.531  13.993
46110W        W11370  15.611   7.812  11.395
46111W        W11371  22.150  35.913  14.130
46112W        W11372  19.722  11.341   0.641
46113W        W11373  30.141  41.330   1.637
46114W        W11374  12.808  36.097   2.738
46115W        W11375   5.492   1.234   2.371
46116W        W11376  30.141  19.513   1.696
46117W        W11377  12.690  43.178  14.140
46118W        W11378  26.532  36.324   0.497
46119W        W11379  37.291  11.097   4.187
46120W        W11380  22.232  18.229  12.929
46121W        W11381  28.023  23.698  12.366
46122W        W11382  22.670   0.417  10.647
46123W        W11383  26.103  40.877  14.622
46124W        W11384   7.619   0.032  14.316
46125W        W11385  33.581  21.527   2.480
46126W        W11386  28.976  37.118   1.678
46127W        W11387  13.231  32.424  10.973
46128W        W11388  27.024  12.058   4.375
46129W        W11389  38.392  36.457   1.692
46130W        W11390  39.384  24.681  14.398
46131W        W11391  36.878   3.348  11.726
46132W        W11392  38.654  43.352  11.297
46133W        W11393   8.171   0.491  12.075
46134W        W11394   4.495  17.184   0.484
46135W        W11395  24.469  33.083   3.739
46136W        W11396  17.781  40.445   1.717
46137W        W11397  17.515  40.109  11.854
46138W        W11398  20.768  19.279   5.087
46139W        W11399  44.074  15.830  12.154
46140W        W11400  19.664  20.554  13.086
46141W        W11401  27.688  19.654  12.151
46142W        W11402  41.856  24.508   0.701
46143W        W11403  31.604  17.298  13.962
46144W        W11404  38.152  44.527   1.303
46145W        W11405  31.657  26.161   3.092
46146W        W11406   6.849  39.395  14.454
46147W        W11407  42.256   1.829  12.900
46148W        W11408   4.045   5.726   0.823
46149W        W11409   6.953  23.177   0.397
46150W        W11410  33.580   6.230   0.932
46151W        W11411  11.841  15.371   4.224
46152W        W11412  16.408  29.363  12.036
46153W        W11413  26.971  31.758  13.918
46154W        W11414  16.539  25.235  10.958
46155W        W11415  30.411   3.225  11.592
46156W        W11416  38.255  23.837   4.109
46157W        W11417  11.213  14.583   3.153
46158W        W11418  32.860  13.275  13.467
46159W        W11419  12.892  38.839  10.357
46160W        W11420   5.847  12.691   3.521
46161W        W11421  38.393   4.141   4.288
46162W        W11422   6.764  35.630   2.313
46163W        W11423  11.234  42.337   1.458
46164W        W11424   1.355  31.893   0.227
46165W        W11425  16.318   5.457  13.330
46166W        W11426   9.462   6.798  13.776
46167W        W11427  10.222   1.234  12.488
46168W        W11428  10.174  16.538   1.291
46169W        W11429  22.624  13.719   2.407
46170W        W11430  34.211  37.023   3.673
46171W        W11431  37.137   0.894  12.094
46172W        W11432  11.814  10.295  13.742
46173W        W11433   8.159   8.155  14.905
46174W        W11434   4.835   3.362   5.099
46175W        W11435  15.843  35.512   0.349
46176W        W11436  29.439  13.105  10.742
46177W        W11437  13.172  27.207   1.729
46178W        W11438  25.096  35.178  12.378
46179W        W11439  43.006  41.258  12.875
46180W        W11440  18.079  25.930   4.422
46181W        W11441  41.234   9.797  12.435
46182W        W11442  35.394  20.496  12.402
46183W        W11443   3.220   4.884  13.374
46184W        W11444  33.182  38.605  13.931
46185W        W11445  36.033   5.743  11.049
46186W        W11446  36.541  10.226  13.846
46187W        W11447  22.299  19.078  14.885
46188W        W11448  20.662  27.200   0.873
46189W        W11449  21.592  16.660   4.435
46190W        W11450   2.935   2.407  14.986
46191W        W11451  43.337   9.238  11.096
46192W        W11452  22.532  29.600   1.154
46193W        W11453  24.101  41.799  11.148
46194W        W11454   6.466  10.361  10.737
46195W        W11455   7.182  15.111  11.038
46196W        W11456  27.579  20.021  14.516
46197W        W11457  21.764  38.464  13.313
46198W        W11458  22.042  11.162   4.079
46199W        W11459  28.663  25.629  12.026
46200W        W11460   9.426  38.755   3.758
46201W        W11461   2.635  29.921   4.377
46202W        W11462  33.750   1.540   9.662
46203W        W11463  22.500  13.260  11.456
46204W        W11464  18.268  29.750  12.033
46205W        W11465  44.315   2.910  14.434
46206W        W11466  39.784  19.782   0.240
46207W        W11467  35.510   6.018   2.728
46208W        W11468  25.943  41.853  10.555
46209W        W11469  35.062  30.621  10.448
46210W        W11470  39.046   9.255   0.356
46211W        W11471  33.542  11.810   4.231
46212W        W11472  29.477  27.310   3.288
46213W        W11473  28.924   3.260   3.199
46214W        W11474  13.991  24.028  14.974
46215W        W11475  16.709  31.157  13.861
46216W        W11476  38.565  39.418   0.849
46217W        W11477  28.087  31.000   1.358
46218W        W11478  14.666  42.756   2.296
46219W        W11479   0.788  38.822  10.008
46220W        W11480  36.357   8.185  10.478
46221W        W11481  40.892  18.025  14.735
46222W        W11482  11.105  41.812   3.788
46223W        W11483   8.345  42.336  12.032
46224W        W11484  39.869  34.079   0.966
46225W        W11485   1.929  23.007  11.673
46226W        W11486   0.555  26.755  12.066
46227W        W11487  17.260  39.794  13.792
46228W        W11488  18.131  26.902   4.465
46229W        W11489   0.243  26.734  13.435
46230W        W11490  10.961  36.615  13.856
46231W        W11491  32.700  34.028   1.201
46232W        W11492  16.608  34.654   3.172
46233W        W11493  41.458  42.323   1.641
46234W        W11494  34.833   3.106   1.155
46235W        W11495  36.711  42.177  11.424
46236W        W11496  12.231   0.867  13.665
46237W        W11497  42.147  36.351   2.716
46238W        W11498  31.948   3.760   5.001
46239W        W11499  34.127  38.988   3.219
46240W        W11500  36.165  29.895  12.911
46241W        W11501  24.146  17.509  11.907
46242W        W11502  38.284   2.704   2.747
46243W        W11503   0.778  23.387   0.956
46244W        W11504  20.470  31.067   1.425
46245W        W11505  22.709  27.754   0.892
46246W        W11506  27.025  12.073   1.448
46247W        W11507   9.822  18.986   3.400
46248W        W11508  44.710  16.809  13.369
46249W        W11509  36.365  23.540   0.616
46250W        W11510   6.140   6.355  14.680
46251W        W11511  40.651  34.370  12.087
46252W        W11512  38.367   8.153  13.466
46253W        W11513  44.327  43.830  11.190
46254W        W11514   1.256  10.271  10.680
46255W        W11515  38.855  20.318   0.226
46256W        W11516   1.315  11.788  12.054
46257W        W11517  28.897  28.875  13.345
46258W        W11518  16.354   4.607   3.578
46259W        W11519  40.413   0.056   1.678
46260W        W11520  38.903  20.252  12.481
46261W        W11521  33.308  15.173   2.279
46262W        W11522   6.576  28.659   0.747
46263W        W11523   5.766  27.677  12.805
46264W        W11524  14.637  31.440  13.160
46265W        W11525  22.408  33.085   3.716
46266W        W11526   7.688  13.724   2.234
46267W        W11527  15.194  17.016   4.641
46268W        W11528   0.793   3.743  10.676
46269W        W11529  34.033  32.135  13.289
46270W        W11530  40.508  39.316   1.892
46271W        W11531  37.387  31.600  14.218
46272W        W11532  12.247  20.908   5.100
46273W        W11533  19.685  33.647   2.736
46274W        W11534  18.776  36.730  12.525
46275W        W11535  33.077  19.941   1.490
46276W        W11536  43.675  24.118   4.105
46277W        W11537   1.679  30.013  10.501
46278W        W11538  37.880  40.042  13.392
46279W        W11539  37.770  30.017  11.651
46280W        W11540  27.164  29.551   2.708
46281W        W11541  39.502  10.000   2.314
46282W        W11542  32.827   0.953  11.156
46283W        W11543  19.903  44.392   3.196
46284W        W11544  32.643  22.144  11.537
46285W        W11545  30.122  12.060   2.680
46286W        W11546   1.872  31.927   0.821
46287W        W11547  29.912  36.574   4.185
46288W        W11548  28.515  23.177  14.433
46289W        W11549  20.514   7.042   2.216
46290W        W11550  20.731   5.889  12.465
46291W        W11551  16.274  33.178   2.387
46292W        W11552  15.246  10.342   3.597
46293W        W11553  16.305  26.899   4.221
46294W        W11554   1.101  41.255   4.464
46295W        W11555  42.171  23.703   0.456
46296W        W11556  14.861  43.943  12.942
46297W        W11557  14.751   5.327   3.674
46298W        W11558  17.609  18.192   2.479
46299W        W11559  33.026  42.442   0.802
46300W        W11560  33.867  34.593  13.522
46301W        W11561   4.084  13.410  12.146
46302W        W11562  34.611  12.084   4.208
46303W        W11563  41.770  31.266   3.736
46304W        W11564   8.954  35.314  14.891
46305W        W11565  37.054  32.481   3.863
46306W        W11566  36.453  37.301  14.969
46307W        W11567  40.711  42.943   4.621
46308W        W11568  15.226   9.181   3.877
46309W        W11569   9.252  39.229   1.404
46310W        W11570  42.650  15.297  11.155
46311W        W11571  24.551  25.671   1.732
46312W        W11572  23.634  18.788   3.219
46313W        W11573  23.643  41.585  10.974
46314W        W11574   1.844  37.780   2.261
46315W        W11575  30.184  24.521   2.195
46316W        W11576   7.057  17.790   1.851
46317W        W11577  26.245   3.143  11.159
46318W        W11578  30.987  43.220   0.960
46319W        W11579  21.516  34.467  12.482
46320W        W11580  38.346  39.789  12.685
46321W        W11581  39.646  15.678   2.564
46322W        W11582   8.194  35.120   4.903
46323W        W11583   4.751   5.269  13.316
46324W        W11584  28.601  43.622   4.257
46325W        W11585  40.014   6.195   2.409
46326W        W11586   8.169  32.677  11.758
46327W        W11587  17.576   4.249  11.975
46328W        W11588  41.249  44.246  14.420
46329W        W11589  25.695   8.730   1.813
46330W        W11590  39.306  23.087  10.667
46331W        W11591   8.602  33.159  13.818
46332W        W11592  27.906  44.347   2.162
46333W        W11593  31.966  11.629  12.982
46334W        W11594  43.503  41.701   4.278
46335W        W11595   1.227  10.883   4.079
46336W        W11596  20.111  23.491  12.413
46337W        W11597  39.043  27.202  10.353
46338W        W11598  10.288  33.393   3.728
46339W        W11599  29.096  37.858  12.109
46340W        W11600  20.022   8.386  11.570
46341W        W11601  20.599  41.317  12.967
46342W        W11602  24.337  30.756   4.510
46343W        W11603   1.529   6.802  12.198
46344W        W11604  42.902   3.324   2.291
46345W        W11605  35.363  36.561  13.831
46346W        W11606  10.457  20.213   2.295
46347W        W11607  22.983  32.838   2.819
46348W        W11608   8.371   3.983  14.315
46349W        W11609  26.449  38.971  11.465
46350W        W11610   8.375  17.690   0.197
46351W        W11611  20.323  34.913  12.898
46352W        W11612  37.891  36.619  14.935
46353W        W11613  30.514  23.366   1.221
46354W        W11614  35.821   5.861   0.267
46355W        W11615   9.397  41.347   1.238
46356W        W11616  17.949  17.781   5.066
46357W        W11617   3.681  25.551  14.227
46358W        W11618   7.902   6.357  11.186
46359W        W11619  35.188   6.331   2.419
46360W        W11620  14.219   0.708   3.609
46361W        W11621  18.622  40.451  14.518
46362W        W11622  33.576  26.242  13.566
46363W        W11623   0.820  28.396   0.444
46364W        W11624  23.314  32.903   4.609
46365W        W11625  29.590   3.838  14.505
46366W        W11626  22.753  32.439   1.198
46367W        W11627  40.207  12.630  13.869
46368W        W11628   2.263  19.184   3.892
46369W        W11629  33.869  37.092  13.910
46370W        W11630  33.714  22.543   1.265
46371W        W11631   1.963  37.916  12.065
46372W        W11632   8.499  15.501   2.351
46373W        W11633  18.089  15.295   4.341
46374W        W11634  30.708   6.823   3.689
46375W        W11635   7.413  21.785   3.830
46376W        W11636  38.942  17.096  14.391
46377W        W11637  40.973  39.543   0.934
46378W        W11638   5.913  10.116  11.996
46379W        W11639  32.829   2.804   3.369
46380W        W11640  43.301  35.329  13.466
46381W        W11641  24.697  37.640   1.326
46382W        W11642  44.829  27.643  14.214
46383W        W11643  26.669  25.462   0.443
46384W        W11644   9.641  32.924  11.176
46385W        W11645  38.065  21.105  14.336
46386W        W11646  26.641   0.880   2.421
46387W        W11647   6.122  16.752   2.173
46388W        W11648   0.472  43.030   3.518
46389W        W11649  21.035  38.029  11.537
46390W        W11650   1.374   8.682   1.277
46391W        W11651  35.919  43.631   1.196
46392W        W11652   1.941  25.199  12.092
46393W        W11653  43.714  13.439  11.176
46394W        W11654  26.017  22.219   3.358
46395W        W11655   2.347   9.677  11.009
46396W        W11656   1.325   9.221  13.902
46397W        W11657  11.600  30.191   0.001
46398W        W11658   2.178   7.460  14.319
46399W        W11659  44.240   2.113   3.417
46400W        W11660  21.485   4.143   5.403
46401W        W11661   0.579  40.356   3.126
46402W        W11662  15.705  31.414  13.126
46403W        W11663  38.523   5.197   4.759
46404W        W11664   3.097   4.032   0.422
46405W        W11665  15.130  42.576   4.869
46406W        W11666   3.489  28.682  14.394
46407W        W11667  27.833  38.260   2.145
46408W        W11668  29.025  24.466  14.434
46409W        W11669   6.371  18.489  13.020
46410W        W11670   1.192  37.443  11.575
46411W        W11671  13.706  40.196   0.462
46412W        W11672  10.454  40.942  11.586
46413W        W11673  13.599  44.818  14.785
46414W        W11674  16.156  30.160   4.827
46415W        W11675  16.342  20.552  12.961
46416W        W11676   8.138  35.431  12.464
46417W        W11677  37.646  14.719   1.362
46418W        W11678  12.496  17.771  12.970
46419W        W11679  27.569  21.787   0.787
46420W        W11680  42.019  42.071  13.084
46421W        W11681  41.082  39.027   3.332
46422W        W11682   3.384  38.461  13.514
46423W        W11683   8.642  13.403   0.722
46424W        W11684  29.944  28.689   2.779
46425W        W11685   9.201  10.744  12.512
46426W        W11686  15.133  18.244   2.620
46427W        W11687  39.759   9.861  12.103
46428W        W11688  41.525  10.133   3.753
46429W        W11689  19.599   4.356  13.556
46430W        W11690  33.974  18.215   3.443
46431W        W11691  28.768  14.716   2.546
46432W        W11692   4.960  28.534  11.192
46433W        W11693  25.980   9.461   2.131
46434W        W11694  19.631  41.432   4.839
46435W        W11695   1.815   0.024   3.194
46436W        W11696  32.830  41.486  13.213
46437W        W11697  12.345  39.084  12.463
46438W        W11698  27.570  21.452   3.953
46439W        W11699  30.500  39.038   3.304
46440W        W11700   5.365  15.614  14.785
46441W        W11701  38.407  20.505  11.333
46442W        W11702  21.649   2.869  11.968
46443W        W11703  43.246  30.492   2.488
46444W        W11704  30.612  14.630  12.037
46445W        W11705  21.953  13.906   3.754
46446W        W11706   5.232  21.155  10.692
46447W        W11707  42.540  44.246  14.005
46448W        W11708   4.972  28.604   0.235
46449W        W11709   6.787  43.295   4.522
46450W        W11710  25.460  23.523  10.980
46451W        W11711  33.494  14.242   2.788
46452W        W11712  24.904  42.795   0.631
46453W        W11713  39.035  25.095  10.043
46454W        W11714  29.849  17.236  11.886
46455W        W11715   8.096  11.154  13.364
46456W        W11716  40.830  19.341  11.648
46457W        W11717  33.614   9.721   0.408
46458W        W11718   1.544   1.751  11.334
46459W        W11719  15.814  19.762  12.878
46460W        W11720  44.987  14.625  11.763
46461W        W11721  10.169   4.863  14.749
46462W        W11722  31.153  11.486   4.065
46463W        W11723   2.159  16.341  14.873
46464W        W11724  44.805  41.009  12.856
46465W        W11725   2.879  12.499  12.058
46466W        W11726  28.094   0.976  12.895
46467W        W11727  37.192   5.088  10.829
46468W        W11728  41.910   9.775   4.697
46469W        W11729   4.700  21.191  12.929
46470W        W11730  27.192  13.927   4.514
46471W        W11731  32.627   0.223   4.214
46472W        W11732  28.144  13.565   0.487
46473W        W11733  14.817  25.468  13.821
46474W        W11734  12.898  19.947  13.023
46475W        W11735  20.842   5.252  13.075
46476W        W11736  20.132  30.938   1.815
46477W        W11737   7.836  31.926   4.517
46478W        W11738  44.849  20.141  14.417
46479W        W11739  20.086  16.025  14.520
46480W        W11740  35.573  44.376   4.014
46481W        W11741  31.965  33.345  10.392
46482W        W11742  31.667  36.880   1.406
46483W        W11743  29.007  31.050   3.139
46484W        W11744   9.602   8.893  11.743
46485W        W11745  44.350  19.169  14.010
46486W        W11746   7.222  41.511  11.247
46487W        W11747  40.912  32.817  12.126
46488W        W11748  14.674   4.114  12.112
46489W        W11749  14.707  34.644   1.842
46490W        W11750  38.884  40.951   4.132
46491W        W11751  13.090  44.733   3.502
46492W        W11752  31.592  21.204   3.141
46493W        W11753   9.859  16.599  12.150
46494W        W11754   6.784   1.554   2.877
46495W        W11755  39.918  38.309  11.102
46496W        W11756  27.724  12.082   1.196
46497W        W11757  28.710   0.413  11.831
46498W        W11758   3.336  35.851   0.982
46499W        W11759  11.140  27.756  13.777
46500W        W11760  43.299  42.879   3.319
46501W        W11761  36.250  28.289   0.941
46502W        W11762  33.932   0.018  14.059
46503W        W11763  42.002  26.723  10.608
46504W        W11764  42.624  31.648  12.075
46505W        W11765  36.074  29.978   4.116
46506W        W11766  28.710  23.469   3.627
46507W        W11767  26.118  40.443   2.671
46508W        W11768  22.753  22.961   2.371
46509W        W11769  14.688   0.728   3.345
46510W        W11770  23.818  24.309   1.165
46511W        W11771  29.619  29.153  13.976
46512W        W11772  23.681  14.600   1.664
46513W        W11773  34.719  31.971  14.949
46514W        W11774   0.217  42.109  14.729
46515W        W11775   0.038  29.434  13.048
46516W        W11776  12.446  28.625  10.723
46517W        W11777  35.026  39.136  14.477
46518W        W11778  24.284   6.743   0.112
46519W        W11779   5.173  43.313  10.598
46520W        W11780   0.944  42.248   1.248
46521W        W11781  30.132  37.861  13.002
46522W        W11782  22.430  29.341  11.769
46523W        W11783   4.688  10.408   2.294
46524W        W11784  21.266  38.964   2.605
46525W        W11785  10.249  22.297  14.461
46526W        W11786  24.298   2.909  12.502
46527W        W11787  24.017  27.548   2.326
46528W        W11788   9.647  19.976  13.058
46529W        W11789  13.681  24.851   2.498
46530W        W11790  43.260  16.248  11.923
46531W        W11791  29.449  25.226  11.534
46532W        W11792  43.932  23.011  12.572
46533W        W11793  31.569  15.758   4.238
46534W        W11794  16.826   1.862   3.877
46535W        W11795  30.304  26.931  14.179
46536W        W11796  41.988  14.042  14.369
46537W        W11797  37.812  27.927   2.432
46538W        W11798  17.169   8.292  10.968
46539W        W11799   2.181   2.357  12.461
46540W        W11800  10.303  33.809  11.086
46541W        W11801  30.899  31.439   1.656
46542W        W11802  11.270  36.267  13.535
46543W        W11803  14.495  39.621   3.662
46544W        W11804  27.031  44.761   2.304
46545W        W11805  41.306  35.999  11.611
46546W        W11806  37.389  42.507   4.659
46547W        W11807  30.552   0.471   2.443
46548W        W11808  34.924  15.120   3.222
46549W        W11809  38.579  17.189  13.533
46550W        W11810   2.442   1.272   2.165
46551W        W11811  23.511  22.803  11.148
46552W        W11812  16.494  40.493  14.398
46553W        W11813  19.661  33.084  10.748
46554W        W11814  20.218   5.797  10.778
46555W        W11815  32.992  22.605  14.816
46556W        W11816  10.309  29.667  11.206
46557W        W11817  16.801  19.074  14.608
46558W        W11818  24.295  24.829   4.943
46559W        W11819  31.869   4.455   4.554
46560W        W11820   4.889   7.211   1.261
46561W        W11821  43.757  35.551   2.876
46562W        W11822  44.694  42.420   0.336
46563W        W11823  17.230   8.766  12.526
46564W        W11824   6.919  27.897  12.663
46565W        W11825  33.483   2.275  11.610
46566W        W11826   1.888  21.829   1.785
46567W        W11827   1.742  12.865   0.344
46568W        W11828  34.263  39.454  10.903
46569W        W11829  22.278   9.181   3.236
46570W        W11830   2.302  20.275  10.635
46571W        W11831   6.634  36.792  13.029
46572W        W11832  13.238  19.510  13.552
46573W        W11833   9.945   0.570   4.487
46574W        W11834   2.366  35.212  11.537
46575W        W11835  34.960  34.889  12.331
46576W        W11836   8.695   0.744  12.886
46577W        W11837  44.063  29.009  13.300
46578W        W11838  15.883  27.965  13.008
46579W        W11839  41.403  30.535   0.177
46580W        W11840   5.124  36.274  11.621
46581W        W11841  38.377   5.815  14.878
46582W        W11842   1.574  32.056  11.053
46583W        W11843  34.956  24.477   1.541
46584W        W11844  14.875  38.568   5.077
46585W        W11845   1.214  42.804   1.815
46586W        W11846  13.199  27.014   3.339
46587W        W11847  42.465  26.404  10.690
46588W        W11848  16.098   3.252   0.779
46589W        W11849  44.417  25.004  14.418
46590W        W11850  11.692   2.635  11.900
46591W        W11851  24.235  20.044   3.198
46592W        W11852  37.184  11.663   0.801
46593W        W11853  30.901   5.381   3.804
46594W        W11854  12.108  11.935  11.350
46595W        W11855  16.845  30.088   2.777
46596W        W11856  22.292  32.661   0.307
46597W        W11857  27.913  44.877  11.539
46598W        W11858  32.683   5.398   1.338
46599W        W11859  11.726  37.580  14.300
46600W        W11860  42.149  25.022  14.441
46601W        W11861  23.358  26.945   4.950
46602W        W11862  40.809  10.934   2.833
46603W        W11863  37.829  40.411   4.818
46604W        W11864  22.159  10.244   2.594
46605W        W11865  41.634   6.402   2.655
46606W        W11866  15.238   3.111  11.488
46607W        W11867   8.152  19.355  10.691
46608W        W11868  17.561  32.825  12.169
46609W        W11869  37.496  36.843  14.618
46610W        W11870  33.651   2.963  11.015
46611W        W11871  44.451  30.720   2.586
46612W        W11872  11.153  32.497  10.336
46613W        W11873  19.635  21.462  13.361
46614W        W11874   6.473  14.455  13.271
46615W        W11875  40.829  21.545  13.969
46616W        W11876  29.217  33.125  13.324
46617W        W11877  27.275  31.034   0.273
46618W        W11878   0.749  44.313  11.564
46619W        W11879  36.395  11.460   0.847
46620W        W11880  30.760  31.777  10.392
46621W        W11881  21.409  20.088   9.913
46622W        W11882  39.905  41.951   3.606
46623W        W11883  13.664   9.896   1.446
46624W        W11884  23.641  33.612   3.295
46625W        W11885  44.719  25.299  11.207
46626W        W11886  20.570  22.141   4.258
46627W        W11887  32.508  10.419   0.025
46628W        W11888  19.781  12.654   2.384
46629W        W11889  24.488  38.540   2.029
46630W        W11890  20.711  19.667   3.425
46631W        W11891   7.613   9.320   0.370
46632W        W11892  18.517  42.102   1.786
46633W        W11893  12.552  17.213   4.235
46634W        W11894  25.760   2.661   3.681
46635W        W11895  39.525  39.584   2.715
46636W        W11896   1.772  13.114  12.996
46637W        W11897  10.474  24.196   4.004
46638W        W11898  26.579  21.668  10.963
46639W        W11899   9.216   9.077  10.822
46640W        W11900  32.155  28.426  14.151
46641W        W11901   1.871  16.383  14.420
46642W        W11902  40.491  31.893  12.046
46643W        W11903  22.993  43.984  13.252
46644W        W11904  43.215  44.487  13.379
46645W        W11905   5.744  11.693  10.592
46646W        W11906  14.712  32.095   1.825
46647W        W11907  10.058  16.608  10.967
46648W        W11908   6.351   8.726   2.163
46649W        W11909  16.563  38.088  10.577
46650W        W11910   0.886  22.054   1.162
46651W        W11911  32.500  13.830  14.272
46652W        W11912  15.157  35.180  13.832
46653W        W11913  35.351  22.313   0.604
46654W        W11914  19.636   9.262  11.073
46655W        W11915  36.503   2.952   2.315
46656W        W11916  20.237   3.906   3.182
46657W        W11917  35.815  18.807  12.503
46658W        W11918  23.698   0.969  14.324
46659W        W11919   1.786  11.141   9.793
46660W        W11920  35.883   1.927   0.456
46661W        W11921  17.292  14.893  13.008
46662W        W11922  20.090   4.969   3.278
46663W        W11923  31.072   4.625   3.170
46664W        W11924  31.492   2.047   4.696
46665W        W11925  28.324  15.814   3.831
46666W        W11926   2.101  31.795   3.249
46667W        W11927  40.164   8.833  11.697
46668W        W11928  34.033   9.298   4.505
46669W        W11929  42.282  17.673  10.748
46670W        W11930   6.670  44.795   1.798
46671W        W11931  43.838  10.952   2.190
46672W        W11932   3.016  25.521   1.570
46673W        W11933  24.639  44.779   0.861
46674W        W11934  32.867  30.204   1.123
46675W        W11935   7.738  32.867  14.386
46676W        W11936  13.948  41.741   0.280
46677W        W11937  18.294  13.685  11.145
46678W        W11938  25.785  34.076  14.416
46679W        W11939   4.917  40.485   4.552
46680W        W11940  41.949  42.533   1.553
46681W        W11941  14.350   3.183   4.362
46682W        W11942  35.773  28.982   1.598
46683W        W11943   2.508  32.967   3.153
46684W        W11944  38.717  40.814   1.870
46685W        W11945   9.932  12.389  14.193
46686W        W11946  40.990  16.526   2.823
46687W        W11947  44.352   9.433   3.594
46688W        W11948   7.756   2.431  11.226
46689W        W11949  15.207  37.972   0.875
46690W        W11950  34.113  31.680   3.398
46691W        W11951   6.350  21.961  14.874
46692W        W11952  26.183  20.983  13.740
46693W        W11953  34.988  29.171  12.091
46694W        W11954  14.767  25.259   3.074
46695W        W11955  21.719  12.530  14.100
46696W        W11956   7.848  44.886  10.930
46697W        W11957  22.186  36.953   1.663
46698W        W11958  24.979  16.677   0.510
46699W        W11959  26.942   1.113   2.772
46700W        W11960  27.531   8.723  10.593
46701W        W11961   0.451   1.887   3.675
46702W        W11962  35.889  20.267   0.501
46703W        W11963  43.997  42.499  14.252
46704W        W11964   4.065  33.578   2.831
46705W        W11965  44.384  18.054  12.474
46706W        W11966  13.279  40.597  10.567
46707W        W11967  23.593  37.705   5.102
46708W        W11968  30.443  11.806  13.055
46709W        W11969  17.169  12.195  12.493
46710W        W11970  38.770  34.669   4.123
46711W        W11971  18.110  15.875   4.176
46712W        W11972  16.314  31.164  11.121
46713W        W11973  26.966  40.823   2.645
46714W        W11974   8.608  37.493   4.415
46715W        W11975  14.650  23.276  11.983
46716W        W11976  10.513   8.852  12.799
46717W        W11977  21.721  34.954  12.395
46718W        W11978   6.245   8.246  12.354
46719W        W11979  29.998  42.380  10.685
46720W        W11980  12.153  27.504  14.793
46721W        W11981   5.000  22.838  14.960
46722W        W11982   8.759  12.284   4.565
46723W        W11983  28.136  11.165   3.002
46724W        W11984   0.393  31.222   2.366
46725W        W11985  11.962   1.304   0.823
46726W        W11986  31.992  23.932  12.596
46727W        W11987  32.430   4.720   2.060
46728W        W11988  32.076  42.049  13.894
46729W        W11989   1.579  24.013   4.525
46730W        W11990  17.064  40.792  12.105
46731W        W11991  18.359  43.271   4.100
46732W        W11992   8.362   4.441   2.289
46733W        W11993   4.636  12.818   2.468
46734W        W11994  36.974  31.271  13.328
46735W        W11995   3.333  14.050   1.705
46736W        W11996  33.055  12.546   3.761
46737W        W11997  19.792  32.145  14.218
46738W        W11998  30.085  41.745  14.428
46739W        W11999  18.978  31.629  13.752
46740W        W12000  28.541  30.153  13.558
46741W        W12001   3.008  37.035  11.453
46742W        W12002  24.495  34.405  11.892
46743W        W12003   0.675  19.660   0.570
46744W        W12004  28.539   7.114  12.556
46745W        W12005  16.793  39.329  10.576
46746W        W12006   9.056  31.950   0.425
46747W        W12007  36.561  35.081   1.396
46748W        W12008  23.613  24.005   0.166
46749W        W12009  40.948   4.936  14.891
46750W        W12010  22.157  29.016   4.685
46751W        W12011  28.544  17.592   3.667
46752W        W12012   0.133  21.005   1.733
46753W        W12013  25.365  33.669   2.472
46754W        W12014  15.177  14.732   4.510
46755W        W12015   2.233   8.645   3.434
46756W        W12016   6.764  14.120  13.003
46757W        W12017  18.928  33.444  10.706
46758W        W12018   5.842  39.337  14.430
46759W        W12019   5.699  16.330   3.037
46760W        W12020  44.294  13.930  10.717
46761W        W12021  11.262   8.840   2.314
46762W        W12022  34.745  17.185  11.331
46763W        W12023  31.982  21.054  13.305
46764W        W12024  14.084   4.828   3.147
46765W        W12025  17.768  21.196   1.272
46766W        W12026  10.307  36.849  11.075
46767W        W12027   8.869  10.568  12.920
46768W        W12028  31.401  34.353  11.439
46769W        W12029  35.558  44.721   0.786
46770W        W12030  19.734   7.817  12.855
46771W        W12031   7.367  43.271   3.857
46772W        W12032   1.326  19.417   2.777
46773W        W12033  12.649  13.566   3.269
46774W        W12034  32.510  33.919   1.659
46775W        W12035  42.624  31.496  11.119
46776W        W12036  11.766  35.955   1.094
46777W        W12037  13.626   5.395   1.592
46778W        W12038   4.752   4.869  14.382
46779W        W12039  35.479   8.156  11.457
46780W        W12040  36.609   3.307   2.821
46781W        W12041  10.407   2.278  10.374
46782W        W12042  29.723  32.114   2.327
46783W        W12043  30.368  17.120  13.694
46784W        W12044  24.633   3.162  13.384
46785W        W12045   2.370  14.631   4.094
46786W        W12046   7.251   8.408   2.636
46787W        W12047  33.508  30.970  14.901
46788W        W12048  23.870  30.620   2.324
46789W        W12049   5.682  39.817  10.657
46790W        W12050  17.700  11.364   3.115
46791W        W12051  27.514  43.214   2.175
46792W        W12052  37.036  28.202   4.164
46793W        W12053  22.390  15.304  14.777
46794W        W12054  29.796  16.865   4.647
46795W        W12055  24.759  40.004  11.097
46796W        W12056  29.211  35.303  13.017
46797W        W12057  15.305  41.113  10.559
46798W        W12058  14.118   1.547   1.420
46799W        W12059  22.195   6.311  13.471
46800W        W12060  28.698  36.082  10.691
46801W        W12061  23.202  25.992  13.352
46802W        W12062  36.443  33.052   4.157
46803W        W12063  13.711   0.710   1.350
46804W        W12064  11.817  24.648   4.468
46805W        W12065   0.440  19.312   0.291
46806W        W12066   5.662  43.291   3.201
46807W        W12067   0.932  15.814   3.334
46808W        W12068  16.302  18.930  13.328
46809W        W12069  32.651   7.337   2.353
46810W        W12070  31.808  25.289  13.422
46811W        W12071  17.593  29.904   3.228
46812W        W12072  15.179  23.151   1.897
46813W        W12073  23.503  37.370  11.672
46814W        W12074   6.839  26.450   0.462
46815W        W12075  41.852  25.995  11.561
46816W        W12076  17.565   9.728  10.512
46817W        W12077  20.772  38.814  14.947
46818W        W12078   6.200  39.302   3.023
46819W        W12079  38.255   4.245   1.841
46820W        W12080   2.913  34.036  12.111
46821W        W12081  13.254  22.207   3.828
46822W        W12082  38.937  44.498   1.913
46823W        W12083  24.508   1.506   1.279
46824W        W12084  26.680   1.891   2.186
46825W        W12085  27.107  29.765   4.029
46826W        W12086  28.193  40.511  13.258
46827W        W12087  34.977  32.634   0.703
46828W        W12088  44.040   1.869  11.637
46829W        W12089   9.403  26.691  12.521
46830W        W12090   3.744  37.412  14.893
46831W        W12091  22.032   8.587   1.168
46832W        W12092   4.812  13.656  13.852
46833W        W12093  38.870  40.054  11.067
46834W        W12094   2.525  23.077  13.908
46835W        W12095  18.545  28.634   4.536
46836W        W12096  22.585  39.021   4.029
46837W        W12097  19.316  43.327  14.493
46838W        W12098   9.012   8.892  12.597
46839W        W12099  42.075  30.561   0.765
46840W        W12100  11.365  42.898   2.840
46841W        W12101  28.394  29.967  13.041
46842W        W12102  42.018   4.871   0.438
46843W        W12103  41.289   7.804   1.195
46844W        W12104   8.913  14.993  10.791
46845W        W12105  18.203  24.244   0.810
46846W        W12106   6.163  26.999  11.546
46847W        W12107  11.736  26.259  13.079
46848W        W12108  16.375  33.015  11.122
46849W        W12109   0.577  21.761   0.178
46850W        W12110  40.034  23.056   3.703
46851W        W12111  21.328  27.014  14.579
46852W        W12112  23.637  28.543   3.665
46853W        W12113  11.200  26.720  12.559
46854W        W12114  36.268  43.402   3.110
46855W        W12115  28.764  12.469   4.582
46856W        W12116  13.412  42.038  11.341
46857W        W12117   4.294  23.200   0.864
46858W        W12118  21.452  32.557  14.894
46859W        W12119  34.506  25.719   3.243
46860W        W12120   7.954  23.098   2.374
46861W        W12121   6.410  42.480   1.264
46862W        W12122  13.860   6.358   2.815
46863W        W12123  36.999  32.168  10.201
46864W        W12124  18.776   0.495   0.491
46865W        W12125  38.364  36.817  14.994
46866W        W12126  25.609  39.852   5.090
46867W        W12127  42.052  19.143  13.092
46868W        W12128   7.345  27.500  11.104
46869W        W12129  20.159  18.260  12.699
46870W        W12130  19.296  24.305  11.126
46871W        W12131  26.727  42.422   3.237
46872W        W12132  37.379  19.362  11.035
46873W        W12133  41.764  18.282  13.674
46874W        W12134   0.816  35.256  12.847
46875W        W12135  19.579   1.322   1.890
46876W        W12136  14.849  31.679  12.139
46877W        W12137  24.783  26.965   1.172
46878W        W12138  18.503  14.869   0.362
46879W        W12139  25.713  10.827  14.920
46880W        W12140  30.481   1.784   0.318
46881W        W12141  36.563  23.571   1.261
46882W        W12142  22.574  26.605   2.638
46883W        W12143  25.733  18.504  14.770
46884W        W12144  31.911   2.728   0.988
46885W        W12145  30.601  37.657  12.901
46886W        W12146  16.853   0.485  12.566
46887W        W12147  36.839   1.171  14.339
46888W        W12148  42.227  32.550  11.828
46889W        W12149  29.941  27.803  11.078
46890W        W12150  34.146  34.793  13.946
46891W        W12151  28.708  24.837   3.753
46892W        W12152  13.565   5.874  13.507
46893W        W12153  16.406   1.449  10.648
46894W        W12154   6.784  20.588  12.674
46895W        W12155  26.323  36.595   0.083
46896W        W12156  44.365  31.298  11.306
46897W        W12157  25.920  11.314  14.418
46898W        W12158   7.917  17.341   1.635
46899W        W12159  18.109   2.963  10.794
46900W        W12160  30.442  13.030   2.037
46901W        W12161  35.129  24.139  11.320
46902W        W12162  27.656  38.952  13.806
46903W        W12163  44.114  38.936   2.612
46904W        W12164   8.541  30.493   5.011
46905W        W12165  37.524  10.364  11.598
46906W        W12166   6.642   7.341  14.778
46907W        W12167  33.679  27.472  14.948
46908W        W12168  10.717  27.637  12.112
46909W        W12169  26.066  44.646   2.313
46910W        W12170  13.731  15.100   2.884
46911W        W12171  19.331  25.204   2.737
46912W        W12172  16.715  44.297  12.974
46913W        W12173  38.768  21.337   4.149
46914W        W12174   2.927   3.441   3.948
46915W        W12175  14.167  18.114  13.697
46916W        W12176   3.258  15.605   3.771
46917W        W12177  14.332  17.772   2.736
46918W        W12178  44.796  32.124  12.953
46919W        W12179  37.094   8.870  13.529
46920W        W12180  13.610  17.689  12.527
46921W        W12181  21.933  22.581   4.225
46922W        W12182   1.778   4.902  10.115
46923W        W12183  42.547   6.842  13.854
46924W        W12184  23.579   5.520   3.203
46925W        W12185  12.354   1.690   1.650
46926W        W12186   5.674  30.505  11.638
46927W        W12187  30.907  31.481  13.804
46928W        W12188  13.048  17.684  10.981
46929W        W12189  42.194   8.957  10.243
46930W        W12190  35.665  25.065   3.308
46931W        W12191  37.784  38.527   3.856
46932W        W12192  30.218  13.734   1.584
46933W        W12193  24.700  33.966   2.326
46934W        W12194   1.184  18.594  12.519
46935W        W12195  35.102  44.408  14.882
46936W        W12196   3.745  26.434   2.805
46937W        W12197   3.945  40.297   2.251
46938W        W12198  24.443  38.886  13.522
46939W        W12199  22.382  36.866   0.922
46940W        W12200  20.322  13.961  11.063
46941W        W12201   3.192  30.021  11.088
46942W        W12202  25.202  38.451  11.924
46943W        W12203  32.868  15.233  14.473
46944W        W12204  32.535  25.540  12.050
46945W        W12205   4.875  26.997   0.401
46946W        W12206  33.411  28.608  11.249
46947W        W12207  19.307  38.482  14.925
46948W        W12208  25.529   3.488   3.218
46949W        W12209  40.999  31.567  14.727
46950W        W12210  42.276  14.574  14.411
46951W        W12211  43.393  21.565   0.047
46952W        W12212  34.105  30.848  14.353
46953W        W12213  32.481  18.214  11.301
46954W        W12214  44.619  42.682  11.722
46955W        W12215  12.934   4.737  14.073
46956W        W12216  15.660  34.812   4.572
46957W        W12217  33.339   0.598   5.378
46958W        W12218  22.010   1.998   2.099
46959W        W12219  40.561  18.256   2.414
46960W        W12220  24.725  30.753  14.486
46961W        W12221  17.262   1.793  14.786
46962W        W12222  25.801   8.656  11.905
46963W        W12223  42.062  42.933   2.485
46964W        W12224  29.997  25.217   3.359
46965W        W12225  41.917   4.011  13.897
46966W        W12226  44.576  13.663  14.838
46967W        W12227  22.680  13.598   0.518
46968W        W12228  14.813   1.502  13.510
46969W        W12229  19.270  28.559   1.204
46970W        W12230  32.588  39.454  12.500
46971W        W12231  43.720  16.608  11.501
46972W        W12232   7.937  16.072  13.238
46973W        W12233   2.642  43.378  14.185
46974W        W12234  32.095  27.667  14.436
46975W        W12235  44.299  35.019   1.497
46976W        W12236  15.911  43.666   1.360
46977W        W12237  41.510  19.820  14.982
46978W        W12238  15.834  41.726   1.316
46979W        W12239  23.006  18.899   2.072
46980W        W12240   5.457  44.461   3.711
46981W        W12241  17.147  26.896   2.298
46982W        W12242  26.952  14.416   2.720
46983W        W12243  14.311  39.023  11.624
46984W        W12244  34.689  22.170  11.969
46985W        W12245  34.533  41.780   2.764
46986W        W12246  37.542  12.551  10.791
46987W        W12247  21.064  20.818  10.150
46988W        W12248  33.078  38.836  11.151
46989W        W12249   2.321   0.447  11.359
46990W        W12250  28.253  24.166   4.005
46991W        W12251  28.472  24.801   1.400
46992W        W12252   0.845   7.923  12.133
46993W        W12253  30.118  24.446  12.090
46994W        W12254  12.817  39.319  10.562
46995W        W12255  32.672  22.713   0.225
46996W        W12256  15.667  12.429  10.445
46997W        W12257  16.906  23.649  13.315
46998W        W12258  17.633  21.206  11.302
46999W        W12259  32.560  15.778  12.169
47000W        W12260  44.678  13.369   1.346
47001W        W12261   9.251  36.791   1.751
47002W        W12262   5.636  23.702  13.855
47003W        W12263  31.058  42.484  10.757
47004W        W12264  38.873  11.665  11.724
47005W        W12265  16.861  21.456  11.593
47006W        W12266  12.272  27.813   1.234
47007W        W12267  37.038  10.618  14.873
47008W        W12268  28.803  28.629  10.772
47009W        W12269   1.725   3.852   2.141
47010W        W12270  28.296   5.294   0.723
47011W        W12271   5.882  33.154  12.506
47012W        W12272  40.504  13.327   2.177
47013W        W12273   2.341   7.568  11.907
47014W        W12274  23.935  10.574   2.860
47015W        W12275  28.247  19.123  14.321
47016W        W12276   6.236  35.112  12.974
47017W        W12277  27.941   3.868  11.004
47018W        W12278  10.798  30.449  11.824
47019W        W12279   9.348  21.839   1.810
47020W        W12280  11.391  18.050  10.829
47021W        W12281  35.346   1.937  12.418
47022W        W12282   6.811  39.664   0.937
47023W        W12283  25.560  30.206  12.944
47024W        W12284  11.052  40.301  11.136
47025W        W12285  25.041  14.511   1.841
47026W        W12286  17.807  35.028  14.400
47027W        W12287   1.290  15.569   3.653
47028W        W12288   4.815  27.962  12.409
47029W        W12289  12.834   1.154   4.255
47030W        W12290  18.724  32.114   5.258
47031W        W12291  27.402  16.676   2.448
47032W        W12292  38.247  19.610  11.230
47033W        W12293  18.966   8.937   0.080
47034W        W12294  10.719  20.748  10.856
47035W        W12295   7.214  44.243  10.739
47036W        W12296   3.192  20.357  14.529
47037W        W12297  34.909  11.206  13.989
47038W        W12298  10.211  31.272   5.406
47039W        W12299  41.999  19.817   1.667
47040W        W12300  12.276  20.658  11.096
47041W        W12301   5.220  43.004   2.381
47042W        W12302  18.564  28.581   4.024
47043W        W12303  30.621  16.185  14.073
47044W        W12304   7.730  19.762  14.992
47045W        W12305  12.740  11.705   2.275
47046W        W12306   4.298  40.830   3.725
47047W        W12307  34.012  40.450   3.640
47048W        W12308  32.423  19.598   0.621
47049W        W12309  18.837  15.185   3.667
47050W        W12310  22.742  35.840   1.954
47051W        W12311  35.625   4.794  13.274
47052W        W12312  43.298  15.560  14.971
47053W        W12313  17.834  43.780  13.473
47054W        W12314  14.584  33.344  14.922
47055W        W12315  41.339  27.992   0.047
47056W        W12316  12.869  40.842   0.489
47057W        W12317  20.821  30.123   1.206
47058W        W12318   1.783  44.516   1.374
47059W        W12319  23.741   1.117  11.167
47060W        W12320  37.122  35.772   2.930
47061W        W12321   9.124  11.833  10.212
47062W        W12322  44.654  21.095   1.905
47063W        W12323  11.946  40.077  12.763
47064W        W12324  19.758  39.005   1.732
47065W        W12325  24.430  35.435   0.802
47066W        W12326   8.209  13.605   1.438
47067W        W12327  35.607  34.033   1.715
47068W        W12328   8.158  29.134  12.493
47069W        W12329  13.077   3.278   3.605
47070W        W12330   5.981  34.522  11.431
47071W        W12331  40.964  36.552  13.309
47072W        W12332  41.453  42.005   2.170
47073W        W12333  35.635   3.800   0.558
47074W        W12334   9.689  11.717   3.809
47075W        W12335   1.473  13.172  14.895
47076W        W12336  36.534  35.955   4.229
47077W        W12337  32.325   3.207  13.563
47078W        W12338   1.747  29.117   2.723
47079W        W12339  15.368  24.298  10.747
47080W        W12340  44.407   0.844  13.406
47081W        W12341   8.619   9.446   4.066
47082W        W12342  24.394  36.250  14.392
47083W        W12343   0.001  30.250  13.497
47084W        W12344  36.379  44.194   4.041
47085W        W12345   2.595  12.814   1.877
47086W        W12346  21.348  25.693  11.666
47087W        W12347  43.462   9.278   3.662
47088W        W12348  34.366   5.148  11.829
47089W        W12349  33.985  21.472  11.588
47090W        W12350   2.675  17.343  12.991
47091W        W12351  11.753   5.548   5.390
47092W        W12352  11.572  11.126   4.456
47093W        W12353   3.839  41.767  14.831
47094W        W12354  32.926  27.539   0.283
47095W        W12355   5.420  14.966   2.031
47096W        W12356  19.003   9.871  13.446
47097W        W12357   4.160  26.154   5.367
47098W        W12358  32.732  24.114   2.603
47099W        W12359  41.764  10.711  11.203
47100W        W12360  42.649  12.194  12.270
47101W        W12361  37.533  23.166   1.240
47102W        W12362  31.525  37.586  13.953
47103W        W12363  15.577  29.697   2.862
47104W        W12364  28.408  28.156   2.826
47105W        W12365  23.679  39.504  13.299
47106W        W12366  11.669  23.050   3.391
47107W        W12367  40.954  24.476   2.923
47108W        W12368  22.589   7.795   1.981
47109W        W12369   7.176  32.892  13.819
47110W        W12370  22.536  44.037  13.514
47111W        W12371  14.571  22.451   1.727
47112W        W12372   0.983  13.497   0.015
47113W        W12373  25.565  29.852  12.560
47114W        W12374  36.146  40.386  14.487
47115W        W12375   8.332  10.315  11.133
47116W        W12376  40.030  10.809  12.031
47117W        W12377  42.446  24.011  11.925
47118W        W12378  28.254  34.632  13.834
47119W        W12379  16.904  32.873   3.171
47120W        W12380  34.387  36.305   0.460
47121W        W12381   6.233  25.048  13.320
47122W        W12382  25.693  35.593   2.236
47123W        W12383   7.743  15.148  13.350
47124W        W12384  20.975   0.290  12.903
47125W        W12385  17.064   0.046  12.434
47126W        W12386   6.309  36.915  13.591
47127W        W12387  22.891  41.929  13.845
47128W        W12388  13.766  34.663   2.349
47129W        W12389  38.877  33.887  11.614
47130W        W12390  38.871  36.692  13.431
47131W        W12391  35.396   7.520  13.308
47132W        W12392  28.463   4.912   4.557
47133W        W12393  19.186  41.587  11.196
47134W        W12394  15.466  19.303  10.119
47135W        W12395  12.616   4.822  13.649
47136W        W12396  44.495  22.500   0.708
47137W        W12397  24.228  16.234   0.749
47138W        W12398   9.484   8.970   1.622
47139W        W12399  34.569  30.120   2.779
47140W        W12400  24.579  29.127   0.783
47141W        W12401  11.164  11.388   9.563
47142W        W12402   9.479  13.208   1.753
47143W        W12403  17.103   0.500  11.665
47144W        W12404  42.399  13.286   1.456
47145W        W12405  31.236  10.248   1.333
47146W        W12406  41.994   6.779  10.979
47147W        W12407  21.030  30.602  13.910
47148W        W12408   8.397   0.668  14.271
47149W        W12409   8.692  18.994   1.339
47150W        W12410  43.776  15.795   4.939
47151W        W12411  27.515  37.334   3.298
47152W        W12412   7.270  15.813  10.760
47153W        W12413  25.564  39.854   1.783
47154W        W12414  22.490   3.399   2.315
47155W        W12415   4.892  39.921  13.430
47156W        W12416  20.007  28.176  11.115
47157W        W12417  18.112  21.453   0.195
47158W        W12418   2.157  13.268   0.544
47159W        W12419  25.721  11.701  10.904
47160W        W12420  23.983  33.861  14.042
47161W        W12421  12.111  25.523  11.329
47162W        W12422  27.198  13.019  14.868
47163W        W12423   5.500  35.785   3.147
47164W        W12424  31.613  18.080   3.908
47165W        W12425  32.369  24.147   4.331
47166W        W12426   7.712   0.216  12.060
47167W        W12427  16.445  22.150  14.124
47168W        W12428  36.879  21.780   2.078
47169W        W12429  44.501  12.566   4.600
47170W        W12430   0.134  44.411  13.384
47171W        W12431   9.118  10.309  10.695
47172W        W12432  19.415  21.286   4.151
47173W        W12433  15.158  31.566   4.710
47174W        W12434  34.051  25.440   3.116
47175W        W12435  28.348  36.967  12.219
47176W        W12436  33.415  44.560   1.334
47177W        W12437  37.860   8.026   1.344
47178W        W12438  43.610  21.265   1.903
47179W        W12439   3.568  16.661  14.969
47180W        W12440  38.387  43.282   3.252
47181W        W12441  29.174  36.649   2.397
47182W        W12442  17.596  34.187   0.412
47183W        W12443  25.903   7.599  14.086
47184W        W12444  17.101  14.769  12.503
47185W        W12445  14.350  39.947   2.368
47186W        W12446  32.439  43.848   2.419
47187W        W12447  28.618   2.967  12.186
47188W        W12448  28.023  22.453  13.322
47189W        W12449  22.336  32.202   1.544
47190W        W12450  24.233  30.192  11.172
47191W        W12451  15.233  26.831  10.404
47192W        W12452   1.772  23.337  11.200
47193W        W12453   0.853  43.183   4.545
47194W        W12454   9.834  39.099   3.855
47195W        W12455  17.721   0.352   4.416
47196W        W12456   6.334  38.816   1.609
47197W        W12457  28.992  33.468  14.841
47198W        W12458  19.736  33.857   4.463
47199W        W12459  34.389  37.939   1.361
47200W        W12460  43.846  15.150   2.654
47201W        W12461   6.752  31.198  12.642
47202W        W12462   3.691  29.626   3.628
47203W        W12463   9.805  16.295   3.073
47204W        W12464  26.765  16.815  11.190
47205W        W12465  24.557   2.762  11.848
47206W        W12466  35.365  16.814   4.068
47207W        W12467  31.977  41.272   3.012
47208W        W12468  44.342  19.854   2.852
47209W        W12469  33.930   5.312   3.134
47210W        W12470   4.841  43.951   2.033
47211W        W12471  43.470   3.446  13.010
47212W        W12472  26.102  28.354  10.678
47213W        W12473  40.542  42.078   2.773
47214W        W12474   2.769  29.023  14.760
47215W        W12475  29.898  33.048   1.327
47216W        W12476   0.535  35.863   3.767
47217W        W12477  39.301  22.999   2.288
47218W        W12478   8.786  17.652   1.167
47219W        W12479  27.617  31.288   4.030
47220W        W12480   4.593  25.927   9.704
47221W        W12481   9.805  35.564  11.105
47222W        W12482  20.460   8.252  12.492
47223W        W12483  27.029  36.303  12.142
47224W        W12484  35.018  43.682   3.598
47225W        W12485  21.406   4.451  11.153
47226W        W12486  12.116  31.025  13.589
47227W        W12487  34.324  10.896   3.605
47228W        W12488  15.687   7.751   0.506
47229W        W12489  17.840  14.542  10.449
47230W        W12490  44.407  31.747   1.003
47231W        W12491  13.853  36.441   3.622
47232W        W12492  15.121   4.218  13.955
47233W        W12493  24.670   8.656  13.008
47234W        W12494  32.507  23.018  14.067
47235W        W12495  38.074  16.993  14.794
47236W        W12496  10.331  27.359  14.402
47237W        W12497   8.885   8.595  12.179
47238W        W12498  26.525  29.098  12.515
47239W        W12499   9.992  12.311   4.869
47240W        W12500  17.782  38.997   0.246
47241W        W12501  13.811  24.447   1.322
47242W        W12502  18.068  16.152  11.622
47243W        W12503   7.950  43.882   4.611
47244W        W12504  29.379  33.054  14.167
47245W        W12505  29.889  38.948  13.129
47246W        W12506   3.882  41.128  13.074
47247W        W12507  16.024  22.100   4.048
47248W        W12508  42.839  38.070   1.686
47249W        W12509  27.775  40.739   0.486
47250W        W12510  42.914  32.796  14.651
47251W        W12511  34.876  27.624   1.928
47252W        W12512   2.288  33.498   3.307
47253W        W12513  24.549  38.105  13.873
47254W        W12514  12.417   0.421  12.104
47255W        W12515  30.637   0.515  13.792
47256W        W12516  16.822  19.756  12.121
47257W        W12517  44.898  39.975   3.692
47258W        W12518  15.553  31.128   2.279
47259W        W12519   9.419  22.504   4.827
47260W        W12520  33.624  24.266   4.144
47261W        W12521  24.564  38.934  11.390
47262W        W12522  44.494  22.217   1.152
47263W        W12523  36.619  41.524   2.171
47264W        W12524  31.310  17.870  14.394
47265W        W12525  10.742  25.910   2.133
47266W        W12526  39.736  33.713   0.586
47267W        W12527  21.033  33.498  14.963
47268W        W12528  39.783   4.438   4.310
47269W        W12529   7.950  31.981  13.056
47270W        W12530  12.782   7.513   1.831
47271W        W12531  38.383  34.505  11.214
47272W        W12532  32.950  27.712   1.746
47273W        W12533  17.765  14.816   0.901
47274W        W12534  11.311  12.257   4.065
47275W        W12535  33.919  19.296  14.833
47276W        W12536  20.590   0.739   3.730
47277W        W12537  19.691   6.657  10.724
47278W        W12538  30.911  42.174   2.807
47279W        W12539   8.657  27.968  12.091
47280W        W12540  42.430  23.575  10.541
47281W        W12541  38.771  10.614   1.300
47282W        W12542  40.350  28.727   5.002
47283W        W12543   1.391  17.589  13.330
47284W        W12544  17.901  40.595   2.696
47285W        W12545  25.430  32.639  13.404
47286W        W12546  43.027  30.034   2.255
47287W        W12547  18.591  41.494   0.392
47288W        W12548  26.477  38.068   3.757
47289W        W12549   2.183   3.264   4.977
47290W        W12550  15.751  34.630   0.222
47291W        W12551  40.272  37.462  10.094
47292W        W12552   6.133  24.561   1.199
47293W        W12553  41.072  22.516   4.207
47294W        W12554   5.500  16.315  13.539
47295W        W12555  20.830   5.582   3.664
47296W        W12556  36.011  17.044  14.029
47297W        W12557  28.330  12.942   0.817
47298W        W12558   9.294   1.999   4.532
47299W        W12559  22.168  24.227   1.358
47300W        W12560   9.314  20.346  13.813
47301W        W12561  40.083  18.804   4.309
47302W        W12562  12.750  32.556  10.764
47303W        W12563  37.986  11.413   4.587
47304W        W12564  20.395  17.120   0.738
47305W        W12565  36.391  43.648   1.390
47306W        W12566  24.047  40.420  11.159
47307W        W12567  14.962  17.647   1.359
47308W        W12568  17.015  35.546  12.660
47309W        W12569  16.728  15.832  13.349
47310W        W12570   3.768  24.210  12.556
47311W        W12571  21.227  10.667   1.802
47312W        W12572  38.317  41.082   0.395
47313W        W12573   2.833  12.375   0.820
47314W        W12574  33.535   3.759   1.789
47315W        W12575  29.569  33.082  10.503
47316W        W12576  26.479  27.974   3.114
47317W        W12577  12.863  20.664  11.925
47318W        W12578   5.465  11.606  13.247
47319W        W12579  34.875  12.736   1.878
47320W        W12580  37.844  15.720  13.227
47321W        W12581  19.779  43.395   2.331
47322W        W12582  20.106  25.009   4.124
47323W        W12583  25.814  31.558   0.700
47324W        W12584  23.993   3.815   0.009
47325W        W12585  30.978  42.234   0.405
47326W        W12586  43.408   9.117  14.328
47327W        W12587   8.338  31.596  13.898
47328W        W12588  27.702  37.558   1.569
47329W        W12589  33.172  27.180   1.847
47330W        W12590  30.049   1.771   0.736
47331W        W12591  42.001  41.793  12.573
47332W        W12592  34.561  23.211   0.408
47333W        W12593  42.066   6.089   1.820
47334W        W12594  26.304  25.533   1.350
47335W        W12595  15.161  32.547   1.264
47336W        W12596  44.888   9.163  10.618
47337W        W12597  43.459  34.502  11.779
47338W        W12598  33.124  18.713  13.899
47339W        W12599  24.655  38.092   1.847
47340W        W12600   9.304  42.467   4.476
47341W        W12601   8.438  38.795   0.818
47342W        W12602  43.088  14.791  13.355
47343W        W12603  23.517   7.390   5.082
47344W        W12604  27.025   0.747  10.691
47345W        W12605  23.074   7.632  12.989
47346W        W12606  40.586   6.262  12.524
47347W        W12607  44.076   6.273  11.656
47348W        W12608  18.919  37.985   1.457
47349W        W12609  33.045  40.541  13.328
47350W        W12610  26.135   1.040  10.681
47351W        W12611   3.862  33.541   4.636
47352W        W12612  11.014  17.771   2.848
47353W        W12613   5.810  24.548   0.737
47354W        W12614  15.165  43.754  14.450
47355W        W12615  30.097   1.165   2.836
47356W        W12616  20.401   9.251   0.733
47357W        W12617  34.481  27.378   1.716
47358W        W12618  11.053  27.809  12.451
47359W        W12619  44.448  39.939   2.357
47360W        W12620  17.286  39.857  12.270
47361W        W12621  41.775  17.181   0.257
47362W        W12622   6.449  31.064   0.142
47363W        W12623  39.341  29.928   1.784
47364W        W12624  40.892  40.424  11.696
47365W        W12625   3.318   5.349  14.321
47366W        W12626  40.802  40.737  10.880
47367W        W12627  38.775  18.646   1.324
47368W        W12628  34.274   1.584   9.774
47369W        W12629  39.412   3.247   0.634
47370W        W12630  15.586  14.659  13.431
47371W        W12631  12.104  12.677  12.354
47372W        W12632   7.446  40.309  11.213
47373W        W12633   5.817  25.689   0.875
47374W        W12634  30.422  22.624  13.075
47375W        W12635   1.288  32.610  13.038
47376W        W12636   0.566  37.581  10.615
47377W        W12637   3.868  36.923   0.041
47378W        W12638  33.083  40.256   1.783
47379W        W12639   1.831  33.431   4.133
47380W        W12640  10.302  25.253  14.045
47381W        W12641  24.133  39.621  12.848
47382W        W12642  20.595  27.430   2.229
47383W        W12643  29.635  34.270  11.691
47384W        W12644  11.333  11.664  10.373
47385W        W12645  17.557  11.778   4.836
47386W        W12646  23.985  20.693   1.964
47387W        W12647   6.742  23.776  13.614
47388W        W12648  13.586  34.331   1.366
47389W        W12649  21.151  26.622  12.550
47390W        W12650  37.304  36.880   0.629
47391W        W12651  42.710   8.115   3.240
47392W        W12652  11.565   6.005   0.044
47393W        W12653   5.344   6.960   0.757
47394W        W12654   8.419   1.590  11.869
47395W        W12655   2.296   7.938   2.597
47396W        W12656  24.712  32.090  13.475
47397W        W12657  27.063  11.467   3.653
47398W        W12658  24.653  18.324   3.382
47399W        W12659   9.406  20.345  12.389
47400W        W12660  31.378   3.923   1.819
47401W        W12661  42.575  25.255  11.440
47402W        W12662  19.877  20.193   3.484
47403W        W12663  25.479   1.456   3.217
47404W        W12664  37.396  15.529  13.394
47405W        W12665  40.034  34.885  11.423
47406W        W12666  38.366  44.994   0.238
47407W        W12667   7.467  22.618   0.341
47408W        W12668  43.969  37.776   3.246
47409W        W12669  25.305  37.775  13.094
47410W        W12670  40.516  25.856   1.946
47411W        W12671  11.314  42.485   0.365
47412W        W12672  22.744   8.595   2.448
47413W        W12673  35.324  19.463   0.178
47414W        W12674  28.538   4.591  13.432
47415W        W12675   7.778  14.682  14.401
47416W        W12676   0.400  43.936   2.830
47417W        W12677  17.074  43.253  12.438
47418W        W12678  34.058  43.961  11.463
47419W        W12679  15.855   9.195  14.697
47420W        W12680  11.159   5.414  14.784
47421W        W12681   2.926  26.102  13.504
47422W        W12682  11.849   3.717  12.411
47423W        W12683  16.099   2.333   4.470
47424W        W12684  24.142   3.241   1.326
47425W        W12685   7.222  29.254  11.219
47426W        W12686  30.658  28.210   1.003
47427W        W12687  17.008  40.604   3.626
47428W        W12688  40.073  25.141  14.564
47429W        W12689  44.502  36.065   1.940
47430W        W12690   3.441  32.629  11.269
47431W        W12691  39.471  19.759  13.224
47432W        W12692  44.517  43.779   2.873
47433W        W12693  15.337   8.875   1.275
47434W        W12694  12.553  14.455   4.172
47435W        W12695  33.069  38.334  10.325
47436W        W12696  13.085  37.841  13.986
47437W        W12697   6.904  37.762  12.900
47438W        W12698  28.972  40.639   4.690
47439W        W12699  42.792  35.117  10.761
47440W        W12700  11.911  19.973   0.248
47441W        W12701  29.792  40.795  14.047
47442W        W12702  38.087  36.072   2.251
47443W        W12703  18.511  26.109  11.097
47444W        W12704  19.242  36.979  14.487
47445W        W12705  25.149  36.085   0.476
47446W        W12706   3.620  37.432  11.969
47447W        W12707  31.643  16.659   4.131
47448W        W12708  12.235   2.334   4.218
47449W        W12709  33.435  24.418  11.633
47450W        W12710   6.516  41.089  13.898
47451W        W12711  27.224  24.704  13.412
47452W        W12712  21.107  13.315   3.353
47453W        W12713  34.942   3.419  13.968
47454W        W12714  33.226  36.069  11.317
47455W        W12715   8.426  12.176  12.842
47456W        W12716   4.751  37.475   0.737
47457W        W12717   6.649  18.818   3.811
47458W        W12718  10.809  19.207  11.474
47459W        W12719   3.442  11.599  11.093
47460W        W12720  29.354  39.100  14.439
47461W        W12721  13.166  24.207  11.593
47462W        W12722  21.849  17.253   0.210
47463W        W12723  20.474  12.303   4.982
47464W        W12724  25.251  14.835  13.486
47465W        W12725  30.300  27.981   1.342
47466W        W12726  10.243  27.506  12.244
47467W        W12727   4.198   9.272   3.234
47468W        W12728  36.890   0.774   0.641
47469W        W12729  12.673  31.842  14.834
47470W        W12730   9.159   6.249  11.534
47471W        W12731  34.314  14.648   2.761
47472W        W12732  15.563   3.488  12.396
47473W        W12733   0.026  19.256   4.689
47474W        W12734   0.742  29.654  14.449
47475W        W12735   8.365  43.635  11.571
47476W        W12736   0.241  28.155   1.336
47477W        W12737  16.651   1.738  13.402
47478W        W12738  28.371  13.233  11.931
47479W        W12739  22.346   1.484   9.928
47480W        W12740  33.776   3.137   2.616
47481W        W12741  18.743  40.689   1.227
47482W        W12742  30.967  24.122   4.088
47483W        W12743  37.630  37.258  14.332
47484W        W12744  16.584   2.225  11.771
47485W        W12745  39.580  16.466   1.933
47486W        W12746   1.921  10.124  13.043
47487W        W12747  44.757  40.266  13.577
47488W        W12748  38.283  36.015  10.680
47489W        W12749  16.749  17.216  11.529
47490W        W12750  41.129  27.282  13.877
47491W        W12751  22.872  37.177   0.414
47492W        W12752  14.113  16.806   0.078
47493W        W12753  27.947   3.323   3.688
47494W        W12754  27.631  26.583   0.785
47495W        W12755  32.895   9.252  10.739
47496W        W12756   7.387   0.271  14.800
47497W        W12757   5.435  15.639  11.179
47498W        W12758  27.573   7.172   2.411
47499W        W12759   6.932   7.638   2.122
47500W        W12760  37.772  41.450  12.042
47501W        W12761  41.928  21.543   3.688
47502W        W12762  25.047  14.676   4.562
47503W        W12763  11.739  28.297  12.346
47504W        W12764  38.750  17.608   0.781
47505W        W12765  21.784  19.642   5.502
47506W        W12766  25.160  24.191   2.493
47507W        W12767  28.450  17.717  11.535
47508W        W12768  27.072  21.206  11.253
47509W        W12769  14.246  33.596   4.262
47510W        W12770  22.591  14.785   1.829
47511W        W12771  39.888   6.628   3.253
47512W        W12772  32.917  21.607   0.315
47513W        W12773  42.625  38.825   2.189
47514W        W12774  44.426  29.379  11.205
47515W        W12775  37.974  40.255   0.286
47516W        W12776   8.914  15.628  13.342
47517W        W12777  10.297  22.229  13.008
47518W        W12778  39.546  22.451   4.296
47519W        W12779  37.559   5.856   3.748
47520W        W12780  19.393   6.418  13.055
47521W        W12781  36.139   2.972  11.167
47522W        W12782   7.308  29.496   1.712
47523W        W12783  41.692  10.625   0.278
47524W        W12784  24.076   6.421   4.085
47525W        W12785  27.247  24.274  12.725
47526W        W12786   0.525  30.781  11.193
47527W        W12787  41.736  44.929   4.203
47528W        W12788   5.227  10.396   2.235
47529W        W12789  18.631  21.265   4.684
47530W        W12790  40.401   1.474  10.576
47531W        W12791  40.544  38.868   4.665
47532W        W12792  28.254  43.042  12.959
47533W        W12793   6.645   0.246   4.739
47534W        W12794  22.584  44.660   2.225
47535W        W12795  19.090   2.357  11.546
47536W        W12796  10.673  17.695   4.419
47537W        W12797  22.525  34.139  13.408
47538W        W12798   7.976  21.100   3.729
47539W        W12799   0.157  18.776   1.190
47540W        W12800  26.699   3.471   0.211
47541W        W12801  33.372   7.104  13.962
47542W        W12802  30.716  20.075   3.572
47543W        W12803  12.864  20.654   1.184
47544W        W12804   2.282  37.286   0.405
47545W        W12805  28.758  35.385  14.518
47546W        W12806  35.929   9.305  11.114
47547W        W12807  43.231  12.822  13.979
47548W        W12808  34.484  43.858  11.196
47549W        W12809  24.069   6.715   4.500
47550W        W12810   2.791  42.576   1.122
47551W        W12811  17.019   2.762   1.136
47552W        W12812   9.054  26.441  13.467
47553W        W12813  27.175  44.449  12.082
47554W        W12814  24.456   7.671  12.890
47555W        W12815  37.747  17.688   3.542
47556W        W12816  17.393  17.170  14.540
47557W        W12817  28.520  20.978   1.339
47558W        W12818  29.926  18.714   1.385
47559W        W12819   3.773  17.011   3.736
47560W        W12820   2.810   0.868   3.246
47561W        W12821  14.724  23.946   2.827
47562W        W12822  19.163   9.645  13.021
47563W        W12823  18.185  22.708   2.837
47564W        W12824  22.607  29.461   4.326
47565W        W12825  17.744  19.735  12.583
47566W        W12826  35.106   9.791  14.691
47567W        W12827  14.673  14.305   1.795
47568W        W12828  10.892  40.297  14.423
47569W        W12829  38.872  31.057   4.608
47570W        W12830  22.200  15.102  10.816
47571W        W12831   0.645  33.165   4.080
47572W        W12832  37.963  41.695   1.468
47573W        W12833  23.548  34.928  12.880
47574W        W12834  13.181  39.522   3.673
47575W        W12835  16.045  27.668   4.471
47576W        W12836  21.166  31.368  12.051
47577W        W12837  18.085  35.969   3.715
47578W        W12838  14.127  41.069   2.714
47579W        W12839  12.356  31.452  13.376
47580W        W12840  21.143  43.789  12.374
47581W        W12841  31.982   1.937   1.452
47582W        W12842  41.969  38.979  13.845
47583W        W12843  36.925  21.603   3.008
47584W        W12844  31.261  31.913   3.233
47585W        W12845  10.541  40.556  12.820
47586W        W12846  43.271   0.037   0.790
47587W        W12847   8.750   0.796   2.353
47588W        W12848  30.081  20.503   2.827
47589W        W12849   4.966  26.809   4.173
47590W        W12850  44.292  36.249   0.831
47591W        W12851  44.421  15.371   2.238
47592W        W12852   8.189  13.998  11.725
47593W        W12853  32.318   7.810   1.471
47594W        W12854  19.022  16.685   4.505
47595W        W12855   7.661  12.073  14.808
47596W        W12856  17.792  44.108   1.623
47597W        W12857  25.068  34.913  12.828
47598W        W12858  25.598  18.924   3.682
47599W        W12859  33.820  12.248  12.427
47600W        W12860  39.198  35.494  12.167
47601W        W12861  20.505   3.643   2.689
47602W        W12862  13.830  20.166   0.086
47603W        W12863  13.834  19.110   2.814
47604W        W12864  40.333  25.682   0.351
47605W        W12865  20.317  35.465  13.654
47606W        W12866  40.178  26.201   2.223
47607W        W12867  30.877   2.447   3.930
47608W        W12868   5.402  28.793  11.165
47609W        W12869  17.219   5.410   3.312
47610W        W12870   7.865   3.967   4.823
47611W        W12871   0.789   7.500  11.193
47612W        W12872  43.421  36.629  14.832
47613W        W12873   1.317   2.541  11.081
47614W        W12874   7.968  22.648   3.636
47615W        W12875   4.370  19.695   4.675
47616W        W12876  10.680  39.962   0.285
47617W        W12877  38.011  22.896   4.129
47618W        W12878  42.910   9.660  13.806
47619W        W12879  12.767  18.188  11.352
47620W        W12880   1.831  41.253  11.083
47621W        W12881  20.330  28.668   1.402
47622W        W12882  32.383   6.804  12.510
47623W        W12883   6.905  35.477  14.749
47624W        W12884  36.937  11.243   3.840
47625W        W12885   3.823  37.957  13.203
47626W        W12886  14.800   2.863   3.709
47627W        W12887  18.157   0.537   1.855
47628W        W12888   4.706   7.550   0.932
47629W        W12889   8.233  31.826  10.931
47630W        W12890  10.778  33.985  12.762
47631W        W12891  39.928  36.052   4.102
47632W        W12892  17.320  36.087   2.616
47633W        W12893   5.805  12.371  11.358
47634W        W12894  18.368  26.608   0.809
47635W        W12895  13.859  40.482  14.459
47636W        W12896  43.949  36.562   2.321
47637W        W12897  33.584  25.560   2.646
47638W        W12898  10.570  12.126   1.812
47639W        W12899  10.214   3.213  12.860
47640W        W12900  14.326  19.010   3.398
47641W        W12901  21.754  23.787   3.621
47642W        W12902   6.722  21.291  14.791
47643W        W12903  32.125  21.276   3.075
47644W        W12904  38.638  32.656   2.758
47645W        W12905  29.197   8.127   0.959
47646W        W12906  13.523   1.204  12.875
47647W        W12907  21.712  17.531   4.582
47648W        W12908   7.938  29.150   1.713
47649W        W12909  11.821   0.193  14.892
47650W        W12910  16.202  42.015  14.318
47651W        W12911   7.192  39.343  14.828
47652W        W12912  35.121  25.567   5.184
47653W        W12913  43.366   3.318   3.223
47654W        W12914  23.135   8.193   3.357
47655W        W12915   9.852  39.484   0.563
47656W        W12916  20.259   7.351   3.716
47657W        W12917  17.680  23.640   4.777
47658W        W12918  39.769   5.750   2.278
47659W        W12919  34.568  44.740   2.589
47660W        W12920  40.412  11.453   5.187
47661W        W12921  32.470  32.471  13.454
47662W        W12922  13.061  22.775   3.950
47663W        W12923   2.265  34.324   4.527
47664W        W12924  40.663   6.710   0.044
47665W        W12925   6.295   9.669  13.598
47666W        W12926  30.470  23.755   1.593
47667W        W12927  25.954  20.619  14.895
47668W        W12928  28.551   0.562   3.268
47669W        W12929  15.470  20.435   2.775
47670W        W12930  13.801  13.432   1.430
47671W        W12931  44.782   2.840   0.466
47672W        W12932  13.889   0.277   1.578
47673W        W12933   3.702  14.283  10.285
47674W        W12934   0.844  25.087   1.800
47675W        W12935  41.803   6.141   1.371
47676W        W12936  23.671  37.707   3.708
47677W        W12937  41.593  35.119  13.823
47678W        W12938  32.596  27.638   5.041
47679W        W12939  31.213  42.180  11.138
47680W        W12940   5.986  11.879  12.448
47681W        W12941   4.371  12.385  11.559
47682W        W12942   9.396  17.373  10.638
47683W        W12943  38.417  14.446   4.551
47684W        W12944   4.644  41.888   0.371
47685W        W12945  28.949   6.631   0.797
47686W        W12946   0.288  30.398  14.927
47687W        W12947  37.480  17.017  10.561
47688W        W12948  13.031   2.673   1.974
47689W        W12949   6.286  32.860  10.698
47690W        W12950  24.974  25.033   1.329
47691W        W12951  11.985   6.524   3.813
47692W        W12952  21.307  36.413   9.911
47693W        W12953  17.009  23.400  12.483
47694W        W12954   8.105  15.983   3.372
47695W        W12955  31.537  33.941   3.712
47696W        W12956  25.506  12.967  12.245
47697W        W12957   7.842  37.604   0.869
47698W        W12958  44.234  31.731  13.554
47699W        W12959   8.233   9.137  13.397
47700W        W12960   4.939  25.204   0.863
47701W        W12961  31.002  11.799  12.430
47702W        W12962  21.762  14.290  12.063
47703W        W12963   6.916  23.947   2.415
47704W        W12964  36.639  29.043  13.843
47705W        W12965  19.531  15.417   2.849
47706W        W12966   1.922  41.648   0.406
47707W        W12967  16.781   3.285   5.217
47708W        W12968   6.369  22.940  14.579
47709W        W12969  15.690  21.661  13.963
47710W        W12970  30.038  33.700  12.427
47711W        W12971  44.706   2.063   4.752
47712W        W12972  14.682  19.747  12.039
47713W        W12973  42.440  36.858   1.891
47714W        W12974   4.474  28.658   0.346
47715W        W12975  25.029  32.642   3.313
47716W        W12976   0.851  32.467   2.258
47717W        W12977  35.037  33.179   3.257
47718W        W12978  19.947  20.275   1.325
47719W        W12979  36.444  38.005  10.685
47720W        W12980  14.194  42.649   0.662
47721W        W12981  37.418  27.865  14.441
47722W        W12982   8.298  13.418  14.979
47723W        W12983   7.411   1.842   1.609
47724W        W12984  29.184  16.034  12.867
47725W        W12985  10.656  29.905   0.928
47726W        W12986   8.687  12.746   1.815
47727W        W12987   5.259  13.209   0.460
47728W        W12988  38.269  38.456   3.409
47729W        W12989  13.701  20.632  12.898
47730W        W12990  43.341   9.279  12.485
47731W        W12991  29.424  30.677  14.941
47732W        W12992  39.544   5.257   4.644
47733W        W12993  25.731   2.282  12.052
47734W        W12994  17.025   0.856   3.927
47735W        W12995  40.314  35.844   3.626
47736W        W12996  22.662  18.380   2.320
47737W        W12997  30.824  23.420   1.777
47738W        W12998  18.269  10.735  11.525
47739W        W12999   7.197  42.430   4.293
47740W        W13000   8.599  30.040   1.745
47741W        W13001   6.750   0.631  12.108
47742W        W13002  10.662   1.641  13.296
47743W        W13003  13.759  28.165  11.614
47744W        W13004  15.876   9.163  12.002
47745W        W13005  41.462   9.644   4.477
47746W        W13006  26.388  36.521  10.426
47747W        W13007  20.415  19.804  11.309
47748W        W13008  23.881  23.023   4.890
47749W        W13009  37.258   1.511   3.176
47750W        W13010  33.516  30.638  13.817
47751W        W13011  40.062  38.875  13.985
47752W        W13012   7.372  40.291   0.731
47753W        W13013   8.933   1.642  13.042
47754W        W13014  28.053  41.738  10.704
47755W        W13015  20.213  21.154  14.095
47756W        W13016  38.068  10.799  14.983
47757W        W13017   4.636  11.392  14.522
47758W        W13018  35.171   3.356  14.413
47759W        W13019   9.652  38.313  13.354
47760W        W13020  36.052  23.686   1.194
47761W        W13021  20.770  40.423  14.970
47762W        W13022  31.639  36.071  12.970
47763W        W13023  37.394  27.522  11.107
47764W        W13024  10.420  40.173   1.785
47765W        W13025  38.734  35.357  11.060
47766W        W13026  24.237   7.897   1.709
47767W        W13027  28.233   6.134  11.666
47768W        W13028   4.304  44.506  11.850
47769W        W13029  43.000   8.531   2.210
47770W        W13030  31.500  36.628   2.472
47771W        W13031  24.966   7.767  11.369
47772W        W13032   7.332  16.387  12.621
47773W        W13033   5.904  24.598   1.903
47774W        W13034  32.775  39.978  14.036
47775W        W13035  27.996  10.776  10.301
47776W        W13036   5.378  36.586   2.181
47777W        W13037  19.448  30.661  13.973
47778W        W13038  32.013  15.835  11.115
47779W        W13039  16.393  13.818   4.105
47780W        W13040  43.945  35.295  13.920
47781W        W13041   3.905  26.873   2.555
47782W        W13042  42.439   8.657  11.806
47783W        W13043  18.531   3.030  11.968
47784W        W13044   0.068   2.983   4.502
47785W        W13045   2.599  33.648  13.917
47786W        W13046  25.471  35.128   2.188
47787W        W13047  25.131  15.339   3.194
47788W        W13048  27.437   9.738  11.611
47789W        W13049  41.410   2.972   3.799
47790W        W13050  28.443  30.352  14.967
47791W        W13051  16.223   7.298   0.706
47792W        W13052  27.748  14.021   2.789
47793W        W13053  23.995   8.957  11.870
47794W        W13054  10.533  17.675   4.971
47795W        W13055   9.164  31.389  13.504
47796W        W13056   0.882  26.460   3.067
47797W        W13057   1.208   4.478  14.576
47798W        W13058  39.756  21.426  11.173
47799W        W13059   2.688  17.299  14.919
47800W        W13060   7.659  21.108  11.901
47801W        W13061  25.561  27.406  10.742
47802W        W13062  27.032  12.359  14.136
47803W        W13063  14.812   6.756  13.701
47804W        W13064   6.396   9.312  11.577
47805W        W13065  39.868  16.954  12.142
47806W        W13066  38.023  12.314  13.491
47807W        W13067  21.633  15.275  10.654
47808W        W13068  12.183  12.361  11.083
47809W        W13069  42.086  23.203  14.414
47810W        W13070  11.297  16.598  10.622
47811W        W13071  13.654  28.671  13.028
47812W        W13072   7.925  35.012   1.953
47813W        W13073  17.092  10.131  10.121
47814W        W13074  10.344   5.257   2.726
47815W        W13075   3.973   1.932  12.085
47816W        W13076  44.935  15.900  13.787
47817W        W13077   0.902  22.938  10.311
47818W        W13078  28.575   6.892  13.006
47819W        W13079  28.675  36.496   2.394
47820W        W13080  11.371  35.016  14.778
47821W        W13081  30.871  16.220   3.274
47822W        W13082  22.074  10.201   4.417
47823W        W13083   4.004  42.849  12.069
47824W        W13084   6.470  35.151   2.454
47825W        W13085  20.077  38.285  11.485
47826W        W13086  30.131  35.201  12.281
47827W        W13087  11.297  27.488  13.343
47828W        W13088  14.734   9.154   3.636
47829W        W13089  28.801  34.834  14.945
47830W        W13090  27.199  32.572   4.347
47831W        W13091  17.846   8.227   0.573
47832W        W13092  11.054  27.914  14.273
47833W        W13093  17.248  26.272  13.821
47834W        W13094  28.082  28.811  13.517
47835W        W13095  43.786   8.311  12.104
47836W        W13096  37.284  27.922  12.474
47837W        W13097   7.704  13.606  11.504
47838W        W13098   5.237  44.855   4.544
47839W        W13099  24.785  25.648   0.372
47840W        W13100  34.089  30.320   2.754
47841W        W13101  33.420   0.891   2.317
47842W        W13102  38.927  34.890  11.150
47843W        W13103   0.365  13.926  14.009
47844W        W13104  26.385  43.485   0.194
47845W        W13105  19.281  25.780  11.695
47846W        W13106  33.981   8.200  13.118
47847W        W13107  34.945  30.463   4.516
47848W        W13108   7.960  15.163  10.617
47849W        W13109  20.072  33.390   4.336
47850W        W13110  27.141  33.290  12.822
47851W        W13111  40.762  10.265  10.514
47852W        W13112  31.904  10.421   1.744
47853W        W13113  33.533  27.948  14.737
47854W        W13114  23.691  38.164  12.097
47855W        W13115  28.678  17.155   3.406
47856W        W13116  19.741   1.250   4.091
47857W        W13117  33.538  39.743  13.462
47858W        W13118  22.557  37.578  13.819
47859W        W13119  23.402   6.065  12.040
47860W        W13120  24.066  13.204   1.429
47861W        W13121  15.019  21.954   3.777
47862W        W13122  35.440  28.877  11.425
47863W        W13123  42.347  38.317   0.406
47864W        W13124  20.087  15.240  10.540
47865W        W13125   1.214   8.948   1.756
47866W        W13126  18.663  35.745  12.725
47867W        W13127  26.155  43.722  12.687
47868W        W13128   4.027  18.316  12.525
47869W        W13129   2.311  15.189  10.463
47870W        W13130  40.825  44.355   1.234
47871W        W13131  25.152  27.481  14.944
47872W        W13132  13.190   9.418  14.043
47873W        W13133  43.408  37.562  14.597
47874W        W13134   4.225  15.698   3.861
47875W        W13135  22.068  24.479  14.211
47876W        W13136  39.934  41.546   4.131
47877W        W13137  24.068  40.829   2.690
47878W        W13138  32.809  34.703  13.534
47879W        W13139   6.892   8.680   0.386
47880W        W13140  36.829  31.930   2.708
47881W        W13141  32.950  44.437  11.197
47882W        W13142  32.097  18.313   2.659
47883W        W13143  37.306   4.061   0.370
47884W        W13144   8.164  37.498  12.744
47885W        W13145  41.368  37.432  12.414
47886W        W13146  18.034   5.742  14.286
47887W        W13147  13.664  40.982  10.723
47888W        W13148  28.003  25.111  14.967
47889W        W13149   4.411   4.478  14.954
47890W        W13150   2.077  41.623  10.747
47891W        W13151  24.775  22.984  13.469
47892W        W13152  33.866  10.252  10.731
47893W        W13153   2.205  25.372   0.366
47894W        W13154  38.044  27.946   4.530
47895W        W13155  17.245  44.185   2.813
47896W        W13156  30.875  44.702   3.298
47897W        W13157  15.804  39.745   2.163
47898W        W13158  42.333  19.261  14.857
47899W        W13159  34.869  12.126  11.536
47900W        W13160   1.885   9.400   2.347
47901W        W13161  25.571  41.535  10.321
47902W        W13162  23.663  41.437   0.891
47903W        W13163   2.234  28.530   4.506
47904W        W13164  15.573  35.533  12.515
47905W        W13165  37.159  33.044   0.246
47906W        W13166  10.574  39.115   0.382
47907W        W13167  10.390  23.138   1.428
47908W        W13168  36.396  14.415  14.324
47909W        W13169   4.334  18.239   4.760
47910W        W13170   8.641  11.095   2.351
47911W        W13171  19.549  11.774  12.922
47912W        W13172  12.330  37.175  13.349
47913W        W13173   3.942  26.921  14.526
47914W        W13174  41.471  11.534   4.236
47915W        W13175   8.693   3.739  12.283
47916W        W13176   5.051   3.783   3.626
47917W        W13177  13.628  18.631  11.509
47918W        W13178  38.819  35.644   1.859
47919W        W13179  35.100  16.070   1.760
47920W        W13180  35.318  20.520   4.097
47921W        W13181  25.609  41.795  12.958
47922W        W13182  43.583  35.056   1.536
47923W        W13183   8.280   2.270   4.625
47924W        W13184  24.499  10.702  11.475
47925W        W13185  44.052  34.129  12.437
47926W        W13186  44.506  13.722   3.117
47927W        W13187  44.750  42.265  13.428
47928W        W13188  39.878  32.976   1.317
47929W        W13189   8.662  13.502   4.253
47930W        W13190   8.766  24.698   9.865
47931W        W13191  19.541  25.572  12.155
47932W        W13192  22.009  21.590  12.776
47933W        W13193  41.013  42.291  12.461
47934W        W13194  30.467   4.188   4.371
47935W        W13195   7.309  22.641   4.026
47936W        W13196  18.211  28.509  13.293
47937W        W13197  22.157  22.036   0.762
47938W        W13198   2.159   5.520  12.853
47939W        W13199   6.259  32.443  14.956
47940W        W13200   0.497  10.315   1.719
47941W        W13201   1.219  20.614   4.379
47942W        W13202  23.179  18.533  14.045
47943W        W13203  20.520  19.349  11.534
47944W        W13204  31.376  34.300   2.176
47945W        W13205  41.557  38.279  13.465
47946W        W13206  13.647  32.602  12.567
47947W        W13207   3.461  39.024   4.283
47948W        W13208   9.987  11.565   3.409
47949W        W13209  10.599   9.885   3.606
47950W        W13210   5.392  25.421   2.665
47951W        W13211  43.602  36.600  11.501
47952W        W13212  17.913  19.114   4.675
47953W        W13213  11.108   0.881  14.928
47954W        W13214   0.729  35.595  13.484
47955W        W13215  11.307  26.713   2.249
47956W        W13216  26.254   5.891   0.900
47957W        W13217  18.123  43.473  14.878
47958W        W13218  22.616   6.501  11.698
47959W        W13219   3.359   7.979  11.944
47960W        W13220  18.758  21.013   1.356
47961W        W13221  39.082  15.439   3.771
47962W        W13222  29.956  26.208  14.931
47963W        W13223  42.316  25.217   2.381
47964W        W13224  30.592  35.922   3.250
47965W        W13225   6.070   3.380   2.442
47966W        W13226  32.585  35.897  10.679
47967W        W13227  20.924  32.558  14.963
47968W        W13228  36.263  29.863  11.697
47969W        W13229  12.433   4.248  10.347
47970W        W13230  15.678  35.137   3.727
47971W        W13231  13.696  35.875  12.468
47972W        W13232   4.110  14.699   3.249
47973W        W13233  27.271  40.101  14.218
47974W        W13234  14.286  40.754  13.301
47975W        W13235  35.862  21.987   4.350
47976W        W13236   6.641  17.836   3.285
47977W        W13237  24.577  27.830   0.694
47978W        W13238  12.779  27.291   5.554
47979W        W13239  15.019  22.016  11.612
47980W        W13240   4.439  21.508  11.946
47981W        W13241  40.995  10.826  13.502
47982W        W13242  22.536  23.112  13.103
47983W        W13243   8.115  18.976  11.067
47984W        W13244  27.994  32.200   4.387
47985W        W13245  26.187  18.869  14.850
47986W        W13246  39.866  30.350  13.540
47987W        W13247  32.112   0.175   0.945
47988W        W13248   9.286   6.686  12.287
47989W        W13249   2.342  27.759  10.224
47990W        W13250  34.461  27.509  13.543
47991W        W13251  24.619  24.309  12.952
47992W        W13252  22.491  43.990  10.682
47993W        W13253  16.088  18.082   3.614
47994W        W13254  37.544  41.330  13.189
47995W        W13255   5.748  42.031  12.511
47996W        W13256   3.572  21.644   4.578
47997W        W13257   9.196  19.642   1.481
47998W        W13258  28.732  10.206   3.788
47999W        W13259  21.907  19.837  12.450
48000W        W13260   5.368  37.882  11.480
48001W        W13261   9.302  37.872   2.760
48002W        W13262  27.109  31.797  11.081
48003W        W13263  13.294  27.131  14.470
48004W        W13264  23.508  16.536   1.269
48005W        W13265  17.158  19.226  12.936
48006W        W13266  37.380   7.758   0.841
48007W        W13267   8.665  26.590  14.847
48008W        W13268  24.998  35.471  13.626
48009W        W13269  41.238  21.605  11.054
48010W        W13270   3.131  44.976  13.818
48011W        W13271  13.288  33.990   3.214
48012W        W13272  44.278  15.854   2.458
48013W        W13273  23.094  19.882  13.777
48014W        W13274  22.142  23.059   3.711
48015W        W13275  11.946   0.644   4.430
48016W        W13276  32.723   3.727  12.146
48017W        W13277  33.496  40.446   1.055
48018W        W13278   3.968  11.895  11.631
48019W        W13279  22.692   6.811  12.941
48020W        W13280  43.903  18.549  11.364
48021W        W13281  29.512  39.802   0.459
48022W        W13282   4.677  33.375  11.195
48023W        W13283   3.237  10.719  12.825
48024W        W13284  19.079  33.931   2.299
48025W        W13285  41.504  15.396  12.977
48026W        W13286  33.870  24.941   1.407
48027W        W13287  20.992   9.886   0.389
48028W        W13288  32.988  22.925   4.162
48029W        W13289  36.081  20.874  13.320
48030W        W13290  32.780  12.831   1.914
48031W        W13291  17.505  27.209  12.902
48032W        W13292   7.235  44.217   0.510
48033W        W13293   2.060  33.856   4.332
48034W        W13294  30.436  38.113   3.251
48035W        W13295  36.074  24.452  12.496
48036W        W13296   2.950  17.742  12.834
48037W        W13297  21.505   8.194   0.982
48038W        W13298  11.248   1.190   3.496
48039W        W13299  17.108  11.655  10.630
48040W        W13300  22.272   6.837  14.711
48041W        W13301   3.411  15.545  12.176
48042W        W13302   4.753  26.077   2.524
48043W        W13303  18.801  15.083  12.522
48044W        W13304   5.232  18.283  13.077
48045W        W13305  13.277   7.124  13.009
48046W        W13306   6.061  44.445   0.100
48047W        W13307  22.068  29.159   2.652
48048W        W13308  42.320  11.172   1.337
48049W        W13309  44.495   6.525  12.903
48050W        W13310   6.412  34.110  12.083
48051W        W13311  31.457   9.211  12.635
48052W        W13312   6.280  28.208  10.996
48053W        W13313  43.119   9.349   2.751
48054W        W13314  11.124  11.899  11.153
48055W        W13315  40.857  37.855   0.538
48056W        W13316  35.015  22.585  10.710
48057W        W13317  13.781  16.300   4.694
48058W        W13318   5.795  38.999  14.856
48059W        W13319  30.610   0.302  12.979
48060W        W13320  16.746  17.260  10.624
48061W        W13321  35.489  29.359  11.249
48062W        W13322   0.855  18.454  13.393
48063W        W13323   3.149  21.522   3.743
48064W        W13324  25.521  41.009  10.775
48065W        W13325   4.489   7.773  14.375
48066W        W13326  31.219  31.107   0.031
48067W        W13327  17.522   0.741  11.920
48068W        W13328  29.545   5.331   3.354
48069W        W13329  21.862  23.139   4.176
48070W        W13330  42.547   9.478  10.843
48071W        W13331  38.960  33.520  11.990
48072W        W13332  18.216   5.170   4.763
48073W        W13333  12.252  30.746  11.363
48074W        W13334   9.690  21.773  13.834
48075W        W13335  21.595  30.728  12.444
48076W        W13336   8.181   7.176   3.125
48077W        W13337  27.155   4.783  11.572
48078W        W13338  15.461  40.960   2.626
48079W        W13339  22.044  22.548   2.344
48080W        W13340  31.245  41.763  14.820
48081W        W13341   9.572  42.455   2.593
48082W        W13342  24.284   2.345  12.030
48083W        W13343  13.790  11.245   4.647
48084W        W13344  15.990  36.416   3.352
48085W        W13345  25.768  40.077   0.471
48086W        W13346  42.011  35.190   3.137
48087W        W13347  33.901  34.058   4.996
48088W        W13348  23.469  38.877   3.128
48089W        W13349  18.866   0.872  14.699
48090W        W13350   8.199  42.733   1.478
48091W        W13351  15.808   2.171   1.426
48092W        W13352  14.122  17.585   0.828
48093W        W13353   6.150  18.531  10.580
48094W        W13354  15.787  11.611  13.148
48095W        W13355  44.078  40.477   3.292
48096W        W13356  23.211  30.829  13.995
48097W        W13357  35.540  44.521  11.901
48098W        W13358  16.178  13.045   1.379
48099W        W13359  28.380   8.131  11.736
48100W        W13360   3.215  22.279   4.018
48101W        W13361  37.311  26.630  10.983
48102W        W13362  25.004  25.115  12.628
48103W        W13363  20.916  30.904   1.776
48104W        W13364   7.835   8.791   4.202
48105W        W13365   1.673  17.094   0.132
48106W        W13366  36.314  27.400   0.411
48107W        W13367  16.830  43.302  14.334
48108W        W13368  16.759  10.641  13.001
48109W        W13369   6.649  25.526   0.357
48110W        W13370  16.690  18.746   4.082
48111W        W13371  35.080   4.703   0.808
48112W        W13372   3.035   6.276   2.724
48113W        W13373  31.437  12.202   0.819
48114W        W13374  42.527  15.071  13.755
48115W        W13375   9.609  19.612   3.715
48116W        W13376   2.864  13.790  10.955
48117W        W13377   5.376  21.600  14.984
48118W        W13378  24.768   5.809  13.442
48119W        W13379   4.569  28.966   0.757
48120W        W13380  41.576  39.997  12.983
48121W        W13381  17.678  15.621  14.766
48122W        W13382   0.975  30.431   4.354
48123W        W13383  40.080  43.776   3.772
48124W        W13384  24.315   7.745  11.225
48125W        W13385   0.048  25.507  14.942
48126W        W13386  42.003  44.939  10.957
48127W        W13387   9.935  21.006  11.564
48128W        W13388  34.094  27.007   2.461
48129W        W13389  35.796  20.116  12.045
48130W        W13390   4.982  34.915  14.767
48131W        W13391  17.053  38.911  12.250
48132W        W13392  27.706  14.097  14.498
48133W        W13393  12.841  20.822   0.188
48134W        W13394  22.098  36.269   2.636
48135W        W13395  14.636  39.003  14.256
48136W        W13396  24.420  43.780   1.715
48137W        W13397   4.707   0.287  11.955
48138W        W13398  14.030  40.295  13.320
48139W        W13399   7.881  20.461  11.467
48140W        W13400  41.966  19.985  11.232
48141W        W13401   9.600  40.028  14.335
48142W        W13402  10.216  35.019  14.532
48143W        W13403  42.361  28.633   1.937
48144W        W13404  33.309  44.200   0.960
48145W        W13405  28.233  12.411   4.667
48146W        W13406  31.101  20.167  10.678
48147W        W13407   7.075  25.059   4.546
48148W        W13408  34.106   1.411  14.285
48149W        W13409  30.954   8.095  11.939
48150W        W13410  24.426  21.302  14.314
48151W        W13411   9.284   9.866   1.935
48152W        W13412  31.957   4.889   3.264
48153W        W13413  32.601  21.679  12.750
48154W        W13414  40.740  24.897  13.778
48155W        W13415   6.907  44.607  11.992
48156W        W13416   1.409  21.508   3.421
48157W        W13417  38.584  10.691  14.961
48158W        W13418  24.012  12.196   0.010
48159W        W13419  15.512  37.846   0.456
48160W        W13420  12.751  41.405  13.441
48161W        W13421  14.937   1.594   1.315
48162W        W13422  36.180   2.899  10.643
48163W        W13423  29.926  31.999   2.870
48164W        W13424  32.297  15.215  12.552
48165W        W13425  19.709   1.025  13.405
48166W        W13426  38.589  38.196   3.748
48167W        W13427  20.235   2.788   0.639
48168W        W13428  44.268   6.359   0.968
48169W        W13429   2.393   9.227  14.009
48170W        W13430  28.359  21.628  14.353
48171W        W13431  16.508  34.291   3.535
48172W        W13432  18.657  25.176  13.039
48173W        W13433  15.494  41.921  13.756
48174W        W13434  35.914  35.163  14.987
48175W        W13435  34.065   8.802   0.361
48176W        W13436  44.705   1.080   1.460
48177W        W13437   1.375   3.965  11.178
48178W        W13438  13.178  15.951  13.953
48179W        W13439  14.279  16.790   2.807
48180W        W13440   9.665  28.601  14.537
48181W        W13441  20.586  21.695   3.646
48182W        W13442  35.362  43.108  14.473
48183W        W13443   2.380  41.074  14.340
48184W        W13444  19.209  31.116   1.733
48185W        W13445  30.509  14.102  12.711
48186W        W13446  22.459  44.285   2.999
48187W        W13447  32.481  10.821   0.941
48188W        W13448   1.231  23.169  12.899
48189W        W13449   4.530  42.804  10.556
48190W        W13450  10.923  23.634   0.828
48191W        W13451  42.929  28.364  14.901
48192W        W13452  18.886  21.602   4.960
48193W        W13453  25.578  28.479   0.586
48194W        W13454   7.930  23.955  10.734
48195W        W13455  33.541  40.980  11.861
48196W        W13456  33.484   1.370  13.973
48197W        W13457   1.236  40.644   0.738
48198W        W13458  34.433  21.022   0.426
48199W        W13459  36.317  41.584   1.767
48200W        W13460  29.104  24.109   1.798
48201W        W13461  27.230  23.647   3.573
48202W        W13462  13.093  25.106   0.558
48203W        W13463  26.969  13.727   1.486
48204W        W13464   8.726   9.450   2.679
48205W        W13465  15.898  30.307  10.152
48206W        W13466  34.418  25.990   1.677
48207W        W13467  38.469  13.034  13.539
48208W        W13468  31.818   3.841   0.377
48209W        W13469  14.916  27.991   0.540
48210W        W13470  26.617  28.607   2.439
48211W        W13471  16.115  15.915  11.474
48212W        W13472  16.306  25.806  10.715
48213W        W13473  10.840   9.240   3.206
48214W        W13474  22.434  16.797   4.479
48215W        W13475  12.628  21.446   2.839
48216W        W13476  41.788  25.651   4.974
48217W        W13477  32.985  40.980  11.324
48218W        W13478   2.292   5.137   0.813
48219W        W13479  41.448  13.855   2.400
48220W        W13480  14.258  37.984   1.335
48221W        W13481   4.607  37.180  12.158
48222W        W13482   3.313  13.411  10.602
48223W        W13483   8.567   0.426  13.398
48224W        W13484  37.536  23.696   1.280
48225W        W13485  26.268   6.791  13.905
48226W        W13486  10.438  34.596   3.120
48227W        W13487  34.232  34.853  12.137
48228W        W13488  39.073  32.385  12.829
48229W        W13489  11.148   3.227  10.824
48230W        W13490   5.711   1.685   3.274
48231W        W13491  44.712   0.291  10.606
48232W        W13492  14.114  33.626   3.757
48233W        W13493  28.018  40.533   2.679
48234W        W13494  17.287  30.079  11.770
48235W        W13495  33.054  42.599   4.264
48236W        W13496  19.231  21.358   1.397
48237W        W13497  34.016   8.086   2.284
48238W        W13498  13.570   8.654  13.419
48239W        W13499  12.579  13.727  12.074
48240W        W13500   4.028   6.390   1.588
48241W        W13501  33.545   6.312  10.576
48242W        W13502  41.687   6.448  10.721
48243W        W13503  40.359  39.487   2.369
48244W        W13504  12.177  23.162   2.149
48245W        W13505  31.647  44.317  14.886
48246W        W13506  22.473  39.809   1.340
48247W        W13507  12.027  27.438  10.140
48248W        W13508  15.224   1.501  12.089
48249W        W13509  11.379   4.427  13.420
48250W        W13510   5.751  38.492  12.529
48251W        W13511  15.736  32.077  13.537
48252W        W13512  34.545  25.963   3.696
48253W        W13513  30.956  29.197   2.746
48254W        W13514  25.618  27.562  11.580
48255W        W13515   9.798  13.645  13.348
48256W        W13516  34.453  32.172  11.042
48257W        W13517  30.963  23.348   2.654
48258W        W13518  33.581   1.930  13.935
48259W        W13519  16.327  37.384   0.394
48260W        W13520  31.358  14.285   0.259
48261W        W13521  41.002  43.405   4.775
48262W        W13522  15.808   4.843  12.889
48263W        W13523  16.344  17.639   2.724
48264W        W13524   7.807   7.981   4.606
48265W        W13525  27.949  14.482  14.807
48266W        W13526  42.916  41.908   2.221
48267W        W13527   3.196  35.209  11.252
48268W        W13528  21.309   1.715   3.091
48269W        W13529  14.502  18.896  10.702
48270W        W13530   2.807  44.446  10.752
48271W        W13531   4.784  29.123  13.647
48272W        W13532  36.563   2.541  12.633
48273W        W13533  33.657  11.880  12.719
48274W        W13534   9.782  39.580  12.021
48275W        W13535  36.576  19.322  13.992
48276W        W13536  29.131  40.583   4.179
48277W        W13537  10.767  31.641  14.444
48278W        W13538  28.775  19.133  10.241
48279W        W13539  21.045  26.576   3.436
48280W        W13540  10.040  27.505   1.832
48281W        W13541  26.720  31.946  13.524
48282W        W13542  20.635   6.261  14.242
48283W        W13543   4.853  10.895  11.747
48284W        W13544  40.286  15.716   1.836
48285W        W13545  33.569   0.335  14.959
48286W        W13546  25.389  38.236   2.755
48287W        W13547   3.831  15.233   4.410
48288W        W13548   0.032  34.912  11.148
48289W        W13549  17.564  11.106   1.279
48290W        W13550  30.988   5.071   2.872
48291W        W13551  28.081  23.880   9.833
48292W        W13552   7.166  27.443   1.719
48293W        W13553  43.398  35.392   4.176
48294W        W13554  35.658   5.851  12.215
48295W        W13555  20.371  18.135   4.682
48296W        W13556   2.761  30.048   3.042
48297W        W13557   6.176  37.539  11.381
48298W        W13558  18.609  15.638  13.912
48299W        W13559  22.051  16.861   0.490
48300W        W13560   1.634  22.422  12.466
48301W        W13561   2.414  36.493  11.068
48302W        W13562  36.671  32.856  14.117
48303W        W13563  29.080   0.205   4.397
48304W        W13564  22.302   9.838  14.859
48305W        W13565   6.263  36.695   4.049
48306W        W13566  25.554  33.597  10.134
48307W        W13567  13.298  35.840   3.760
48308W        W13568  31.410  11.696   2.829
48309W        W13569  44.966  43.499  13.432
48310W        W13570  14.313  10.603  10.052
48311W        W13571  13.247  38.858   9.938
48312W        W13572   4.037  18.540  13.874
48313W        W13573  27.694  42.180  14.422
48314W        W13574  28.885   5.248   4.633
48315W        W13575   3.786  25.356  12.950
48316W        W13576  25.126  20.253   5.793
48317W        W13577  12.311  19.763  14.493
48318W        W13578  41.424  34.341   3.135
48319W        W13579  29.756  24.553   1.454
48320W        W13580   6.278  17.593  14.737
48321W        W13581  20.718  42.308  12.676
48322W        W13582  18.230   5.319   1.745
48323W        W13583   6.475  13.637  13.515
48324W        W13584  31.162   7.878  13.973
48325W        W13585  34.167   8.344   0.073
48326W        W13586  24.906  18.405   1.728
48327W        W13587  24.857  29.852  12.476
48328W        W13588   9.461  34.741   1.003
48329W        W13589  35.547  39.366   4.613
48330W        W13590   9.028  41.522   4.607
48331W        W13591  36.372   5.356   1.768
48332W        W13592  39.512  30.574   0.777
48333W        W13593  32.958   4.012  14.294
48334W        W13594  29.139  34.089   1.910
48335W        W13595  32.476  29.461  11.569
48336W        W13596   9.319  36.005  12.702
48337W        W13597  43.441   7.166  11.984
48338W        W13598  23.501   4.190  12.017
48339W        W13599  34.631  29.619   2.868
48340W        W13600  42.082   3.137   0.521
48341W        W13601   6.760   6.759   4.187
48342W        W13602  40.510  38.086   3.293
48343W        W13603  16.291   6.366   4.260
48344W        W13604   3.237  24.142  12.535
48345W        W13605   5.887  38.583   2.936
48346W        W13606  28.399  24.024  13.825
48347W        W13607   0.468  37.877  11.817
48348W        W13608  24.102  13.072  10.663
48349W        W13609   9.714   4.389   2.991
48350W        W13610   6.487  20.256  12.334
48351W        W13611  21.247  29.982  11.214
48352W        W13612  36.675  33.134  11.109
48353W        W13613  12.369  13.600  12.648
48354W        W13614  37.833  21.252   3.194
48355W        W13615   5.472  13.588  12.067
48356W        W13616  35.448  21.571  10.655
48357W        W13617   0.720  11.104   9.857
48358W        W13618  19.763  35.363  13.009
48359W        W13619  13.854  23.821   3.813
48360W        W13620   9.989  26.553  14.489
48361W        W13621  25.582  19.319  10.576
48362W        W13622  21.059  31.492  10.654
48363W        W13623  33.111  18.784  13.388
48364W        W13624  43.998  18.149   1.913
48365W        W13625   6.470   5.811   0.885
48366W        W13626  37.824  25.554  12.461
48367W        W13627  21.223  11.313  11.068
48368W        W13628  31.582  40.022  11.372
48369W        W13629  10.677  32.361   2.399
48370W        W13630  29.755  38.390   4.698
48371W        W13631  14.265   3.075  14.954
48372W        W13632  34.243  16.113  12.925
48373W        W13633  31.716  11.390  11.550
48374W        W13634   3.106  33.482  13.909
48375W        W13635  15.847  28.648  13.812
48376W        W13636  13.037  39.312  13.866
48377W        W13637   7.121  34.132   1.412
48378W        W13638  16.658  16.695   9.472
48379W        W13639  35.853  27.201   3.933
48380W        W13640  17.412  35.959   5.003
48381W        W13641   6.092  24.443   4.112
48382W        W13642  13.649  37.743  13.437
48383W        W13643  21.467   3.827  10.723
48384W        W13644  42.276  40.826   2.229
48385W        W13645  28.224  32.358   2.446
48386W        W13646   1.751  33.317   2.122
48387W        W13647  37.950  37.736   3.330
48388W        W13648  28.914  15.416  11.197
48389W        W13649  34.837  28.057  10.619
48390W        W13650  20.018   7.198   2.299
48391W        W13651  43.333  21.773   1.969
48392W        W13652   6.828  42.529  10.299
48393W        W13653  32.282  39.904   0.425
48394W        W13654  21.136   5.360  13.522
48395W        W13655  17.272   9.276  11.221
48396W        W13656   2.383   8.864   2.597
48397W        W13657  31.750  28.948   0.743
48398W        W13658  16.675  22.058  12.622
48399W        W13659  20.267  44.899  12.040
48400W        W13660  38.918  26.235  12.063
48401W        W13661  32.495   2.451  11.264
48402W        W13662  32.101  25.685  13.546
48403W        W13663  43.577  43.302   1.863
48404W        W13664  11.353  20.545   4.647
48405W        W13665  15.192   9.999   9.964
48406W        W13666  18.591  43.057   0.134
48407W        W13667  11.647  38.350  12.531
48408W        W13668  33.422  34.040  10.948
48409W        W13669  14.501   1.344  11.466
48410W        W13670   6.564  26.990   4.020
48411W        W13671  36.324  40.771  12.980
48412W        W13672  23.208  20.189  14.192
48413W        W13673  31.119   3.087   3.894
48414W        W13674  17.944   4.163   1.900
48415W        W13675  32.281   9.193  13.672
48416W        W13676   9.352  16.292   3.817
48417W        W13677  38.475  44.225   1.890
48418W        W13678   7.869  16.185  13.967
48419W        W13679  32.923   8.419   1.950
48420W        W13680   3.491   4.220  14.557
48421W        W13681  28.918   6.599  14.944
48422W        W13682  13.076   4.474   1.016
48423W        W13683   4.663  12.900   1.921
48424W        W13684  44.733   5.226   3.682
48425W        W13685   1.235   4.366  14.078
48426W        W13686  33.647  15.747   1.293
48427W        W13687  40.380  37.857  10.452
48428W        W13688  22.977  35.118  10.282
48429W        W13689  39.184  26.223  11.142
48430W        W13690  27.863  34.899  10.417
48431W        W13691  18.293  10.362   1.287
48432W        W13692  38.065  27.574  12.488
48433W        W13693  21.025   6.404  14.668
48434W        W13694   6.248  41.771  12.518
48435W        W13695  30.107  33.373  13.553
48436W        W13696   3.474  20.075  12.470
48437W        W13697  31.530   0.459  11.672
48438W        W13698  12.146  42.280  13.260
48439W        W13699   9.404  29.452   1.747
48440W        W13700  26.148   6.340   3.066
48441W        W13701  19.583   6.984   1.387
48442W        W13702  24.119  26.121   1.122
48443W        W13703  16.719  21.072   1.832
48444W        W13704  40.875  34.936   3.763
48445W        W13705   9.425  27.613  12.145
48446W        W13706  43.455  40.934  10.521
48447W        W13707  23.006  35.055  12.169
48448W        W13708  22.300   2.146  14.838
48449W        W13709  38.498   2.042  12.344
48450W        W13710  33.173  18.005  12.195
48451W        W13711   0.504   5.472   1.416
48452W        W13712  20.335   7.098  11.157
48453W        W13713   5.984  29.067  11.514
48454W        W13714  13.816   0.335  13.055
48455W        W13715   0.513  24.672   1.760
48456W        W13716   8.736  19.510  12.827
48457W        W13717  30.918  30.004  13.510
48458W        W13718  25.182  17.305   1.207
48459W        W13719  32.905   7.805   0.326
48460W        W13720  42.046  44.465  10.748
48461W        W13721  30.866  20.331  14.983
48462W        W13722  27.432   1.415   4.834
48463W        W13723   2.264   5.011   9.921
48464W        W13724  22.688  19.315   2.115
48465W        W13725   0.383  34.435   3.281
48466W        W13726  23.127  39.279   0.305
48467W        W13727  29.941  26.501  12.650
48468W        W13728  21.386  43.287   3.303
48469W        W13729  17.290  13.254   2.717
48470W        W13730  40.947   6.784  10.425
48471W        W13731  41.845  32.891  13.467
48472W        W13732  20.095   6.871   1.326
48473W        W13733  13.397  36.028   5.101
48474W        W13734  22.595  33.194  14.549
48475W        W13735   2.860  23.065   0.824
48476W        W13736  20.736   2.430  13.118
48477W        W13737   0.922  37.283  14.442
48478W        W13738   3.683  13.068   1.662
48479W        W13739   0.957  11.321   0.877
48480W        W13740  38.299  13.668  10.699
48481W        W13741  34.658  19.635  12.559
48482W        W13742  42.660   3.270   4.961
48483W        W13743  44.590  37.301  10.608
48484W        W13744   0.777  19.046   3.604
48485W        W13745   4.804  22.597   2.680
48486W        W13746  10.701  18.623   4.355
48487W        W13747  39.358   3.214  11.656
48488W        W13748  35.406  18.059   5.137
48489W        W13749  11.471  41.830  14.375
48490W        W13750  35.385  23.713  13.499
48491W        W13751  26.155  13.332   3.225
48492W        W13752  23.654   1.246   2.333
48493W        W13753  23.571  32.129  12.815
48494W        W13754  18.405  36.726  12.894
48495W        W13755  18.573  23.756  11.502
48496W        W13756   3.882   4.898   3.456
48497W        W13757  13.036  43.910   3.039
48498W        W13758  15.144   2.952   3.166
48499W        W13759  11.941  31.706  11.583
48500W        W13760  23.354  36.433   1.470
48501W        W13761   1.946  21.794   3.320
48502W        W13762   7.391  33.751  11.140
48503W        W13763  14.604  43.235   1.316
48504W        W13764  12.819  28.693   0.950
48505W        W13765  42.546  39.218   0.010
48506W        W13766  13.868   1.709  12.073
48507W        W13767  42.300  21.698  14.892
48508W        W13768  39.496  22.787   1.141
48509W        W13769  25.134  42.254   1.734
48510W        W13770   2.955  41.421  13.245
48511W        W13771  18.467  41.645  12.652
48512W        W13772   7.872  24.794  12.661
48513W        W13773  23.987  33.696  10.297
48514W        W13774   1.765   8.407   2.189
48515W        W13775  33.636  39.572  12.344
48516W        W13776  27.259  10.149  13.502
48517W        W13777  12.259  18.665  13.878
48518W        W13778  13.708   7.515  13.758
48519W        W13779  26.481  29.511   0.254
48520W        W13780  21.352  23.295  14.351
48521W        W13781  16.037  15.646   1.841
48522W        W13782  14.407   5.309   3.219
48523W        W13783  23.907  26.592   1.058
48524W        W13784  16.380  19.429  14.904
48525W        W13785   8.711   4.856   3.338
48526W        W13786  26.064  10.289  10.980
48527W        W13787  26.659  38.068   2.307
48528W        W13788  13.700  35.958  12.986
48529W        W13789  35.067  44.741  14.477
48530W        W13790  32.973   7.856   4.314
48531W        W13791   9.071   4.204   1.124
48532W        W13792  14.496  20.082  13.081
48533W        W13793  34.746  16.182  10.686
48534W        W13794   2.730  13.511  13.599
48535W        W13795  38.712  41.767  11.232
48536W        W13796   9.465   5.411  14.352
48537W        W13797   6.510  42.283   2.258
48538W        W13798  15.645  19.248   2.287
48539W        W13799   2.294  18.181  14.398
48540W        W13800  24.904   3.030  11.023
48541W        W13801  29.429  27.844   1.409
48542W        W13802   9.520  13.235   2.628
48543W        W13803   4.976  32.421   1.240
48544W        W13804  14.161  18.708   1.822
48545W        W13805  31.831   6.567   4.335
48546W        W13806  41.658  24.395   2.382
48547W        W13807  21.502  39.076   1.635
48548W        W13808  34.444  17.265  13.539
48549W        W13809   6.684   6.564   0.349
48550W        W13810  40.992  16.117  13.858
48551W        W13811  36.468  37.850   4.390
48552W        W13812  35.863  10.178   1.696
48553W        W13813  11.640   6.837   1.520
48554W        W13814   7.875  26.649  12.643
48555W        W13815  13.986  22.329   1.611
48556W        W13816   7.033  24.030   1.060
48557W        W13817  12.052  32.600  14.994
48558W        W13818  34.456  42.469   4.620
48559W        W13819  40.805  22.898  11.767
48560W        W13820  23.184  22.209  11.058
48561W        W13821   1.852   7.448   0.024
48562W        W13822  39.387  40.574   1.208
48563W        W13823   7.920  35.576  11.924
48564W        W13824  43.737  14.804   4.198
48565W        W13825  26.203  35.052   1.656
48566W        W13826   8.444  39.896  14.926
48567W        W13827  38.698  32.391   4.942
48568W        W13828   4.734  12.598   5.067
48569W        W13829   5.801  23.448  10.469
48570W        W13830   3.850  22.911   2.340
48571W        W13831  24.026   5.431  14.428
48572W        W13832  23.631  32.885  11.169
48573W        W13833   8.212  20.053   1.859
48574W        W13834  23.059  26.924   0.410
48575W        W13835  29.465  43.551  10.677
48576W        W13836  19.764   2.236   2.662
48577W        W13837  38.299  29.127  13.268
48578W        W13838   6.193  42.284  12.449
48579W        W13839  16.995  19.791   0.622
48580W        W13840  41.019  25.750   2.680
48581W        W13841  16.149  42.586   1.425
48582W        W13842  26.992  39.156  13.472
48583W        W13843  20.132  44.649  11.593
48584W        W13844  16.743  44.108   4.533
48585W        W13845  22.226  13.164  10.429
48586W        W13846   6.279   7.974   1.454
48587W        W13847  19.060  29.428   4.897
48588W        W13848  19.715  22.905  12.815
48589W        W13849  18.698  20.972  14.835
48590W        W13850  29.034  19.662  11.155
48591W        W13851  16.558  12.930   2.178
48592W        W13852  29.037  22.565  14.094
48593W        W13853   8.819  20.457   3.305
48594W        W13854  23.805  34.782   0.586
48595W        W13855  38.265  20.934  11.011
48596W        W13856  26.312  32.135  12.713
48597W        W13857   6.672  34.510  13.383
48598W        W13858  31.399   5.292   3.736
48599W        W13859  36.055  35.023   4.139
48600W        W13860   1.416  34.157  14.899
48601W        W13861  26.975  34.942   3.300
48602W        W13862  43.741  23.380  11.632
48603W        W13863  24.180  13.631   0.394
48604W        W13864  25.915  38.330  10.276
48605W        W13865  17.132  28.179   3.759
48606W        W13866  19.696  30.185   3.909
48607W        W13867  21.151  32.102  14.283
48608W        W13868  35.781  28.720   3.614
48609W        W13869  22.283  18.153  13.448
48610W        W13870  23.395   7.958  12.230
48611W        W13871   3.475  20.100  11.088
48612W        W13872  35.518  11.571  11.672
48613W        W13873  20.999  10.712  14.629
48614W        W13874  21.047  19.619   1.635
48615W        W13875  14.697  13.531  12.613
48616W        W13876   8.821  32.127   1.317
48617W        W13877  39.289  19.302  12.163
48618W        W13878  10.903  15.618  12.119
48619W        W13879  30.057  30.181  12.194
48620W        W13880  13.034  11.557  11.130
48621W        W13881  44.881  14.628  14.584
48622W        W13882   3.178  15.586   1.790
48623W        W13883  17.634   1.770   1.839
48624W        W13884  39.029  18.826   1.744
48625W        W13885  28.753   5.349   2.869
48626W        W13886  26.537   9.734  11.587
48627W        W13887  13.610  39.316   3.886
48628W        W13888   7.852  11.159   3.892
48629W        W13889  29.489  14.763  13.097
48630W        W13890  12.190  40.564  14.891
48631W        W13891  13.846  43.986   0.896
48632W        W13892  11.260  24.725   4.153
48633W        W13893  34.149   8.975  11.142
48634W        W13894  23.249  30.474   1.884
48635W        W13895  10.376  41.488   0.917
48636W        W13896  37.859  35.596   2.292
48637W        W13897   5.231  32.021  10.146
48638W        W13898  21.557  24.287   2.829
48639W        W13899  34.999  30.229  12.170
48640W        W13900   9.274  23.561   2.303
48641W        W13901  10.932   2.199   0.326
48642W        W13902  19.789  34.417   0.540
48643W        W13903  34.362   3.668  10.662
48644W        W13904   5.820   1.700  13.820
48645W        W13905   4.958   0.919  14.594
48646W        W13906  13.330  12.294  13.077
48647W        W13907  30.421   5.226  11.849
48648W        W13908  13.937  32.190  12.474
48649W        W13909  43.478  13.889  13.378
48650W        W13910  44.233   4.711  11.082
48651W        W13911   3.328  28.923   0.242
48652W        W13912  28.200  15.652   4.346
48653W        W13913  43.253  21.833   2.477
48654W        W13914  23.024  21.823  14.929
48655W        W13915  37.159  37.340   2.725
48656W        W13916   1.495  24.736   0.092
48657W        W13917  35.441  26.893   2.772
48658W        W13918  42.459  42.287  13.372
48659W        W13919  42.846  30.372   3.413
48660W        W13920  16.499  36.205   2.497
48661W        W13921  40.318   5.000   4.146
48662W        W13922  17.461   6.349   1.503
48663W        W13923  39.349  35.018   4.713
48664W        W13924  43.356  16.737  14.269
48665W        W13925   3.543  43.835  11.557
48666W        W13926  20.096   4.411   9.694
48667W        W13927  26.725   5.361  14.820
48668W        W13928  15.810  18.790  14.748
48669W        W13929  10.337  17.388  10.750
48670W        W13930   3.440  16.774  12.430
48671W        W13931  33.102  43.806   2.713
48672W        W13932   3.745  20.899  12.913
48673W        W13933  17.995   6.274   0.247
48674W        W13934  31.528  10.191   0.900
48675W        W13935  28.968  37.468   3.917
48676W        W13936  33.808  23.725   3.221
48677W        W13937  26.685  38.162  13.473
48678W        W13938  10.481  37.309   1.837
48679W        W13939  44.800   6.928   4.607
48680W        W13940   6.710  19.764  13.581
48681W        W13941  27.602  21.054  11.222
48682W        W13942  26.881   5.146   4.652
48683W        W13943   1.671  31.020   4.184
48684W        W13944  10.879  14.441  11.346
48685W        W13945  35.945  39.877  11.414
48686W        W13946  42.037  29.938   4.194
48687W        W13947  34.407  10.896  10.984
48688W        W13948   1.606   3.640   1.189
48689W        W13949  31.188  44.298  12.527
48690W        W13950   1.829  44.020   4.660
48691W        W13951   4.396  31.067  12.704
48692W        W13952  24.154   6.418   0.522
48693W        W13953   9.603  43.278   0.674
48694W        W13954  43.277  39.448  13.128
48695W        W13955  43.306  20.050  10.704
48696W        W13956  34.462   6.145  13.795
48697W        W13957  24.732  42.031   3.712
48698W        W13958  39.052  36.329   1.151
48699W        W13959   3.123   7.721  11.071
48700W        W13960   3.306  19.647   1.162
48701W        W13961  43.102   9.632   3.239
48702W        W13962  19.273   0.353  13.373
48703W        W13963  40.970  42.230  11.616
48704W        W13964  16.804  30.151   3.653
48705W        W13965  32.386  11.267  13.965
48706W        W13966   9.742  42.722  12.640
48707W        W13967   9.728  13.963  11.181
48708W        W13968   0.825  35.385   0.374
48709W        W13969  14.601  39.936   2.834
48710W        W13970   1.800  42.786   3.890
48711W        W13971  33.114  28.093  12.565
48712W        W13972   2.252  11.813  13.690
48713W        W13973   9.700  27.717   5.349
48714W        W13974   3.812  16.393  12.348
48715W        W13975  25.444   1.850  12.007
48716W        W13976  16.617  39.939  11.482
48717W        W13977   6.759   8.405   4.884
48718W        W13978  30.705  31.937  10.895
48719W        W13979  14.000  34.642   1.443
48720W        W13980   3.402  11.376  12.180
48721W        W13981  19.486   9.930   0.902
48722W        W13982  31.032   8.659   4.566
48723W        W13983   3.925  23.297   1.359
48724W        W13984  36.798  35.486  12.165
48725W        W13985   9.698  23.871   2.230
48726W        W13986  31.148  22.065   1.654
48727W        W13987  38.290  44.664  13.801
48728W        W13988  16.607  12.644  14.265
48729W        W13989  33.886   4.123   2.671
48730W        W13990  42.049  29.906   0.297
48731W        W13991   4.225  33.096  12.960
48732W        W13992  17.570   7.851   4.020
48733W        W13993  39.222  15.025   0.349
48734W        W13994  27.161  10.851  12.048
48735W        W13995  37.791  23.962   4.921
48736W        W13996  15.503  42.272   3.171
48737W        W13997  16.542  23.884  14.309
48738W        W13998  15.349  39.883   1.549
48739W        W13999  35.354  10.252  13.483
48740W        W14000  35.413  21.819   0.713
48741W        W14001  40.019  37.545   4.311
48742W        W14002   1.890  25.411  14.483
48743W        W14003  36.474  26.463  12.057
48744W        W14004   8.117  30.122   2.847
48745W        W14005  27.479  14.339   1.805
48746W        W14006  10.216  26.862   1.630
48747W        W14007  22.942  23.414  13.055
48748W        W14008  40.775   6.937  10.894
48749W        W14009  42.046   5.409  14.191
48750W        W14010  19.753   0.947  12.425
48751W        W14011  40.863  24.930   5.006
48752W        W14012  11.385  40.841  13.062
48753W        W14013   5.210  13.583   3.619
48754W        W14014  21.239  40.994   2.744
48755W        W14015  12.631  10.202  14.470
48756W        W14016  10.531  39.336  13.573
48757W        W14017   4.586  14.801  14.348
48758W        W14018   8.095  43.111   2.322
48759W        W14019   3.401   5.385  13.360
48760W        W14020  10.049  36.322   1.085
48761W        W14021   8.535  40.010  10.369
48762W        W14022  22.939  10.258   1.815
48763W        W14023   0.944  14.055  14.983
48764W        W14024  39.965   3.912   0.237
48765W        W14025  42.854   6.054   2.480
48766W        W14026  15.036   6.915   2.252
48767W        W14027  43.990  17.579   4.167
48768W        W14028  33.546   5.441  13.948
48769W        W14029  31.945  27.078  14.945
48770W        W14030  19.339  44.262   2.215
48771W        W14031  35.059  21.107   2.939
48772W        W14032  42.333  41.813  14.313
48773W        W14033  38.432   2.701  13.483
48774W        W14034  37.409  16.590  14.393
48775W        W14035  36.410  35.006  14.895
48776W        W14036  13.266  28.048  10.710
48777W        W14037  19.584  35.189   1.197
48778W        W14038   2.795  36.564  12.961
48779W        W14039  32.334  20.860  14.901
48780W        W14040  21.743   6.214   0.763
48781W        W14041  27.571  26.003   2.966
48782W        W14042  39.919  20.538  13.715
48783W        W14043  16.511  20.509   3.434
48784W        W14044  21.808  25.120  13.904
48785W        W14045  19.148  18.755  11.469
48786W        W14046  17.239  12.189  14.932
48787W        W14047   8.425  17.797  14.320
48788W        W14048  23.078   8.616  14.741
48789W        W14049  16.183  19.581  12.563
48790W        W14050  15.793  43.980   3.637
48791W        W14051  28.268  12.633  10.296
48792W        W14052  11.558  24.758  13.857
48793W        W14053  19.955  32.927   3.026
48794W        W14054  28.998  20.063   5.021
48795W        W14055  40.970  14.143   0.969
48796W        W14056   7.937   7.679  11.595
48797W        W14057   0.270   1.148  12.325
48798W        W14058  34.927   7.452  11.658
48799W        W14059  18.762  21.453   0.655
48800W        W14060  19.166   5.456  13.013
48801W        W14061  37.816   8.957  12.387
48802W        W14062  34.899  25.199  12.937
48803W        W14063  17.819  33.368   4.229
48804W        W14064  29.995  44.988  14.025
48805W        W14065  21.247   2.343  10.452
48806W        W14066  22.080  23.268   2.932
48807W        W14067  36.855  35.066  13.520
48808W        W14068  24.077  23.541   0.804
48809W        W14069  29.373   6.368  14.873
48810W        W14070  43.418   3.586   0.788
48811W        W14071   7.726  44.664   3.068
48812W        W14072  10.746  28.582  14.706
48813W        W14073  36.567  17.528   2.688
48814W        W14074   7.606  10.213  10.751
48815W        W14075  31.063  20.997  13.353
48816W        W14076  23.987  41.749  13.129
48817W        W14077  10.209  16.072   2.652
48818W        W14078  13.909  14.625   0.003
48819W        W14079  14.587  12.373   4.046
48820W        W14080  24.699  44.180   4.833
48821W        W14081  26.335  17.955   2.012
48822W        W14082   5.283  13.033  12.673
48823W        W14083  29.420  36.290  13.046
48824W        W14084  37.052  31.374  12.794
48825W        W14085   4.602  14.847   3.344
48826W        W14086  38.792   5.689  12.420
48827W        W14087  36.967   7.230   2.647
48828W        W14088  32.056  18.095   0.804
48829W        W14089  31.872  16.716   3.675
48830W        W14090  39.390   1.889  13.103
48831W        W14091  32.045  13.745   2.825
48832W        W14092  31.363  23.996   0.824
48833W        W14093   1.902  12.725  11.523
48834W        W14094  25.152  34.983  11.895
48835W        W14095  14.335  37.867   2.811
48836W        W14096  21.052  44.264  12.124
48837W        W14097  30.877   7.743   4.084
48838W        W14098  34.457  13.558   1.431
48839W        W14099   4.440  20.157   1.622
48840W        W14100  40.063  26.231  13.930
48841W        W14101   2.610  19.648  14.821
48842W        W14102  12.293  10.093   4.751
48843W        W14103  12.277   8.002   3.648
48844W        W14104  43.967  43.758  11.523
48845W        W14105  18.255  37.045  11.408
48846W        W14106   7.483  16.278  11.559
48847W        W14107  38.582  28.200   0.790
48848W        W14108  18.033   5.437   3.621
48849W        W14109   9.104  23.084  11.181
48850W        W14110   5.807  37.923   0.872
48851W        W14111  16.197   1.257   3.264
48852W        W14112  34.427  39.841  14.794
48853W        W14113   5.327  13.371  13.046
48854W        W14114  29.995  34.690   3.632
48855W        W14115  42.465  37.218  14.413
48856W        W14116  17.697  20.368   1.725
48857W        W14117  17.582  22.250   0.858
48858W        W14118   7.680  38.398  14.969
48859W        W14119  35.815  17.016  13.528
48860W        W14120  18.234  38.252  12.075
48861W        W14121   6.256  41.504  13.000
48862W        W14122  32.556  43.859   0.582
48863W        W14123   6.031  26.665  14.425
48864W        W14124   4.223  21.314   2.280
48865W        W14125  24.174   2.312   1.302
48866W        W14126  42.330   3.170   1.744
48867W        W14127  17.236  13.207   0.222
48868W        W14128   1.908   6.483  14.027
48869W        W14129  18.421  17.291   4.037
48870W        W14130   9.370  29.594   2.775
48871W        W14131  12.268   9.356   3.211
48872W        W14132  41.777  20.356  11.604
48873W        W14133  29.238   0.521  10.887
48874W        W14134  16.062  32.070   3.675
48875W        W14135  14.208  27.921   0.021
48876W        W14136  25.457   8.671   2.292
48877W        W14137  19.243  42.355   3.744
48878W        W14138   5.480  35.333   1.856
48879W        W14139  16.196   6.587  11.457
48880W        W14140   1.953  43.385   1.055
48881W        W14141  31.400   7.449   2.771
48882W        W14142  23.050  43.022   1.767
48883W        W14143   8.467  31.225  13.457
48884W        W14144  33.680   3.756   2.309
48885W        W14145  29.784  36.611  12.108
48886W        W14146  15.198   2.380  13.339
48887W        W14147  15.827  12.136   1.494
48888W        W14148  41.842  27.423   3.752
48889W        W14149  40.828  44.263   3.311
48890W        W14150  10.861  42.811   4.559
48891W        W14151   7.086  16.264   3.123
48892W        W14152  34.112   9.482  11.148
48893W        W14153  32.042  12.001   0.151
48894W        W14154   7.747  35.378  11.482
48895W        W14155  39.625  43.487   0.757
48896W        W14156  12.216  23.642   1.265
48897W        W14157  35.865   6.985  10.812
48898W        W14158  34.846   5.687   1.710
48899W        W14159  41.456   2.548   4.713
48900W        W14160  32.131  42.085  12.347
48901W        W14161   2.323  42.513   3.904
48902W        W14162  40.938  11.818  12.512
48903W        W14163  35.058  34.675   3.146
48904W        W14164  21.558  43.061  12.461
48905W        W14165  14.128   8.938   1.630
48906W        W14166   8.764  34.552  13.406
48907W        W14167  27.077  15.270  14.862
48908W        W14168  18.683  26.354  14.401
48909W        W14169  38.032   1.953  13.690
48910W        W14170  40.704  13.543  11.191
48911W        W14171  29.620  39.780   4.508
48912W        W14172  14.109   6.038   2.064
48913W        W14173  41.404  22.321   3.184
48914W        W14174  22.178   1.849  12.458
48915W        W14175  36.028  15.329  14.480
48916W        W14176   9.900  40.883  11.532
48917W        W14177  34.879  12.734  14.821
48918W        W14178   9.863  42.563   2.178
48919W        W14179  42.278  20.201  13.991
48920W        W14180   4.825  40.808  11.663
48921W        W14181  27.792   0.810   0.703
48922W        W14182  25.702  24.292  14.300
48923W        W14183  38.887  15.134   0.822
48924W        W14184   7.061   7.201   2.364
48925W        W14185  24.923   3.263   1.761
48926W        W14186  18.713   8.464  11.135
48927W        W14187  14.585  23.263  11.085
48928W        W14188   7.519  41.149  12.053
48929W        W14189   4.881  33.243  12.462
48930W        W14190  19.959  20.636  14.272
48931W        W14191  20.473   6.343  10.584
48932W        W14192   6.293  27.598  12.878
48933W        W14193  31.143  44.896   2.683
48934W        W14194  31.994  33.378  13.810
48935W        W14195  39.556  20.102  14.882
48936W        W14196   2.213  26.124  14.990
48937W        W14197  31.376  19.257  13.867
48938W        W14198  35.550  13.900   3.489
48939W        W14199   7.927  24.149  11.607
48940W        W14200  44.765  12.321  14.029
48941W        W14201  11.829   8.803  12.831
48942W        W14202   2.469   9.070   0.777
48943W        W14203  11.194   6.115   4.981
48944W        W14204  35.461  15.657  14.165
48945W        W14205  21.315   1.305   3.368
48946W        W14206  23.210  35.311  13.054
48947W        W14207   3.867  36.503   3.107
48948W        W14208  26.549  19.659   5.080
48949W        W14209  42.964  22.483   4.180
48950W        W14210  12.347  26.037   2.784
48951W        W14211   5.841  39.935  11.479
48952W        W14212  10.853   6.290  14.511
48953W        W14213  19.678  40.553  11.723
48954W        W14214  12.764  40.454   4.903
48955W        W14215  40.879  43.950  12.087
48956W        W14216  21.004  30.335  13.377
48957W        W14217  28.201  33.504   4.016
48958W        W14218  15.627  13.583   3.192
48959W        W14219  20.071  32.093   0.934
48960W        W14220   4.650  25.206  14.888
48961W        W14221  42.473  25.402  11.961
48962W        W14222  35.070  32.186  13.297
48963W        W14223  35.020  33.549   0.760
48964W        W14224  42.414  21.270   3.802
48965W        W14225  38.816  22.036  10.071
48966W        W14226  35.852  39.525   1.313
48967W        W14227  44.480  36.355  11.631
48968W        W14228  20.568  39.474   3.634
48969W        W14229   8.696  11.355  14.177
48970W        W14230  14.127  20.164   3.191
48971W        W14231  38.370   3.943   2.275
48972W        W14232  15.180  33.831   1.790
48973W        W14233  29.185  40.311  11.983
48974W        W14234   0.469   5.255  11.937
48975W        W14235   6.726  20.669  12.149
48976W        W14236  10.034  32.425   2.724
48977W        W14237  14.821  19.144   4.283
48978W        W14238  11.107  16.369   1.387
48979W        W14239  26.666  23.575   1.504
48980W        W14240  29.219  36.741   2.896
48981W        W14241  41.017   6.775  12.746
48982W        W14242  28.937  20.832   1.677
48983W        W14243   5.298   7.854   0.278
48984W        W14244  43.332  15.113   2.419
48985W        W14245  21.018  44.722  11.413
48986W        W14246  15.148  32.826   1.702
48987W        W14247  28.233  18.780   1.131
48988W        W14248  43.013  34.334   0.578
48989W        W14249   8.586   0.478  10.365
48990W        W14250  35.344  40.934   1.368
48991W        W14251   1.714   4.886   4.588
48992W        W14252  42.424  17.095  12.456
48993W        W14253  20.530  31.924   4.636
48994W        W14254  42.305   1.360  11.868
48995W        W14255  37.513  35.556   0.517
48996W        W14256  18.985  29.554  13.090
48997W        W14257  18.713  30.490   1.960
48998W        W14258  13.493  37.335   3.786
48999W        W14259  24.314  20.011  10.722
49000W        W14260   3.204  40.516   1.755
49001W        W14261  29.743  35.465  10.977
49002W        W14262  26.963  35.679  12.421
49003W        W14263  12.784  11.741  10.699
49004W        W14264  34.660   5.681   2.229
49005W        W14265   7.183  34.841  11.934
49006W        W14266  23.679  44.111   2.457
49007W        W14267  39.388  29.960   4.395
49008W        W14268  24.268  15.363   0.852
49009W        W14269   5.810  32.051  11.384
49010W        W14270  12.217  15.778   0.830
49011W        W14271   8.644  32.171   4.203
49012W        W14272  42.488   7.755  10.722
49013W        W14273  20.208  23.998  12.408
49014W        W14274  37.480  34.207  10.715
49015W        W14275  42.774  25.941  10.777
49016W        W14276  23.531  38.747  12.833
49017W        W14277  20.674   8.917   4.047
49018W        W14278  42.391   0.558   4.672
49019W        W14279  39.598  11.731  12.281
49020W        W14280  38.426  35.369  13.813
49021W        W14281  36.813  40.908   0.344
49022W        W14282  36.394  14.366  13.414
49023W        W14283  20.983  37.357   4.533
49024W        W14284   7.894  24.800  12.166
49025W        W14285  13.866  12.423   1.280
49026W        W14286  16.105  23.711   2.663
49027W        W14287  31.343  17.172  13.508
49028W        W14288  37.601  31.877  14.991
49029W        W14289   6.962  11.183  12.006
49030W        W14290   3.665  36.968  10.832
49031W        W14291  33.028  30.637  11.424
49032W        W14292  15.741  24.276   3.598
49033W        W14293  18.911   6.767  10.798
49034W        W14294  39.361  23.260  14.844
49035W        W14295  36.191  32.456  12.635
49036W        W14296  29.064  22.644  13.583
49037W        W14297   8.185  26.447  13.518
49038W        W14298  18.065  28.672   2.727
49039W        W14299   4.263  12.206   0.064
49040W        W14300  21.995  34.100  13.436
49041W        W14301  33.170  19.242  13.861
49042W        W14302  33.525  38.603  11.085
49043W        W14303  19.948  19.301  12.361
49044W        W14304  32.615   9.322   2.809
49045W        W14305   2.949  41.758   4.263
49046W        W14306  44.782  14.755  13.086
49047W        W14307   6.926  33.939  12.011
49048W        W14308  26.554  21.727  13.671
49049W        W14309  11.953   1.252  14.903
49050W        W14310  40.522   6.683  13.487
49051W        W14311   7.635  43.391  12.035
49052W        W14312  25.609   6.922  14.866
49053W        W14313  24.164  13.403   2.721
49054W        W14314   5.893   5.733   2.844
49055W        W14315   6.125  28.061   2.732
49056W        W14316  14.308  15.114  13.060
49057W        W14317  18.260  33.834   3.530
49058W        W14318  38.840  17.267  12.419
49059W        W14319  41.885   6.942   4.029
49060W        W14320  25.157  25.666   4.543
49061W        W14321  30.604  31.351   1.230
49062W        W14322  23.681  27.953  11.405
49063W        W14323  32.084  19.951   5.007
49064W        W14324  10.257  21.700  13.116
49065W        W14325  32.661  12.181   3.904
49066W        W14326   6.181  22.788   0.516
49067W        W14327  21.164  22.633  12.115
49068W        W14328  11.861  12.388  14.307
49069W        W14329  31.008  13.849  14.900
49070W        W14330   1.407  44.011  10.494
49071W        W14331   0.326   9.054  11.584
49072W        W14332  40.829  31.456   2.291
49073W        W14333   9.620   9.655   3.363
49074W        W14334   7.723   9.686   1.325
49075W        W14335  27.681  31.117  13.287
49076W        W14336  23.822  36.779   3.699
49077W        W14337  25.911  27.968  11.469
49078W        W14338  38.769  25.544   4.598
49079W        W14339  43.015  43.525  14.369
49080W        W14340  30.458   2.967  12.584
49081W        W14341  40.069  12.152  11.154
49082W        W14342  42.947  28.917  14.308
49083W        W14343  18.697  41.520   3.157
49084W        W14344  22.778  10.888   0.752
49085W        W14345  32.286  40.539   4.694
49086W        W14346  14.758  17.549   3.739
49087W        W14347   1.316  25.664  13.112
49088W        W14348  43.279  26.615   1.827
49089W        W14349  18.239  30.128  13.814
49090W        W14350  16.727  26.233  13.897
49091W        W14351  44.511  35.953   2.846
49092W        W14352   4.436  35.020   4.710
49093W        W14353  28.856   8.623  12.514
49094W        W14354  15.645   8.720  11.906
49095W        W14355   4.550  17.000   2.109
49096W        W14356  37.921  32.513   0.920
49097W        W14357  25.479  31.779  14.813
49098W        W14358  17.865   4.878  13.165
49099W        W14359  39.548  41.004  11.682
49100W        W14360  35.124  23.532  13.923
49101W        W14361  39.148   7.159   2.438
49102W        W14362  34.575   5.912  14.235
49103W        W14363  10.388   3.659  13.072
49104W        W14364   9.766  28.563   2.278
49105W        W14365   1.486   1.720   3.044
49106W        W14366   8.241   3.432   1.777
49107W        W14367  18.840  34.844   1.542
49108W        W14368  17.806   4.991  14.939
49109W        W14369   3.233  25.751  14.382
49110W        W14370  19.528  35.882   2.730
49111W        W14371   6.158   3.388  10.674
49112W        W14372  33.215  39.095  12.889
49113W        W14373  14.337  25.424  12.478
49114W        W14374   0.329  16.598   1.434
49115W        W14375   3.688  25.514   2.342
49116W        W14376   6.894  16.220  12.927
49117W        W14377   5.058  37.045  11.209
49118W        W14378   9.052  26.054  12.972
49119W        W14379  28.101  25.393   0.383
49120W        W14380  31.194  18.518   1.654
49121W        W14381  19.010  21.919   4.563
49122W        W14382  32.662   7.950  14.300
49123W        W14383  40.565  20.990  12.240
49124W        W14384  19.057  36.639  12.958
49125W        W14385   2.362  14.870   1.799
49126W        W14386  32.049  36.079  14.464
49127W        W14387  41.843  44.826   1.318
49128W        W14388   6.879  36.908  12.568
49129W        W14389  38.382  40.138   3.846
49130W        W14390  35.556   9.294   4.845
49131W        W14391  44.801  17.740  13.789
49132W        W14392  41.957  27.149  14.377
49133W        W14393  20.267  10.366  10.618
49134W        W14394   6.889  14.537  14.478
49135W        W14395  20.140  16.690  11.572
49136W        W14396  22.022   1.069   4.974
49137W        W14397  33.068  40.336   3.585
49138W        W14398   4.704  17.829   0.846
49139W        W14399  37.939  23.198   1.676
49140W        W14400   8.675  22.485  11.883
49141W        W14401  38.831  11.545  11.207
49142W        W14402  38.841   9.232  13.410
49143W        W14403  40.545   1.407   4.641
49144W        W14404  18.533   0.206  11.150
49145W        W14405   6.182  40.514   0.390
49146W        W14406  19.111  15.219  12.926
49147W        W14407   0.926  19.278   3.173
49148W        W14408  42.720   5.727   5.038
49149W        W14409  38.441  10.401   1.757
49150W        W14410  15.700  20.161   1.437
49151W        W14411  11.266   5.449   3.127
49152W        W14412  37.167   8.859   1.282
49153W        W14413   8.527  21.515  14.469
49154W        W14414  29.937  32.376  10.641
49155W        W14415  30.362  31.608  10.665
49156W        W14416  16.031  18.168  11.989
49157W        W14417  12.766  29.192  10.257
49158W        W14418  26.402  34.415  12.540
49159W        W14419  42.834  19.542  11.251
49160W        W14420  35.394  27.407   2.620
49161W        W14421   7.381   3.258  10.741
49162W        W14422   3.311  13.350   4.874
49163W        W14423  27.726  21.555  11.992
49164W        W14424  16.198  39.848  10.949
49165W        W14425  34.818   9.592  12.439
49166W        W14426  18.119   3.723   0.288
49167W        W14427  28.932  23.713   0.976
49168W        W14428  28.441   6.274  12.125
49169W        W14429   1.746  18.819  11.219
49170W        W14430  21.282  41.992  11.623
49171W        W14431  29.013   4.712  12.372
49172W        W14432  25.402  15.321  14.870
49173W        W14433   8.033   6.989   3.714
49174W        W14434  21.001  13.147   2.584
49175W        W14435  10.357  26.455   0.708
49176W        W14436  42.866  29.659  14.120
49177W        W14437  26.215  38.095   3.060
49178W        W14438  31.693  11.018   1.716
49179W        W14439  27.403  32.179   3.523
49180W        W14440  12.158   0.047  10.502
49181W        W14441  34.934  31.487   1.812
49182W        W14442   0.660   9.295   0.533
49183W        W14443  41.888  44.034   2.934
49184W        W14444  10.755  21.328   0.905
49185W        W14445   9.301  14.257  11.163
49186W        W14446   2.487  13.552   4.501
49187W        W14447  19.445  12.318  11.464
49188W        W14448  17.516  32.099   4.746
49189W        W14449   5.896  15.771   1.221
49190W        W14450  14.021  36.648  13.950
49191W        W14451  41.775  44.004   0.485
49192W        W14452  35.121  28.699   4.960
49193W        W14453  16.659  39.421   4.563
49194W        W14454  37.564   2.873   3.324
49195W        W14455  27.197  12.829  13.941
49196W        W14456  17.856  21.706   2.131
49197W        W14457   4.644  33.488  14.861
49198W        W14458  24.078   6.516  13.682
49199W        W14459   5.612  35.390  13.739
49200W        W14460  12.145  24.615   1.225
49201W        W14461   1.868   4.115   1.189
49202W        W14462  33.235  36.927  10.684
49203W        W14463   1.255  38.230   3.240
49204W        W14464  35.057   9.617  13.248
49205W        W14465   2.647  16.389   3.164
49206W        W14466  13.341  33.180   1.688
49207W        W14467  21.942  23.603  13.304
49208W        W14468  20.887  21.050   0.311
49209W        W14469  30.972  36.331  12.069
49210W        W14470  10.833  33.811  13.787
49211W        W14471   6.756  18.127   0.405
49212W        W14472   8.935  13.769  12.067
49213W        W14473  37.957  16.491  14.364
49214W        W14474  12.574  11.792  13.307
49215W        W14475  21.053  17.526   5.007
49216W        W14476  38.566  37.144  11.349
49217W        W14477  18.828  40.500  11.443
49218W        W14478  21.617  28.690  14.250
49219W        W14479  12.209  10.879  14.931
49220W        W14480  26.161  36.853   1.731
49221W        W14481  17.837  10.301   2.455
49222W        W14482   9.410  34.488  14.245
49223W        W14483  35.924  12.301   4.225
49224W        W14484   6.975  37.085  14.388
49225W        W14485  29.984   9.890  14.374
49226W        W14486  24.841  38.464   3.388
49227W        W14487  31.421  22.857   0.013
49228W        W14488  34.122  20.735   2.175
49229W        W14489  40.636  44.567  10.885
49230W        W14490  42.455  18.510   3.419
49231W        W14491  21.763  32.960  14.903
49232W        W14492  34.850   5.081   3.373
49233W        W14493  32.731  31.110  14.155
49234W        W14494  16.023  14.697   4.110
49235W        W14495   5.526  44.737  13.501
49236W        W14496  27.445  43.567  13.216
49237W        W14497  30.553   9.424   3.047
49238W        W14498  27.765  11.262   1.714
49239W        W14499  40.478  26.478  14.696
49240W        W14500  40.895  39.886   1.405
49241W        W14501   4.188   1.382   3.702
49242W        W14502  18.674  14.662   4.255
49243W        W14503  38.660  34.042  12.894
49244W        W14504  13.488   0.002  12.236
49245W        W14505  17.760  33.821  12.010
49246W        W14506   7.454  16.603  11.977
49247W        W14507  24.389  37.826   2.235
49248W        W14508  20.724  17.871   4.100
49249W        W14509  24.513   7.827   0.011
49250W        W14510   8.254  42.269  13.318
49251W        W14511  32.581  18.547   2.719
49252W        W14512  26.963   4.593   2.728
49253W        W14513   7.434   0.739   4.807
49254W        W14514  22.742  42.944   4.187
49255W        W14515  36.147  26.552   4.159
49256W        W14516  35.753  35.922   4.611
49257W        W14517  29.934  12.574  11.153
49258W        W14518  36.034  18.030  14.456
49259W        W14519  10.357  32.219  11.969
49260W        W14520  21.796  33.392   1.669
49261W        W14521  10.298  41.957   2.693
49262W        W14522   4.164   6.716   2.300
49263W        W14523  35.469  28.391   0.749
49264W        W14524   6.099  20.960   4.083
49265W        W14525  38.897  30.376  14.434
49266W        W14526  10.735  11.088  10.683
49267W        W14527  39.404  17.771  12.137
49268W        W14528  35.636  27.638  14.741
49269W        W14529   4.241  22.210   4.644
49270W        W14530   7.614   6.482   3.623
49271W        W14531   5.349   5.790  13.954
49272W        W14532  29.604  16.918  12.226
49273W        W14533  30.691  32.616  14.988
49274W        W14534  38.037  27.432  13.565
49275W        W14535   8.123  35.106  14.931
49276W        W14536  26.607  25.253   2.679
49277W        W14537   8.631  35.025   3.244
49278W        W14538  36.968  43.148  11.552
49279W        W14539  32.318  20.582   2.741
49280W        W14540  21.306  30.505   4.080
49281W        W14541  35.229  32.021  14.881
49282W        W14542  16.702  17.111   1.521
49283W        W14543  16.228  40.529   2.357
49284W        W14544  36.466  13.086  10.888
49285W        W14545  26.451  41.622   3.659
49286W        W14546  31.102  30.253   2.724
49287W        W14547  43.023  32.434  11.415
49288W        W14548  35.095  18.519   2.338
49289W        W14549  27.921  23.225   1.326
49290W        W14550  26.241  24.435  13.476
49291W        W14551  25.042  16.691  10.475
49292W        W14552   3.288  42.501   4.063
49293W        W14553  30.958  12.907  12.494
49294W        W14554  43.237  22.395   3.751
49295W        W14555  16.589  11.550   0.400
49296W        W14556  14.673  43.214   0.344
49297W        W14557  24.718  37.422   0.227
49298W        W14558   7.356  37.723  11.379
49299W        W14559  30.965   6.160   1.890
49300W        W14560  28.425  34.029   4.161
49301W        W14561  10.583  38.517   3.058
49302W        W14562  13.631   0.285  11.613
49303W        W14563  19.451  33.320  13.339
49304W        W14564  34.556  30.630   3.459
49305W        W14565  39.281  10.215  13.945
49306W        W14566   0.268  35.527  11.573
49307W        W14567  18.354   0.870  14.796
49308W        W14568   9.176  12.276   0.966
49309W        W14569  35.839  10.648   0.971
49310W        W14570  27.376  21.804   0.302
49311W        W14571  19.264   0.359   4.288
49312W        W14572   0.316   9.387   2.739
49313W        W14573  13.324  43.772   4.562
49314W        W14574   2.848  24.370  14.353
49315W        W14575  38.877  32.788   1.117
49316W        W14576  44.391  18.287   0.231
49317W        W14577  33.538  23.505   2.283
49318W        W14578  22.713  34.704  10.121
49319W        W14579  25.739  30.038  11.197
49320W        W14580   3.014   7.429   3.731
49321W        W14581  26.279  12.691   2.084
49322W        W14582  27.431  28.209   4.209
49323W        W14583   9.863  23.738   0.905
49324W        W14584  31.254  29.552  14.390
49325W        W14585   2.883  37.557   1.031
49326W        W14586  27.897  30.656  11.223
49327W        W14587   4.169  30.647  13.919
49328W        W14588  25.188  18.273   0.399
49329W        W14589   9.212  30.120  14.422
49330W        W14590  29.645  10.786   2.598
49331W        W14591   7.804  25.871  11.142
49332W        W14592  39.027  18.184   1.309
49333W        W14593  37.546   2.887  11.033
49334W        W14594  32.119  10.658   4.953
49335W        W14595   5.185  41.740   2.822
49336W        W14596  28.895  39.284  12.030
49337W        W14597   5.049  44.612  13.656
49338W        W14598  22.116  18.568   5.034
49339W        W14599  25.004  44.857   4.778
49340W        W14600   2.915   3.068  12.508
49341W        W14601  38.000  12.903   1.186
49342W        W14602  19.984  41.767   2.749
49343W        W14603   0.496  43.911   4.378
49344W        W14604  18.813   0.061   4.201
49345W        W14605   5.677  36.102   1.463
49346W        W14606  38.111  12.372  12.994
49347W        W14607  21.194  18.528  13.872
49348W        W14608  42.351  24.800   2.082
49349W        W14609   5.280  17.281  14.109
49350W        W14610  13.275  18.345  10.233
49351W        W14611  34.486  28.428  11.877
49352W        W14612  26.509  17.409  12.821
49353W        W14613  13.068   3.824  12.004
49354W        W14614  13.690  17.688   1.098
49355W        W14615  38.255   1.589  12.371
49356W        W14616  43.159  38.428  13.397
49357W        W14617  17.618   7.414  13.094
49358W        W14618  18.514  28.176  13.529
49359W        W14619  20.721   6.242  13.726
49360W        W14620  26.605   1.364   2.192
49361W        W14621  18.840  41.302   0.804
49362W        W14622  33.072  31.966  13.172
49363W        W14623  38.819   2.344  13.456
49364W        W14624  36.293   6.892  11.481
49365W        W14625  28.614  24.373   2.316
49366W        W14626  27.584  14.721   4.660
49367W        W14627  44.040   1.009   2.160
49368W        W14628   0.067   1.840  11.545
49369W        W14629   1.245   0.055  14.003
49370W        W14630  10.682   2.507   0.702
49371W        W14631  11.402   3.294  13.696
49372W        W14632  13.228  40.541   3.580
49373W        W14633  41.533  37.358  14.531
49374W        W14634  29.833   1.790  11.660
49375W        W14635  11.613  19.833   3.682
49376W        W14636  21.015  19.165   1.387
49377W        W14637  29.277   6.675   2.209
49378W        W14638   1.716  13.878  13.433
49379W        W14639  22.258  11.160   2.320
49380W        W14640  39.762  32.886   2.743
49381W        W14641   1.815   6.965  11.515
49382W        W14642  36.005  22.509   4.704
49383W        W14643  23.344  44.399   4.601
49384W        W14644  42.411  23.492  13.490
49385W        W14645   8.703  18.279   0.204
49386W        W14646  41.309   8.375  14.980
49387W        W14647   2.843  17.187  14.058
49388W        W14648  33.544  10.732  13.778
49389W        W14649   0.220  42.272  11.182
49390W        W14650   0.157   3.621  13.355
49391W        W14651  13.276  39.017  10.649
49392W        W14652  36.086  33.224  13.545
49393W        W14653  24.719  40.415  12.296
49394W        W14654   5.432  24.960   5.401
49395W        W14655   6.256  12.093  11.486
49396W        W14656  35.367   2.868  13.456
49397W        W14657   7.095  39.810  10.553
49398W        W14658  35.951  11.379   4.731
49399W        W14659  19.124  36.249  13.324
49400W        W14660  13.531   4.853   1.713
49401W        W14661  10.910  41.758  14.390
49402W        W14662   7.868  14.583  12.537
49403W        W14663  21.714  43.727   0.779
49404W        W14664   3.741   2.186  11.230
49405W        W14665  30.438  20.164   2.680
49406W        W14666  42.454  39.059   4.513
49407W        W14667   0.266  29.711   0.479
49408W        W14668  16.138  12.606   0.942
49409W        W14669  38.386  16.098   3.617
49410W        W14670  19.288   3.783  13.394
49411W        W14671  17.104  38.082  13.752
49412W        W14672  36.559  14.236  10.677
49413W        W14673   2.560   4.799  12.517
49414W        W14674  15.387  26.082   3.279
49415W        W14675  10.758  39.372  14.066
49416W        W14676  11.373   6.929  14.690
49417W        W14677  36.785  13.475   4.648
49418W        W14678  27.657   7.420  14.350
49419W        W14679  39.956  30.744   3.331
49420W        W14680   3.344  20.946  11.398
49421W        W14681  16.676  38.208   2.229
49422W        W14682   8.396  25.123  10.732
49423W        W14683   5.554   0.402  13.005
49424W        W14684  18.685  29.429  13.495
49425W        W14685  21.884  25.417   3.218
49426W        W14686  23.407  36.632  13.478
49427W        W14687  34.624   5.241   0.466
49428W        W14688  31.239  29.243  14.894
49429W        W14689  11.861  24.071   4.426
49430W        W14690  33.467   0.081  11.210
49431W        W14691  25.507  30.095   4.557
49432W        W14692  26.631  17.703  13.804
49433W        W14693  44.231  28.199   1.236
49434W        W14694  38.452   6.350  12.964
49435W        W14695  11.662  25.908   2.146
49436W        W14696  11.256   9.127   2.807
49437W        W14697  31.667  32.667  13.864
49438W        W14698  30.838  25.456   0.981
49439W        W14699  15.657  37.893   5.104
49440W        W14700  44.874  38.721  14.019
49441W        W14701  25.121  41.401   0.804
49442W        W14702  28.822  26.885  11.990
49443W        W14703   3.403  17.785  14.153
49444W        W14704  40.784  38.591   2.441
49445W        W14705   2.585  27.691   0.046
49446W        W14706  38.990  39.852   0.298
49447W        W14707  39.897  13.691   3.385
49448W        W14708  25.034  31.342   4.878
49449W        W14709   4.641  31.181  14.912
49450W        W14710  15.331   7.290   4.320
49451W        W14711   2.693   2.996  14.259
49452W        W14712   7.480  20.740  10.645
49453W        W14713  42.943  26.941   4.454
49454W        W14714   2.066   2.445   3.104
49455W        W14715   2.027  38.247  12.509
49456W        W14716  27.392  11.503   4.058
49457W        W14717   5.853  37.844  14.345
49458W        W14718  16.091   9.315  12.427
49459W        W14719  15.267  27.815   2.810
49460W        W14720  22.297  35.462  12.522
49461W        W14721  29.432  12.447  12.102
49462W        W14722  31.616  13.660   3.628
49463W        W14723  40.733  33.134  11.762
49464W        W14724  42.901  21.293  11.626
49465W        W14725  12.993  37.312  14.907
49466W        W14726   9.280  13.235   0.270
49467W        W14727  22.456   5.053  12.173
49468W        W14728  15.747  39.439   4.185
49469W        W14729  14.201  17.001   2.347
49470W        W14730   2.915   8.089  11.627
49471W        W14731  24.623  36.483  10.545
49472W        W14732  42.872  37.835  12.242
49473W        W14733  19.439   5.163  14.902
49474W        W14734  12.800  44.172   5.162
49475W        W14735  11.029  31.109   4.126
49476W        W14736  18.212  16.401   4.203
49477W        W14737  36.539  10.250   3.706
49478W        W14738  10.604  16.403   2.740
49479W        W14739  23.063  22.343   2.242
49480W        W14740   6.032  24.694   3.615
49481W        W14741  17.557   1.225   0.548
49482W        W14742  16.900  16.514   3.785
49483W        W14743  10.896  28.646  12.358
49484W        W14744  11.984  26.994   2.680
49485W        W14745   8.115  38.200   3.657
49486W        W14746   8.071   8.095   0.862
49487W        W14747  15.391   2.856   0.123
49488W        W14748  31.933  43.127  10.346
49489W        W14749  23.180  42.736  11.967
49490W        W14750  29.508  23.540   0.302
49491W        W14751   5.883  39.341   1.340
49492W        W14752  41.815  40.706   4.043
49493W        W14753  32.566  36.055   3.583
49494W        W14754  41.280   9.155   0.513
49495W        W14755  33.746  30.165  13.895
49496W        W14756  38.818  24.008   3.297
49497W        W14757  37.092  13.603  11.586
49498W        W14758  12.314  42.205   0.523
49499W        W14759  31.193  10.899   0.506
49500W        W14760  33.300  11.857   4.755
49501W        W14761  13.870  31.692  12.553
49502W        W14762  26.627  41.715  13.803
49503W        W14763  35.325  28.730  14.015
49504W        W14764  11.288  14.202   0.944
49505W        W14765   3.597  33.681   2.622
49506W        W14766  19.218  41.395  12.831
49507W        W14767  15.874  26.415   2.641
49508W        W14768  43.819  36.960   1.020
49509W        W14769  28.554  27.275  10.524
49510W        W14770  36.794  38.592   3.217
49511W        W14771  18.206   8.454  13.316
49512W        W14772   5.433  42.055   4.214
49513W        W14773  42.372  28.094   3.933
49514W        W14774  24.661  39.275   4.165
49515W        W14775  23.984  30.273  12.124
49516W        W14776  13.602  32.356   3.719
49517W        W14777  13.287  16.105  14.471
49518W        W14778  39.539  40.894   0.751
49519W        W14779  33.869  12.378   2.304
49520W        W14780  40.757  23.601  11.469
49521W        W14781  31.693   2.275   4.267
49522W        W14782  41.548  13.204   1.772
49523W        W14783  33.159   8.378   2.764
49524W        W14784  14.050  30.911   2.199
49525W        W14785   2.922  38.831   2.586
49526W        W14786  16.548  13.337   4.845
49527W        W14787  22.945   8.079  11.973
49528W        W14788  29.079  16.769  14.851
49529W        W14789  20.258   1.693  10.665
49530W        W14790   9.261  17.068  14.137
49531W        W14791  19.577  13.857  12.085
49532W        W14792  26.963  12.793  14.441
49533W        W14793  44.460  22.298   1.811
49534W        W14794  36.541   2.430   2.229
49535W        W14795  20.781   0.205  13.396
49536W        W14796  30.678  40.939  13.882
49537W        W14797  21.206  38.818  14.288
49538W        W14798  11.744  27.621   0.509
49539W        W14799  26.742   1.390  12.654
49540W        W14800  21.006   7.165   4.455
49541W        W14801   4.244   4.854   0.297
49542W        W14802  37.343  26.023   2.825
49543W        W14803  43.874  11.069   3.687
49544W        W14804   4.789  27.020  13.981
49545W        W14805   4.747  36.645  13.575
49546W        W14806  15.755  10.560   2.833
49547W        W14807  13.286  21.937  11.838
49548W        W14808  28.425  13.489  13.484
49549W        W14809  17.455  24.439   4.580
49550W        W14810  37.669  42.364   2.234
49551W        W14811  33.929  39.030   0.386
49552W        W14812  28.695  14.024  11.389
49553W        W14813  36.424  24.471   0.383
49554W        W14814   4.984  40.300   3.293
49555W        W14815  14.707  34.858  10.812
49556W        W14816   6.231  31.653  13.381
49557W        W14817  41.964  23.563  13.211
49558W        W14818  43.768  39.816  11.075
49559W        W14819   1.978  37.486  13.843
49560W        W14820  18.161   3.952   3.865
49561W        W14821   6.409  15.357   3.307
49562W        W14822   6.626  41.578   4.570
49563W        W14823  11.654  12.683   1.219
49564W        W14824  43.431   9.380  13.866
49565W        W14825  41.022  38.076  13.516
49566W        W14826   2.003  14.894   1.273
49567W        W14827  27.886  42.518  13.258
49568W        W14828   8.755   4.500   4.173
49569W        W14829  20.787  26.553   4.420
49570W        W14830   6.656   2.903   2.677
49571W        W14831  12.420  43.050  13.042
49572W        W14832  20.277  14.147  14.407
49573W        W14833  43.780   6.453   1.769
49574W        W14834  38.417  15.061   2.214
49575W        W14835  29.426  37.168  13.319
49576W        W14836   5.358  20.637  12.704
49577W        W14837  40.280   3.341   3.396
49578W        W14838   2.250  19.862  12.375
49579W        W14839  22.995  34.312  13.197
49580W        W14840  20.582  30.787  10.654
49581W        W14841   6.855   4.509  11.653
49582W        W14842  25.999   6.574   1.312
49583W        W14843   0.858  11.921  14.751
49584W        W14844  13.951   4.932  13.993
49585W        W14845  34.803  11.435  12.538
49586W        W14846   1.244  16.178   4.369
49587W        W14847  21.689  41.745  13.494
49588W        W14848  15.123  33.524  12.070
49589W        W14849  28.548  39.832   0.420
49590W        W14850  13.899  11.633  13.031
49591W        W14851  35.460   3.757  14.537
49592W        W14852   4.847  22.193   0.522
49593W        W14853  22.446  28.631  14.013
49594W        W14854  33.214  27.680  13.801
49595W        W14855  13.654  43.291   2.346
49596W        W14856  24.045  15.845   2.341
49597W        W14857  31.472  14.315  13.493
49598W        W14858   7.362   3.538   3.660
49599W        W14859  39.324  26.671   4.359
49600W        W14860  16.728  39.748   2.195
49601W        W14861  33.289  27.213  12.111
49602W        W14862   5.786  27.075  14.009
49603W        W14863  13.891   6.835  12.115
49604W        W14864   4.035   7.314   0.202
49605W        W14865  27.195  30.270  13.383
49606W        W14866   6.867   6.408  13.539
49607W        W14867  35.069   9.157   3.461
49608W        W14868  25.063  19.726   4.115
49609W        W14869  37.746  42.745   4.368
49610W        W14870  25.940  27.004  12.490
49611W        W14871  42.807  44.399   2.263
49612W        W14872   2.462  37.384  14.567
49613W        W14873   2.200  43.359  12.445
49614W        W14874  17.820  35.506  11.649
49615W        W14875  12.112  33.901  11.076
49616W        W14876  44.522  17.617  10.477
49617W        W14877  31.052  32.999  14.799
49618W        W14878   5.384  37.440   1.475
49619W        W14879  14.043   6.681  12.657
49620W        W14880  22.284  41.925  12.399
49621W        W14881  22.139  15.821   2.364
49622W        W14882   7.092  11.855   2.009
49623W        W14883  37.903  23.418   4.990
49624W        W14884  14.283   3.796   1.837
49625W        W14885   2.307  27.126  14.951
49626W        W14886  20.186  42.253   1.268
49627W        W14887   5.745   8.295  13.320
49628W        W14888  15.935  21.687   4.428
49629W        W14889  30.067  33.454   0.874
49630W        W14890  35.180  31.784   4.035
49631W        W14891  15.769   9.617   0.000
49632W        W14892   7.715  28.989   0.876
49633W        W14893  11.155   8.322  13.285
49634W        W14894  38.316   8.733   2.717
49635W        W14895  32.046   1.144   0.054
49636W        W14896  15.590  15.116  14.779
49637W        W14897  39.830  34.110   1.577
49638W        W14898  38.895  31.827  13.358
49639W        W14899  33.986  24.731   5.356
49640W        W14900   9.648   6.604   0.492
49641W        W14901  22.727  20.523  14.206
49642W        W14902  28.816   8.808   3.803
49643W        W14903  29.348   4.432  12.602
49644W        W14904  11.158  23.068  11.467
49645W        W14905  15.301  41.350  11.012
49646W        W14906  19.013  16.135   0.519
49647W        W14907  27.065  11.832  14.473
49648W        W14908   0.325  20.296  14.903
49649W        W14909  42.960  44.434   9.949
49650W        W14910  42.576  13.313  13.513
49651W        W14911  43.852   9.573  14.958
49652W        W14912  22.730  11.848   4.560
49653W        W14913   9.332  17.660   4.042
49654W        W14914   8.831   3.207  10.675
49655W        W14915  24.117   7.835   3.127
49656W        W14916  26.480   1.930  12.888
49657W        W14917  10.731  12.875   3.587
49658W        W14918   3.143  14.190   2.718
49659W        W14919  12.675  14.524  12.976
49660W        W14920  26.750  34.518   2.576
49661W        W14921  35.435  14.325  11.513
49662W        W14922  25.221  43.840  11.406
49663W        W14923  27.092   7.365   0.941
49664W        W14924  21.074  18.710  13.423
49665W        W14925  39.586  25.973   0.986
49666W        W14926   9.135  42.994  12.060
49667W        W14927  21.246   1.960  10.801
49668W        W14928  14.282  29.325  14.052
49669W        W14929  33.795  35.146   2.390
49670W        W14930  41.856  15.494  11.162
49671W        W14931  36.108  27.805  14.661
49672W        W14932   1.994   3.874   2.826
49673W        W14933   5.485  42.219  14.416
49674W        W14934   6.217  33.447  14.919
49675W        W14935  31.525   1.004   3.617
49676W        W14936  39.966  24.750  10.890
49677W        W14937  14.592  33.518   0.953
49678W        W14938   0.529  15.130  13.465
49679W        W14939  41.812   3.145  12.099
49680W        W14940   4.154   1.678   4.408
49681W        W14941  19.000  39.263   3.780
49682W        W14942  32.494  43.996  14.865
49683W        W14943  30.943   5.297  12.597
49684W        W14944   7.155  25.248  12.522
49685W        W14945  29.646  40.957  14.894
49686W        W14946  35.138  16.106   3.283
49687W        W14947  20.187   7.088   1.799
49688W        W14948  42.273  33.599  10.934
49689W        W14949  17.834   8.824  11.316
49690W        W14950  20.142  35.841  13.000
49691W        W14951  12.182  31.620   4.348
49692W        W14952  10.171  21.982   3.275
49693W        W14953   5.015  11.788  11.756
49694W        W14954  31.121  18.249   2.135
49695W        W14955  43.726  27.730   0.663
49696W        W14956   4.771  19.635   2.852
49697W        W14957  23.019  41.739   0.330
49698W        W14958  24.514  36.225   3.358
49699W        W14959  33.161  30.700   2.887
49700W        W14960  21.084  16.870   1.862
49701W        W14961   9.639  39.558   1.457
49702W        W14962  20.147  25.699  10.658
49703W        W14963  41.534   9.542   0.751
49704W        W14964  22.725  28.446   3.698
49705W        W14965  29.144  16.080  10.665
49706W        W14966  37.438  42.423   1.298
49707W        W14967  20.340  11.509  12.783
49708W        W14968   7.654  21.120   9.872
49709W        W14969  18.230  27.235  10.440
49710W        W14970  43.843  27.563   1.868
49711W        W14971  24.473  23.079   4.132
49712W        W14972   3.960  16.791  12.066
49713W        W14973   4.841  12.295  14.222
49714W        W14974   6.754  30.599   1.193
49715W        W14975  42.959  10.747  10.190
49716W        W14976  39.888  14.950   1.653
49717W        W14977  24.320  18.182   2.980
49718W        W14978  43.869  33.331  11.219
49719W        W14979  43.442  27.735  12.899
49720W        W14980  17.811  17.156  14.841
49721W        W14981  19.106  35.749   9.714
49722W        W14982  34.021  23.342   2.956
49723W        W14983  43.985  21.622   0.225
49724W        W14984  40.372  29.217   2.168
49725W        W14985  21.247   9.800  12.471
49726W        W14986  12.244  22.088  11.101
49727W        W14987  32.938  29.619  14.861
49728W        W14988  41.484  35.621   4.225
49729W        W14989  38.518   1.969  14.314
49730W        W14990   6.443   9.244   4.052
49731W        W14991  32.281  33.302  12.882
49732W        W14992  15.573  21.983   1.879
49733W        W14993  10.151  35.623   2.149
49734W        W14994  12.324  38.136  13.674
49735W        W14995  32.082  40.411   2.875
49736W        W14996   8.100  44.278   3.863
49737W        W14997  20.263  35.360  13.155
49738W        W14998  21.667  16.402   1.158
49739W        W14999   9.955  19.433  10.980
49740W        W15000  25.311  36.591   3.053
49741W        W15001  43.561   9.940  13.285
49742W        W15002  13.699  44.876  13.324
49743W        W15003  34.962  33.307  10.714
49744W        W15004  31.336  21.225   1.248
49745W        W15005   5.600  15.158   4.914
49746W        W15006   9.222  19.702   2.001
49747W        W15007  38.194   3.288   5.057
49748W        W15008  39.437  39.511   2.159
49749W        W15009  38.370  38.090  12.598
49750W        W15010  39.750  14.523   0.864
49751W        W15011  27.828  26.880   1.171
49752W        W15012  37.115  36.407   1.313
49753W        W15013  36.655  17.100   4.177
49754W        W15014  36.502  26.844   0.842
49755W        W15015  32.558  15.323   1.687
49756W        W15016  26.930   1.391   0.437
49757W        W15017   3.462  40.616  11.094
49758W        W15018  20.771  43.268   2.218
49759W        W15019  34.036  36.425   4.345
49760W        W15020  16.285   0.755   0.421
49761W        W15021   2.460  10.959  12.074
49762W        W15022   4.949  24.734  14.973
49763W        W15023  28.517  32.414   3.791
49764W        W15024  25.448  39.895  14.448
49765W        W15025  14.948   9.015  12.975
49766W        W15026   4.336  25.263   2.113
49767W        W15027  29.651  43.226   1.803
49768W        W15028   1.692   0.280  12.471
49769W        W15029   7.489  16.170   3.479
49770W        W15030  32.002  17.162  10.589
49771W        W15031  31.038  35.911   0.464
49772W        W15032  39.099  25.515   3.172
49773W        W15033  10.056  37.539   3.748
49774W        W15034  33.442  19.750   0.800
49775W        W15035  36.405  14.086   4.135
49776W        W15036  43.295  21.800  14.039
49777W        W15037  35.609  22.075   3.338
49778W        W15038  44.399  12.794   3.873
49779W        W15039  43.778  38.083  14.410
49780W        W15040  43.562  17.887   4.920
49781W        W15041   4.393  32.046   1.601
49782W        W15042  26.606  10.771  11.963
49783W        W15043  43.391   9.114  11.991
49784W        W15044  33.632   9.782  11.203
49785W        W15045   0.156   5.203  11.520
49786W        W15046   5.552  26.119  12.665
49787W        W15047  20.423  12.788  14.030
49788W        W15048  25.730  22.685  11.091
49789W        W15049  43.801   7.071  10.370
49790W        W15050  39.589  44.748  14.453
49791W        W15051  30.100  35.323   2.836
49792W        W15052  41.299  35.040   0.406
49793W        W15053  31.030  25.990   2.047
49794W        W15054  20.017   4.627  13.715
49795W        W15055  10.444  11.246   3.636
49796W        W15056  41.801  20.635   3.653
49797W        W15057  16.317   8.234   1.419
49798W        W15058  24.549   8.560   3.727
49799W        W15059  41.025  37.990  12.165
49800W        W15060  25.683  13.773   4.851
49801W        W15061  12.598  11.765   5.180
49802W        W15062  44.774  16.767   3.867
49803W        W15063  18.070   5.420   0.856
49804W        W15064  44.774  32.671   2.873
49805W        W15065  42.869  10.789  12.831
49806W        W15066  34.973   8.107  13.527
49807W        W15067  36.864  30.020   0.409
49808W        W15068   3.305   8.590  10.610
49809W        W15069   8.729  27.928  14.318
49810W        W15070  29.501   7.640  10.411
49811W        W15071  11.599  35.040  13.016
49812W        W15072   7.144   0.306  14.354
49813W        W15073  34.464  18.823   1.276
49814W        W15074  28.500  25.519  11.024
49815W        W15075  20.815  30.402   0.290
49816W        W15076  26.575  20.043   3.141
49817W        W15077  43.394  21.205   0.415
49818W        W15078  12.069   5.453   3.106
49819W        W15079  41.445  11.875   3.744
49820W        W15080  34.996  42.766   2.675
49821W        W15081  14.217  21.186   1.029
49822W        W15082  23.007   0.364   3.678
49823W        W15083  13.783   4.291  14.717
49824W        W15084  40.211  12.440  12.543
49825W        W15085  41.851   2.651  12.370
49826W        W15086  32.368  11.710  10.527
49827W        W15087  44.310  29.522   3.163
49828W        W15088  31.876   7.585   3.378
49829W        W15089  32.191  23.215   3.150
49830W        W15090  10.776  12.731   4.607
49831W        W15091  14.672  11.036  13.263
49832W        W15092  14.372  22.628   3.214
49833W        W15093   1.407  34.900   2.133
49834W        W15094  26.279  36.795   5.522
49835W        W15095  21.201   1.256   2.859
49836W        W15096  35.447  30.884   1.527
49837W        W15097  44.686  25.444   2.115
49838W        W15098  28.948  25.371   1.933
49839W        W15099  41.158  12.493  14.820
49840W        W15100   6.175  33.962  14.895
49841W        W15101  33.645  20.317  13.104
49842W        W15102  41.248  14.646  11.175
49843W        W15103  15.585  13.983  14.698
49844W        W15104  12.965  44.874  13.576
49845W        W15105  18.113  42.437  11.517
49846W        W15106   6.853   4.441  13.883
49847W        W15107   6.364  33.899   3.617
49848W        W15108  26.053  13.616  11.968
49849W        W15109   7.907  16.832   3.672
49850W        W15110  25.121  13.339   4.467
49851W        W15111  26.985  10.036  11.622
49852W        W15112   5.769  17.243  10.284
49853W        W15113  39.676   1.654   3.165
49854W        W15114  29.720   6.214   3.331
49855W        W15115  38.389  14.238   2.714
49856W        W15116   0.248  16.686   2.329
49857W        W15117  18.614  17.831   2.295
49858W        W15118  39.680  42.538  14.051
49859W        W15119  35.933  32.495  14.742
49860W        W15120  28.119  42.043  12.890
49861W        W15121   2.149  30.940  13.001
49862W        W15122  38.941  25.725  13.873
49863W        W15123  10.343  31.915   4.541
49864W        W15124   9.164  42.393  11.437
49865W        W15125  17.827  26.945  12.164
49866W        W15126  44.598  34.399   0.874
49867W        W15127  33.116   0.685   9.824
49868W        W15128   8.244  17.707  12.950
49869W        W15129  16.319  25.905   0.332
49870W        W15130  34.156  25.966  14.389
49871W        W15131  35.106  44.055  13.012
49872W        W15132  17.312  42.692  13.944
49873W        W15133  15.129  44.445  11.416
49874W        W15134  12.435   5.122  13.233
49875W        W15135  21.103  34.880   0.614
49876W        W15136  27.816  32.924   0.865
49877W        W15137  42.620  35.606  12.607
49878W        W15138  20.093  13.809   3.675
49879W        W15139  23.728  42.414  11.559
49880W        W15140  29.710  43.411  11.570
49881W        W15141  34.690  12.074  14.512
49882W        W15142  30.284  20.593   1.318
49883W        W15143  40.295  14.984  13.513
49884W        W15144   5.132   3.209   2.831
49885W        W15145  24.579   0.030  10.998
49886W        W15146  38.880  32.496   4.153
49887W        W15147   2.197  41.946   5.062
49888W        W15148   8.063  19.197   3.906
49889W        W15149   0.612  39.930   0.708
49890W        W15150  33.937  32.705   1.518
49891W        W15151  35.855  17.986  12.048
49892W        W15152  41.965  33.932  10.696
49893W        W15153  43.745  22.166  13.980
49894W        W15154  31.385  30.043   1.391
49895W        W15155  42.484  38.949  14.574
49896W        W15156  17.745   9.221   4.695
49897W        W15157  39.762  17.864   2.298
49898W        W15158  38.223  31.543   1.862
49899W        W15159  41.107  22.130  11.118
49900W        W15160  32.531  23.951  11.172
49901W        W15161  44.238  39.385   2.881
49902W        W15162  21.304   7.233  13.482
49903W        W15163   1.870  36.141  12.917
49904W        W15164  20.194  44.797   3.363
49905W        W15165  12.650   8.273  10.298
49906W        W15166  40.408  30.622   4.076
49907W        W15167  19.298  10.809  12.936
49908W        W15168  23.207  28.643   0.511
49909W        W15169   6.714  14.140   2.097
49910W        W15170  41.973  38.953  14.706
49911W        W15171  28.183  32.433   1.939
49912W        W15172   1.209  40.424  13.412
49913W        W15173   7.601   3.963   0.365
49914W        W15174  22.011   2.325   1.687
49915W        W15175   4.189  19.621   0.454
49916W        W15176  16.771  16.698  12.410
49917W        W15177  12.352  26.196  12.886
49918W        W15178  36.443  24.156   2.521
49919W        W15179  22.887  34.968   0.193
49920W        W15180  24.997  42.369  14.844
49921W        W15181  41.657  38.782   4.241
49922W        W15182  20.857   9.747  10.614
49923W        W15183  13.258  15.752   3.555
49924W        W15184   8.347  32.034   4.597
49925W        W15185  33.569  33.424  11.686
49926W        W15186  15.983  30.998  11.481
49927W        W15187  31.166   5.845  11.042
49928W        W15188   9.391  23.571  13.924
49929W        W15189  35.359  33.012   0.173
49930W        W15190  22.956  12.543   4.810
49931W        W15191  31.977   7.304  14.833
49932W        W15192   9.393  23.570  11.413
49933W        W15193  43.500   8.699  10.282
49934W        W15194  40.845  32.868  13.026
49935W        W15195   8.384  22.251   2.742
49936W        W15196  20.573  10.908   4.517
49937W        W15197  23.499  16.980   2.567
49938W        W15198  41.857  27.435  14.845
49939W        W15199  23.766  42.029   1.365
49940W        W15200  15.208   9.734   3.280
49941W        W15201  41.732  43.833   1.493
49942W        W15202   8.646  27.065  13.023
49943W        W15203  40.266  39.736  10.624
49944W        W15204   3.258   9.605   3.217
49945W        W15205  24.545  17.770   1.047
49946W        W15206  23.275  29.733   0.711
49947W        W15207   1.050  28.302  12.843
49948W        W15208  39.040  14.171  10.452
49949W        W15209   9.768   4.234  11.107
49950W        W15210   0.853  20.823   0.989
49951W        W15211   3.535  15.385   1.360
49952W        W15212  10.504   4.275  10.654
49953W        W15213  25.863  30.335   4.191
49954W        W15214  18.179  34.419  13.032
49955W        W15215  42.102  20.781  11.574
49956W        W15216  40.303  29.122   0.398
49957W        W15217  19.723   1.940  12.532
49958W        W15218  33.385  30.038   2.298
49959W        W15219  23.460   8.708   3.751
49960W        W15220  26.493   9.448   4.055
49961W        W15221  36.017   6.740   2.962
49962W        W15222  42.284  42.045   4.720
49963W        W15223  42.247  27.580  12.991
49964W        W15224  16.205  14.962  12.065
49965W        W15225  22.541  44.813  12.843
49966W        W15226  32.630  28.024   0.367
49967W        W15227  24.149  40.728   0.761
49968W        W15228   4.819  20.677   2.637
49969W        W15229  44.969  21.813   4.444
49970W        W15230  23.598  15.999   2.746
49971W        W15231  44.290  38.008  12.905
49972W        W15232  30.132  19.887  12.013
49973W        W15233  38.886   9.428   1.859
49974W        W15234  13.861  37.520  13.030
49975W        W15235  26.345  17.849  13.347
49976W        W15236   1.430  44.317  14.938
49977W        W15237  41.596  43.338  11.990
49978W        W15238  17.205  18.038   5.052
49979W        W15239  37.460   2.145   9.879
49980W        W15240  38.353   8.442  13.047
49981W        W15241  18.879  29.597  11.208
49982W        W15242  42.143  11.469  14.080
49983W        W15243  37.320  24.053  12.599
49984W        W15244  21.132  18.733   2.653
49985W        W15245  43.254  12.276   2.336
49986W        W15246  11.851  34.953  13.792
49987W        W15247  10.941  15.256   0.294
49988W        W15248   8.355   8.235  13.900
49989W        W15249  13.140  34.389  13.529
49990W        W15250  36.150  18.219   3.319
49991W        W15251  19.018  39.150  13.922
49992W        W15252  35.160  19.504  13.862
49993W        W15253  32.545  31.432   2.389
49994W        W15254  27.093  41.333   4.104
49995W        W15255   2.062  13.037   1.811
49996W        W15256   6.192  36.189   2.686
49997W        W15257  21.422  37.561   4.742
49998W        W15258   1.222   4.841   0.462
49999W        W15259  19.799  24.197   0.449
50000W        W15260  15.371  25.884  12.558
50001W        W15261  39.434   9.954  13.484
50002W        W15262   2.377  32.271   1.591
50003W        W15263  27.900  20.650   4.150
50004W        W15264  28.098   7.690  13.858
50005W        W15265  10.134  25.164  10.181
50006W        W15266  43.634  16.036   2.146
50007W        W15267  41.974  43.190  11.643
50008W        W15268  44.946  17.760  11.907
50009W        W15269   4.228  18.002  13.911
50010W        W15270  24.981  23.112   4.164
50011W        W15271  41.795   5.273   3.855
50012W        W15272  13.188   5.346  13.877
50013W        W15273  44.379  16.042  12.836
50014W        W15274   0.937  43.385  13.511
50015W        W15275  11.366  42.930  11.835
50016W        W15276   8.408  25.063  11.586
50017W        W15277  17.850  13.165   0.262
50018W        W15278   2.737   9.343   3.152
50019W        W15279  39.519  20.346   0.763
50020W        W15280  18.042  23.165  10.658
50021W        W15281   2.760  17.930   0.980
50022W        W15282  25.517  33.317   2.862
50023W        W15283  19.287  38.585  13.079
50024W        W15284  20.527  27.691  11.442
50025W        W15285  10.770   9.197  13.435
50026W        W15286  12.481  28.498  14.970
50027W        W15287   9.605  10.292  11.562
50028W        W15288  26.982  39.126  12.614
50029W        W15289  18.728  41.048   2.943
50030W        W15290  33.242   8.146  12.532
50031W        W15291   9.161   4.652  11.543
50032W        W15292  13.053  14.550   1.243
50033W        W15293  40.185  30.603   2.116
50034W        W15294   5.481  40.506   3.227
50035W        W15295   2.780  17.320   3.830
50036W        W15296  44.062  41.816  13.022
50037W        W15297   9.735  28.736   4.705
50038W        W15298  10.698  22.551  14.260
50039W        W15299   5.877  33.705  12.421
50040W        W15300  20.982  28.100  13.365
50041W        W15301  11.445  34.995   0.753
50042W        W15302   8.934  19.323  13.720
50043W        W15303  26.236  29.283   3.124
50044W        W15304  16.872  38.827   0.347
50045W        W15305  32.057   4.212   1.017
50046W        W15306  13.609  16.713  14.195
50047W        W15307  18.219  31.185  13.099
50048W        W15308  21.535  33.628  12.065
50049W        W15309  24.417  37.262  14.365
50050W        W15310  41.492  42.156   2.733
50051W        W15311  20.749  14.833  14.039
50052W        W15312  18.952   0.641  10.257
50053W        W15313  23.177  28.082  14.279
50054W        W15314  29.201  35.510  12.161
50055W        W15315  19.561  32.450  14.866
50056W        W15316  22.759   1.728   1.164
50057W        W15317  25.661   9.794   2.899
50058W        W15318  22.955  19.835  10.723
50059W        W15319   6.946   5.258  12.362
50060W        W15320  15.147  25.827  11.599
50061W        W15321  42.956   0.848  13.570
50062W        W15322  40.346  22.491  13.019
50063W        W15323  13.808  35.455  14.953
50064W        W15324   2.224   7.635   3.216
50065W        W15325  32.993  33.145   3.718
50066W        W15326  38.297  28.111   1.672
50067W        W15327  37.907  43.675   1.362
50068W        W15328  37.066   8.924  12.167
50069W        W15329  34.184   1.983  11.112
50070W        W15330  10.119   7.065  12.023
50071W        W15331  22.440  26.627  14.732
50072W        W15332  16.225  41.641   0.465
50073W        W15333  27.888  25.702   3.254
50074W        W15334  13.854   3.706  11.515
50075W        W15335  22.482  32.433  14.871
50076W        W15336  37.790  26.477  12.202
50077W        W15337  13.638   8.865  12.410
50078W        W15338   2.306  23.516   2.158
50079W        W15339  35.116   9.777  12.052
50080W        W15340  42.941  36.859  12.520
50081W        W15341  28.915  22.713  12.162
50082W        W15342   3.787  40.820   1.471
50083W        W15343  20.440   0.988   0.746
50084W        W15344   4.150  27.461  13.931
50085W        W15345   7.806  11.119   1.283
50086W        W15346   8.416   3.430  12.030
50087W        W15347  11.359   8.526   3.507
50088W        W15348   5.191  11.348   2.346
50089W        W15349  33.539  29.502  13.476
50090W        W15350  33.698  39.829   1.397
50091W        W15351  16.148   2.479  14.535
50092W        W15352  21.367  13.864  12.948
50093W        W15353  39.518  36.257   4.904
50094W        W15354  12.501   3.208  10.291
50095W        W15355  41.239  44.726   0.525
50096W        W15356  31.842   5.994  13.379
50097W        W15357  18.957  33.501  13.356
50098W        W15358  40.336   4.106   2.771
50099W        W15359  12.390   0.592   4.789
50100W        W15360  22.615  37.613   0.164
50101W        W15361  36.888  11.896  10.675
50102W        W15362  15.985  30.964  12.657
50103W        W15363  29.586  13.408  13.825
50104W        W15364   6.244   7.751  12.611
50105W        W15365  23.531  30.165  11.568
50106W        W15366  38.151  35.510  12.355
50107W        W15367  33.384   0.069  13.231
50108W        W15368   5.988  10.166   0.988
50109W        W15369   9.713  33.653  13.392
50110W        W15370  24.585  27.992   1.761
50111W        W15371   5.402  22.205  11.572
50112W        W15372  20.573  24.535  11.938
50113W        W15373  40.484   3.170   1.904
50114W        W15374   0.224  37.231  11.506
50115W        W15375  44.744  21.995  14.910
50116W        W15376  12.296  31.671  14.482
50117W        W15377   9.752   6.483  10.597
50118W        W15378  21.745   6.830  11.509
50119W        W15379  13.178   2.186   2.739
50120W        W15380  44.635  12.319   3.606
50121W        W15381   9.061  28.970  12.906
50122W        W15382  10.400  31.090  12.816
50123W        W15383   2.289  36.842   4.624
50124W        W15384  20.536  18.674  13.428
50125W        W15385  44.052  40.368   4.224
50126W        W15386   8.706  30.028  11.780
50127W        W15387  21.823  20.164  11.681
50128W        W15388  10.399  21.006  13.429
50129W        W15389  44.013  41.807   0.964
50130W        W15390  11.838  33.045  12.177
50131W        W15391  16.135  30.856   3.380
50132W        W15392  39.751  32.027  14.311
50133W        W15393  33.035  24.506   4.128
50134W        W15394   4.852   7.908  13.415
50135W        W15395  11.271   2.773  10.604
50136W        W15396  13.356  14.207  10.371
50137W        W15397  20.086   8.515  10.917
50138W        W15398  13.820  11.811  11.582
50139W        W15399  28.423  43.686   2.841
50140W        W15400  22.399  42.263  12.992
50141W        W15401  12.180  15.161   3.709
50142W        W15402   9.537  29.845  11.190
50143W        W15403  10.447  13.906  11.575
50144W        W15404  15.777  43.680   2.263
50145W        W15405   7.274  10.190  10.339
50146W        W15406  35.695  43.023  11.688
50147W        W15407  22.702   0.319  12.898
50148W        W15408  31.434   7.294  12.930
50149W        W15409  38.885  25.419  12.829
50150W        W15410  30.000  30.725  13.032
50151W        W15411  13.397   9.600   2.746
50152W        W15412  18.097  14.190  12.120
50153W        W15413  16.997  13.078   1.759
50154W        W15414  11.398  34.336  14.462
50155W        W15415  23.444  42.934   0.408
50156W        W15416   2.029  44.878   4.470
50157W        W15417   7.861  34.443   3.694
50158W        W15418  43.068  41.323  10.439
50159W        W15419  39.032  17.289   2.981
50160W        W15420  28.442  14.761  14.736
50161W        W15421   5.320  11.248   0.512
50162W        W15422   0.513  37.847  13.521
50163W        W15423  41.840   1.417   1.767
50164W        W15424  22.969  27.979   3.809
50165W        W15425  19.091   8.920  11.654
50166W        W15426  37.537  31.911   2.236
50167W        W15427  36.865  32.744   3.354
50168W        W15428  11.800  19.874  11.693
50169W        W15429  24.936  21.202  11.689
50170W        W15430  30.209   7.792   2.380
50171W        W15431  43.252  34.501  10.747
50172W        W15432   1.427  44.724  13.521
50173W        W15433  12.701  39.309   3.716
50174W        W15434  25.967   8.692  12.407
50175W        W15435  27.309  16.808   3.518
50176W        W15436   3.281  10.695   2.292
50177W        W15437  33.879   7.817   0.491
50178W        W15438  41.821  39.361  11.611
50179W        W15439  30.318   5.755  10.638
50180W        W15440   8.686  37.075   4.078
50181W        W15441  19.835  43.289   0.304
50182W        W15442  19.938   6.808  12.172
50183W        W15443  25.224  16.249  10.679
50184W        W15444  32.883  40.077  13.535
50185W        W15445  21.344  28.103  12.043
50186W        W15446  28.605  32.711  12.831
50187W        W15447  25.998  35.952   4.718
50188W        W15448  18.514  25.622  11.495
50189W        W15449  18.745  22.075   5.026
50190W        W15450  25.159  13.841   1.460
50191W        W15451  13.264  30.623  11.104
50192W        W15452   2.445  30.655   2.676
50193W        W15453   7.750  15.203  11.476
50194W        W15454  31.710   1.374   0.844
50195W        W15455  10.134  35.186  11.769
50196W        W15456  28.414  30.195  10.876
50197W        W15457  17.495  13.781  13.034
50198W        W15458  32.133  11.521   0.250
50199W        W15459  27.112  18.989   1.207
50200W        W15460  27.911   7.229  10.102
50201W        W15461   5.295  20.367   0.379
50202W        W15462   4.176  35.738  11.543
50203W        W15463  25.134  10.663   3.628
50204W        W15464  44.382  29.149  10.724
50205W        W15465  39.990  10.689   4.207
50206W        W15466  27.494  12.319   4.157
50207W        W15467  33.869  26.907  12.936
50208W        W15468  42.569   9.006  10.591
50209W        W15469  26.531  38.804   1.075
50210W        W15470   8.253  30.293  11.090
50211W        W15471   8.079  44.621   4.239
50212W        W15472  28.588   1.924  13.092
50213W        W15473  24.542   4.218   1.764
50214W        W15474  19.730  11.073   2.461
50215W        W15475  23.736  25.086  14.940
50216W        W15476  38.255  35.292  11.879
50217W        W15477   4.622  14.798   1.262
50218W        W15478  28.141  25.974  10.585
50219W        W15479  35.381  28.888  11.916
50220W        W15480  31.511  11.371  13.002
50221W        W15481   1.865  14.626   0.848
50222W        W15482  34.337  39.251  13.262
50223W        W15483  20.904  38.185   2.361
50224W        W15484  16.043   8.331   2.821
50225W        W15485  36.689  26.861   5.005
50226W        W15486  44.925  20.609  14.871
50227W        W15487  40.899  32.470   3.129
50228W        W15488  14.859  30.074  11.539
50229W        W15489  32.957   6.865   1.757
50230W        W15490   5.345   5.305   2.239
50231W        W15491   8.079  33.595  12.827
50232W        W15492  10.810  14.281  13.786
50233W        W15493  11.576  44.931   2.586
50234W        W15494  21.139  16.497  11.105
50235W        W15495  29.336   5.891   4.139
50236W        W15496  28.144  41.955   4.564
50237W        W15497  19.750  15.783  11.558
50238W        W15498   8.294  18.724   2.411
50239W        W15499  32.401  14.179   4.839
50240W        W15500  11.838  29.806   1.906
50241W        W15501  40.836  30.184  14.822
50242W        W15502  20.218  25.436  14.380
50243W        W15503  27.189  36.072  10.635
50244W        W15504  21.690  20.327   4.157
50245W        W15505  41.019  30.957   2.344
50246W        W15506   5.819  29.713   1.748
50247W        W15507   2.219   1.531  12.158
50248W        W15508  36.610  21.777   0.409
50249W        W15509   4.535  44.661  13.614
50250W        W15510  34.865  44.863   1.281
50251W        W15511  35.933  35.635   3.705
50252W        W15512   1.976  28.898   0.820
50253W        W15513  21.638  39.022   1.137
50254W        W15514  14.266  30.794   4.966
50255W        W15515   4.617  18.328   3.181
50256W        W15516  28.333  30.606  13.374
50257W        W15517  14.371  20.194   0.042
50258W        W15518  34.400  39.743  13.430
50259W        W15519  44.733  34.999   4.487
50260W        W15520  12.496  27.746  10.248
50261W        W15521  13.123   9.141   3.116
50262W        W15522  44.992   3.993  12.963
50263W        W15523  26.494   2.383   4.012
50264W        W15524  24.158  12.886   3.837
50265W        W15525  39.070  17.226   5.028
50266W        W15526  28.897   9.817   2.944
50267W        W15527  15.796  31.169   4.024
50268W        W15528  33.834  26.424  11.616
50269W        W15529  35.997   3.506   0.246
50270W        W15530  10.620  32.798   3.233
50271W        W15531  23.824  19.308  14.975
50272W        W15532   4.453   8.173   3.303
50273W        W15533  38.363  11.630   0.024
50274W        W15534  30.539   4.840  14.836
50275W        W15535   5.849  21.907  11.509
50276W        W15536  13.352  28.520   4.286
50277W        W15537   9.605  24.458   9.829
50278W        W15538  27.939   5.605   2.395
50279W        W15539  32.296  30.863   2.406
50280W        W15540  42.625  17.458   4.202
50281W        W15541  16.651  23.755   2.813
50282W        W15542  43.871  36.357  14.881
50283W        W15543   9.425  21.026  11.696
50284W        W15544  15.807  16.994   3.213
50285W        W15545   5.851   6.777   2.782
50286W        W15546  26.042  41.945   2.906
50287W        W15547  21.805  27.028  12.842
50288W        W15548  13.899  43.968  11.403
50289W        W15549  41.294  12.337   4.116
50290W        W15550  22.763   7.345   1.785
50291W        W15551  15.080  44.008   2.145
50292W        W15552  14.199  22.975  14.059
50293W        W15553   6.349  24.374   4.948
50294W        W15554   2.596  43.202   3.323
50295W        W15555  20.619  19.658   1.971
50296W        W15556  35.545  17.284   0.829
50297W        W15557  39.772  39.992  12.474
50298W        W15558  42.527  19.122   0.363
50299W        W15559  42.373   5.845  11.544
50300W        W15560   7.292  33.230  14.223
50301W        W15561  18.678  28.647  11.444
50302W        W15562   1.748  12.594  13.493
50303W        W15563  14.777  28.053   3.353
50304W        W15564  42.540  34.175  12.506
50305W        W15565  17.557  11.124   0.336
50306W        W15566  41.971  22.589   0.405
50307W        W15567  31.481   9.381  14.020
50308W        W15568   3.716  23.105  14.659
50309W        W15569  22.591  12.369   3.814
50310W        W15570  25.363   8.396   2.730
50311W        W15571  38.046  44.117  13.071
50312W        W15572  36.569  19.119   1.798
50313W        W15573  35.314  11.992   0.420
50314W        W15574  26.362   2.597   2.631
50315W        W15575   8.177  43.496  11.094
50316W        W15576  42.986  40.483   0.288
50317W        W15577  37.550  37.061   2.930
50318W        W15578   1.256  20.928  12.081
50319W        W15579  37.050  22.978   2.743
50320W        W15580  33.151  30.589   4.316
50321W        W15581  39.798  44.294  12.507
50322W        W15582  36.584  16.397   0.508
50323W        W15583  22.619  37.612   1.440
50324W        W15584  17.574  34.672  11.181
50325W        W15585  16.750   0.187  12.055
50326W        W15586  13.082   6.972   1.251
50327W        W15587  23.090  30.195   3.813
50328W        W15588  16.761   3.585  14.351
50329W        W15589  30.910   8.805   0.055
50330W        W15590  11.309  25.949  10.902
50331W        W15591   7.696  13.576  12.552
50332W        W15592   1.758  38.390  12.086
50333W        W15593   9.354  24.786   4.059
50334W        W15594  18.941  44.295  11.217
50335W        W15595  15.202  42.040  10.901
50336W        W15596   2.260  14.161   2.655
50337W        W15597  26.062  26.235  13.013
50338W        W15598  21.130  44.886  13.866
50339W        W15599  31.979  38.934   0.283
50340W        W15600  35.243  33.463  12.393
50341W        W15601   8.614  15.541  12.911
50342W        W15602  28.023  18.562   1.944
50343W        W15603   7.289  19.756   3.625
50344W        W15604  26.126  44.445   0.933
50345W        W15605   0.714  44.270   3.126
50346W        W15606   2.956  16.592  12.675
50347W        W15607   7.110  37.902  10.466
50348W        W15608  13.302  30.120   3.852
50349W        W15609  19.431   3.506   4.080
50350W        W15610  38.111  37.582   3.785
50351W        W15611   8.788  34.024  14.752
50352W        W15612   0.966  17.153  11.113
50353W        W15613  17.208  43.787   0.904
50354W        W15614  22.293  12.628   4.167
50355W        W15615  23.749  16.705  13.316
50356W        W15616   3.562   4.639  14.891
50357W        W15617  39.754  12.366   0.045
50358W        W15618  21.759   6.886   3.270
50359W        W15619  23.542  26.197   1.004
50360W        W15620  12.863   7.111  13.382
50361W        W15621   8.244  38.630   2.334
50362W        W15622  25.664   7.692  12.090
50363W        W15623  37.554  37.632   1.314
50364W        W15624  24.346  34.097  14.361
50365W        W15625   2.735  38.556   4.840
50366W        W15626  26.475  40.767  14.998
50367W        W15627  32.844  13.380  10.632
50368W        W15628  41.999  38.530   1.920
50369W        W15629  35.973  42.771   0.920
50370W        W15630   1.374  24.100  13.472
50371W        W15631  14.057  23.127  12.430
50372W        W15632  34.275  30.055   1.765
50373W        W15633   4.837  27.927  12.911
50374W        W15634  40.073  13.527  14.570
50375W        W15635  14.417  41.406  12.075
50376W        W15636   7.685   3.122  12.885
50377W        W15637  39.290   1.484   1.231
50378W        W15638   3.681  39.482   4.168
50379W        W15639  12.928  41.401   3.776
50380W        W15640  39.613  37.927  12.814
50381W        W15641  31.518  38.472  11.458
50382W        W15642   9.143  38.927  12.225
50383W        W15643   9.586  43.986  12.866
50384W        W15644   3.671  36.870  14.051
50385W        W15645  22.730  33.891  11.549
50386W        W15646  17.000  11.456   4.973
50387W        W15647   1.800  41.498  11.580
50388W        W15648  29.967  36.820  14.002
50389W        W15649  10.655  41.374  13.144
50390W        W15650   3.327  23.567   4.209
50391W        W15651  27.296   0.931  14.717
50392W        W15652  16.615  28.392  12.784
50393W        W15653   2.886  20.144  13.115
50394W        W15654  25.032  10.004  14.797
50395W        W15655   9.371  25.681   1.806
50396W        W15656   8.599   8.433   2.656
50397W        W15657  12.124  22.563   2.809
50398W        W15658   0.397  20.214  12.037
50399W        W15659  18.388  22.984  13.292
50400W        W15660  31.415   8.612   0.992
50401W        W15661  13.601  37.525   1.499
50402W        W15662  16.839  24.320  12.407
50403W        W15663  23.248  13.132   1.765
50404W        W15664  31.249  29.002   0.854
50405W        W15665  16.261   6.416   4.924
50406W        W15666  32.398  26.550  10.195
50407W        W15667  32.758  17.634   1.704
50408W        W15668  43.017  12.959   2.055
50409W        W15669  24.685  35.454   0.347
50410W        W15670  42.998  13.288   0.391
50411W        W15671  30.098  28.654   1.635
50412W        W15672  34.136  10.722   1.919
50413W        W15673  43.914  29.589  12.059
50414W        W15674  26.110   0.000   3.322
50415W        W15675  14.188  38.593   0.123
50416W        W15676  20.195   1.230  12.456
50417W        W15677  18.081  43.966  11.912
50418W        W15678   2.853  21.700   1.482
50419W        W15679   6.980  28.523   3.506
50420W        W15680  36.644  17.185   5.229
50421W        W15681   6.182   6.165  11.577
50422W        W15682  22.208  13.731   4.151
50423W        W15683   0.114  35.934  11.903
50424W        W15684  16.135  12.667  10.496
50425W        W15685  37.480  37.616   3.781
50426W        W15686  10.679  18.125   2.137
50427W        W15687  33.111  16.136   1.943
50428W        W15688  16.396   2.777   4.633
50429W        W15689  16.824  34.130   1.807
50430W        W15690  39.084  37.423   1.640
50431W        W15691  10.590  41.382  10.756
50432W        W15692  25.204  25.536  14.385
50433W        W15693  40.751  10.173   4.253
50434W        W15694  16.133   4.373  13.892
50435W        W15695   6.652   9.129  11.175
50436W        W15696  27.517  33.624  11.566
50437W        W15697  40.061  17.152   4.320
50438W        W15698  36.502  20.655   3.556
50439W        W15699  43.623   2.468  12.398
50440W        W15700  23.457  44.942   1.908
50441W        W15701  27.645   6.376   1.946
50442W        W15702  32.291  31.243  13.672
50443W        W15703  29.486  10.818   3.607
50444W        W15704   2.973  18.035  11.797
50445W        W15705  12.190  38.414   2.026
50446W        W15706  31.173   1.769  14.417
50447W        W15707  41.004  30.515  12.938
50448W        W15708   4.612  38.485   2.753
50449W        W15709  31.433   8.758  12.422
50450W        W15710  44.722  35.180  12.086
50451W        W15711  22.087  43.277   0.359
50452W        W15712   3.880   3.410   0.723
50453W        W15713  12.334  15.399  14.177
50454W        W15714  40.500  32.464  10.822
50455W        W15715   9.748   2.355  11.120
50456W        W15716   4.215  39.759   0.129
50457W        W15717  37.771   7.230   2.265
50458W        W15718  15.905  18.556  13.318
50459W        W15719  21.666  28.165  14.299
50460W        W15720  22.151  15.381  11.246
50461W        W15721  38.354  35.310   0.610
50462W        W15722  33.645  34.639   3.214
50463W        W15723  22.562   8.244   1.720
50464W        W15724  22.447  22.491  14.338
50465W        W15725  33.409   8.670  10.231
50466W        W15726  42.751  19.992  10.538
50467W        W15727   2.448  20.186   1.925
50468W        W15728  43.253   1.368   2.139
50469W        W15729  32.056  34.906   1.176
50470W        W15730   4.481  25.001   0.788
50471W        W15731  15.241  24.090   2.808
50472W        W15732  38.432  35.783  11.987
50473W        W15733  41.750  44.537  12.639
50474W        W15734  33.011   5.677  13.367
50475W        W15735  17.281  18.635   0.494
50476W        W15736  34.435  26.490   1.835
50477W        W15737   7.462  24.028   4.047
50478W        W15738  25.621  15.811  11.839
50479W        W15739   9.249  39.428  11.993
50480W        W15740  20.398   3.816  11.547
50481W        W15741  17.681  30.054  10.889
50482W        W15742  36.000  30.610   1.271
50483W        W15743   2.728   7.762   3.244
50484W        W15744  21.191  25.692  14.435
50485W        W15745   0.699  34.053   2.704
50486W        W15746  43.448   6.038   1.765
50487W        W15747  33.441  25.745  13.539
50488W        W15748  23.805  38.970   1.003
50489W        W15749   0.918  39.261  11.172
50490W        W15750  20.757  21.670  14.281
50491W        W15751   4.733  24.099  12.505
50492W        W15752  27.190  27.744   4.115
50493W        W15753  37.764  27.075  13.297
50494W        W15754  33.480  10.894   2.416
50495W        W15755  35.178   2.760   2.754
50496W        W15756   3.714  33.989  10.482
50497W        W15757  40.404  33.008  10.983
50498W        W15758  12.217  20.479   2.739
50499W        W15759  36.349  32.207   1.851
50500W        W15760  18.366   2.369   1.901
50501W        W15761  29.945  14.003  10.686
50502W        W15762  12.252  36.676  14.285
50503W        W15763  28.409  41.522   4.714
50504W        W15764  43.625  39.809  13.501
50505W        W15765  12.527  33.605  11.097
50506W        W15766  30.123   0.775  13.022
50507W        W15767  38.243  32.363  14.963
50508W        W15768   0.213  10.807   0.024
50509W        W15769  44.814   4.002  11.643
50510W        W15770   6.224  18.142   4.851
50511W        W15771   9.707  15.664  10.702
50512W        W15772  20.357  37.084   2.871
50513W        W15773  41.566  12.742   2.913
50514W        W15774  39.100  41.729  13.980
50515W        W15775  18.237  29.778  14.323
50516W        W15776  41.505  39.548   0.005
50517W        W15777   1.854  12.720   4.046
50518W        W15778  36.993  30.158  11.287
50519W        W15779  40.319  20.134  11.548
50520W        W15780   7.098  43.386   0.853
50521W        W15781  19.222  22.073   3.096
50522W        W15782  38.951  35.815  11.223
50523W        W15783   9.174  37.637   0.450
50524W        W15784  42.796  23.247   4.665
50525W        W15785   5.895  20.710  14.489
50526W        W15786  30.274  11.116  13.511
50527W        W15787  32.911  12.821  11.549
50528W        W15788  20.282   3.448  11.153
50529W        W15789   5.208  37.257   3.986
50530W        W15790  29.587   1.658   2.314
50531W        W15791   7.357  25.074   4.111
50532W        W15792   6.086   9.551   3.201
50533W        W15793  28.845  34.649  11.060
50534W        W15794  41.015  32.824   4.947
50535W        W15795   9.601   7.845   3.417
50536W        W15796  36.100  42.335  13.573
50537W        W15797  19.819  34.027   1.775
50538W        W15798   5.890  11.367  13.380
50539W        W15799   4.947  19.213  10.772
50540W        W15800  13.334  24.676  12.484
50541W        W15801  44.301  10.185  11.166
50542W        W15802  13.889  27.504  12.053
50543W        W15803  11.652  36.772  12.430
50544W        W15804  30.144  10.782  11.343
50545W        W15805  39.093  33.221  10.216
50546W        W15806  43.318  42.680   4.643
50547W        W15807  34.887  42.089  13.797
50548W        W15808  27.096  37.015   3.141
50549W        W15809  29.195  33.014  14.677
50550W        W15810   4.738  31.914  10.473
50551W        W15811  32.350  14.849   1.722
50552W        W15812  23.707   8.955  11.050
50553W        W15813   8.141   0.183  14.269
50554W        W15814  21.039  39.048   0.333
50555W        W15815  40.108   4.820   3.655
50556W        W15816  19.992  43.771   4.223
50557W        W15817  41.395  14.395  12.891
50558W        W15818  13.214   1.997   4.127
50559W        W15819  10.137  15.291  12.412
50560W        W15820  44.769  40.723  13.301
50561W        W15821  39.599  19.769  12.466
50562W        W15822  13.175  12.329  13.571
50563W        W15823   2.243  21.048  13.908
50564W        W15824  34.121  38.128   1.752
50565W        W15825  27.943  13.053   0.408
50566W        W15826   9.380  44.180  13.615
50567W        W15827  25.432  21.544   3.772
50568W        W15828   3.821  34.822  11.858
50569W        W15829  43.776  28.607  11.411
50570W        W15830  24.266  41.887   1.343
50571W        W15831   4.630  14.297  11.191
50572W        W15832  40.277  13.697   4.147
50573W        W15833  14.532  36.564  12.419
50574W        W15834  16.353  42.424   1.895
50575W        W15835  21.552   7.709   0.786
50576W        W15836  16.846  18.731  13.248
50577W        W15837   6.874  28.613  13.404
50578W        W15838  35.933  17.973   0.821
50579W        W15839  16.436  17.097  10.193
50580W        W15840  25.969   2.389  14.773
50581W        W15841  24.127   1.873   3.735
50582W        W15842  20.915  39.508   4.658
50583W        W15843  16.285  15.747   3.421
50584W        W15844  28.107  18.999  12.897
50585W        W15845  26.251  33.343   3.667
50586W        W15846   6.257  35.306  12.377
50587W        W15847  32.211  18.532  12.007
50588W        W15848  13.709  33.649   0.271
50589W        W15849   1.600  26.791   4.933
50590W        W15850  20.393  13.471   0.152
50591W        W15851  16.474  33.378  12.385
50592W        W15852  16.363  16.638  14.444
50593W        W15853   4.949  41.719  12.872
50594W        W15854  29.392  35.973  14.412
50595W        W15855  32.025   1.362   4.752
50596W        W15856  26.132   9.063  14.929
50597W        W15857  21.074  40.523   0.449
50598W        W15858   8.610  40.165   0.927
50599W        W15859   4.872  34.866  13.231
50600W        W15860  44.246  17.008   3.213
50601W        W15861  41.408   7.219   2.365
50602W        W15862  22.080  42.039  13.344
50603W        W15863  14.236  29.425   0.530
50604W        W15864  11.084  12.232   1.803
50605W        W15865  20.117   6.202   1.315
50606W        W15866  26.443  28.124   4.072
50607W        W15867  34.818  41.566   1.686
50608W        W15868  15.855   6.923   0.627
50609W        W15869  16.642   2.263  13.515
50610W        W15870  42.279  25.620   1.251
50611W        W15871  42.172  21.108  13.886
50612W        W15872  13.726  40.508   1.914
50613W        W15873  24.530  44.490  14.574
50614W        W15874  19.299  10.146   2.998
50615W        W15875  26.974  30.994   3.673
50616W        W15876  14.285   6.176   4.663
50617W        W15877  16.237  38.789   2.900
50618W        W15878  20.659  33.609  10.955
50619W        W15879  25.879  11.772  14.680
50620W        W15880  40.017  37.528  13.351
50621W        W15881  17.542  21.304   3.989
50622W        W15882   3.840  28.663  12.987
50623W        W15883  24.222  43.610  13.375
50624W        W15884  15.915  35.358  14.805
50625W        W15885   3.174  40.829   4.752
50626W        W15886  38.458  41.292  14.232
50627W        W15887   2.031  20.821  11.223
50628W        W15888   9.918  41.607   2.630
50629W        W15889   2.316  34.923   4.627
50630W        W15890  10.829  20.724  14.051
50631W        W15891  35.475   5.463   4.602
50632W        W15892  12.866   5.347  13.012
50633W        W15893  37.267  29.777  12.506
50634W        W15894  35.749   7.822  11.149
50635W        W15895  11.636   4.205  14.106
50636W        W15896  13.128  15.804   0.914
50637W        W15897   0.514   9.821   0.664
50638W        W15898  16.357  12.263  11.975
50639W        W15899  13.059  22.667   1.848
50640W        W15900  25.194   7.821  12.352
50641W        W15901  36.640  14.345  11.561
50642W        W15902  11.360   5.192  10.203
50643W        W15903  42.605  38.495  13.316
50644W        W15904  19.149  12.293   3.098
50645W        W15905  37.341  28.117  11.422
50646W        W15906  20.789  44.294  12.927
50647W        W15907  26.332   7.038   1.316
50648W        W15908   4.806  18.540  10.381
50649W        W15909  26.247   4.430  14.956
50650W        W15910  22.220   6.210   1.691
50651W        W15911  12.364   1.340   4.192
50652W        W15912  16.736  38.934   2.763
50653W        W15913   6.186  23.681   0.275
50654W        W15914  15.633  33.510  12.088
50655W        W15915  32.604  34.647   0.431
50656W        W15916   5.920   9.779   4.107
50657W        W15917  32.635   6.254  14.973
50658W        W15918  41.402   4.355  13.002
50659W        W15919  11.371  33.034   4.319
50660W        W15920  17.104  33.453   4.413
50661W        W15921  29.564   0.427   4.494
50662W        W15922  11.757  36.404  13.560
50663W        W15923   4.475  12.864  14.403
50664W        W15924  42.797  28.956  11.624
50665W        W15925  11.467  30.961  11.128
50666W        W15926  20.728  35.958   1.757
50667W        W15927  35.159  13.034  13.572
50668W        W15928   9.612  35.068   4.115
50669W        W15929  20.341  26.211  10.682
50670W        W15930  28.103  40.409   0.196
50671W        W15931  18.741  19.611   2.187
50672W        W15932  29.541  41.646  14.415
50673W        W15933  38.477  23.236  11.155
50674W        W15934  25.630  32.118   3.545
50675W        W15935  17.129  16.786  11.177
50676W        W15936  20.323  10.230   0.722
50677W        W15937  19.807  20.173   2.602
50678W        W15938  34.973   8.443  13.929
50679W        W15939  22.069  44.942  13.429
50680W        W15940  13.038  13.790   4.834
50681W        W15941   6.306   3.783  11.605
50682W        W15942  16.755  20.815  10.190
50683W        W15943  43.936   6.866  13.946
50684W        W15944   7.187  11.204  11.541
50685W        W15945  16.226   8.406   0.923
50686W        W15946  11.367  32.168   4.513
50687W        W15947  12.680  33.180   1.334
50688W        W15948  29.421  29.646   4.077
50689W        W15949  39.336  38.541   4.686
50690W        W15950  11.740   2.482  11.419
50691W        W15951  43.823  23.307   4.571
50692W        W15952  28.256  38.356  11.673
50693W        W15953  29.528  39.810  14.136
50694W        W15954  17.262  39.051  10.586
50695W        W15955   3.433   9.370  12.568
50696W        W15956  24.694  20.472  12.897
50697W        W15957   9.888   3.423   5.032
50698W        W15958  31.237  43.772   0.308
50699W        W15959  18.989  23.399   3.448
50700W        W15960  15.792  22.551   4.033
50701W        W15961  42.808  37.487   3.233
50702W        W15962  18.756  24.301   4.994
50703W        W15963  13.170   9.344  13.005
50704W        W15964  23.666   8.634  14.970
50705W        W15965  14.426  14.172  14.133
50706W        W15966  21.123  27.544   2.932
50707W        W15967  21.734  43.691   4.875
50708W        W15968  34.875  22.116  13.861
50709W        W15969  15.780   8.462  14.278
50710W        W15970  14.529  40.520  12.424
50711W        W15971   2.151   7.405  13.077
50712W        W15972  37.594  19.047  10.664
50713W        W15973  13.325  20.445  12.014
50714W        W15974  43.750  31.118  12.425
50715W        W15975  26.978  13.931  10.702
50716W        W15976  21.202  15.313  12.420
50717W        W15977  43.867   6.149   1.368
50718W        W15978   1.689  18.478  12.529
50719W        W15979  21.660  27.040   0.009
50720W        W15980  37.320  15.208   0.229
50721W        W15981  12.560  11.627  12.027
50722W        W15982  25.864  33.954  13.917
50723W        W15983   8.674  13.562  14.311
50724W        W15984  13.896  38.441   3.835
50725W        W15985   7.496   3.322   4.114
50726W        W15986  31.526   9.914   3.290
50727W        W15987  43.123   5.901   3.241
50728W        W15988  36.874  43.485  13.920
50729W        W15989  30.658  11.091  10.619
50730W        W15990   5.825   0.709  14.871
50731W        W15991  20.763  36.531   5.094
50732W        W15992  35.902   6.883  12.203
50733W        W15993  35.440   2.869   3.187
50734W        W15994  27.955  31.789   0.270
50735W        W15995  26.762  24.784   3.559
50736W        W15996  15.431   8.421  13.897
50737W        W15997   8.395  22.775   0.235
50738W        W15998  29.734  22.916  11.843
50739W        W15999   0.001   1.467  13.944
50740W        W16000  28.066  41.958   2.111
50741W        W16001  19.534  22.764   9.852
50742W        W16002  20.483   6.330  12.403
50743W        W16003   8.613  25.443   1.473
50744W        W16004  29.471  43.418   0.899
50745W        W16005  12.181  34.162   0.423
50746W        W16006  17.393  42.747   4.592
50747W        W16007   3.673   6.697   3.684
50748W        W16008  33.141   9.588   0.828
50749W        W16009  29.845  27.505   4.031
50750W        W16010  19.123  30.974  12.631
50751W        W16011  35.540  39.066  14.232
50752W        W16012  41.431  32.874   3.021
50753W        W16013   3.276   0.326  10.877
50754W        W16014  31.344  28.396   0.200
50755W        W16015  32.834   1.415  13.829
50756W        W16016  41.007  10.572   2.486
50757W        W16017  19.993  35.535   1.848
50758W        W16018  24.227  12.148  13.843
50759W        W16019  29.674   4.772  14.042
50760W        W16020  40.363  44.199   4.065
50761W        W16021  28.639  15.770   4.633
50762W        W16022   0.206  44.391   3.089
50763W        W16023  16.232  18.946  11.159
50764W        W16024   4.890   4.894   2.779
50765W        W16025  20.773  32.835   4.562
50766W        W16026  25.039   5.169  13.103
50767W        W16027  19.304  39.963   0.952
50768W        W16028  31.846  44.924   3.113
50769W        W16029  17.158  18.084   2.254
50770W        W16030  43.625  33.943   4.311
50771W        W16031   9.462  43.657  12.486
50772W        W16032   5.007  16.181  12.452
50773W        W16033  34.877   6.570   0.703
50774W        W16034  12.460   3.134   4.150
50775W        W16035   5.412  19.743  14.775
50776W        W16036  33.840  40.717   2.256
50777W        W16037  25.294   4.734  14.271
50778W        W16038  11.430  13.686   2.239
50779W        W16039   1.007  39.671  14.461
50780W        W16040  38.912  30.501   3.364
50781W        W16041  23.235  31.726   3.337
50782W        W16042   8.372  18.737   3.912
50783W        W16043  32.861  36.361   3.915
50784W        W16044  17.984  28.535   4.552
50785W        W16045   8.741  16.688  10.894
50786W        W16046  31.546  10.125  14.495
50787W        W16047  37.028  29.025   1.117
50788W        W16048  42.044  30.513  12.912
50789W        W16049  26.649  39.409   1.740
50790W        W16050  29.919   6.670  10.779
50791W        W16051  30.563  17.628   4.622
50792W        W16052  40.310  19.483  14.438
50793W        W16053  41.911  24.953  10.819
50794W        W16054  43.782  37.943   1.744
50795W        W16055  38.799  39.012  12.353
50796W        W16056  29.248  29.386   2.726
50797W        W16057  44.860   6.622   3.134
50798W        W16058  43.790  38.066   1.203
50799W        W16059  31.802  33.463  12.878
50800W        W16060  23.296  31.990   4.595
50801W        W16061  28.422   4.994  14.359
50802W        W16062   0.331  38.426   3.218
50803W        W16063  27.829   7.438   3.754
50804W        W16064  34.738  33.408   4.690
50805W        W16065  12.718  20.621  14.192
50806W        W16066  39.471  35.986  12.807
50807W        W16067  37.417  26.186  13.892
50808W        W16068  26.733  28.387  11.399
50809W        W16069  17.675  19.051  12.940
50810W        W16070   5.320  14.486   1.880
50811W        W16071  11.778  31.205  12.652
50812W        W16072  18.243  27.818   2.397
50813W        W16073  44.333  26.163   2.674
50814W        W16074  23.198   4.687   2.954
50815W        W16075  24.333  26.578   5.035
50816W        W16076  12.250  21.654   3.638
50817W        W16077  20.476  44.900  10.652
50818W        W16078  26.489   3.604  14.762
50819W        W16079  44.870   3.001   2.795
50820W        W16080  11.334  40.808   3.766
50821W        W16081  39.015  33.325  14.461
50822W        W16082  43.365   3.085   0.795
50823W        W16083  36.843  10.827   4.695
50824W        W16084  44.405   1.353   0.472
50825W        W16085  11.309  19.210  13.483
50826W        W16086  39.441  24.501   2.144
50827W        W16087  13.314  22.209  14.431
50828W        W16088   4.206   3.734  13.391
50829W        W16089  22.835  35.637   2.433
50830W        W16090  37.932  12.328   4.451
50831W        W16091  37.293   3.184   4.148
50832W        W16092  26.203  15.977   2.611
50833W        W16093  44.137  24.789  12.064
50834W        W16094   0.556  41.296   3.230
50835W        W16095  30.953  37.065  12.439
50836W        W16096  40.462   5.847  14.819
50837W        W16097   8.223  21.716   0.881
50838W        W16098  18.258  31.300  14.389
50839W        W16099  43.929  43.920   4.049
50840W        W16100  29.215  34.173   3.196
50841W        W16101  25.687  26.243   4.505
50842W        W16102  21.628  18.582  10.708
50843W        W16103   5.757   2.200  12.420
50844W        W16104  28.157  25.582  12.039
50845W        W16105  30.932  34.016  13.864
50846W        W16106  30.372  43.889  11.008
50847W        W16107   6.897  21.255  10.787
50848W        W16108  34.989  41.700   2.561
50849W        W16109   9.106  31.907   4.130
50850W        W16110  27.101  14.282   1.435
50851W        W16111   5.433  24.136   0.392
50852W        W16112  18.346   4.596   1.172
50853W        W16113  33.236   1.312   5.060
50854W        W16114   8.195   8.238  11.505
50855W        W16115  29.478  17.104  13.269
50856W        W16116  42.205  24.426   2.411
50857W        W16117   9.340  28.781   5.028
50858W        W16118  34.462  24.477   3.932
50859W        W16119   0.859  19.660   2.784
50860W        W16120   1.898  23.159   3.391
50861W        W16121  27.906   4.072   1.418
50862W        W16122  23.267   0.946  11.011
50863W        W16123   0.334  22.170   4.539
50864W        W16124  20.162  43.644  10.702
50865W        W16125   1.954   1.876   3.704
50866W        W16126  33.304   2.976   0.639
50867W        W16127   2.531   2.985   4.686
50868W        W16128  35.618   9.205  11.535
50869W        W16129  36.303  44.247  14.234
50870W        W16130  22.319  42.035  10.609
50871W        W16131   4.434   6.678  11.872
50872W        W16132  27.140  35.313  11.100
50873W        W16133  29.897  29.690   1.447
50874W        W16134  17.306  13.515   4.388
50875W        W16135  24.709   4.003   1.311
50876W        W16136  22.557  33.922  10.025
50877W        W16137  23.685  22.312  11.232
50878W        W16138  27.464  40.971   4.066
50879W        W16139  42.378  36.164  11.685
50880W        W16140  10.734  43.506  14.871
50881W        W16141  40.376  28.321  10.348
50882W        W16142  11.423  10.384   4.063
50883W        W16143  39.579  39.378   4.637
50884W        W16144  19.663  24.758  10.452
50885W        W16145  40.667  43.515  11.912
50886W        W16146   2.341  19.161   1.210
50887W        W16147   0.166   4.405  14.965
50888W        W16148   7.692  31.339  11.798
50889W        W16149  18.618  25.437  10.626
50890W        W16150  39.898  39.401  13.374
50891W        W16151  29.087  41.018   2.353
50892W        W16152  14.800   3.306  14.056
50893W        W16153   0.806  30.517   3.385
50894W        W16154  11.517  31.299   4.066
50895W        W16155  14.828  36.121  14.694
50896W        W16156  21.889  17.028  14.734
50897W        W16157  40.291  22.490   3.758
50898W        W16158   0.112  33.882   4.127
50899W        W16159   2.734  35.801   4.991
50900W        W16160  33.807  40.550   4.612
50901W        W16161  15.096  33.856  12.473
50902W        W16162   8.505  34.489  14.252
50903W        W16163   0.480   9.967  12.412
50904W        W16164  21.506  39.385   0.801
50905W        W16165   8.014  10.825   3.075
50906W        W16166  41.295  36.824   0.830
50907W        W16167  43.429  12.157   1.812
50908W        W16168  30.654  30.132  13.978
50909W        W16169  23.605  38.226   1.416
50910W        W16170   1.671   7.309  11.092
50911W        W16171  44.175  28.072  12.586
50912W        W16172   8.202  31.052   1.905
50913W        W16173   2.705   4.358   3.738
50914W        W16174  32.697  21.182  14.745
50915W        W16175   1.426  16.215   2.373
50916W        W16176  17.185  16.602   5.023
50917W        W16177   4.785  44.492   1.853
50918W        W16178  11.325   0.003  11.140
50919W        W16179  24.939  28.322   4.678
50920W        W16180   4.335  25.527   0.789
50921W        W16181  24.970  30.589   3.220
50922W        W16182  25.217  16.338  14.990
50923W        W16183  23.538   8.795  11.665
50924W        W16184  12.143  27.463   2.790
50925W        W16185  24.606  12.433  10.972
50926W        W16186  36.044   3.363  12.417
50927W        W16187   3.427  18.169  14.989
50928W        W16188  30.444  35.311   4.166
50929W        W16189   6.816   2.891   0.213
50930W        W16190  41.050   5.782   0.531
50931W        W16191  19.861  25.522  12.578
50932W        W16192  29.515  39.369   1.105
50933W        W16193  22.345  39.852   3.801
50934W        W16194  21.346  42.877   3.662
50935W        W16195  39.268  32.223  13.343
50936W        W16196  14.795  10.780  10.093
50937W        W16197  29.506  31.039   2.767
50938W        W16198   8.744   8.597   1.243
50939W        W16199  38.409  20.517   4.121
50940W        W16200  33.439  28.581  11.761
50941W        W16201   6.531  34.553   0.893
50942W        W16202   5.304  13.338   3.132
50943W        W16203  38.747   4.302  11.824
50944W        W16204  41.013  41.258   0.196
50945W        W16205   7.539  17.529  11.971
50946W        W16206  17.004   5.812  14.467
50947W        W16207   4.918   3.829   1.637
50948W        W16208  17.254  16.039  12.223
50949W        W16209   2.249  30.245   4.222
50950W        W16210  13.758   5.309  13.211
50951W        W16211   4.011  38.863  11.539
50952W        W16212   8.356   0.461   3.296
50953W        W16213  11.704  24.777  11.516
50954W        W16214   5.534  10.822   4.242
50955W        W16215  37.291  20.139   0.102
50956W        W16216  36.942  10.914   0.309
50957W        W16217   2.006  25.207   0.833
50958W        W16218  22.947  33.749   0.991
50959W        W16219  21.453  32.162   1.312
50960W        W16220  34.885   2.833  10.510
50961W        W16221   9.165  26.740   2.282
50962W        W16222  36.071  12.781  11.411
50963W        W16223  22.210  34.548  13.593
50964W        W16224  25.222  17.972   2.821
50965W        W16225  12.571  29.039   4.460
50966W        W16226  28.698  14.792   4.767
50967W        W16227  34.362  32.448   3.941
50968W        W16228  11.023  34.173  10.499
50969W        W16229   4.417  28.963   3.519
50970W        W16230  13.411   2.497  12.103
50971W        W16231  29.943  20.699  12.099
50972W        W16232   6.872  26.954  12.018
50973W        W16233  38.390   0.100  11.634
50974W        W16234  16.157  28.273  14.299
50975W        W16235  17.727   1.753   3.316
50976W        W16236  15.541   8.771   3.808
50977W        W16237  29.038   0.945  11.093
50978W        W16238  41.489   6.121  14.354
50979W        W16239   6.501   7.321   0.278
50980W        W16240  30.581  40.470  14.921
50981W        W16241  41.528  37.058   3.742
50982W        W16242  33.807  39.950   0.441
50983W        W16243   4.811  14.995   2.878
50984W        W16244  33.054  29.981   1.875
50985W        W16245  13.357  35.551  13.078
50986W        W16246   4.196  43.303   1.300
50987W        W16247  42.951  33.587   2.723
50988W        W16248  31.389  29.268  11.991
50989W        W16249  21.312  37.810   2.376
50990W        W16250  24.616  13.146  12.846
50991W        W16251   0.015  29.892   0.047
50992W        W16252  28.355  34.474  12.451
50993W        W16253  20.333   9.272   4.089
50994W        W16254  25.147  14.159   2.423
50995W        W16255  13.700  13.044  10.719
50996W        W16256  19.344   7.235  12.030
50997W        W16257  10.151  31.189  10.431
50998W        W16258  37.045  25.900  10.726
50999W        W16259   9.656   6.622   1.340
51000W        W16260  20.860  41.672  11.568
51001W        W16261  10.751  36.483   4.202
51002W        W16262   6.287  25.310  11.861
51003W        W16263  40.434  31.524   3.813
51004W        W16264  12.251  32.147   0.189
51005W        W16265  14.016   4.954   4.508
51006W        W16266   7.073  19.118  12.333
51007W        W16267  18.198   8.454  11.860
51008W        W16268  41.780  17.280   1.783
51009W        W16269   1.399  35.942  12.917
51010W        W16270  22.552   8.681   0.430
51011W        W16271  42.897  42.881  10.955
51012W        W16272  40.554   3.711   1.863
51013W        W16273  43.090   3.830  12.882
51014W        W16274  43.816   5.718   0.470
51015W        W16275  39.837  16.682  14.050
51016W        W16276  19.451   6.440   0.401
51017W        W16277  44.864  10.505   2.599
51018W        W16278  42.260  32.996  13.154
51019W        W16279  18.055  33.065  12.191
51020W        W16280  27.142  17.167  10.938
51021W        W16281  25.092  14.013   1.935
51022W        W16282   4.842  38.557  11.091
51023W        W16283  12.066   0.025   1.772
51024W        W16284   1.727  23.795  10.996
51025W        W16285  22.432  33.490  10.552
51026W        W16286  37.510   8.610  11.100
51027W        W16287   4.648  29.905   3.768
51028W        W16288  43.265  42.523   0.319
51029W        W16289  10.669   0.048   3.554
51030W        W16290  20.115  38.196   0.951
51031W        W16291  24.187  42.609  11.472
51032W        W16292  18.989  36.428   3.615
51033W        W16293  15.281  31.815   1.814
51034W        W16294  31.979  23.040   4.100
51035W        W16295  34.035  36.146  13.406
51036W        W16296  35.988  44.329  12.150
51037W        W16297  12.692  27.258   0.799
51038W        W16298  35.570  20.315  14.023
51039W        W16299   5.288   8.873   0.039
51040W        W16300  38.909  15.029  13.827
51041W        W16301   0.007  20.518   2.785
51042W        W16302  18.010  20.842  13.525
51043W        W16303   7.097  11.421  12.433
51044W        W16304  26.994  22.510   0.871
51045W        W16305  19.537   8.605  12.478
51046W        W16306  18.528  15.220  11.565
51047W        W16307   5.138  38.777   0.448
51048W        W16308   4.887  33.163   2.866
51049W        W16309   9.009  13.266   2.794
51050W        W16310   6.948  16.828   1.790
51051W        W16311  20.950  22.991  11.079
51052W        W16312  21.059  30.956   4.856
51053W        W16313   4.268  21.046   1.291
51054W        W16314  42.282  17.004   3.529
51055W        W16315  43.450   5.978   0.797
51056W        W16316  36.470  20.810   0.312
51057W        W16317  18.786  39.112  14.380
51058W        W16318  41.798  37.503   1.277
51059W        W16319  36.829  25.952   2.720
51060W        W16320   3.743  22.795   1.246
51061W        W16321  13.918  10.886  11.541
51062W        W16322   9.386  27.525   0.432
51063W        W16323  16.797   8.996   1.473
51064W        W16324  32.535  40.336   3.688
51065W        W16325   3.390  43.281   1.861
51066W        W16326  41.484  31.116  12.093
51067W        W16327  20.750   0.900   3.246
51068W        W16328   6.738  27.236  13.341
51069W        W16329   8.325   4.008   3.639
51070W        W16330   0.928  39.954  11.499
51071W        W16331  28.936  30.476  10.973
51072W        W16332   4.017  26.051   3.585
51073W        W16333  21.213  41.974   4.633
51074W        W16334   0.052  11.384  13.490
51075W        W16335  39.066   5.728   0.351
51076W        W16336  19.547  28.984  14.493
51077W        W16337  10.022  12.013   0.558
51078W        W16338   4.487  20.229  11.190
51079W        W16339  16.596  30.188  12.295
51080W        W16340  39.726  32.601   0.442
51081W        W16341  26.635  38.698  10.105
51082W        W16342  38.755  21.772   2.300
51083W        W16343  10.217  13.952  13.428
51084W        W16344  24.110  25.776  13.817
51085W        W16345   2.840  32.951  12.663
51086W        W16346  22.587  19.802  13.474
51087W        W16347  15.260  36.142  11.222
51088W        W16348  38.609   6.838  13.350
51089W        W16349  13.296  11.818  11.588
51090W        W16350  26.092  36.086  12.350
51091W        W16351  13.311   1.489   4.160
51092W        W16352  27.199   4.182   5.058
51093W        W16353  42.572  19.895   1.657
51094W        W16354  20.969  30.879  12.073
51095W        W16355   5.686  12.537   3.984
51096W        W16356  26.647   5.994   5.151
51097W        W16357  27.871  17.938  14.990
51098W        W16358  43.866  23.960  12.512
51099W        W16359  37.489   3.834  12.267
51100W        W16360  12.440  16.271   1.772
51101W        W16361   9.837  19.556  13.365
51102W        W16362  37.413  39.489  12.374
51103W        W16363  21.689  29.178   0.434
51104W        W16364  29.824  44.808   2.874
51105W        W16365   8.926  18.691   0.740
51106W        W16366  36.834  40.980  14.440
51107W        W16367  13.425  16.930   3.615
51108W        W16368  13.782  43.364  13.354
51109W        W16369  21.461  16.212  10.322
51110W        W16370  37.651  32.859   1.581
51111W        W16371   8.173  23.031  14.806
51112W        W16372  20.835  36.376  11.064
51113W        W16373  25.719  35.574  10.670
51114W        W16374  17.532   9.361   2.573
51115W        W16375  36.603  24.133   3.004
51116W        W16376   9.709   5.849  13.449
51117W        W16377   4.603  11.881  14.406
51118W        W16378  35.135  25.682  12.071
51119W        W16379  37.154  43.436  10.195
51120W        W16380  17.933  29.307   4.021
51121W        W16381  16.897  12.319  10.746
51122W        W16382  38.515  40.503  12.612
51123W        W16383   7.371  40.928   4.683
51124W        W16384  28.868  27.102   9.602
51125W        W16385   1.285  14.930  11.934
51126W        W16386   8.952  29.177  14.768
51127W        W16387  38.040  29.472  14.823
51128W        W16388  22.448  39.845   2.258
51129W        W16389  27.892  15.163   1.862
51130W        W16390  13.990  12.821  10.332
51131W        W16391  34.826   1.905  12.531
51132W        W16392  25.058  16.638   4.519
51133W        W16393  35.162  40.056   3.650
51134W        W16394   7.635  12.152  10.967
51135W        W16395   8.806   7.632   1.162
51136W        W16396  35.632  39.308  12.848
51137W        W16397  29.145  34.974   4.483
51138W        W16398  34.531  10.269  14.743
51139W        W16399  41.004  12.570  11.220
51140W        W16400  39.333  23.433  13.097
51141W        W16401  13.018  39.856   0.558
51142W        W16402  43.052  11.554  13.761
51143W        W16403   0.926  18.838  12.146
51144W        W16404  25.733  29.557   1.391
51145W        W16405  35.452  11.664  13.623
51146W        W16406  25.431   6.843   3.158
51147W        W16407  23.239  12.756   3.833
51148W        W16408  41.947  16.296  14.519
51149W        W16409  25.902  25.173  12.175
51150W        W16410   1.409  39.604  13.155
51151W        W16411  31.958  21.743   2.395
51152W        W16412  16.787  28.183  12.353
51153W        W16413  24.218  40.409   3.622
51154W        W16414  32.781  34.657   1.764
51155W        W16415  32.128  18.780  13.779
51156W        W16416   8.282   5.423   0.727
51157W        W16417  30.780   6.619   4.729
51158W        W16418   1.881  28.479  11.475
51159W        W16419  43.159  33.277  10.787
51160W        W16420   9.682  25.414   1.240
51161W        W16421  24.592   5.871   2.261
51162W        W16422   0.345   9.155  13.494
51163W        W16423  27.772   8.369  12.336
51164W        W16424  39.398   8.232   0.983
51165W        W16425  29.911   7.206  12.764
51166W        W16426  11.760  25.400   2.193
51167W        W16427  13.847  42.588  14.925
51168W        W16428  26.132  23.622   1.384
51169W        W16429  32.005  33.085   3.664
51170W        W16430  32.427   3.414   0.701
51171W        W16431  22.605  18.845   3.251
51172W        W16432  34.023  35.646  11.564
51173W        W16433  25.511   8.943   3.257
51174W        W16434  37.562  38.107  12.949
51175W        W16435  20.474   2.052  14.075
51176W        W16436  14.268   4.725   0.858
51177W        W16437  33.677  29.654   0.768
51178W        W16438  41.700  12.767  13.831
51179W        W16439  21.354  29.951  13.393
51180W        W16440  36.550  20.712  12.916
51181W        W16441  14.013  40.586  12.496
51182W        W16442  26.087  19.199  11.395
51183W        W16443   5.087  29.621   3.663
51184W        W16444  36.986  21.657  14.490
51185W        W16445  12.163   7.523   2.383
51186W        W16446  42.490  25.561  14.336
51187W        W16447   4.811  15.657  12.469
51188W        W16448  28.475  20.538  11.198
51189W        W16449  12.659  25.414   0.385
51190W        W16450  26.462   5.811  14.844
51191W        W16451  41.968  28.218   4.268
51192W        W16452  34.098  12.212  13.481
51193W        W16453   6.827  19.718   3.947
51194W        W16454  24.755  39.060  12.954
51195W        W16455   0.729   1.874   2.639
51196W        W16456  33.520  22.744  12.492
51197W        W16457  14.321   1.492  11.940
51198W        W16458  22.715   6.805   1.243
51199W        W16459  19.073  39.113  12.562
51200W        W16460  39.434  34.930   1.341
51201W        W16461  15.260  30.987   1.874
51202W        W16462  35.962  39.234   0.844
51203W        W16463  43.386  23.732  10.962
51204W        W16464  39.540   3.879  10.390
51205W        W16465  31.368  20.991   2.095
51206W        W16466  15.200  37.087  13.114
51207W        W16467  12.634  42.770  10.598
51208W        W16468   9.772   0.281   1.659
51209W        W16469  39.022  39.877   1.501
51210W        W16470  38.529  44.069  14.796
51211W        W16471  24.599  32.371   0.993
51212W        W16472  38.495  35.049   2.413
51213W        W16473  27.800   8.026   5.073
51214W        W16474  35.689  11.521   0.014
51215W        W16475   4.167   8.830   3.556
51216W        W16476  38.508  28.481   3.431
51217W        W16477  33.748  10.093   4.093
51218W        W16478  33.273  30.032   1.417
51219W        W16479  35.562  43.405  12.402
51220W        W16480  37.522  41.877  11.205
51221W        W16481  28.252  17.173   4.312
51222W        W16482  22.022  44.024   1.762
51223W        W16483  25.079  14.154   3.833
51224W        W16484  26.662  36.795   3.335
51225W        W16485  31.323  41.537   2.172
51226W        W16486  28.620   8.358   3.189
51227W        W16487   0.456  33.604   3.871
51228W        W16488  13.296   2.928  11.842
51229W        W16489   4.798  36.827  14.998
51230W        W16490  39.910  39.373   3.772
51231W        W16491   0.658  19.842   3.222
51232W        W16492  11.768  20.739   2.763
51233W        W16493  15.145  39.864  12.018
51234W        W16494  44.440  32.613   1.377
51235W        W16495  33.573  35.678  11.227
51236W        W16496  23.490  28.708  13.196
51237W        W16497   8.199  27.028   0.301
51238W        W16498  43.313   1.678   2.596
51239W        W16499  36.653   5.188   2.206
51240W        W16500  19.033   1.005   0.566
51241W        W16501  28.242  23.209  13.998
51242W        W16502  41.224  13.696   3.836
51243W        W16503  19.493  14.484  13.892
51244W        W16504  13.565   2.003  11.226
51245W        W16505  36.605  37.356  14.398
51246W        W16506  33.248  13.544   0.357
51247W        W16507  26.516  31.510   1.282
51248W        W16508  38.261  18.612   1.364
51249W        W16509  40.898   0.577  12.999
51250W        W16510  24.660  29.615   3.457
51251W        W16511   7.352  23.437   1.852
51252W        W16512  30.523   6.808   0.199
51253W        W16513  10.381  32.270   1.601
51254W        W16514  29.366  12.140   0.729
51255W        W16515  23.502  11.195  14.297
51256W        W16516  17.193  44.512  13.800
51257W        W16517  19.991   9.907  10.557
51258W        W16518  19.769  19.611   2.322
51259W        W16519  37.382  34.886   3.863
51260W        W16520   9.301  25.989   2.668
51261W        W16521  15.012  33.023  10.834
51262W        W16522  27.314  36.957  14.243
51263W        W16523  28.488  23.087  12.988
51264W        W16524  20.653  39.560  14.505
51265W        W16525  34.818  22.509   3.150
51266W        W16526  32.714  29.940   4.969
51267W        W16527  25.981  27.049   4.650
51268W        W16528  31.439  10.920  12.083
51269W        W16529   5.748  40.062  13.842
51270W        W16530  16.198  21.520  14.716
51271W        W16531  11.371  28.668  11.462
51272W        W16532   5.735  32.448  13.340
51273W        W16533  19.510   7.415  10.318
51274W        W16534  29.590  36.618  14.698
51275W        W16535  25.621  22.724   2.362
51276W        W16536  44.940  10.571  11.541
51277W        W16537  12.638  37.504   1.715
51278W        W16538  29.564  21.496  12.001
51279W        W16539  35.481  38.821  10.766
51280W        W16540  12.541   0.512   0.397
51281W        W16541  34.150  30.549  10.756
51282W        W16542  18.871   4.860   0.674
51283W        W16543  43.239  15.602  12.388
51284W        W16544  28.387  20.596   2.115
51285W        W16545  12.252  40.051  12.369
51286W        W16546  25.546  15.123   1.168
51287W        W16547  16.667  40.350  10.532
51288W        W16548   7.381  24.915  12.213
51289W        W16549  21.033  20.892   3.713
51290W        W16550  25.156  12.726  11.679
51291W        W16551  33.247  44.688  10.841
51292W        W16552  11.240   3.920   3.996
51293W        W16553  14.664  25.688   3.310
51294W        W16554  12.953  21.539  11.799
51295W        W16555   3.432  10.745   4.587
51296W        W16556  21.332  28.584  11.844
51297W        W16557  17.155  40.072   0.662
51298W        W16558  20.145  34.987  12.412
51299W        W16559  35.984  22.122   3.801
51300W        W16560  37.144   0.221  14.743
51301W        W16561  22.612  39.278   2.882
51302W        W16562  30.891  13.333   4.210
51303W        W16563   8.738  23.058   3.886
51304W        W16564  44.079  11.140  12.402
51305W        W16565  29.233  11.346  12.450
51306W        W16566  31.455  29.697  13.164
51307W        W16567   5.358  35.095  11.239
51308W        W16568   3.603  24.578   2.813
51309W        W16569   0.333  17.162  14.262
51310W        W16570  38.059  41.542  14.472
51311W        W16571  24.982  24.587   3.989
51312W        W16572  31.913  17.408   2.903
51313W        W16573   0.993  37.473  12.554
51314W        W16574  27.442  19.189  10.672
51315W        W16575  44.886  33.770  11.884
51316W        W16576   9.224  26.488   4.583
51317W        W16577  38.598   5.344  12.062
51318W        W16578   5.440   6.761  12.067
51319W        W16579  39.054  17.685  11.503
51320W        W16580   9.212  33.075   0.629
51321W        W16581  35.519  21.203  11.149
51322W        W16582  24.879  35.469   1.702
51323W        W16583  16.305  23.477  13.559
51324W        W16584  20.737   3.059  12.374
51325W        W16585  26.192  30.749   2.107
51326W        W16586  10.285   6.760  13.847
51327W        W16587  12.724  29.738   3.217
51328W        W16588   6.890  44.209   4.638
51329W        W16589   5.506  31.863  13.890
51330W        W16590  30.121  43.341   3.695
51331W        W16591  23.761  42.031  10.759
51332W        W16592   0.744  44.947   0.909
51333W        W16593  18.077  28.160   3.727
51334W        W16594  39.452  21.112  10.595
51335W        W16595  36.281  35.529  13.659
51336W        W16596   7.731  32.937   4.512
51337W        W16597  38.308  39.001  12.586
51338W        W16598  15.436  15.241   3.205
51339W        W16599  24.708  21.387  11.225
51340W        W16600  41.425  32.100   2.313
51341W        W16601  43.863  12.409  12.018
51342W        W16602   7.386  33.084   1.167
51343W        W16603  32.638  35.357   0.012
51344W        W16604  25.724  38.806   1.829
51345W        W16605   5.957  33.885  11.212
51346W        W16606  40.954  15.544   2.722
51347W        W16607   5.861   6.934   0.787
51348W        W16608  28.867  41.535  13.356
51349W        W16609  41.128  14.722  12.535
51350W        W16610  13.222  18.255  11.147
51351W        W16611  19.129   1.890  10.940
51352W        W16612  22.728  43.247  10.746
51353W        W16613  38.989  23.142  12.305
51354W        W16614  18.424  24.968  12.040
51355W        W16615  36.289  40.905  11.715
51356W        W16616  39.496  32.905   1.777
51357W        W16617  19.208  15.537   3.717
51358W        W16618  40.312  42.983  13.358
51359W        W16619  26.535   3.255   1.815
51360W        W16620   6.919   0.666   1.872
51361W        W16621   1.930  39.308  10.981
51362W        W16622  39.292   4.334   0.436
51363W        W16623  27.351  22.296   3.528
51364W        W16624  36.063  15.677   4.533
51365W        W16625  24.914  20.650  14.819
51366W        W16626  25.088  18.799  10.782
51367W        W16627  40.061  31.947  12.338
51368W        W16628   1.533  10.620   2.235
51369W        W16629  22.149  19.535   4.259
51370W        W16630  24.144  12.934  11.955
51371W        W16631  10.262   4.700  12.468
51372W        W16632  40.858   9.615   2.481
51373W        W16633  33.419  13.380   2.333
51374W        W16634  37.611  25.714  13.836
51375W        W16635  28.086  27.096   4.807
51376W        W16636  25.607  10.160  11.615
51377W        W16637  16.774  16.766   0.826
51378W        W16638  42.312  33.623  13.768
51379W        W16639  20.988  35.476   1.842
51380W        W16640  14.863  10.425  10.604
51381W        W16641   2.464  21.584  11.166
51382W        W16642  11.077  10.077   3.551
51383W        W16643  37.365   0.914   1.410
51384W        W16644  29.847  15.229   1.680
51385W        W16645  44.553  34.562   3.662
51386W        W16646   6.264   2.598  10.988
51387W        W16647  16.697   5.356  11.629
51388W        W16648  25.153   1.354   2.436
51389W        W16649  41.500   7.905   0.168
51390W        W16650  18.656  22.509   2.612
51391W        W16651  17.631   4.234   5.023
51392W        W16652  30.423  14.182   3.827
51393W        W16653  14.336  17.274  14.527
51394W        W16654  30.692  14.840  14.283
51395W        W16655  24.226  39.304  11.899
51396W        W16656   4.227   6.400  13.723
51397W        W16657  35.389   1.967   5.378
51398W        W16658  39.995  23.660   2.387
51399W        W16659  28.421  17.096  14.502
51400W        W16660  26.508  20.761  14.059
51401W        W16661  20.030  26.980  11.403
51402W        W16662  11.108  19.979  13.027
51403W        W16663   5.203   1.195  10.978
51404W        W16664   5.269  21.304  11.990
51405W        W16665  37.820  39.374   0.152
51406W        W16666  42.703  10.354   0.340
51407W        W16667   2.526  34.564  14.383
51408W        W16668   2.457   7.810   1.169
51409W        W16669  30.626  36.130  14.338
51410W        W16670   2.922  40.765  12.073
51411W        W16671  21.241  26.707   1.895
51412W        W16672  15.065   9.356  13.341
51413W        W16673  43.845  14.223  10.720
51414W        W16674  20.293  44.891  14.520
51415W        W16675  19.731  11.730   0.291
51416W        W16676  18.086  28.328   2.338
51417W        W16677  15.710   2.435   0.965
51418W        W16678  40.998  20.951   0.427
51419W        W16679  20.972  11.690   4.664
51420W        W16680   9.219  25.286   4.048
51421W        W16681  12.756  24.271  10.338
51422W        W16682  40.720  27.558  14.051
51423W        W16683  30.064  31.749  14.938
51424W        W16684  37.641  31.133   3.101
51425W        W16685  40.743   6.073   0.829
51426W        W16686  33.013   6.339   2.962
51427W        W16687   2.589  26.590   4.026
51428W        W16688   1.303  21.026   3.600
51429W        W16689   0.256   3.803  12.420
51430W        W16690  22.343  22.600   4.603
51431W        W16691  14.540  21.260   3.412
51432W        W16692   8.672  29.946   0.903
51433W        W16693  31.101  20.768   0.972
51434W        W16694  15.860  15.778   4.953
51435W        W16695   7.641  13.094   4.527
51436W        W16696  10.393  23.542   1.780
51437W        W16697   1.807  36.068   2.766
51438W        W16698  24.757  43.875   3.169
51439W        W16699  38.796  42.557   2.385
51440W        W16700  16.906   1.305  10.658
51441W        W16701  37.959  41.230  11.612
51442W        W16702  18.927  32.748  12.962
51443W        W16703  35.187  30.147  10.765
51444W        W16704  37.609   7.297   0.898
51445W        W16705  10.252  14.087  10.039
51446W        W16706  20.054  18.779   2.743
51447W        W16707  37.646   8.799   2.219
51448W        W16708  18.839  12.037  12.037
51449W        W16709  43.538  40.466  12.972
51450W        W16710  33.354  38.303   0.800
51451W        W16711  16.637  21.654  14.423
51452W        W16712  21.463  39.874   1.291
51453W        W16713  34.864  32.213  12.405
51454W        W16714  43.832   2.916   0.017
51455W        W16715  44.534  29.678  11.628
51456W        W16716  30.448  27.190   0.885
51457W        W16717   1.946  38.574   0.850
51458W        W16718  11.897   0.931  14.473
51459W        W16719  12.648   4.050   0.385
51460W        W16720   5.853  35.568  13.009
51461W        W16721  18.801   6.905  14.932
51462W        W16722  22.030  36.719  11.812
51463W        W16723   6.688  18.313   3.546
51464W        W16724  42.008   6.364   2.275
51465W        W16725  12.188   9.302   2.698
51466W        W16726  22.117  18.725   2.099
51467W        W16727  31.545  44.812  14.699
51468W        W16728  10.703  28.684  14.211
51469W        W16729   3.312   4.843  14.466
51470W        W16730  16.282  34.059  11.173
51471W        W16731  30.774  37.378  13.511
51472W        W16732  35.495  12.247  10.406
51473W        W16733  13.464  24.033   0.001
51474W        W16734   7.854  28.759   2.625
51475W        W16735  41.519  17.234  10.794
51476W        W16736  14.786  32.625   0.336
51477W        W16737  22.758  40.696   2.840
51478W        W16738  35.839  27.695  12.004
51479W        W16739   2.095  32.500  11.071
51480W        W16740  16.416  33.321  11.524
51481W        W16741   3.658   9.866  10.579
51482W        W16742  19.235  11.820   0.468
51483W        W16743  14.107   7.823   3.949
51484W        W16744  12.204  40.270  14.444
51485W        W16745   4.019  28.581  13.608
51486W        W16746  14.046  43.050   1.726
51487W        W16747  27.451  20.937   3.222
51488W        W16748   1.380  30.598  12.139
51489W        W16749  25.291  37.485   4.085
51490W        W16750  26.136  32.896  14.573
51491W        W16751   5.105  14.758   1.090
51492W        W16752  23.544   5.507  13.089
51493W        W16753  31.089  10.668  14.444
51494W        W16754  20.128  42.948  10.791
51495W        W16755  32.410  10.358   1.862
51496W        W16756  42.258  34.603  14.060
51497W        W16757  26.100  26.069   4.225
51498W        W16758  19.266  42.439  14.719
51499W        W16759   5.099  29.748   1.200
51500W        W16760  16.564  17.991  12.857
51501W        W16761  37.535  44.248  13.818
51502W        W16762   4.865  32.629  14.076
51503W        W16763  42.089  28.608  10.445
51504W        W16764  10.342  30.666   2.467
51505W        W16765  27.449   0.008   1.674
51506W        W16766   4.661   3.590   3.921
51507W        W16767  20.343  38.314  13.312
51508W        W16768   0.384  33.658  12.611
51509W        W16769   6.931  32.006  12.902
51510W        W16770  13.434  35.618   3.297
51511W        W16771  44.221  26.504   3.757
51512W        W16772  42.069  22.977   0.793
51513W        W16773  44.020   6.916  12.982
51514W        W16774  30.426   5.205   3.914
51515W        W16775  39.942  14.407   1.381
51516W        W16776   6.262  44.452   1.801
51517W        W16777  11.329   1.860   2.204
51518W        W16778  17.195  20.154   3.588
51519W        W16779  36.885  44.937   2.329
51520W        W16780   4.882  10.529   1.758
51521W        W16781  41.364   6.343   4.538
51522W        W16782  32.585  12.538   2.627
51523W        W16783  20.583  27.025   3.722
51524W        W16784   9.188  18.266   1.753
51525W        W16785  10.957  18.458   3.499
51526W        W16786   1.360  30.169  10.901
51527W        W16787  21.471  28.477   4.085
51528W        W16788  34.281  15.236  12.897
51529W        W16789   9.344  29.079   3.566
51530W        W16790   9.608  11.774   0.392
51531W        W16791  20.044  24.038  14.525
51532W        W16792   1.450  37.752   3.393
51533W        W16793  35.740  22.411  11.155
51534W        W16794   8.177  13.503  11.659
51535W        W16795   0.369  28.034  13.306
51536W        W16796  18.707  10.056   1.310
51537W        W16797   6.226  10.752   1.265
51538W        W16798  21.519  32.099  11.567
51539W        W16799   4.777  42.511  12.581
51540W        W16800  15.459  33.797  10.834
51541W        W16801  11.727  15.746   2.735
51542W        W16802  39.344  18.033  13.834
51543W        W16803  24.706  24.263   2.774
51544W        W16804  25.914  29.222  11.864
51545W        W16805  30.861  23.222   0.514
51546W        W16806  34.549  15.723  12.050
51547W        W16807  19.336  42.745   4.803
51548W        W16808  33.434  35.783  12.640
51549W        W16809  18.546  28.338  11.040
51550W        W16810  24.938  17.777  12.908
51551W        W16811  24.805   8.062   3.197
51552W        W16812  32.920  30.524   3.315
51553W        W16813  10.623  38.518  13.299
51554W        W16814  22.416  40.350  11.966
51555W        W16815  16.216  24.276  11.684
51556W        W16816   3.181  17.327  13.075
51557W        W16817  37.898  28.895  10.790
51558W        W16818  22.062   7.284   3.521
51559W        W16819  26.998   5.132   0.368
51560W        W16820  26.707  43.814   0.440
51561W        W16821  35.897  10.663  11.419
51562W        W16822  25.259   7.371  13.697
51563W        W16823   1.340  14.295  14.718
51564W        W16824   5.676  17.001   2.696
51565W        W16825   0.860  33.648  14.179
51566W        W16826  29.706  44.887   2.371
51567W        W16827  17.360   9.543   1.616
51568W        W16828  38.496  40.638  13.111
51569W        W16829  24.025  22.268  12.080
51570W        W16830  37.925  11.796   1.401
51571W        W16831  18.601  30.300   0.880
51572W        W16832  10.296  18.104   0.396
51573W        W16833  16.712  37.261  13.342
51574W        W16834  15.138  40.864  13.388
51575W        W16835  10.231   4.448   3.114
51576W        W16836   8.574  15.244   0.999
51577W        W16837  44.000   3.180   3.357
51578W        W16838   6.393  39.338   4.235
51579W        W16839  37.576  18.742  13.831
51580W        W16840  25.333  24.759   3.119
51581W        W16841  31.874  21.550  14.397
51582W        W16842  11.830   5.366  10.132
51583W        W16843  21.550  34.677  11.985
51584W        W16844  25.412   7.977  11.203
51585W        W16845   9.263  42.240   3.451
51586W        W16846  23.260  40.120   0.057
51587W        W16847  18.388  27.305   2.401
51588W        W16848   7.188  19.555  13.779
51589W        W16849  41.008  40.341   0.418
51590W        W16850  42.587  25.001   1.000
51591W        W16851   5.820  28.320  14.715
51592W        W16852  33.867  16.567  12.093
51593W        W16853  21.667   5.650  13.885
51594W        W16854   5.722  24.488   2.378
51595W        W16855  12.800  20.070  12.529
51596W        W16856  23.053  27.880  10.400
51597W        W16857  36.875   4.334   0.285
51598W        W16858   2.785   3.340  13.894
51599W        W16859   9.413  44.070   3.851
51600W        W16860  27.183  39.463  11.655
51601W        W16861   2.639   7.229  13.139
51602W        W16862  27.656  13.740   0.458
51603W        W16863  20.131  30.381   4.095
51604W        W16864  26.752   3.707   4.147
51605W        W16865   7.734  21.608   4.580
51606W        W16866   4.347  21.015  10.537
51607W        W16867  42.775  19.027  11.298
51608W        W16868   0.986   0.862  14.341
51609W        W16869  39.943  38.819   1.482
51610W        W16870  18.420   0.357  14.544
51611W        W16871  12.188  22.003  13.514
51612W        W16872   6.081  28.133   4.912
51613W        W16873   5.885   0.522   3.608
51614W        W16874  26.424  41.945  11.472
51615W        W16875  38.814  19.578  14.420
51616W        W16876  31.570  33.823   0.384
51617W        W16877  11.825  40.576  14.210
51618W        W16878   1.113  24.580  14.781
51619W        W16879  12.149   5.952   0.497
51620W        W16880   1.403  44.033   3.872
51621W        W16881  19.765  30.235  13.896
51622W        W16882  19.719  20.586  10.797
51623W        W16883  34.181   9.563  14.289
51624W        W16884  19.250  23.793   1.486
51625W        W16885  25.718  15.704  12.601
51626W        W16886   9.891  14.083  14.084
51627W        W16887  11.357  30.702  13.276
51628W        W16888  12.247  26.672  11.640
51629W        W16889  34.569  17.175  12.168
51630W        W16890  35.882  23.060  13.950
51631W        W16891  20.234  11.932  12.209
51632W        W16892  11.777  11.125  11.408
51633W        W16893   4.814  31.235   1.823
51634W        W16894   4.978   4.020  11.091
51635W        W16895  18.201  42.709  11.029
51636W        W16896   3.632  10.585  12.502
51637W        W16897  14.273  24.676   1.259
51638W        W16898  28.755   3.461   2.359
51639W        W16899  33.201   6.853  13.013
51640W        W16900  37.915  20.590  13.064
51641W        W16901  27.392  33.033   4.021
51642W        W16902   5.688  40.762  14.431
51643W        W16903  32.368  36.400  11.454
51644W        W16904  32.552  43.484   4.679
51645W        W16905  29.461   8.748   2.189
51646W        W16906   9.442  34.797  11.413
51647W        W16907  38.389  28.898  10.603
51648W        W16908  16.250  43.534  10.689
51649W        W16909  11.554   7.045  12.081
51650W        W16910  37.472  11.291   4.636
51651W        W16911  40.894  15.573  13.986
51652W        W16912  37.838  27.165  11.532
51653W        W16913  39.974  20.994  13.982
51654W        W16914  44.437   8.719  12.938
51655W        W16915  21.533  29.300   0.941
51656W        W16916  27.022  35.811  14.991
51657W        W16917  41.322   7.447   0.393
51658W        W16918  11.599  38.985   4.958
51659W        W16919   7.704  39.565  11.624
51660W        W16920  17.249  39.070  14.504
51661W        W16921  30.136  11.702   0.881
51662W        W16922  31.056  23.260  13.154
51663W        W16923  16.702   0.725   1.085
51664W        W16924  11.590  40.412   4.481
51665W        W16925   2.819  30.494   1.810
51666W        W16926  22.691   4.921  14.340
51667W        W16927  17.260  16.722   1.012
51668W        W16928  14.086  15.776   1.708
51669W        W16929   3.867  37.018   3.906
51670W        W16930  44.763   2.722   2.388
51671W        W16931   2.726  11.821  13.323
51672W        W16932  26.932  11.726  11.671
51673W        W16933  30.783  22.864   2.706
51674W        W16934   2.748  14.939   3.026
51675W        W16935  44.768  24.618  10.209
51676W        W16936  35.655  28.897   4.113
51677W        W16937  24.700  29.431  13.960
51678W        W16938  36.109  37.480   0.466
51679W        W16939  30.521  12.015  12.599
51680W        W16940  19.765  37.080   3.874
51681W        W16941   0.886   3.159   0.123
51682W        W16942  16.036  30.670   2.810
51683W        W16943  23.841  16.404  14.929
51684W        W16944   8.853  10.753  11.539
51685W        W16945  17.262  27.243   3.160
51686W        W16946   7.814  28.943  14.263
51687W        W16947  22.088   2.007   3.120
51688W        W16948  14.109  11.888   4.167
51689W        W16949  19.363  28.581   2.456
51690W        W16950  18.679   0.340   2.447
51691W        W16951  32.645  27.238   0.595
51692W        W16952  12.184  42.029  10.789
51693W        W16953  10.720   2.490  13.457
51694W        W16954  22.951  27.819   4.296
51695W        W16955  41.027  41.188  14.689
51696W        W16956  44.785  31.949   1.326
51697W        W16957  12.818  27.527   1.955
51698W        W16958  22.055  32.447   4.488
51699W        W16959  18.475  13.467  13.019
51700W        W16960  22.343  42.315   3.171
51701W        W16961  35.497  36.984   1.193
51702W        W16962  14.376  17.199  11.640
51703W        W16963   3.382  17.675   0.189
51704W        W16964  20.102  30.930  13.405
51705W        W16965   3.503  18.264  12.603
51706W        W16966  23.399  42.859  10.476
51707W        W16967  19.171  30.125   3.243
51708W        W16968  22.254   1.578   1.272
51709W        W16969  19.687  41.031  11.580
51710W        W16970  21.631   0.347  10.884
51711W        W16971  28.970   8.364  14.397
51712W        W16972   3.882  11.062  12.434
51713W        W16973  27.148  36.071  13.985
51714W        W16974  17.715  31.848   1.326
51715W        W16975  19.779  26.284   3.170
51716W        W16976   1.897   1.934   2.400
51717W        W16977  13.106  11.280   0.754
51718W        W16978   5.412   3.318   0.684
51719W        W16979  10.972  24.281  12.068
51720W        W16980  18.787   3.473  12.014
51721W        W16981  30.543  27.441   2.753
51722W        W16982  21.323  26.550  13.401
51723W        W16983  30.485  17.650   0.986
51724W        W16984  36.686  14.522   4.247
51725W        W16985  26.958   7.969  12.801
51726W        W16986  19.763  17.278  13.879
51727W        W16987  25.046   2.812   0.543
51728W        W16988  28.611  38.434  12.525
51729W        W16989  28.044   0.521  12.636
51730W        W16990  37.157  43.136   1.225
51731W        W16991   9.032  10.164   2.356
51732W        W16992  35.481   6.510  11.492
51733W        W16993  17.482  29.502  13.772
51734W        W16994  39.458   7.321   0.667
51735W        W16995  44.509  38.461  11.961
51736W        W16996  40.383  14.087  10.622
51737W        W16997  30.169  44.671   2.242
51738W        W16998   1.834  25.911  14.547
51739W        W16999  27.443  22.991   1.295
51740W        W17000  41.948   1.377  10.645
51741W        W17001  37.627  13.753   1.922
51742W        W17002  28.034  26.059   3.763
51743W        W17003   7.441  11.781  11.415
51744W        W17004  12.199   2.497  10.818
51745W        W17005   1.741  36.429   0.220
51746W        W17006   7.541  41.345  14.329
51747W        W17007   0.248  16.618   4.188
51748W        W17008   1.971  44.105   0.563
51749W        W17009   2.863  17.133   2.818
51750W        W17010   8.524   8.575  12.955
51751W        W17011   3.424  12.856   0.756
51752W        W17012   3.864  23.966   0.248
51753W        W17013  23.018  11.631   2.774
51754W        W17014  39.513  27.975   2.624
51755W        W17015  17.403  10.432  14.101
51756W        W17016  21.512  11.381  10.627
51757W        W17017   2.675   9.263  13.243
51758W        W17018   7.607   8.852  14.059
51759W        W17019  40.253  42.850   5.054
51760W        W17020  37.527   3.301  14.072
51761W        W17021   6.478  21.289   3.837
51762W        W17022  26.639   1.217  11.622
51763W        W17023  25.446  15.331  13.503
51764W        W17024   6.771   5.210   1.282
51765W        W17025   0.806  29.987   0.518
51766W        W17026   0.982  17.519  14.413
51767W        W17027  30.695   0.037  13.435
51768W        W17028  18.510  18.345   4.497
51769W        W17029  17.582  28.993  13.558
51770W        W17030  26.671  11.277  11.654
51771W        W17031  27.852  43.251  12.123
51772W        W17032  25.096   7.655  13.271
51773W        W17033  24.438  42.408  14.798
51774W        W17034   1.420  18.075   3.368
51775W        W17035  41.324  15.848   2.924
51776W        W17036  12.201   4.068  14.790
51777W        W17037   9.209  37.413  12.582
51778W        W17038  18.015  11.490  14.079
51779W        W17039  11.380   9.126   3.681
51780W        W17040   9.840   3.018   0.882
51781W        W17041   8.685   4.971  10.716
51782W        W17042   1.935  25.453   4.111
51783W        W17043   4.020  10.146   4.329
51784W        W17044  10.379  15.107  10.158
51785W        W17045  40.406   2.374   3.254
51786W        W17046   1.394  11.301   1.140
51787W        W17047  34.377   0.837   2.156
51788W        W17048   5.800  14.119   0.508
51789W        W17049  20.113  19.704  14.504
51790W        W17050  22.041  10.709  10.405
51791W        W17051  23.273  42.453   3.549
51792W        W17052   0.874   5.814  11.859
51793W        W17053  33.917  19.651   1.037
51794W        W17054  39.397  40.583  12.856
51795W        W17055   0.533  25.386  13.423
51796W        W17056  38.854  23.514  14.171
51797W        W17057  26.398  31.753  14.826
51798W        W17058  43.607  41.293   2.283
51799W        W17059  10.280  38.908   2.595
51800W        W17060  14.530  15.682   0.855
51801W        W17061   0.278  29.378   4.655
51802W        W17062   8.699   2.549   1.628
51803W        W17063  21.760  33.914  11.641
51804W        W17064   2.004  29.104   3.717
51805W        W17065  36.430  33.191  11.586
51806W        W17066   1.698   0.193  14.297
51807W        W17067   6.311  26.773   4.444
51808W        W17068   8.290   4.653  13.332
51809W        W17069  14.422   9.581   3.616
51810W        W17070   7.879  28.443  11.675
51811W        W17071   6.336   8.821   4.387
51812W        W17072  32.441  13.645   2.322
51813W        W17073  25.278  31.425   4.259
51814W        W17074  38.008  29.741   4.689
51815W        W17075  10.015  39.135  12.910
51816W        W17076  37.032  43.713   0.368
51817W        W17077  11.896   2.789  12.859
51818W        W17078  30.372  10.273   0.427
51819W        W17079  18.133  11.251   0.885
51820W        W17080  40.022  11.450   4.623
51821W        W17081  37.950  17.058   1.244
51822W        W17082  30.817  12.475  13.479
51823W        W17083  13.103  38.821   2.851
51824W        W17084  21.287  18.247  13.272
51825W        W17085  32.048   7.914   1.904
51826W        W17086   0.801  21.748  13.827
51827W        W17087  14.133  10.875  13.519
51828W        W17088   3.824  25.440  14.702
51829W        W17089  35.083  33.991   1.647
51830W        W17090  37.059  33.944  14.809
51831W        W17091  17.498   6.105   1.046
51832W        W17092  17.202  26.475   1.974
51833W        W17093  20.622  20.571   1.732
51834W        W17094  31.900  35.054   2.154
51835W        W17095  31.009  36.934   4.639
51836W        W17096   8.133   3.305  11.217
51837W        W17097   2.301  24.007   0.299
51838W        W17098  31.079  12.278  13.926
51839W        W17099  44.296  11.092  11.940
51840W        W17100  18.580   1.807  11.024
51841W        W17101   3.945  25.499   1.893
51842W        W17102  26.981  11.707   3.222
51843W        W17103  20.684   8.767  11.651
51844W        W17104   4.337  20.484   2.733
51845W        W17105  23.529  28.492  12.154
51846W        W17106  43.859   7.842   2.600
51847W        W17107  13.643  37.318   1.958
51848W        W17108  22.624  21.129   4.577
51849W        W17109  23.437  41.422   4.609
51850W        W17110   3.231   6.745  11.498
51851W        W17111  28.938  12.065  14.657
51852W        W17112  11.588   3.310   1.178
51853W        W17113  40.019  16.462   2.753
51854W        W17114  12.688  14.749   0.326
51855W        W17115  16.666  37.180  10.750
51856W        W17116  41.229  44.647   1.060
51857W        W17117   9.280   4.783  12.759
51858W        W17118  19.965  38.060   2.740
51859W        W17119  15.326  10.436  13.148
51860W        W17120  29.139  21.520  14.817
51861W        W17121  14.293  10.624   2.582
51862W        W17122  33.490  10.402   4.511
51863W        W17123  25.586  23.378   1.374
51864W        W17124   8.726  11.361  14.688
51865W        W17125   3.329  28.802   4.014
51866W        W17126  31.356  39.717   1.594
51867W        W17127  10.888  38.956  13.448
51868W        W17128  17.471  37.773  13.538
51869W        W17129  29.870   6.422  13.267
51870W        W17130   9.750   8.603  12.151
51871W        W17131  25.585   2.753  14.843
51872W        W17132  15.307  31.551   0.301
51873W        W17133  44.460  29.972   0.919
51874W        W17134  28.824  38.111  14.563
51875W        W17135  13.773  20.685   4.687
51876W        W17136  22.251  17.328  12.843
51877W        W17137   4.937   2.324   4.004
51878W        W17138  35.778  34.411  11.617
51879W        W17139  33.869  30.025   1.419
51880W        W17140   8.728  34.872  14.683
51881W        W17141  11.195  15.763   2.812
51882W        W17142   6.631  37.595  13.320
51883W        W17143  22.597  26.215   0.711
51884W        W17144  26.190  31.080  10.727
51885W        W17145  15.200   8.116  11.485
51886W        W17146   0.246  28.486  13.023
51887W        W17147  42.911  40.285   3.289
51888W        W17148   2.836   1.789  10.719
51889W        W17149   3.608  26.255   9.866
51890W        W17150  16.253   2.346  10.736
51891W        W17151  39.624  34.110  11.411
51892W        W17152  38.529  37.105  12.613
51893W        W17153  30.019  22.146   0.358
51894W        W17154  24.671  39.794   2.345
51895W        W17155  39.323   4.176   1.748
51896W        W17156  43.642   7.795  12.079
51897W        W17157  33.121   0.902  10.294
51898W        W17158  21.299  28.409   1.445
51899W        W17159  32.564  32.453   2.452
51900W        W17160   7.462  31.602  14.575
51901W        W17161  12.259  41.090  12.584
51902W        W17162  11.266   6.422  14.841
51903W        W17163  35.456  34.617  10.701
51904W        W17164  23.904   3.736   2.229
51905W        W17165  43.883  18.578  10.798
51906W        W17166  41.774  25.864   0.711
51907W        W17167  35.171  36.404  14.492
51908W        W17168  39.787   6.565   0.022
51909W        W17169  10.634  19.653  13.938
51910W        W17170  40.916  20.095  14.312
51911W        W17171  35.822  32.000   3.638
51912W        W17172  16.622  32.895   1.307
51913W        W17173  38.406  26.066   0.928
51914W        W17174  23.891  42.012  13.578
51915W        W17175  34.053  35.970   1.925
51916W        W17176  35.481  18.960   0.161
51917W        W17177  35.004  26.680  10.753
51918W        W17178  35.410  27.471   0.196
51919W        W17179  34.174   2.863  11.628
51920W        W17180  41.727   7.604  13.914
51921W        W17181   3.416  29.258   4.857
51922W        W17182   0.999   8.293   3.951
51923W        W17183  15.613  21.109  12.719
51924W        W17184   6.934  30.052   3.567
51925W        W17185  11.910   4.368   4.797
51926W        W17186  32.786  44.593  10.596
51927W        W17187  32.221  42.972  12.826
51928W        W17188  22.204  36.931  13.746
51929W        W17189  10.229  41.236  13.527
51930W        W17190  40.061  33.864  11.208
51931W        W17191  40.977  12.117  12.935
51932W        W17192   8.397  32.639  11.257
51933W        W17193  36.876  21.075   0.489
51934W        W17194  33.664  19.473   0.411
51935W        W17195  36.432   5.767   3.521
51936W        W17196   1.274  23.479   4.102
51937W        W17197  21.190  13.161  14.482
51938W        W17198  37.917  27.500   2.137
51939W        W17199  27.235  15.865  14.799
51940W        W17200  35.564  36.469  14.816
51941W        W17201   3.881  10.119   3.841
51942W        W17202   2.333   1.874   0.439
51943W        W17203  10.820  13.593   1.675
51944W        W17204  27.573  16.489   3.216
51945W        W17205  36.638  44.476   9.840
51946W        W17206  21.245  37.890   0.809
51947W        W17207  39.506  24.682  11.631
51948W        W17208  17.034   0.268  14.916
51949W        W17209  41.049   3.992  13.839
51950W        W17210  43.347  27.556   1.656
51951W        W17211  13.292   1.275  10.691
51952W        W17212  26.878  26.431   4.545
51953W        W17213  20.068  26.713   3.210
51954W        W17214  31.023  14.800   2.698
51955W        W17215  44.406  19.025  10.736
51956W        W17216  24.441  24.369  13.477
51957W        W17217  32.935  44.711  11.633
51958W        W17218  13.443  27.615   5.010
51959W        W17219  29.052  29.410   1.196
51960W        W17220   6.717   7.004   0.650
51961W        W17221   8.724   6.723  10.990
51962W        W17222  12.647   6.792   2.141
51963W        W17223  38.281  43.572  11.608
51964W        W17224  38.622   5.830  14.398
51965W        W17225  12.673   0.830  13.356
51966W        W17226  20.173  35.557  14.984
51967W        W17227  23.716  33.830   1.706
51968W        W17228  16.164  34.100   1.354
51969W        W17229   1.919  18.654   2.289
51970W        W17230   7.128  23.295   1.338
51971W        W17231  23.772  30.152  13.461
51972W        W17232  29.887  33.015   4.396
51973W        W17233  17.834  43.585  12.927
51974W        W17234   1.766  22.326   4.453
51975W        W17235  22.629  31.972   2.497
51976W        W17236  20.073  19.516   3.658
51977W        W17237  38.489  27.650   3.431
51978W        W17238  21.580  32.632  10.796
51979W        W17239   4.695  43.420  12.545
51980W        W17240   9.748  16.724   4.368
51981W        W17241  20.074  29.208  13.880
51982W        W17242   8.006  32.371   5.088
51983W        W17243   6.418  37.833   1.494
51984W        W17244  34.082  31.110   2.180
51985W        W17245  15.991  40.941   2.657
51986W        W17246   8.248  10.452  13.139
51987W        W17247  11.730  30.502   0.386
51988W        W17248  25.356   9.524   0.941
51989W        W17249  34.346   5.932   4.188
51990W        W17250  27.226  27.116   0.291
51991W        W17251   1.965  37.123  11.613
51992W        W17252  21.311  42.797  14.408
51993W        W17253  11.988  41.862  14.254
51994W        W17254  33.690  30.876   1.940
51995W        W17255   6.393  44.306   3.801
51996W        W17256  44.222  37.562  13.128
51997W        W17257  24.312  16.392  10.799
51998W        W17258   1.573  12.901  14.467
51999W        W17259   2.081   5.922  14.402
52000W        W17260  33.210  34.002   2.759
52001W        W17261  17.740  38.290  11.429
52002W        W17262  11.650  11.745  14.949
52003W        W17263  20.456  28.568  11.241
52004W        W17264  23.811  37.441   1.620
52005W        W17265  30.017  24.144  11.615
52006W        W17266   6.183  42.801  12.505
52007W        W17267  31.377  36.344   3.870
52008W        W17268   9.130   8.561   0.316
52009W        W17269  39.130  33.629  14.006
52010W        W17270   7.260  11.276   2.797
52011W        W17271  39.874  17.518  11.219
52012W        W17272  24.331  24.264   1.186
52013W        W17273  12.722  35.203   3.721
52014W        W17274  28.856  44.164   4.531
52015W        W17275  11.627   0.834  14.915
52016W        W17276  42.279  22.746   3.651
52017W        W17277  31.553  40.464   3.587
52018W        W17278  24.643  38.249  14.503
52019W        W17279  37.054  27.057   3.452
52020W        W17280  38.454  28.712   4.420
52021W        W17281   6.003   4.465  12.618
52022W        W17282   6.274  19.015   3.421
52023W        W17283  12.916  20.700   4.834
52024W        W17284  35.267  12.076  11.882
52025W        W17285  23.945  28.765  11.980
52026W        W17286  35.469   9.697  10.882
52027W        W17287  11.710  27.109   1.344
52028W        W17288  10.288  39.071   3.599
52029W        W17289  13.319  35.599  12.237
52030W        W17290  10.140  29.036   4.753
52031W        W17291  34.574  19.838  13.217
52032W        W17292  36.616  30.971  11.460
52033W        W17293  36.061  16.111  11.129
52034W        W17294  17.554  32.122  14.416
52035W        W17295  18.764  30.404   4.159
52036W        W17296  19.126  20.375  11.168
52037W        W17297  22.115   1.478  14.480
52038W        W17298  19.994   7.718   9.702
52039W        W17299  44.981  12.253  10.576
52040W        W17300  21.128  12.532  13.410
52041W        W17301  36.034  42.095  12.977
52042W        W17302  32.571  14.632   1.284
52043W        W17303   7.135  30.794  10.517
52044W        W17304   5.651  14.086   1.946
52045W        W17305   9.675  18.505   3.574
52046W        W17306  21.254   9.800  14.962
52047W        W17307  31.560  23.527   0.818
52048W        W17308  44.049  43.475   0.037
52049W        W17309   5.947  42.494   3.648
52050W        W17310  15.821   0.439  12.490
52051W        W17311  30.000  36.922  14.514
52052W        W17312  21.069  42.630  10.603
52053W        W17313  41.813  10.190   4.994
52054W        W17314  32.691  28.646   4.124
52055W        W17315  21.714   4.794  14.517
52056W        W17316  28.815  19.099  11.972
52057W        W17317  20.621  13.799   3.763
52058W        W17318  19.512  22.177   1.724
52059W        W17319   4.951  11.194   2.794
52060W        W17320  13.874   8.270  13.235
52061W        W17321  12.328   0.309   3.531
52062W        W17322   2.734   4.858   3.600
52063W        W17323  10.233  22.748   3.684
52064W        W17324  12.625   1.508   4.634
52065W        W17325   4.486  31.796   0.349
52066W        W17326  13.033  32.297   4.798
52067W        W17327  42.536  33.612  12.397
52068W        W17328  23.549  38.906  11.553
52069W        W17329   3.520  13.295  12.082
52070W        W17330  30.815  33.066   1.281
52071W        W17331  43.689   8.112  13.563
52072W        W17332   2.641  16.101   4.554
52073W        W17333   3.375   8.619   3.183
52074W        W17334  42.013  20.702   3.157
52075W        W17335  15.549  12.883  14.700
52076W        W17336  13.252  42.805   3.823
52077W        W17337  30.967  13.530  13.523
52078W        W17338  12.332  37.673  11.628
52079W        W17339  42.826  37.934   4.540
52080W        W17340   9.719  17.259  14.047
52081W        W17341  34.606   8.232  11.364
52082W        W17342  29.655  30.979   3.779
52083W        W17343   1.852  36.180  11.676
52084W        W17344   6.162   9.233   2.224
52085W        W17345  15.250  27.733   4.114
52086W        W17346  33.654  36.261  12.741
52087W        W17347  39.102   6.655   2.240
52088W        W17348  42.296  16.596  13.320
52089W        W17349  29.010   0.531  12.626
52090W        W17350  43.874   0.840  10.900
52091W        W17351  42.517  32.102  14.909
52092W        W17352  26.504   3.412  14.275
52093W        W17353   0.514  35.384   1.541
52094W        W17354  33.572   4.031  10.338
52095W        W17355  31.725  24.091  10.273
52096W        W17356  24.311  44.886  13.898
52097W        W17357  28.957  24.978   4.277
52098W        W17358  26.249   9.831  14.311
52099W        W17359  38.922   4.706  11.572
52100W        W17360   5.430  37.440   0.383
52101W        W17361  24.233   8.121  12.738
52102W        W17362   7.372  31.081   2.672
52103W        W17363  42.017  10.917  12.931
52104W        W17364   5.958  21.097  11.183
52105W        W17365  11.152  40.857   0.707
52106W        W17366  19.361  13.970   2.689
52107W        W17367  10.752  27.497  14.084
52108W        W17368  17.823  38.491   0.239
52109W        W17369  39.262  21.004   2.360
52110W        W17370   2.730   6.178   1.489
52111W        W17371   0.655  26.587   0.363
52112W        W17372   2.422  29.750   0.750
52113W        W17373  21.150  29.618   0.781
52114W        W17374  37.445  25.721   2.233
52115W        W17375  22.838  14.681   1.382
52116W        W17376  14.759  39.473  13.013
52117W        W17377  11.912  26.088   4.842
52118W        W17378  17.639  34.676   2.880
52119W        W17379  43.231   7.699   0.706
52120W        W17380   8.142  17.469  11.241
52121W        W17381   6.315  22.610   1.535
52122W        W17382  43.318   5.267   3.642
52123W        W17383  17.104  42.418   4.905
52124W        W17384  13.592  15.599  14.934
52125W        W17385   7.123  35.704   3.650
52126W        W17386  38.548  22.351  11.221
52127W        W17387  40.456   7.697  14.771
52128W        W17388  43.258  30.868  14.816
52129W        W17389  16.660  17.117   4.520
52130W        W17390  14.019  38.890   1.808
52131W        W17391  35.609  30.064   3.702
52132W        W17392  23.501   8.895  13.144
52133W        W17393  42.290  10.667  14.476
52134W        W17394   1.748  23.687   9.659
52135W        W17395  39.379  40.453  11.625
52136W        W17396  44.931  42.467   4.170
52137W        W17397  41.319  19.055   1.965
52138W        W17398  36.191  29.920  13.937
52139W        W17399   7.891  23.039   4.272
52140W        W17400  25.215  41.732  13.392
52141W        W17401  16.653  19.747   2.305
52142W        W17402  10.289  12.876  12.620
52143W        W17403  29.556  18.298   4.263
52144W        W17404  20.841  13.309   3.799
52145W        W17405  12.471  25.271  12.467
52146W        W17406   4.683  36.168  13.902
52147W        W17407  25.551  12.630   1.830
52148W        W17408  12.688  35.233  12.561
52149W        W17409  39.159   7.308   3.257
52150W        W17410  15.549   4.709  13.335
52151W        W17411  16.858  11.611  11.094
52152W        W17412  30.544  15.038  14.982
52153W        W17413  43.287  41.299  14.848
52154W        W17414  27.098  37.241   4.501
52155W        W17415  30.131  26.701   1.370
52156W        W17416  16.770  27.702  13.350
52157W        W17417  18.537  22.242  10.776
52158W        W17418   8.757  39.229  12.043
52159W        W17419  25.555  14.729   1.883
52160W        W17420  34.954  21.585   2.663
52161W        W17421   0.092  23.161   2.333
52162W        W17422  27.035  38.858  13.045
52163W        W17423   6.104  31.383   2.789
52164W        W17424  35.429  32.316  12.929
52165W        W17425  21.197  26.204   1.688
52166W        W17426   6.400  39.493  12.808
52167W        W17427  38.866  11.023  13.123
52168W        W17428  17.100  27.420   4.138
52169W        W17429  16.064  42.100   3.617
52170W        W17430  14.103  33.620  12.970
52171W        W17431  32.387   7.484  11.997
52172W        W17432  44.292  26.063   0.812
52173W        W17433  33.406  10.924  14.895
52174W        W17434  39.242  41.919  13.148
52175W        W17435   2.477  36.316  14.471
52176W        W17436  43.726  13.222  11.667
52177W        W17437   8.606   7.892  14.823
52178W        W17438  11.131  12.304  11.545
52179W        W17439   7.562  18.239   0.015
52180W        W17440  35.661  12.705   2.332
52181W        W17441  14.740  44.962   3.823
52182W        W17442  25.599  14.782  12.184
52183W        W17443  10.624  27.620  10.569
52184W        W17444  26.929  18.053  12.143
52185W        W17445  31.115   2.422  14.971
52186W        W17446   3.253  34.867  13.977
52187W        W17447  18.635  35.806   1.425
52188W        W17448  16.289  43.810   4.592
52189W        W17449  10.157  14.053  14.543
52190W        W17450  38.778  23.029   2.275
52191W        W17451  39.998  30.475  12.585
52192W        W17452  31.669  33.959   1.326
52193W        W17453   9.068  25.553  14.422
52194W        W17454  27.969  28.110   0.449
52195W        W17455  12.394  33.507  11.848
52196W        W17456  34.309  26.493  10.085
52197W        W17457  36.425  23.133  10.949
52198W        W17458  17.996  16.032   3.274
52199W        W17459  16.608  23.123   3.631
52200W        W17460  34.931  44.106  11.291
52201W        W17461  26.362  17.803   0.810
52202W        W17462  44.841  27.536   2.197
52203W        W17463  11.860   9.078  14.351
52204W        W17464   8.841   1.737  14.363
52205W        W17465   6.190  43.417  10.651
52206W        W17466  26.777  23.673   0.143
52207W        W17467   0.395  42.383  12.200
52208W        W17468  30.110  35.933   4.701
52209W        W17469  12.885  32.382  11.353
52210W        W17470  37.423  42.932   2.822
52211W        W17471   5.834   5.253   1.925
52212W        W17472  14.783  22.622   1.240
52213W        W17473  41.804  34.405   1.706
52214W        W17474  13.340  41.363  11.956
52215W        W17475  13.174   7.522   2.182
52216W        W17476   1.333   7.911  14.369
52217W        W17477  36.174  25.263  11.596
52218W        W17478  31.445  16.332  11.545
52219W        W17479  41.640  34.074  12.043
52220W        W17480   8.167  39.447  14.978
52221W        W17481  13.730   3.888   1.052
52222W        W17482  34.179  43.945  13.402
52223W        W17483  40.815   4.861  12.581
52224W        W17484   5.342  40.427   1.903
52225W        W17485  37.600  22.616  12.027
52226W        W17486  23.236   6.835   0.708
52227W        W17487   1.765  26.388   1.416
52228W        W17488  40.030  27.998   1.211
52229W        W17489  13.596   8.502  12.842
52230W        W17490  20.182  27.390   3.754
52231W        W17491  24.940  22.445   5.345
52232W        W17492  13.840  29.896   2.246
52233W        W17493  10.188   6.134   0.462
52234W        W17494  21.652  39.065  14.386
52235W        W17495  17.228  30.869   0.020
52236W        W17496  16.786  38.847  14.341
52237W        W17497  23.298  22.504   1.750
52238W        W17498  15.662   2.947  12.682
52239W        W17499   6.934  35.623   1.721
52240W        W17500   2.365  40.400   4.516
52241W        W17501  41.814  16.696   4.091
52242W        W17502  25.638   3.212   2.772
52243W        W17503  12.310  27.569   3.790
52244W        W17504  17.583  26.759   4.619
52245W        W17505  34.360  16.154   3.663
52246W        W17506  44.889  14.102   4.075
52247W        W17507  32.970  13.559  13.037
52248W        W17508  20.994   5.908  14.889
52249W        W17509  37.275  33.131   1.797
52250W        W17510  31.556  31.461   1.444
52251W        W17511  20.320  31.681   2.115
52252W        W17512  19.038  14.344  10.666
52253W        W17513  28.198   3.122   2.859
52254W        W17514  12.189  19.523   0.989
52255W        W17515   1.965  29.423   0.829
52256W        W17516  30.464  14.081   2.860
52257W        W17517  21.729  38.006  13.551
52258W        W17518  10.581  21.446   4.042
52259W        W17519  23.246   3.011  14.696
52260W        W17520  26.483  19.697   2.209
52261W        W17521  42.852  21.082   4.622
52262W        W17522   4.396  26.334  10.243
52263W        W17523   7.810   8.625  12.772
52264W        W17524  14.053  30.492  11.791
52265W        W17525  13.789   6.341   0.775
52266W        W17526  34.929  41.109  13.094
52267W        W17527  30.047  26.265   4.879
52268W        W17528   4.650   9.405  11.673
52269W        W17529  44.940   4.248  14.366
52270W        W17530  28.034   5.925   4.119
52271W        W17531  11.762  24.637   3.574
52272W        W17532  17.028  10.910  14.976
52273W        W17533  17.112  40.358  12.581
52274W        W17534  34.056  17.112   2.564
52275W        W17535   7.735  16.665  12.418
52276W        W17536  30.440  34.949   3.770
52277W        W17537   5.427   5.852   3.771
52278W        W17538  22.152  44.517   1.554
52279W        W17539  10.524   9.856  11.578
52280W        W17540   3.750  17.373   1.870
52281W        W17541  23.805  19.760   4.814
52282W        W17542  34.013  26.173   0.414
52283W        W17543  19.677  41.855  12.172
52284W        W17544  28.347  20.531   1.078
52285W        W17545  26.729  32.611  12.326
52286W        W17546  42.344  26.295   2.791
52287W        W17547   6.717  18.355   2.550
52288W        W17548  31.028  36.635   3.647
52289W        W17549   8.337  27.731  14.028
52290W        W17550  40.696  11.916   4.426
52291W        W17551   3.752   2.935   4.186
52292W        W17552  22.504  11.381   0.619
52293W        W17553  42.764   6.675   1.779
52294W        W17554  41.525  31.115   4.186
52295W        W17555   0.350  29.138  13.855
52296W        W17556  10.141  13.074  12.151
52297W        W17557   1.254  41.827   0.806
52298W        W17558   0.013   8.212  14.345
52299W        W17559  27.846  28.425   3.659
52300W        W17560  36.334  41.725   3.675
52301W        W17561  14.406   8.304  14.479
52302W        W17562  23.760  39.040  14.126
52303W        W17563  17.651  29.123   2.610
52304W        W17564  15.056  43.025  13.991
52305W        W17565  24.711  31.648  10.698
52306W        W17566  14.091  42.143  13.847
52307W        W17567  30.796  10.773   4.171
52308W        W17568  14.757  22.953  14.764
52309W        W17569  32.989  32.652  11.780
52310W        W17570   6.506  11.257  10.437
52311W        W17571  37.461  23.485   4.189
52312W        W17572   2.967   8.358   3.849
52313W        W17573  28.972  41.298   0.130
52314W        W17574  43.844  10.742   0.000
52315W        W17575  31.616  15.313  13.957
52316W        W17576  40.340  24.940   2.510
52317W        W17577   1.286  12.223  14.892
52318W        W17578  29.921  25.736   2.601
52319W        W17579  36.548  36.808  14.374
52320W        W17580  26.057  26.764   0.579
52321W        W17581  31.172  41.270  14.734
52322W        W17582  20.607  44.423  14.384
52323W        W17583  22.180  38.930   1.205
52324W        W17584   0.716  12.628   1.961
52325W        W17585  25.040  10.677   0.377
52326W        W17586  29.440  44.180   0.211
52327W        W17587  19.290  12.960   1.822
52328W        W17588   9.904  36.947   1.448
52329W        W17589  36.531  41.994   0.682
52330W        W17590  31.107  29.418   4.476
52331W        W17591  37.380  31.466   0.241
52332W        W17592  30.185  13.199  13.045
52333W        W17593  35.300  41.152   4.939
52334W        W17594  43.258   8.820   1.850
52335W        W17595  41.171  41.302   4.641
52336W        W17596   8.185  18.609  13.888
52337W        W17597  26.066  36.895  13.994
52338W        W17598   7.719  43.340   1.979
52339W        W17599  23.368  16.785  14.804
52340W        W17600  35.932  22.798  11.432
52341W        W17601  42.098  39.758  11.455
52342W        W17602  26.508  41.248  12.910
52343W        W17603  38.382  42.303  12.904
52344W        W17604   0.130   9.221   4.707
52345W        W17605  37.353   5.595  10.999
52346W        W17606  21.555  31.068  12.838
52347W        W17607  29.079   1.461   2.650
52348W        W17608   6.475   8.604   3.948
52349W        W17609  38.100  31.198  14.614
52350W        W17610  22.162  37.791   0.363
52351W        W17611   2.907  31.590   3.217
52352W        W17612   8.315   8.721   3.821
52353W        W17613   6.413  40.306  14.401
52354W        W17614   9.227  13.680   1.869
52355W        W17615  44.699  25.484   0.310
52356W        W17616   0.149  16.147  14.879
52357W        W17617  39.173  44.344   2.370
52358W        W17618  44.436  34.458  13.503
52359W        W17619  14.433  25.193   4.047
52360W        W17620  11.723  16.407   3.946
52361W        W17621  20.298  31.987  10.136
52362W        W17622  36.131  14.662   1.109
52363W        W17623  12.774  39.832  10.627
52364W        W17624   4.571  24.500  11.180
52365W        W17625   9.049  24.432   0.376
52366W        W17626  38.341  35.445  10.718
52367W        W17627  13.207  11.881   3.665
52368W        W17628  38.812  16.869   3.181
52369W        W17629  18.333  33.938   4.852
52370W        W17630  36.031  33.985   4.078
52371W        W17631  36.949  20.754   1.409
52372W        W17632  29.617  38.902  11.780
52373W        W17633  16.206  42.751   2.874
52374W        W17634  39.825   6.372  11.905
52375W        W17635  15.641  19.613   0.633
52376W        W17636  19.962  13.016  12.901
52377W        W17637  26.550  20.415   4.383
52378W        W17638  32.531  33.862  14.108
52379W        W17639  23.947  14.654  11.179
52380W        W17640  22.702  21.983   2.232
52381W        W17641   9.070  15.031  11.503
52382W        W17642  20.414  33.356   1.379
52383W        W17643  29.326  40.119   0.842
52384W        W17644  24.011  16.723   2.466
52385W        W17645   2.504  22.098   1.377
52386W        W17646  25.053  34.392  12.788
52387W        W17647  30.525  40.492  13.660
52388W        W17648  30.580  28.060  13.533
52389W        W17649   7.746   9.722  10.669
52390W        W17650  43.476  22.697   4.124
52391W        W17651  17.079  39.432  12.508
52392W        W17652   3.661  32.527   2.785
52393W        W17653  44.044  28.700   0.784
52394W        W17654  24.734  44.698   0.001
52395W        W17655  14.574  10.202  10.969
52396W        W17656  10.384  23.252   0.930
52397W        W17657   3.452  34.408   4.203
52398W        W17658  11.932   3.289   4.122
52399W        W17659  15.779  34.902   3.143
52400W        W17660  24.673  17.896   0.123
52401W        W17661   9.293   8.918  12.159
52402W        W17662  10.357   5.746  12.420
52403W        W17663  26.455  15.529   5.041
52404W        W17664  36.497  10.162  10.244
52405W        W17665  38.933  23.066   0.076
52406W        W17666  26.948  34.759  13.876
52407W        W17667   5.343  40.827   2.843
52408W        W17668  40.737  13.630   1.822
52409W        W17669  24.648  31.352  12.411
52410W        W17670  18.754  19.465   0.842
52411W        W17671  30.090  32.903  13.329
52412W        W17672  14.732   1.988   2.866
52413W        W17673  14.779  34.612   0.419
52414W        W17674   2.234   6.651  11.586
52415W        W17675  22.421  34.235  12.483
52416W        W17676  38.521  29.424  11.584
52417W        W17677  15.826  38.629   3.170
52418W        W17678   7.927   6.191   0.922
52419W        W17679  40.747  23.123   4.988
52420W        W17680   2.642  37.047  12.834
52421W        W17681  23.200  41.990   3.257
52422W        W17682  17.496  36.420   0.943
52423W        W17683   4.900  21.575   3.727
52424W        W17684  17.769  26.059  13.787
52425W        W17685  25.697  33.581  10.642
52426W        W17686  39.813   5.677   0.885
52427W        W17687   3.041  12.099  12.974
52428W        W17688  23.521  19.030   2.765
52429W        W17689  17.170   9.453  14.867
52430W        W17690  15.284  25.707   1.219
52431W        W17691  31.431   7.969   0.238
52432W        W17692  28.586  10.663   3.615
52433W        W17693   8.509  15.977   0.806
52434W        W17694   3.315   7.686   0.122
52435W        W17695  19.211   1.859   0.459
52436W        W17696  38.829  19.496  13.558
52437W        W17697  11.647  43.341   0.467
52438W        W17698  30.108  21.142  13.316
52439W        W17699  31.189  40.889   0.972
52440W        W17700  16.615  32.331   2.251
52441W        W17701  15.233  13.109   4.919
52442W        W17702  13.689  30.433   2.886
52443W        W17703   5.159  29.990   0.734
52444W        W17704  43.927  43.993  12.415
52445W        W17705  42.976  31.495   5.021
52446W        W17706  15.641  17.190   4.950
52447W        W17707  31.078  13.053   0.833
52448W        W17708   0.594  23.041   2.443
52449W        W17709  40.831  22.319   3.778
52450W        W17710   2.358  12.715  10.786
52451W        W17711  40.336  37.546  11.011
52452W        W17712  15.297  17.122   3.199
52453W        W17713  25.141   1.272  12.969
52454W        W17714  44.880  13.170   1.751
52455W        W17715  43.893  31.515   4.621
52456W        W17716  18.034  41.518   3.862
52457W        W17717  34.043  36.853   2.739
52458W        W17718  30.084   4.336   4.054
52459W        W17719  19.303  38.925  14.365
52460W        W17720   5.224  27.933   4.542
52461W        W17721  27.194  40.897  13.948
52462W        W17722  19.876  41.010   0.316
52463W        W17723  44.461   6.272  13.928
52464W        W17724   1.240  27.532   1.840
52465W        W17725  23.105  33.647  13.994
52466W        W17726  17.480  34.911  13.926
52467W        W17727  24.190  42.319  10.608
52468W        W17728   3.406   9.303   1.884
52469W        W17729  42.705   4.237  10.732
52470W        W17730  44.201  17.723   2.189
52471W        W17731  10.885  25.207   3.653
52472W        W17732  33.634  31.886   0.481
52473W        W17733  41.294  39.451   4.169
52474W        W17734   4.177  32.605   2.763
52475W        W17735  20.740  19.675  12.950
52476W        W17736  38.038  30.727   3.134
52477W        W17737  28.083  20.254  11.032
52478W        W17738  37.038  13.712  12.545
52479W        W17739  34.835  10.638   3.660
52480W        W17740  35.676  18.126   1.759
52481W        W17741  35.407  17.788  13.903
52482W        W17742  29.274  12.589   4.545
52483W        W17743  15.713  10.013   1.975
52484W        W17744  39.618  42.573   0.882
52485W        W17745   8.766  34.180   0.942
52486W        W17746   2.294  13.670   2.446
52487W        W17747  21.591   7.124   2.832
52488W        W17748  13.258   3.459   3.164
52489W        W17749  13.720  17.080  10.725
52490W        W17750  25.144  11.720   0.324
52491W        W17751  33.899  18.330   2.928
52492W        W17752  34.006  18.831  14.070
52493W        W17753  44.734  44.124  14.020
52494W        W17754  19.802   3.419  13.970
52495W        W17755   7.101  10.926  11.117
52496W        W17756   1.567  23.486   3.648
52497W        W17757   5.898  37.009  13.938
52498W        W17758  14.281  37.169  13.094
52499W        W17759  26.559  23.106  13.409
52500W        W17760  37.385  40.397   3.647
52501W        W17761  33.459   4.398  10.673
52502W        W17762  11.733  15.855  13.728
52503W        W17763  23.286   1.776   0.796
52504W        W17764  26.976  31.923   2.373
52505W        W17765   7.313  14.831   0.805
52506W        W17766   1.756  35.145   0.386
52507W        W17767  41.298  26.985  12.023
52508W        W17768  25.438  43.949   2.445
52509W        W17769  20.646  42.831  10.855
52510W        W17770  11.242   7.898  13.781
52511W        W17771  37.315  15.316  11.092
52512W        W17772  43.361   1.187   1.214
52513W        W17773   3.444  21.627  13.068
52514W        W17774   0.526  26.535   2.301
52515W        W17775  26.596  13.330   0.010
52516W        W17776   9.165   8.633  11.057
52517W        W17777  11.647  15.182  12.380
52518W        W17778  19.959  41.369   1.359
52519W        W17779  43.731  31.479  14.440
52520W        W17780   7.320  26.240  13.809
52521W        W17781  38.623  32.589   3.684
52522W        W17782  15.295  32.296   3.570
52523W        W17783  31.557  44.106   1.446
52524W        W17784  14.799  17.199  14.701
52525W        W17785  26.203   7.005   2.260
52526W        W17786  20.619  36.201  10.228
52527W        W17787  13.715   2.147   4.812
52528W        W17788  15.793  32.348   4.550
52529W        W17789   3.943  24.531   1.830
52530W        W17790  43.401   2.791   1.816
52531W        W17791  30.460  37.480  12.418
52532W        W17792  44.474  42.608   2.088
52533W        W17793  18.778  35.869   3.223
52534W        W17794  34.079  35.771   3.635
52535W        W17795  22.475  28.567  10.718
52536W        W17796  15.513  32.005   2.267
52537W        W17797   7.027  41.081  13.855
52538W        W17798  37.144   8.422   1.545
52539W        W17799  36.806  27.626   3.563
52540W        W17800  44.201   2.659   3.341
52541W        W17801  44.241  44.608   2.375
52542W        W17802   2.019  35.818   3.918
52543W        W17803  13.933   7.311  12.336
52544W        W17804   6.005  44.480  12.007
52545W        W17805  31.548  12.427   1.304
52546W        W17806   6.733  30.561  13.344
52547W        W17807  44.289  31.539   4.180
52548W        W17808  41.418  16.289  13.295
52549W        W17809  39.061  28.507   1.943
52550W        W17810  33.877  39.373   1.286
52551W        W17811  16.340  26.359  11.666
52552W        W17812  31.934  19.995   1.778
52553W        W17813   5.801  43.015  11.347
52554W        W17814   0.276  27.077  14.050
52555W        W17815  38.901  33.828  10.747
52556W        W17816  13.327  22.378   4.817
52557W        W17817   7.398  28.184   2.324
52558W        W17818  33.029  20.062   0.984
52559W        W17819  25.090   8.618   4.558
52560W        W17820  31.911  27.108  13.428
52561W        W17821  42.316  28.130  13.999
52562W        W17822  42.697  22.514  13.994
52563W        W17823   0.474  16.116   1.275
52564W        W17824  37.601  20.347  14.746
52565W        W17825  40.931  25.850  10.690
52566W        W17826  35.217  42.828  13.457
52567W        W17827  30.699   8.574  11.392
52568W        W17828  24.055   8.407  13.802
52569W        W17829  26.682  25.161   4.331
52570W        W17830  28.401  37.811   2.712
52571W        W17831  40.848  11.901   4.901
52572W        W17832   0.511  31.440   4.731
52573W        W17833  43.447   7.396  10.656
52574W        W17834  26.631  13.371   2.453
52575W        W17835  43.358  11.774  12.530
52576W        W17836  12.335  35.780  13.218
52577W        W17837  33.642  12.609  11.678
52578W        W17838  24.254  16.664   4.897
52579W        W17839  38.744  17.215  11.524
52580W        W17840   6.524  38.781  11.247
52581W        W17841  40.405  10.116   1.411
52582W        W17842  32.580  37.565  10.861
52583W        W17843  30.523  26.187  14.291
52584W        W17844   4.955  12.539  10.772
52585W        W17845  42.378  33.490  14.967
52586W        W17846   6.337  33.170   3.107
52587W        W17847   6.458  38.152  13.568
52588W        W17848  33.426  43.309  14.843
52589W        W17849  10.854  41.041   1.438
52590W        W17850  32.498  41.332  12.854
52591W        W17851  11.840  31.601  11.070
52592W        W17852  16.452  21.759   4.551
52593W        W17853  25.161  44.051   5.143
52594W        W17854  12.368  11.288  14.022
52595W        W17855  40.347  41.151  12.077
52596W        W17856  20.187  24.370   0.843
52597W        W17857   4.415  34.742   1.249
52598W        W17858   1.627  17.168  12.588
52599W        W17859   6.466  24.923   1.409
52600W        W17860  33.946   0.486   4.664
52601W        W17861  36.385  23.038  11.465
52602W        W17862  20.997  31.081  14.810
52603W        W17863  19.582  44.733  12.904
52604W        W17864  38.472   8.831  10.777
52605W        W17865   2.395   1.311   4.586
52606W        W17866  18.163   8.936  13.115
52607W        W17867   1.635  15.588  10.899
52608W        W17868  22.095   5.325  13.110
52609W        W17869   9.333  14.208   4.036
52610W        W17870  43.056  17.898   4.850
52611W        W17871  24.705  39.122  13.956
52612W        W17872  24.582  42.916   3.191
52613W        W17873   1.152   3.546  10.991
52614W        W17874  21.433   0.273   4.599
52615W        W17875  32.883  12.453   4.275
52616W        W17876  19.764  37.020  14.510
52617W        W17877  19.003  36.354   2.277
52618W        W17878  42.264  12.167  13.461
52619W        W17879  31.895  34.170  11.469
52620W        W17880  41.266   5.681   3.154
52621W        W17881  24.876  41.997   2.785
52622W        W17882  11.791  18.027   1.833
52623W        W17883   9.437  15.220   4.064
52624W        W17884  37.618  31.984   3.088
52625W        W17885  22.071  16.044  13.018
52626W        W17886  43.439  27.463   2.182
52627W        W17887  30.384   6.770  14.404
52628W        W17888  30.621  31.621   2.711
52629W        W17889   2.283  20.480  14.731
52630W        W17890  23.107  14.066  13.391
52631W        W17891  34.968  30.447   2.754
52632W        W17892   2.406  19.573  13.846
52633W        W17893  43.799  42.008  13.405
52634W        W17894  18.884  16.228   0.005
52635W        W17895   9.346  25.713  10.262
52636W        W17896   7.383  36.438  14.931
52637W        W17897  24.683  10.820  13.489
52638W        W17898  40.271  31.625  10.753
52639W        W17899   3.855   2.365   4.894
52640W        W17900  32.287  25.188  13.625
52641W        W17901  21.778  18.038   4.615
52642W        W17902  33.312   5.283  13.518
52643W        W17903  41.920  41.777  13.951
52644W        W17904  43.442  10.780   4.566
52645W        W17905  14.357  21.752  14.258
52646W        W17906  17.386  29.522   2.379
52647W        W17907  12.246  23.148   0.826
52648W        W17908   9.388   8.188  12.921
52649W        W17909  20.873  33.205  13.614
52650W        W17910  26.038  42.785  12.517
52651W        W17911   0.232  25.013  14.822
52652W        W17912  43.164  43.950  13.389
52653W        W17913  19.072  17.393  10.621
52654W        W17914   1.403  12.517   2.499
52655W        W17915  33.108  44.081   2.275
52656W        W17916  40.430  10.554   4.682
52657W        W17917   9.812   8.308   3.209
52658W        W17918   2.930  44.443   2.784
52659W        W17919  28.331  32.471   4.652
52660W        W17920  39.514  25.039   1.993
52661W        W17921  28.584  36.694  11.872
52662W        W17922  42.993  37.122  14.317
52663W        W17923  25.993  16.541   2.175
52664W        W17924  10.187  36.378   3.598
52665W        W17925   5.932   2.632   0.888
52666W        W17926  32.477  33.153   4.696
52667W        W17927  13.251  33.266  13.859
52668W        W17928   6.993   7.803   3.597
52669W        W17929   1.770  14.072   4.544
52670W        W17930  13.085  38.915   3.700
52671W        W17931  37.082   0.940   4.446
52672W        W17932  28.592   6.981   3.386
52673W        W17933  23.212   2.350  10.712
52674W        W17934   3.347   0.741   2.366
52675W        W17935  10.776   1.820  14.086
52676W        W17936   7.303  14.505   5.148
52677W        W17937  40.123  23.932  13.884
52678W        W17938  37.052  43.100  12.336
52679W        W17939  14.805  15.801   0.440
52680W        W17940  40.358  21.333   1.856
52681W        W17941  34.318   4.471  10.249
52682W        W17942   8.366  24.978   3.288
52683W        W17943  25.841  37.806   0.841
52684W        W17944  10.694  20.701   1.282
52685W        W17945  41.874  10.512   4.573
52686W        W17946  11.166  43.700  11.193
52687W        W17947  35.112   5.903  12.398
52688W        W17948  25.635  26.661   1.174
52689W        W17949   5.289  32.482   2.956
52690W        W17950   3.659  20.629   3.826
52691W        W17951  26.263  29.983  14.946
52692W        W17952  44.490  14.619  11.548
52693W        W17953  28.918  43.874  13.296
52694W        W17954  25.178  43.444   2.848
52695W        W17955  19.544   5.345  11.166
52696W        W17956   4.897  42.097  11.031
52697W        W17957  42.599  31.058  11.722
52698W        W17958   3.461  30.602  11.052
52699W        W17959  22.661  41.791   3.966
52700W        W17960  32.866  23.476   0.930
52701W        W17961  18.296  35.320   0.315
52702W        W17962  27.696  43.733  14.465
52703W        W17963  43.572  19.534   2.939
52704W        W17964  10.551  44.402   2.338
52705W        W17965  20.975  30.139  12.889
52706W        W17966  15.526  43.250   2.177
52707W        W17967  33.434  19.096  10.306
52708W        W17968  40.324   3.510   0.160
52709W        W17969  42.492  43.241  10.966
52710W        W17970  40.374  30.759   4.922
52711W        W17971  43.765  33.477   3.197
52712W        W17972  13.339  14.833   3.673
52713W        W17973  20.276   5.343  12.015
52714W        W17974  39.917   8.209   2.248
52715W        W17975   6.434  17.585   4.104
52716W        W17976  20.137  11.872   1.428
52717W        W17977   9.945  29.239  12.946
52718W        W17978   9.856  11.529   0.789
52719W        W17979  31.184  14.153  12.120
52720W        W17980  20.123  43.200   1.490
52721W        W17981  37.467   6.765  11.607
52722W        W17982  26.990  33.991  10.731
52723W        W17983  19.002   9.153  13.074
52724W        W17984  41.509  34.841  13.384
52725W        W17985   0.240   8.190  11.767
52726W        W17986  40.345  38.058  10.929
52727W        W17987   1.467  23.241   2.334
52728W        W17988   6.497  13.286  12.883
52729W        W17989  40.510  15.912  13.961
52730W        W17990  25.556  31.484  12.088
52731W        W17991  25.076  35.177  11.414
52732W        W17992  36.721   7.164  14.981
52733W        W17993  18.360  31.156   4.397
52734W        W17994  22.576  38.006  14.796
52735W        W17995   0.148  40.971  11.512
52736W        W17996  29.551  30.678  12.540
52737W        W17997  30.899  20.774   2.262
52738W        W17998  24.792   4.156   0.713
52739W        W17999   6.756  31.874   0.380
52740W        W18000  33.079  38.611  11.617
52741W        W18001  40.713  17.559  14.567
52742W        W18002  30.564   4.948  12.540
52743W        W18003  21.011  31.950  13.250
52744W        W18004  27.239  34.107   1.733
52745W        W18005   0.414  28.519  13.510
52746W        W18006  11.075  41.369  10.952
52747W        W18007  16.339  31.468  10.681
52748W        W18008  17.299  25.031   2.847
52749W        W18009   5.741  18.228   1.313
52750W        W18010  35.055  27.925  12.499
52751W        W18011  28.544  27.281   1.807
52752W        W18012  19.534  23.514   4.303
52753W        W18013  36.983   0.405  13.910
52754W        W18014  42.754   1.812   1.864
52755W        W18015  23.617  13.383  14.301
52756W        W18016  20.114  22.522   3.420
52757W        W18017  40.010  24.556   4.108
52758W        W18018  37.747  31.348   1.721
52759W        W18019  19.562  14.508  12.918
52760W        W18020  23.711  36.656   0.873
52761W        W18021  16.291  17.833   1.775
52762W        W18022  17.135   6.745   4.176
52763W        W18023  34.878  27.964   4.587
52764W        W18024   5.310  25.280  11.611
52765W        W18025  34.835  17.840   3.018
52766W        W18026  18.869  34.931  13.108
52767W        W18027  21.617   8.433   5.058
52768W        W18028  28.997  22.708   3.215
52769W        W18029  31.550  29.091   1.597
52770W        W18030  42.411  27.483   0.894
52771W        W18031  13.248  15.415  10.440
52772W        W18032  17.082  20.193   0.964
52773W        W18033   6.933  13.294  10.771
52774W        W18034  31.614   3.774   4.203
52775W        W18035  32.834  21.399   2.841
52776W        W18036  20.044  39.140  13.963
52777W        W18037  19.555  40.592  10.403
52778W        W18038  18.400  10.236  11.373
52779W        W18039   1.031   1.442   4.274
52780W        W18040  22.428  23.577  10.766
52781W        W18041  36.038  25.356   1.391
52782W        W18042  35.993  31.560   2.852
52783W        W18043  19.499  28.216   3.586
52784W        W18044  22.993  16.710  14.415
52785W        W18045   4.338  24.490  12.876
52786W        W18046  32.868  32.253   0.708
52787W        W18047  22.290  27.792  11.679
52788W        W18048   8.388  28.675  13.476
52789W        W18049  13.230  29.407   5.022
52790W        W18050  24.911  33.665   3.592
52791W        W18051  12.442  42.498   2.013
52792W        W18052  39.021  28.103   4.962
52793W        W18053  22.391  24.016   3.185
52794W        W18054  40.052   2.759   4.620
52795W        W18055  12.775  13.755  13.456
52796W        W18056  38.051  39.758   0.438
52797W        W18057  22.166  15.821   4.718
52798W        W18058  16.294  39.051  14.364
52799W        W18059  34.559   8.770  13.684
52800W        W18060  26.647  28.658   4.270
52801W        W18061  36.834  40.985  10.619
52802W        W18062   1.654  32.701   1.224
52803W        W18063  30.857  22.953  11.448
52804W        W18064  31.147   3.818   0.833
52805W        W18065  11.619  40.868   4.225
52806W        W18066   0.444  18.910   4.762
52807W        W18067  12.667   5.131   0.462
52808W        W18068   8.949   7.383   4.149
52809W        W18069  20.388  41.821  11.675
52810W        W18070  12.157  44.253   4.095
52811W        W18071   1.852  41.583  12.947
52812W        W18072  18.663  14.655  14.338
52813W        W18073   9.663  16.657   1.233
52814W        W18074  35.911   8.485   1.252
52815W        W18075  13.940   8.320  12.430
52816W        W18076  11.851  22.668  10.831
52817W        W18077  28.968  26.045   4.250
52818W        W18078  44.416   8.987   3.856
52819W        W18079  23.504  27.672   3.239
52820W        W18080   6.895  26.646  14.972
52821W        W18081  26.316   4.369  11.642
52822W        W18082  10.058  44.597  12.222
52823W        W18083  17.123  12.957  14.389
52824W        W18084  41.575  30.083  11.111
52825W        W18085   0.727  29.467   1.336
52826W        W18086  35.887  32.681   3.838
52827W        W18087  29.877  29.128  13.520
52828W        W18088   4.808  42.571   1.304
52829W        W18089   0.893  30.896  10.845
52830W        W18090  34.963  23.629  10.605
52831W        W18091  32.123  34.525   0.316
52832W        W18092  22.195  40.264   1.614
52833W        W18093  43.026  33.373  12.516
52834W        W18094  15.706  26.066  10.438
52835W        W18095   8.443   2.370  13.647
52836W        W18096  23.391  18.067  13.513
52837W        W18097  16.219  25.919   4.338
52838W        W18098  36.652   1.719   0.834
52839W        W18099   4.420  41.527   1.167
52840W        W18100   8.679  38.778   2.090
52841W        W18101  21.326  33.610   3.263
52842W        W18102  38.254   9.028   1.443
52843W        W18103   9.391   8.411  14.365
52844W        W18104  44.864  21.257   1.377
52845W        W18105  43.512  41.466   3.243
52846W        W18106  15.604   0.355  12.950
52847W        W18107  40.495  29.411  11.416
52848W        W18108  10.819  12.080   0.450
52849W        W18109   9.244  20.242  10.582
52850W        W18110  12.399  29.395  13.998
52851W        W18111  44.565  33.011   3.213
52852W        W18112   8.737   7.397   1.621
52853W        W18113  43.301  29.870   0.036
52854W        W18114  14.397  35.664  10.897
52855W        W18115  34.027  35.838  13.858
52856W        W18116  29.002   7.275  13.344
52857W        W18117  34.055   0.684   0.668
52858W        W18118  18.083  35.562  14.310
52859W        W18119  34.132  24.313   0.651
52860W        W18120  44.777  17.594   4.931
52861W        W18121  13.600  16.870  11.178
52862W        W18122  33.184  40.000   2.256
52863W        W18123  12.892  38.971   0.302
52864W        W18124   1.824  34.848  13.928
52865W        W18125  28.559  41.153  14.081
52866W        W18126   2.936  26.044  12.590
52867W        W18127  41.940  41.215   4.135
52868W        W18128  18.059  17.874  13.442
52869W        W18129  37.967   8.592   1.897
52870W        W18130  36.096  13.248  11.196
52871W        W18131  27.660  40.117   1.372
52872W        W18132  21.485  43.994   1.742
52873W        W18133  34.529   7.753   2.271
52874W        W18134  40.586   5.683  14.336
52875W        W18135  40.012   4.010   5.576
52876W        W18136  21.810  37.389   1.180
52877W        W18137  17.479  19.021   5.243
52878W        W18138   2.783  28.226  10.584
52879W        W18139  19.608   6.205  13.539
52880W        W18140  16.078  29.609   2.766
52881W        W18141  31.594  39.495  13.631
52882W        W18142   9.083  44.441  11.061
52883W        W18143  13.945  35.989  14.884
52884W        W18144  19.576  39.207  12.549
52885W        W18145  19.110  32.391  10.878
52886W        W18146  29.915  43.105  11.166
52887W        W18147  34.776  33.606  13.296
52888W        W18148   1.927   9.672  11.928
52889W        W18149  27.960  21.080  12.100
52890W        W18150  19.558  32.260   4.961
52891W        W18151   3.559  29.205  14.300
52892W        W18152  24.153  17.147   4.689
52893W        W18153  43.989  15.296   3.609
52894W        W18154   6.179  37.420  14.325
52895W        W18155  33.207  20.075  12.974
52896W        W18156  37.582  34.042  13.875
52897W        W18157   8.225  37.348   4.100
52898W        W18158  32.225  37.618   3.612
52899W        W18159  44.525  31.567  11.708
52900W        W18160  19.147  37.475   2.177
52901W        W18161   8.340  44.733   4.663
52902W        W18162  42.544  30.566   3.864
52903W        W18163  37.170  43.270  11.086
52904W        W18164  36.056  22.382   5.210
52905W        W18165  11.243  37.472   0.456
52906W        W18166  16.369  37.803   4.295
52907W        W18167  26.518  27.368  14.281
52908W        W18168  28.056  23.242   3.179
52909W        W18169  21.196  30.101   3.767
52910W        W18170  30.181  12.988  11.986
52911W        W18171   8.126  31.035  10.621
52912W        W18172  12.328  22.477  10.781
52913W        W18173   4.385  44.896  12.731
52914W        W18174   8.481   7.203   0.036
52915W        W18175  23.185  24.443  12.939
52916W        W18176   7.374  33.719  14.407
52917W        W18177  39.696  25.718   4.602
52918W        W18178   1.912  10.936   2.417
52919W        W18179  44.022  23.687  10.773
52920W        W18180  38.108  32.684   1.387
52921W        W18181  36.553   2.681  11.141
52922W        W18182   6.698  33.434  12.809
52923W        W18183   4.771   2.742  11.507
52924W        W18184  18.580  33.824  12.479
52925W        W18185  35.182  27.715   3.336
52926W        W18186  27.991  17.816   5.034
52927W        W18187   4.255   8.308   3.764
52928W        W18188  22.987  22.890  13.339
52929W        W18189  40.042  34.854  12.405
52930W        W18190   0.858  13.620   0.983
52931W        W18191  21.660  34.903   1.871
52932W        W18192  27.621  10.752  11.429
52933W        W18193   1.714  10.706  14.024
52934W        W18194  27.114  23.294  12.709
52935W        W18195   2.224  13.166  10.601
52936W        W18196   0.125   6.390  14.509
52937W        W18197   1.503  11.316   2.699
52938W        W18198  30.433  24.027  13.899
52939W        W18199  30.457  22.743  14.975
52940W        W18200  12.066  15.310   1.121
52941W        W18201  20.545  10.207  14.423
52942W        W18202  36.488  24.168   2.021
52943W        W18203   8.681  15.440  11.597
52944W        W18204  33.935  26.569   0.071
52945W        W18205  10.251   4.509   4.071
52946W        W18206  35.992  23.280  11.193
52947W        W18207  19.072  16.786  14.079
52948W        W18208   6.176  25.119   2.423
52949W        W18209   1.705  20.142  13.993
52950W        W18210  42.939  24.201  13.508
52951W        W18211  28.675  44.912   1.402
52952W        W18212  26.194  44.108   3.209
52953W        W18213   4.743  31.050   3.628
52954W        W18214  36.967  18.847   1.130
52955W        W18215  17.180  13.239  12.399
52956W        W18216  16.483  27.569  11.573
52957W        W18217  13.798  12.973   0.475
52958W        W18218  21.196  43.945  12.874
52959W        W18219   5.543   2.926   4.738
52960W        W18220  37.353  42.702  12.473
52961W        W18221  10.846  41.465   4.111
52962W        W18222  14.540  30.514  13.579
52963W        W18223  30.133  35.726   3.402
52964W        W18224  16.334   8.314   4.659
52965W        W18225   4.376   4.828   2.686
52966W        W18226   7.727  32.703   1.864
52967W        W18227   5.485  13.090   1.556
52968W        W18228  14.766   2.737  12.286
52969W        W18229  39.062  30.226  14.930
52970W        W18230  41.830  31.559   0.241
52971W        W18231   2.645  10.700  10.273
52972W        W18232  29.886  15.159   3.423
52973W        W18233  28.484  23.634  14.728
52974W        W18234  20.579  31.489   0.911
52975W        W18235   7.659  14.037  11.771
52976W        W18236  43.777  33.464  13.197
52977W        W18237   1.297  12.865   3.995
52978W        W18238  25.680  21.454  14.351
52979W        W18239  35.667  18.082   4.168
52980W        W18240  32.426  24.582   5.633
52981W        W18241  44.462  28.657  12.509
52982W        W18242  13.927  40.782  14.882
52983W        W18243  33.846   7.249  14.094
52984W        W18244   3.826  27.929  11.471
52985W        W18245  24.008   4.382  13.151
52986W        W18246  32.026   5.664  14.103
52987W        W18247  24.181   9.595  14.303
52988W        W18248  35.429  42.040  11.171
52989W        W18249  42.278  34.975   3.882
52990W        W18250   2.694  21.991  12.991
52991W        W18251   7.978  24.189   0.238
52992W        W18252  26.981  40.834  14.850
52993W        W18253  26.451   9.879  12.488
52994W        W18254  12.274  40.904  13.075
52995W        W18255  42.542   0.059   4.647
52996W        W18256  38.810  19.447  12.055
52997W        W18257   9.174  13.323  11.893
52998W        W18258  34.013   0.164  14.765
52999W        W18259  26.064  43.425   3.104
53000W        W18260   8.100  14.917   1.302
53001W        W18261  41.490  16.111   4.651
53002W        W18262  32.979  13.177  11.909
53003W        W18263  20.269  21.326   4.383
53004W        W18264   6.676   6.310  11.525
53005W        W18265   4.151   9.322  13.436
53006W        W18266  21.200  32.666   2.795
53007W        W18267  44.386   4.487   0.500
53008W        W18268  36.552  15.065  10.437
53009W        W18269  31.875   5.403   3.133
53010W        W18270  21.026  12.787   1.719
53011W        W18271  40.979  35.729  11.273
53012W        W18272  38.349   7.592   4.865
53013W        W18273  42.017   5.892   4.069
53014W        W18274  20.745  32.873  14.013
53015W        W18275  33.868  20.676  14.864
53016W        W18276  32.553   0.998   2.729
53017W        W18277  38.352  15.513  14.544
53018W        W18278  21.628   0.078  12.434
53019W        W18279  36.272  12.766   3.155
53020W        W18280  37.858  28.457   0.175
53021W        W18281  42.101   2.697  12.820
53022W        W18282  10.780  39.302  11.170
53023W        W18283  21.248  35.398   5.346
53024W        W18284  27.676   6.313   4.111
53025W        W18285  29.636  35.385  10.434
53026W        W18286  30.020  14.516   2.226
53027W        W18287  11.250   9.808   1.729
53028W        W18288  36.322   8.110  13.216
53029W        W18289   0.011   7.419   2.667
53030W        W18290  30.709   0.402   0.832
53031W        W18291  18.604  26.791  13.177
53032W        W18292  40.333  31.925  13.006
53033W        W18293  18.341  33.576   2.627
53034W        W18294  23.549  44.330  13.127
53035W        W18295  24.540  14.685   1.949
53036W        W18296   8.121   2.958  10.857
53037W        W18297  20.457  36.802   4.164
53038W        W18298  38.176  12.453   0.365
53039W        W18299   7.383   7.314  14.024
53040W        W18300   3.957  26.408   0.375
53041W        W18301  37.831   5.786  13.069
53042W        W18302  34.447  11.159  11.610
53043W        W18303  18.102  23.116  12.886
53044W        W18304  31.400  11.779  11.693
53045W        W18305  16.518  29.995   1.509
53046W        W18306  12.579  23.432   2.482
53047W        W18307  12.644  28.983   2.139
53048W        W18308  11.766  33.550  12.659
53049W        W18309  40.708   4.479  11.781
53050W        W18310  13.772  22.693  12.374
53051W        W18311   0.993  13.908  12.341
53052W        W18312   5.148  18.312   0.284
53053W        W18313  10.326  40.753   4.058
53054W        W18314  24.488  25.631  14.948
53055W        W18315  24.939  32.353  11.639
53056W        W18316  26.608  13.643  11.286
53057W        W18317  18.622  44.873  10.648
53058W        W18318  27.674   2.318   0.697
53059W        W18319  37.519  39.658  10.638
53060W        W18320  13.104  19.131  12.772
53061W        W18321  12.623  23.613  14.435
53062W        W18322   0.384  27.101  13.056
53063W        W18323  19.154  20.518  10.183
53064W        W18324  29.909  10.499   0.427
53065W        W18325  20.814  22.049   0.979
53066W        W18326  40.036  15.062  11.523
53067W        W18327   4.455   0.512  13.923
53068W        W18328  32.324   9.865   4.550
53069W        W18329  16.878   6.702  12.448
53070W        W18330  41.269   8.303   0.471
53071W        W18331  25.332  31.220  11.055
53072W        W18332  43.053  31.935   1.793
53073W        W18333  23.439  34.388   3.734
53074W        W18334  30.031  16.655  13.303
53075W        W18335  23.130  26.188   2.317
53076W        W18336  26.598  11.498   0.234
53077W        W18337  42.382  41.997  10.545
53078W        W18338  27.634  38.056   1.303
53079W        W18339  33.384  13.393  12.168
53080W        W18340  22.105   8.455   0.264
53081W        W18341  28.630  42.205   0.941
53082W        W18342   6.634  39.850  14.275
53083W        W18343   3.207   9.098   3.191
53084W        W18344  11.263  14.877  13.098
53085W        W18345  26.698  41.677  11.095
53086W        W18346   4.929  37.298   0.285
53087W        W18347  34.948   8.755   3.784
53088W        W18348  10.692  15.212   1.867
53089W        W18349  26.761  21.805   1.196
53090W        W18350  37.449  40.021  12.094
53091W        W18351  22.587  31.590  10.877
53092W        W18352  17.684   0.939  14.753
53093W        W18353  16.433  38.077  13.444
53094W        W18354   0.573  43.437   0.498
53095W        W18355  32.417   9.683  10.767
53096W        W18356  29.661  17.714  11.872
53097W        W18357  10.942   9.397   1.847
53098W        W18358  34.778  41.454  12.152
53099W        W18359   4.910  42.756   2.747
53100W        W18360  28.157  25.230  10.742
53101W        W18361  25.221  23.373   2.752
53102W        W18362  38.511  30.881  13.542
53103W        W18363  31.093  21.773   2.387
53104W        W18364  19.170  27.507  10.644
53105W        W18365  22.708   1.239   1.893
53106W        W18366   5.955  15.217   3.592
53107W        W18367  25.609  23.210  13.630
53108W        W18368  42.948  10.777   0.207
53109W        W18369  28.064  41.559   1.794
53110W        W18370  16.031  12.654   0.439
53111W        W18371   5.857  33.863   0.964
53112W        W18372   9.794   7.715  14.460
53113W        W18373  19.314   3.439   3.288
53114W        W18374   1.526  42.026   4.747
53115W        W18375  20.953   2.081  11.200
53116W        W18376  44.364  20.660   0.146
53117W        W18377  14.155  19.444   3.618
53118W        W18378  35.016  40.918  10.225
53119W        W18379  26.580  15.095  13.116
53120W        W18380  30.541  18.763  13.097
53121W        W18381  27.889   6.686  14.944
53122W        W18382   0.766   7.484   4.180
53123W        W18383  21.245  14.233  12.040
53124W        W18384  17.291  40.047  14.264
53125W        W18385  14.573  26.685   3.188
53126W        W18386   5.079  16.773   2.392
53127W        W18387  43.389  15.591   2.101
53128W        W18388  38.620  38.544   0.544
53129W        W18389  33.022  28.056  14.595
53130W        W18390  38.587  43.834  14.337
53131W        W18391   1.789  12.124  13.284
53132W        W18392  14.878  14.381   3.116
53133W        W18393   9.255  19.245  14.559
53134W        W18394  15.620  13.012   3.177
53135W        W18395  42.754  27.206  13.911
53136W        W18396  13.122  16.707   2.792
53137W        W18397  38.571  40.511   3.560
53138W        W18398   3.383  13.656   2.405
53139W        W18399  32.963  20.785  11.515
53140W        W18400  32.605  13.802  10.859
53141W        W18401   0.594   0.683   4.133
53142W        W18402  24.084  10.892  14.332
53143W        W18403  37.471   3.427  12.632
53144W        W18404  37.785  18.750  14.296
53145W        W18405   9.898  22.352   3.794
53146W        W18406  34.334   5.805  12.107
53147W        W18407   7.002   4.237   0.690
53148W        W18408  24.679  21.572   3.289
53149W        W18409  42.498  11.356   0.871
53150W        W18410   9.683  33.938  14.833
53151W        W18411  38.407   9.559  13.446
53152W        W18412  36.685  10.016  11.772
53153W        W18413  38.396  25.475   2.680
53154W        W18414   8.979  40.800  13.637
53155W        W18415  34.365  11.381  14.036
53156W        W18416   2.823  15.316  10.462
53157W        W18417  29.678  28.187   0.806
53158W        W18418  17.097  10.223   3.583
53159W        W18419  14.326  37.705   2.311
53160W        W18420  26.126  37.426  12.516
53161W        W18421  25.341  39.068   2.037
53162W        W18422  16.319  21.710  12.461
53163W        W18423  34.880  43.947  12.556
53164W        W18424  20.097  23.626   1.339
53165W        W18425  43.036  36.347  14.985
53166W        W18426  40.273  28.054   3.491
53167W        W18427   2.078  21.680   4.564
53168W        W18428   4.615  31.490   2.822
53169W        W18429   3.155  30.393   1.261
53170W        W18430  33.458   5.547  11.742
53171W        W18431   8.995  37.666  11.801
53172W        W18432  26.195  33.614   3.077
53173W        W18433   4.258   2.117   1.910
53174W        W18434  41.447   1.535   3.108
53175W        W18435  41.016  38.061   3.278
53176W        W18436  25.964  20.676   3.062
53177W        W18437  24.923   6.386   3.712
53178W        W18438  17.546  11.328  11.526
53179W        W18439  11.668  31.285  11.481
53180W        W18440  29.588  19.049  14.037
53181W        W18441  44.497   0.788  12.065
53182W        W18442  15.618  32.647   4.160
53183W        W18443  10.369   7.642  13.009
53184W        W18444  31.187  10.036  12.979
53185W        W18445  15.540  19.375  13.099
53186W        W18446  20.576  10.764  12.094
53187W        W18447  40.642  14.365  11.705
53188W        W18448  31.347  39.102   0.920
53189W        W18449   4.471   1.272  13.348
53190W        W18450  27.103  21.536  14.959
53191W        W18451   2.791  17.411   0.873
53192W        W18452  29.436  31.940   1.764
53193W        W18453  31.656  21.428  14.966
53194W        W18454  43.260  21.622  14.546
53195W        W18455   5.773  26.944   2.226
53196W        W18456  27.033   2.000   2.709
53197W        W18457  19.479  13.029   1.053
53198W        W18458  23.148  43.455   0.895
53199W        W18459  11.131   6.831   1.669
53200W        W18460  40.706  33.787  12.080
53201W        W18461  30.840  36.576  12.493
53202W        W18462  19.130  30.566  11.460
53203W        W18463  31.958  15.185   4.563
53204W        W18464  38.225   4.291   0.438
53205W        W18465  31.517  12.347   2.385
53206W        W18466  40.452  43.627  10.787
53207W        W18467  27.037  44.151  14.781
53208W        W18468  18.532  16.898  11.091
53209W        W18469  28.064   8.484   4.980
53210W        W18470  18.627   4.131   2.785
53211W        W18471  35.774  29.883   1.822
53212W        W18472  11.234  37.242   3.187
53213W        W18473  23.697   9.412   4.690
53214W        W18474  24.804   5.305  13.554
53215W        W18475   7.734   0.610  14.974
53216W        W18476   5.447   4.601  12.060
53217W        W18477  30.659  17.594  13.796
53218W        W18478  14.116   2.876   1.382
53219W        W18479  31.575  43.959  11.605
53220W        W18480  35.983  39.412   3.320
53221W        W18481  11.361  41.008  14.906
53222W        W18482  33.999  11.466   0.366
53223W        W18483  27.240  23.598  11.437
53224W        W18484   8.793  22.601  13.242
53225W        W18485  31.600   4.063   0.805
53226W        W18486  21.444  10.797   2.393
53227W        W18487  33.508  32.171   2.654
53228W        W18488  21.128  36.794  12.597
53229W        W18489  17.015  42.506   3.331
53230W        W18490   6.292  31.106   0.645
53231W        W18491  10.237   3.674  12.574
53232W        W18492   2.002  13.823   1.236
53233W        W18493  10.143  24.850  13.090
53234W        W18494  15.549   7.359   2.286
53235W        W18495  13.688   9.858   0.430
53236W        W18496  36.736  40.832   3.815
53237W        W18497  25.506   8.022   4.476
53238W        W18498   9.310   4.865  14.810
53239W        W18499  35.086  34.005  13.459
53240W        W18500   1.748  25.834   1.410
53241W        W18501  38.436  31.530  13.997
53242W        W18502  39.908  17.263   3.173
53243W        W18503  38.318   5.472   0.752
53244W        W18504   4.846  10.119  11.196
53245W        W18505  42.268  22.970   2.187
53246W        W18506  12.816  11.147   2.154
53247W        W18507  21.163   4.027  10.247
53248W        W18508  40.766  19.794   4.333
53249W        W18509  11.239  33.044   1.113
53250W        W18510   7.169  18.015   1.317
53251W        W18511  19.136  37.211  13.566
53252W        W18512  38.107  29.929  13.979
53253W        W18513   0.933   7.257   2.634
53254W        W18514  36.470   8.699   5.229
53255W        W18515  40.265   0.823   2.657
53256W        W18516  17.846  27.878  12.623
53257W        W18517  30.943  13.544   0.756
53258W        W18518  27.231  14.149  14.324
53259W        W18519  37.135  16.068   2.353
53260W        W18520  33.087  33.071  11.052
53261W        W18521  25.738  29.511  10.978
53262W        W18522  18.591  13.799   4.373
53263W        W18523  29.730  21.086  12.694
53264W        W18524   0.156  14.232   1.286
53265W        W18525   9.769  14.123  12.082
53266W        W18526  26.800  13.110  12.469
53267W        W18527   8.581   9.571  12.141
53268W        W18528  26.245  40.074  14.323
53269W        W18529   5.878  11.830  14.863
53270W        W18530  19.808  44.671  11.173
53271W        W18531  26.603   0.970  12.905
53272W        W18532   2.239  25.192   2.629
53273W        W18533  19.519  41.932   3.714
53274W        W18534  24.473  28.120   3.555
53275W        W18535  26.472  14.196   2.788
53276W        W18536  19.833  44.075   2.771
53277W        W18537   7.501  41.871   4.895
53278W        W18538  10.346  33.056   1.014
53279W        W18539   2.379  33.838   0.026
53280W        W18540  24.156  29.875   2.619
53281W        W18541  36.988  36.960   2.368
53282W        W18542   1.844  18.396  13.409
53283W        W18543  22.968  34.688   2.419
53284W        W18544  13.198  41.372  14.475
53285W        W18545  16.994   2.534  11.762
53286W        W18546  19.466   8.266  12.874
53287W        W18547   8.335   1.299   1.667
53288W        W18548   3.698   2.391   1.706
53289W        W18549   2.481  41.470  10.426
53290W        W18550  30.601  44.903   2.395
53291W        W18551  14.821  42.563   1.794
53292W        W18552   3.314   9.082  10.507
53293W        W18553  10.187  27.408  11.051
53294W        W18554  15.142  23.053   1.371
53295W        W18555  28.770  10.100  14.160
53296W        W18556  25.580  12.364  11.691
53297W        W18557  37.174  32.656   1.554
53298W        W18558  25.567  13.314  14.704
53299W        W18559   4.784   4.974  12.539
53300W        W18560  33.215   0.030  13.991
53301W        W18561  11.751  28.748   3.299
53302W        W18562  15.178  41.998   2.358
53303W        W18563  37.798  27.145  12.480
53304W        W18564  11.087  21.246   0.522
53305W        W18565  12.576  29.369  14.534
53306W        W18566  35.457  27.936   1.015
53307W        W18567  22.516  17.997  10.674
53308W        W18568  44.475  30.627   1.754
53309W        W18569  12.966   5.579   3.983
53310W        W18570   3.937  24.892   4.087
53311W        W18571  10.074   9.829   1.137
53312W        W18572  42.236  22.461   2.312
53313W        W18573  25.732  43.170  13.324
53314W        W18574  20.218  28.567  13.524
53315W        W18575   7.008   6.682  12.796
53316W        W18576  24.514  19.687   2.926
53317W        W18577   7.285   2.790  12.107
53318W        W18578   7.473  34.412  13.826
53319W        W18579  35.364  11.773   4.595
53320W        W18580  43.854  14.191   4.583
53321W        W18581  43.459   7.199   4.533
53322W        W18582  10.799   7.921  13.094
53323W        W18583  12.250  28.174   1.643
53324W        W18584  16.499  16.465  11.822
53325W        W18585  43.121  38.753   2.173
53326W        W18586  42.032  34.519   3.650
53327W        W18587  34.714  17.974  12.931
53328W        W18588  12.184  36.140   1.413
53329W        W18589  15.371   3.258   0.468
53330W        W18590  38.507  32.102   3.574
53331W        W18591   1.981   1.840   2.907
53332W        W18592   7.269  21.973  11.178
53333W        W18593  30.063  25.234  13.086
53334W        W18594  34.117  24.039   1.892
53335W        W18595  40.427   3.933   0.459
53336W        W18596  16.703  16.099  11.529
53337W        W18597  15.378  44.127  13.221
53338W        W18598   0.957  16.851  11.955
53339W        W18599  22.103   7.316  14.525
53340W        W18600   0.823  39.536  12.101
53341W        W18601  23.673  36.639  13.940
53342W        W18602  35.047   0.172   3.972
53343W        W18603  28.123   9.808  14.866
53344W        W18604  10.587  11.491   4.617
53345W        W18605   0.432  42.854   1.633
53346W        W18606  27.370  20.476   4.126
53347W        W18607   9.675  44.781  12.983
53348W        W18608  25.073   3.233   3.193
53349W        W18609  10.685   5.171  12.919
53350W        W18610   4.070   6.696   4.729
53351W        W18611   6.702   8.785  10.786
53352W        W18612  10.406  19.860   3.183
53353W        W18613   3.781  33.922   1.266
53354W        W18614  14.602  36.781   4.308
53355W        W18615   3.482  26.765  13.791
53356W        W18616  16.202  27.538   2.337
53357W        W18617  22.483  43.390   1.368
53358W        W18618  12.817  12.360   1.964
53359W        W18619  21.229  30.540  11.614
53360W        W18620   4.434  25.382   1.620
53361W        W18621   2.851  42.395   4.776
53362W        W18622  28.265  37.018   0.286
53363W        W18623  29.204  39.844   3.616
53364W        W18624  43.138  37.275   5.071
53365W        W18625  36.463  34.567   4.043
53366W        W18626  21.541  17.727   0.834
53367W        W18627  27.933  11.595   4.265
53368W        W18628  25.113   2.901   5.451
53369W        W18629  15.903  13.570  14.803
53370W        W18630  17.451  25.363   4.167
53371W        W18631  41.027  41.589  13.967
53372W        W18632   2.564   2.229  13.881
53373W        W18633  24.123  33.350  13.958
53374W        W18634  44.059   0.064   1.452
53375W        W18635   4.846  28.588   4.105
53376W        W18636  27.946  11.665   1.001
53377W        W18637  29.494   5.429   3.886
53378W        W18638  41.705  41.618   3.860
53379W        W18639  12.016   1.377  11.561
53380W        W18640  14.646  27.775   1.734
53381W        W18641  44.338  25.546   0.726
53382W        W18642  15.379  31.069  11.610
53383W        W18643  26.150  26.487  12.527
53384W        W18644  13.782  41.019  13.402
53385W        W18645  11.297   5.053   1.736
53386W        W18646  15.735  41.775   2.310
53387W        W18647  10.201  12.628  11.252
53388W        W18648  12.905  41.853  14.822
53389W        W18649  10.138   3.461   0.919
53390W        W18650  12.843  40.102  11.945
53391W        W18651   3.738   9.690   1.855
53392W        W18652  36.946   1.300   0.733
53393W        W18653  15.049  22.310  13.017
53394W        W18654  37.770  32.638   3.313
53395W        W18655  27.170  41.375  11.871
53396W        W18656  24.443  16.806  11.093
53397W        W18657  43.526  31.492  12.832
53398W        W18658  38.359  16.234   0.254
53399W        W18659  11.808  12.941   4.052
53400W        W18660  27.835   8.819   2.934
53401W        W18661  36.998  31.119  14.961
53402W        W18662  15.701  29.181   2.797
53403W        W18663  38.327  12.333   4.112
53404W        W18664  27.820  19.598  13.569
53405W        W18665  39.342  37.829   4.460
53406W        W18666  12.691   6.274   2.243
53407W        W18667  30.522  18.758   3.244
53408W        W18668  35.221   9.170   4.041
53409W        W18669  32.952   0.111   3.753
53410W        W18670  23.816  24.395  14.542
53411W        W18671   5.798  20.661  12.478
53412W        W18672   3.732  42.793   4.720
53413W        W18673  43.294   8.148   0.962
53414W        W18674  27.992  34.453  11.124
53415W        W18675  44.907  27.977  13.797
53416W        W18676  37.852   3.307  14.485
53417W        W18677   6.711  36.658   4.429
53418W        W18678   4.855  28.916   1.177
53419W        W18679  31.672  19.740   4.119
53420W        W18680  15.057  29.316   0.388
53421W        W18681  29.409  25.477   4.146
53422W        W18682   6.796  39.339   1.355
53423W        W18683   4.435  29.425   4.218
53424W        W18684  27.911  42.940  14.004
53425W        W18685  11.053  16.860   1.216
53426W        W18686  22.848  20.238  14.998
53427W        W18687  22.219   0.546   4.117
53428W        W18688  35.365  34.502   1.763
53429W        W18689  14.803  37.806  12.764
53430W        W18690  20.767   9.377   4.369
53431W        W18691  36.813  18.028   3.816
53432W        W18692   6.726  18.767  13.763
53433W        W18693   8.189  12.192  11.488
53434W        W18694  38.492  39.611   3.034
53435W        W18695  27.689   9.251  14.371
53436W        W18696  37.923   1.854  13.166
53437W        W18697   4.069  17.744  13.469
53438W        W18698  36.210  44.002   0.021
53439W        W18699  23.085  14.163  12.405
53440W        W18700  11.695   1.946  14.391
53441W        W18701   4.855   7.967   1.487
53442W        W18702  23.662  24.265  13.575
53443W        W18703  30.013  25.111   0.934
53444W        W18704  29.657  29.303  11.849
53445W        W18705  29.140  13.919   2.203
53446W        W18706  40.790   0.805   4.480
53447W        W18707  25.638  36.906  14.285
53448W        W18708  18.342   8.612   1.064
53449W        W18709   7.138  41.036   0.523
53450W        W18710  14.102  38.200   4.974
53451W        W18711  39.421  30.788   4.131
53452W        W18712  10.831  19.760  11.577
53453W        W18713  23.094   2.730  11.038
53454W        W18714   9.901   6.774   2.261
53455W        W18715  13.709  23.696  12.002
53456W        W18716  13.226   8.073  14.305
53457W        W18717  24.919  19.817   3.628
53458W        W18718  39.422  13.957  13.423
53459W        W18719  13.798  39.115  12.402
53460W        W18720   1.412  17.872  11.924
53461W        W18721  29.728  42.287  12.574
53462W        W18722  35.833  10.090  10.728
53463W        W18723  19.530   1.289   2.805
53464W        W18724  36.376  16.588   0.020
53465W        W18725  30.585   8.391   0.855
53466W        W18726  21.222  11.956   5.030
53467W        W18727  27.464  25.546   2.229
53468W        W18728   6.921  38.548   2.779
53469W        W18729  33.993  13.711  14.682
53470W        W18730  38.558   9.687   4.295
53471W        W18731  17.115  31.450   2.686
53472W        W18732  40.418  21.246  13.972
53473W        W18733  44.956  37.394  12.472
53474W        W18734  23.177  16.658  13.531
53475W        W18735  28.935  42.435   4.535
53476W        W18736  25.969  36.454   9.650
53477W        W18737  34.979  20.649   1.818
53478W        W18738  13.557  28.622   3.247
53479W        W18739  14.317  26.577   0.475
53480W        W18740  31.199  34.668  11.104
53481W        W18741  21.717  32.532  11.804
53482W        W18742   2.898   7.217   2.274
53483W        W18743  11.117  11.044   5.002
53484W        W18744  34.481  33.095   0.768
53485W        W18745  25.630  38.291  14.935
53486W        W18746  39.384   0.817   1.745
53487W        W18747  42.819  16.217   1.229
53488W        W18748   9.327   4.642   3.297
53489W        W18749  30.919  21.808   3.313
53490W        W18750  12.317  30.528   0.280
53491W        W18751  30.761  24.994   2.169
53492W        W18752   9.785  21.492  12.915
53493W        W18753  36.435  41.919  12.690
53494W        W18754  41.294  38.100   4.773
53495W        W18755  20.286   6.318   3.554
53496W        W18756  28.061  37.559   0.755
53497W        W18757  15.233  35.645  12.901
53498W        W18758  38.182  22.616  12.878
53499W        W18759  10.227  18.193   1.857
53500W        W18760  13.339  23.722  10.458
53501W        W18761   2.719  22.957  12.059
53502W        W18762  21.123  17.819   1.578
53503W        W18763  14.502   8.697   3.553
53504W        W18764  33.360  23.727  13.325
53505W        W18765  37.113  24.611  10.999
53506W        W18766  17.641  40.463  13.754
53507W        W18767   8.292   1.204  10.575
53508W        W18768  41.352  39.313   2.145
53509W        W18769  25.649   9.638   4.597
53510W        W18770  17.869  29.449   3.222
53511W        W18771  19.503  40.255   2.144
53512W        W18772  39.370  34.610  12.592
53513W        W18773  24.746  22.637   4.090
53514W        W18774   7.391  23.445   3.759
53515W        W18775  17.834  24.098   0.474
53516W        W18776  15.224  15.702   3.649
53517W        W18777  36.855  30.020  14.440
53518W        W18778  24.475  33.799   3.356
53519W        W18779   0.849  27.950   1.346
53520W        W18780  21.562  37.104   5.021
53521W        W18781  34.893   9.197   0.725
53522W        W18782  11.307  33.499   4.527
53523W        W18783  39.722  40.253  13.596
53524W        W18784   6.846   2.631  14.742
53525W        W18785   3.225  12.042   0.943
53526W        W18786   9.076  38.046  10.678
53527W        W18787  28.958   9.135   1.877
53528W        W18788  27.716  27.983  11.313
53529W        W18789  44.422  24.615  14.930
53530W        W18790   8.973   7.816   1.813
53531W        W18791   2.932  23.870   4.073
53532W        W18792   9.624  35.733   3.621
53533W        W18793  11.549  38.898   0.512
53534W        W18794  24.683  35.443  14.053
53535W        W18795   2.218  42.746  11.270
53536W        W18796   1.739  18.714  14.173
53537W        W18797  21.067  32.542  10.658
53538W        W18798  26.708   5.504   4.997
53539W        W18799  31.976  14.539   0.747
53540W        W18800   7.962  17.819   4.404
53541W        W18801  35.191   2.894  10.931
53542W        W18802  28.855   6.683  13.385
53543W        W18803  19.389  35.287  13.354
53544W        W18804   7.261   6.373   1.650
53545W        W18805  30.658   2.870   2.881
53546W        W18806  35.845   7.337  13.131
53547W        W18807   1.189   3.317   4.627
53548W        W18808   4.202   2.266   3.269
53549W        W18809  32.373  43.497  10.731
53550W        W18810  27.582  31.185   2.244
53551W        W18811  27.679   5.605   3.553
53552W        W18812  22.187   6.435   4.544
53553W        W18813  16.805   5.453  14.167
53554W        W18814  33.972  34.323   2.559
53555W        W18815   8.213  14.937  13.496
53556W        W18816  42.752  41.883  14.610
53557W        W18817  40.177  40.028  14.880
53558W        W18818  20.600  29.540   3.865
53559W        W18819   6.525  44.442  14.804
53560W        W18820  39.054  24.720   2.820
53561W        W18821  23.334   6.304  14.095
53562W        W18822   5.572   2.894   3.765
53563W        W18823  15.254  32.964   2.192
53564W        W18824   4.369  13.615   3.292
53565W        W18825  30.058   7.690   1.840
53566W        W18826   1.703  18.632  11.686
53567W        W18827  14.720  44.327   3.121
53568W        W18828  15.355  18.219   2.143
53569W        W18829  30.235  36.486  14.378
53570W        W18830  35.831  21.676   1.036
53571W        W18831   0.944  11.306   0.359
53572W        W18832  35.055  29.067   2.207
53573W        W18833   8.655   9.238   2.205
53574W        W18834  19.557   8.675  14.390
53575W        W18835  33.643  22.253  11.614
53576W        W18836  39.270  16.228   0.578
53577W        W18837   1.422  11.911  13.563
53578W        W18838  10.704   4.880   3.371
53579W        W18839  44.985  15.506  11.987
53580W        W18840   1.002   2.674   4.344
53581W        W18841  40.265  44.928   3.112
53582W        W18842  12.640  31.015   1.463
53583W        W18843   5.154  16.732  10.360
53584W        W18844  41.995   7.461   1.649
53585W        W18845  39.958  38.439   1.136
53586W        W18846   8.308  41.621  12.455
53587W        W18847  11.864  35.347   0.381
53588W        W18848  20.272   7.669  12.043
53589W        W18849  16.251  43.320  14.810
53590W        W18850   8.818  10.560  13.887
53591W        W18851  36.085  21.108   2.841
53592W        W18852  33.443   6.688  13.445
53593W        W18853  30.336  16.524   3.676
53594W        W18854   1.154   4.804   3.258
53595W        W18855  10.080  41.313  10.759
53596W        W18856   9.235  26.236   3.111
53597W        W18857  36.351  17.758   1.337
53598W        W18858  30.043  44.179   2.340
53599W        W18859  30.887  21.768  11.473
53600W        W18860  37.530  15.553  14.826
53601W        W18861   8.941  12.784   3.659
53602W        W18862  34.019  41.384   3.824
53603W        W18863   4.264   9.492   4.132
53604W        W18864  35.488  38.526  12.836
53605W        W18865  16.631  13.870  11.497
53606W        W18866  43.316  42.912  11.755
53607W        W18867  20.674   1.935  11.605
53608W        W18868  12.189   2.076  14.472
53609W        W18869  15.016  15.442   4.648
53610W        W18870  17.691  24.918   0.548
53611W        W18871  15.687   6.214   1.746
53612W        W18872  33.544  22.387   3.640
53613W        W18873  21.059  12.706  12.027
53614W        W18874  34.164  20.201  13.989
53615W        W18875  23.531  35.816  14.508
53616W        W18876  38.833  11.534  13.055
53617W        W18877  26.948  37.864   3.667
53618W        W18878  13.421  40.906  14.956
53619W        W18879  19.702  10.390   2.767
53620W        W18880  43.715  34.877   4.188
53621W        W18881   2.913  32.996   2.310
53622W        W18882   2.776  29.081   0.267
53623W        W18883  42.995  10.621  13.833
53624W        W18884  28.273  17.834   2.744
53625W        W18885  13.751  40.498  11.641
53626W        W18886  37.451  15.691   2.221
53627W        W18887  27.845   4.300   4.517
53628W        W18888  36.428  20.226  10.813
53629W        W18889  10.097  11.157  12.789
53630W        W18890   8.018  42.003  13.790
53631W        W18891   6.324  42.681  10.146
53632W        W18892  31.500  21.039   2.613
53633W        W18893   5.922  31.990   4.616
53634W        W18894   5.382  29.142   4.349
53635W        W18895  42.775  24.837  10.921
53636W        W18896  11.137  11.312  13.035
53637W        W18897  34.034  18.835  12.585
53638W        W18898  20.725   4.370   0.802
53639W        W18899  29.878  39.746   0.062
53640W        W18900  26.772  27.924  11.178
53641W        W18901  43.705  20.019  13.189
53642W        W18902  37.995   2.529   4.560
53643W        W18903  19.692  40.100   2.622
53644W        W18904  31.532  16.158  10.571
53645W        W18905  19.593   3.445  10.236
53646W        W18906  43.488  37.166  13.387
53647W        W18907   6.782  17.859   3.762
53648W        W18908   3.761  26.787   4.181
53649W        W18909  39.871  15.783   0.207
53650W        W18910   4.493  34.553   3.887
53651W        W18911  10.853  35.395   2.955
53652W        W18912   6.923  42.412  13.497
53653W        W18913  30.141  37.355  12.800
53654W        W18914  26.566   4.437  14.538
53655W        W18915  22.460  10.736  11.211
53656W        W18916  26.292  13.190  12.478
53657W        W18917  13.126  27.726   3.242
53658W        W18918   0.870  44.520   4.905
53659W        W18919  43.473   1.283   0.304
53660W        W18920  34.341   8.022   4.352
53661W        W18921  29.872   2.511   3.264
53662W        W18922  29.653  18.598  14.763
53663W        W18923  18.857  12.715   3.232
53664W        W18924  43.661  44.426  12.469
53665W        W18925   8.909  16.336   1.005
53666W        W18926  10.281  18.831   2.183
53667W        W18927  44.458  10.176  14.758
53668W        W18928  25.215  13.646  14.463
53669W        W18929  11.848  39.351   2.837
53670W        W18930  33.399  11.360   5.055
53671W        W18931   9.555   2.375   0.284
53672W        W18932  10.287  16.340  12.248
53673W        W18933  12.322  10.696   2.890
53674W        W18934  35.288   4.436   2.836
53675W        W18935  23.485  41.108  11.052
53676W        W18936  29.126  12.648   3.142
53677W        W18937  32.414  16.896   0.236
53678W        W18938  10.808   0.469   0.807
53679W        W18939  39.875  30.907  10.421
53680W        W18940   2.785  28.571  10.961
53681W        W18941   2.760  12.864  10.510
53682W        W18942  18.254  14.655   0.777
53683W        W18943  13.171  27.701   1.543
53684W        W18944  26.647  21.618   0.325
53685W        W18945  11.035  44.033   1.885
53686W        W18946  14.706  22.625   3.827
53687W        W18947  25.862   6.155  10.894
53688W        W18948   3.164  19.182   4.185
53689W        W18949  23.092  28.995  10.563
53690W        W18950   2.227  26.185   3.585
53691W        W18951   7.311  15.302   0.110
53692W        W18952  21.850  24.429   2.400
53693W        W18953  20.812   5.376  13.951
53694W        W18954  29.605  13.124   2.449
53695W        W18955  12.145  13.102  14.822
53696W        W18956  23.645  38.747   1.465
53697W        W18957  14.377  15.911  14.472
53698W        W18958   7.791  30.938   2.270
53699W        W18959  21.514  44.073  13.393
53700W        W18960  44.705  24.512   4.585
53701W        W18961  41.916   5.329   0.180
53702W        W18962   5.099  29.047   0.723
53703W        W18963  43.329  12.829  13.085
53704W        W18964  18.538  38.320   3.630
53705W        W18965   7.635  23.540  10.818
53706W        W18966  24.254  11.573  12.955
53707W        W18967  13.252   4.242  11.040
53708W        W18968  41.166  13.487  12.938
53709W        W18969  23.206   0.416   1.830
53710W        W18970   2.911   2.626   2.858
53711W        W18971   1.906  43.230   1.997
53712W        W18972  19.769  33.996   0.882
53713W        W18973   7.794  29.726   2.957
53714W        W18974  15.253  26.626  10.935
53715W        W18975  24.764  21.611  14.896
53716W        W18976  28.596  34.869   1.825
53717W        W18977   3.959  13.258  14.134
53718W        W18978  15.332  11.274  12.540
53719W        W18979  43.933  17.055  10.609
53720W        W18980  16.947  33.857  10.486
53721W        W18981   2.679  24.309  13.863
53722W        W18982  34.274  35.091   4.164
53723W        W18983  23.767   8.212   4.222
53724W        W18984  41.491   0.502   4.533
53725W        W18985  26.848  27.566  10.193
53726W        W18986  32.672   0.924  13.844
53727W        W18987   0.277  15.977  12.975
53728W        W18988  16.609  35.136  13.502
53729W        W18989  20.821  20.800   4.198
53730W        W18990  29.848  24.572  10.806
53731W        W18991  19.613   4.509   5.027
53732W        W18992   9.785  20.187   1.968
53733W        W18993  18.480  33.398  11.517
53734W        W18994  11.719  32.881   1.235
53735W        W18995  24.792  35.978  14.582
53736W        W18996  34.388  17.232   3.319
53737W        W18997  26.999  19.826  10.962
53738W        W18998  14.542   0.281  11.273
53739W        W18999  29.911   5.487  14.930
53740W        W19000  44.234  25.102  11.203
53741W        W19001   4.933   6.914  10.536
53742W        W19002  11.375  10.263  10.164
53743W        W19003   0.220  41.277   1.059
53744W        W19004  27.059  42.792   3.389
53745W        W19005  40.938   6.373   4.257
53746W        W19006  11.212   5.320  12.822
53747W        W19007  21.532  37.000  14.475
53748W        W19008  20.495   7.118  14.517
53749W        W19009  12.246  40.317   0.361
53750W        W19010  22.110  37.613  14.407
53751W        W19011  15.386   9.264  14.988
53752W        W19012  14.840   1.758   4.264
53753W        W19013  35.608  40.015   1.258
53754W        W19014  42.776  24.919   3.552
53755W        W19015   1.020   4.384  12.103
53756W        W19016  17.689  13.419   2.277
53757W        W19017  42.021  42.570   0.497
53758W        W19018  35.086  41.365   0.738
53759W        W19019  12.723   6.185   3.346
53760W        W19020   7.418  42.065  12.862
53761W        W19021  40.373  27.468   2.742
53762W        W19022  39.739  32.434  13.477
53763W        W19023  32.826  27.933   2.873
53764W        W19024  20.126  14.344   2.873
53765W        W19025  41.116  24.522  12.563
53766W        W19026  18.678  32.158   1.043
53767W        W19027  40.976  25.482  14.828
53768W        W19028  19.603  32.473  13.877
53769W        W19029  33.432   2.734   2.476
53770W        W19030  41.916  22.505  11.124
53771W        W19031  11.707  23.564  14.251
53772W        W19032  27.971  33.603  14.020
53773W        W19033  32.746   4.242   3.235
53774W        W19034  41.831   1.378   3.893
53775W        W19035  41.956  28.057   3.393
53776W        W19036  11.637  13.141   4.492
53777W        W19037   4.845  39.045  14.936
53778W        W19038   1.832  19.834  11.230
53779W        W19039  35.704   2.825  11.630
53780W        W19040  23.585  12.375   0.283
53781W        W19041   9.037  39.944  10.551
53782W        W19042  23.022  35.700  13.348
53783W        W19043  25.891  11.108  12.155
53784W        W19044  18.970   6.209   0.344
53785W        W19045  40.998   7.235   3.729
53786W        W19046  24.916  32.532  13.331
53787W        W19047  17.729  25.528  12.590
53788W        W19048  15.645   2.023   3.330
53789W        W19049  42.055  43.466   0.691
53790W        W19050  29.047  37.361   0.920
53791W        W19051  42.551  25.283   2.826
53792W        W19052  20.076  21.646  13.608
53793W        W19053   8.176  12.501  13.223
53794W        W19054  23.934  44.295   3.159
53795W        W19055  39.068  44.770  14.339
53796W        W19056   8.363   7.620   4.888
53797W        W19057   7.357   6.600  14.559
53798W        W19058  30.364   0.973   2.377
53799W        W19059  37.000  20.931  14.454
53800W        W19060   1.165   4.727  10.602
53801W        W19061   6.567  21.737   4.113
53802W        W19062  31.385  24.124   5.043
53803W        W19063  43.309  10.223   3.465
53804W        W19064  26.647   3.467  11.095
53805W        W19065  31.622  20.047  11.521
53806W        W19066   9.994  20.982   3.367
53807W        W19067  14.329   6.603   4.388
53808W        W19068  20.581  25.232  13.445
53809W        W19069   1.752   2.294  13.397
53810W        W19070  34.081  36.352   2.761
53811W        W19071  11.279   3.324   4.631
53812W        W19072  16.542  12.623  12.568
53813W        W19073  25.219  20.176   1.886
53814W        W19074   5.790  32.276   0.239
53815W        W19075  33.953  36.578  13.064
53816W        W19076  23.569  35.591   0.001
53817W        W19077  31.901  32.748   4.236
53818W        W19078  40.456  13.116   2.872
53819W        W19079  40.257  12.356  14.827
53820W        W19080  16.442  33.681  13.529
53821W        W19081   0.717   3.665  11.579
53822W        W19082  13.571   3.920  13.621
53823W        W19083   1.143  15.272  13.802
53824W        W19084  44.466  37.553  12.662
53825W        W19085   8.612  32.289  14.142
53826W        W19086  44.353  14.594   3.123
53827W        W19087  18.127  34.694  13.471
53828W        W19088  44.576   9.917  14.320
53829W        W19089  44.024   6.274  14.522
53830W        W19090  14.779  16.662   2.781
53831W        W19091  10.602  31.410   4.084
53832W        W19092  44.255   3.890  10.423
53833W        W19093  39.094  15.790  10.200
53834W        W19094  22.683  34.591  12.875
53835W        W19095   3.463  11.607   1.173
53836W        W19096  43.826   0.443   4.513
53837W        W19097  22.422  41.420   4.525
53838W        W19098  15.978  41.555  14.501
53839W        W19099   1.785   9.133  12.991
53840W        W19100  44.875  40.905  14.501
53841W        W19101  27.936   4.330  12.799
53842W        W19102   6.679  12.395  11.653
53843W        W19103  41.747  24.646  13.846
53844W        W19104   1.879  16.020  10.946
53845W        W19105  36.492  21.495   3.306
53846W        W19106  26.648  37.331  10.279
53847W        W19107   8.880  30.115   2.232
53848W        W19108   8.995  44.859  11.407
53849W        W19109  28.996  18.901  11.524
53850W        W19110  38.695  22.457  12.858
53851W        W19111  39.552  35.952   4.482
53852W        W19112  40.425   9.637  13.405
53853W        W19113   1.320  34.056   3.641
53854W        W19114   6.937  37.405  11.556
53855W        W19115  33.961   0.431   2.788
53856W        W19116  17.474  12.598   2.255
53857W        W19117  11.483  24.239   3.144
53858W        W19118  35.920  23.346   4.009
53859W        W19119  37.400  26.742   2.233
53860W        W19120   3.504  39.825  13.018
53861W        W19121  29.673   2.328   1.276
53862W        W19122  23.557   2.753   2.809
53863W        W19123  11.365   1.969   1.065
53864W        W19124   6.829  29.466   2.400
53865W        W19125  22.790  11.776  12.119
53866W        W19126   3.836  17.748   4.234
53867W        W19127  11.371  40.402  14.353
53868W        W19128  31.907  42.991  13.225
53869W        W19129  26.180  27.353   1.705
53870W        W19130  29.186  23.579  11.608
53871W        W19131  22.792  28.503  13.671
53872W        W19132  15.585  43.506  11.542
53873W        W19133  25.499  44.457   0.337
53874W        W19134   9.325  43.588  13.355
53875W        W19135  42.084  32.934  12.137
53876W        W19136  10.894  14.468   4.643
53877W        W19137  44.306  42.764   0.829
53878W        W19138  34.898  40.905   3.170
53879W        W19139   1.572  41.488  10.700
53880W        W19140  43.820  43.041  11.064
53881W        W19141  40.276  25.237  10.086
53882W        W19142   5.367  26.167   1.477
53883W        W19143   2.191  29.982   2.384
53884W        W19144  42.782  39.057  11.970
53885W        W19145  17.727   2.224  11.116
53886W        W19146  19.139   7.107  13.875
53887W        W19147  32.536  44.280  12.836
53888W        W19148  15.244  15.687  13.045
53889W        W19149  21.678  29.905   2.737
53890W        W19150  22.104  20.145   3.277
53891W        W19151  19.212  15.158   0.445
53892W        W19152  17.166  14.147   2.346
53893W        W19153  25.914  38.466  14.406
53894W        W19154  29.038  34.938  14.388
53895W        W19155  25.739   4.308  14.899
53896W        W19156   6.265   4.164   3.612
53897W        W19157  35.813  13.876  10.690
53898W        W19158  40.066   0.022  14.308
53899W        W19159  44.881  23.323  14.803
53900W        W19160  22.723  22.582   0.443
53901W        W19161   5.686  17.545  11.084
53902W        W19162  32.737  28.144   0.883
53903W        W19163  37.064  44.325   5.382
53904W        W19164  31.582  26.901  14.640
53905W        W19165  39.818  18.776  14.379
53906W        W19166  25.617   4.395   1.269
53907W        W19167  21.943  17.395  12.407
53908W        W19168  43.292   6.373   4.191
53909W        W19169  36.069  30.629  13.543
53910W        W19170  44.560   5.445   4.111
53911W        W19171  34.521  27.023   2.771
53912W        W19172  42.513  44.227  13.030
53913W        W19173  34.508  15.788  10.435
53914W        W19174   9.973   9.407   0.820
53915W        W19175  41.551   7.050  12.058
53916W        W19176  26.015  24.195  11.207
53917W        W19177  22.052  13.339   2.810
53918W        W19178  30.790  21.670   4.596
53919W        W19179  15.807  42.940   0.196
53920W        W19180  16.676  12.060  14.083
53921W        W19181  23.643  37.124  12.117
53922W        W19182  42.482  20.447  10.492
53923W        W19183  20.320   4.884   5.470
53924W        W19184  30.407  17.632  12.444
53925W        W19185  10.355  43.428  14.273
53926W        W19186  26.967  44.761  12.508
53927W        W19187  12.570  32.967   0.836
53928W        W19188  12.252  32.428   2.999
53929W        W19189   9.133   3.350   3.641
53930W        W19190  19.787   5.282  12.171
53931W        W19191  26.748  28.098  13.888
53932W        W19192  34.385  11.299   2.242
53933W        W19193  22.678  20.348  11.986
53934W        W19194  17.948  33.140   0.442
53935W        W19195  18.763   9.902   0.385
53936W        W19196   5.788  28.110  10.855
53937W        W19197  31.331  33.549   1.493
53938W        W19198   5.657  21.652  13.937
53939W        W19199  40.830  23.049  13.830
53940W        W19200  15.676  35.660   3.729
53941W        W19201  16.621  34.538  13.095
53942W        W19202  37.621  20.863  14.803
53943W        W19203  12.306  10.674  12.754
53944W        W19204  39.570  33.670  12.994
53945W        W19205  30.863  32.426  10.813
53946W        W19206  22.969  44.383  13.978
53947W        W19207  35.432  18.446  12.591
53948W        W19208   4.204   5.085   3.090
53949W        W19209  13.697  13.821  12.455
53950W        W19210  19.344   9.761  11.144
53951W        W19211  39.583   7.409   2.329
53952W        W19212  44.889  15.829  13.287
53953W        W19213   7.942   4.197  14.528
53954W        W19214   0.197   9.781  13.786
53955W        W19215  21.926   6.009  14.810
53956W        W19216  15.533  26.065  13.439
53957W        W19217  19.233  27.023  13.333
53958W        W19218  24.185   0.360   4.766
53959W        W19219  31.533  42.333   2.381
53960W        W19220  31.145  44.733  13.377
53961W        W19221  10.354   3.971   3.207
53962W        W19222  11.315   9.954   0.296
53963W        W19223  33.636  32.112   1.346
53964W        W19224   4.860   6.238   1.034
53965W        W19225  22.594  38.104   0.317
53966W        W19226   3.868  26.668  13.479
53967W        W19227   0.392  14.379   0.849
53968W        W19228  43.666  32.378  12.975
53969W        W19229  17.750   1.298   2.334
53970W        W19230  44.924   8.715  14.443
53971W        W19231  34.061   4.805  14.639
53972W        W19232  23.793  43.140   2.298
53973W        W19233  11.695  41.306   3.250
53974W        W19234   7.324   0.824  11.103
53975W        W19235  31.149  17.154   3.041
53976W        W19236  17.216  39.527   0.800
53977W        W19237   0.165  27.218   4.450
53978W        W19238  17.728  24.914  13.993
53979W        W19239   1.520  23.916  14.434
53980W        W19240  18.150  40.693  13.548
53981W        W19241  41.017   6.885   4.638
53982W        W19242  37.049  35.985   4.227
53983W        W19243  35.607  23.184   4.796
53984W        W19244  13.736  18.807  11.963
53985W        W19245  40.929  39.538  13.526
53986W        W19246   3.253  17.782  14.696
53987W        W19247  20.983   3.737   0.761
53988W        W19248  39.972  21.027  14.829
53989W        W19249  41.921   5.320   4.928
53990W        W19250  38.797  28.167  11.531
53991W        W19251  19.743  38.533   2.709
53992W        W19252  30.255  18.534  11.213
53993W        W19253  38.583  42.214   4.193
53994W        W19254  34.581  35.528  10.574
53995W        W19255  41.396  43.493  10.664
53996W        W19256  21.956  39.386  14.649
53997W        W19257  40.834  44.881   1.349
53998W        W19258  26.151  28.525   4.286
53999W        W19259  42.122   3.082  11.134
54000W        W19260  40.961  36.009  10.830
54001W        W19261  33.832  24.238  14.820
54002W        W19262   0.409  33.315   4.837
54003W        W19263  16.264  11.086   2.443
54004W        W19264  17.691   7.783   0.288
54005W        W19265   5.854  22.590   3.395
54006W        W19266  28.183   9.758  11.169
54007W        W19267  19.645  44.953   1.722
54008W        W19268  10.162   1.466   2.746
54009W        W19269  13.897   6.730   4.155
54010W        W19270  27.416  42.516  12.609
54011W        W19271  21.826  33.620   1.162
54012W        W19272   6.412   5.835   1.415
54013W        W19273  40.288  31.191  14.351
54014W        W19274  21.120  16.753   4.636
54015W        W19275  13.331  32.101   2.689
54016W        W19276  25.492  16.278   1.303
54017W        W19277  31.606  12.060  14.843
54018W        W19278  21.148  10.982   9.942
54019W        W19279  12.145  24.499  12.912
54020W        W19280   9.828  23.592  11.153
54021W        W19281  42.638  23.312   2.724
54022W        W19282  20.342  40.156  14.999
54023W        W19283   0.289  40.542   2.218
54024W        W19284  11.912  40.017   4.954
54025W        W19285  32.449   0.347   3.746
54026W        W19286  35.947  40.465  12.713
54027W        W19287  39.905   0.284  10.734
54028W        W19288  30.230  23.176   2.153
54029W        W19289  39.978  19.283  11.624
54030W        W19290   0.575   9.786   1.679
54031W        W19291  23.440  24.446  10.945
54032W        W19292  34.422  42.820  14.324
54033W        W19293  43.447   8.491   4.250
54034W        W19294  12.707  41.200  11.713
54035W        W19295  21.504  35.770  11.367
54036W        W19296  22.714  15.753  13.985
54037W        W19297  24.745   7.279  13.105
54038W        W19298  17.079  29.616   3.665
54039W        W19299  18.349  22.263   0.425
54040W        W19300  14.378  17.248   0.030
54041W        W19301  25.530  11.438  13.928
54042W        W19302  32.870  15.744  11.117
54043W        W19303  22.048  30.290  12.009
54044W        W19304  29.510  23.071   2.887
54045W        W19305  25.817  14.108  13.353
54046W        W19306   9.546  19.953  13.575
54047W        W19307  33.872  12.711  12.124
54048W        W19308  14.268  30.094   0.827
54049W        W19309  14.809   4.634  10.708
54050W        W19310  22.533   4.827  12.634
54051W        W19311  23.196  40.570  11.525
54052W        W19312  19.758  28.827  13.777
54053W        W19313  30.402  16.092   0.104
54054W        W19314  40.845  12.684   2.772
54055W        W19315   8.233   8.493   1.143
54056W        W19316  24.791  34.005  11.948
54057W        W19317  15.326   5.569   0.420
54058W        W19318   5.843  38.631  11.141
54059W        W19319  44.307  43.257   3.271
54060W        W19320  27.642  30.764   0.555
54061W        W19321  31.517  24.996  14.710
54062W        W19322  16.923  22.961  11.634
54063W        W19323  15.855  30.652   0.276
54064W        W19324  43.368  14.894   5.512
54065W        W19325  28.459  38.927  10.654
54066W        W19326   0.277  10.749  14.522
54067W        W19327  12.604  18.592   1.850
54068W        W19328  28.409  40.477  12.389
54069W        W19329  39.589  29.378   3.418
54070W        W19330  15.131  43.356   0.726
54071W        W19331   7.641  13.238  12.198
54072W        W19332  32.106  15.577  11.568
54073W        W19333  26.546  13.145  12.932
54074W        W19334  12.668  21.038   1.497
54075W        W19335  22.578  28.667   1.301
54076W        W19336   8.620  18.022  13.111
54077W        W19337  24.781   9.830  13.222
54078W        W19338  42.048  24.137  11.554
54079W        W19339   5.635  30.460  14.388
54080W        W19340  36.172  33.916  10.714
54081W        W19341  30.136  31.000  14.396
54082W        W19342  22.423  26.001  11.875
54083W        W19343  29.633  21.628  14.994
54084W        W19344  13.572   0.471  14.971
54085W        W19345  36.092  39.872   4.118
54086W        W19346  42.771  11.223   1.565
54087W        W19347   4.860  37.620  11.435
54088W        W19348  20.643   1.539  12.556
54089W        W19349  38.918  24.101  11.060
54090W        W19350   3.213  12.925  10.761
54091W        W19351   8.283   4.822  12.853
54092W        W19352  21.526  33.561  12.878
54093W        W19353  29.516  19.322   3.678
54094W        W19354  32.956   5.436   2.698
54095W        W19355  36.759  22.563   1.447
54096W        W19356  24.294   4.775   1.250
54097W        W19357  27.407   2.362  13.964
54098W        W19358  32.059  32.479   4.645
54099W        W19359   8.595  11.068   4.240
54100W        W19360  11.091  11.793  11.648
54101W        W19361  19.722   5.890   0.376
54102W        W19362  19.219  36.071   0.907
54103W        W19363  23.117   1.813   4.607
54104W        W19364  16.864  16.271  10.745
54105W        W19365  44.245  35.480   1.223
54106W        W19366  33.462  25.568   2.137
54107W        W19367   2.638  14.013  13.453
54108W        W19368  21.687  26.670  12.442
54109W        W19369  32.938  32.630   3.734
54110W        W19370  15.162  37.994   0.119
54111W        W19371  21.723  44.895  12.975
54112W        W19372  38.926   9.207   0.900
54113W        W19373  23.806  24.794  11.961
54114W        W19374  42.210  15.544  10.420
54115W        W19375  37.353   2.663   1.782
54116W        W19376  24.003  11.736   2.887
54117W        W19377  16.088  10.882   1.981
54118W        W19378  14.205  28.483  14.302
54119W        W19379  22.172  22.050   3.156
54120W        W19380  33.412  37.098   3.312
54121W        W19381  43.921   3.934  11.718
54122W        W19382  10.899  32.370   0.003
54123W        W19383  22.108  11.620  11.260
54124W        W19384  37.016  33.557   1.371
54125W        W19385  18.997   8.460  14.826
54126W        W19386  14.268   2.089   0.278
54127W        W19387  10.419  42.972  10.708
54128W        W19388   7.101  18.835  11.583
54129W        W19389  11.903  16.839   0.342
54130W        W19390  43.811  18.296   4.684
54131W        W19391  25.937   0.743  14.917
54132W        W19392  31.884  38.769   4.645
54133W        W19393  33.347  28.706  10.751
54134W        W19394  34.982  40.024  14.673
54135W        W19395  21.736  11.057  14.011
54136W        W19396  28.054  18.523  13.027
54137W        W19397  36.330   0.479  12.510
54138W        W19398  19.698  32.907   0.834
54139W        W19399   2.545  35.017   2.881
54140W        W19400  12.925  39.877  13.769
54141W        W19401  10.899  19.213  13.858
54142W        W19402   6.034   7.313  11.056
54143W        W19403  13.591   5.865   1.326
54144W        W19404   7.167  23.922   3.651
54145W        W19405   7.661  33.288   3.225
54146W        W19406   3.040  40.347  11.207
54147W        W19407  30.836  17.748   1.386
54148W        W19408  25.090  25.875  11.479
54149W        W19409  36.285  13.615  10.860
54150W        W19410   2.903  34.016  10.970
54151W        W19411  44.416  20.683   2.151
54152W        W19412  14.119  39.647   0.800
54153W        W19413  41.805  21.466  13.848
54154W        W19414   1.532   4.817  12.448
54155W        W19415  42.774  25.794   0.455
54156W        W19416   2.332  23.311   2.640
54157W        W19417  31.433  11.431  14.040
54158W        W19418  40.874   1.019   0.499
54159W        W19419   3.226  31.202   4.824
54160W        W19420  42.451  35.170  11.665
54161W        W19421  27.694  39.442  11.662
54162W        W19422  36.794  11.405   0.503
54163W        W19423  23.733   7.698   4.119
54164W        W19424  37.810  38.554   1.265
54165W        W19425   9.444   1.523  12.992
54166W        W19426   3.509  12.349   4.029
54167W        W19427   8.180  11.860  14.846
54168W        W19428  38.002  31.164   2.158
54169W        W19429  43.895   1.437  12.121
54170W        W19430   2.354  17.867  13.556
54171W        W19431  24.229   3.257  12.118
54172W        W19432  41.594   6.565  12.219
54173W        W19433   7.820  21.667  13.136
54174W        W19434  38.834  33.576  11.179
54175W        W19435  24.577   9.382  11.276
54176W        W19436  33.689  13.092   4.261
54177W        W19437  26.556  15.999  12.784
54178W        W19438  25.466  39.584   2.218
54179W        W19439  26.678  32.178  10.316
54180W        W19440  17.078  30.813  14.005
54181W        W19441  29.099   4.497   4.179
54182W        W19442  26.932  19.340  10.781
54183W        W19443  33.122   3.961   4.518
54184W        W19444  40.563  38.639  12.643
54185W        W19445  38.601  33.049   3.236
54186W        W19446   5.419  42.861   0.226
54187W        W19447  13.152   8.259  12.924
54188W        W19448  16.195  36.611   3.819
54189W        W19449   2.398   0.527  11.882
54190W        W19450  33.489  25.971  13.993
54191W        W19451  25.699  33.154   1.886
54192W        W19452   4.282  39.936  10.677
54193W        W19453  22.672  17.808   3.189
54194W        W19454  10.196  18.621   0.302
54195W        W19455  36.873  10.227  13.392
54196W        W19456   9.782  23.370  11.678
54197W        W19457  33.835   3.755  10.698
54198W        W19458  21.456  24.528  11.108
54199W        W19459  12.768  17.293  12.139
54200W        W19460   7.583   8.735   2.890
54201W        W19461  23.840  12.536  12.941
54202W        W19462  11.566   5.696   4.928
54203W        W19463  19.567  28.705   0.769
54204W        W19464   7.462  18.743   3.582
54205W        W19465  38.311  17.048   3.304
54206W        W19466  30.495  11.337  12.075
54207W        W19467  43.077  36.533   4.556
54208W        W19468  37.888  43.469  10.616
54209W        W19469  12.015   7.938  13.818
54210W        W19470  27.911   4.247   3.002
54211W        W19471  26.107  14.548  13.418
54212W        W19472  23.076  31.957  14.255
54213W        W19473  14.691  34.944   4.107
54214W        W19474  17.657  31.949  10.604
54215W        W19475  41.938   1.944  11.520
54216W        W19476   6.843   5.969  13.805
54217W        W19477  38.147  41.982   1.859
54218W        W19478  35.411  25.464   4.775
54219W        W19479   1.873  11.391  12.501
54220W        W19480  11.604  40.529   1.567
54221W        W19481   5.229  32.617  13.431
54222W        W19482  14.413  32.670   3.436
54223W        W19483  17.839  41.401  13.286
54224W        W19484  12.583  25.174  14.698
54225W        W19485  18.685   0.121  12.887
54226W        W19486  29.181  22.695   4.032
54227W        W19487  31.734   1.885   2.315
54228W        W19488  12.944  14.375  10.636
54229W        W19489  16.338  35.579  13.478
54230W        W19490   0.783  36.424  13.341
54231W        W19491  28.761  15.812  12.660
54232W        W19492   5.768  17.841   4.545
54233W        W19493  40.559   3.805   0.953
54234W        W19494  23.188   5.913  11.208
54235W        W19495  34.717  42.696  14.892
54236W        W19496   3.039  29.717  13.435
54237W        W19497  31.164  15.672  14.828
54238W        W19498   2.277  44.488  10.717
54239W        W19499  39.160  37.276   4.349
54240W        W19500  24.890  44.023   9.865
54241W        W19501  18.045  41.710  10.985
54242W        W19502   1.003  23.301   1.463
54243W        W19503  14.732  13.906   1.461
54244W        W19504  43.980  30.540  11.198
54245W        W19505  42.361  13.666  12.020
54246W        W19506  38.342  11.218   1.172
54247W        W19507   4.766  22.308   0.031
54248W        W19508  11.046  13.311   2.427
54249W        W19509   1.078  36.400   1.398
54250W        W19510   1.992  37.356  12.644
54251W        W19511   0.949  35.859  14.452
54252W        W19512   4.848  13.747   0.821
54253W        W19513   8.327  34.412   1.720
54254W        W19514   1.360  16.371   2.869
54255W        W19515  16.133  15.747  14.988
54256W        W19516   6.375  32.233  12.062
54257W        W19517  16.193  18.918   3.247
54258W        W19518   1.823  35.185  11.623
54259W        W19519  15.637  41.774  12.942
54260W        W19520   3.542  33.132  12.400
54261W        W19521  24.530  40.634  14.930
54262W        W19522  10.116  16.363  14.028
54263W        W19523  22.942  40.982  12.269
54264W        W19524  26.618  14.246   9.624
54265W        W19525   2.532  44.023  10.622
54266W        W19526  36.432   5.688  10.230
54267W        W19527   6.749  24.032  14.530
54268W        W19528  14.251   9.778   4.429
54269W        W19529  19.857  41.874  11.702
54270W        W19530  41.311   1.974  14.939
54271W        W19531  21.986  27.998  11.279
54272W        W19532  14.865  41.912   0.109
54273W        W19533   2.331  35.554   2.195
54274W        W19534   8.140  24.498   4.517
54275W        W19535  27.448  27.527   0.008
54276W        W19536   6.429  18.170  11.018
54277W        W19537   7.061  23.627   4.116
54278W        W19538  42.713  37.383  12.047
54279W        W19539  39.494  29.844  14.048
54280W        W19540  26.830   6.889  12.510
54281W        W19541   8.795  24.337   2.350
54282W        W19542  36.348  37.322   3.099
54283W        W19543  39.129  16.532  11.041
54284W        W19544  15.175  17.743  10.779
54285W        W19545   1.952  19.120   3.040
54286W        W19546  36.432  44.086  12.066
54287W        W19547  39.004  34.802  11.676
54288W        W19548   1.903  23.999   4.958
54289W        W19549  36.230  10.662   3.639
54290W        W19550   3.418   0.724   1.658
54291W        W19551  24.247  43.482  11.552
54292W        W19552  23.890   6.284   0.947
54293W        W19553  16.167  44.530   3.096
54294W        W19554  41.251  40.287   1.443
54295W        W19555  40.461  11.776  12.036
54296W        W19556  27.406  14.148  12.418
54297W        W19557  32.875   2.172   0.393
54298W        W19558  32.181  19.590   4.616
54299W        W19559  15.075  20.331   3.086
54300W        W19560  27.777  24.044   0.681
54301W        W19561  34.949  40.447  14.994
54302W        W19562  13.532   7.785   5.585
54303W        W19563   4.619  31.578   3.661
54304W        W19564  19.109   2.559   4.088
54305W        W19565  26.772   0.450  11.097
54306W        W19566  28.075  14.701   3.375
54307W        W19567  43.357  16.702  10.656
54308W        W19568  35.141  15.662   4.564
54309W        W19569  11.541   9.485   2.036
54310W        W19570  19.086  24.595   0.834
54311W        W19571  44.635  23.983  13.000
54312W        W19572  42.016  32.142   1.706
54313W        W19573  36.022  26.343   1.189
54314W        W19574  36.295  41.035  11.209
54315W        W19575   6.392   7.302  12.856
54316W        W19576  27.396  21.679  14.467
54317W        W19577   6.971  29.289   2.856
54318W        W19578   7.972  44.492  12.572
54319W        W19579  33.873  10.239   3.204
54320W        W19580  22.523  27.100   2.830
54321W        W19581  25.444  32.978  13.970
54322W        W19582  17.829  13.595  14.911
54323W        W19583  41.260  38.141  12.846
54324W        W19584  25.650  21.071   2.787
54325W        W19585  13.094  39.221  12.009
54326W        W19586  39.408  27.561   1.782
54327W        W19587  32.536  29.098  13.106
54328W        W19588  29.717  37.057   1.392
54329W        W19589  40.677  37.887   1.994
54330W        W19590  10.727  40.345   3.590
54331W        W19591  35.142  26.077   5.066
54332W        W19592  20.080  12.710  14.951
54333W        W19593  23.225  25.019   1.714
54334W        W19594  39.355  13.183  10.926
54335W        W19595  32.591  35.802   2.154
54336W        W19596  16.565   1.942  10.547
54337W        W19597   6.770  34.456  12.015
54338W        W19598  30.912  35.587  11.531
54339W        W19599  42.309  22.883  11.013
54340W        W19600   8.777  36.336   4.692
54341W        W19601  32.656  32.039   0.275
54342W        W19602  33.329   4.975   4.513
54343W        W19603  32.642  18.223   3.577
54344W        W19604  14.484   9.836  10.570
54345W        W19605   5.740   4.490   0.592
54346W        W19606   9.650  28.535   4.206
54347W        W19607  31.502   4.363  12.143
54348W        W19608  15.074  22.653   1.688
54349W        W19609  19.292  23.048  14.315
54350W        W19610  23.178  24.737   4.096
54351W        W19611  25.499  37.422   2.468
54352W        W19612  34.321  29.929   4.617
54353W        W19613  21.820   3.783  14.508
54354W        W19614  44.166   8.837   4.787
54355W        W19615  25.627  28.565   0.065
54356W        W19616  25.932  42.506   2.174
54357W        W19617  37.565  17.761  14.791
54358W        W19618   4.422  31.076   2.137
54359W        W19619  11.377  20.704   5.127
54360W        W19620  38.639  44.457   3.709
54361W        W19621  21.074  40.613   0.968
54362W        W19622  27.578  36.872  12.463
54363W        W19623   3.923  24.102  14.336
54364W        W19624  29.748  12.308  11.542
54365W        W19625  43.240  16.242   4.185
54366W        W19626  14.606  16.549  11.109
54367W        W19627   9.642  40.131  12.030
54368W        W19628  28.886   1.267   0.317
54369W        W19629  22.630  42.044   1.245
54370W        W19630  22.266  36.430  13.012
54371W        W19631  16.189  31.566   3.572
54372W        W19632  34.966  42.391   0.235
54373W        W19633   2.831  35.861   2.461
54374W        W19634  26.728  23.749  10.051
54375W        W19635  28.379  16.231   0.028
54376W        W19636  21.636  12.105   3.459
54377W        W19637  42.326   0.902   1.774
54378W        W19638   9.619   0.595   1.260
54379W        W19639  14.162  26.124  11.965
54380W        W19640  39.238  41.036  13.092
54381W        W19641  40.947  28.449   4.654
54382W        W19642  25.598  14.549  13.207
54383W        W19643  43.540  34.685   1.029
54384W        W19644   1.904  33.419   0.770
54385W        W19645  15.580  43.111   0.637
54386W        W19646  17.077  14.197  10.665
54387W        W19647  32.523  42.018  10.740
54388W        W19648  36.891  34.444  14.948
54389W        W19649  33.597  31.978  12.455
54390W        W19650   0.732  20.738   4.425
54391W        W19651  10.869  27.318  12.504
54392W        W19652  44.394  30.177  10.681
54393W        W19653  10.312  20.557   0.246
54394W        W19654  38.839  25.505   2.360
54395W        W19655  26.841  40.822   1.296
54396W        W19656  39.351   9.579  13.046
54397W        W19657  22.041  17.627   0.939
54398W        W19658  13.859  41.329  12.051
54399W        W19659  20.353  25.947  13.917
54400W        W19660  19.972  38.423  12.471
54401W        W19661  15.531  22.155  12.432
54402W        W19662   6.134  31.853  10.711
54403W        W19663  29.130  29.031   3.447
54404W        W19664  28.404  30.522  13.963
54405W        W19665  35.526  33.911  14.733
54406W        W19666   1.245  29.460   0.525
54407W        W19667  17.088  35.031  11.638
54408W        W19668  41.810  26.105   3.236
54409W        W19669   7.195  24.687  14.260
54410W        W19670   0.818  10.464  13.580
54411W        W19671  14.369  37.134  13.919
54412W        W19672  43.083  30.535  12.947
54413W        W19673   0.939  39.351   0.331
54414W        W19674  36.442  39.500   4.147
54415W        W19675  39.839   3.386  11.792
54416W        W19676  31.542  10.886  14.245
54417W        W19677  43.618  13.566   5.102
54418W        W19678  28.207  37.296  13.956
54419W        W19679  44.835  43.314  12.957
54420W        W19680  15.794   1.178  13.374
54421W        W19681   4.501  14.777   1.886
54422W        W19682  34.520  29.352  10.713
54423W        W19683  29.404  23.383  12.791
54424W        W19684  24.355  32.798   2.419
54425W        W19685  10.049  29.146   1.395
54426W        W19686  26.033  11.086   1.271
54427W        W19687  26.991  30.630  11.220
54428W        W19688  32.057   0.374  13.642
54429W        W19689  19.496   3.365  11.579
54430W        W19690   8.194  29.201  13.362
54431W        W19691  13.623   0.668   0.453
54432W        W19692   4.295   4.296  12.020
54433W        W19693  16.355  21.265  11.671
54434W        W19694  13.204  26.066   9.937
54435W        W19695  37.922   8.574  14.815
54436W        W19696  42.593  38.935   2.683
54437W        W19697   6.700  43.915   2.813
54438W        W19698  15.772  21.999  12.862
54439W        W19699  20.695  20.597   0.434
54440W        W19700  18.266  36.050  14.387
54441W        W19701  19.613   9.619   3.114
54442W        W19702   6.732  22.069   0.472
54443W        W19703  36.903  38.372   1.074
54444W        W19704  37.140  23.134  12.539
54445W        W19705   9.217   3.821   3.835
54446W        W19706   0.109  32.877  13.576
54447W        W19707   1.504  11.856   0.492
54448W        W19708  40.983  29.446  12.566
54449W        W19709  35.251  26.159   4.123
54450W        W19710   1.050  18.272  13.904
54451W        W19711  10.959  37.625   4.087
54452W        W19712  19.107  14.724  13.058
54453W        W19713  42.109  20.601   2.216
54454W        W19714   5.201  19.579   3.551
54455W        W19715  20.101  17.427  12.813
54456W        W19716  23.551  42.056   4.104
54457W        W19717  10.196  18.984  11.715
54458W        W19718  40.406  39.373   4.514
54459W        W19719   2.284  31.923  11.678
54460W        W19720  40.692  27.962   3.791
54461W        W19721  12.725  22.154  12.495
54462W        W19722  21.471  38.558   3.876
54463W        W19723  41.721  15.984  10.248
54464W        W19724  35.641  42.331   2.655
54465W        W19725  40.260  30.959  12.894
54466W        W19726  38.104  21.054  12.936
54467W        W19727  25.002  15.750   3.479
54468W        W19728   3.189  41.752   0.836
54469W        W19729  11.319  44.056  12.688
54470W        W19730  26.211  33.041  12.534
54471W        W19731  27.266  23.642   0.316
54472W        W19732  20.586  25.133  11.276
54473W        W19733   0.387  39.603   4.788
54474W        W19734  13.537  43.233  14.366
54475W        W19735   6.046   3.013   3.947
54476W        W19736  27.185  30.604   4.474
54477W        W19737   2.030  26.068  11.694
54478W        W19738  17.605  29.630  10.619
54479W        W19739  39.486  40.845   2.353
54480W        W19740  37.786   7.250  13.512
54481W        W19741  22.976  31.534   3.743
54482W        W19742  43.234  33.529   3.179
54483W        W19743  14.679  11.085   3.649
54484W        W19744  21.027  33.418  11.951
54485W        W19745  20.594  17.130  13.586
54486W        W19746  15.576  43.934   4.719
54487W        W19747  30.471   7.348   2.453
54488W        W19748  17.072  10.298  12.553
54489W        W19749  12.313  11.841   3.640
54490W        W19750   5.118  43.261  11.492
54491W        W19751  43.606  39.122  12.833
54492W        W19752   3.437  29.533   2.289
54493W        W19753  32.889  24.466  11.671
54494W        W19754  30.764  34.862   0.830
54495W        W19755  30.895  20.021   1.830
54496W        W19756  34.711  25.262  10.219
54497W        W19757  36.825   3.634  10.735
54498W        W19758  13.302  37.956   4.435
54499W        W19759  39.803  41.560  10.865
54500W        W19760  11.494  17.619  11.102
54501W        W19761  35.351  11.763  10.650
54502W        W19762  38.666  24.814  11.121
54503W        W19763  10.143   4.154   4.420
54504W        W19764   9.215   7.773   2.672
54505W        W19765  29.565  25.795   3.787
54506W        W19766  37.982   5.362   3.998
54507W        W19767   5.494  38.624  12.105
54508W        W19768  15.141  44.057  14.023
54509W        W19769  18.102   4.845  14.518
54510W        W19770  10.750  36.772   0.593
54511W        W19771   5.163  33.238   2.170
54512W        W19772  24.547  30.714   9.734
54513W        W19773  27.047   3.360   2.671
54514W        W19774  31.531  32.916  12.980
54515W        W19775   0.037  42.794   0.201
54516W        W19776  27.303  23.810   2.614
54517W        W19777  19.831  16.791  12.001
54518W        W19778  35.389  25.925   2.616
54519W        W19779  13.895  38.896   4.105
54520W        W19780  41.781  30.831  10.960
54521W        W19781  13.653  33.170  14.311
54522W        W19782   5.703  44.829   0.075
54523W        W19783   1.034  30.353  13.301
54524W        W19784  26.041  42.021  11.865
54525W        W19785  37.152   5.083   4.027
54526W        W19786  31.997  35.839  13.964
54527W        W19787  34.554   9.793   4.274
54528W        W19788   5.281   2.987   3.320
54529W        W19789  19.101  14.644   0.376
54530W        W19790  29.102  15.608   2.757
54531W        W19791  31.044  20.540  14.326
54532W        W19792  37.653   9.802   3.216
54533W        W19793  16.823   8.386  10.582
54534W        W19794  34.453   7.570  12.696
54535W        W19795  38.912  13.093  14.916
54536W        W19796   7.795   5.197  12.011
54537W        W19797   8.765  44.425   2.604
54538W        W19798  34.335  21.648   1.400
54539W        W19799   0.341  23.296   2.835
54540W        W19800  24.115   6.867   5.347
54541W        W19801  18.065  28.031   4.640
54542W        W19802  37.152  32.011   4.111
54543W        W19803  41.005  40.396  14.129
54544W        W19804   9.674   7.429   2.285
54545W        W19805   0.627  41.141   0.098
54546W        W19806  35.570  13.366   0.774
54547W        W19807   6.739  12.329   3.191
54548W        W19808   2.463   7.214  11.539
54549W        W19809   2.644  24.882   2.411
54550W        W19810   7.114  11.120   1.426
54551W        W19811  34.897  42.423  10.359
54552W        W19812  20.752   0.841  13.364
54553W        W19813  27.640  12.786   0.001
54554W        W19814  19.351  40.362  14.872
54555W        W19815  19.717  10.653  10.688
54556W        W19816  31.647  27.088   0.354
54557W        W19817  42.180  38.313  14.661
54558W        W19818  19.525  30.459  12.111
54559W        W19819  15.583   2.987   2.388
54560W        W19820  25.780  27.467   0.824
54561W        W19821  35.872  38.952   4.610
54562W        W19822  29.421  40.009  13.099
54563W        W19823  41.460  41.313   0.456
54564W        W19824  29.273  14.139  13.631
54565W        W19825  32.603  17.216   4.527
54566W        W19826  41.895  28.031   2.022
54567W        W19827  33.416  12.183  13.118
54568W        W19828  25.141   3.736   1.918
54569W        W19829  44.350  35.630   2.247
54570W        W19830  12.109  31.526   3.860
54571W        W19831   9.780  30.801   4.287
54572W        W19832   5.152  24.974   2.664
54573W        W19833  17.245  20.610   2.746
54574W        W19834  12.859  14.139  12.022
54575W        W19835   4.303  24.106   3.909
54576W        W19836   6.493  41.649   3.838
54577W        W19837  18.614  27.621   3.173
54578W        W19838  42.460  40.669  13.487
54579W        W19839  35.694  38.552  14.282
54580W        W19840  16.162  11.900  14.337
54581W        W19841  32.916  21.596  12.357
54582W        W19842   0.349  38.456  13.489
54583W        W19843  44.028  24.913   3.220
54584W        W19844   1.610  40.663   0.353
54585W        W19845  36.687  36.125  11.505
54586W        W19846   4.690  33.028  10.656
54587W        W19847  20.174  44.489  10.645
54588W        W19848  22.707  23.596   3.207
54589W        W19849   9.576   8.705  12.974
54590W        W19850  43.958  30.188   0.687
54591W        W19851  28.192  36.985  14.384
54592W        W19852   0.315  40.884   3.792
54593W        W19853  44.484  35.391   5.102
54594W        W19854  23.802  16.110  11.586
54595W        W19855   2.778  38.628   1.729
54596W        W19856  21.604  24.578   1.857
54597W        W19857  26.670  39.414   4.186
54598W        W19858  16.507   1.371  11.586
54599W        W19859  31.420   4.797   2.783
54600W        W19860  25.717   8.016   0.820
54601W        W19861   8.845   7.641   3.722
54602W        W19862   8.656  35.402   4.676
54603W        W19863  19.238   0.223  11.409
54604W        W19864  29.571  26.452  11.101
54605W        W19865   4.912  37.156  13.551
54606W        W19866   1.175  28.989  13.221
54607W        W19867  30.513  27.618  10.744
54608W        W19868  23.290  41.067   0.792
54609W        W19869  33.092   0.353   0.818
54610W        W19870  21.257  14.290  11.210
54611W        W19871  24.046  20.851  12.757
54612W        W19872   2.481  26.168  14.011
54613W        W19873  44.847  16.289   1.229
54614W        W19874  18.811  10.728   4.092
54615W        W19875   5.920  32.661  13.817
54616W        W19876  22.937  33.343   2.695
54617W        W19877   3.880   9.465   0.510
54618W        W19878   6.688  33.083  13.618
54619W        W19879   3.419  41.439   2.177
54620W        W19880  24.204  38.186   3.993
54621W        W19881   4.834  35.397  13.078
54622W        W19882   7.856  38.594  12.892
54623W        W19883   5.822  27.672   2.652
54624W        W19884  29.197  32.165   2.305
54625W        W19885   4.426  41.844  10.960
54626W        W19886   6.932  31.544  14.533
54627W        W19887  30.177  35.445   1.661
54628W        W19888   4.538  43.728  10.696
54629W        W19889  38.348  17.261  13.076
54630W        W19890  44.605  17.253   2.739
54631W        W19891  16.858  14.110  12.852
54632W        W19892   3.502   4.025   3.569
54633W        W19893  20.063   0.182   1.940
54634W        W19894  23.537   7.868   4.552
54635W        W19895  35.093  19.227  11.079
54636W        W19896   9.953  34.347   4.112
54637W        W19897  24.999  19.004  11.255
54638W        W19898  28.242  32.366  12.906
54639W        W19899  36.398  14.568   2.706
54640W        W19900  26.895  30.970  12.707
54641W        W19901  25.694  17.126   0.507
54642W        W19902  27.916   3.402  12.970
54643W        W19903   2.935  38.684  13.409
54644W        W19904  20.579  43.978  14.134
54645W        W19905  40.331  12.062   4.090
54646W        W19906  36.485   6.947   2.791
54647W        W19907   8.668  35.461   2.371
54648W        W19908  23.292   4.662   1.581
54649W        W19909   0.766  31.965   1.367
54650W        W19910  36.622  11.703  11.170
54651W        W19911  18.758  27.853   0.750
54652W        W19912   5.462  12.766   0.245
54653W        W19913   7.217  29.701   4.553
54654W        W19914  11.593   6.266  11.553
54655W        W19915  29.412  16.586   2.438
54656W        W19916  20.903   0.422   5.034
54657W        W19917   8.220  16.775  10.805
54658W        W19918  36.519  13.266  12.152
54659W        W19919   1.834  39.855   1.361
54660W        W19920  27.222  29.153  10.137
54661W        W19921  32.492  35.587   0.806
54662W        W19922  15.164  32.013  11.862
54663W        W19923  32.748  26.195   2.275
54664W        W19924  21.184  22.449   4.597
54665W        W19925  37.380   0.467   3.372
54666W        W19926  31.990  31.170   1.566
54667W        W19927  39.928  33.599   1.580
54668W        W19928   9.736   0.511  14.084
54669W        W19929  19.709  30.560   3.040
54670W        W19930  39.946  43.393   3.358
54671W        W19931  15.221  27.256  13.121
54672W        W19932  34.817   7.232   0.149
54673W        W19933  16.230  12.914   5.175
54674W        W19934  43.120  37.422   0.540
54675W        W19935   4.414   2.025   2.847
54676W        W19936  42.866  28.084   4.677
54677W        W19937  32.147   6.244   3.166
54678W        W19938   1.978  11.187  11.160
54679W        W19939  25.975  17.243   4.635
54680W        W19940   8.580  24.082  12.125
54681W        W19941  34.937  36.034   3.692
54682W        W19942  39.062  24.181   3.742
54683W        W19943  40.932  39.955  13.852
54684W        W19944  25.323  23.717   2.371
54685W        W19945  21.652  10.142  12.314
54686W        W19946  42.942  26.729  13.927
54687W        W19947  27.958  22.445  11.915
54688W        W19948  30.034   8.591   4.965
54689W        W19949  28.115  27.609   4.027
54690W        W19950  20.645   9.798  14.140
54691W        W19951   8.606  38.874  12.415
54692W        W19952  33.898  38.066   0.411
54693W        W19953   9.260  25.438   0.343
54694W        W19954  12.578  19.726   0.681
54695W        W19955  15.599  29.582   3.890
54696W        W19956  22.801  11.107   0.279
54697W        W19957  22.258  15.652  10.826
54698W        W19958  11.816  34.907   2.173
54699W        W19959  17.093  17.616   3.223
54700W        W19960   9.779  18.122   0.875
54701W        W19961  29.072  40.723  10.721
54702W        W19962  20.053  38.340   0.423
54703W        W19963  36.023  27.725   3.754
54704W        W19964  41.049   9.416  12.131
54705W        W19965   8.270  40.308  13.962
54706W        W19966  38.024  26.068  11.007
54707W        W19967  13.429  16.749  12.541
54708W        W19968  14.660   4.126   3.179
54709W        W19969  19.674  41.101  14.433
54710W        W19970  33.227   9.362  13.397
54711W        W19971  15.246  41.080   0.239
54712W        W19972  20.322  34.479   4.596
54713W        W19973   3.928  13.069  10.713
54714W        W19974  34.897  33.524   1.890
54715W        W19975  32.054   7.342   3.822
54716W        W19976  43.462   4.429  12.986
54717W        W19977  22.724  33.389  12.463
54718W        W19978   6.353   4.530   3.247
54719W        W19979  23.535  34.496   0.225
54720W        W19980  17.505   6.656   3.177
54721W        W19981  34.653  31.124  11.901
54722W        W19982   7.759  12.560  13.555
54723W        W19983  43.965  27.650   1.362
54724W        W19984  38.803  36.169   1.882
54725W        W19985  11.082  31.992  12.365
54726W        W19986  19.915  44.090  10.869
54727W        W19987  27.200  42.374   0.186
54728W        W19988  38.887  10.164  12.069
54729W        W19989   8.392  35.753   1.672
54730W        W19990  24.088   8.837  10.171
54731W        W19991  16.014  40.025   4.698
54732W        W19992  33.970  40.503   2.726
54733W        W19993  29.676  20.730   0.708
54734W        W19994  13.791   4.787  11.536
54735W        W19995  30.306   1.493   4.205
54736W        W19996  28.063   2.882   2.290
54737W        W19997  28.715  40.005   3.515
54738W        W19998  13.159   1.686  10.337
54739W        W19999  19.417  40.048  12.526
54740W        W20000  40.359  24.598   0.917
54741W        W20001   1.202   1.874   1.294
54742W        W20002  15.133  16.213   0.448
54743W        W20003   4.713   0.903  14.123
54744W        W20004  31.117  28.892   1.366
54745W        W20005  36.965  28.167   2.398
54746W        W20006  35.412  30.092  14.521
54747W        W20007  43.767  40.761   2.211
54748W        W20008  25.170  23.933  11.121
54749W        W20009  38.367  14.830  12.003
54750W        W20010  25.089  11.749  12.055
54751W        W20011  39.192  21.973   3.610
54752W        W20012  13.276  17.901   0.786
54753W        W20013   7.634  12.596  10.675
54754W        W20014  40.248  33.622  14.728
54755W        W20015  36.378  23.991   0.894
54756W        W20016  21.684  34.511  14.955
54757W        W20017  38.922  43.208   3.206
54758W        W20018  44.494   0.843   0.336
54759W        W20019  43.311  16.247   1.792
54760W        W20020  21.143   0.263  12.388
54761W        W20021  39.546  39.285  12.040
54762W        W20022  23.470   8.557   1.970
54763W        W20023   1.575  32.574  11.131
54764W        W20024  20.598  17.180  14.968
54765W        W20025  12.010  43.432  10.936
54766W        W20026  39.890  14.688  11.126
54767W        W20027  21.310   3.846  14.468
54768W        W20028   5.330  11.711  10.286
54769W        W20029  33.617  13.400  11.288
54770W        W20030  17.392  34.955   4.161
54771W        W20031  32.252  23.438   4.915
54772W        W20032  20.828  44.897  14.371
54773W        W20033  13.061  11.897  10.248
54774W        W20034  23.129  15.718   1.389
54775W        W20035  30.573  15.237  13.960
54776W        W20036  14.873  31.056  10.802
54777W        W20037  12.875  13.861   2.363
54778W        W20038  24.159  41.243   0.825
54779W        W20039  40.219  18.309  12.511
54780W        W20040  14.360  36.348  11.565
54781W        W20041  16.030  18.283   2.763
54782W        W20042   9.245  40.491   2.615
54783W        W20043  12.260  39.439  13.145
54784W        W20044  13.385  14.580   4.112
54785W        W20045  22.841  11.232   4.748
54786W        W20046  31.068  15.128  13.132
54787W        W20047  32.525  29.887   3.603
54788W        W20048  38.957  37.328   1.153
54789W        W20049  16.365   2.467  13.106
54790W        W20050   0.135  38.869  11.975
54791W        W20051  17.711   7.152  14.541
54792W        W20052  37.089  40.279   1.465
54793W        W20053   1.713   5.137  14.371
54794W        W20054  36.243  29.606  14.878
54795W        W20055  16.700  42.780   4.088
54796W        W20056  43.556  39.838   3.983
54797W        W20057  42.300  14.788   3.787
54798W        W20058   6.024   4.690  14.772
54799W        W20059  22.716  31.961  14.874
54800W        W20060   3.652  16.121   3.371
54801W        W20061  16.196  38.596  13.395
54802W        W20062  23.641  43.852  11.951
54803W        W20063  33.741   6.269  13.304
54804W        W20064  36.350  31.918   3.624
54805W        W20065  18.162   6.413  12.427
54806W        W20066  18.275   4.644   1.697
54807W        W20067  18.560  12.218   4.236
54808W        W20068  12.243  19.055   1.218
54809W        W20069  25.197  11.407   1.683
54810W        W20070  35.605  33.113   3.622
54811W        W20071  35.421  25.623  12.507
54812W        W20072   8.810  38.605   2.860
54813W        W20073   3.423  34.373   1.453
54814W        W20074  44.837  12.204   3.122
54815W        W20075  41.347   2.213   1.746
54816W        W20076  30.229  36.415   3.829
54817W        W20077   4.443  15.621  13.819
54818W        W20078  18.038  44.210   3.184
54819W        W20079  18.443   3.723   1.948
54820W        W20080  26.108  24.034   2.194
54821W        W20081  41.539  10.251  12.896
54822W        W20082   2.421  36.559   3.265
54823W        W20083  17.220  30.839  12.120
54824W        W20084  24.894  28.706   0.736
54825W        W20085   7.412  30.506  10.172
54826W        W20086  40.760  26.829  12.778
54827W        W20087  30.538  26.620   2.114
54828W        W20088   9.543  41.380   4.557
54829W        W20089  25.624  43.410  13.959
54830W        W20090   1.240  38.339  13.634
54831W        W20091  37.044  37.638  14.332
54832W        W20092  35.606  11.223   3.032
54833W        W20093  14.257   3.012  12.050
54834W        W20094  33.030  43.669  14.801
54835W        W20095  40.101  27.175  13.942
54836W        W20096  24.149  42.529  12.454
54837W        W20097  10.718  17.012   0.801
54838W        W20098  29.141  17.880   2.383
54839W        W20099  30.553  38.503  14.903
54840W        W20100  23.458   4.877  13.531
54841W        W20101  41.604  20.861  11.677
54842W        W20102  26.244  36.100  14.226
54843W        W20103  31.470  43.074  13.467
54844W        W20104  19.597  43.222   4.776
54845W        W20105  21.151   5.212   3.178
54846W        W20106   8.280  21.967   2.291
54847W        W20107  15.262  22.321   0.313
54848W        W20108  39.077  38.365  12.076
54849W        W20109   1.305  19.934   2.809
54850W        W20110  28.603  22.376  13.886
54851W        W20111   7.165  38.430  14.878
54852W        W20112  44.248  20.711  14.347
54853W        W20113  19.746  10.395   1.861
54854W        W20114  29.557  14.795  12.598
54855W        W20115   2.977   9.155  12.389
54856W        W20116  31.173  12.776   4.954
54857W        W20117  12.124  39.716   4.200
54858W        W20118   0.298  33.104  11.557
54859W        W20119  15.505   7.937  13.522
54860W        W20120   9.357  24.058   2.903
54861W        W20121  22.700   3.444  14.992
54862W        W20122  15.460  44.786   2.650
54863W        W20123  39.042  37.927   2.673
54864W        W20124   6.586  19.994  11.537
54865W        W20125  15.310   1.830   4.506
54866W        W20126   5.387  19.654  12.310
54867W        W20127  35.749  29.760  14.755
54868W        W20128  18.073  41.452   0.419
54869W        W20129  31.777  14.827  11.198
54870W        W20130  44.555   1.155   0.945
54871W        W20131  36.446   3.479   2.352
54872W        W20132  41.299  20.127  10.742
54873W        W20133   3.667  26.303  14.936
54874W        W20134  21.261   8.974  13.952
54875W        W20135  30.116  13.604  11.005
54876W        W20136  21.202   1.602   4.643
54877W        W20137  25.192  20.510  13.010
54878W        W20138  44.974  36.054  14.506
54879W        W20139  28.400   0.700   0.502
54880W        W20140   4.210  36.090  12.464
54881W        W20141  37.505   7.571  11.088
54882W        W20142  18.126  43.042  11.412
54883W        W20143  19.676  37.089  13.476
54884W        W20144   8.204  38.830   1.846
54885W        W20145  36.134  20.064  11.206
54886W        W20146  10.573  43.119   4.970
54887W        W20147  31.242  28.021   4.066
54888W        W20148  14.275  24.449   0.256
54889W        W20149  17.571  40.004   2.336
54890W        W20150   2.265   6.954   4.143
54891W        W20151  22.692   3.266  14.465
54892W        W20152  41.138  34.522  14.916
54893W        W20153  18.727  27.247   1.971
54894W        W20154  42.594  30.191  13.669
54895W        W20155  24.494  22.051   3.228
54896W        W20156   3.688   1.001  13.371
54897W        W20157   2.480  33.222  14.618
54898W        W20158  28.546  30.954  14.372
54899W        W20159  17.996   0.941  13.961
54900W        W20160  14.592  38.990  12.898
54901W        W20161  31.707  14.130  11.491
54902W        W20162  13.296  29.088   1.995
54903W        W20163  16.914  41.541  12.481
54904W        W20164  23.122  14.845  12.964
54905W        W20165  27.638  21.323  13.855
54906W        W20166  33.130  19.055  12.024
54907W        W20167  21.919  18.462  12.008
54908W        W20168   9.804  26.607   4.025
54909W        W20169  11.202  28.103   0.214
54910W        W20170  30.606  38.506  13.700
54911W        W20171   5.055  42.226   2.706
54912W        W20172  34.833  30.970   4.550
54913W        W20173  42.039  26.551  11.532
54914W        W20174  40.786  38.355  14.758
54915W        W20175   8.838   6.655  11.472
54916W        W20176  44.306  39.425   2.373
54917W        W20177  44.175  13.330  11.395
54918W        W20178  35.513  18.987   3.147
54919W        W20179  14.800  22.145   0.998
54920W        W20180  32.219  20.287  12.873
54921W        W20181  19.210  23.998  10.284
54922W        W20182  43.446  39.386  14.814
54923W        W20183  25.144  33.725   0.708
54924W        W20184  40.801  25.668   4.144
54925W        W20185  17.743  36.080   1.273
54926W        W20186  38.358  32.871  11.518
54927W        W20187  17.764  25.241  11.670
54928W        W20188  13.378   6.426  10.679
54929W        W20189  31.663  26.212  14.185
54930W        W20190   5.657   5.210  14.458
54931W        W20191  17.056  40.226   0.157
54932W        W20192  17.700  39.066   2.802
54933W        W20193  43.291  23.266  12.406
54934W        W20194  14.209  41.570   2.781
54935W        W20195  29.600  14.765   2.382
54936W        W20196  13.141  18.630  12.605
54937W        W20197   2.456   8.424  10.265
54938W        W20198  28.982  24.248   2.685
54939W        W20199  12.237  23.238   1.642
54940W        W20200   4.112  43.262  11.273
54941W        W20201   3.261   0.201   4.606
54942W        W20202  27.648   2.314  13.475
54943W        W20203  15.011  17.258  11.011
54944W        W20204   7.146   1.834   2.611
54945W        W20205  19.096  37.428   0.801
54946W        W20206  36.854   1.697  14.415
54947W        W20207  15.812   8.657  11.081
54948W        W20208  41.523  17.841  13.589
54949W        W20209  11.555  36.465  10.761
54950W        W20210  31.183  23.739  11.720
54951W        W20211  27.157  20.112  11.626
54952W        W20212  43.266   1.964  13.775
54953W        W20213   7.933  41.158   1.719
54954W        W20214   9.273  33.414  13.292
54955W        W20215   4.901  40.268   1.660
54956W        W20216  42.391  41.428  12.088
54957W        W20217  42.749   9.797  14.347
54958W        W20218  24.017  23.817   1.243
54959W        W20219  22.013  43.017  11.703
54960W        W20220  26.814   9.719   2.353
54961W        W20221  17.696   5.243  11.463
54962W        W20222  44.761   9.201   3.407
54963W        W20223  20.545  14.526   3.099
54964W        W20224   7.117  38.283  10.829
54965W        W20225  15.737  23.527  13.500
54966W        W20226  19.966  22.266   0.836
54967W        W20227   1.808  33.474   4.643
54968W        W20228  35.536  35.107  14.044
54969W        W20229   4.076   2.617  14.775
54970W        W20230   3.404   7.741  10.579
54971W        W20231   9.195   3.362  10.999
54972W        W20232  19.608  43.634   5.115
54973W        W20233   5.523   6.396   2.663
54974W        W20234   8.421   2.645  11.743
54975W        W20235   3.274  21.597  10.794
54976W        W20236  26.576  42.222   4.629
54977W        W20237   2.929  39.912  10.946
54978W        W20238   9.521  31.234   9.613
54979W        W20239  28.961  36.430  11.623
54980W        W20240  35.070   7.676   2.325
54981W        W20241  37.789   2.719   0.360
54982W        W20242  17.737  25.795  14.926
54983W        W20243   5.329   4.215   0.757
54984W        W20244  30.442   2.370   3.657
54985W        W20245  42.378  37.706  14.564
54986W        W20246  21.768  18.568   4.667
54987W        W20247   0.288  38.098   4.521
54988W        W20248  28.222   5.632  11.621
54989W        W20249  12.739   1.346  13.206
54990W        W20250  34.812   8.099   1.900
54991W        W20251  20.625  23.107  10.676
54992W        W20252  37.488  19.079   4.827
54993W        W20253   0.802  13.125   1.062
54994W        W20254  24.576   2.346   3.138
54995W        W20255  43.011  23.427   3.780
54996W        W20256  23.617  36.303   3.305
54997W        W20257  41.393  12.410  12.069
54998W        W20258  16.683  37.801  11.379
54999W        W20259  34.838  29.751  10.809
55000W        W20260  10.250  13.119  13.886
55001W        W20261  33.176  26.871   1.393
55002W        W20262   8.338   1.527   2.697
55003W        W20263  12.159  26.694   0.241
55004W        W20264  33.173   6.190  13.352
55005W        W20265  28.937  14.361  11.675
55006W        W20266  32.752  23.997  13.143
55007W        W20267   4.470   5.714   1.129
55008W        W20268   8.813  29.942  13.300
55009W        W20269   4.318   9.233  12.938
55010W        W20270  12.372   2.112   2.263
55011W        W20271   6.373  16.306  11.583
55012W        W20272  40.967  14.736   4.111
55013W        W20273  16.323   0.001  11.493
55014W        W20274   6.451  35.749   2.752
55015W        W20275  35.160  18.203   1.376
55016W        W20276  34.667  35.071   2.960
55017W        W20277  41.491  18.042  14.068
55018W        W20278  29.521   8.703  14.698
55019W        W20279   0.990  40.506   1.944
55020W        W20280  44.456  14.921  11.072
55021W        W20281  22.383  41.018   3.149
55022W        W20282  30.922  10.591   1.948
55023W        W20283   3.050  41.263  10.999
55024W        W20284  17.285  31.155  10.217
55025W        W20285  29.202  30.328   0.709
55026W        W20286  42.871  35.825   1.185
55027W        W20287  11.308  24.608   2.310
55028W        W20288  13.344   0.340   5.044
55029W        W20289   7.165  33.436   4.202
55030W        W20290  30.849  14.221   0.293
55031W        W20291  20.129   0.683  11.553
55032W        W20292   8.279  26.565  13.028
55033W        W20293  11.770  23.784  13.788
55034W        W20294   1.248  13.157  12.801
55035W        W20295   2.848  33.092  13.671
55036W        W20296  10.488  16.831   2.467
55037W        W20297  19.712  35.970   1.720
55038W        W20298  38.569   4.431  12.306
55039W        W20299  25.009  26.105  10.640
55040W        W20300  31.517   4.147   2.291
55041W        W20301  27.647  19.439   3.327
55042W        W20302   4.257  13.251   1.899
55043W        W20303   2.553  42.688  11.677
55044W        W20304  17.318  44.253   1.743
55045W        W20305  26.996  30.089   1.814
55046W        W20306  10.237   5.857  13.375
55047W        W20307  30.690  26.784   4.638
55048W        W20308  11.787   9.189  13.466
55049W        W20309  16.799  13.185  13.190
55050W        W20310  39.484   2.211  11.632
55051W        W20311  12.641  31.962   4.870
55052W        W20312  18.519  24.643  13.012
55053W        W20313  39.877   0.486  11.997
55054W        W20314  31.405  41.546  13.528
55055W        W20315   0.614  35.656  11.948
55056W        W20316  22.605  24.719   2.120
55057W        W20317  18.781   5.663   2.426
55058W        W20318   5.428  18.617   2.282
55059W        W20319  22.664  21.208  13.371
55060W        W20320  35.289  24.642  10.317
55061W        W20321   8.140  25.174  11.167
55062W        W20322  11.242  44.789  10.682
55063W        W20323   6.448  13.871  11.992
55064W        W20324   5.488  10.897  12.561
55065W        W20325  28.419   8.497   0.322
55066W        W20326   4.440  24.054   4.401
55067W        W20327   6.576   4.896  10.263
55068W        W20328  41.515   8.675   3.702
55069W        W20329  38.276  42.679   4.279
55070W        W20330  31.528   6.972  12.050
55071W        W20331  17.692  15.605   3.193
55072W        W20332  35.913  18.963   4.080
55073W        W20333  21.531  24.717   0.835
55074W        W20334  26.868  36.602   0.157
55075W        W20335   5.515  25.167  12.521
55076W        W20336   5.303  14.645  12.627
55077W        W20337  11.724  11.308   1.850
55078W        W20338  22.827   8.215   0.443
55079W        W20339   7.839  18.815  14.865
55080W        W20340   3.167  11.167   3.270
55081W        W20341   2.738  21.902   4.641
55082W        W20342  38.423   2.615   1.310
55083W        W20343  21.103  14.578   4.281
55084W        W20344  30.597  13.510  14.076
55085W        W20345   2.757  14.212  14.857
55086W        W20346  42.307  14.118  12.711
55087W        W20347  15.165  11.707  14.337
55088W        W20348  27.159  10.780   2.862
55089W        W20349  32.940  38.494   3.421
55090W        W20350  34.284  13.427  12.172
55091W        W20351   3.469  39.350  13.917
55092W        W20352  14.651   8.678   0.409
55093W        W20353  36.139  32.390  13.869
55094W        W20354  21.396   0.988  14.094
55095W        W20355  43.403  18.644  12.063
55096W        W20356  43.053  40.565  13.100
55097W        W20357  36.937  21.325  14.114
55098W        W20358  26.491  44.305  11.458
55099W        W20359  25.135   9.223  12.087
55100W        W20360   2.860  23.475  14.797
55101W        W20361  16.624   4.223   1.920
55102W        W20362  20.346   2.735   2.235
55103W        W20363  37.514   7.051  10.292
55104W        W20364   5.793  33.534  11.536
55105W        W20365   7.778   9.299  12.663
55106W        W20366   0.830  25.912   1.341
55107W        W20367  36.071  13.654   2.698
55108W        W20368   7.682  23.645   3.044
55109W        W20369   0.051   4.319   4.069
55110W        W20370  26.770  36.836  10.170
55111W        W20371  30.037  28.938  10.370
55112W        W20372  36.153  33.121  11.147
55113W        W20373   5.742  19.539   4.982
55114W        W20374  12.207  25.214   2.375
55115W        W20375   3.333  18.018  11.157
55116W        W20376  23.698  43.366   3.892
55117W        W20377  29.805   6.473   0.709
55118W        W20378  37.761  25.563   0.667
55119W        W20379   3.228  36.373  10.738
55120W        W20380  26.994   7.289  12.232
55121W        W20381  16.807  12.168   1.280
55122W        W20382  17.530  29.232  14.978
55123W        W20383  27.567  34.863   2.087
55124W        W20384   1.415  28.151   4.193
55125W        W20385   2.547  18.375   4.577
55126W        W20386  11.150  18.745  11.531
55127W        W20387  37.714  23.088  10.685
55128W        W20388  38.978  21.539  10.117
55129W        W20389  41.959  33.672  14.399
55130W        W20390  17.738   9.582   0.282
55131W        W20391  10.928   0.883  11.148
55132W        W20392  24.745  35.244  10.390
55133W        W20393  16.069  16.593   3.375
55134W        W20394  32.928  36.307   1.329
55135W        W20395  38.082  40.567   3.838
55136W        W20396  28.140  18.948  14.833
55137W        W20397  41.332   6.273  11.912
55138W        W20398  33.000  26.245  12.909
55139W        W20399  12.398  10.620   0.772
55140W        W20400  33.652  38.820  13.901
55141W        W20401   5.636  36.897   0.890
55142W        W20402  25.799   6.503   3.445
55143W        W20403  29.675  14.863   0.935
55144W        W20404  36.643   7.270   3.169
55145W        W20405  12.458  20.778   2.386
55146W        W20406  27.549  17.846  12.956
55147W        W20407   5.471  14.288   1.341
55148W        W20408  11.188  34.531  11.860
55149W        W20409  23.800  16.945   0.044
55150W        W20410  25.791  29.492  12.868
55151W        W20411  30.657  23.568  13.999
55152W        W20412   1.684  28.327  13.757
55153W        W20413  41.440  33.077   3.656
55154W        W20414   0.447  40.068   4.430
55155W        W20415   5.594  24.681   3.367
55156W        W20416  12.109  19.446  11.102
55157W        W20417  29.422  36.942   3.334
55158W        W20418   5.270  44.983  13.081
55159W        W20419   7.260   5.315  10.550
55160W        W20420   4.904  40.462   1.178
55161W        W20421  20.222  42.879   1.910
55162W        W20422  24.438  35.923  13.972
55163W        W20423  24.039  25.046   3.196
55164W        W20424   2.141  27.191   5.533
55165W        W20425  26.184  23.511   2.004
55166W        W20426  38.417  41.526   1.711
55167W        W20427  44.286   9.221  10.131
55168W        W20428  15.302  10.324  12.146
55169W        W20429  19.375  28.991   0.376
55170W        W20430   3.778  11.320   0.431
55171W        W20431   5.250   2.882  12.917
55172W        W20432  21.414  38.832  13.784
55173W        W20433  11.189  37.575  13.878
55174W        W20434  11.755  44.986  14.237
55175W        W20435  30.680   6.313   3.905
55176W        W20436   9.953  31.277  11.143
55177W        W20437  18.863  20.070   0.161
55178W        W20438  32.445   8.273  13.913
55179W        W20439  20.572  15.853  12.798
55180W        W20440  31.153  38.571   0.478
55181W        W20441  39.901  30.550   4.209
55182W        W20442   1.301  17.164  13.803
55183W        W20443  14.447   7.615  13.641
55184W        W20444  38.144  43.819   1.840
55185W        W20445  24.859  28.402  11.297
55186W        W20446  26.417   8.902   4.057
55187W        W20447  17.816   6.611   3.588
55188W        W20448   8.791  23.211  14.474
55189W        W20449  26.058  19.352   0.006
55190W        W20450   7.416  44.976   2.327
55191W        W20451  14.750  11.271   0.466
55192W        W20452   3.174  32.649   3.779
55193W        W20453  43.778   9.381  12.203
55194W        W20454  14.199  27.511   0.428
55195W        W20455  35.460  25.982   4.674
55196W        W20456   8.136   5.176   3.361
55197W        W20457   8.151  38.933  13.971
55198W        W20458  37.799  24.035  11.661
55199W        W20459   5.676  43.486   0.821
55200W        W20460  41.171  24.200   4.687
55201W        W20461  13.380   7.658   0.763
55202W        W20462  41.561  27.895   2.423
55203W        W20463  14.606   8.936  14.951
55204W        W20464  33.615   1.055   9.500
55205W        W20465  33.491  14.230   1.825
55206W        W20466  11.422  34.525  12.325
55207W        W20467  14.099  44.125  12.936
55208W        W20468  29.399  29.138   1.829
55209W        W20469  14.275  10.796  13.004
55210W        W20470   4.501  22.529  14.430
55211W        W20471  23.758   6.799   0.912
55212W        W20472   2.118  19.866  14.865
55213W        W20473  37.501  33.341  14.969
55214W        W20474  38.777  37.563  14.005
55215W        W20475  34.109  40.419  13.864
55216W        W20476  15.546  14.838   2.874
55217W        W20477  24.169  35.978  11.758
55218W        W20478  14.075   3.473  11.912
55219W        W20479  35.418  16.842   1.044
55220W        W20480  13.873  34.228   3.770
55221W        W20481  30.846  41.116   2.714
55222W        W20482  10.172  30.871  14.597
55223W        W20483  40.476   1.326   0.645
55224W        W20484  37.888  24.903  14.104
55225W        W20485  35.108  37.394  12.414
55226W        W20486  13.612  25.661   3.762
55227W        W20487   3.625   1.110  14.833
55228W        W20488  23.920   7.955  12.092
55229W        W20489   0.318   8.841   2.870
55230W        W20490  33.052  36.104  10.823
55231W        W20491  42.755  37.768   0.357
55232W        W20492  40.504  29.204   1.297
55233W        W20493  41.099   4.605   0.274
55234W        W20494  13.336   8.748  11.034
55235W        W20495  13.135  33.795   5.115
55236W        W20496  19.895   6.221  13.077
55237W        W20497  36.499  12.230  14.927
55238W        W20498  30.414  15.228   4.716
55239W        W20499  44.163  27.562   0.871
55240W        W20500  11.657  30.968   2.579
55241W        W20501  34.102  14.638  10.860
55242W        W20502  15.424  34.354   2.346
55243W        W20503  30.229  39.779  12.617
55244W        W20504  37.087  31.648   2.341
55245W        W20505  36.468  23.665   3.191
55246W        W20506  10.793  26.438   2.103
55247W        W20507   2.818   8.821   4.653
55248W        W20508   7.410  43.045  13.067
55249W        W20509   7.442   6.141   0.743
55250W        W20510  25.948  26.941   2.901
55251W        W20511  23.155  42.025  14.912
55252W        W20512  40.364  17.332  14.013
55253W        W20513   6.881  40.040  12.381
55254W        W20514  31.914  40.253   0.242
55255W        W20515  41.382   2.927  11.492
55256W        W20516  20.486  22.230  13.132
55257W        W20517  29.738  44.822  12.107
55258W        W20518  20.835  14.127  12.963
55259W        W20519  14.757  41.001  12.493
55260W        W20520   2.921  23.114  10.680
55261W        W20521  27.564  17.088   0.821
55262W        W20522   9.377  36.692   0.007
55263W        W20523   0.384  22.592  13.403
55264W        W20524   8.548   7.510  12.815
55265W        W20525   4.389  16.586  12.393
55266W        W20526  38.940  10.200  14.905
55267W        W20527  41.461  41.444  14.884
55268W        W20528  24.469  18.798   3.548
55269W        W20529  27.216  39.981   2.158
55270W        W20530  31.259  25.174   2.177
55271W        W20531  24.005  31.073  10.688
55272W        W20532  17.318  20.035  12.532
55273W        W20533   4.443  26.264   0.296
55274W        W20534  25.099   6.498   2.874
55275W        W20535  38.853  21.034  10.154
55276W        W20536  44.471  23.110  10.555
55277W        W20537  14.119  14.362  14.536
55278W        W20538   3.626  33.456   3.114
55279W        W20539   8.553  32.538  10.739
55280W        W20540  41.133   7.236  10.647
55281W        W20541  42.983  38.382  14.157
55282W        W20542  33.920  23.184   1.934
55283W        W20543  33.987  38.553  14.210
55284W        W20544   6.167  34.084  11.634
55285W        W20545  30.505  27.189  11.016
55286W        W20546  21.971  35.681  14.564
55287W        W20547  10.757  38.556  10.655
55288W        W20548  44.720  23.571   4.185
55289W        W20549  33.383  35.620   3.164
55290W        W20550  25.086   8.350  13.077
55291W        W20551  36.876  28.613   2.131
55292W        W20552  14.054  42.729   4.125
55293W        W20553  33.642  28.611   0.824
55294W        W20554  21.145  34.901   1.133
55295W        W20555  44.585  17.172   4.145
55296W        W20556   5.659   7.694   3.232
55297W        W20557   8.894  43.566   2.488
55298W        W20558  21.027  31.453   5.081
55299W        W20559   3.790  14.817   0.858
55300W        W20560  32.135  41.164   4.534
55301W        W20561  34.396  35.810   1.488
55302W        W20562  13.516  31.930  12.873
55303W        W20563  12.270  25.966  11.505
55304W        W20564  16.026  21.739   1.850
55305W        W20565  28.342  31.782  13.919
55306W        W20566  29.251  17.393   4.195
55307W        W20567  42.135   2.755  11.956
55308W        W20568  23.238  10.648  12.392
55309W        W20569  36.559  17.843   0.350
55310W        W20570   6.741  36.716  13.842
55311W        W20571   5.322  34.617   4.384
55312W        W20572  20.279   3.062   4.299
55313W        W20573  23.423  36.800   3.331
55314W        W20574   7.757  23.592  11.551
55315W        W20575  34.362  32.980   1.321
55316W        W20576  41.359  25.595   0.897
55317W        W20577   8.679  25.063  13.897
55318W        W20578  21.653  38.624  12.827
55319W        W20579  40.967  20.061  11.120
55320W        W20580  19.184  17.802  14.431
55321W        W20581  42.519   5.268  14.372
55322W        W20582  41.906  43.416   4.568
55323W        W20583   3.070  36.827   0.707
55324W        W20584  19.787  39.785  12.235
55325W        W20585  11.131   9.080  14.919
55326W        W20586  31.968   7.225  12.145
55327W        W20587  34.110   5.791  13.630
55328W        W20588  10.609   4.900  13.341
55329W        W20589   0.453   3.837   2.889
55330W        W20590  26.047  10.772  14.543
55331W        W20591  10.765  16.676   3.321
55332W        W20592  41.562  13.801  14.138
55333W        W20593  36.482  26.688   2.275
55334W        W20594   7.219  35.852  13.089
55335W        W20595  22.239   0.777  11.524
55336W        W20596  31.563  31.504  12.180
55337W        W20597  14.218  22.119  14.784
55338W        W20598  40.458  36.841   2.676
55339W        W20599  31.339  26.043  14.949
55340W        W20600  16.750   2.325  10.842
55341W        W20601   2.554  14.152   1.196
55342W        W20602   4.056  23.798   1.453
55343W        W20603  17.350   4.717  14.002
55344W        W20604   3.409  42.947   4.310
55345W        W20605   7.190  13.402   4.533
55346W        W20606   6.019  25.150  14.606
55347W        W20607  40.575   4.603  11.285
55348W        W20608   0.879  34.863   3.711
55349W        W20609  17.262  34.012  11.908
55350W        W20610  18.761  11.808  11.147
55351W        W20611  40.562  11.240  14.423
55352W        W20612  24.081   0.720   4.429
55353W        W20613   0.535  15.086   1.356
55354W        W20614  29.555  22.166   4.629
55355W        W20615   6.859  42.745   1.931
55356W        W20616   9.159  30.225  11.089
55357W        W20617  23.957  10.245  12.568
55358W        W20618  21.315  12.687  14.388
55359W        W20619  10.823  10.799  11.229
55360W        W20620  23.262  21.085  12.709
55361W        W20621  32.907  26.428   1.311
55362W        W20622  39.356   3.176  14.721
55363W        W20623  14.417  32.059  10.753
55364W        W20624  14.607   7.456  10.304
55365W        W20625   0.270  42.233   3.417
55366W        W20626  20.328   4.781  14.609
55367W        W20627  40.855  44.759   1.851
55368W        W20628  16.205  41.403   2.598
55369W        W20629  30.107  25.295   2.801
55370W        W20630  21.757   6.977  13.379
55371W        W20631   0.806  27.520  14.396
55372W        W20632   5.754   6.217   0.377
55373W        W20633  11.191   3.373   1.503
55374W        W20634  12.337  26.307   4.650
55375W        W20635  16.338   1.453   1.432
55376W        W20636   3.636   5.116  11.152
55377W        W20637  19.987  14.156  10.537
55378W        W20638  26.509  21.007   3.259
55379W        W20639   2.790  31.521   2.721
55380W        W20640  39.850  10.816  14.527
55381W        W20641  37.512  24.913   0.513
55382W        W20642  27.611  43.639  10.515
55383W        W20643  15.630  39.856   3.886
55384W        W20644   5.267  42.035  11.916
55385W        W20645   1.261  17.983  14.308
55386W        W20646  36.471  42.914   3.174
55387W        W20647  34.035  41.629  14.859
55388W        W20648  25.312  26.939   2.258
55389W        W20649  42.909  22.507   0.882
55390W        W20650  28.496   5.799  14.947
55391W        W20651  38.147   9.034  14.325
55392W        W20652   8.715  32.998  10.934
55393W        W20653   8.758  34.726   5.161
55394W        W20654   9.670  19.478  12.842
55395W        W20655  21.787  22.817   1.863
55396W        W20656  20.627  37.463  14.302
55397W        W20657  17.532  13.605   0.459
55398W        W20658  17.914   2.543   3.480
55399W        W20659  11.809   1.050   0.372
55400W        W20660  32.590  35.862   1.588
55401W        W20661  24.399   3.243   0.859
55402W        W20662   9.286  18.650   3.913
55403W        W20663  39.928  38.964  14.505
55404W        W20664  21.296  27.447  11.143
55405W        W20665  44.196  16.619  12.179
55406W        W20666   7.923  16.469   3.302
55407W        W20667  40.536  12.364  11.161
55408W        W20668  21.732  41.429  11.187
55409W        W20669   8.756  42.367   4.351
55410W        W20670  16.547  33.723   3.287
55411W        W20671  14.332  18.477   1.408
55412W        W20672   6.858   3.796   4.320
55413W        W20673  24.022  31.919  14.105
55414W        W20674  15.891  33.327  11.613
55415W        W20675  43.074  19.369  13.203
55416W        W20676  17.308  39.304  10.045
55417W        W20677   4.488  15.679   2.434
55418W        W20678  20.258  13.726   4.164
55419W        W20679  20.034  23.621  12.907
55420W        W20680  28.539  30.681   1.830
55421W        W20681  19.541   5.385   0.370
55422W        W20682   6.812  37.760   4.639
55423W        W20683  34.488  26.469  13.343
55424W        W20684  32.037  27.619   4.978
55425W        W20685  14.271  14.109  13.104
55426W        W20686  23.537  40.884   3.935
55427W        W20687  17.972  28.989  13.227
55428W        W20688  17.793  12.782  11.155
55429W        W20689  16.843  25.004   0.458
55430W        W20690   7.275  15.738   4.573
55431W        W20691  31.123  29.494  12.379
55432W        W20692  37.605  11.545   4.211
55433W        W20693  17.275  29.946  13.897
55434W        W20694  33.910  21.603   4.477
55435W        W20695  27.229  20.197  13.117
55436W        W20696  28.697   3.730  10.589
55437W        W20697  39.382  23.893   0.460
55438W        W20698   7.124  35.931  14.842
55439W        W20699  30.320  36.332   4.947
55440W        W20700  40.819  33.572   3.234
55441W        W20701  24.013   7.789   3.655
55442W        W20702   6.060  41.421   0.270
55443W        W20703  39.806  29.961   4.044
55444W        W20704  35.868  41.450   1.120
55445W        W20705  14.573  30.862  11.196
55446W        W20706  13.866   6.733  11.574
55447W        W20707  33.969  14.691  13.668
55448W        W20708  39.518   1.627  10.708
55449W        W20709  25.852  20.513  12.206
55450W        W20710  36.449  32.229  13.028
55451W        W20711  41.410   7.597  12.585
55452W        W20712  43.536  39.953  13.003
55453W        W20713   9.281  44.941  13.313
55454W        W20714  39.188  41.015   4.584
55455W        W20715  37.143  29.278   4.186
55456W        W20716  21.407  17.672   2.952
55457W        W20717   8.942  19.560  12.352
55458W        W20718  30.154   6.339   2.642
55459W        W20719  13.252  42.592  13.929
55460W        W20720  13.735  12.218   2.138
55461W        W20721   0.124  20.321  11.170
55462W        W20722  23.154  28.790   3.816
55463W        W20723   1.526  12.938   4.972
55464W        W20724  19.527   1.902  11.275
55465W        W20725   9.384  28.999   4.107
55466W        W20726  43.465   3.128   5.481
55467W        W20727   8.088  18.678  11.741
55468W        W20728  38.798  31.679   0.495
55469W        W20729  44.253  29.776  13.311
55470W        W20730  40.503  19.256  12.524
55471W        W20731  11.244   8.996   1.250
55472W        W20732  14.290  15.636  12.964
55473W        W20733   0.845  29.507   2.238
55474W        W20734  14.076  15.038   3.674
55475W        W20735  26.468  22.402  11.489
55476W        W20736  43.948  13.691  11.699
55477W        W20737  10.026  37.004   4.507
55478W        W20738  24.740  16.518   0.068
55479W        W20739  25.670  20.258   3.151
55480W        W20740  37.390  18.716   4.089
55481W        W20741  38.345  31.070   4.772
55482W        W20742  11.188   3.848   4.502
55483W        W20743  10.812  43.940   0.849
55484W        W20744  21.586  40.536   0.317
55485W        W20745  40.359  17.502   4.056
55486W        W20746   0.914  44.522  14.279
55487W        W20747  44.981   7.213   1.780
55488W        W20748  41.201   2.920   0.745
55489W        W20749  38.834   7.981   2.718
55490W        W20750  35.996  22.824  10.411
55491W        W20751  13.489  40.555  12.618
55492W        W20752  14.550  35.035  12.611
55493W        W20753  11.736  35.504   1.339
55494W        W20754  40.580  29.320  10.912
55495W        W20755  25.559  40.293   0.887
55496W        W20756   2.628  38.850   2.172
55497W        W20757  12.120  25.729   2.417
55498W        W20758  29.406  12.628   9.958
55499W        W20759  43.502  30.932   0.301
55500W        W20760  33.157  35.873  11.995
55501W        W20761  37.805  18.608  11.213
55502W        W20762  19.195  31.190   4.511
55503W        W20763  39.972   3.976   1.800
55504W        W20764   9.245  31.634  13.965
55505W        W20765   7.934  41.982   2.049
55506W        W20766  14.796   8.413  14.922
55507W        W20767  27.455  35.121   3.164
55508W        W20768  24.129  10.219   4.581
55509W        W20769  20.521  32.157   2.210
55510W        W20770  27.233   1.663   3.865
55511W        W20771  10.078  38.264  12.472
55512W        W20772  20.832  26.166   4.783
55513W        W20773  24.271  28.202  12.559
55514W        W20774  44.548  30.181  14.334
55515W        W20775  39.454  19.066  11.726
55516W        W20776  24.038  28.579   0.304
55517W        W20777   2.640  43.200   4.198
55518W        W20778  43.749  30.356   1.962
55519W        W20779   9.601  13.717   4.187
55520W        W20780  36.424  29.558  10.766
55521W        W20781  15.286  40.852   1.208
55522W        W20782  39.492  25.489  11.850
55523W        W20783  28.677  11.407  11.593
55524W        W20784  26.750  20.568   0.446
55525W        W20785  35.981  25.958  14.709
55526W        W20786  33.283  32.803   0.288
55527W        W20787  19.315  20.723   3.221
55528W        W20788  35.858  10.314  13.364
55529W        W20789  26.977  32.860   1.490
55530W        W20790  22.641   0.749   4.995
55531W        W20791   8.973  18.182   1.234
55532W        W20792  27.874   9.746  14.358
55533W        W20793  38.521  32.499  12.835
55534W        W20794  21.329  20.486   4.596
55535W        W20795  40.663   3.817   3.618
55536W        W20796  24.485  24.760   2.615
55537W        W20797  18.142  29.553   0.628
55538W        W20798  25.554  19.068   0.510
55539W        W20799  24.990  22.671   3.651
55540W        W20800  24.936  41.348   1.293
55541W        W20801  38.533  30.645   0.802
55542W        W20802  37.306  38.475   1.412
55543W        W20803  32.603  34.191  10.607
55544W        W20804  23.849  14.570  12.965
55545W        W20805  38.139  34.921  13.046
55546W        W20806  20.062  23.171  10.994
55547W        W20807  19.164  14.625   4.107
55548W        W20808  11.825  43.273  12.466
55549W        W20809  36.040  43.327   2.146
55550W        W20810  31.115  17.506  14.016
55551W        W20811  35.938  43.405   3.511
55552W        W20812  20.344  38.100  12.675
55553W        W20813  44.044  27.563  13.698
55554W        W20814  40.451   2.738  11.881
55555W        W20815  33.386   0.925   0.365
55556W        W20816   3.503  36.346   1.224
55557W        W20817  40.627  16.718   1.889
55558W        W20818  13.862  35.833  13.540
55559W        W20819  32.448  28.516   0.330
55560W        W20820  27.490  30.859   1.830
55561W        W20821  21.296  31.884   3.773
55562W        W20822  24.848  25.607   4.135
55563W        W20823  36.170  31.048  11.002
55564W        W20824  42.910  32.061   0.886
55565W        W20825  25.593  24.330  10.527
55566W        W20826  14.602  32.472  14.073
55567W        W20827  29.566  36.990   4.838
55568W        W20828  40.507  44.975   2.182
55569W        W20829  12.151  21.307   3.174
55570W        W20830   7.801  28.178   0.655
55571W        W20831  34.714  26.923   1.760
55572W        W20832  32.902  34.939   2.865
55573W        W20833   0.145   8.220  14.883
55574W        W20834  43.062  21.517   1.264
55575W        W20835  12.002   1.302   2.773
55576W        W20836  31.866   5.146   1.030
55577W        W20837  40.266   6.323  14.983
55578W        W20838  25.658   1.498   1.189
55579W        W20839  40.633   9.889   0.775
55580W        W20840  17.759   6.651   4.798
55581W        W20841  31.110  40.421   1.644
55582W        W20842  30.596  35.321  13.503
55583W        W20843  38.165   3.349  12.154
55584W        W20844  44.693   4.729  10.845
55585W        W20845  23.115   1.911   0.323
55586W        W20846  31.054  40.337  14.785
55587W        W20847  23.057   9.385   4.373
55588W        W20848   2.804  42.399   2.096
55589W        W20849  42.884  36.560   1.861
55590W        W20850  29.053   4.757   4.616
55591W        W20851  23.984   5.865   1.513
55592W        W20852   4.702  30.010  13.422
55593W        W20853  34.710   0.339   4.336
55594W        W20854  33.542   5.236  10.106
55595W        W20855   2.245  15.630  14.429
55596W        W20856  21.864  33.440  10.285
55597W        W20857  44.348   0.990  11.077
55598W        W20858  30.682  44.535  12.360
55599W        W20859  34.840  35.180   1.316
55600W        W20860   6.355  25.981  12.900
55601W        W20861  42.422  10.503   1.965
55602W        W20862  20.442  43.368   5.044
55603W        W20863   4.999   3.347   4.604
55604W        W20864   7.770  11.554  14.789
55605W        W20865  16.194   7.914  10.852
55606W        W20866  29.940   7.512  12.339
55607W        W20867  40.411  40.561  10.094
55608W        W20868   2.327  41.068  11.113
55609W        W20869  39.052   7.354   1.013
55610W        W20870  37.603  26.618  13.668
55611W        W20871  36.235  11.816   3.546
55612W        W20872  20.725  39.791  14.969
55613W        W20873   1.558   1.057  14.387
55614W        W20874   5.265  20.683  14.662
55615W        W20875   2.250  26.269  11.246
55616W        W20876   4.681  24.672  13.607
55617W        W20877   2.974  32.343  11.206
55618W        W20878  34.616  18.475   3.207
55619W        W20879  15.049  37.523  14.952
55620W        W20880  35.437  14.578  11.069
55621W        W20881  34.998  24.981  11.048
55622W        W20882  41.124  42.636  14.974
55623W        W20883  33.100  44.587   2.311
55624W        W20884   1.666  40.858   4.071
55625W        W20885  39.907   7.692  13.552
55626W        W20886  17.542  21.942   1.778
55627W        W20887  35.105  31.256  14.441
55628W        W20888  19.071  13.356   1.119
55629W        W20889  30.817  30.505   1.721
55630W        W20890  43.750  12.781   0.367
55631W        W20891  32.436  14.635  13.383
55632W        W20892  41.119  39.990  13.307
55633W        W20893  44.951   2.452   4.484
55634W        W20894  36.383  27.188   2.364
55635W        W20895  31.401   9.635   3.704
55636W        W20896   3.718  21.116   0.036
55637W        W20897  23.260  20.149  14.717
55638W        W20898  16.709   7.184  10.795
55639W        W20899  19.174  36.988   4.882
55640W        W20900  42.342  33.091   3.849
55641W        W20901  43.643  13.533   3.204
55642W        W20902   7.784   7.666  10.658
55643W        W20903  13.085  31.502   3.510
55644W        W20904  40.908  38.379   0.260
55645W        W20905  31.869  41.437   0.479
55646W        W20906  29.532  26.018  14.299
55647W        W20907  33.628  23.688  13.757
55648W        W20908   2.875   1.795   1.329
55649W        W20909  34.578  25.505   4.943
55650W        W20910  23.730  35.812   2.201
55651W        W20911   5.487   2.900  14.399
55652W        W20912  11.582   4.866   4.577
55653W        W20913  21.786   0.761  10.612
55654W        W20914   7.307  14.524   1.829
55655W        W20915  42.412  24.213  12.921
55656W        W20916  25.640  37.335   1.024
55657W        W20917  24.519  22.843   2.779
55658W        W20918  19.202  44.799   1.502
55659W        W20919  15.839  41.385  11.882
55660W        W20920   1.368  32.535   2.200
55661W        W20921  38.999  37.776   0.269
55662W        W20922  27.950  30.874   3.987
55663W        W20923  29.918  42.243  12.094
55664W        W20924   6.376  29.945   4.566
55665W        W20925  27.867   9.444  11.555
55666W        W20926  26.034  29.089   1.436
55667W        W20927  33.965  15.221  13.573
55668W        W20928   4.578  26.484  11.986
55669W        W20929   7.922  24.568  13.456
55670W        W20930  43.734  41.104  14.472
55671W        W20931  41.307  14.533  10.687
55672W        W20932   6.844  36.028  11.603
55673W        W20933  25.045  29.588   2.253
55674W        W20934   6.825  35.277   3.613
55675W        W20935  44.284  32.450   4.625
55676W        W20936  15.574   7.978   1.554
55677W        W20937  13.574  26.655   3.195
55678W        W20938   0.261  26.653  14.457
55679W        W20939  11.690  11.109  11.932
55680W        W20940  43.968  17.690   3.261
55681W        W20941   1.297  24.014   4.099
55682W        W20942   8.722  15.530   3.684
55683W        W20943  12.177  43.828  11.911
55684W        W20944   4.777  32.848  13.619
55685W        W20945  17.046  31.660   3.150
55686W        W20946   2.733  38.968   3.561
55687W        W20947  37.834  10.320   1.711
55688W        W20948   4.182  13.780   2.848
55689W        W20949  16.097  10.734  11.027
55690W        W20950   6.735  43.286   2.325
55691W        W20951   3.022  29.517  11.891
55692W        W20952  16.662  41.744  14.352
55693W        W20953   3.249   9.644   2.336
55694W        W20954  39.413  32.435   4.189
55695W        W20955  44.943   2.317   0.532
55696W        W20956  23.068  34.659   1.907
55697W        W20957  11.595  18.733  14.707
55698W        W20958  16.010  31.987   0.413
55699W        W20959  23.291  29.931   3.074
55700W        W20960  22.480  36.326  12.245
55701W        W20961  30.515  43.355   3.311
55702W        W20962   6.876  30.070  14.047
55703W        W20963   9.212  29.193   0.921
55704W        W20964  21.201  21.328  13.827
55705W        W20965  34.004   0.224   3.791
55706W        W20966  25.461   4.286   2.276
55707W        W20967  17.127  25.523  14.366
55708W        W20968  19.942   9.246   2.250
55709W        W20969  30.738  10.986  12.639
55710W        W20970   1.929   5.869   4.583
55711W        W20971  14.382   5.504   1.486
55712W        W20972  40.219  30.599  13.857
55713W        W20973  13.536  38.843   3.143
55714W        W20974  35.812  40.242   4.798
55715W        W20975  29.699  34.459   0.340
55716W        W20976  22.239  41.713   1.436
55717W        W20977  30.056  36.044  11.941
55718W        W20978   6.250  17.566  10.736
55719W        W20979  35.464  40.059  14.363
55720W        W20980  18.411   7.362  13.175
55721W        W20981  38.465  15.235   4.371
55722W        W20982  35.613  33.549   1.486
55723W        W20983  21.757  18.867  12.982
55724W        W20984   3.957  33.689  13.719
55725W        W20985   1.006  20.877  14.013
55726W        W20986   9.942  36.253  14.846
55727W        W20987  29.402   2.988  10.648
55728W        W20988  26.162  39.086   2.904
55729W        W20989  31.654  18.683   1.801
55730W        W20990  44.099  29.398  11.618
55731W        W20991  16.824   5.396  12.113
55732W        W20992   4.783  15.995  14.841
55733W        W20993  30.791  30.047   1.477
55734W        W20994  13.520  25.782   1.194
55735W        W20995  24.205   3.363  14.796
55736W        W20996  38.488   9.383  14.683
55737W        W20997  34.102  24.621   3.569
55738W        W20998  41.813  29.155  12.576
55739W        W20999  41.795  16.185   4.175
55740W        W21000  19.194  13.736   3.151
55741W        W21001  37.719   4.300   3.714
55742W        W21002  17.311  24.068   0.521
55743W        W21003  43.872   8.313  13.107
55744W        W21004   6.583  34.888   1.334
55745W        W21005  41.218  36.010   0.346
55746W        W21006  43.194  35.085   0.287
55747W        W21007   2.682  37.348   0.066
55748W        W21008  28.235  39.276   0.954
55749W        W21009  21.974   8.513  12.014
55750W        W21010  15.104  42.643  11.669
55751W        W21011  15.365  23.594   4.098
55752W        W21012  35.237  21.007   3.417
55753W        W21013  29.474   1.254   4.662
55754W        W21014  18.268  15.755  10.732
55755W        W21015  19.767  23.097   4.498
55756W        W21016  12.635  27.265  13.127
55757W        W21017  29.566  43.473   2.310
55758W        W21018  39.711  29.311   2.898
55759W        W21019  29.656  35.116   4.588
55760W        W21020  23.777  15.767  10.373
55761W        W21021  31.655  40.009   1.246
55762W        W21022   0.019  42.590  10.821
55763W        W21023  36.667   7.428   3.679
55764W        W21024  39.023   4.268  12.523
55765W        W21025  22.284   6.362  14.917
55766W        W21026  17.611  35.701   2.844
55767W        W21027   5.231   0.810   2.112
55768W        W21028   1.302  23.588  13.378
55769W        W21029  44.493   6.920  13.255
55770W        W21030   2.232   6.675   4.589
55771W        W21031  10.822  41.696   2.701
55772W        W21032  26.851  41.321   1.331
55773W        W21033   7.251   9.830   2.667
55774W        W21034   6.105  40.442  12.078
55775W        W21035  38.492  10.849   3.187
55776W        W21036  43.773  13.687   4.630
55777W        W21037   1.976  13.888  11.236
55778W        W21038  19.654   2.111   0.649
55779W        W21039  17.086  33.570   4.909
55780W        W21040  37.113  16.223  13.808
55781W        W21041  43.819  36.302   4.079
55782W        W21042  44.853  17.813   0.970
55783W        W21043  32.566  41.088   1.901
55784W        W21044  32.848   4.660   2.368
55785W        W21045  33.750  29.678  10.156
55786W        W21046   7.902   7.390  11.075
55787W        W21047  39.175  17.486  13.414
55788W        W21048  21.569   0.271   3.623
55789W        W21049  35.296   5.470   1.849
55790W        W21050  30.108  25.299   1.880
55791W        W21051  29.579   3.614  13.067
55792W        W21052  38.683  31.587  14.990
55793W        W21053  29.168  41.359   3.147
55794W        W21054   0.536  16.289   2.211
55795W        W21055  36.435   2.905  13.415
55796W        W21056  17.470   8.457  11.517
55797W        W21057  12.382   7.216   1.958
55798W        W21058  13.513  14.819   1.288
55799W        W21059  22.577  12.843  12.648
55800W        W21060  31.792  38.109   2.782
55801W        W21061   3.682  42.324   3.226
55802W        W21062   5.473  18.788   3.171
55803W        W21063  12.596  14.552  11.200
55804W        W21064  11.863  16.729  12.841
55805W        W21065   8.254  12.240   4.670
55806W        W21066  32.014  39.182  14.406
55807W        W21067  25.672  33.939  11.949
55808W        W21068  11.837   7.442   1.243
55809W        W21069   0.506  18.477   2.710
55810W        W21070  13.330  28.208  14.036
55811W        W21071  41.740  12.215  13.415
55812W        W21072  28.045   7.186   4.500
55813W        W21073  31.204   0.983   1.359
55814W        W21074   4.564  20.433   4.228
55815W        W21075  29.318  20.154   0.057
55816W        W21076  26.284  23.683  14.998
55817W        W21077  29.827  17.952   1.785
55818W        W21078  23.649   8.149   2.246
55819W        W21079  11.247   4.931   3.140
55820W        W21080  11.063  28.294  13.806
55821W        W21081  39.790  13.116  14.338
55822W        W21082   2.431  34.690  11.548
55823W        W21083   3.751   4.850  10.712
55824W        W21084  26.772   4.463  10.743
55825W        W21085   0.739  18.774   3.098
55826W        W21086   9.733   4.943   2.204
55827W        W21087  27.096  17.677  13.563
55828W        W21088  30.199  21.678   3.890
55829W        W21089  30.078  34.395  10.642
55830W        W21090  33.859  24.950   2.230
55831W        W21091  14.168  44.105  13.833
55832W        W21092  27.365  37.843  12.391
55833W        W21093  28.618  41.091   2.533
55834W        W21094  41.553   8.104   4.433
55835W        W21095  29.618  31.549   4.646
55836W        W21096  30.580  15.156  11.983
55837W        W21097  12.464  23.630   0.815
55838W        W21098  22.052  17.732   2.405
55839W        W21099  28.533  10.925  14.447
55840W        W21100  14.302   4.842  10.658
55841W        W21101  13.161  44.419   0.865
55842W        W21102  29.581  40.569  11.270
55843W        W21103  13.788   2.009   0.483
55844W        W21104  33.467  21.823  12.988
55845W        W21105  16.881  19.399   0.023
55846W        W21106   3.146  34.965   5.036
55847W        W21107   8.300  26.110   0.871
55848W        W21108   1.373  34.123   4.737
55849W        W21109  32.954  28.446  11.957
55850W        W21110  10.354  32.961  10.431
55851W        W21111  12.047   0.738   2.288
55852W        W21112  14.751  17.918  13.363
55853W        W21113   5.805  38.890  12.887
55854W        W21114  21.186  29.501   1.807
55855W        W21115  19.772   0.450  12.495
55856W        W21116  43.277   1.731   4.572
55857W        W21117   2.950  26.433   2.696
55858W        W21118  14.429  14.052   3.583
55859W        W21119  12.595  32.146  12.998
55860W        W21120  22.734   1.805   0.661
55861W        W21121   6.624  23.415   4.967
55862W        W21122   2.257  31.857   3.779
55863W        W21123  38.336  33.622  11.239
55864W        W21124   1.800  26.707  14.311
55865W        W21125  19.234  30.091   1.837
55866W        W21126   1.192  39.701   4.197
55867W        W21127   9.146   4.946  11.982
55868W        W21128  10.927  13.857  14.068
55869W        W21129   0.449   1.371   1.318
55870W        W21130  40.720  26.375  10.980
55871W        W21131  21.960  29.897   3.194
55872W        W21132   9.858   0.234   3.210
55873W        W21133  38.669  37.444   4.229
55874W        W21134  26.199   7.225   2.746
55875W        W21135  15.276  35.585  11.201
55876W        W21136  19.113  15.109  13.759
55877W        W21137  21.489   3.726   0.947
55878W        W21138  33.191  16.810   4.035
55879W        W21139  33.409  44.601   1.856
55880W        W21140  10.053  18.633  14.796
55881W        W21141  19.135  35.722   4.218
55882W        W21142   9.360  26.489  13.008
55883W        W21143  42.986  43.800   3.171
55884W        W21144  36.345  37.809  14.964
55885W        W21145  22.312  33.840   3.333
55886W        W21146  39.859  41.282   2.760
55887W        W21147   9.300  22.451   2.126
55888W        W21148  35.890  28.701   0.896
55889W        W21149   3.129  15.860  11.523
55890W        W21150  34.300  22.630   4.541
55891W        W21151  11.335  37.777  12.119
55892W        W21152  30.204   2.436  14.983
55893W        W21153  23.117  18.241  12.589
55894W        W21154  23.479  23.271   1.891
55895W        W21155  12.750  38.280  13.370
55896W        W21156  16.040  20.171  13.114
55897W        W21157  44.504  42.137   2.375
55898W        W21158   7.821  28.417   1.313
55899W        W21159  13.008  41.783   1.747
55900W        W21160  43.039  31.528   0.865
55901W        W21161  20.211  10.527   1.686
55902W        W21162  20.728  28.588  13.330
55903W        W21163   9.082  27.453  11.804
55904W        W21164  41.728  41.159  13.281
55905W        W21165  37.579  27.643   2.803
55906W        W21166  23.676  41.977  14.956
55907W        W21167   4.932  34.397   5.183
55908W        W21168   2.407   7.906   0.249
55909W        W21169  14.656  33.123   3.332
55910W        W21170  17.167  29.213   4.635
55911W        W21171  28.884   4.240   4.572
55912W        W21172   6.286  11.640   0.491
55913W        W21173  20.718  32.262  14.565
55914W        W21174  16.660  11.655  13.127
55915W        W21175  40.073  16.077  11.052
55916W        W21176  40.985  35.032  10.559
55917W        W21177  24.157  10.081   2.742
55918W        W21178  41.540   1.333  14.487
55919W        W21179  16.805  42.757   4.615
55920W        W21180   3.266  28.640  11.123
55921W        W21181  42.474   2.805   0.320
55922W        W21182   7.862   0.046   4.034
55923W        W21183  14.513   9.148  11.507
55924W        W21184  19.716   5.287   4.084
55925W        W21185  35.585  32.714   2.683
55926W        W21186   9.376  15.139  10.969
55927W        W21187  33.580  34.041   2.398
55928W        W21188  15.309  31.318   2.749
55929W        W21189  34.312   8.861   4.415
55930W        W21190  23.155  41.069   2.958
55931W        W21191  36.425  17.257  11.903
55932W        W21192  27.041   0.281  12.497
55933W        W21193  38.818  24.917  12.892
55934W        W21194   0.213   5.429   0.970
55935W        W21195   4.825   9.604   4.237
55936W        W21196   2.713   1.454  11.981
55937W        W21197  21.796  37.059   2.320
55938W        W21198  34.493   1.853   2.572
55939W        W21199  41.979  35.989  13.465
55940W        W21200  36.423  25.329  12.517
55941W        W21201  17.225  17.043   0.451
55942W        W21202  24.069  38.430   1.258
55943W        W21203  27.248  19.617   3.593
55944W        W21204   6.934  10.395   1.829
55945W        W21205  41.103  39.072  14.462
55946W        W21206  40.838  19.106   1.810
55947W        W21207  22.039  21.233   9.789
55948W        W21208  36.473   5.888   0.768
55949W        W21209  26.365  39.508  14.935
55950W        W21210  31.222  10.820   2.863
55951W        W21211  11.565  21.774  10.676
55952W        W21212  34.294   2.517   9.838
55953W        W21213  35.591   9.406   1.734
55954W        W21214   9.391  33.587  13.793
55955W        W21215  36.461  20.500   3.063
55956W        W21216  37.762  28.106   3.123
55957W        W21217  13.311  38.645   0.296
55958W        W21218  16.051  43.862   1.826
55959W        W21219  27.039  30.579  14.874
55960W        W21220  14.931  35.456   3.357
55961W        W21221  24.586  39.310  14.410
55962W        W21222   3.999  35.091  11.079
55963W        W21223  33.663  13.894  13.453
55964W        W21224  10.086  24.667   4.548
55965W        W21225   7.017  29.686  11.025
55966W        W21226   0.962  10.475  11.482
55967W        W21227  35.428  24.144  10.140
55968W        W21228  11.328  41.002   1.684
55969W        W21229  15.521  38.816   2.475
55970W        W21230   5.990  18.269  12.710
55971W        W21231   5.940  17.847   4.052
55972W        W21232  24.128  23.297   0.359
55973W        W21233  15.874  37.025   3.796
55974W        W21234  11.394  38.822  13.560
55975W        W21235  17.271  14.656  14.742
55976W        W21236  42.070   6.887   3.129
55977W        W21237  24.940   1.749  12.014
55978W        W21238  17.152   1.747   2.596
55979W        W21239   0.310  39.178   2.112
55980W        W21240  16.141  19.254  14.326
55981W        W21241  35.770  12.891   0.733
55982W        W21242  18.529  10.901  11.097
55983W        W21243   0.978  38.946  10.732
55984W        W21244  42.011   4.908   2.190
55985W        W21245  42.543  31.168   3.474
55986W        W21246  21.057  27.110  11.733
55987W        W21247  35.539  23.097  11.561
55988W        W21248   9.844  27.232  10.237
55989W        W21249  44.280  44.707   5.091
55990W        W21250  27.302  37.639  11.922
55991W        W21251  41.964   4.273  14.346
55992W        W21252   1.452  10.141  14.816
55993W        W21253   1.955  41.294  13.354
55994W        W21254  22.974  17.431   4.163
55995W        W21255  23.074  34.220   2.208
55996W        W21256   6.815   3.289  12.831
55997W        W21257  34.389  34.844  12.660
55998W        W21258  30.473  29.244  10.925
55999W        W21259  25.720  21.792   4.159
56000W        W21260  31.454   2.667   1.201
56001W        W21261  32.319   9.458  14.243
56002W        W21262   0.947  22.493  12.911
56003W        W21263  21.659  15.202  11.171
56004W        W21264   6.587  30.231   3.104
56005W        W21265  41.249  27.936  11.105
56006W        W21266  23.234  41.260   4.148
56007W        W21267  14.201  15.034   1.259
56008W        W21268   7.255  10.120  14.979
56009W        W21269  30.010  16.033  11.628
56010W        W21270   7.551  25.132   4.961
56011W        W21271  36.153   9.245  11.564
56012W        W21272  28.708  44.318   3.654
56013W        W21273   6.320  18.284  11.510
56014W        W21274  36.113  35.766   2.776
56015W        W21275   4.243   0.373  12.551
56016W        W21276  27.022  41.952  13.113
56017W        W21277  15.249  39.084   1.044
56018W        W21278  39.823   2.293   4.510
56019W        W21279  18.232  31.958   4.188
56020W        W21280  41.484   7.621  10.699
56021W        W21281  13.189   3.473   0.640
56022W        W21282  38.369  23.493   1.647
56023W        W21283  16.569   7.346   1.219
56024W        W21284  26.804   6.421  13.402
56025W        W21285  15.640  40.855   4.155
56026W        W21286  19.948  38.006  11.072
56027W        W21287  44.918  33.145   4.667
56028W        W21288  19.074  12.871   3.657
56029W        W21289  10.748  27.356  10.996
56030W        W21290  37.562  21.842   0.348
56031W        W21291   5.191  27.886  14.201
56032W        W21292  17.069  24.649  14.966
56033W        W21293  10.933  35.126   1.615
56034W        W21294  42.428  17.278   0.829
56035W        W21295   8.200  37.098  14.348
56036W        W21296  20.208  30.759   3.149
56037W        W21297  33.997  38.812  12.506
56038W        W21298  34.105  43.711   3.655
56039W        W21299   9.493  28.525  13.419
56040W        W21300  38.422  11.813   0.498
56041W        W21301   7.730  25.242   0.684
56042W        W21302   8.047  19.178  13.207
56043W        W21303   6.627  30.624  14.882
56044W        W21304   9.512   0.628   4.162
56045W        W21305   1.927  28.628   1.836
56046W        W21306   8.939  30.739   0.531
56047W        W21307  27.628   4.272  10.964
56048W        W21308   6.635   7.383  13.341
56049W        W21309   7.329  37.478  10.662
56050W        W21310  27.557  39.777   4.007
56051W        W21311  13.255  14.668   1.709
56052W        W21312   5.682   3.322  10.841
56053W        W21313  28.628  24.966  14.883
56054W        W21314  41.137   5.869   4.101
56055W        W21315   8.215  26.650   1.147
56056W        W21316  27.547   8.884   4.177
56057W        W21317  19.528   3.891  13.853
56058W        W21318  30.520  37.812   4.703
56059W        W21319   5.186  22.936  14.485
56060W        W21320  37.363  31.593   0.747
56061W        W21321  25.980  33.860   2.173
56062W        W21322   2.009  24.146  11.238
56063W        W21323  18.018   0.910  12.038
56064W        W21324  39.439   4.107  11.171
56065W        W21325  40.767  36.028  12.383
56066W        W21326  33.148  36.588  14.428
56067W        W21327   2.213  27.050   1.839
56068W        W21328   7.463  41.578  13.067
56069W        W21329  13.377  27.493   3.616
56070W        W21330  44.273  33.989   0.828
56071W        W21331   3.171  21.784   3.148
56072W        W21332  40.045  21.149   2.790
56073W        W21333  36.567  34.627  10.685
56074W        W21334  19.027  21.009   5.540
56075W        W21335  31.008  29.508  13.402
56076W        W21336  17.911  35.703   1.617
56077W        W21337  16.594   4.742   2.002
56078W        W21338  20.558  35.810   3.529
56079W        W21339   0.026  17.661  10.195
56080W        W21340  21.194   3.806  13.165
56081W        W21341  13.711  26.270   4.446
56082W        W21342  35.465  26.405   0.326
56083W        W21343  42.523  39.523   3.186
56084W        W21344  21.978  37.987  14.909
56085W        W21345  41.311  23.912  13.495
56086W        W21346  21.118  41.511   5.025
56087W        W21347  23.260  33.257   1.250
56088W        W21348  40.965  34.553   3.362
56089W        W21349  34.964   7.573  13.604
56090W        W21350   8.380  44.709   0.882
56091W        W21351  10.175   9.357   1.328
56092W        W21352  19.283  39.545  12.288
56093W        W21353  41.449  42.715  11.122
56094W        W21354  17.092   4.699  11.081
56095W        W21355  20.707  26.491   0.322
56096W        W21356  11.218  33.027  13.812
56097W        W21357  32.429  37.951   4.493
56098W        W21358  26.915   9.270   2.035
56099W        W21359  39.568   5.748   2.804
56100W        W21360  21.500  14.368  10.753
56101W        W21361   5.376  29.449   1.683
56102W        W21362  38.610  38.929   2.637
56103W        W21363  25.304  19.054   1.745
56104W        W21364  13.212   2.787   4.630
56105W        W21365   6.151  36.859   3.576
56106W        W21366  26.999  44.716  11.677
56107W        W21367  41.488  24.169   1.958
56108W        W21368  31.097   6.856   1.444
56109W        W21369  43.821   5.750  10.922
56110W        W21370   6.403   5.340  13.345
56111W        W21371  44.322  34.943   3.382
56112W        W21372  27.641   5.517   1.343
56113W        W21373  27.333  22.729  14.056
56114W        W21374  27.895   5.071   0.450
56115W        W21375  43.901   2.128  14.200
56116W        W21376   6.606   9.550   3.087
56117W        W21377   0.774  17.062  14.540
56118W        W21378  19.582  12.973   2.759
56119W        W21379  19.992  13.725  14.330
56120W        W21380  16.842  27.709   2.507
56121W        W21381  29.571   2.285  12.521
56122W        W21382  28.865  13.647  14.244
56123W        W21383  12.762  11.669   3.786
56124W        W21384  35.045  34.955  13.928
56125W        W21385  33.069   6.428   0.820
56126W        W21386  40.184   2.396  12.168
56127W        W21387  21.081  33.641  12.618
56128W        W21388  22.039   3.108  12.226
56129W        W21389  25.548  35.966  11.877
56130W        W21390  44.428  17.709   0.116
56131W        W21391  16.070  15.782  14.060
56132W        W21392   5.939   8.804   1.238
56133W        W21393  25.832  22.177  10.972
56134W        W21394  15.763  40.790   2.191
56135W        W21395   5.183  25.770   3.267
56136W        W21396   7.275  22.109   3.069
56137W        W21397  37.004  15.892   3.189
56138W        W21398  29.964   9.156  14.092
56139W        W21399  20.120  26.227  12.008
56140W        W21400   1.875  16.771  11.294
56141W        W21401  37.975  13.403  12.858
56142W        W21402  11.423  28.512  13.505
56143W        W21403  13.767  19.203  11.628
56144W        W21404   3.513  33.445   0.807
56145W        W21405  15.072   7.863   3.672
56146W        W21406  30.588  21.394  12.059
56147W        W21407  13.431  10.907   0.016
56148W        W21408  33.338  31.323  10.700
56149W        W21409  18.038   2.270  11.539
56150W        W21410  25.692  35.544   4.895
56151W        W21411  40.942  13.966   9.896
56152W        W21412  13.884  34.582  12.958
56153W        W21413  22.811  42.239   4.755
56154W        W21414  43.337  21.897  12.155
56155W        W21415  40.911  16.899   4.740
56156W        W21416   8.300  43.897  10.721
56157W        W21417  33.302  28.672   4.991
56158W        W21418  28.930  42.753   1.986
56159W        W21419  12.759   0.602   3.419
56160W        W21420   5.420   1.630   1.348
56161W        W21421  32.564  27.912   3.571
56162W        W21422  38.403   2.113   1.404
56163W        W21423  42.087  28.377   2.894
56164W        W21424  26.538  13.018   0.474
56165W        W21425  17.942  41.473  10.524
56166W        W21426  33.580  38.854   2.287
56167W        W21427  35.333   6.077  10.565
56168W        W21428  38.961   0.975  11.067
56169W        W21429  43.559  11.987  12.946
56170W        W21430  23.640  19.453  14.492
56171W        W21431  30.911  27.517  11.063
56172W        W21432   0.071  44.143  14.418
56173W        W21433  13.852  34.081  13.131
56174W        W21434   3.982   6.095  14.610
56175W        W21435  13.020  42.971  10.329
56176W        W21436  24.982  22.690  10.689
56177W        W21437  20.245   9.567  13.898
56178W        W21438   5.058  38.950   4.098
56179W        W21439  21.132  17.635  12.099
56180W        W21440  28.888   2.398  13.125
56181W        W21441  15.206  39.143  14.277
56182W        W21442  30.474  23.588   4.127
56183W        W21443   4.236  23.986  13.039
56184W        W21444  29.934  43.240  13.530
56185W        W21445  36.752  22.644   2.447
56186W        W21446  24.712  16.163  11.583
56187W        W21447  22.464  31.366   4.748
56188W        W21448  20.142  24.574   2.930
56189W        W21449   8.972   6.605   3.710
56190W        W21450  14.499  20.824   2.479
56191W        W21451   7.288  29.515  13.867
56192W        W21452  35.829  17.618   3.975
56193W        W21453  38.811  25.969   4.900
56194W        W21454  25.910  10.882  12.645
56195W        W21455  29.663  20.091   9.922
56196W        W21456   3.672   1.233  11.133
56197W        W21457  42.524  38.582  11.506
56198W        W21458  20.939   9.719  14.561
56199W        W21459  28.593   6.667  13.857
56200W        W21460   1.488  18.093   1.854
56201W        W21461  29.052  27.517  11.593
56202W        W21462  40.941   2.289  13.385
56203W        W21463  35.445  31.716   1.806
56204W        W21464  37.583  12.973  14.611
56205W        W21465  38.560  21.776   4.347
56206W        W21466  41.247  10.314   0.246
56207W        W21467  41.052  41.786  14.481
56208W        W21468  30.081  38.215   3.880
56209W        W21469  40.370  42.992   1.042
56210W        W21470  29.456  16.112   2.132
56211W        W21471   0.454  43.071   0.101
56212W        W21472   8.682   2.749   0.353
56213W        W21473  29.391  44.346  13.844
56214W        W21474   0.367   1.843   2.277
56215W        W21475   0.681  44.788  11.341
56216W        W21476  20.299  17.672  10.577
56217W        W21477   0.443  28.930   0.913
56218W        W21478  11.169  30.343   4.047
56219W        W21479  39.961  21.463   2.292
56220W        W21480  10.262  18.892   0.730
56221W        W21481  39.390  26.374   2.417
56222W        W21482  30.077  22.181   3.118
56223W        W21483   9.760  34.043  13.744
56224W        W21484   1.935  11.647   4.730
56225W        W21485  15.721  17.467   1.900
56226W        W21486  30.548  15.039   1.900
56227W        W21487  18.828  23.895   5.314
56228W        W21488   5.692   5.417  13.996
56229W        W21489   1.319   4.752   3.730
56230W        W21490  26.221  30.334   2.433
56231W        W21491  29.062  26.884  13.532
56232W        W21492   3.734  30.104   3.397
56233W        W21493  18.408   9.270  12.297
56234W        W21494  25.719  14.713   0.868
56235W        W21495  22.490  14.790  11.750
56236W        W21496  18.252  33.330   3.597
56237W        W21497  32.659  10.179  12.422
56238W        W21498  34.528  32.212   1.855
56239W        W21499  31.894  14.248   4.712
56240W        W21500  17.773  38.065  11.889
56241W        W21501  15.996  28.140  13.811
56242W        W21502  42.767  32.159   1.385
56243W        W21503  18.267  15.643   4.696
56244W        W21504  23.170  20.920   9.796
56245W        W21505   1.412  13.035  10.409
56246W        W21506  27.345  39.006   3.158
56247W        W21507   5.246  16.834  14.377
56248W        W21508  33.847  12.687  10.872
56249W        W21509   7.227  11.263   0.316
56250W        W21510  22.236   5.712   1.813
56251W        W21511  41.047  30.530  11.587
56252W        W21512  32.237  40.776   3.707
56253W        W21513  23.103   8.329   0.862
56254W        W21514  28.880  25.884  13.390
56255W        W21515  18.239  12.272  11.565
56256W        W21516  13.459  12.587   0.451
56257W        W21517   7.111  23.701  10.810
56258W        W21518  13.758  14.708   4.802
56259W        W21519  17.339  14.540   0.670
56260W        W21520   1.457   9.760   1.211
56261W        W21521  37.638  17.811   2.657
56262W        W21522  32.855  35.313  11.350
56263W        W21523  33.212  28.089  11.701
56264W        W21524  43.005   7.021  14.079
56265W        W21525  37.858   8.509   4.108
56266W        W21526  35.422  16.239   2.432
56267W        W21527  33.334  15.291  11.690
56268W        W21528  23.776  15.099   1.723
56269W        W21529  27.969  39.547  11.087
56270W        W21530  26.805  28.533   3.794
56271W        W21531  36.162  11.923   0.811
56272W        W21532  42.458  39.759  14.924
56273W        W21533   5.762  35.807  13.488
56274W        W21534  11.768  34.636   1.706
56275W        W21535   8.575  30.352  13.093
56276W        W21536  39.853  34.143   3.578
56277W        W21537   9.296  44.220  11.509
56278W        W21538  13.605  20.635   4.043
56279W        W21539  36.983  31.495  10.986
56280W        W21540   0.732  40.652  12.549
56281W        W21541  30.703  38.318  11.138
56282W        W21542  39.476   3.836   0.364
56283W        W21543   3.500   8.935   4.020
56284W        W21544  40.687  25.245  12.893
56285W        W21545  12.873  27.109  13.564
56286W        W21546  33.237  39.889  13.842
56287W        W21547  20.665  34.925  12.471
56288W        W21548  42.092   1.842   0.116
56289W        W21549  28.012  38.444   0.092
56290W        W21550  17.984  33.189  14.026
56291W        W21551  32.499  12.227   5.097
56292W        W21552  31.931  44.707   4.440
56293W        W21553  13.784  16.357   4.180
56294W        W21554  20.174  21.637   1.398
56295W        W21555  44.692   0.453  13.590
56296W        W21556   2.902  42.735  12.113
56297W        W21557  20.921  42.395   2.350
56298W        W21558   6.662   0.456   4.276
56299W        W21559  32.075  20.811  11.547
56300W        W21560  39.327  18.616  12.633
56301W        W21561  41.978  19.266  14.029
56302W        W21562  15.402  13.799   3.750
56303W        W21563  23.938   8.425  11.841
56304W        W21564  31.895  41.209  13.506
56305W        W21565   3.952  23.998  11.226
56306W        W21566  32.625  35.873   3.097
56307W        W21567  31.903  42.976  13.739
56308W        W21568   9.856  38.156   0.181
56309W        W21569  26.799   2.699  12.237
56310W        W21570  23.533  16.748  10.874
56311W        W21571  23.014  25.669   4.579
56312W        W21572  42.199   9.711   1.925
56313W        W21573  19.057  15.602  11.080
56314W        W21574  40.668   1.934   3.311
56315W        W21575  34.005  21.136  13.576
56316W        W21576  20.972  11.594  13.459
56317W        W21577  39.034   5.360  13.370
56318W        W21578  23.942  32.108   2.723
56319W        W21579  37.143   7.667  12.900
56320W        W21580  11.596  17.653  12.636
56321W        W21581   9.803  21.448  11.891
56322W        W21582  29.467   2.927  13.725
56323W        W21583  38.796  33.268  12.406
56324W        W21584  10.430  32.968  14.499
56325W        W21585  26.217   6.738  12.954
56326W        W21586   9.622  29.119  10.295
56327W        W21587  23.590  22.785   2.804
56328W        W21588  42.567  36.926  13.478
56329W        W21589  28.412  20.836   4.097
56330W        W21590   5.688  18.558  12.402
56331W        W21591  19.607  28.596  11.901
56332W        W21592  12.939  34.370  12.681
56333W        W21593   8.617  30.563   1.852
56334W        W21594   3.270   0.359   2.003
56335W        W21595  29.652  34.415  14.103
56336W        W21596   8.668  36.773  13.000
56337W        W21597  24.090  40.609  11.637
56338W        W21598   0.001  38.396   4.072
56339W        W21599  40.907  35.891   2.739
56340W        W21600  13.327  28.908  11.968
56341W        W21601  28.837  33.065   0.649
56342W        W21602  36.578  20.316  11.816
56343W        W21603  25.514  38.386   2.098
56344W        W21604  33.428  27.529   2.227
56345W        W21605  32.939  11.994  12.970
56346W        W21606  44.919  34.827  13.928
56347W        W21607   9.655  31.346  13.882
56348W        W21608  21.151  15.143  14.147
56349W        W21609   8.728   9.715  10.458
56350W        W21610   2.286   8.327  12.538
56351W        W21611  20.971  23.923   2.220
56352W        W21612  42.237  20.623   1.238
56353W        W21613  14.541   5.624  12.108
56354W        W21614   6.364   9.087  12.039
56355W        W21615  18.182  12.382   1.426
56356W        W21616   6.421  22.278   1.119
56357W        W21617  17.614  16.018   2.892
56358W        W21618  17.383   1.511  10.653
56359W        W21619  25.604   9.985  12.107
56360W        W21620  10.150  18.725   4.567
56361W        W21621   5.589  16.027  13.077
56362W        W21622   5.716   9.999   4.528
56363W        W21623  11.139  19.463  13.041
56364W        W21624  32.636  18.439   4.419
56365W        W21625  16.228  29.171  14.198
56366W        W21626  12.275  30.225  14.384
56367W        W21627  30.402  10.175  12.346
56368W        W21628  27.052  27.440  12.008
56369W        W21629  14.254   2.208  14.776
56370W        W21630   7.159  11.875   1.030
56371W        W21631  24.916  17.129  12.469
56372W        W21632  37.646  23.042  14.471
56373W        W21633   0.406  30.043  13.755
56374W        W21634  35.854  25.733  13.425
56375W        W21635  20.300  14.147  11.890
56376W        W21636  21.101  38.770   1.727
56377W        W21637  38.624  29.600   1.018
56378W        W21638  26.284  42.360   0.841
56379W        W21639  26.737  10.801  11.458
56380W        W21640  12.210  16.114   4.724
56381W        W21641  24.475   1.625  14.294
56382W        W21642   1.454  40.525   1.630
56383W        W21643  29.496  37.305  13.836
56384W        W21644   9.649  11.437   4.670
56385W        W21645  22.697  35.395   1.244
56386W        W21646  22.979  22.794   4.721
56387W        W21647   0.502  29.077  11.991
56388W        W21648  15.807  28.130   2.848
56389W        W21649  12.270  27.019  12.498
56390W        W21650  10.011   8.873   4.286
56391W        W21651  11.174  19.361   0.751
56392W        W21652  37.584   5.929   0.475
56393W        W21653  33.161  19.031   2.207
56394W        W21654  34.438   3.308  12.991
56395W        W21655  23.911  15.592   2.763
56396W        W21656  10.939   8.800  13.160
56397W        W21657  43.176   2.022  14.999
56398W        W21658  42.440  43.748  10.962
56399W        W21659  10.124   6.902   1.814
56400W        W21660   4.311  43.064  12.432
56401W        W21661  36.488   0.539   2.909
56402W        W21662  42.877  33.618  13.099
56403W        W21663   3.160  30.434   0.422
56404W        W21664  33.469  37.537   2.651
56405W        W21665  34.487  21.273  12.965
56406W        W21666  10.674  23.179  12.607
56407W        W21667   6.707  21.358  12.206
56408W        W21668  42.280  31.638   2.171
56409W        W21669  14.279  44.360  12.510
56410W        W21670   8.647  33.586   0.006
56411W        W21671   7.195  44.765   1.849
56412W        W21672   5.477  20.650   1.398
56413W        W21673  38.342  39.403   4.491
56414W        W21674  10.716  36.173  13.055
56415W        W21675   6.201   6.088   4.267
56416W        W21676  27.756  23.229  12.204
56417W        W21677  35.482  10.624  14.502
56418W        W21678  43.999  30.057   1.169
56419W        W21679  44.453  12.385  11.240
56420W        W21680  20.230  44.348   3.659
56421W        W21681  41.358  36.491  12.978
56422W        W21682  33.584  14.820  13.305
56423W        W21683  34.809  31.931  13.883
56424W        W21684  25.448   1.119   2.828
56425W        W21685  40.587  25.869   2.964
56426W        W21686  24.966  41.555  12.944
56427W        W21687  38.095  20.221   0.877
56428W        W21688  21.344  20.122   2.877
56429W        W21689  41.371  31.510   2.238
56430W        W21690  43.317  26.185  12.458
56431W        W21691   1.246  44.827   2.094
56432W        W21692   9.925  23.526  13.962
56433W        W21693  37.882  42.865  13.384
56434W        W21694  12.778   1.885   0.467
56435W        W21695  18.147  22.604   4.947
56436W        W21696  17.509  27.712  13.875
56437W        W21697  36.480   3.523   0.502
56438W        W21698   0.866  15.878   2.212
56439W        W21699  26.113  27.932  14.899
56440W        W21700  28.997  39.013   3.123
56441W        W21701  42.376   9.118   4.170
56442W        W21702   7.764   2.362   4.562
56443W        W21703  23.247   9.759  14.704
56444W        W21704  34.468   2.537  12.057
56445W        W21705   0.053  26.388  14.899
56446W        W21706  26.061  14.551  12.071
56447W        W21707  13.476  17.714   3.281
56448W        W21708  34.018   1.954  14.963
56449W        W21709  42.865  39.494   1.356
56450W        W21710  28.361  21.568   2.617
56451W        W21711  29.795  26.324   1.218
56452W        W21712  33.938  10.184   2.132
56453W        W21713  15.014  10.685  13.460
56454W        W21714  21.462   7.403   2.221
56455W        W21715  34.540  24.582   0.840
56456W        W21716  37.853  44.751   4.858
56457W        W21717   1.939   1.813  11.639
56458W        W21718  35.060  41.806   4.556
56459W        W21719   6.905   4.925   3.113
56460W        W21720  26.929  44.030   3.839
56461W        W21721  29.806  12.671   4.613
56462W        W21722  35.881  10.198   2.229
56463W        W21723  13.411   4.484   2.994
56464W        W21724  42.752  17.108  13.782
56465W        W21725  42.953  42.251  13.164
56466W        W21726   7.402  29.335   3.132
56467W        W21727  23.921  40.297  12.010
56468W        W21728  39.303  36.956  14.675
56469W        W21729  35.462  27.923   0.485
56470W        W21730  32.435   2.273   1.615
56471W        W21731  11.323  19.137  14.495
56472W        W21732  30.317  20.763  12.726
56473W        W21733  37.112   8.159  14.944
56474W        W21734  24.952   6.993  13.499
56475W        W21735  31.183  24.067   3.607
56476W        W21736   7.313   8.143  11.983
56477W        W21737   1.693   0.418  10.518
56478W        W21738  41.626  40.080   1.773
56479W        W21739   3.906  16.086   3.824
56480W        W21740  13.796  30.640   0.242
56481W        W21741   0.854  15.216  14.462
56482W        W21742  37.402  32.865  14.811
56483W        W21743  19.265   4.922  13.051
56484W        W21744  26.982  34.857  12.014
56485W        W21745  32.325  12.116  12.487
56486W        W21746  21.507  20.711  12.379
56487W        W21747  41.417  33.046   4.171
56488W        W21748  12.341  17.177   1.896
56489W        W21749  40.863  21.025   3.093
56490W        W21750   4.339  17.139  14.344
56491W        W21751  19.164   8.257   2.493
56492W        W21752  21.440  18.322   5.510
56493W        W21753   9.771   8.501  13.800
56494W        W21754   1.896   0.527   1.229
56495W        W21755   2.951  32.825   2.850
56496W        W21756   4.962  42.549   2.278
56497W        W21757  40.347   8.287  14.948
56498W        W21758  27.313  33.081   1.166
56499W        W21759   0.196  29.906  13.153
56500W        W21760  20.102  10.713   2.647
56501W        W21761  26.741  29.639  12.911
56502W        W21762  11.703  10.235  14.260
56503W        W21763  41.475  28.783  12.393
56504W        W21764  30.367  38.537   3.568
56505W        W21765   6.947   7.719   1.350
56506W        W21766  14.107  41.290   4.893
56507W        W21767  40.599  22.442  14.343
56508W        W21768  28.881  20.030   0.365
56509W        W21769  42.821  38.661  11.085
56510W        W21770   7.818   9.587   2.402
56511W        W21771  24.216  26.545  14.926
56512W        W21772  22.396  29.181  13.028
56513W        W21773  13.110  36.209  14.129
56514W        W21774  39.018  37.082   2.935
56515W        W21775  21.056  20.294  10.219
56516W        W21776  11.294  39.533   4.473
56517W        W21777  12.116   7.481  10.541
56518W        W21778  11.143  42.482  13.393
56519W        W21779  38.954   3.942  12.116
56520W        W21780  18.577  28.489   1.855
56521W        W21781  39.880  40.570  11.702
56522W        W21782  15.001  27.266   0.942
56523W        W21783  41.910  36.424  13.758
56524W        W21784  22.602  14.139  12.235
56525W        W21785  42.976   6.872  13.004
56526W        W21786  35.835   6.182  11.243
56527W        W21787  10.166  15.318   4.606
56528W        W21788  39.643  18.374  13.445
56529W        W21789   3.019  25.583   2.898
56530W        W21790  30.384  17.724  14.322
56531W        W21791   9.506  24.242  11.923
56532W        W21792  29.458  21.306  14.468
56533W        W21793  14.006   2.519   2.697
56534W        W21794   9.788   4.009  13.042
56535W        W21795   5.806  22.552   2.856
56536W        W21796   0.829  17.122   0.863
56537W        W21797  19.378  36.681   2.142
56538W        W21798  37.612  16.334   1.826
56539W        W21799  17.148  11.494  13.079
56540W        W21800  31.844  18.312  13.740
56541W        W21801  33.624   9.303   2.613
56542W        W21802   7.369  34.281  11.171
56543W        W21803  37.532  23.977   4.029
56544W        W21804   8.094  21.787  12.239
56545W        W21805  11.638  24.321   0.208
56546W        W21806  16.028  42.900  14.286
56547W        W21807  31.497  11.232   0.858
56548W        W21808  13.721  19.849   2.298
56549W        W21809  20.561  23.974   4.777
56550W        W21810  34.205   6.722  12.989
56551W        W21811  30.127  32.750   4.964
56552W        W21812  28.526  11.464  14.540
56553W        W21813  14.155  12.731   3.285
56554W        W21814   4.674  13.593   2.849
56555W        W21815   2.793  31.023  11.979
56556W        W21816  31.170   2.170  11.955
56557W        W21817  29.732  29.401  13.101
56558W        W21818  11.400   5.385   0.813
56559W        W21819  26.461  22.275  14.887
56560W        W21820  18.012  41.774  12.903
56561W        W21821   7.357  14.202   4.250
56562W        W21822   2.482   1.745   3.702
56563W        W21823   9.176  40.378   4.557
56564W        W21824   3.187  36.442  14.006
56565W        W21825   7.291   4.405  11.436
56566W        W21826  34.615  14.888  10.501
56567W        W21827   7.809  34.880  14.144
56568W        W21828  31.043   0.031   2.192
56569W        W21829  10.759  30.804  11.450
56570W        W21830  37.523   2.739  14.896
56571W        W21831  44.360  29.248  10.159
56572W        W21832  43.687  34.794   2.380
56573W        W21833  29.963  43.387  10.723
56574W        W21834  25.929  30.997   1.713
56575W        W21835  27.106  37.954  12.808
56576W        W21836  41.162  14.174  10.338
56577W        W21837  15.817  33.870  14.846
56578W        W21838  17.136   3.371   4.769
56579W        W21839  14.266   8.948  11.110
56580W        W21840   2.226  22.046  13.174
56581W        W21841  29.616  19.434  12.531
56582W        W21842  10.426  39.890  14.787
56583W        W21843  43.948   7.414   3.789
56584W        W21844  11.584  19.317   3.769
56585W        W21845   5.839   8.723  11.223
56586W        W21846   2.289   4.658   3.424
56587W        W21847   5.325   7.759  10.516
56588W        W21848  36.026  14.083  14.415
56589W        W21849  36.650   6.884   1.714
56590W        W21850   7.974  12.256   1.846
56591W        W21851   7.002  41.516   0.646
56592W        W21852   0.283  42.235   0.762
56593W        W21853  32.279  24.584  13.416
56594W        W21854  41.343  35.939   3.605
56595W        W21855  41.889  33.362  13.937
56596W        W21856  32.525  29.400   1.264
56597W        W21857  22.571  29.692   3.284
56598W        W21858  12.747  32.717   2.232
56599W        W21859  41.162  40.637  14.577
56600W        W21860  28.582  38.553  13.608
56601W        W21861  16.624  29.468  14.425
56602W        W21862   1.938  32.149  12.858
56603W        W21863   1.431  15.681   0.926
56604W        W21864   7.660  32.590   2.793
56605W        W21865  34.244   8.070  11.948
56606W        W21866  25.101  10.582   1.198
56607W        W21867  36.027  31.883   0.242
56608W        W21868  26.254  28.000  13.976
56609W        W21869   5.160  10.776   3.753
56610W        W21870  24.837   5.961   4.711
56611W        W21871  37.081  37.372   1.182
56612W        W21872  32.851  23.826   2.995
56613W        W21873  12.128  14.044  14.207
56614W        W21874  26.581  12.169  12.839
56615W        W21875  10.476   3.485   4.986
56616W        W21876  22.246   8.624  14.002
56617W        W21877  38.237  23.649   3.567
56618W        W21878  26.849  36.158  12.617
56619W        W21879  36.571   8.327  11.380
56620W        W21880   1.170  18.657  11.730
56621W        W21881  42.274   6.310   3.665
56622W        W21882   3.310  29.086  14.744
56623W        W21883   1.292  27.987  12.392
56624W        W21884  36.071  29.218  13.670
56625W        W21885  42.532  34.536   3.709
56626W        W21886  13.185  40.890   2.665
56627W        W21887  19.254   1.456  12.137
56628W        W21888   9.334  12.834   2.890
56629W        W21889  13.562   2.888  13.488
56630W        W21890  16.009  25.127  12.926
56631W        W21891  19.160  26.647  11.177
56632W        W21892  10.289   1.969   1.898
56633W        W21893  31.860  12.711  11.637
56634W        W21894  17.181  40.443   1.045
56635W        W21895  38.708  17.583  11.146
56636W        W21896  24.365  23.596  12.539
56637W        W21897  14.375  32.930   0.247
56638W        W21898   7.396  36.971   4.015
56639W        W21899  35.425  19.866   1.307
56640W        W21900  42.669  22.018   3.153
56641W        W21901  20.539  42.923  12.602
56642W        W21902  29.484  44.586  14.324
56643W        W21903   0.463  17.863   4.566
56644W        W21904   2.484  43.780  13.871
56645W        W21905  24.100  12.083   4.299
56646W        W21906  28.793   7.748  13.250
56647W        W21907  25.730  26.522  13.360
56648W        W21908  35.184  35.879  10.550
56649W        W21909  24.744  41.777   1.480
56650W        W21910   2.859  27.077   4.529
56651W        W21911  21.038  31.343  11.158
56652W        W21912  16.534  35.403  13.951
56653W        W21913   7.425  15.293   3.104
56654W        W21914  27.617  23.470  12.649
56655W        W21915   4.338  14.453   1.512
56656W        W21916  23.074  34.333   0.066
56657W        W21917  13.676  37.952   0.669
56658W        W21918   8.123  26.421  12.159
56659W        W21919  15.608  32.622   1.954
56660W        W21920  10.882  10.273   0.238
56661W        W21921  13.938  27.595  14.117
56662W        W21922   0.874   1.515   1.603
56663W        W21923  32.318   8.351  11.649
56664W        W21924  33.445   7.358   1.703
56665W        W21925  36.011  44.345   3.713
56666W        W21926  22.250  17.482  14.976
56667W        W21927  17.027  27.006  12.871
56668W        W21928  15.074  27.912  13.849
56669W        W21929  15.761  29.120  14.519
56670W        W21930   1.686  13.188  11.413
56671W        W21931  17.068  38.003   0.270
56672W        W21932   2.150  32.417   4.652
56673W        W21933   0.160  24.599  10.578
56674W        W21934  30.074  36.589  13.506
56675W        W21935  41.975  39.944   2.127
56676W        W21936  22.260  25.860  11.179
56677W        W21937   6.415  20.583  14.564
56678W        W21938  32.574  44.206  10.961
56679W        W21939  43.518   0.682   3.775
56680W        W21940  31.072   8.195   0.934
56681W        W21941  37.787  28.034  12.458
56682W        W21942  26.516  16.014  14.472
56683W        W21943  26.066  37.115   1.289
56684W        W21944  28.684  34.504   0.329
56685W        W21945   1.751   0.256   1.816
56686W        W21946  43.540  38.549   3.835
56687W        W21947  11.628  37.979   0.408
56688W        W21948  37.567  36.078   2.225
56689W        W21949   9.615   9.251  14.786
56690W        W21950  31.198   0.596  10.286
56691W        W21951  15.410  16.772   0.724
56692W        W21952  22.241  16.021   4.228
56693W        W21953  27.487  14.641  13.105
56694W        W21954   6.663  32.043   1.147
56695W        W21955  24.000   0.401  13.494
56696W        W21956  22.865  44.256   3.352
56697W        W21957  16.107  34.453  13.098
56698W        W21958  43.970   5.928   0.922
56699W        W21959  36.342  28.727   0.660
56700W        W21960  32.513  39.410  13.349
56701W        W21961   4.411   5.029   1.859
56702W        W21962  29.871  21.298   3.746
56703W        W21963  23.581  12.232   0.831
56704W        W21964  27.926  19.514   0.737
56705W        W21965  10.563   5.477   4.055
56706W        W21966   2.926  14.899  13.526
56707W        W21967  24.159  33.579  12.640
56708W        W21968  14.295  39.516  12.573
56709W        W21969  27.477   6.585   3.710
56710W        W21970  41.871  29.799   1.205
56711W        W21971  16.410   3.257  11.954
56712W        W21972  11.965   7.496   0.348
56713W        W21973  32.151  21.064   1.668
56714W        W21974   6.117  17.211   3.390
56715W        W21975  12.562  16.697  14.895
56716W        W21976  32.406  33.938   2.172
56717W        W21977  34.041  16.634   0.852
56718W        W21978  18.058  39.836   3.235
56719W        W21979   6.024  13.435  14.300
56720W        W21980  15.641  43.312  13.154
56721W        W21981   1.751   7.626   4.883
56722W        W21982  17.677  21.771  13.919
56723W        W21983   3.327  21.845   2.173
56724W        W21984  34.610  17.669   0.830
56725W        W21985  17.742  30.833  11.449
56726W        W21986  16.796  40.906  13.246
56727W        W21987  31.779  30.964  12.573
56728W        W21988  29.214  32.058   3.252
56729W        W21989  35.622  16.709   3.141
56730W        W21990  42.750  39.916   3.623
56731W        W21991   1.952  39.623   4.543
56732W        W21992  26.599  20.533  13.617
56733W        W21993  22.129  41.386  10.581
56734W        W21994  34.896  27.887  14.309
56735W        W21995  25.589  32.407  13.850
56736W        W21996  23.705  16.740  13.832
56737W        W21997  23.263  14.877  13.930
56738W        W21998  40.329  14.806   3.272
56739W        W21999   9.182  26.611   1.417
56740W        W22000  25.552   3.627  13.571
56741W        W22001   6.005  27.543  14.220
56742W        W22002  21.127  17.098   1.367
56743W        W22003   0.230  31.393   0.970
56744W        W22004  14.710  37.531  10.240
56745W        W22005  21.202   3.984  11.159
56746W        W22006  44.888   7.303   0.334
56747W        W22007  23.808  14.356   2.299
56748W        W22008  10.260  37.807   1.905
56749W        W22009  32.156  30.433   2.776
56750W        W22010  42.443  39.824   1.977
56751W        W22011  14.691  35.391   3.800
56752W        W22012  42.835  40.344   3.929
56753W        W22013   4.026  33.333  14.279
56754W        W22014   9.067   7.761  13.980
56755W        W22015   8.689  36.823  12.159
56756W        W22016  33.148  29.460  11.194
56757W        W22017  12.294  12.188   4.021
56758W        W22018  16.161   1.477  11.969
56759W        W22019  27.537  24.107   1.138
56760W        W22020  19.035  19.458  13.090
56761W        W22021  36.563  18.774  13.945
56762W        W22022  18.604  43.360  12.611
56763W        W22023  22.528   9.729   1.386
56764W        W22024   8.665  20.977  14.015
56765W        W22025  16.236  19.938  13.551
56766W        W22026   3.509   7.497   3.875
56767W        W22027  28.012   9.292   2.761
56768W        W22028  38.926  30.252   1.718
56769W        W22029  44.515  13.335  13.970
56770W        W22030  42.495  29.093   2.203
56771W        W22031  31.636  30.033  14.990
56772W        W22032  33.051  42.169  12.543
56773W        W22033  44.941  14.853  10.309
56774W        W22034  28.363   2.218   3.019
56775W        W22035   7.173  31.327  13.620
56776W        W22036  38.505  12.712  14.495
56777W        W22037  12.469  14.048   3.307
56778W        W22038  31.911  34.434   1.310
56779W        W22039  30.616  24.246   1.467
56780W        W22040  12.556  44.059   2.928
56781W        W22041  18.166  39.300   0.419
56782W        W22042  44.221  13.278  11.896
56783W        W22043  22.870   2.368   2.173
56784W        W22044  35.265  39.075  12.134
56785W        W22045   7.069   5.045   2.240
56786W        W22046  16.306  10.215   1.077
56787W        W22047  21.697  40.101  12.547
56788W        W22048   5.656  19.043  13.860
56789W        W22049  20.134  32.504  10.618
56790W        W22050   6.324   3.206  14.058
56791W        W22051   8.713  31.658  11.036
56792W        W22052  18.544  14.644   1.237
56793W        W22053   7.777  20.261  14.965
56794W        W22054   4.777  35.688  14.064
56795W        W22055  22.597   7.767  11.065
56796W        W22056  21.164  44.795   3.010
56797W        W22057  22.690  30.950   0.413
56798W        W22058  12.145   5.822   2.708
56799W        W22059  17.086  31.466   1.667
56800W        W22060  34.154  20.244   2.334
56801W        W22061   2.324   5.567   1.095
56802W        W22062  42.229  10.259  13.536
56803W        W22063  34.473  35.723   4.648
56804W        W22064  28.746  23.171  11.993
56805W        W22065  19.442   9.101   2.361
56806W        W22066  32.172  10.402  12.608
56807W        W22067  22.964  34.636   2.929
56808W        W22068  21.670  34.206   2.410
56809W        W22069  32.550  23.164   4.060
56810W        W22070   8.528  44.597   0.207
56811W        W22071  31.153  42.536  14.410
56812W        W22072   5.911  42.582  12.116
56813W        W22073  33.304  40.717  14.293
56814W        W22074  26.017  12.948   0.935
56815W        W22075   4.463   6.380   2.877
56816W        W22076   3.321  24.822   2.368
56817W        W22077  10.527   8.568   5.063
56818W        W22078  19.655  31.666  14.325
56819W        W22079  11.424  18.310   3.654
56820W        W22080  32.281   0.783  14.351
56821W        W22081  24.059  40.374  14.979
56822W        W22082  30.126  10.308  11.555
56823W        W22083  10.253  30.638   0.560
56824W        W22084   7.722  26.757  13.435
56825W        W22085  33.120  12.187  10.798
56826W        W22086  30.091  27.193   0.201
56827W        W22087   0.428  17.194  12.376
56828W        W22088  28.481  33.525  13.580
56829W        W22089  37.365  37.466  13.916
56830W        W22090   4.384  19.005   2.579
56831W        W22091   9.251  36.116  13.198
56832W        W22092  22.971  34.622   1.401
56833W        W22093   2.678  33.539  11.058
56834W        W22094   5.811  28.473   4.053
56835W        W22095  36.662  38.735   1.879
56836W        W22096  10.762  37.751   1.747
56837W        W22097  21.027  35.989  10.008
56838W        W22098  36.145   9.112   0.301
56839W        W22099  24.453  15.339   4.644
56840W        W22100   9.412  44.958  14.096
56841W        W22101   9.910  23.720   1.788
56842W        W22102  16.817   5.750  12.971
56843W        W22103   8.619  38.063  14.075
56844W        W22104  20.315  38.266  14.934
56845W        W22105  17.414  37.254  12.082
56846W        W22106  15.215  38.592   4.243
56847W        W22107  19.118  31.413   1.307
56848W        W22108  15.202  19.332   0.423
56849W        W22109  25.566  12.078   3.197
56850W        W22110  27.047  37.059   0.294
56851W        W22111  38.941  14.015   0.984
56852W        W22112  10.184  30.301   4.505
56853W        W22113  11.176  12.836  12.239
56854W        W22114  39.542  11.281   4.739
56855W        W22115   1.897  17.328   3.758
56856W        W22116   7.406  24.684   0.812
56857W        W22117  41.604   5.112  14.193
56858W        W22118  25.518  14.381  11.880
56859W        W22119   1.984   6.703  14.541
56860W        W22120  25.295  23.188  12.752
56861W        W22121  23.542  20.213  13.788
56862W        W22122  43.391  16.520   3.755
56863W        W22123  17.151   3.588   0.422
56864W        W22124  43.536  20.235   4.287
56865W        W22125  35.842   9.657  11.634
56866W        W22126  21.523  10.189  14.685
56867W        W22127   2.663  30.481  14.016
56868W        W22128  39.157  28.910   1.227
56869W        W22129  36.520  22.427   2.915
56870W        W22130  18.230  18.711   0.376
56871W        W22131  44.975  36.405  10.353
56872W        W22132  21.223  14.115   1.179
56873W        W22133  19.764   2.891  13.392
56874W        W22134   0.456   6.465  12.944
56875W        W22135  16.049  43.434   0.321
56876W        W22136  24.859  43.397  14.400
56877W        W22137  20.740  39.036  14.487
56878W        W22138  39.986  37.954  13.650
56879W        W22139  16.695  27.978  11.290
56880W        W22140   7.674   3.193   0.901
56881W        W22141  41.887  18.951  14.955
56882W        W22142  30.634  39.810   4.567
56883W        W22143  40.849  28.011   3.245
56884W        W22144  11.232   2.900   3.185
56885W        W22145   5.964  12.899  14.356
56886W        W22146  37.305  27.049  14.482
56887W        W22147  13.168   3.617  13.778
56888W        W22148  43.751  37.877  13.875
56889W        W22149  29.060  10.319   0.966
56890W        W22150  12.967  10.303  14.866
56891W        W22151   6.189  42.960   3.642
56892W        W22152   0.289  43.005   0.618
56893W        W22153   7.704   2.896  12.372
56894W        W22154   4.028   1.977  14.667
56895W        W22155  13.276   4.273   0.551
56896W        W22156   0.318  30.191   3.635
56897W        W22157  36.612  26.832   2.755
56898W        W22158   7.087  43.110   1.290
56899W        W22159  42.976  39.874   4.085
56900W        W22160  11.365  11.794   4.325
56901W        W22161  14.876  37.064  13.961
56902W        W22162  18.088   1.187  11.160
56903W        W22163  38.879  35.916  12.223
56904W        W22164   5.971  41.483  11.624
56905W        W22165  16.279  29.250   4.631
56906W        W22166  17.189   8.157   1.361
56907W        W22167  39.877  21.976  13.849
56908W        W22168  22.223  10.237  13.120
56909W        W22169  18.598  34.826  12.580
56910W        W22170  39.412  10.458  12.745
56911W        W22171  34.941  35.927  12.374
56912W        W22172  19.287   3.354  12.054
56913W        W22173   0.295  30.307  12.845
56914W        W22174  25.025   0.083  13.083
56915W        W22175  11.785  19.333   1.401
56916W        W22176  19.261  35.718  11.424
56917W        W22177   7.756   1.274  14.915
56918W        W22178   6.536  42.601  11.570
56919W        W22179  10.353   8.219   2.659
56920W        W22180   9.849  43.560  11.272
56921W        W22181  19.031  22.126   3.574
56922W        W22182  25.395  31.271   2.597
56923W        W22183   8.428  20.122   2.338
56924W        W22184  44.386   6.573  11.398
56925W        W22185  32.992  20.574   4.943
56926W        W22186  40.823  17.527  11.249
56927W        W22187  39.619  32.847   3.799
56928W        W22188  12.087  44.229   2.264
56929W        W22189  36.951  22.196  12.728
56930W        W22190   1.793  39.690  11.899
56931W        W22191  30.844  34.572   4.607
56932W        W22192  17.983  33.027   3.249
56933W        W22193  37.933  44.380  10.775
56934W        W22194  40.015  31.770   3.988
56935W        W22195  17.037  37.487   0.355
56936W        W22196  11.716  24.744  11.010
56937W        W22197  39.377  34.903   1.863
56938W        W22198   0.795  19.171   5.094
56939W        W22199  24.814  20.116   0.737
56940W        W22200  23.002   8.791   1.217
56941W        W22201  13.927  40.858  11.246
56942W        W22202   8.655  30.473   3.679
56943W        W22203  42.258  38.524   1.452
56944W        W22204  18.609  44.297  13.398
56945W        W22205  22.623  30.879   3.959
56946W        W22206  42.398  24.403   4.913
56947W        W22207  38.914  24.870  14.549
56948W        W22208  43.257  29.279  14.106
56949W        W22209   7.895  35.878  10.283
56950W        W22210   8.084  31.380   2.271
56951W        W22211  20.070  30.343   1.824
56952W        W22212   6.626  21.009  14.370
56953W        W22213  42.017  41.698   4.268
56954W        W22214  43.282  18.800   3.276
56955W        W22215  18.762   1.949   0.897
56956W        W22216  30.983  35.613   3.393
56957W        W22217   1.512  37.597   2.906
56958W        W22218  23.185   4.203  11.215
56959W        W22219  26.200   3.314   2.444
56960W        W22220   1.682  23.728   0.787
56961W        W22221  35.337   5.059  10.261
56962W        W22222  44.462  38.814  11.521
56963W        W22223  11.393  11.406   1.208
56964W        W22224  35.931  11.699  13.340
56965W        W22225  38.287  34.142   4.631
56966W        W22226  16.385  28.822   3.681
56967W        W22227  20.819  27.987  11.981
56968W        W22228  27.188   9.881  12.063
56969W        W22229  32.638  16.677  13.380
56970W        W22230  35.956  35.471  11.589
56971W        W22231  14.136  19.759   4.455
56972W        W22232   1.909   4.435  11.631
56973W        W22233  23.453  11.244   1.690
56974W        W22234  16.838   9.164   4.641
56975W        W22235  20.683  27.159  10.720
56976W        W22236  44.857   7.201  14.386
56977W        W22237  28.395   7.886   3.087
56978W        W22238  28.277  35.701  12.047
56979W        W22239  25.834   7.156   4.646
56980W        W22240  24.977  34.784   1.369
56981W        W22241   1.357  44.362   1.856
56982W        W22242  35.411  28.011   4.611
56983W        W22243  36.883  36.938  12.707
56984W        W22244  21.131   3.753  12.652
56985W        W22245  30.882  34.224  11.115
56986W        W22246  23.725  17.432   4.458
56987W        W22247  39.920   0.996  12.035
56988W        W22248  27.623   3.425   1.208
56989W        W22249   3.689  33.519  11.049
56990W        W22250  22.684  10.421  12.942
56991W        W22251  42.289  41.870   2.789
56992W        W22252  40.229   6.498   0.865
56993W        W22253  20.579  16.627   4.726
56994W        W22254  43.379  29.629  14.454
56995W        W22255  30.103   6.221  12.437
56996W        W22256  27.106   1.218  10.408
56997W        W22257  40.684  35.169   1.536
56998W        W22258   6.586  32.943  11.996
56999W        W22259  16.841  18.653  11.141
57000W        W22260  36.430  25.889   3.663
57001W        W22261  23.425  22.700  14.152
57002W        W22262  34.268   3.944   9.781
57003W        W22263  42.857  11.144   9.777
57004W        W22264  42.572  20.154   4.843
57005W        W22265  10.165   8.389  13.482
57006W        W22266  10.237  30.361  14.521
57007W        W22267  26.051   3.056   1.846
57008W        W22268  28.001  37.594   3.224
57009W        W22269  31.389   4.834   4.091
57010W        W22270  22.301  39.451   4.653
57011W        W22271  13.121   5.462   2.228
57012W        W22272  23.793   9.789  13.455
57013W        W22273   1.854   1.475  10.524
57014W        W22274  26.572  25.877   3.310
57015W        W22275  26.572  18.227   1.087
57016W        W22276  42.466   2.669  13.873
57017W        W22277  15.726   5.201   0.282
57018W        W22278   4.364  38.817  11.998
57019W        W22279  13.120   5.165   1.794
57020W        W22280  16.368  31.063   2.707
57021W        W22281   8.390  44.969   1.348
57022W        W22282  15.355  43.392   1.710
57023W        W22283  41.991  10.738   1.709
57024W        W22284   5.950  19.624   2.405
57025W        W22285  43.461  44.862  11.273
57026W        W22286  26.188  39.012   0.093
57027W        W22287  37.859  18.079  13.026
57028W        W22288  19.533  29.227  11.592
57029W        W22289  24.628  21.683  13.425
57030W        W22290  31.569  24.507  14.485
57031W        W22291  36.974  34.130  13.003
57032W        W22292  33.325  19.135   4.175
57033W        W22293  24.072   6.358   1.416
57034W        W22294  44.581  29.702  12.894
57035W        W22295  30.224   9.951  11.082
57036W        W22296  39.819  31.864  11.895
57037W        W22297   6.197  31.601   4.877
57038W        W22298  12.844  36.099  11.568
57039W        W22299  21.936  25.765   2.795
57040W        W22300  28.703  32.968   1.137
57041W        W22301  38.516  25.152  13.280
57042W        W22302  24.735  40.293   4.114
57043W        W22303  11.839  39.204  11.551
57044W        W22304  12.633  39.078   0.771
57045W        W22305  12.922   7.429   0.844
57046W        W22306  13.271  44.981   3.971
57047W        W22307   0.119  17.225  12.780
57048W        W22308   1.335  23.453   5.386
57049W        W22309  19.329   7.200  13.375
57050W        W22310  34.002   4.144   0.288
57051W        W22311  22.588   5.147  13.852
57052W        W22312  14.293  37.133   3.566
57053W        W22313  28.497  41.521  13.713
57054W        W22314  22.667  16.556   1.208
57055W        W22315  15.409  25.053  14.981
57056W        W22316  35.285  21.240   4.578
57057W        W22317  18.128  32.670  14.021
57058W        W22318  42.723  42.116   2.669
57059W        W22319  36.914  29.176   0.250
57060W        W22320  25.139  24.444  11.962
57061W        W22321  41.957  37.384  14.246
57062W        W22322  29.227  16.592  12.081
57063W        W22323  29.413  24.161  13.880
57064W        W22324  13.214  30.384   2.632
57065W        W22325  38.715  35.678  13.487
57066W        W22326  27.536  34.089   1.275
57067W        W22327  36.193   8.538  10.115
57068W        W22328  28.978  20.708  13.114
57069W        W22329  13.655  37.181   1.137
57070W        W22330  33.451  13.730  13.022
57071W        W22331   4.089  35.806  12.913
57072W        W22332  43.749  25.370   2.871
57073W        W22333  24.145  33.140   4.487
57074W        W22334  24.408   6.391  14.124
57075W        W22335  11.640  13.907  14.405
57076W        W22336   2.720  25.607   3.360
57077W        W22337  18.513  14.165   3.467
57078W        W22338  29.397  40.625  13.136
57079W        W22339  22.500  31.372  12.960
57080W        W22340   9.673  20.760  13.886
57081W        W22341   1.346  15.075   2.315
57082W        W22342  11.257  29.441  11.281
57083W        W22343   8.915   0.316  11.636
57084W        W22344   1.855  28.451   3.270
57085W        W22345  40.985  37.894  14.003
57086W        W22346  25.194   3.467   2.751
57087W        W22347  34.791  19.666  14.191
57088W        W22348  42.417  27.991   0.726
57089W        W22349  27.110   7.426   3.652
57090W        W22350  16.885  18.092   3.255
57091W        W22351  25.639  40.044   4.593
57092W        W22352   6.221  21.706   0.315
57093W        W22353  29.134  14.403   9.735
57094W        W22354  36.528  24.636  13.808
57095W        W22355  26.771  14.242  11.993
57096W        W22356  17.355  33.560  10.559
57097W        W22357  23.586  31.322  12.204
57098W        W22358   5.039   9.369   1.303
57099W        W22359  16.525  38.579  14.937
57100W        W22360  44.795  16.738  10.731
57101W        W22361   0.759  19.951   1.434
57102W        W22362  23.789   6.667  14.925
57103W        W22363  30.966  18.510  12.883
57104W        W22364  22.359  19.028  11.869
57105W        W22365  21.326  18.742   2.160
57106W        W22366  42.409  37.438  13.501
57107W        W22367   8.525  23.694   4.547
57108W        W22368   0.657  20.273  11.192
57109W        W22369  37.954   3.535  14.925
57110W        W22370  14.713  13.382   3.231
57111W        W22371   4.609  11.714  12.943
57112W        W22372  27.585  20.549   1.421
57113W        W22373   3.034  44.508  11.197
57114W        W22374  35.020   3.237   2.665
57115W        W22375  30.088  35.185   0.134
57116W        W22376  15.329  33.374  10.583
57117W        W22377  24.121   2.925   0.075
57118W        W22378  37.499  13.089  12.479
57119W        W22379  26.249  29.964   4.187
57120W        W22380  27.901  18.671  13.491
57121W        W22381  33.852   2.244   0.350
57122W        W22382  27.119  23.087   1.691
57123W        W22383  16.153  14.760   3.594
57124W        W22384  33.554  31.898   1.818
57125W        W22385   0.328  23.126   4.614
57126W        W22386  21.813  26.988   4.041
57127W        W22387  22.257   2.660  14.819
57128W        W22388   3.367  13.337   3.352
57129W        W22389  18.096   8.862   1.475
57130W        W22390  33.790  44.491  12.681
57131W        W22391  14.469  32.390  14.952
57132W        W22392   7.089  35.347  13.981
57133W        W22393  36.888  19.661  11.767
57134W        W22394   1.289  12.094   2.206
57135W        W22395   2.510   6.390   2.860
57136W        W22396  35.321   7.262  14.457
57137W        W22397  15.700   7.231  10.838
57138W        W22398  14.271  12.751  10.759
57139W        W22399  33.953  19.759   2.440
57140W        W22400  36.367  10.257  13.335
57141W        W22401  21.721  21.280   4.103
57142W        W22402  11.365   7.704  11.900
57143W        W22403   4.151  28.256   0.350
57144W        W22404   3.767   3.247  11.847
57145W        W22405  44.687  32.549  13.713
57146W        W22406  10.822  39.331   4.646
57147W        W22407   5.893   0.201  12.670
57148W        W22408  16.255   7.924  13.593
57149W        W22409  12.720  23.227   0.605
57150W        W22410  37.542  41.761   3.692
57151W        W22411   8.333  36.593   4.861
57152W        W22412  19.608  35.620   2.228
57153W        W22413  39.799  11.274   1.395
57154W        W22414  26.417  14.742   3.238
57155W        W22415  32.469  42.407  11.567
57156W        W22416  44.655  40.905   1.628
57157W        W22417   0.326   4.376  12.955
57158W        W22418  16.812  24.159   3.610
57159W        W22419  14.585  27.541   3.106
57160W        W22420  40.998   4.284  11.346
57161W        W22421  20.360  44.675  10.171
57162W        W22422  29.081   8.361  10.752
57163W        W22423  20.960   4.278  12.909
57164W        W22424   2.698  42.939  11.237
57165W        W22425  23.757  19.252   2.321
57166W        W22426   6.860  19.335   4.674
57167W        W22427   5.272  12.097  12.138
57168W        W22428  38.451  13.317  11.039
57169W        W22429   2.772  44.078   1.792
57170W        W22430   1.806  44.760  12.356
57171W        W22431  16.789  29.748  14.911
57172W        W22432  11.867  43.801  12.611
57173W        W22433  34.844  37.037   2.328
57174W        W22434  32.464  13.373   4.129
57175W        W22435  17.829  13.366  14.394
57176W        W22436  28.027  14.017   0.207
57177W        W22437  25.577   9.647  11.675
57178W        W22438  29.083   0.069   0.512
57179W        W22439  43.513  27.699  12.367
57180W        W22440  39.967  17.124  10.831
57181W        W22441   1.384  42.413   3.714
57182W        W22442  31.925   8.444   1.043
57183W        W22443  16.229  10.242   4.596
57184W        W22444   3.723  26.084   1.411
57185W        W22445  31.008  13.465   3.325
57186W        W22446   0.800  44.765  11.825
57187W        W22447  13.846  17.993  10.727
57188W        W22448  31.559  14.887  12.084
57189W        W22449  15.081  40.168   3.624
57190W        W22450  21.140   6.897   1.051
57191W        W22451  29.987   8.914   0.456
57192W        W22452  15.661  31.023   4.516
57193W        W22453   4.400  26.970  11.993
57194W        W22454  12.374  23.772   2.939
57195W        W22455  12.207  26.071  14.839
57196W        W22456  19.240  19.110   4.461
57197W        W22457  31.650   2.740  14.333
57198W        W22458  34.935  35.568   0.723
57199W        W22459  14.793  38.504   2.200
57200W        W22460  34.591  43.011   0.696
57201W        W22461  23.872   7.811   5.020
57202W        W22462  39.431   8.683  10.514
57203W        W22463  35.305   6.385  14.216
57204W        W22464  30.524  24.345   0.966
57205W        W22465   2.790  21.469   1.941
57206W        W22466  39.860  44.946   3.931
57207W        W22467  28.994   0.331   3.164
57208W        W22468  18.020  12.223   4.295
57209W        W22469  23.971  23.146  12.036
57210W        W22470  34.976  17.635   3.861
57211W        W22471  29.273  19.828  12.486
57212W        W22472  28.514   3.909   3.725
57213W        W22473  33.335  12.656  10.794
57214W        W22474  35.542  29.856   4.224
57215W        W22475  19.845  20.978  13.347
57216W        W22476  25.547  42.802  14.253
57217W        W22477  17.555  41.468   0.493
57218W        W22478  42.877  28.467  11.511
57219W        W22479  13.198  33.402  14.986
57220W        W22480   3.943   6.530   2.783
57221W        W22481  21.080  37.328  13.477
57222W        W22482  12.882  31.078  13.979
57223W        W22483  12.582  22.399  12.047
57224W        W22484  27.496   1.269   1.295
57225W        W22485  27.922  40.019  13.324
57226W        W22486  24.007  38.147   5.386
57227W        W22487  26.199   3.338   0.112
57228W        W22488  38.594  24.937  11.988
57229W        W22489   6.157  32.711  12.204
57230W        W22490  42.953  25.652  14.585
57231W        W22491  33.476  20.450  13.868
57232W        W22492  42.896   6.599  12.583
57233W        W22493  32.549  28.680   2.819
57234W        W22494  23.227  40.305   2.408
57235W        W22495   4.430  18.020   2.803
57236W        W22496  40.990   4.272  14.271
57237W        W22497   6.693  33.522   3.210
57238W        W22498  43.900  19.448   2.115
57239W        W22499   5.811  16.769  12.014
57240W        W22500  39.001  32.143   3.348
57241W        W22501  10.589  22.577  14.771
57242W        W22502  20.643   9.044  10.603
57243W        W22503  44.961  17.658   4.436
57244W        W22504  25.559  42.458  13.850
57245W        W22505  17.809   9.287   1.594
57246W        W22506   0.053  21.741   0.250
57247W        W22507   9.773  15.671   3.374
57248W        W22508  31.433   4.432   3.757
57249W        W22509  44.049  29.140   0.052
57250W        W22510   3.757  28.611   0.936
57251W        W22511  34.812  16.742  14.944
57252W        W22512  37.244   6.832  12.401
57253W        W22513  42.593  19.795  13.930
57254W        W22514   9.921   5.832   4.729
57255W        W22515  40.458  37.028  11.539
57256W        W22516  15.315  27.206   4.102
57257W        W22517  37.453  44.438   1.894
57258W        W22518  39.518  21.657  14.069
57259W        W22519  19.311   3.433  13.837
57260W        W22520  22.103  30.011   0.959
57261W        W22521  12.575   1.421  14.160
57262W        W22522   2.232  17.654  11.658
57263W        W22523   7.365  32.408   3.249
57264W        W22524  14.451  43.777  13.194
57265W        W22525  38.659  18.717   4.608
57266W        W22526   2.000  22.720   0.863
57267W        W22527  38.503   9.214   3.162
57268W        W22528   8.294  22.119   0.548
57269W        W22529  29.124  43.005   3.823
57270W        W22530  12.154  15.161   2.290
57271W        W22531  24.973  21.165   1.298
57272W        W22532  12.756  40.333   0.437
57273W        W22533   2.096  30.524  11.243
57274W        W22534  17.818  27.362  12.518
57275W        W22535  32.537   6.433  13.114
57276W        W22536  13.246   0.947  11.083
57277W        W22537  24.506  37.471   3.814
57278W        W22538  19.112  33.961  14.539
57279W        W22539   9.787   4.230   0.379
57280W        W22540  27.642  15.292  14.309
57281W        W22541  31.147  35.850  12.960
57282W        W22542  19.349  10.102  13.741
57283W        W22543  43.444   5.433  13.006
57284W        W22544  22.500  44.857  10.480
57285W        W22545   4.811   0.387   4.460
57286W        W22546   8.173   1.138   1.204
57287W        W22547   1.990  17.128  11.650
57288W        W22548   9.115  25.937  10.675
57289W        W22549   7.166   9.230  13.467
57290W        W22550  14.571   8.711  13.948
57291W        W22551   4.196  27.646  11.651
57292W        W22552   7.187  26.960  10.273
57293W        W22553  26.701  31.703  10.656
57294W        W22554   6.462  43.419   3.665
57295W        W22555  19.866  20.119  14.360
57296W        W22556  37.672   1.881   0.822
57297W        W22557  37.576   2.962   1.417
57298W        W22558  37.583  20.033   0.555
57299W        W22559  34.721  29.400  14.256
57300W        W22560   0.320  39.553   2.493
57301W        W22561   1.294  21.747  14.701
57302W        W22562  32.821  18.045  10.951
57303W        W22563  20.438  11.968   4.551
57304W        W22564  10.708  26.824  12.467
57305W        W22565  33.954  42.947   1.483
57306W        W22566  29.615   7.834  11.405
57307W        W22567   8.008   2.720  12.966
57308W        W22568  40.795  36.542   3.398
57309W        W22569  25.112  28.333   3.279
57310W        W22570  40.172  39.541   0.735
57311W        W22571  27.475  42.288  11.099
57312W        W22572  30.932  14.062   2.486
57313W        W22573  33.016  44.871   0.442
57314W        W22574  34.013  11.248  10.482
57315W        W22575  20.753  19.866   4.361
57316W        W22576  30.973  23.959  13.900
57317W        W22577  20.483  34.066  13.559
57318W        W22578  33.835  28.702  10.981
57319W        W22579  16.541   6.818  14.448
57320W        W22580  36.316  35.358   2.425
57321W        W22581  31.148  15.699   3.191
57322W        W22582  19.060   8.156   1.472
57323W        W22583  44.088  17.068   4.136
57324W        W22584  32.578  27.137   5.264
57325W        W22585   0.209  38.538   0.397
57326W        W22586  11.681  20.266   0.920
57327W        W22587  27.250  40.950   2.220
57328W        W22588  23.249  44.482  14.961
57329W        W22589  20.805  23.024  13.656
57330W        W22590   6.983   0.817  14.410
57331W        W22591  17.699   6.630   2.333
57332W        W22592   7.298  35.517  12.692
57333W        W22593  10.256  35.530  13.811
57334W        W22594  28.645   9.753  14.838
57335W        W22595   7.413  30.296   3.443
57336W        W22596  37.402   9.252   1.539
57337W        W22597   2.385  13.382   4.991
57338W        W22598  29.603  19.165   4.184
57339W        W22599  33.597  30.641  14.318
57340W        W22600  24.458  24.759  13.170
57341W        W22601   3.217  36.290   4.540
57342W        W22602  13.435   3.911  12.369
57343W        W22603   7.070  33.356   2.358
57344W        W22604  24.802  15.995  13.908
57345W        W22605  42.899  34.109  10.650
57346W        W22606  31.147  15.399   1.898
57347W        W22607  10.819  44.977  11.589
57348W        W22608  31.654  30.002   1.875
57349W        W22609   2.348   6.175   4.628
57350W        W22610  20.570  31.069  13.587
57351W        W22611   2.691  16.279  14.936
57352W        W22612  40.474  22.283   0.269
57353W        W22613  15.010  37.136   4.272
57354W        W22614  16.693  33.929   4.821
57355W        W22615  20.969  31.662  14.084
57356W        W22616  43.808  15.724  14.939
57357W        W22617  29.895  11.987   2.007
57358W        W22618  34.585  41.040   0.945
57359W        W22619  26.566  23.258  14.962
57360W        W22620  23.003   8.798  14.245
57361W        W22621  35.468  41.248  10.696
57362W        W22622  37.255  20.712   0.630
57363W        W22623  41.570  10.734  12.161
57364W        W22624  26.455  25.640   2.333
57365W        W22625  37.607  38.995  14.818
57366W        W22626  37.014  42.310   3.255
57367W        W22627  17.917  22.315  10.323
57368W        W22628  19.747  22.808   3.186
57369W        W22629  37.980  10.857  12.929
57370W        W22630   5.906   5.826   4.758
57371W        W22631  36.777  37.159  10.538
57372W        W22632  40.864  28.559   2.349
57373W        W22633  37.855  42.849  11.756
57374W        W22634   1.450   8.451  12.493
57375W        W22635   4.823  29.878  12.498
57376W        W22636  36.568  41.834   2.840
57377W        W22637  16.636   8.119   0.789
57378W        W22638  18.673  38.572  10.394
57379W        W22639  42.308  27.682   1.868
57380W        W22640  34.320  18.745   4.122
57381W        W22641  33.564  34.639   0.608
57382W        W22642  10.106   2.447   2.789
57383W        W22643  44.894  20.304  10.697
57384W        W22644  21.168   4.381   0.258
57385W        W22645  38.468  14.696   3.596
57386W        W22646  12.186  38.692   2.465
57387W        W22647  40.566  26.695  11.484
57388W        W22648   4.723   3.964   2.613
57389W        W22649   0.766  24.125  12.558
57390W        W22650   0.789   5.573  14.488
57391W        W22651  24.239  44.844  14.957
57392W        W22652   3.492  16.133   4.812
57393W        W22653   1.495  13.602  13.015
57394W        W22654   1.023  24.233  12.115
57395W        W22655   5.779  43.472  12.441
57396W        W22656  16.080  40.805  11.137
57397W        W22657  42.977   0.801   1.216
57398W        W22658  26.760  38.314   4.116
57399W        W22659  26.679  29.035   3.302
57400W        W22660  28.476   9.356   0.625
57401W        W22661   2.929  31.832  10.455
57402W        W22662  15.753  16.121   4.112
57403W        W22663  30.164  22.075   0.848
57404W        W22664  15.886  26.102   3.072
57405W        W22665  15.228  37.030   0.876
57406W        W22666   6.904  43.826  11.570
57407W        W22667  43.261   8.415  13.564
57408W        W22668   4.465  23.101   1.728
57409W        W22669  22.253  15.687  14.446
57410W        W22670  28.689  28.881   0.822
57411W        W22671  16.075  17.427   3.218
57412W        W22672  13.834  42.984   0.863
57413W        W22673  28.898  19.457   5.749
57414W        W22674   6.300  31.560   0.371
57415W        W22675   9.827  38.318   4.483
57416W        W22676   0.003  33.925   2.457
57417W        W22677  18.113   8.196   4.099
57418W        W22678  16.902   9.824   1.643
57419W        W22679   4.838  21.412   4.210
57420W        W22680  11.379  32.227  14.933
57421W        W22681  26.757  43.586   4.275
57422W        W22682  28.728   0.422   4.056
57423W        W22683  12.737  38.425   3.427
57424W        W22684   8.638  14.022  10.575
57425W        W22685  15.537  38.503   1.675
57426W        W22686  29.647  20.260  13.065
57427W        W22687  16.701  20.307   2.291
57428W        W22688  10.341  32.109  12.960
57429W        W22689  35.332  10.515   0.891
57430W        W22690  22.206  34.426  13.070
57431W        W22691  16.458   5.766  10.346
57432W        W22692  29.965  20.261  13.907
57433W        W22693  12.186  34.551   2.221
57434W        W22694  39.793   5.273   3.386
57435W        W22695  22.982  25.181  12.117
57436W        W22696  27.385  34.695  12.300
57437W        W22697  40.843   0.503   0.315
57438W        W22698  19.232  13.374  13.384
57439W        W22699  44.957  44.241   3.543
57440W        W22700  27.363   7.856   2.532
57441W        W22701  23.902  28.587  14.017
57442W        W22702   4.429  32.483  13.807
57443W        W22703  18.284  35.703   3.165
57444W        W22704   5.239  42.569   1.829
57445W        W22705  37.309  32.093   2.670
57446W        W22706  16.498  33.776  10.722
57447W        W22707  34.841  15.128  13.769
57448W        W22708  17.145   1.906   0.656
57449W        W22709  16.918  39.344  13.043
57450W        W22710   4.232   6.178   3.294
57451W        W22711   1.650  31.411   1.471
57452W        W22712  33.086  34.221   4.999
57453W        W22713  16.371  35.357  12.127
57454W        W22714  38.573  39.015   3.618
57455W        W22715  31.970  13.812  11.070
57456W        W22716  37.020   1.054   3.057
57457W        W22717  13.124   9.263  14.896
57458W        W22718  21.976  31.907   1.807
57459W        W22719  24.708  25.176   1.776
57460W        W22720   6.904  43.967  13.313
57461W        W22721   5.978  17.813   1.114
57462W        W22722  32.804  33.010  11.478
57463W        W22723  40.574  30.686   1.778
57464W        W22724  14.121  24.740   2.239
57465W        W22725   0.362   9.476  12.537
57466W        W22726   4.125   5.526  14.543
57467W        W22727  37.712  11.657   0.907
57468W        W22728  30.967  42.680   2.945
57469W        W22729   5.964  34.925   2.214
57470W        W22730  27.967  23.184  14.493
57471W        W22731  31.628  28.435  14.217
57472W        W22732  10.334  10.782  14.018
57473W        W22733  26.113  26.085   3.266
57474W        W22734   3.560  19.606  12.212
57475W        W22735  25.010  37.126  12.417
57476W        W22736  33.010  19.762  12.444
57477W        W22737  10.284  36.321   5.023
57478W        W22738  14.726  38.723   4.060
57479W        W22739  35.052  11.457  10.944
57480W        W22740  36.980  22.083   3.211
57481W        W22741  41.553   3.843   0.844
57482W        W22742   9.855  39.398   3.025
57483W        W22743  18.538  37.002   2.925
57484W        W22744  43.796   2.837   0.529
57485W        W22745   9.110   5.119   3.146
57486W        W22746  36.997   0.226   5.434
57487W        W22747  27.065  13.394   4.564
57488W        W22748   4.165  22.248   3.246
57489W        W22749  38.784  42.654  11.122
57490W        W22750  34.643   5.027   1.435
57491W        W22751  23.504  37.747   1.236
57492W        W22752  15.674   4.047  12.533
57493W        W22753  16.143   7.783  14.093
57494W        W22754  41.496  21.681  10.627
57495W        W22755   2.774  20.519  10.689
57496W        W22756  33.284  34.867  10.533
57497W        W22757  31.064   3.220  14.441
57498W        W22758  28.586  39.265   2.886
57499W        W22759  33.687  38.318   4.181
57500W        W22760  25.641   5.275   4.948
57501W        W22761  38.087  13.743  14.568
57502W        W22762  15.443  16.786   1.241
57503W        W22763  25.565  10.155  14.691
57504W        W22764  15.152  34.672  13.864
57505W        W22765  26.613  18.865   2.666
57506W        W22766  42.416  33.594   3.766
57507W        W22767  35.293   1.505   0.687
57508W        W22768  12.654  33.622   4.751
57509W        W22769  28.577  23.414   2.298
57510W        W22770  29.603  18.081  14.868
57511W        W22771  17.696  21.614  14.915
57512W        W22772  43.736  33.798  12.756
57513W        W22773  13.625  26.631   0.140
57514W        W22774  33.669   0.226  12.841
57515W        W22775  41.535  24.251  11.517
57516W        W22776  21.743   0.236  10.393
57517W        W22777   1.217  42.003   3.457
57518W        W22778   8.599  18.631   4.666
57519W        W22779   0.985  14.160  11.870
57520W        W22780  24.679   0.860  12.185
57521W        W22781  23.484  27.497  14.003
57522W        W22782  19.007   3.261   0.355
57523W        W22783  10.006  43.747   3.246
57524W        W22784   2.219  31.394   2.280
57525W        W22785  38.081  40.488   4.358
57526W        W22786   7.513  20.944  12.358
57527W        W22787  36.987   8.284   2.557
57528W        W22788   4.468  13.738   2.394
57529W        W22789  38.468  33.106   1.278
57530W        W22790  39.501  41.522   0.041
57531W        W22791  18.413  11.068  14.876
57532W        W22792   8.935  17.527   4.822
57533W        W22793  34.808  30.868  11.322
57534W        W22794  28.736  34.749  14.011
57535W        W22795   8.209   8.915   4.682
57536W        W22796  35.091  37.985   3.531
57537W        W22797   3.016  12.583   3.173
57538W        W22798  13.279  39.107  12.503
57539W        W22799  16.122  40.574   0.387
57540W        W22800  43.458  24.638   3.664
57541W        W22801  15.965  30.504  14.250
57542W        W22802   5.549   4.276  12.436
57543W        W22803   4.820  42.430   3.121
57544W        W22804  22.674  31.626  13.398
57545W        W22805   6.160   1.813  12.512
57546W        W22806  18.302   1.233   3.226
57547W        W22807   4.800  26.551   2.209
57548W        W22808  19.606  18.199  12.901
57549W        W22809   7.324  16.065   3.954
57550W        W22810  33.192  24.222   1.096
57551W        W22811  36.439  15.422   2.427
57552W        W22812  14.757  14.346  12.993
57553W        W22813  17.906  16.040   2.415
57554W        W22814   2.512  33.988  11.750
57555W        W22815  37.527  30.161   1.756
57556W        W22816  43.787  15.122  10.656
57557W        W22817  26.771   5.481   3.778
57558W        W22818  14.687  11.888   0.233
57559W        W22819   2.402  40.670   2.360
57560W        W22820  27.001  17.715  11.083
57561W        W22821  39.534  35.434  13.979
57562W        W22822   9.109  10.737   0.213
57563W        W22823  36.501  15.239  10.951
57564W        W22824   0.353  13.070  13.544
57565W        W22825  10.723  38.934   3.351
57566W        W22826  33.669  43.387  14.386
57567W        W22827  19.639  18.151   2.295
57568W        W22828  22.181   7.719  10.748
57569W        W22829   3.919  19.464  11.528
57570W        W22830  34.794  12.675   3.286
57571W        W22831   4.751   4.672   0.273
57572W        W22832  34.881  15.249   4.420
57573W        W22833  32.977  13.184   5.080
57574W        W22834  32.413  20.049   4.582
57575W        W22835  17.799  12.958   2.051
57576W        W22836  11.910   0.555   3.328
57577W        W22837  26.961  35.854  11.900
57578W        W22838  10.675  37.547  12.404
57579W        W22839   4.888  41.873  14.908
57580W        W22840  36.380   0.084  12.165
57581W        W22841   3.982  37.285  13.963
57582W        W22842  12.050   8.321  10.934
57583W        W22843   5.910  25.966   0.446
57584W        W22844  34.933  28.157  13.860
57585W        W22845  29.678   3.736   2.971
57586W        W22846  18.906   5.445  11.971
57587W        W22847  31.846  11.721  13.897
57588W        W22848   2.829  43.800  14.753
57589W        W22849  33.425   7.793   0.786
57590W        W22850  22.318  22.910   4.174
57591W        W22851  39.550  20.939   2.831
57592W        W22852  22.797  37.179  10.444
57593W        W22853  34.946  38.514   4.296
57594W        W22854  26.653  39.023   4.541
57595W        W22855  43.689  14.421  12.103
57596W        W22856  31.552   5.472   0.396
57597W        W22857   0.475  14.835  13.891
57598W        W22858   8.771  44.878  10.953
57599W        W22859   0.750  24.498   2.334
57600W        W22860  17.091   7.157   2.815
57601W        W22861  44.083  33.834   4.099
57602W        W22862  30.698   2.363  12.437
57603W        W22863  44.663   0.001   3.757
57604W        W22864  41.251  26.371  12.001
57605W        W22865   4.019  13.544   0.531
57606W        W22866  38.595  34.045  12.035
57607W        W22867  15.493  20.562   2.178
57608W        W22868  15.706  16.299  11.442
57609W        W22869  17.604  41.967  11.131
57610W        W22870  28.056  24.968  12.870
57611W        W22871  40.211   9.743  13.891
57612W        W22872  43.777  18.437  13.711
57613W        W22873  18.632  44.451  11.597
57614W        W22874  15.479  13.322   2.793
57615W        W22875  21.429  22.904   0.959
57616W        W22876   1.746  20.449  12.517
57617W        W22877   1.015  29.376  10.095
57618W        W22878  30.743  26.695  14.405
57619W        W22879  26.185   1.506  11.599
57620W        W22880  37.973  16.793   4.105
57621W        W22881  30.452   9.349  14.026
57622W        W22882  19.237  27.964  10.907
57623W        W22883   2.861  21.675   0.971
57624W        W22884   5.994  37.218   9.941
57625W        W22885  27.931  17.504  13.020
57626W        W22886  17.737   5.518   4.086
57627W        W22887  13.287  39.073   0.644
57628W        W22888   8.055  14.089   4.473
57629W        W22889  30.500  41.398  12.084
57630W        W22890  38.468  37.798  10.729
57631W        W22891  41.427   6.947  13.066
57632W        W22892   8.886  28.909   4.255
57633W        W22893  22.486  40.329   0.069
57634W        W22894  14.060  30.563   0.910
57635W        W22895  36.095  15.243  10.631
57636W        W22896  32.817  30.473   3.933
57637W        W22897   8.736   8.893  10.723
57638W        W22898  39.284   7.542  10.531
57639W        W22899  37.900  23.534  14.723
57640W        W22900  27.319   4.809  12.092
57641W        W22901   8.682  26.945  13.935
57642W        W22902  27.979  17.042   4.722
57643W        W22903  29.331  20.493   1.823
57644W        W22904  25.292  15.483   2.713
57645W        W22905  29.761  18.731  11.198
57646W        W22906   1.360  44.849   0.570
57647W        W22907  29.372  13.369   0.080
57648W        W22908  41.611  29.546  12.879
57649W        W22909   5.389  30.115  10.637
57650W        W22910   1.265   9.318  11.576
57651W        W22911   5.116  34.310  11.518
57652W        W22912  12.936  29.286   0.891
57653W        W22913  28.571  38.542  14.119
57654W        W22914  23.060  26.555   4.789
57655W        W22915  25.779  12.850   2.256
57656W        W22916  44.338  19.767   1.455
57657W        W22917  21.827  13.373   3.280
57658W        W22918  17.765  14.204   2.833
57659W        W22919  32.944   2.515  11.056
57660W        W22920  21.203  25.261   2.895
57661W        W22921  14.199  24.921  10.815
57662W        W22922   9.518  35.296  14.711
57663W        W22923   7.821  30.288  10.453
57664W        W22924  33.767  18.193  10.715
57665W        W22925  17.067   2.592  12.597
57666W        W22926  37.908  42.681   1.210
57667W        W22927  18.761  10.435   0.384
57668W        W22928  11.247  37.067  11.657
57669W        W22929  15.536  44.170  11.234
57670W        W22930  34.360  10.385  13.229
57671W        W22931  16.725  11.265   2.219
57672W        W22932   5.295  11.822   1.600
57673W        W22933  15.323  26.473   1.977
57674W        W22934  32.431  23.224  13.042
57675W        W22935  42.054  31.934   5.000
57676W        W22936   8.388  27.649   3.228
57677W        W22937  28.753  32.255  13.101
57678W        W22938   0.075  27.491  13.776
57679W        W22939  11.364  15.798   0.002
57680W        W22940   2.440  43.143  10.374
57681W        W22941  32.559   1.804  12.010
57682W        W22942   0.242   1.363  11.420
57683W        W22943  41.523  30.483  12.895
57684W        W22944  10.056  35.986  11.956
57685W        W22945  31.622  39.529  14.447
57686W        W22946  36.545  41.334  11.540
57687W        W22947  33.592  29.618  14.321
57688W        W22948  17.688  35.066   0.928
57689W        W22949  19.945  10.204   4.124
57690W        W22950  11.094  31.528   2.269
57691W        W22951  16.880  14.088  11.121
57692W        W22952  21.206   2.468  10.954
57693W        W22953   3.699  16.170  11.063
57694W        W22954  24.221  24.809   0.352
57695W        W22955  19.280  36.748   1.424
57696W        W22956   4.927  31.072  12.653
57697W        W22957  18.166  26.585  11.721
57698W        W22958  28.932  40.951  14.371
57699W        W22959  15.842   2.654   2.802
57700W        W22960  11.801  33.545   1.759
57701W        W22961  22.533  38.961   1.630
57702W        W22962  44.683  12.707  13.012
57703W        W22963   5.736  20.712  14.981
57704W        W22964   2.448  18.251  12.573
57705W        W22965  35.088  30.649   1.252
57706W        W22966  18.252  38.254   0.406
57707W        W22967  44.235  19.131  14.973
57708W        W22968  32.817  39.946   4.359
57709W        W22969  42.312  35.324  12.124
57710W        W22970  19.618  23.470   2.162
57711W        W22971  10.319   7.550   0.802
57712W        W22972  28.055  20.294   1.428
57713W        W22973  13.180  13.242  14.885
57714W        W22974  35.524  42.405   0.013
57715W        W22975  23.735  30.548  14.275
57716W        W22976  24.701  26.347  13.340
57717W        W22977  44.730  44.073  13.346
57718W        W22978  23.752  17.732  12.199
57719W        W22979  21.791  37.570   5.119
57720W        W22980  33.063  21.510  12.854
57721W        W22981   9.063  29.720  12.002
57722W        W22982   5.305  38.843  13.124
57723W        W22983  40.727   9.916  13.896
57724W        W22984  13.042  16.249  11.754
57725W        W22985  40.277   0.484  14.449
57726W        W22986  16.112  28.505   3.353
57727W        W22987   1.421   9.464  14.366
57728W        W22988   2.317  40.340   2.783
57729W        W22989   5.194  28.766   3.177
57730W        W22990   3.751  23.196  11.268
57731W        W22991  20.185  18.394   0.303
57732W        W22992  21.965  35.973   0.462
57733W        W22993  43.096  27.630  12.080
57734W        W22994  13.823  37.553  14.447
57735W        W22995   1.785  37.592   4.599
57736W        W22996  17.010   5.089  13.860
57737W        W22997  10.217  11.534  11.144
57738W        W22998   2.374  18.362  13.420
57739W        W22999   9.024   6.870   0.759
57740W        W23000  22.726  40.314   2.216
57741W        W23001  20.814  14.087  14.331
57742W        W23002  42.946   5.840   3.717
57743W        W23003  42.946  28.434   1.347
57744W        W23004  11.880  31.492  13.577
57745W        W23005  43.722  21.502   3.909
57746W        W23006  23.100   5.381   4.057
57747W        W23007  22.140  43.507   4.586
57748W        W23008  39.827  12.247   1.466
57749W        W23009  34.822  18.145   0.998
57750W        W23010  37.124  14.648   3.754
57751W        W23011  12.890  12.179   2.453
57752W        W23012  37.054  36.759   3.783
57753W        W23013  28.216  39.793  10.652
57754W        W23014  16.645  24.621   3.347
57755W        W23015  12.851   6.125   4.799
57756W        W23016  15.538  37.434  11.185
57757W        W23017  16.942  21.722   1.242
57758W        W23018  44.824  21.387   3.636
57759W        W23019  32.302  21.817   4.675
57760W        W23020   9.391  40.813   1.233
57761W        W23021  25.994  28.355   0.872
57762W        W23022  37.407  43.422  13.905
57763W        W23023  26.617   5.917   3.332
57764W        W23024  20.156   1.342   1.019
57765W        W23025  17.092  30.540  13.069
57766W        W23026  42.731  21.467  12.411
57767W        W23027  27.712  19.472   2.233
57768W        W23028  42.365  42.362  11.938
57769W        W23029  38.104  32.849  13.019
57770W        W23030  39.291  25.140  11.474
57771W        W23031  37.982  17.088   2.161
57772W        W23032  30.950   8.157  13.093
57773W        W23033  18.310  35.208   3.269
57774W        W23034  30.667  34.046   1.220
57775W        W23035  20.345  17.373   2.702
57776W        W23036  33.294  42.001   0.963
57777W        W23037  40.549   2.722   1.641
57778W        W23038  34.208   8.367   2.699
57779W        W23039  24.725  17.784   1.568
57780W        W23040  11.856  19.134   4.633
57781W        W23041  27.676  17.014   3.227
57782W        W23042  35.107  10.719   0.484
57783W        W23043  20.040  25.403   1.579
57784W        W23044  37.906  33.445  12.215
57785W        W23045  36.951   2.972   1.789
57786W        W23046   9.084  35.468  13.911
57787W        W23047  20.701  12.333   0.933
57788W        W23048  39.267  14.771   2.215
57789W        W23049  12.782   2.816   3.549
57790W        W23050  23.135  43.803   3.306
57791W        W23051  41.520  39.069   3.043
57792W        W23052  17.873   7.388  11.939
57793W        W23053   0.827  38.455   2.377
57794W        W23054  36.937  42.025   0.974
57795W        W23055  39.246  41.905  11.510
57796W        W23056  20.793  33.611   3.271
57797W        W23057  36.090  15.245  12.723
57798W        W23058  23.133   5.648   1.602
57799W        W23059  25.151   5.747  14.919
57800W        W23060   7.806   2.212   2.106
57801W        W23061  23.660  43.618   2.393
57802W        W23062  12.695  38.241  14.025
57803W        W23063  41.250  43.404   3.914
57804W        W23064  11.178  29.086   2.245
57805W        W23065   7.965   8.154  12.928
57806W        W23066   0.701  16.705   3.351
57807W        W23067  22.777  29.056  12.624
57808W        W23068  34.425  32.639  10.849
57809W        W23069  17.511  14.021   3.265
57810W        W23070  24.791   1.764   4.635
57811W        W23071  21.692  25.198   4.610
57812W        W23072  27.126   3.681  14.450
57813W        W23073  18.742  35.032   4.174
57814W        W23074  33.034  11.385  13.401
57815W        W23075  16.359   3.965  14.407
57816W        W23076   3.309  25.127  14.037
57817W        W23077  32.651  28.284  14.903
57818W        W23078  33.968  34.125  13.330
57819W        W23079  31.672  10.653   0.279
57820W        W23080  18.461   1.838  14.000
57821W        W23081   6.682  21.062  12.916
57822W        W23082   6.163  40.784   2.254
57823W        W23083  19.777  12.999  14.241
57824W        W23084  14.265  15.528  10.041
57825W        W23085  23.143  17.903   2.278
57826W        W23086  19.149  22.638   1.760
57827W        W23087   8.121  13.154  13.999
57828W        W23088  15.552  42.038   3.631
57829W        W23089  14.769  11.240   4.665
57830W        W23090  35.406  36.278   4.933
57831W        W23091  17.618  39.226   1.122
57832W        W23092  42.157  12.361  14.886
57833W        W23093   1.737  37.607  13.031
57834W        W23094  35.404  25.427  14.406
57835W        W23095  36.745  10.757  11.569
57836W        W23096   2.168  43.060   5.095
57837W        W23097  26.816   1.520   4.178
57838W        W23098  30.617  41.695   0.501
57839W        W23099  24.911  36.460   1.646
57840W        W23100  18.851  43.141  13.043
57841W        W23101  28.319  42.879   3.632
57842W        W23102  38.402  15.294  12.823
57843W        W23103  23.466   2.213   4.715
57844W        W23104  44.442  25.051  10.733
57845W        W23105  43.353   0.323  13.831
57846W        W23106  15.119   1.376  13.936
57847W        W23107   5.997  20.813   1.326
57848W        W23108  21.546  21.009  14.108
57849W        W23109  27.069  24.477   0.033
57850W        W23110  22.030  35.137  10.646
57851W        W23111   5.156  15.164   3.926
57852W        W23112  14.054  12.282  10.706
57853W        W23113  27.025  21.025  11.742
57854W        W23114  18.858  24.720   4.333
57855W        W23115  34.854  17.337   1.692
57856W        W23116  18.724  19.516  12.273
57857W        W23117  18.851  26.437   0.709
57858W        W23118   6.879  22.441   2.866
57859W        W23119  31.508  38.405   4.752
57860W        W23120   7.417  33.981  12.559
57861W        W23121  14.888  44.178   4.340
57862W        W23122  41.451  26.971  11.153
57863W        W23123  13.674  13.263  14.672
57864W        W23124  37.341  11.126   1.463
57865W        W23125  44.231  37.102  10.976
57866W        W23126  17.826  37.307  10.177
57867W        W23127   4.677   7.228  10.192
57868W        W23128   6.414  18.112   2.911
57869W        W23129  32.452   9.246   4.632
57870W        W23130   6.651  39.577  12.355
57871W        W23131  39.408  20.885   4.606
57872W        W23132  43.478  19.286   0.419
57873W        W23133  27.236   0.797   3.091
57874W        W23134  44.345  21.336  13.053
57875W        W23135  18.816  39.962   9.750
57876W        W23136  27.776  16.777   2.769
57877W        W23137   3.512  30.181  13.662
57878W        W23138  14.883  10.666   1.322
57879W        W23139  39.463  22.575  10.472
57880W        W23140  29.027  41.477  14.275
57881W        W23141  28.077  26.123   4.284
57882W        W23142  25.743  17.398   2.359
57883W        W23143  20.145  34.327  10.706
57884W        W23144  20.750  35.021   1.910
57885W        W23145   2.212   1.918   4.541
57886W        W23146  36.093  19.561  11.236
57887W        W23147  37.369  17.171  11.490
57888W        W23148  30.525  13.598  12.721
57889W        W23149  20.027  20.048   2.165
57890W        W23150  23.949  28.166  14.979
57891W        W23151   9.881  21.343   2.735
57892W        W23152   3.897   3.734  12.540
57893W        W23153   4.373  41.057  12.820
57894W        W23154   1.403  23.404  12.449
57895W        W23155   0.950   0.243   0.458
57896W        W23156   9.298  40.162   0.362
57897W        W23157  41.999   1.818   1.296
57898W        W23158  43.324  26.693  10.902
57899W        W23159   0.869  19.214   4.079
57900W        W23160  37.602  26.231  12.985
57901W        W23161  15.192  19.210  14.535
57902W        W23162  33.659  31.158  11.095
57903W        W23163  17.231  36.414   4.746
57904W        W23164  39.730   6.856   4.138
57905W        W23165  10.868  40.935  12.954
57906W        W23166  34.083  29.699   3.102
57907W        W23167  15.839   2.906  14.831
57908W        W23168  10.794  36.113  13.555
57909W        W23169  29.673  13.359  12.983
57910W        W23170   5.136  41.105   2.388
57911W        W23171  14.259   4.325   1.803
57912W        W23172  25.124  29.166   0.925
57913W        W23173   6.784  13.257  13.329
57914W        W23174  26.205   6.862  11.496
57915W        W23175  12.519   1.269  11.559
57916W        W23176  40.463  26.197  11.491
57917W        W23177  13.186   8.285   3.372
57918W        W23178  43.030  33.977   0.186
57919W        W23179   8.216  21.329   4.145
57920W        W23180   3.371   0.817   3.826
57921W        W23181  33.835   7.170   4.100
57922W        W23182   3.936   4.206  13.341
57923W        W23183  10.733  29.088   1.942
57924W        W23184  30.490  41.040  13.367
57925W        W23185  23.786  42.767  11.180
57926W        W23186  29.627   2.452   4.177
57927W        W23187  19.601  19.019  13.100
57928W        W23188   1.455  11.616   2.240
57929W        W23189  43.192  43.001  14.554
57930W        W23190   7.736  39.561   2.969
57931W        W23191  17.862  23.514  11.028
57932W        W23192  33.132   5.670   1.406
57933W        W23193  25.566  21.193  10.661
57934W        W23194  11.251  21.089  12.947
57935W        W23195  29.240  12.648  10.481
57936W        W23196  29.978  43.973  13.029
57937W        W23197   9.803  36.015  14.420
57938W        W23198  10.089  22.981   1.804
57939W        W23199  42.522  12.736  13.444
57940W        W23200  25.432  22.896   2.807
57941W        W23201  27.547   7.754   4.520
57942W        W23202  25.606   3.890   1.425
57943W        W23203  33.567  22.308  10.789
57944W        W23204  38.429  15.753   4.500
57945W        W23205  38.502  27.060  13.804
57946W        W23206   2.777  11.653  14.499
57947W        W23207  10.781   0.500  11.484
57948W        W23208  34.494   1.799   0.870
57949W        W23209  16.626  25.402  13.364
57950W        W23210   4.280  17.574   4.828
57951W        W23211  29.448  23.557   3.132
57952W        W23212  19.350  32.513  11.692
57953W        W23213   4.642  43.563   5.014
57954W        W23214  28.361   6.365   2.700
57955W        W23215  14.216   3.373   3.088
57956W        W23216  15.785  19.679   4.995
57957W        W23217  39.927   2.887  11.998
57958W        W23218  12.326  22.580   4.649
57959W        W23219  25.992  37.636   1.312
57960W        W23220  19.466  30.988   1.303
57961W        W23221  10.373  37.792   4.074
57962W        W23222  30.609  43.044  10.670
57963W        W23223   9.511  42.866   4.202
57964W        W23224   2.702  17.680  13.910
57965W        W23225  44.919  44.734   3.381
57966W        W23226  44.556  27.573  13.777
57967W        W23227  14.365   6.361   2.908
57968W        W23228  12.901  17.088  14.492
57969W        W23229   7.232  14.118   2.790
57970W        W23230  33.939   2.904   4.237
57971W        W23231   7.805  11.898   0.279
57972W        W23232  42.342  39.930   4.681
57973W        W23233  42.230  25.671   2.145
57974W        W23234  18.585  30.062  10.400
57975W        W23235   4.224  10.176  13.434
57976W        W23236  31.152   0.655   0.075
57977W        W23237  17.680  15.901   1.129
57978W        W23238  27.844  26.376   2.720
57979W        W23239  26.074  41.353   2.778
57980W        W23240   3.928   5.053   1.320
57981W        W23241  15.314  10.870   1.010
57982W        W23242  25.009  23.653   3.661
57983W        W23243  25.728  14.156   4.496
57984W        W23244  31.149   2.296  10.926
57985W        W23245  20.319  26.944   2.785
57986W        W23246   1.932  43.020   3.085
57987W        W23247  17.215  15.109  12.099
57988W        W23248  26.004  38.719  13.547
57989W        W23249   9.966  16.097   2.097
57990W        W23250   9.016  27.522   1.735
57991W        W23251  37.907   4.849   0.115
57992W        W23252  23.165  23.148   3.970
57993W        W23253   6.924  16.724  12.665
57994W        W23254   5.242  15.517   4.974
57995W        W23255  43.337  24.261  13.828
57996W        W23256  44.333  30.764   1.258
57997W        W23257  16.265   1.882  13.749
57998W        W23258  15.240  24.804  10.714
57999W        W23259  29.968   9.130   0.921
58000W        W23260   0.742  18.294   4.300
58001W        W23261  29.077  17.134   1.943
58002W        W23262  11.569  40.472  11.128
58003W        W23263  17.985  41.816   1.128
58004W        W23264   4.987  32.544  11.243
58005W        W23265  25.402   7.693   2.608
58006W        W23266  42.711  20.550   0.300
58007W        W23267  34.461   0.208   0.029
58008W        W23268  36.292  39.992   0.423
58009W        W23269  28.096  44.966  10.545
58010W        W23270  43.306  28.242   3.447
58011W        W23271  20.374  18.946   4.969
58012W        W23272  28.619  15.750   0.809
58013W        W23273   3.812  15.171  13.600
58014W        W23274   8.135  44.853   0.428
58015W        W23275  14.868   4.411  12.501
58016W        W23276  22.206  22.551   3.793
58017W        W23277  31.663   5.722   3.852
58018W        W23278  13.559  35.384  13.551
58019W        W23279  41.904  24.634  11.611
58020W        W23280  16.219   8.945   0.815
58021W        W23281   9.734  37.839  14.152
58022W        W23282  29.312   2.444  12.099
58023W        W23283  34.417   7.102  12.429
58024W        W23284  38.017  17.820   0.436
58025W        W23285  15.383  28.668  13.531
58026W        W23286  11.892  21.128   0.958
58027W        W23287  12.815  21.534   1.500
58028W        W23288  22.549  21.655   4.678
58029W        W23289  16.619  15.581  12.884
58030W        W23290  13.663  21.575   1.213
58031W        W23291  37.559  10.648   4.139
58032W        W23292  33.700  29.051  10.581
58033W        W23293  42.454  10.282   2.420
58034W        W23294  26.639  23.486  12.553
58035W        W23295  19.337  39.481   4.716
58036W        W23296  25.538  16.885   4.614
58037W        W23297  15.308   9.791  14.226
58038W        W23298   8.958   1.344  14.025
58039W        W23299  28.393  26.852   9.665
58040W        W23300   2.458  22.979   4.620
58041W        W23301  39.757  18.565  12.956
58042W        W23302  40.884  15.237   4.367
58043W        W23303  30.056  32.483   2.112
58044W        W23304  12.206  24.397  12.064
58045W        W23305  22.278  29.876  11.104
58046W        W23306  18.970   8.224  14.355
58047W        W23307  35.866  16.976  12.117
58048W        W23308   4.811  16.646   4.689
58049W        W23309  22.020  23.207  12.993
58050W        W23310  40.499  24.581  11.589
58051W        W23311  29.779  14.619   1.387
58052W        W23312  20.214  42.468  12.554
58053W        W23313  29.376  43.654   3.813
58054W        W23314   6.449   4.931  13.056
58055W        W23315  32.410  26.466   1.479
58056W        W23316  16.966   7.208  12.353
58057W        W23317  24.758   9.845  11.083
58058W        W23318  32.482  29.739  13.923
58059W        W23319  14.736  33.909  11.424
58060W        W23320  37.005  10.319  11.475
58061W        W23321  39.652  26.677  12.483
58062W        W23322  28.022   3.815   3.819
58063W        W23323  12.801  17.904   0.554
58064W        W23324  26.625   1.748   0.809
58065W        W23325  33.980   4.783  14.124
58066W        W23326  23.684  26.869   4.108
58067W        W23327  33.097  10.892  13.520
58068W        W23328   5.724   8.943  12.523
58069W        W23329  36.382  16.339   2.343
58070W        W23330  22.969   2.349   4.841
58071W        W23331  39.638  40.165  11.957
58072W        W23332   8.664   0.438   0.040
58073W        W23333  37.547   5.370   3.237
58074W        W23334  26.561  18.115   0.105
58075W        W23335  20.061   5.505   3.204
58076W        W23336  25.348   8.131  13.492
58077W        W23337   4.923   4.527  11.251
58078W        W23338   1.963  12.434   2.576
58079W        W23339  26.683  43.770   0.967
58080W        W23340  34.317   8.834  10.683
58081W        W23341  30.904  28.049  11.161
58082W        W23342  32.519   3.753   3.156
58083W        W23343  11.803  11.727   4.594
58084W        W23344  29.513  27.700   4.379
58085W        W23345  29.015  28.315  11.152
58086W        W23346   0.495  30.678   3.753
58087W        W23347  31.707  14.377  14.392
58088W        W23348  13.933   8.447  13.733
58089W        W23349  23.300  17.829   1.438
58090W        W23350  36.517  44.591  12.048
58091W        W23351  24.087  15.637   3.648
58092W        W23352  19.064  35.378   2.416
58093W        W23353  15.122   3.215   0.936
58094W        W23354   3.647   5.728  14.468
58095W        W23355  41.754  38.755  13.433
58096W        W23356  33.367   8.706   1.880
58097W        W23357  37.119   7.863   2.279
58098W        W23358  31.479  43.059   0.859
58099W        W23359  44.732   5.309  12.511
58100W        W23360  21.011  39.314  11.505
58101W        W23361  33.698  29.583   3.810
58102W        W23362   6.857  39.467   0.451
58103W        W23363   2.500  36.805   2.789
58104W        W23364  28.001   1.805  13.850
58105W        W23365  44.032  29.180   0.965
58106W        W23366   9.334  20.467  11.044
58107W        W23367   6.157   1.288  13.883
58108W        W23368  39.130  42.324   4.256
58109W        W23369  44.507  16.371   2.422
58110W        W23370   2.504  13.846  14.455
58111W        W23371  27.460  28.122  12.527
58112W        W23372  33.286  18.488   1.541
58113W        W23373  32.907  30.182   4.547
58114W        W23374   5.381  39.456   4.799
58115W        W23375  11.312   0.264   1.543
58116W        W23376  18.654   4.927  11.180
58117W        W23377  27.413  22.279   0.067
58118W        W23378  15.733   9.809   3.319
58119W        W23379  30.077  40.736  12.461
58120W        W23380  36.407  13.175   1.212
58121W        W23381  21.092  10.219   4.576
58122W        W23382  35.588   2.212   2.160
58123W        W23383  32.557  14.033   0.453
58124W        W23384   7.829  35.853   0.322
58125W        W23385   6.015  31.605   3.702
58126W        W23386  26.425   4.493   2.600
58127W        W23387  31.149  15.554  13.906
58128W        W23388   6.694  32.564   0.858
58129W        W23389  30.482   9.517  11.626
58130W        W23390   9.891  30.531   2.689
58131W        W23391  27.601   2.720   1.782
58132W        W23392  34.565  28.548   0.065
58133W        W23393  25.627  16.228   0.788
58134W        W23394  14.344   8.827  14.403
58135W        W23395  16.772  18.802   4.953
58136W        W23396  32.047  21.625   0.820
58137W        W23397  36.478  20.631   1.216
58138W        W23398  36.608   2.913  11.983
58139W        W23399  33.492   2.997  13.957
58140W        W23400  11.343   8.425  13.908
58141W        W23401  21.111   2.064   4.925
58142W        W23402  34.466   0.492   2.531
58143W        W23403  37.768  15.069  11.030
58144W        W23404  40.908   8.350   4.117
58145W        W23405   8.475  40.999  12.719
58146W        W23406   2.579  19.968   3.244
58147W        W23407  36.372   6.423   1.701
58148W        W23408  37.428  36.657  11.234
58149W        W23409   0.912  38.797  11.600
58150W        W23410  26.063  41.291   0.002
58151W        W23411  17.078   3.997  11.624
58152W        W23412  40.254  21.720  14.724
58153W        W23413  18.302  33.001  11.197
58154W        W23414  10.252  43.403  10.957
58155W        W23415  15.055  13.338  12.131
58156W        W23416  10.159  41.885  10.025
58157W        W23417   6.101  33.174  11.986
58158W        W23418  22.613  18.626   4.446
58159W        W23419   4.450  28.508   2.782
58160W        W23420  26.994   1.182   4.648
58161W        W23421   9.470  42.802  11.554
58162W        W23422  44.290  40.523   1.187
58163W        W23423  20.559  13.306   2.292
58164W        W23424  44.193  10.360  11.642
58165W        W23425  21.466   2.180   3.219
58166W        W23426  10.346   0.724   5.051
58167W        W23427  38.155  38.242  10.722
58168W        W23428  30.274  29.374  11.993
58169W        W23429  32.448  42.632   0.445
58170W        W23430   3.194  19.996  11.521
58171W        W23431  43.729  21.128   0.997
58172W        W23432  17.615  10.798  12.888
58173W        W23433  33.078  16.442  14.217
58174W        W23434   1.366  15.371   1.871
58175W        W23435  42.498   6.055   4.666
58176W        W23436  35.124  38.829   0.958
58177W        W23437  41.394   9.069  14.430
58178W        W23438  17.232  35.122  12.891
58179W        W23439  14.561  43.044   1.839
58180W        W23440  43.200   6.462   0.827
58181W        W23441  38.502  40.053   0.282
58182W        W23442  25.537  14.898  13.927
58183W        W23443  42.280  44.271   2.230
58184W        W23444  34.623  28.651  12.658
58185W        W23445  30.099  21.615  12.019
58186W        W23446  24.017  28.413   1.810
58187W        W23447   8.430  22.615  11.430
58188W        W23448  28.639  24.196  10.751
58189W        W23449   9.435  44.772   4.153
58190W        W23450  36.087  33.488   0.476
58191W        W23451   5.268   7.613   1.383
58192W        W23452  40.451   3.965  14.917
58193W        W23453  28.990  12.688  11.956
58194W        W23454  22.154  24.145  12.518
58195W        W23455  29.418  14.273   4.583
58196W        W23456  22.477  18.434  12.033
58197W        W23457  16.892  40.850   4.982
58198W        W23458  39.478  33.220  13.218
58199W        W23459   2.926  36.479  11.140
58200W        W23460  18.120  39.382   2.814
58201W        W23461  40.375  25.521  14.276
58202W        W23462   3.331   3.038  10.778
58203W        W23463  15.511  18.599  10.722
58204W        W23464   2.362  34.500   2.353
58205W        W23465  39.384   7.896  12.482
58206W        W23466  21.991  20.161  14.529
58207W        W23467  43.280  20.257  11.955
58208W        W23468  34.391  20.811   4.291
58209W        W23469  40.860  31.994  11.209
58210W        W23470  36.811  13.024  12.495
58211W        W23471  18.991   4.528  14.517
58212W        W23472  25.358  17.785   2.365
58213W        W23473  24.040  37.175   2.407
58214W        W23474  11.331  30.604   0.725
58215W        W23475  33.556  17.663  14.788
58216W        W23476  30.108  12.342  12.699
58217W        W23477  31.052  24.421   5.372
58218W        W23478  10.913  33.072  13.399
58219W        W23479  26.649   4.128  11.969
58220W        W23480  16.851  16.633   2.903
58221W        W23481  12.054  21.639  10.810
58222W        W23482  26.012  22.619  11.521
58223W        W23483   0.443  44.415   4.619
58224W        W23484   7.218  41.600  14.034
58225W        W23485  33.497   3.472  11.113
58226W        W23486  23.674  31.662   2.732
58227W        W23487  27.426  44.279   1.408
58228W        W23488  42.846  43.369   2.372
58229W        W23489  28.473  11.886  14.870
58230W        W23490  38.285  33.874   0.558
58231W        W23491  44.274  31.698   0.301
58232W        W23492  41.797  41.399  10.823
58233W        W23493  37.720  12.193  11.171
58234W        W23494  44.236  33.570   0.018
58235W        W23495   1.571  23.099   4.283
58236W        W23496  11.668   8.545  14.299
58237W        W23497  11.259  18.326  14.777
58238W        W23498  23.829  21.683  13.001
58239W        W23499   4.245  39.794   0.656
58240W        W23500  21.681  44.251   0.810
58241W        W23501  12.957  41.529   0.515
58242W        W23502  21.092  19.478  13.468
58243W        W23503   1.038  35.830   3.671
58244W        W23504  16.590  29.240  11.053
58245W        W23505  30.327  38.082  11.381
58246W        W23506   0.511  31.825   2.766
58247W        W23507   5.917  18.043   2.783
58248W        W23508  37.634  31.398  13.789
58249W        W23509   2.383  31.485  12.203
58250W        W23510   8.943  31.970  12.960
58251W        W23511  34.021  16.144   1.073
58252W        W23512  10.278  43.939  14.380
58253W        W23513  14.340   1.707  14.838
58254W        W23514  42.569  37.977   2.286
58255W        W23515  44.829  27.471  12.079
58256W        W23516  35.507  31.595   3.675
58257W        W23517  42.462  20.961  10.628
58258W        W23518  32.460  24.608   4.610
58259W        W23519   8.947  28.633  13.495
58260W        W23520  21.176  35.094   3.607
58261W        W23521   9.035  39.289  11.553
58262W        W23522  37.213  42.921   4.395
58263W        W23523  25.466  17.392   4.603
58264W        W23524  27.075   5.284   4.196
58265W        W23525   0.684   7.971   4.278
58266W        W23526   1.974  22.082   1.327
58267W        W23527  20.111   5.926  12.514
58268W        W23528  16.781   4.496  12.515
58269W        W23529  40.932  40.258  12.897
58270W        W23530  14.028  38.382   1.900
58271W        W23531  37.051   2.927   3.196
58272W        W23532  40.263  20.815   0.509
58273W        W23533  42.833  22.222   4.622
58274W        W23534   6.931   7.044   0.179
58275W        W23535  25.640  21.621   2.004
58276W        W23536  34.817  14.597  13.774
58277W        W23537   5.920  30.217  13.968
58278W        W23538   3.502  31.987  13.032
58279W        W23539  43.748  43.809  14.773
58280W        W23540   3.242  31.963   5.026
58281W        W23541  29.298   5.680  14.448
58282W        W23542   7.714  43.757  12.370
58283W        W23543   6.294  20.995  13.481
58284W        W23544  28.976   3.831  11.006
58285W        W23545  34.265  19.759  11.896
58286W        W23546   0.401  15.046  11.949
58287W        W23547  12.790  11.693  11.567
58288W        W23548  15.832  10.968  14.569
58289W        W23549   1.270  40.356   1.168
58290W        W23550  44.579   1.000  12.574
58291W        W23551  39.305  24.182  14.837
58292W        W23552  27.645  20.850  10.728
58293W        W23553  20.255  43.395   2.105
58294W        W23554  20.630  38.768  13.143
58295W        W23555  25.707   2.022   4.546
58296W        W23556  41.096  34.730   0.822
58297W        W23557   6.831  27.571  14.205
58298W        W23558   5.838  25.420   4.104
58299W        W23559   7.212  21.487  13.859
58300W        W23560  10.606   2.440   2.651
58301W        W23561  40.908  29.998  11.592
58302W        W23562   7.650  29.928   4.770
58303W        W23563  44.888   4.384  10.492
58304W        W23564   8.651  17.489  13.242
58305W        W23565  39.862  17.510  12.083
58306W        W23566  32.448  33.764   3.969
58307W        W23567  29.445  33.978  13.929
58308W        W23568  19.269   2.299   3.625
58309W        W23569   6.697  20.150   3.665
58310W        W23570   3.116   6.783  13.485
58311W        W23571   2.961  17.346  10.658
58312W        W23572  39.104  44.777  13.362
58313W        W23573  25.474   7.992   3.035
58314W        W23574  13.233  26.313  14.798
58315W        W23575  14.722  11.365  12.416
58316W        W23576  35.360  11.441   2.625
58317W        W23577   3.941  32.446  11.306
58318W        W23578  23.073  30.561   1.355
58319W        W23579  39.578  10.254  14.392
58320W        W23580  12.765  27.174  14.420
58321W        W23581  38.372  32.335   2.459
58322W        W23582  26.708  22.017   2.894
58323W        W23583   1.366  12.654  10.762
58324W        W23584   1.438   5.059  12.898
58325W        W23585  27.147  39.617  14.341
58326W        W23586  28.263   2.823  14.729
58327W        W23587  40.787  28.830   0.477
58328W        W23588  23.775  28.203   1.221
58329W        W23589   2.390  24.493   0.500
58330W        W23590  26.768  19.178   5.080
58331W        W23591  30.888  38.037  12.606
58332W        W23592  39.489  42.247  12.839
58333W        W23593  19.681  17.301   1.208
58334W        W23594  21.259  16.202  13.551
58335W        W23595  16.331  28.091   9.961
58336W        W23596  25.135  13.837   4.683
58337W        W23597  27.039  16.954  10.488
58338W        W23598   0.879   0.969   3.164
58339W        W23599   7.059  26.809  14.494
58340W        W23600   9.048  29.800   1.843
58341W        W23601  37.862   6.813   4.196
58342W        W23602   0.373  32.395  12.112
58343W        W23603  35.871  11.931   1.873
58344W        W23604  34.112  29.213  12.657
58345W        W23605  25.969  13.286  13.822
58346W        W23606   0.375  36.413   4.584
58347W        W23607  27.028  27.510  14.342
58348W        W23608  39.490  29.864   2.299
58349W        W23609  31.604   8.214   0.693
58350W        W23610  17.695  36.438  11.853
58351W        W23611   5.057  13.700  14.345
58352W        W23612  16.679  33.475  11.096
58353W        W23613  23.217  27.132   1.390
58354W        W23614   7.156  14.018   3.809
58355W        W23615  29.909  11.199   2.410
58356W        W23616  43.398  42.562  13.117
58357W        W23617  28.578   1.990   3.429
58358W        W23618  16.677  10.340   4.326
58359W        W23619  18.406   1.560  12.056
58360W        W23620  21.741  11.187   2.273
58361W        W23621  42.387  28.433  10.827
58362W        W23622  23.590   5.802  10.682
58363W        W23623  10.724   9.614  14.210
58364W        W23624  22.852  16.719  14.914
58365W        W23625  30.296  41.987  14.861
58366W        W23626  30.417  36.264  12.563
58367W        W23627  19.243  15.264   1.467
58368W        W23628  36.071   0.266   5.285
58369W        W23629  25.833   3.691   0.238
58370W        W23630  14.033  21.042   3.347
58371W        W23631   8.751  20.778  11.724
58372W        W23632  26.788  23.008  12.387
58373W        W23633  15.717  21.138  13.764
58374W        W23634   1.741  44.065  11.174
58375W        W23635  37.920   8.696   3.629
58376W        W23636  17.189  10.321  11.520
58377W        W23637  42.791   7.090   1.459
58378W        W23638  39.644  23.507   0.206
58379W        W23639   5.791  27.488   0.254
58380W        W23640   9.427  21.961  12.537
58381W        W23641   4.740   1.854  11.607
58382W        W23642  44.806   9.403   0.841
58383W        W23643  31.378   9.435  13.089
58384W        W23644  33.913  16.676   3.613
58385W        W23645  13.312  25.980   0.743
58386W        W23646  27.920   2.328  13.937
58387W        W23647  17.755   6.229  13.481
58388W        W23648  18.328  28.031   1.950
58389W        W23649   9.170  16.888  10.591
58390W        W23650  17.896  14.450  12.525
58391W        W23651  13.048  27.920  12.662
58392W        W23652  32.584  35.066  13.208
58393W        W23653  44.033   6.690  10.669
58394W        W23654  20.536  44.264   4.667
58395W        W23655   8.186  39.928  11.568
58396W        W23656  13.699  16.249   3.136
58397W        W23657  29.496   1.019  13.803
58398W        W23658  21.567  20.762   1.739
58399W        W23659  31.419  30.769   3.185
58400W        W23660  10.217  20.586  10.774
58401W        W23661  26.679  37.213   2.394
58402W        W23662  11.877  17.720  14.065
58403W        W23663  41.208   3.807  14.316
58404W        W23664  19.238  23.470   2.974
58405W        W23665  36.623  35.887  14.471
58406W        W23666  36.962  26.453  10.649
58407W        W23667  23.247  26.176   1.432
58408W        W23668  32.548   3.683  14.511
58409W        W23669  29.120  13.477  12.445
58410W        W23670  33.144  31.599   4.592
58411W        W23671  40.667   9.079   3.640
58412W        W23672  21.137   9.746   1.735
58413W        W23673  30.019  39.965  14.068
58414W        W23674  30.665  11.676   2.312
58415W        W23675  11.946  30.909   0.169
58416W        W23676  30.657  26.413  12.047
58417W        W23677   5.493  18.135  12.619
58418W        W23678  32.039  43.910  13.400
58419W        W23679  11.447  44.876   4.004
58420W        W23680  19.724  22.981   2.361
58421W        W23681  17.614  35.990   0.331
58422W        W23682  28.151  35.444  11.588
58423W        W23683  27.034  26.654   0.412
58424W        W23684  11.416  26.108  11.918
58425W        W23685  12.363   3.892   2.276
58426W        W23686  23.164  21.869   4.303
58427W        W23687   6.626  19.083  11.408
58428W        W23688  12.782  13.874  12.512
58429W        W23689  11.361  14.133   4.026
58430W        W23690   3.195  32.369  12.130
58431W        W23691  29.020  36.110   3.244
58432W        W23692  25.042  21.048   4.503
58433W        W23693  29.026  17.206   0.317
58434W        W23694  17.777  37.603   4.418
58435W        W23695  18.987  41.906   3.729
58436W        W23696  34.066  27.088   0.212
58437W        W23697  39.797  12.309   3.219
58438W        W23698   2.788   4.350  13.889
58439W        W23699  35.226  29.213   1.503
58440W        W23700  42.537  19.320   3.743
58441W        W23701  31.115  18.467   0.356
58442W        W23702  13.712  28.557  14.042
58443W        W23703   5.029  13.337  11.974
58444W        W23704   1.418   0.575  12.167
58445W        W23705  35.029  28.364  10.219
58446W        W23706  32.339  35.988  11.751
58447W        W23707  15.290   2.735  13.957
58448W        W23708   6.215  15.785   4.226
58449W        W23709  44.809   1.271  13.110
58450W        W23710  44.750  35.498   2.721
58451W        W23711  11.056   7.745  14.848
58452W        W23712   9.253  30.421   0.252
58453W        W23713   0.754  28.686  13.132
58454W        W23714   7.745   3.439   4.814
58455W        W23715  24.156   1.131   1.462
58456W        W23716  32.227   7.190   4.686
58457W        W23717  34.098   9.115   2.252
58458W        W23718  18.575  11.196  10.667
58459W        W23719   4.739   8.780  13.840
58460W        W23720  20.259   1.861   5.028
58461W        W23721  21.550  18.091   0.307
58462W        W23722   9.147  21.558   1.390
58463W        W23723   4.752  24.440   4.166
58464W        W23724   7.314  36.500   1.355
58465W        W23725  40.350  24.163   4.102
58466W        W23726  18.622  42.318  11.207
58467W        W23727  20.669  11.386   3.926
58468W        W23728  14.243  22.319   0.355
58469W        W23729  15.316  36.470  14.303
58470W        W23730  26.233  32.542  12.383
58471W        W23731   4.142  24.592   2.731
58472W        W23732   4.164  41.324  14.838
58473W        W23733  30.174   4.287  13.459
58474W        W23734  37.826  39.815  12.394
58475W        W23735  22.080  10.223  10.179
58476W        W23736  31.336  23.248   4.123
58477W        W23737  26.642  30.926  11.477
58478W        W23738   8.206  34.831  11.208
58479W        W23739  41.516  21.476   4.561
58480W        W23740  25.170  10.196  12.469
58481W        W23741   4.430  23.445   1.334
58482W        W23742   4.919  35.686   4.045
58483W        W23743  34.040   6.164  10.647
58484W        W23744  21.485  12.203  14.476
58485W        W23745  21.247  34.941   3.128
58486W        W23746  18.203  16.405  13.618
58487W        W23747  19.732   8.383  12.057
58488W        W23748  12.048  10.757  10.622
58489W        W23749  10.254  11.538   5.073
58490W        W23750  41.569  34.541   2.140
58491W        W23751  25.181  21.523   0.198
58492W        W23752  27.165  40.102   0.218
58493W        W23753  16.965  38.513   3.245
58494W        W23754   5.579  42.411  11.735
58495W        W23755   7.642  12.713   1.743
58496W        W23756  32.693  12.293  11.616
58497W        W23757   3.383  28.414  12.962
58498W        W23758   8.422  38.006  11.968
58499W        W23759  30.986  25.075  13.084
58500W        W23760  40.039  14.505   1.902
58501W        W23761   2.835  28.118   9.728
58502W        W23762   9.855  15.611   4.911
58503W        W23763  22.610   3.141   1.862
58504W        W23764  11.727  25.787  11.626
58505W        W23765  30.747  13.905   3.261
58506W        W23766   7.373  44.706   0.910
58507W        W23767  42.942   0.942   2.119
58508W        W23768  10.150  27.992   3.479
58509W        W23769  33.325   4.305   1.770
58510W        W23770  41.364  11.815  10.227
58511W        W23771   6.839  42.945   0.819
58512W        W23772  28.668  43.365  11.658
58513W        W23773  21.583  33.097  11.019
58514W        W23774  19.038  34.778  11.752
58515W        W23775  24.037  36.641   0.475
58516W        W23776  27.087  33.149  14.943
58517W        W23777  30.724  29.154  14.897
58518W        W23778  21.829  18.593   9.821
58519W        W23779  23.745  18.504   1.125
58520W        W23780   7.150  25.454  12.053
58521W        W23781  43.853   9.104  12.613
58522W        W23782   9.632  18.052  12.190
58523W        W23783  41.222  31.397   0.207
58524W        W23784  15.296  32.061  12.865
58525W        W23785  24.440  35.948  14.963
58526W        W23786  18.630  38.822  13.830
58527W        W23787  15.707   7.125  13.250
58528W        W23788  36.607  16.119   0.970
58529W        W23789   1.752  11.824   4.288
58530W        W23790  37.319  33.481   4.421
58531W        W23791   6.277   1.280   4.409
58532W        W23792  13.692  15.345  12.593
58533W        W23793   0.721   5.453  11.533
58534W        W23794  19.470  44.727  12.077
58535W        W23795  44.925   1.286  14.440
58536W        W23796   5.933   3.424   3.664
58537W        W23797  16.651   2.821  14.291
58538W        W23798   3.853  27.195   4.508
58539W        W23799   8.311  43.860   0.546
58540W        W23800   9.507  25.037   2.232
58541W        W23801  21.291  28.235  12.973
58542W        W23802  26.501  26.899   1.714
58543W        W23803  39.830   6.324   1.512
58544W        W23804  16.225  12.870  14.559
58545W        W23805  11.822  23.687  14.803
58546W        W23806  29.847  21.191  14.798
58547W        W23807  39.014   9.938   3.079
58548W        W23808  12.895  13.197  13.269
58549W        W23809   6.723  34.969  13.119
58550W        W23810  36.299   4.215   3.716
58551W        W23811  39.009  35.891   1.433
58552W        W23812   2.621  18.273   4.082
58553W        W23813  27.358   6.786   4.180
58554W        W23814  44.692  34.149  11.597
58555W        W23815  15.820  10.322   3.315
58556W        W23816  13.082  35.118  12.202
58557W        W23817  27.913  31.568   2.354
58558W        W23818  14.452   2.525   0.484
58559W        W23819  13.181  43.263   2.664
58560W        W23820   4.274  10.437   3.734
58561W        W23821  12.182  40.910   4.176
58562W        W23822  30.214  26.548  13.591
58563W        W23823   3.282   7.343   1.346
58564W        W23824  36.016  27.712  13.378
58565W        W23825  15.105  24.942   2.858
58566W        W23826  31.736  18.495  12.225
58567W        W23827  36.113  23.004   4.871
58568W        W23828  15.070  44.173  10.989
58569W        W23829  44.352   3.873   2.211
58570W        W23830  21.976  32.044  14.411
58571W        W23831   8.156  10.152  12.521
58572W        W23832  17.514  40.492   0.243
58573W        W23833  43.661  18.613   4.077
58574W        W23834  42.854  18.060  13.014
58575W        W23835  23.893  15.180  12.304
58576W        W23836  41.391  32.782   1.676
58577W        W23837   6.502  27.448  12.437
58578W        W23838   9.659  18.762  13.800
58579W        W23839  40.241  14.449   3.663
58580W        W23840  33.902  20.167   4.516
58581W        W23841  33.315   9.365   3.300
58582W        W23842  39.709   7.302  12.555
58583W        W23843   0.243  36.726  11.492
58584W        W23844  26.135  17.876   0.276
58585W        W23845  15.340  15.434  12.600
58586W        W23846   0.991  41.910   0.345
58587W        W23847  26.268  34.137  14.219
58588W        W23848  33.891  38.323   0.880
58589W        W23849  21.572  42.538  10.552
58590W        W23850  16.872  35.165   4.129
58591W        W23851  43.034  33.014  12.102
58592W        W23852  28.717   5.343   0.246
58593W        W23853  43.697  33.521  13.687
58594W        W23854  25.763  25.740  10.245
58595W        W23855  20.902   4.484  10.295
58596W        W23856  10.489  11.171   1.260
58597W        W23857  24.966  10.422   1.713
58598W        W23858  26.768   4.354  12.876
58599W        W23859  10.593  18.969   4.749
58600W        W23860  15.860   4.870  11.487
58601W        W23861  11.657   9.392  13.971
58602W        W23862  24.675   1.136   3.177
58603W        W23863  14.303   9.714   0.903
58604W        W23864  37.887   9.588  11.225
58605W        W23865  30.896  20.562  11.952
58606W        W23866  11.979   3.886   1.463
58607W        W23867  40.356  31.556   0.925
58608W        W23868  25.485  12.677  11.285
58609W        W23869  15.960  12.163   3.303
58610W        W23870  40.750  22.665   1.462
58611W        W23871  42.260  42.887   3.676
58612W        W23872  42.243  22.640   1.280
58613W        W23873  42.617  12.209   1.711
58614W        W23874  22.363  23.457   4.899
58615W        W23875  35.460  26.195  13.476
58616W        W23876  13.096   9.831  11.061
58617W        W23877  30.017   2.691  12.518
58618W        W23878  15.525   5.709  14.410
58619W        W23879   1.751  15.859   3.728
58620W        W23880  18.656  44.798  13.768
58621W        W23881  41.284  42.294  12.014
58622W        W23882   7.384   7.850   4.916
58623W        W23883  37.595  31.966  10.694
58624W        W23884   4.017  34.960  13.542
58625W        W23885  38.773  18.270  12.341
58626W        W23886  43.488  31.691  10.866
58627W        W23887   5.117  28.488   4.534
58628W        W23888   7.515   1.940  11.990
58629W        W23889  10.475  11.094   4.988
58630W        W23890  13.066  15.097   1.226
58631W        W23891  13.665  18.427  10.983
58632W        W23892  32.430  15.529   3.124
58633W        W23893  11.810  39.439   0.670
58634W        W23894  30.156   3.683  14.511
58635W        W23895  27.114  22.084  10.326
58636W        W23896  15.904   2.378  12.899
58637W        W23897   6.761  13.925   2.949
58638W        W23898  25.960   3.244  12.870
58639W        W23899   9.921  26.645  11.017
58640W        W23900  10.702  31.086   3.712
58641W        W23901  28.178  22.724  13.773
58642W        W23902  44.254  35.286   0.738
58643W        W23903  15.258   4.630   4.667
58644W        W23904  35.357  35.172  13.564
58645W        W23905   9.609  33.139  13.589
58646W        W23906  13.041   8.771   3.487
58647W        W23907  14.317   2.896  13.569
58648W        W23908  29.758  13.508  10.672
58649W        W23909  14.703  12.822   2.265
58650W        W23910  34.476  36.093  14.056
58651W        W23911  23.712  26.661  10.449
58652W        W23912   5.495  32.113  14.425
58653W        W23913   2.780  43.749  12.868
58654W        W23914  28.801  24.594   1.052
58655W        W23915  40.439  24.602  10.706
58656W        W23916  42.018  36.425  12.442
58657W        W23917  39.265   3.279   4.655
58658W        W23918  15.600  40.032  12.152
58659W        W23919  43.973  35.638   1.886
58660W        W23920  16.285  39.508   0.393
58661W        W23921  29.250   0.597   4.096
58662W        W23922  35.478  21.276  12.556
58663W        W23923  40.609  40.557  13.217
58664W        W23924  38.868   7.509  11.684
58665W        W23925  42.069   5.319   1.830
58666W        W23926  42.424  42.358   3.907
58667W        W23927  25.641  25.573   3.625
58668W        W23928  36.712   0.483  12.129
58669W        W23929  15.356  10.246  10.656
58670W        W23930  44.540  16.635  10.176
58671W        W23931  14.274  27.831   4.918
58672W        W23932  34.513  36.653  11.190
58673W        W23933  41.220   4.277  11.801
58674W        W23934  19.707  43.263  11.541
58675W        W23935  36.587   2.737   0.954
58676W        W23936   3.000  36.551   1.337
58677W        W23937  29.981  30.914  13.895
58678W        W23938  17.195  22.713  14.654
58679W        W23939  15.752  28.304   0.236
58680W        W23940  43.363  38.231   1.527
58681W        W23941  24.288   9.896  12.423
58682W        W23942  12.653  24.717  14.439
58683W        W23943  39.641  33.694  13.909
58684W        W23944  18.485   5.941  14.531
58685W        W23945  12.705   0.738  13.891
58686W        W23946  42.239  39.322   4.091
58687W        W23947  41.939  30.912   0.375
58688W        W23948  35.841  38.518  11.617
58689W        W23949  26.550  23.243  13.983
58690W        W23950  29.749   7.276  14.822
58691W        W23951  31.070   3.528   1.286
58692W        W23952  25.041  34.987   2.860
58693W        W23953  31.021  40.395  12.366
58694W        W23954   5.358   6.157   1.960
58695W        W23955   2.610  38.306   3.702
58696W        W23956  24.070  21.654   2.222
58697W        W23957  34.085  31.714   4.860
58698W        W23958  31.956  20.115   0.100
58699W        W23959   6.299  26.146   1.221
58700W        W23960  40.443  19.327   3.147
58701W        W23961  15.036  26.101  12.178
58702W        W23962  21.944  38.512  11.995
58703W        W23963  33.585  34.860  11.488
58704W        W23964  35.198  35.024  11.887
58705W        W23965   7.253   0.907  13.167
58706W        W23966  11.725  26.666  13.431
58707W        W23967   1.479   0.704   1.704
58708W        W23968  11.782  26.144   0.758
58709W        W23969  17.336  40.203   3.770
58710W        W23970  19.980  43.853  14.938
58711W        W23971  38.348  26.099  12.327
58712W        W23972  22.249   0.404   0.282
58713W        W23973  26.180  36.819  13.490
58714W        W23974  38.110   7.929   0.470
58715W        W23975  42.535  30.600   1.019
58716W        W23976  16.365  44.397   0.735
58717W        W23977  14.587   2.496   4.684
58718W        W23978   9.106   5.458  12.049
58719W        W23979  36.083  34.630   3.691
58720W        W23980  32.204  43.718   0.231
58721W        W23981  39.842  28.360   3.700
58722W        W23982  43.648  10.346  11.629
58723W        W23983  42.405  42.633   1.764
58724W        W23984  31.667   5.903  11.215
58725W        W23985  20.096  32.421   2.307
58726W        W23986  44.373  17.738   3.648
58727W        W23987  35.180  25.092  10.035
58728W        W23988  18.353  32.388   4.992
58729W        W23989   0.029  34.037   3.271
58730W        W23990  37.063  34.013  11.012
58731W        W23991  40.979  22.800   3.797
58732W        W23992   8.862   4.325  12.516
58733W        W23993  23.367  37.083   4.307
58734W        W23994   4.832   0.169   2.809
58735W        W23995  43.934  28.900   2.318
58736W        W23996  15.276  23.660  10.171
58737W        W23997  16.559  34.036   2.659
58738W        W23998  26.815   4.230   0.794
58739W        W23999  24.208  23.438   4.864
58740W        W24000   4.756  43.093   4.719
58741W        W24001   7.458  10.215   4.425
58742W        W24002  43.927  30.870   2.545
58743W        W24003  44.214   5.334  12.568
58744W        W24004  36.184  37.787   0.891
58745W        W24005  35.548  34.376  11.139
58746W        W24006  15.960   2.519  14.028
58747W        W24007   5.798  16.747  12.632
58748W        W24008  34.030  34.577   3.536
58749W        W24009  17.489  13.279   1.793
58750W        W24010  28.866  24.850  14.030
58751W        W24011  15.034  31.388   0.734
58752W        W24012  44.320   3.614   0.848
58753W        W24013  17.182  24.544  13.339
58754W        W24014  42.199  33.177  11.190
58755W        W24015  21.110   6.379  14.092
58756W        W24016  34.666  30.896  13.554
58757W        W24017   0.326  40.034   2.306
58758W        W24018  12.198  10.330   1.619
58759W        W24019  17.319  32.017  11.322
58760W        W24020  22.018  40.389   0.572
58761W        W24021  34.838   1.151  10.266
58762W        W24022  44.322  39.542  13.040
58763W        W24023  20.214  44.214   0.675
58764W        W24024  39.794   4.878  10.195
58765W        W24025  32.482  14.665  11.666
58766W        W24026   6.614  23.464   2.333
58767W        W24027  37.254  26.958   0.411
58768W        W24028  38.304  18.822   0.010
58769W        W24029  42.005  18.106  10.689
58770W        W24030  21.753  27.847  13.874
58771W        W24031  38.378   6.917  13.822
58772W        W24032  44.219   1.365   2.621
58773W        W24033  17.304  32.637   2.908
58774W        W24034  27.430  28.100  11.767
58775W        W24035  27.930   8.373  14.403
58776W        W24036  13.803  15.015   0.915
58777W        W24037  36.390  38.019   1.307
58778W        W24038   2.667   2.405   1.871
58779W        W24039  35.447  11.391   1.228
58780W        W24040  25.670  41.627   3.677
58781W        W24041  18.022  26.222   0.988
58782W        W24042  43.810  15.178   5.499
58783W        W24043  23.730   9.770   1.812
58784W        W24044  12.098  36.537  12.474
58785W        W24045   6.451  37.447   0.696
58786W        W24046  30.686  44.535  13.276
58787W        W24047  27.858  33.543  10.050
58788W        W24048   9.601  38.549  11.529
58789W        W24049  36.928  21.665   3.518
58790W        W24050  23.165   7.472   2.738
58791W        W24051  24.453  12.263  13.366
58792W        W24052  39.733   2.241   2.610
58793W        W24053  28.078  18.804  11.032
58794W        W24054  23.925  14.148  12.553
58795W        W24055  22.282  34.315   5.058
58796W        W24056  24.626   2.022   1.221
58797W        W24057  19.473  13.768   0.527
58798W        W24058  42.034  15.198  13.881
58799W        W24059   3.024  31.789   0.201
58800W        W24060  13.572  37.068   0.317
58801W        W24061  32.610  41.255   3.758
58802W        W24062  39.493   0.338   4.605
58803W        W24063   6.944  34.552   1.183
58804W        W24064   7.332   1.724   3.679
58805W        W24065  36.478  34.133  12.789
58806W        W24066   7.225  38.081  14.474
58807W        W24067  20.912  11.096   1.749
58808W        W24068   9.372  41.070   2.643
58809W        W24069  29.559  37.426   0.774
58810W        W24070   2.311  39.647   2.360
58811W        W24071  21.107  19.084   4.257
58812W        W24072  38.033   5.706   2.200
58813W        W24073  35.488  38.066  11.531
58814W        W24074  38.681  34.421   3.434
58815W        W24075  37.881  17.108   4.611
58816W        W24076  38.580   1.071   0.315
58817W        W24077  39.760  28.988   0.350
58818W        W24078   2.263  23.719   3.012
58819W        W24079   0.228  36.296  14.115
58820W        W24080  25.436  19.958   0.239
58821W        W24081  36.091  27.172   0.804
58822W        W24082  11.414  36.672   1.431
58823W        W24083  11.641   9.335   2.515
58824W        W24084  18.155  37.382   2.904
58825W        W24085   4.389  30.672   1.226
58826W        W24086  30.462  24.848  10.327
58827W        W24087  34.433   9.146  14.485
58828W        W24088  35.436  26.474   4.477
58829W        W24089   4.831   2.561  12.009
58830W        W24090  31.258   2.645   1.715
58831W        W24091  41.238  27.123   3.622
58832W        W24092  12.549   4.633   0.563
58833W        W24093  41.829  36.072   1.190
58834W        W24094  36.511  10.831  12.091
58835W        W24095  33.835   2.348   2.666
58836W        W24096  33.495  37.034  11.130
58837W        W24097  35.329   5.708   2.382
58838W        W24098  44.866   5.405   2.786
58839W        W24099  35.445  29.183  12.839
58840W        W24100  30.999  29.183   0.388
58841W        W24101  12.768  42.737  13.812
58842W        W24102  31.446   1.795   4.209
58843W        W24103  32.427  32.500   1.457
58844W        W24104  37.675   7.648  12.916
58845W        W24105  21.611  18.889  11.131
58846W        W24106  23.020  10.145  12.631
58847W        W24107   0.643  39.114  13.418
58848W        W24108  15.781  38.274   0.371
58849W        W24109   8.311  31.119   0.274
58850W        W24110  28.132  37.252  10.993
58851W        W24111  15.389  29.467  12.102
58852W        W24112   1.496  40.013   1.847
58853W        W24113  26.177  34.587   4.249
58854W        W24114   4.275  25.089   2.605
58855W        W24115  22.496  36.837  12.098
58856W        W24116   4.729  13.679  11.740
58857W        W24117   5.360   8.739   1.968
58858W        W24118  34.596  11.683   0.845
58859W        W24119  21.454  25.407  14.809
58860W        W24120   3.755  43.543   2.191
58861W        W24121   1.031  37.851  13.583
58862W        W24122  20.932  13.743   0.598
58863W        W24123  29.670   6.577   2.540
58864W        W24124  38.790  20.249   2.857
58865W        W24125  39.627   0.353   4.125
58866W        W24126  37.466  15.131  10.612
58867W        W24127  26.220  34.526   1.470
58868W        W24128  28.487  27.971   4.750
58869W        W24129  15.642  24.119   4.529
58870W        W24130  21.877  40.011   3.610
58871W        W24131  16.223  12.685   4.293
58872W        W24132  33.400  42.331  10.407
58873W        W24133  12.782  26.578  13.837
58874W        W24134  31.056  12.610   1.481
58875W        W24135  12.162  10.268  11.082
58876W        W24136  37.197   2.455   4.516
58877W        W24137   7.753   7.099   1.888
58878W        W24138   5.415  19.221  10.504
58879W        W24139  26.538   2.523   1.254
58880W        W24140   0.925   9.637  13.298
58881W        W24141  42.958  40.835  10.662
58882W        W24142  28.690   8.124  12.578
58883W        W24143   4.778  42.060   4.581
58884W        W24144  39.440  21.340  12.480
58885W        W24145  31.506  14.074   5.089
58886W        W24146  41.895  26.100   4.765
58887W        W24147  18.255  17.351   2.942
58888W        W24148  17.389  25.288   0.781
58889W        W24149  15.521  38.390   2.795
58890W        W24150  35.658  21.704  11.113
58891W        W24151  22.765  44.339   5.103
58892W        W24152   1.002  16.604   0.724
58893W        W24153   5.857   1.423   1.570
58894W        W24154  24.993  16.433   4.051
58895W        W24155  16.735  36.086  10.628
58896W        W24156  35.632  43.922   0.250
58897W        W24157  12.600  26.177  14.430
58898W        W24158   4.862  37.576  13.931
58899W        W24159  40.923   2.691  10.675
58900W        W24160  31.834  31.416  13.902
58901W        W24161  11.212  30.081  12.170
58902W        W24162  41.440  35.369   3.646
58903W        W24163  34.216  44.544  12.336
58904W        W24164  28.503  35.085   3.274
58905W        W24165   0.064   7.748   1.158
58906W        W24166  20.099  30.867   0.257
58907W        W24167  31.018  24.381  10.694
58908W        W24168  39.092  13.690  11.007
58909W        W24169  21.963  44.909   1.871
58910W        W24170  17.770   4.297  10.585
58911W        W24171   3.883   6.609  11.138
58912W        W24172   2.679  33.987  13.531
58913W        W24173   7.851  29.467   3.381
58914W        W24174  27.887  20.138   2.832
58915W        W24175  44.995   7.754  13.460
58916W        W24176  37.874   7.430   0.448
58917W        W24177  14.602   3.027   1.241
58918W        W24178  36.333  15.749  14.474
58919W        W24179   7.064  17.376   4.570
58920W        W24180  29.887  14.385   4.018
58921W        W24181  44.445   3.416   3.501
58922W        W24182  39.232  35.452  13.527
58923W        W24183  30.176  16.270  12.045
58924W        W24184  17.637   7.232   4.973
58925W        W24185  29.547   3.847   2.499
58926W        W24186  23.062  38.943   2.152
58927W        W24187  35.538  42.821   4.948
58928W        W24188  22.569  29.085   2.467
58929W        W24189  31.549  34.831   0.391
58930W        W24190  27.453  29.838   1.842
58931W        W24191  35.529  26.210  14.823
58932W        W24192   3.263  39.492  14.384
58933W        W24193   1.580  44.911  10.824
58934W        W24194  38.318  42.465   5.033
58935W        W24195   9.220  19.296   3.657
58936W        W24196  31.879  21.543   1.719
58937W        W24197  33.604  37.261  10.550
58938W        W24198  10.230  19.343   2.250
58939W        W24199  32.594  16.571   0.632
58940W        W24200  26.611   0.597  14.242
58941W        W24201   8.919  19.286   2.688
58942W        W24202  22.197  25.835   3.240
58943W        W24203  41.367  15.499  13.826
58944W        W24204  28.958  12.596  14.657
58945W        W24205  28.637  24.113  14.293
58946W        W24206  26.514  29.166   4.823
58947W        W24207  15.199   4.229   2.683
58948W        W24208  24.748  15.997  14.974
58949W        W24209  15.188  19.031   0.856
58950W        W24210  24.553  14.771   3.793
58951W        W24211  23.193  41.447   1.838
58952W        W24212  15.324  30.253   4.192
58953W        W24213  15.112   4.337  14.454
58954W        W24214  44.099   9.369   4.706
58955W        W24215  15.979  42.813  12.239
58956W        W24216  20.778  15.784  14.202
58957W        W24217  36.346  17.765   3.137
58958W        W24218  15.711  42.224   1.431
58959W        W24219  25.856  36.972   9.701
58960W        W24220  14.848  10.455  14.849
58961W        W24221  36.432   6.153   3.149
58962W        W24222  11.790   0.959  10.899
58963W        W24223  42.988  15.229  11.564
58964W        W24224  40.327  44.496   4.483
58965W        W24225  13.180  37.096   3.409
58966W        W24226   6.872  21.599  11.173
58967W        W24227  13.184  22.775  13.119
58968W        W24228  27.603  43.059   2.692
58969W        W24229  43.461  35.546  13.918
58970W        W24230  42.276  37.977   4.415
58971W        W24231  42.280  10.597   2.793
58972W        W24232   5.151  27.738  12.107
58973W        W24233   9.679  28.680   9.981
58974W        W24234   5.573   5.699   1.998
58975W        W24235   7.473   9.922  12.410
58976W        W24236  33.441  44.251   5.030
58977W        W24237  19.064  14.382   2.738
58978W        W24238  19.131  38.608  10.980
58979W        W24239  37.959  20.540  11.087
58980W        W24240  19.934  13.216   1.307
58981W        W24241   2.874   5.278  14.039
58982W        W24242  26.039  12.439   4.703
58983W        W24243  20.683   9.319  14.359
58984W        W24244   9.806  12.946   4.638
58985W        W24245  16.746  14.257  13.336
58986W        W24246  16.096  17.212  12.370
58987W        W24247  32.577  24.150   5.352
58988W        W24248   4.699  33.920  10.720
58989W        W24249  13.671  39.803   1.787
58990W        W24250  24.632  29.971  13.914
58991W        W24251  43.211  43.594  13.003
58992W        W24252  40.432  16.247   1.984
58993W        W24253  20.594  12.090  14.780
58994W        W24254  44.485  28.549   2.692
58995W        W24255  14.666  16.250   0.229
58996W        W24256  19.198  42.461  13.362
58997W        W24257  12.166  42.756  10.231
58998W        W24258  14.765   9.693  13.038
58999W        W24259   8.724  39.101  12.852
59000W        W24260  23.956  24.465  10.838
59001W        W24261  14.727  33.092   1.445
59002W        W24262  19.258  23.271   5.495
59003W        W24263  14.412  35.384   4.217
59004W        W24264  29.992  38.132   1.669
59005W        W24265  12.888   9.957   5.404
59006W        W24266  40.102  29.419  12.678
59007W        W24267  28.380  12.246  12.987
59008W        W24268  18.546  25.862  13.648
59009W        W24269  10.904  19.676  12.590
59010W        W24270  38.524  25.607  13.565
59011W        W24271  40.157  37.509   4.818
59012W        W24272  10.222  23.670  11.959
59013W        W24273  16.641  26.060   2.198
59014W        W24274  27.565   5.244   2.369
59015W        W24275  22.063  23.767   0.366
59016W        W24276  44.410  37.085  13.989
59017W        W24277   1.830  25.592  11.796
59018W        W24278  38.850  31.949  11.085
59019W        W24279   6.286   4.483   1.433
59020W        W24280  41.611  24.657  12.583
59021W        W24281  42.679   7.017  13.388
59022W        W24282  36.010  10.683   4.113
59023W        W24283  42.501  25.717  11.156
59024W        W24284  11.337  22.764   4.664
59025W        W24285  14.270  15.767   3.548
59026W        W24286  39.989  16.135   1.746
59027W        W24287  15.655  34.892   0.918
59028W        W24288  43.422  35.080  13.001
59029W        W24289  13.107  35.075  10.456
59030W        W24290   5.435  12.623   3.260
59031W        W24291  32.015  14.648   2.970
59032W        W24292  39.294  24.180  11.417
59033W        W24293  30.209  30.679  11.092
59034W        W24294  37.279  28.950  13.409
59035W        W24295   8.740  10.329   2.758
59036W        W24296  34.388  36.424  14.928
59037W        W24297   5.950  31.147   0.271
59038W        W24298  19.990   7.250  13.014
59039W        W24299  18.567  31.006  12.758
59040W        W24300  15.562  27.986  11.060
59041W        W24301  20.288  26.552  10.181
59042W        W24302  35.010  38.879   0.454
59043W        W24303  29.643   3.856  13.538
59044W        W24304  23.390  21.279  11.570
59045W        W24305   0.573   5.246   2.491
59046W        W24306  18.688  27.793  12.362
59047W        W24307  31.007   3.419   4.967
59048W        W24308  17.594  21.734  11.307
59049W        W24309  41.849   4.789   4.059
59050W        W24310  34.615   8.423   4.569
59051W        W24311  41.351  21.650   3.565
59052W        W24312  15.383  31.783  13.313
59053W        W24313  30.820  26.052   0.191
59054W        W24314  35.294  29.728   1.658
59055W        W24315  26.197  22.098   4.957
59056W        W24316   7.403  24.123   2.352
59057W        W24317  42.876  41.532   1.850
59058W        W24318  19.847   7.335  12.058
59059W        W24319  16.097  16.111   0.439
59060W        W24320  42.268  28.620   4.232
59061W        W24321  23.662  17.813   2.250
59062W        W24322   1.557  27.469  12.548
59063W        W24323  18.780  20.006  12.385
59064W        W24324  33.390  23.060  13.988
59065W        W24325  14.260  44.991   2.252
59066W        W24326   7.719  25.237   1.997
59067W        W24327  42.719  38.108  14.545
59068W        W24328  35.640   7.527   2.186
59069W        W24329   4.882  25.592  13.411
59070W        W24330  35.123  16.707  12.681
59071W        W24331  15.066  21.284   0.372
59072W        W24332  42.881  43.979  12.083
59073W        W24333  30.891  39.021   5.096
59074W        W24334  10.786  33.554  11.000
59075W        W24335  25.207  27.969   2.918
59076W        W24336  17.323   9.210   4.354
59077W        W24337   2.779  35.918   3.377
59078W        W24338   4.920  40.062   4.863
59079W        W24339  29.526  36.878  11.452
59080W        W24340  35.182   7.195   5.031
59081W        W24341  41.956  17.468   3.624
59082W        W24342  44.422  12.328   4.101
59083W        W24343  20.572   0.776   4.787
59084W        W24344   4.753   4.534  12.803
59085W        W24345  25.307  25.994   4.169
59086W        W24346  17.210  38.105   4.069
59087W        W24347  22.739  30.762  11.163
59088W        W24348  26.984  31.968  12.047
59089W        W24349   8.173  33.438  13.730
59090W        W24350  32.872   0.960  12.050
59091W        W24351  42.535  11.114   5.305
59092W        W24352   5.254  30.253   2.141
59093W        W24353   6.276   9.348  14.983
59094W        W24354  28.590   5.350  13.796
59095W        W24355  21.647  27.750  12.321
59096W        W24356  14.691  44.309  13.913
59097W        W24357   7.366  23.547  12.188
59098W        W24358  38.971  41.490  14.431
59099W        W24359  26.783   5.920   1.208
59100W        W24360  29.744  15.196  11.412
59101W        W24361   7.702  11.380   4.900
59102W        W24362  14.813  27.110  14.843
59103W        W24363  15.079   6.529   9.801
59104W        W24364  38.082  42.956  14.521
59105W        W24365  39.515  25.765  12.290
59106W        W24366  13.833  29.261  10.733
59107W        W24367   5.731  14.130  14.060
59108W        W24368  15.688  10.931  13.262
59109W        W24369  14.016   2.435   1.630
59110W        W24370  23.164   0.876   2.727
59111W        W24371  12.866  43.839   4.783
59112W        W24372  11.635   6.692   4.563
59113W        W24373  34.105  24.643  13.958
59114W        W24374  23.712  40.460   2.565
59115W        W24375  41.643   2.779  13.751
59116W        W24376  38.769  38.798  10.696
59117W        W24377   1.690   5.118  13.521
59118W        W24378  37.329  35.402  12.041
59119W        W24379   1.880   5.625   1.385
59120W        W24380   9.124  30.963   3.023
59121W        W24381  42.540  42.873   2.250
59122W        W24382   2.241   0.721  12.377
59123W        W24383  34.017  20.135  11.676
59124W        W24384  37.697  31.003  10.751
59125W        W24385  41.026  11.389  11.549
59126W        W24386   2.648  36.005  12.289
59127W        W24387  32.422   5.487   2.772
59128W        W24388  13.197  21.227  10.782
59129W        W24389   2.895  16.648   3.594
59130W        W24390  17.984  25.678  11.484
59131W        W24391  40.840  14.299  10.722
59132W        W24392   8.139  27.100   0.843
59133W        W24393  44.590  19.801  13.222
59134W        W24394  15.815  23.545   0.312
59135W        W24395   1.064  20.942   2.186
59136W        W24396  36.896  17.799  11.825
59137W        W24397   1.752  21.082   1.347
59138W        W24398  39.341  10.184   2.763
59139W        W24399   0.586  11.168   1.783
59140W        W24400  41.111  14.727  14.706
59141W        W24401  19.324  37.613   3.895
59142W        W24402  41.177  36.327   0.747
59143W        W24403  18.038  17.911  11.928
59144W        W24404  40.563   1.181   4.120
59145W        W24405   5.783  32.372  12.365
59146W        W24406  44.387  18.966  12.052
59147W        W24407  32.309  37.383   0.794
59148W        W24408  38.011  12.331  11.585
59149W        W24409  21.494   9.729   3.276
59150W        W24410  39.707   0.874   3.551
59151W        W24411  19.038  14.198   3.338
59152W        W24412  13.741  33.604  10.684
59153W        W24413  17.557  27.735   1.401
59154W        W24414  34.087  31.470   1.086
59155W        W24415  32.110  36.530   0.234
59156W        W24416  27.432  19.194  12.137
59157W        W24417   9.089  28.208  12.469
59158W        W24418   3.277  44.217  12.484
59159W        W24419  27.227  20.267  11.124
59160W        W24420   7.615  16.892   4.179
59161W        W24421  21.506  31.932  13.113
59162W        W24422  25.710  39.024  12.970
59163W        W24423  24.468   1.149  14.508
59164W        W24424  40.453  29.907   4.559
59165W        W24425  20.099  41.496   3.159
59166W        W24426  31.063  42.745   0.712
59167W        W24427  39.562   8.633  12.990
59168W        W24428  12.189  19.909   2.883
59169W        W24429  15.078  21.480   0.831
59170W        W24430  10.261   2.786   2.383
59171W        W24431   5.871  38.321   4.448
59172W        W24432   0.930  28.425   4.115
59173W        W24433  13.519  40.933  12.182
59174W        W24434  30.271   8.420  12.586
59175W        W24435  15.178  14.155  10.913
59176W        W24436  29.598  24.511  14.416
59177W        W24437  21.933  39.852  11.582
59178W        W24438   8.799  42.770   3.728
59179W        W24439  30.636  28.002  11.603
59180W        W24440   3.621  26.717   2.130
59181W        W24441  27.251  11.246   1.707
59182W        W24442  41.331  29.983  12.903
59183W        W24443  32.598  43.241  11.139
59184W        W24444  18.187   2.368   4.680
59185W        W24445  15.197  29.014  10.683
59186W        W24446  14.809  17.431  11.466
59187W        W24447  12.654  15.281  11.661
59188W        W24448  25.826  22.009   4.604
59189W        W24449  10.660  35.247   3.427
59190W        W24450  29.150  39.500  11.626
59191W        W24451  31.151  12.578   0.986
59192W        W24452  25.088   2.811  11.516
59193W        W24453   9.080  37.468   4.184
59194W        W24454  42.749   1.504  11.067
59195W        W24455  11.206   4.261  14.362
59196W        W24456  11.859  44.315  10.141
59197W        W24457  22.519   2.249  12.575
59198W        W24458  34.583  33.563  10.394
59199W        W24459  29.110   9.878   0.101
59200W        W24460   4.075  28.809  14.090
59201W        W24461   8.968  15.089   3.675
59202W        W24462  33.451  11.078   1.301
59203W        W24463  28.715  31.979  10.979
59204W        W24464   4.210  13.787   1.923
59205W        W24465   1.249  10.708   0.666
59206W        W24466   1.955  10.692  11.340
59207W        W24467   5.159   8.641   2.793
59208W        W24468   3.807  12.602   1.907
59209W        W24469  16.035   8.106  11.459
59210W        W24470  38.500   8.277   1.107
59211W        W24471  27.165   3.187   4.765
59212W        W24472  10.146  35.163   2.388
59213W        W24473  43.833  22.051  10.692
59214W        W24474  43.934  30.568  13.618
59215W        W24475  14.814  40.907   3.894
59216W        W24476  38.643  43.722   3.378
59217W        W24477   3.908  41.221   1.830
59218W        W24478  29.442  29.792   2.386
59219W        W24479   5.809   4.293   1.428
59220W        W24480   4.247  30.197   3.945
59221W        W24481  41.417  22.533  14.717
59222W        W24482  21.812  44.472  11.570
59223W        W24483  10.638  37.447   1.352
59224W        W24484  33.837  33.062   3.620
59225W        W24485  43.512  38.907   4.644
59226W        W24486  23.098  34.609   0.500
59227W        W24487   9.369  22.016   1.258
59228W        W24488  13.204  42.084  14.009
59229W        W24489  19.575   0.887   0.272
59230W        W24490   4.359  17.713   3.315
59231W        W24491  27.550  18.168  12.541
59232W        W24492  36.530  29.762   2.661
59233W        W24493  26.152   5.407  11.278
59234W        W24494  23.618  20.913  11.919
59235W        W24495  37.037   0.546  13.021
59236W        W24496  28.489  39.475  10.938
59237W        W24497   8.271  23.220  12.951
59238W        W24498   9.403  37.365  13.986
59239W        W24499  43.040  19.541  13.987
59240W        W24500  41.330  18.630  12.951
59241W        W24501  44.664  41.091  11.608
59242W        W24502   4.388  37.823   4.744
59243W        W24503  39.553   7.356   3.749
59244W        W24504  16.698  10.313  11.682
59245W        W24505  24.105  11.621   4.597
59246W        W24506   9.360  40.539  11.257
59247W        W24507  35.458  41.303  13.978
59248W        W24508  20.232   6.663   4.766
59249W        W24509   9.224  11.524  12.987
59250W        W24510  11.458  39.000  14.837
59251W        W24511  14.202  30.346   3.161
59252W        W24512  21.888  37.485  10.637
59253W        W24513  16.875   1.456  14.726
59254W        W24514   7.194  44.245   2.351
59255W        W24515  17.232  40.936   3.262
59256W        W24516  13.120   9.036   4.478
59257W        W24517  28.427  43.026   0.757
59258W        W24518  20.727  32.957  13.167
59259W        W24519   5.736  30.516  10.615
59260W        W24520  16.062   4.302   0.978
59261W        W24521  12.744  22.867   2.912
59262W        W24522  16.131  15.102   4.610
59263W        W24523  25.889  44.162   2.386
59264W        W24524  14.805  11.354  14.000
59265W        W24525  20.423  36.464  11.353
59266W        W24526  32.638  43.911  10.548
59267W        W24527  43.821   5.406   4.501
59268W        W24528  26.968  21.573   2.805
59269W        W24529  25.279  43.934   3.041
59270W        W24530  15.735   4.713   4.447
59271W        W24531  29.500  42.860  14.751
59272W        W24532  43.804  32.358   2.874
59273W        W24533  37.336  20.588   1.136
59274W        W24534   3.635  40.602  14.511
59275W        W24535   9.305   0.069  12.309
59276W        W24536  43.963  15.080   1.313
59277W        W24537   5.553  22.418   1.652
59278W        W24538  31.588   2.564  13.494
59279W        W24539  36.470  42.946   0.852
59280W        W24540  44.351  19.297  13.065
59281W        W24541   6.414  10.512  11.998
59282W        W24542  33.904  14.896   3.158
59283W        W24543   6.213  15.833  13.805
59284W        W24544  12.686  39.083  14.450
59285W        W24545  36.223  30.001  10.549
59286W        W24546   3.005   1.735  11.192
59287W        W24547  20.276   6.215   0.803
59288W        W24548  14.291  42.907   1.091
59289W        W24549  32.990  33.530  14.232
59290W        W24550  20.151  23.670  11.142
59291W        W24551  34.470  34.472   0.063
59292W        W24552  43.732  38.461  14.787
59293W        W24553  10.645   2.382   1.200
59294W        W24554   1.395   0.769  13.472
59295W        W24555  20.159  10.779  11.401
59296W        W24556  21.674  15.736   1.383
59297W        W24557  31.768   1.714   2.820
59298W        W24558   4.097  43.566  13.237
59299W        W24559  24.088  19.102  12.112
59300W        W24560  23.620  40.789  12.840
59301W        W24561  17.817  20.276  12.615
59302W        W24562   3.717   9.425  13.127
59303W        W24563  41.508  10.598   3.249
59304W        W24564  17.718  38.596   2.221
59305W        W24565  28.381  22.050   0.310
59306W        W24566   5.736  43.098  14.863
59307W        W24567  34.702  40.650  10.589
59308W        W24568  24.661  14.858   2.853
59309W        W24569  28.631  22.469  12.546
59310W        W24570  22.638  13.946   3.236
59311W        W24571  34.571   4.693   0.629
59312W        W24572  33.751  17.358  11.063
59313W        W24573  30.943  41.899  11.490
59314W        W24574   4.990  28.760  13.312
59315W        W24575  43.349  43.217  10.925
59316W        W24576  18.620  34.597  11.999
59317W        W24577  27.864  26.966  11.990
59318W        W24578  34.118  13.952   1.340
59319W        W24579  40.517  32.500  14.591
59320W        W24580  19.077  19.157  14.406
59321W        W24581  25.656   6.458   2.935
59322W        W24582   6.228  40.326   4.150
59323W        W24583  40.239   7.587  10.551
59324W        W24584  11.437  18.095   4.997
59325W        W24585  20.004   1.018  12.899
59326W        W24586   4.871  17.209  14.475
59327W        W24587  34.944  33.315   4.204
59328W        W24588   8.381  41.324  12.019
59329W        W24589  10.283  31.586  12.853
59330W        W24590  24.487  20.364   0.386
59331W        W24591  27.303   4.878   3.936
59332W        W24592   9.581   9.779   1.028
59333W        W24593  27.630   6.949  14.099
59334W        W24594  34.399  13.327  13.975
59335W        W24595  19.596  13.958  14.059
59336W        W24596  33.566  18.327   3.770
59337W        W24597  15.225   9.585  11.648
59338W        W24598  24.165  25.416  11.533
59339W        W24599   5.491  25.311   5.024
59340W        W24600   4.189   3.381  10.617
59341W        W24601   4.040   5.961  13.434
59342W        W24602  34.558  11.857  14.076
59343W        W24603  15.274  38.438  12.392
59344W        W24604  12.267  13.812  11.649
59345W        W24605  20.113  23.754  11.964
59346W        W24606  14.309  15.599   4.582
59347W        W24607  32.140  34.497   3.328
59348W        W24608  14.636  43.367   4.873
59349W        W24609  38.759   2.825   3.676
59350W        W24610  17.465  13.842  11.179
59351W        W24611  36.151  30.471   3.212
59352W        W24612   6.477  14.871   0.003
59353W        W24613   7.157  11.976  11.027
59354W        W24614  21.063   2.825   0.832
59355W        W24615  27.746  18.160   4.724
59356W        W24616  19.230  18.894  10.953
59357W        W24617  13.206  29.903   0.274
59358W        W24618  14.889  18.283  14.337
59359W        W24619  25.124  15.010   1.871
59360W        W24620  31.557  30.296  10.932
59361W        W24621  22.552  34.303  11.993
59362W        W24622  13.053  35.008   4.047
59363W        W24623  36.800  43.817  12.326
59364W        W24624  12.687   2.031   4.662
59365W        W24625  21.556  17.059  12.537
59366W        W24626  14.402  12.818   4.264
59367W        W24627  15.820  13.501   3.649
59368W        W24628   7.273   1.360   2.849
59369W        W24629   4.717  12.705   3.701
59370W        W24630  36.932  35.350  13.972
59371W        W24631   6.636  32.439   0.344
59372W        W24632  20.210  29.167   4.338
59373W        W24633   9.221   5.263  12.968
59374W        W24634  44.146  44.522   4.624
59375W        W24635  24.629  29.349  11.589
59376W        W24636  24.997  12.073   3.666
59377W        W24637  35.810  27.092  10.704
59378W        W24638   6.471  33.132  11.147
59379W        W24639  31.973  15.767   0.289
59380W        W24640  14.321  44.182   2.734
59381W        W24641  29.915  22.038   4.146
59382W        W24642  16.993  43.468   3.384
59383W        W24643  42.762  30.374  14.507
59384W        W24644   3.316  18.802   2.929
59385W        W24645  28.857  30.391   2.746
59386W        W24646  11.742  38.427   2.329
59387W        W24647  20.128  27.729   1.498
59388W        W24648  29.060   0.003  14.818
59389W        W24649  31.418   9.102  11.998
59390W        W24650   6.150  25.215   0.096
59391W        W24651  26.639  40.730  11.955
59392W        W24652  42.199  43.755   1.303
59393W        W24653   0.505  31.963  14.565
59394W        W24654  10.132  10.554   1.378
59395W        W24655  24.428  27.592  11.893
59396W        W24656  44.962  16.092  11.912
59397W        W24657   1.807  38.151  11.611
59398W        W24658   3.197  10.254  13.391
59399W        W24659  29.902   8.985  10.924
59400W        W24660   4.685  17.169  12.983
59401W        W24661  30.949  15.901   1.885
59402W        W24662   8.156  22.479   2.304
59403W        W24663  38.461  19.584  10.757
59404W        W24664  35.981  23.678  10.426
59405W        W24665  31.954  19.654  14.080
59406W        W24666  37.528  29.577   2.421
59407W        W24667   3.558   5.391   0.380
59408W        W24668  24.627   6.318   2.752
59409W        W24669   8.826   0.586   3.588
59410W        W24670   6.841   5.413   0.757
59411W        W24671  33.952  40.041  13.490
59412W        W24672  16.051  24.524  12.144
59413W        W24673  11.743  31.932  13.351
59414W        W24674  20.632   0.733  12.109
59415W        W24675  41.447  35.868  13.510
59416W        W24676  30.620   1.019   2.837
59417W        W24677  32.144  28.394  14.920
59418W        W24678   0.789  40.568  14.380
59419W        W24679  21.522  37.084   0.501
59420W        W24680  42.457  25.063  13.553
59421W        W24681   1.835  43.289  10.727
59422W        W24682  11.320  26.819   3.156
59423W        W24683  39.529  24.773   2.589
59424W        W24684  32.980  35.012   3.378
59425W        W24685  37.433  28.173   2.705
59426W        W24686   7.585   6.173   4.985
59427W        W24687  16.789  15.096   0.279
59428W        W24688  12.159  21.059   4.550
59429W        W24689  20.574  40.828  12.786
59430W        W24690   9.641  25.055  10.198
59431W        W24691   0.995  14.161   4.120
59432W        W24692  22.750  31.077   3.464
59433W        W24693  14.812   7.212   4.229
59434W        W24694  13.775  23.462  10.685
59435W        W24695  12.433   5.159   3.759
59436W        W24696  44.846  17.242   0.930
59437W        W24697  41.142  43.505  12.115
59438W        W24698  27.139  17.201  13.291
59439W        W24699  26.416  17.439   4.952
59440W        W24700  33.788   1.286   2.377
59441W        W24701  29.095  42.989  12.475
59442W        W24702   6.286  24.886  14.255
59443W        W24703   5.466  11.252  14.142
59444W        W24704   5.693   6.842  11.130
59445W        W24705  29.186  26.186  13.925
59446W        W24706  15.464  40.937   4.706
59447W        W24707  15.437   4.687   2.707
59448W        W24708  19.476   6.200  10.740
59449W        W24709  24.666  36.088  13.095
59450W        W24710  16.757  40.382  13.319
59451W        W24711  21.869  13.505  11.669
59452W        W24712  20.584  23.997  11.986
59453W        W24713  42.156  21.266   2.811
59454W        W24714   5.522  41.424   2.290
59455W        W24715  31.507  40.594   0.351
59456W        W24716  18.361  33.472  14.209
59457W        W24717  14.781  38.109   2.726
59458W        W24718  27.925  24.097  11.432
59459W        W24719  34.773  34.792   4.227
59460W        W24720  36.865  39.527   3.866
59461W        W24721  26.916  22.502   2.768
59462W        W24722  38.123  35.479  14.627
59463W        W24723  13.105   3.202   4.944
59464W        W24724  25.959  19.589   1.011
59465W        W24725  15.792  25.995   4.595
59466W        W24726  25.323  11.820   4.941
59467W        W24727  22.818  38.972   3.551
59468W        W24728  39.389  25.160   2.922
59469W        W24729  23.839  36.368   1.296
59470W        W24730   9.895  23.149   1.233
59471W        W24731  44.941  23.756  12.505
59472W        W24732   7.621  44.253   0.844
59473W        W24733  30.108   3.772   4.732
59474W        W24734   1.253  32.602   0.853
59475W        W24735  17.301  33.894   3.305
59476W        W24736  40.529  31.036   2.174
59477W        W24737  42.003  18.028  14.046
59478W        W24738  13.813  21.312   2.394
59479W        W24739  43.715  39.570   3.016
59480W        W24740  38.417  14.706   0.887
59481W        W24741  17.939  14.390  11.684
59482W        W24742  25.640  44.933   2.165
59483W        W24743   1.850  33.533   1.667
59484W        W24744  12.355  44.909   3.844
59485W        W24745  41.871  25.682  12.435
59486W        W24746  43.927  19.270  13.351
59487W        W24747   4.711  25.310  13.892
59488W        W24748  27.378  21.479   2.376
59489W        W24749  33.662  29.885   2.748
59490W        W24750  44.299  44.231   3.319
59491W        W24751   4.039  22.774  10.700
59492W        W24752   2.066  14.731  14.397
59493W        W24753  14.791  21.443  12.895
59494W        W24754   5.853  34.113   3.705
59495W        W24755   6.120  29.598   1.306
59496W        W24756   8.037  31.681   2.682
59497W        W24757  44.849  38.932  14.479
59498W        W24758  25.017  21.016  12.953
59499W        W24759  32.620  25.413  12.954
59500W        W24760  42.469   5.700   4.262
59501W        W24761  38.319  32.620   3.258
59502W        W24762  35.486  16.330  13.772
59503W        W24763  15.600  25.546  13.459
59504W        W24764  44.516  27.930   0.870
59505W        W24765  38.082   6.337  11.684
59506W        W24766   4.773   0.563   4.960
59507W        W24767   5.461  27.458  12.460
59508W        W24768  43.531  28.862  11.031
59509W        W24769  39.994   7.185  13.572
59510W        W24770  21.280  18.914  11.561
59511W        W24771  21.363  19.639   2.648
59512W        W24772  19.208  37.072   1.831
59513W        W24773  14.134  14.398   2.649
59514W        W24774  42.652  17.623  11.160
59515W        W24775  11.918  12.245   1.317
59516W        W24776  13.948  44.050  10.888
59517W        W24777  43.437  30.830   1.177
59518W        W24778  13.442   6.147  12.888
59519W        W24779  22.687  33.207  10.926
59520W        W24780  16.115  43.123   1.385
59521W        W24781  24.556  11.848   4.491
59522W        W24782  40.347  41.268   1.824
59523W        W24783  24.686   1.872   0.317
59524W        W24784  25.151  34.942  10.518
59525W        W24785  10.268  10.864  12.392
59526W        W24786  39.897   0.249  12.488
59527W        W24787  17.237  31.875   0.694
59528W        W24788  38.010  41.132   0.916
59529W        W24789  37.671   6.323  10.749
59530W        W24790  15.717  41.815   4.057
59531W        W24791  32.637  34.139  13.175
59532W        W24792  33.265   0.809   3.704
59533W        W24793  17.576  35.067  12.540
59534W        W24794   2.484   8.580  12.075
59535W        W24795  43.335  24.268   1.330
59536W        W24796   6.782  29.882   0.283
59537W        W24797  22.088  30.922  14.764
59538W        W24798  16.036  27.259   2.744
59539W        W24799  23.828  16.141   0.411
59540W        W24800  40.518   9.980  10.857
59541W        W24801  23.442  24.982  12.513
59542W        W24802  28.212   1.876  11.246
59543W        W24803  23.253  27.494   2.747
59544W        W24804  36.536  16.110   3.234
59545W        W24805  33.044   1.237   2.853
59546W        W24806   6.949  18.338  12.365
59547W        W24807  13.199  14.340   2.806
59548W        W24808  40.777  31.704  11.638
59549W        W24809  26.575  30.012   1.484
59550W        W24810  42.887  20.178  12.886
59551W        W24811  28.650   8.968   0.273
59552W        W24812  17.095  40.744   0.042
59553W        W24813   3.001   6.699   1.449
59554W        W24814  25.639   9.786  13.094
59555W        W24815   4.507  38.326  12.039
59556W        W24816  41.437  16.625   1.347
59557W        W24817  15.843  20.797   0.839
59558W        W24818   7.644   6.375  11.632
59559W        W24819  28.214  20.781  13.766
59560W        W24820   3.938  27.199   1.233
59561W        W24821  26.621  27.962   2.607
59562W        W24822   9.434  35.368   2.822
59563W        W24823  16.627  37.521   4.648
59564W        W24824   5.124  39.567  14.905
59565W        W24825  31.468   1.304  12.045
59566W        W24826   0.383  41.404   4.692
59567W        W24827  30.524  43.056  12.390
59568W        W24828   4.884  44.599  14.141
59569W        W24829  12.295  16.294  14.132
59570W        W24830  20.742  43.268   4.580
59571W        W24831  26.951  22.095  11.860
59572W        W24832   0.591  34.442   0.517
59573W        W24833   2.722  13.380  14.352
59574W        W24834   6.774  29.537  13.882
59575W        W24835  42.470   0.248   1.631
59576W        W24836   9.763  15.593   4.281
59577W        W24837  23.015  31.223  13.440
59578W        W24838  36.574  43.329  13.459
59579W        W24839   1.357  42.596   1.314
59580W        W24840  16.834  11.407  14.973
59581W        W24841  26.600  31.125  11.947
59582W        W24842  13.281  20.725   0.438
59583W        W24843  22.180  31.893   0.683
59584W        W24844  21.109  11.760   0.289
59585W        W24845  16.704  10.838  10.748
59586W        W24846  21.137  15.728   2.651
59587W        W24847  42.582   0.721   3.812
59588W        W24848  40.708   3.173   1.428
59589W        W24849  19.185   4.371   1.489
59590W        W24850   7.893  25.729   1.861
59591W        W24851  28.569  27.938  12.226
59592W        W24852  30.006   9.319  10.516
59593W        W24853  40.530   9.808  11.973
59594W        W24854  36.063  13.219   3.363
59595W        W24855  22.004   0.676  13.147
59596W        W24856  27.366  36.788  10.055
59597W        W24857  16.827  33.331   3.695
59598W        W24858   4.547  16.317   1.561
59599W        W24859  22.044  38.569  14.305
59600W        W24860  14.930  26.020  14.857
59601W        W24861  41.480  11.987  12.985
59602W        W24862  13.066  41.021   3.341
59603W        W24863  13.612  40.146   1.338
59604W        W24864  19.295  15.271  12.013
59605W        W24865  19.228  11.471   3.177
59606W        W24866  42.447  39.334   2.168
59607W        W24867  18.635  35.569   4.112
59608W        W24868  16.794  41.328   1.357
59609W        W24869  13.010   4.681  11.207
59610W        W24870  11.826   7.793  11.525
59611W        W24871  10.898  14.230  12.240
59612W        W24872  17.732  24.967  12.603
59613W        W24873  22.548  26.785  13.808
59614W        W24874   4.117  16.646   0.042
59615W        W24875   3.720  29.806   0.563
59616W        W24876  33.465   4.272  11.642
59617W        W24877  39.569  27.583   3.320
59618W        W24878  23.722  38.748   4.947
59619W        W24879   6.740  30.436  10.565
59620W        W24880  15.822  28.108  11.516
59621W        W24881  42.390  13.258  12.392
59622W        W24882   0.476   8.964  14.535
59623W        W24883   5.317  19.257  11.469
59624W        W24884  21.457  10.208   1.672
59625W        W24885   1.068   0.217  12.137
59626W        W24886  28.987  26.711   2.837
59627W        W24887  31.633   0.439   0.942
59628W        W24888  21.987   4.006   2.158
59629W        W24889  33.928  10.285   1.625
59630W        W24890  40.351  23.443   3.664
59631W        W24891  12.125   3.388   1.376
59632W        W24892  30.113  23.211  11.016
59633W        W24893  25.563  29.614   3.200
59634W        W24894  16.256  28.991   3.207
59635W        W24895  19.293  14.774  11.940
59636W        W24896   9.284   7.890  11.900
59637W        W24897  44.613  40.246  11.978
59638W        W24898   9.001  24.659  14.067
59639W        W24899   0.850  30.149  14.573
59640W        W24900   1.016   0.373  13.172
59641W        W24901   1.455  22.737   0.882
59642W        W24902  20.711  10.291   2.861
59643W        W24903  10.786   7.669   2.197
59644W        W24904  33.180   3.693   2.281
59645W        W24905   9.337  11.137  10.898
59646W        W24906  41.186   7.836   4.204
59647W        W24907   4.887  30.971  11.514
59648W        W24908   4.157  35.968   0.343
59649W        W24909  27.684  16.159  10.363
59650W        W24910  20.800  38.809   0.733
59651W        W24911  24.245   1.830   5.014
59652W        W24912  44.040  33.023   3.203
59653W        W24913   5.997  24.459  12.735
59654W        W24914  32.935  10.140   4.641
59655W        W24915  34.542  13.558  13.527
59656W        W24916  16.688  30.638  13.748
59657W        W24917  19.293  24.021  11.921
59658W        W24918  21.252  34.382  13.208
59659W        W24919  25.243   7.648   0.227
59660W        W24920   9.176  43.071  13.308
59661W        W24921   2.410  24.318  12.006
59662W        W24922  18.844  24.105   0.314
59663W        W24923  40.094  30.531   0.310
59664W        W24924   9.150  30.738  11.163
59665W        W24925  34.826  28.887   4.570
59666W        W24926  42.869   9.289   1.014
59667W        W24927  40.941   6.833   3.330
59668W        W24928  23.581  20.926   2.193
59669W        W24929  10.509   8.765   4.171
59670W        W24930  41.222  42.942   3.664
59671W        W24931  29.272  33.548   0.298
59672W        W24932  21.080  34.494  14.187
59673W        W24933   3.579  15.078  12.318
59674W        W24934  43.018   7.840  14.833
59675W        W24935  22.121  12.343   0.850
59676W        W24936   9.150  35.734  11.680
59677W        W24937  38.391  33.149   4.517
59678W        W24938  23.281  10.959  11.104
59679W        W24939  33.978  34.623  11.722
59680W        W24940  41.729  11.376  13.760
59681W        W24941  38.101   7.541   1.315
59682W        W24942   0.666  15.689  14.343
59683W        W24943  19.857  32.806   1.328
59684W        W24944  14.323  24.085   1.912
59685W        W24945  32.083  12.774  11.189
59686W        W24946  30.015  27.202  11.901
59687W        W24947   7.209  23.610   3.241
59688W        W24948   4.186   2.355  14.354
59689W        W24949  13.223   0.706   3.155
59690W        W24950  39.069  23.774  10.687
59691W        W24951   3.361  36.599   4.135
59692W        W24952  11.588  28.639  14.609
59693W        W24953  37.015   5.743  12.429
59694W        W24954   6.456  12.497   5.082
59695W        W24955  33.972  32.413   2.738
59696W        W24956  21.682  35.097   1.388
59697W        W24957  41.245   5.165   3.139
59698W        W24958  14.257  17.563   1.371
59699W        W24959   4.558   8.883  11.850
59700W        W24960   7.367  10.248   2.963
59701W        W24961  25.435  39.876  12.564
59702W        W24962  38.654   7.363   3.229
59703W        W24963   6.468  15.558  11.132
59704W        W24964   9.866   3.502  13.195
59705W        W24965  17.852  15.762   3.672
59706W        W24966  19.789  17.302   3.587
59707W        W24967  14.483  40.263  10.994
59708W        W24968   7.737   2.701   0.799
59709W        W24969  34.491  34.074  13.423
59710W        W24970  42.331   7.387  13.498
59711W        W24971  35.572  44.817  14.474
59712W        W24972  35.542  39.302   3.619
59713W        W24973  39.892  18.283   1.219
59714W        W24974  25.050  10.271  11.024
59715W        W24975  26.411   2.225  10.668
59716W        W24976  37.537  11.664   2.197
59717W        W24977  44.562  16.826  13.863
59718W        W24978   8.501  21.069   0.387
59719W        W24979  24.546  23.657   0.426
59720W        W24980  29.645  38.763  11.074
59721W        W24981   1.021  17.496   1.175
59722W        W24982  35.499  31.555  14.546
59723W        W24983  35.397  33.628   1.969
59724W        W24984  34.362  28.663   3.347
59725W        W24985  41.972  27.159   0.282
59726W        W24986   1.944  19.698   4.458
59727W        W24987   3.526   5.369   1.252
59728W        W24988  19.515  24.777  14.092
59729W        W24989  19.092   8.673  14.116
59730W        W24990  25.408  41.898  10.652
59731W        W24991  18.105  32.323   2.560
59732W        W24992   0.903  17.596  13.141
59733W        W24993   7.332   6.549  13.315
59734W        W24994  36.729  11.779   4.567
59735W        W24995  40.332  11.393   3.220
59736W        W24996  29.119  42.812   0.419
59737W        W24997  41.946  42.917  11.200
59738W        W24998  23.240  19.395  13.833
59739W        W24999  26.453  40.026   2.756
59740W        W25000  33.532  30.808  10.700
59741W        W25001  15.203  21.381  12.540
59742W        W25002  34.047  28.670  13.358
59743W        W25003  12.607  26.220  13.480
59744W        W25004  43.505  19.357   2.437
59745W        W25005   1.090  24.876   2.314
59746W        W25006  37.963  38.081  12.036
59747W        W25007  39.510  10.925  11.965
59748W        W25008  20.674  15.092   1.684
59749W        W25009  26.574  11.784  14.789
59750W        W25010  23.137   3.215  12.071
59751W        W25011   6.897  16.781   2.688
59752W        W25012  36.244   3.702   3.763
59753W        W25013  36.411   0.446  13.516
59754W        W25014   0.965  29.735  11.548
59755W        W25015  24.524  10.600  14.368
59756W        W25016   9.224  34.517   4.709
59757W        W25017   7.780   3.798  13.467
59758W        W25018  10.843  38.057   3.164
59759W        W25019  36.935  28.613  13.828
59760W        W25020  23.667  36.610  14.893
59761W        W25021  20.987  36.337   2.015
59762W        W25022   6.658  30.463  11.406
59763W        W25023  29.128  17.965  14.759
59764W        W25024  23.629  32.464   1.445
59765W        W25025  31.880   1.189   2.821
59766W        W25026   7.341   8.385   2.127
59767W        W25027  38.562  40.383   2.140
59768W        W25028  15.091  34.952   4.567
59769W        W25029  43.926  40.990  13.587
59770W        W25030  15.751  31.787   1.436
59771W        W25031  38.641  44.723   4.539
59772W        W25032  24.502  42.996  14.413
59773W        W25033  13.646   8.515  10.673
59774W        W25034  42.583  24.804   4.021
59775W        W25035  33.529  38.847  10.285
59776W        W25036  34.515  26.852   0.309
59777W        W25037  10.381   4.448  13.337
59778W        W25038  16.533  27.865  14.306
59779W        W25039  16.250   4.950   3.230
59780W        W25040  22.860  23.902  11.611
59781W        W25041  34.466  21.279  14.957
59782W        W25042  13.816  30.513   4.919
59783W        W25043  18.824   6.455  13.050
59784W        W25044  39.548  13.403  12.138
59785W        W25045  20.146  26.630   1.464
59786W        W25046  15.288  35.904  13.375
59787W        W25047  43.300   2.156  11.469
59788W        W25048   2.649   9.714  14.077
59789W        W25049  40.448  36.331   1.255
59790W        W25050  44.739  38.312   1.689
59791W        W25051  30.342   4.805  12.118
59792W        W25052   8.814   4.686   1.272
59793W        W25053   0.863  19.903  10.794
59794W        W25054  26.561   3.099  14.812
59795W        W25055  34.674  21.152   0.876
59796W        W25056   3.710   0.102  14.838
59797W        W25057  25.892   2.442  11.598
59798W        W25058  37.717   9.857  14.976
59799W        W25059  36.970   8.263   4.606
59800W        W25060  11.388  25.520   4.585
59801W        W25061   5.749   2.380   1.322
59802W        W25062  30.462  33.077   2.635
59803W        W25063   2.398  33.877  13.079
59804W        W25064  26.648  17.019  14.584
59805W        W25065  24.169  34.425  14.809
59806W        W25066  28.132  27.591   4.561
59807W        W25067  16.690   3.783   1.325
59808W        W25068  23.155   9.342   2.422
59809W        W25069  13.165  22.756   4.478
59810W        W25070  37.535  17.694   4.070
59811W        W25071  42.015   1.066   2.600
59812W        W25072  17.064  29.699  11.514
59813W        W25073  13.348   1.726  13.350
59814W        W25074  15.679   2.292   4.165
59815W        W25075  16.177  10.247  13.647
59816W        W25076   9.708  44.780   1.804
59817W        W25077  10.213  43.420  14.779
59818W        W25078  15.229  35.632  14.068
59819W        W25079  12.612   1.322   2.859
59820W        W25080   6.867  37.324   1.595
59821W        W25081  18.032   7.697   4.204
59822W        W25082  41.941  15.598   1.192
59823W        W25083  11.299  10.781  10.242
59824W        W25084  16.225  44.237   0.128
59825W        W25085  21.747  40.980   4.844
59826W        W25086   3.975  26.281  11.603
59827W        W25087  30.523  36.331  10.750
59828W        W25088   3.582  28.111  11.890
59829W        W25089  15.843  43.725  12.112
59830W        W25090  30.851  26.790   5.145
59831W        W25091  40.762  43.499   3.782
59832W        W25092  39.375  36.048   0.702
59833W        W25093  16.940  17.063  12.007
59834W        W25094   0.856   4.364   4.565
59835W        W25095  20.719  12.226  12.026
59836W        W25096  27.788  33.215   1.311
59837W        W25097  40.112  40.079   3.275
59838W        W25098   1.048  35.673  11.150
59839W        W25099  19.217   5.467   4.150
59840W        W25100  27.428  36.993  13.351
59841W        W25101  41.308  40.046  10.730
59842W        W25102  35.014  28.694   0.733
59843W        W25103  13.109   5.281   3.148
59844W        W25104  28.425  29.060   0.378
59845W        W25105  38.840  29.449  12.009
59846W        W25106  22.301  44.745  11.099
59847W        W25107  24.993   6.431   1.249
59848W        W25108  11.323  29.890  12.749
59849W        W25109  34.945  42.812  10.705
59850W        W25110  27.996  16.650  12.011
59851W        W25111  27.639   3.842  14.472
59852W        W25112  22.574  10.204  10.915
59853W        W25113   9.693  33.337  12.038
59854W        W25114  35.059   1.146   2.802
59855W        W25115   8.702  41.349   2.361
59856W        W25116  15.598   1.049   1.771
59857W        W25117  19.682  28.682   3.433
59858W        W25118  16.812  26.160  12.487
59859W        W25119  35.846  31.114   4.641
59860W        W25120   8.587   3.228   4.775
59861W        W25121   2.350  12.180  12.471
59862W        W25122  12.504  20.098   2.528
59863W        W25123  21.754  36.577  14.708
59864W        W25124   7.821  10.579   0.781
59865W        W25125  21.044  41.063   1.832
59866W        W25126   0.263  22.650   2.276
59867W        W25127  14.096  30.780  13.474
59868W        W25128  14.802  40.600   3.491
59869W        W25129  36.461  11.119   0.221
59870W        W25130  19.028  26.846   1.815
59871W        W25131  10.809  29.917   3.357
59872W        W25132  37.504  42.858  10.929
59873W        W25133  20.308  27.190  14.211
59874W        W25134  32.282  35.510   3.271
59875W        W25135  18.614  38.938   2.287
59876W        W25136  40.037   0.822   1.239
59877W        W25137  43.341  39.755   4.431
59878W        W25138  11.511   4.745   0.250
59879W        W25139  26.020   4.857   1.715
59880W        W25140  13.568  27.995  12.579
59881W        W25141  43.251  40.532   2.967
59882W        W25142  24.538  22.551   5.012
59883W        W25143  31.533   9.622  10.770
59884W        W25144   2.767  12.440  12.582
59885W        W25145  35.233  36.641   1.512
59886W        W25146  34.719  17.113  10.820
59887W        W25147   7.955  32.892   3.726
59888W        W25148  32.050  30.849  13.416
59889W        W25149  44.790  39.816   0.366
59890W        W25150  30.186  44.710   3.739
59891W        W25151  10.708  25.160   2.668
59892W        W25152  29.430   2.518  11.569
59893W        W25153  23.479  33.445  10.266
59894W        W25154   7.256  33.508   2.820
59895W        W25155   4.249  11.395   1.444
59896W        W25156  44.799  19.486  14.013
59897W        W25157  18.274  32.137  13.976
59898W        W25158  44.744   4.241  12.591
59899W        W25159  10.559  35.094  13.405
59900W        W25160  24.313   5.852   0.482
59901W        W25161  28.150  42.911  13.523
59902W        W25162   6.194  22.637  10.794
59903W        W25163  25.225  31.611  10.714
59904W        W25164  41.052  41.256   1.087
59905W        W25165   6.635   0.381  14.406
59906W        W25166  24.668  41.067   3.636
59907W        W25167  19.712   2.851   0.553
59908W        W25168  33.902   2.021   3.447
59909W        W25169  38.079  27.491   3.704
59910W        W25170   1.445  24.191   0.689
59911W        W25171  19.715  24.576   1.652
59912W        W25172   7.278  37.400   0.264
59913W        W25173   1.608   3.876  11.628
59914W        W25174  18.705  22.098   4.162
59915W        W25175  19.077   7.670   0.348
59916W        W25176  23.325  15.686  12.528
59917W        W25177  13.793  34.558   4.288
59918W        W25178  11.053  17.318   0.551
59919W        W25179   4.975   8.662   4.119
59920W        W25180   9.143  12.277   3.221
59921W        W25181  23.994   8.726  11.422
59922W        W25182  18.396  35.361  12.456
59923W        W25183  18.284  19.255   2.974
59924W        W25184   9.765  24.776   4.937
59925W        W25185  29.691  10.785  11.957
59926W        W25186  42.470  22.877  14.293
59927W        W25187  40.438  31.552   1.435
59928W        W25188  12.809  29.788   4.998
59929W        W25189  11.688  14.872  14.439
59930W        W25190  44.991  31.833   3.577
59931W        W25191  30.416  20.250   3.181
59932W        W25192  15.276  33.084  13.081
59933W        W25193  43.869   6.301  12.152
59934W        W25194  41.887  17.644   4.108
59935W        W25195  26.476   0.403   2.736
59936W        W25196  25.009  42.665   2.402
59937W        W25197  40.120  43.364  11.094
59938W        W25198  39.591  11.823  13.038
59939W        W25199  13.740  21.532   4.043
59940W        W25200  38.973   3.220   0.936
59941W        W25201  28.615  10.226   1.748
59942W        W25202  37.498  19.502   0.779
59943W        W25203  10.960  20.228  12.578
59944W        W25204  22.179  32.833   1.563
59945W        W25205   1.093   3.843   3.475
59946W        W25206  43.817  19.985   0.275
59947W        W25207  29.001  39.305  14.843
59948W        W25208  27.245  12.187  11.197
59949W        W25209  15.104  20.884  13.406
59950W        W25210  28.267  13.794   0.936
59951W        W25211  11.747   5.987  12.564
59952W        W25212  43.805  31.069  12.935
59953W        W25213  32.428  19.153   3.895
59954W        W25214  41.987  44.571  14.393
59955W        W25215  32.830   8.130   3.181
59956W        W25216   0.823  39.495   3.841
59957W        W25217  37.763  20.967   0.484
59958W        W25218  41.323  19.150  11.121
59959W        W25219   5.278  15.244   2.997
59960W        W25220  24.173   1.932  13.486
59961W        W25221   1.734  40.123  14.261
59962W        W25222   6.592  25.279   4.600
59963W        W25223  42.597  36.376   3.565
59964W        W25224   3.968   0.944   0.944
59965W        W25225  12.579  25.035  12.015
59966W        W25226  14.561   6.271  13.482
59967W        W25227  12.813  23.878   2.651
59968W        W25228  17.514  37.459   4.877
59969W        W25229  13.758  42.221   1.384
59970W        W25230   9.338   4.117   3.217
59971W        W25231  13.342  20.262  13.026
59972W        W25232  13.638   2.252  10.780
59973W        W25233   7.425  35.558  13.612
59974W        W25234  14.836  31.324   3.010
59975W        W25235  27.694   3.392  11.090
59976W        W25236  27.461  33.930   4.102
59977W        W25237  25.597   6.196   4.255
59978W        W25238  29.633  15.734   1.821
59979W        W25239  17.630  29.031  11.749
59980W        W25240  18.846  35.260  12.701
59981W        W25241   9.728  38.122   2.941
59982W        W25242  43.744  30.030   0.251
59983W        W25243  35.841  43.147   4.668
59984W        W25244   6.671  38.036  12.539
59985W        W25245   7.308  37.274   1.885
59986W        W25246  23.293   5.816  13.652
59987W        W25247   3.248  23.470  13.319
59988W        W25248   2.715  41.256  13.784
59989W        W25249  13.387   0.342  10.769
59990W        W25250  34.946  21.740  11.833
59991W        W25251   6.172  34.349  13.368
59992W        W25252  24.674  36.590   0.694
59993W        W25253  24.176  31.995  12.056
59994W        W25254  10.356  38.101  11.812
59995W        W25255  12.289   9.360   3.730
59996W        W25256  34.252  17.860  12.646
59997W        W25257   2.388  28.583  13.041
59998W        W25258   3.682  28.668  12.496
59999W        W25259  17.775  44.539   0.063
60000W        W25260  10.624  23.114   1.912
60001W        W25261   6.112  34.373   2.723
60002W        W25262  10.904  34.901   2.093
60003W        W25263  34.667  21.647   1.793
60004W        W25264  38.853  29.631   2.885
60005W        W25265  44.400  14.631  14.348
60006W        W25266  15.371   8.250   0.801
60007W        W25267   5.246  35.180   0.557
60008W        W25268  30.333  31.640   0.913
60009W        W25269  26.523  32.885   4.544
60010W        W25270   2.318  19.149  10.628
60011W        W25271   3.998  34.410  14.303
60012W        W25272   3.845  30.189  11.641
60013W        W25273  19.185  35.083   3.402
60014W        W25274  32.394   2.904   4.227
60015W        W25275   5.888   7.642  14.517
60016W        W25276  19.212  27.531  11.180
60017W        W25277  42.304  36.163   4.537
60018W        W25278   3.389  11.323   4.357
60019W        W25279  43.249  35.018   2.161
60020W        W25280  38.282   1.308   2.950
60021W        W25281  40.423  12.856  11.174
60022W        W25282   1.459  15.432  11.345
60023W        W25283   0.683  19.033  14.272
60024W        W25284   9.610   1.396  14.438
60025W        W25285  15.532   8.164   0.233
60026W        W25286  21.656  20.927   3.235
60027W        W25287  26.443  43.191  10.338
60028W        W25288   5.685  28.081  10.352
60029W        W25289   7.152  38.546   1.279
60030W        W25290   2.614   7.173  12.100
60031W        W25291   3.679   9.373  10.712
60032W        W25292  36.551  30.958  13.449
60033W        W25293  19.493  34.659  12.079
60034W        W25294  35.580  39.090   1.170
60035W        W25295  17.747  18.224  11.559
60036W        W25296  10.182   8.507  14.231
60037W        W25297   3.392  35.426   3.815
60038W        W25298  32.043  21.467   4.391
60039W        W25299  27.887  25.136  12.024
60040W        W25300  27.645   9.878  11.162
60041W        W25301  44.883  23.243  13.969
60042W        W25302  35.817  28.133  12.977
60043W        W25303  37.515  18.958   0.771
60044W        W25304  38.470  21.303  14.983
60045W        W25305  30.332  20.789   4.604
60046W        W25306   7.874  41.398  13.878
60047W        W25307  44.259  43.236  12.145
60048W        W25308  20.743   4.901   0.904
60049W        W25309   8.378  24.218  13.146
60050W        W25310  16.076   0.539  14.851
60051W        W25311   1.238  40.971   1.834
60052W        W25312  10.714  28.436   1.200
60053W        W25313  28.396  23.880   2.358
60054W        W25314  20.406  36.655  10.131
60055W        W25315  15.869  20.112   2.929
60056W        W25316  31.047  33.425  10.660
60057W        W25317  33.196  32.999   1.487
60058W        W25318  13.206   8.982  12.645
60059W        W25319  37.122  32.559  14.075
60060W        W25320  19.668  38.433   0.899
60061W        W25321  15.328   8.229   1.928
60062W        W25322  13.268  42.336   2.279
60063W        W25323  22.191   0.335   1.708
60064W        W25324   1.271  13.816  13.966
60065W        W25325  15.557  42.304  11.893
60066W        W25326  35.036  37.896  12.388
60067W        W25327   6.762  24.433   2.495
60068W        W25328  36.292   4.276  11.067
60069W        W25329  25.784  10.750   3.077
60070W        W25330  12.944  37.609   4.623
60071W        W25331  22.676  38.855  12.717
60072W        W25332  37.732  14.169   1.645
60073W        W25333  26.500  30.888  12.394
60074W        W25334  30.497  25.539   0.002
60075W        W25335  29.582   0.804  12.946
60076W        W25336  17.528  15.804  13.835
60077W        W25337  11.567  44.857   4.545
60078W        W25338   1.212   0.283   1.833
60079W        W25339  26.101  36.146   0.255
60080W        W25340   3.608  31.611   4.838
60081W        W25341  23.543  36.151  14.047
60082W        W25342  11.362  26.025   3.667
60083W        W25343  18.026   7.319   1.672
60084W        W25344  10.730   3.030   2.300
60085W        W25345  22.855  35.672   3.631
60086W        W25346  37.420  43.801  13.538
60087W        W25347  33.409   8.092   5.251
60088W        W25348  28.052  32.098  11.419
60089W        W25349  34.871  11.096   2.262
60090W        W25350   2.953   2.412  11.500
60091W        W25351   5.676   2.890   2.944
60092W        W25352   3.326   1.511  14.846
60093W        W25353  41.208  30.749  12.531
60094W        W25354  34.323  12.299  14.237
60095W        W25355  28.656   8.761   0.732
60096W        W25356   1.975  44.758   1.784
60097W        W25357  16.883  40.977  11.620
60098W        W25358  22.950  23.555  10.734
60099W        W25359  19.616  21.394  14.746
60100W        W25360  22.064  34.503  12.058
60101W        W25361  29.447  31.991   3.713
60102W        W25362   8.754  25.139   2.802
60103W        W25363  25.041  33.125   4.220
60104W        W25364  23.676  14.741  14.203
60105W        W25365  42.749  37.773   3.654
60106W        W25366  31.363  19.442  14.812
60107W        W25367  30.684   8.263  13.554
60108W        W25368  17.699  20.531  14.345
60109W        W25369  20.553  27.115  11.601
60110W        W25370  35.935  31.740  14.288
60111W        W25371  13.605  43.435   4.797
60112W        W25372  22.238  36.627  14.901
60113W        W25373  40.408   0.045  14.701
60114W        W25374  37.592  21.110   5.038
60115W        W25375  36.143  16.998   0.720
60116W        W25376   3.740  44.313   3.755
60117W        W25377  35.552  34.900   2.609
60118W        W25378   0.442  15.235   4.236
60119W        W25379  25.702  44.685   0.746
60120W        W25380  37.811  29.827  12.500
60121W        W25381  26.076   1.385   5.042
60122W        W25382  22.658  28.546  13.164
60123W        W25383  26.693   3.363   4.952
60124W        W25384  22.594   0.732   1.344
60125W        W25385  42.963   9.640  11.123
60126W        W25386  14.670  20.223   5.000
60127W        W25387  39.366  14.139   1.798
60128W        W25388   0.269  21.711   2.165
60129W        W25389  15.673  35.337   4.632
60130W        W25390  10.596  43.782   2.003
60131W        W25391  13.300  10.250   1.519
60132W        W25392  17.304   1.540   0.988
60133W        W25393  34.117  32.868  13.948
60134W        W25394  10.217  26.118  12.482
60135W        W25395  39.967   0.833   3.103
60136W        W25396  38.439  30.572   3.644
60137W        W25397  36.278  43.954   0.970
60138W        W25398  12.469  42.919   1.703
60139W        W25399  10.842  10.481   1.072
60140W        W25400  11.867  38.485   0.548
60141W        W25401  44.326  18.946  14.468
60142W        W25402  18.348  11.406   2.277
60143W        W25403  14.361  31.062  12.932
60144W        W25404  34.030   6.141  12.348
60145W        W25405  41.293  26.038  13.539
60146W        W25406  28.559   0.016   4.376
60147W        W25407  32.430  30.683   1.867
60148W        W25408   1.952  33.781  10.672
60149W        W25409  25.798  28.589  14.420
60150W        W25410  11.595  28.493   1.274
60151W        W25411  17.134  11.915  14.247
60152W        W25412  32.707   9.338   0.709
60153W        W25413  10.325  30.236  10.455
60154W        W25414  23.209  15.956  13.399
60155W        W25415  36.807  31.132  13.838
60156W        W25416  26.324   4.690  12.904
60157W        W25417  34.150  32.653  13.463
60158W        W25418  30.503  11.578  13.513
60159W        W25419  21.964  17.696  11.533
60160W        W25420  23.508  43.297   1.420
60161W        W25421  13.350  25.976  13.990
60162W        W25422  16.504   6.345  13.252
60163W        W25423  15.726   7.921   1.015
60164W        W25424  15.868   3.704   3.708
60165W        W25425  28.087   9.770   2.574
60166W        W25426  19.666  14.579  14.715
60167W        W25427  14.329  25.577  13.896
60168W        W25428   9.142  41.909   0.612
60169W        W25429  36.401  29.979   3.249
60170W        W25430  34.080  42.946  12.621
60171W        W25431  32.002  43.285   0.003
60172W        W25432  32.774  33.286  12.937
60173W        W25433  31.849  18.279  10.650
60174W        W25434  34.006   2.875  13.788
60175W        W25435   8.576  14.315   0.818
60176W        W25436  14.499  18.176  10.998
60177W        W25437  44.252  17.967  14.301
60178W        W25438  35.735  44.514   1.391
60179W        W25439  16.292   0.415  13.434
60180W        W25440   2.977  17.100  12.625
60181W        W25441   2.169  22.579   4.751
60182W        W25442  25.723  27.720   4.630
60183W        W25443  41.812  43.691  14.047
60184W        W25444  10.789  17.944  12.425
60185W        W25445  30.600  41.747  11.145
60186W        W25446   4.632  26.123   5.616
60187W        W25447  39.365  43.375   4.202
60188W        W25448  18.257   1.970   2.700
60189W        W25449  13.840  29.617   1.264
60190W        W25450  15.729  25.761  12.216
60191W        W25451  11.624   1.796  14.906
60192W        W25452   0.498  19.487  10.861
60193W        W25453  35.103  42.301  13.391
60194W        W25454  15.135  42.879  14.490
60195W        W25455  26.294  23.072  12.511
60196W        W25456  19.790  14.084  14.658
60197W        W25457  43.015  31.535  13.002
60198W        W25458  32.435   7.655  10.934
60199W        W25459  21.973  31.205   3.824
60200W        W25460  26.434  44.684   0.560
60201W        W25461   0.472   1.374   2.480
60202W        W25462  14.176  16.378   0.370
60203W        W25463  33.120  35.035  13.275
60204W        W25464  26.438  42.948  11.617
60205W        W25465  11.657  29.599  10.983
60206W        W25466  18.286   0.202   4.208
60207W        W25467   2.481  44.805   1.670
60208W        W25468  26.608  27.539   3.371
60209W        W25469  22.478  30.013  14.778
60210W        W25470  15.798  10.377  11.532
60211W        W25471  17.752  16.785  13.808
60212W        W25472  20.181  32.217  11.919
60213W        W25473   3.938  38.960  14.179
60214W        W25474  18.150  36.632   4.213
60215W        W25475  35.838   0.767  12.601
60216W        W25476  22.733  24.205  13.109
60217W        W25477  13.137   0.130  12.613
60218W        W25478  30.517  41.843   0.982
60219W        W25479  16.016  20.686  13.346
60220W        W25480  36.805  27.158  14.504
60221W        W25481   5.263  11.580  12.154
60222W        W25482  11.765   8.002   0.362
60223W        W25483   3.429   3.099   1.015
60224W        W25484  32.118  21.643  11.095
60225W        W25485  11.790  30.916  11.819
60226W        W25486  28.210  18.265  12.629
60227W        W25487  16.039   7.826   3.811
60228W        W25488  36.523   8.352   4.371
60229W        W25489  24.787  43.838  12.659
60230W        W25490  35.008  34.575  14.316
60231W        W25491  39.295  19.683   3.643
60232W        W25492  41.350  35.455  10.931
60233W        W25493  10.662  12.893   2.177
60234W        W25494  12.234  34.324   2.660
60235W        W25495   5.646  43.955  11.624
60236W        W25496  32.935  16.602   1.773
60237W        W25497   6.223   4.226  14.922
60238W        W25498   2.522  26.609  13.754
60239W        W25499  33.342  17.016   3.574
60240W        W25500  26.211  37.033  10.452
60241W        W25501   5.277  22.626  12.387
60242W        W25502  35.448  38.803   3.729
60243W        W25503  39.391  11.805   4.800
60244W        W25504  40.418  11.386   2.255
60245W        W25505  37.397  44.774  14.862
60246W        W25506   4.777  39.693  12.967
60247W        W25507  29.909  22.221  10.780
60248W        W25508   7.682   0.919   1.254
60249W        W25509  21.025  14.696   0.360
60250W        W25510  17.195   4.259  13.811
60251W        W25511  12.182  43.437  12.832
60252W        W25512  19.202  43.800  11.107
60253W        W25513  27.914  10.745   2.307
60254W        W25514  33.666  19.533   4.175
60255W        W25515   3.041  23.151  11.635
60256W        W25516  31.098  41.325   3.589
60257W        W25517  21.628  43.793   3.651
60258W        W25518  27.044  23.920  12.404
60259W        W25519   5.063  34.477   2.171
60260W        W25520  14.076  33.572  12.109
60261W        W25521   7.929  11.340  11.018
60262W        W25522  36.846  14.994  11.241
60263W        W25523  29.841  18.925   3.741
60264W        W25524   4.288  13.579  13.884
60265W        W25525  28.205  18.853  13.871
60266W        W25526   8.681  16.201   2.768
60267W        W25527  33.604  27.941  12.513
60268W        W25528   3.871  27.181   2.117
60269W        W25529   7.875  16.593  14.785
60270W        W25530  40.612  39.166   0.881
60271W        W25531  20.634  19.221   3.681
60272W        W25532   3.966   2.493  13.922
60273W        W25533  12.271   3.934   3.121
60274W        W25534  34.511  42.904  11.059
60275W        W25535  20.935  31.374   4.591
60276W        W25536  18.973  30.647   0.847
60277W        W25537  42.993  24.627   1.810
60278W        W25538  33.642  30.034   4.087
60279W        W25539  25.655  10.230   0.218
60280W        W25540  23.504  31.439   1.737
60281W        W25541  34.918  38.510   4.813
60282W        W25542  22.591  27.406  11.989
60283W        W25543  22.220   9.746   2.758
60284W        W25544   0.737  30.634  14.753
60285W        W25545  17.567  29.521  11.567
60286W        W25546  13.692  19.696  13.357
60287W        W25547  15.391   0.252   0.331
60288W        W25548  43.452  41.675   4.785
60289W        W25549  20.448  24.777  10.946
60290W        W25550   9.151   0.391  11.156
60291W        W25551   6.807  19.378  13.267
60292W        W25552  27.111  41.796  10.667
60293W        W25553  15.028  36.608   1.767
60294W        W25554  17.724  37.743  11.470
60295W        W25555  32.473  44.780  12.850
60296W        W25556   8.595  40.087  13.013
60297W        W25557  28.964   9.242   0.705
60298W        W25558  38.799  30.226  11.598
60299W        W25559  19.666   4.685   1.692
60300W        W25560   4.482   3.783  14.316
60301W        W25561   8.784  34.956   2.337
60302W        W25562   7.279   0.532   1.238
60303W        W25563  11.143  44.457   4.109
60304W        W25564  23.444  16.860  11.872
60305W        W25565   1.991  20.565  13.900
60306W        W25566  36.422  43.236  10.643
60307W        W25567  14.415  42.418  12.149
60308W        W25568  28.745  28.225   3.824
60309W        W25569   2.949  29.712   2.456
60310W        W25570  10.376  14.195   4.118
60311W        W25571  18.159   4.519  14.913
60312W        W25572   3.480   1.147  10.625
60313W        W25573  38.384  10.189  12.148
60314W        W25574   0.497  17.107   3.850
60315W        W25575  39.806  37.036  13.077
60316W        W25576   1.475  37.395  12.639
60317W        W25577   6.240  37.891  14.004
60318W        W25578  13.120  44.822   0.025
60319W        W25579   6.572  36.490   1.669
60320W        W25580  16.112  40.813   0.860
60321W        W25581  19.784  29.486   1.146
60322W        W25582   3.166  43.752   1.850
60323W        W25583  10.232   3.785   3.675
60324W        W25584  40.968  39.040   1.302
60325W        W25585  37.102  26.591  11.477
60326W        W25586  16.576  12.633   1.203
60327W        W25587  15.735  36.011   0.197
60328W        W25588   6.459  42.442  10.674
60329W        W25589  38.610   4.098   3.597
60330W        W25590  40.408  20.194  12.588
60331W        W25591  33.849   1.040   0.983
60332W        W25592  14.166  17.071   4.056
60333W        W25593   8.812  31.882  11.527
60334W        W25594  24.996  40.772  13.483
60335W        W25595   3.807  41.988   0.818
60336W        W25596  41.755   0.921  13.159
60337W        W25597  44.811   0.435   4.236
60338W        W25598   8.416  31.504   1.769
60339W        W25599  40.857   3.326   0.943
60340W        W25600  18.666  40.581   3.210
60341W        W25601  40.904   3.201   0.394
60342W        W25602   6.202   0.947  12.366
60343W        W25603   5.905   1.883   3.711
60344W        W25604  37.568  30.674   4.393
60345W        W25605  15.204  10.733   2.309
60346W        W25606  13.160   5.908   0.486
60347W        W25607  34.225  18.479  11.580
60348W        W25608   6.180  13.352   4.574
60349W        W25609  33.570   5.792  13.450
60350W        W25610  33.906  38.341   2.887
60351W        W25611  34.609  28.174   3.349
60352W        W25612  23.094  22.263   3.545
60353W        W25613   5.419   1.728  13.326
60354W        W25614   2.987  37.423   2.901
60355W        W25615  20.766   6.336   0.681
60356W        W25616  22.275  21.074   0.756
60357W        W25617  20.647  24.438   4.508
60358W        W25618  18.511  18.723  14.939
60359W        W25619   6.379   7.453  10.667
60360W        W25620  21.752  29.915  11.139
60361W        W25621  44.918  20.770   2.318
60362W        W25622   5.007  23.323  11.495
60363W        W25623  37.090  17.386  14.805
60364W        W25624  37.054  23.620   0.380
60365W        W25625  39.166  42.977  14.847
60366W        W25626   7.864  13.824   4.863
60367W        W25627  10.683  17.361  14.247
60368W        W25628  31.116  43.385   4.609
60369W        W25629  23.130  25.905  12.835
60370W        W25630  25.607  37.411  12.545
60371W        W25631  15.842  44.845  12.965
60372W        W25632  12.404  36.453   4.193
60373W        W25633   1.901  43.097   0.195
60374W        W25634  25.216  42.476  11.677
60375W        W25635  43.312   0.317  11.959
60376W        W25636  10.197  31.057   0.071
60377W        W25637  16.652  35.100  10.386
60378W        W25638  37.048  23.159   4.659
60379W        W25639  35.131  13.198   3.599
60380W        W25640   8.925   0.285  10.698
60381W        W25641   5.169   0.361  10.754
60382W        W25642  25.064   4.530   2.022
60383W        W25643  16.136  19.219   0.768
60384W        W25644  33.027  10.542  13.149
60385W        W25645  43.450   3.376   2.264
60386W        W25646  18.661  16.176   0.892
60387W        W25647  20.742   2.329   3.629
60388W        W25648  38.375  26.035   2.627
60389W        W25649  29.894  20.553  11.197
60390W        W25650  40.416  18.504   0.506
60391W        W25651  32.593  20.844  12.050
60392W        W25652  23.028   1.382  10.695
60393W        W25653  37.858  12.409  14.940
60394W        W25654  16.569   7.280   0.310
60395W        W25655  30.461  35.530   4.676
60396W        W25656  22.276  26.956  10.484
60397W        W25657  12.778  23.914   1.673
60398W        W25658  37.484  28.107   0.334
60399W        W25659  33.665  16.214   0.074
60400W        W25660  41.592  44.257  11.129
60401W        W25661  10.358   3.074   0.592
60402W        W25662  16.432  36.117   3.374
60403W        W25663   6.825  26.968   1.365
60404W        W25664  37.761  18.207   4.790
60405W        W25665  12.375  35.015   2.328
60406W        W25666  29.159  10.056   4.331
60407W        W25667  29.659  31.690   1.355
60408W        W25668   6.461   3.036  11.916
60409W        W25669  40.174  42.945   4.542
60410W        W25670  21.865  39.829   4.086
60411W        W25671  32.941  36.106   1.897
60412W        W25672  14.845  33.541  10.699
60413W        W25673  25.636  37.333   1.536
60414W        W25674  18.944  16.238   2.359
60415W        W25675  34.760  28.166   4.134
60416W        W25676  34.399  21.641  10.686
60417W        W25677  29.533  16.102  12.333
60418W        W25678  39.502  20.598  14.027
60419W        W25679  16.790  38.493  12.528
60420W        W25680  40.991  36.753   4.528
60421W        W25681  18.621  33.546   5.169
60422W        W25682  22.720  24.179  12.018
60423W        W25683  41.804  20.323   0.443
60424W        W25684  15.333  41.482   4.103
60425W        W25685   9.320  30.006   3.163
60426W        W25686  31.514  14.334  12.892
60427W        W25687  34.896  40.920  14.504
60428W        W25688   8.385  14.414  13.477
60429W        W25689  29.867  30.469  10.773
60430W        W25690   2.760  38.523   4.311
60431W        W25691  25.479  18.638  13.016
60432W        W25692  32.345  42.467   1.841
60433W        W25693  34.115  31.578  10.332
60434W        W25694  11.117  15.891  13.099
60435W        W25695  28.550  43.377  14.533
60436W        W25696  31.619  44.510   4.829
60437W        W25697  29.101  11.561  14.689
60438W        W25698  25.112  27.665  10.733
60439W        W25699  38.952   9.749   4.740
60440W        W25700   0.485  32.120   2.337
60441W        W25701  27.496  21.223   0.336
60442W        W25702  27.738  35.619   3.292
60443W        W25703  36.408   8.927   2.528
60444W        W25704  28.023  10.510  11.639
60445W        W25705  16.249  18.310   1.933
60446W        W25706  13.656  24.289  11.191
60447W        W25707  33.647  28.057   1.562
60448W        W25708  21.763  24.203   0.339
60449W        W25709   0.760  29.215   1.786
60450W        W25710  17.942  37.276  11.065
60451W        W25711   7.481   9.229   1.179
60452W        W25712  27.988   8.463  10.522
60453W        W25713   8.109  44.294  14.266
60454W        W25714  32.614   8.744  11.691
60455W        W25715  35.446  35.650  12.402
60456W        W25716  40.499   2.557   3.762
60457W        W25717   4.828  13.842  11.282
60458W        W25718  24.037  20.642   0.539
60459W        W25719  37.556  43.980  14.501
60460W        W25720   4.993  18.104  12.632
60461W        W25721  10.360  30.082   1.324
60462W        W25722  15.983   7.535  11.153
60463W        W25723  32.362   0.724  13.417
60464W        W25724  30.911   1.319  14.365
60465W        W25725  18.066  35.829  11.309
60466W        W25726   6.017  10.933   4.099
60467W        W25727  28.888  14.630   3.123
60468W        W25728  37.801  13.852  12.175
60469W        W25729  30.924  20.815  14.795
60470W        W25730  37.454  19.341  14.846
60471W        W25731  42.989   6.127  14.574
60472W        W25732  25.798   4.754  14.297
60473W        W25733  38.555  18.258   3.183
60474W        W25734  21.520  43.039  13.938
60475W        W25735  20.062  28.191  14.240
60476W        W25736  21.488  34.028  13.501
60477W        W25737  15.536  36.480  12.443
60478W        W25738  39.599  14.345  13.130
60479W        W25739  22.183  42.718   0.222
60480W        W25740  37.845  26.406  14.103
60481W        W25741   6.880  37.057   4.126
60482W        W25742  23.067  38.120  14.358
60483W        W25743  29.086  37.104  12.699
60484W        W25744  13.572  36.384  13.930
60485W        W25745  31.184  30.896  12.577
60486W        W25746  16.202  18.057  12.479
60487W        W25747   3.255   5.334   2.040
60488W        W25748  40.240  31.111   1.736
60489W        W25749  11.558   5.254   9.697
60490W        W25750  37.384  24.542   1.688
60491W        W25751  34.282  34.952  14.634
60492W        W25752   2.951  38.130  11.167
60493W        W25753  36.068  32.181  13.402
60494W        W25754  21.984  31.449   0.942
60495W        W25755  26.919   0.573  14.683
60496W        W25756  41.338   2.415   3.710
60497W        W25757  30.897  35.611   2.895
60498W        W25758   9.762   1.966  13.452
60499W        W25759  37.286  41.846   3.263
60500W        W25760  19.576  43.464  14.039
60501W        W25761  22.711  39.038  14.295
60502W        W25762  12.041  41.362   1.791
60503W        W25763  15.660  13.948  10.731
60504W        W25764  24.266  32.368  14.093
60505W        W25765  24.733  31.197  12.978
60506W        W25766   5.857   5.482  11.132
60507W        W25767   7.355  14.350  14.294
60508W        W25768  14.134  37.101   0.315
60509W        W25769  11.353  10.881   4.053
60510W        W25770  22.808  29.891   1.491
60511W        W25771  44.569  42.853   2.905
60512W        W25772  29.036  42.214  13.009
60513W        W25773  16.161  41.447   3.105
60514W        W25774  40.860  37.481  14.738
60515W        W25775  37.620  40.002   2.166
60516W        W25776  34.399  21.139  11.553
60517W        W25777  21.199  18.263  10.929
60518W        W25778  12.759  14.625   4.650
60519W        W25779  25.063  36.586   2.116
60520W        W25780  42.057  43.123   4.143
60521W        W25781   2.272  34.336  14.941
60522W        W25782  30.115  15.196   0.220
60523W        W25783  43.094  17.327   3.743
60524W        W25784   3.341  13.045   1.244
60525W        W25785  11.895  38.022  13.405
60526W        W25786  18.676  17.518   1.385
60527W        W25787  43.435   0.210   0.319
60528W        W25788  37.685  25.463   3.698
60529W        W25789  31.656   6.140  14.789
60530W        W25790  43.544  44.411   0.837
60531W        W25791  22.147  43.133   3.739
60532W        W25792   2.488  16.747   0.778
60533W        W25793  39.241  11.902  13.919
60534W        W25794  11.868  31.044  14.025
60535W        W25795   1.352  23.767   2.337
60536W        W25796  24.764  32.992  14.687
60537W        W25797  38.732  33.597   0.808
60538W        W25798  11.639  14.896  11.935
60539W        W25799  10.721   6.207  13.223
60540W        W25800   4.416  11.397   4.573
60541W        W25801  13.655  18.621   4.607
60542W        W25802  19.738  25.750   4.007
60543W        W25803  27.460  18.021  13.413
60544W        W25804  34.000  43.222  10.531
60545W        W25805  43.674   1.304   2.444
60546W        W25806  12.353   4.375  10.837
60547W        W25807  15.659  21.651  12.492
60548W        W25808  28.860  32.581  14.625
60549W        W25809  13.688  36.636   1.236
60550W        W25810   0.368  35.385  12.574
60551W        W25811  18.987  28.387   0.784
60552W        W25812  15.322  21.948  12.012
60553W        W25813  42.072  13.535  13.447
60554W        W25814  25.848  39.045   0.531
60555W        W25815  19.493  12.650   0.662
60556W        W25816  13.388  37.360   0.722
60557W        W25817  37.898  32.713  12.224
60558W        W25818   2.926  37.433  13.873
60559W        W25819  29.641  20.995   4.086
60560W        W25820  34.498  31.421   2.142
60561W        W25821  22.193   8.177  13.028
60562W        W25822  32.876  10.183   4.111
60563W        W25823  25.462  17.072  11.153
60564W        W25824  18.943   5.191   1.228
60565W        W25825   0.214   5.967  12.986
60566W        W25826  42.867  21.596  12.873
60567W        W25827  13.828   3.170   4.530
60568W        W25828   4.734   8.256   2.832
60569W        W25829  36.363   5.322   3.857
60570W        W25830  19.674  27.656   3.661
60571W        W25831   3.994   6.925   1.359
60572W        W25832  40.066  21.721   0.205
60573W        W25833  16.078  12.880   1.883
60574W        W25834  28.419  43.985   0.753
60575W        W25835  18.231  39.374   4.389
60576W        W25836   7.616   4.240   1.408
60577W        W25837  16.111  38.868  11.137
60578W        W25838  31.562  41.381  10.465
60579W        W25839  27.210   4.747   3.198
60580W        W25840  21.517  31.490  11.050
60581W        W25841  29.425  29.988  13.497
60582W        W25842  15.196   1.485   3.131
60583W        W25843  42.391   7.082  12.053
60584W        W25844   0.741  15.738  13.013
60585W        W25845  20.545  31.141  11.877
60586W        W25846  42.952  16.328   0.365
60587W        W25847  41.289  25.909  14.922
60588W        W25848   1.233   3.486   3.812
60589W        W25849  41.530  35.004   0.870
60590W        W25850  41.967  30.858   4.173
60591W        W25851   6.312  11.065  13.442
60592W        W25852  27.106  10.586   1.078
60593W        W25853  28.258  20.267   3.192
60594W        W25854   7.720  17.651   4.830
60595W        W25855  42.706  23.017   3.726
60596W        W25856  19.961  30.472   0.597
60597W        W25857  12.690  29.526   2.762
60598W        W25858  34.386   2.114   3.311
60599W        W25859   3.858   5.288   4.753
60600W        W25860  29.742  35.595  14.438
60601W        W25861  11.480  25.505  13.969
60602W        W25862  19.709  29.093  12.049
60603W        W25863  37.725  39.075  13.066
60604W        W25864  33.819  10.980  11.943
60605W        W25865   5.898   2.794  10.690
60606W        W25866  22.642  25.454  14.401
60607W        W25867   2.901  11.278  11.435
60608W        W25868  32.808  32.386   4.165
60609W        W25869   0.292  42.578   2.524
60610W        W25870  34.465  33.099  10.631
60611W        W25871  22.512  13.781   1.897
60612W        W25872  23.859  38.573   4.061
60613W        W25873  34.090   6.312   0.810
60614W        W25874   5.963   3.964  12.451
60615W        W25875  21.696  17.011   3.587
60616W        W25876  44.971   0.110   2.452
60617W        W25877  13.915  15.377   3.290
60618W        W25878  41.963   9.684   0.457
60619W        W25879  12.844  29.219   3.170
60620W        W25880  27.076  24.460   1.830
60621W        W25881   8.282  41.140   1.304
60622W        W25882  17.513   2.961  14.291
60623W        W25883   7.922  36.663   2.092
60624W        W25884   8.868  14.782   0.890
60625W        W25885  19.030  23.604   0.488
60626W        W25886  13.033  32.763   1.765
60627W        W25887   2.929  13.096   3.196
60628W        W25888  23.792  40.820  12.006
60629W        W25889  24.621  21.765  12.537
60630W        W25890  13.507  25.308  11.144
60631W        W25891  20.171  34.636   0.884
60632W        W25892  33.572  25.195  12.116
60633W        W25893  34.309  23.609  12.067
60634W        W25894  43.613  15.411  10.268
60635W        W25895   5.405   9.862   4.094
60636W        W25896  30.070  16.449   2.635
60637W        W25897  34.431  19.829   2.225
60638W        W25898  44.869   7.958  12.041
60639W        W25899  41.191  29.440  14.956
60640W        W25900  42.805  31.959  11.323
60641W        W25901   8.342  34.874   0.419
60642W        W25902   8.123   2.127  12.881
60643W        W25903  16.976  24.215   4.441
60644W        W25904  40.262   2.257   2.736
60645W        W25905   9.166  11.764   3.310
60646W        W25906  17.048  43.674   2.499
60647W        W25907  39.499  24.382   0.275
60648W        W25908  13.122  34.590   1.434
60649W        W25909  41.243   3.831   2.708
60650W        W25910  25.175  33.095   1.987
60651W        W25911  13.294  42.517   3.219
60652W        W25912  30.948   7.616   4.590
60653W        W25913  40.687  28.089   0.154
60654W        W25914  30.100  11.802  10.451
60655W        W25915  23.204   9.292   1.044
60656W        W25916  39.268   1.524  12.329
60657W        W25917  34.230  29.330  14.426
60658W        W25918  38.029  23.797   1.348
60659W        W25919  18.895  10.852   0.776
60660W        W25920  13.679  42.600  11.469
60661W        W25921  40.643  16.486   4.935
60662W        W25922  12.554  32.524  14.851
60663W        W25923  42.747  33.562   3.323
60664W        W25924  34.771   1.893   1.292
60665W        W25925  28.147  41.636   4.104
60666W        W25926  20.582  10.523   3.702
60667W        W25927  35.998  29.645   2.227
60668W        W25928  32.089  40.329   3.394
60669W        W25929  21.345  22.205  14.834
60670W        W25930  16.755  15.559   1.233
60671W        W25931  26.434  43.869  13.979
60672W        W25932  30.774  10.900  14.079
60673W        W25933  30.053  30.955  10.683
60674W        W25934  12.842  11.324  13.822
60675W        W25935  31.495   1.773   1.182
60676W        W25936  43.518  19.589  10.687
60677W        W25937  43.770  43.344   3.607
60678W        W25938  41.850  20.167  10.761
60679W        W25939  39.173   5.676  10.986
60680W        W25940   7.234  27.005   0.790
60681W        W25941  16.575  19.514   0.898
60682W        W25942  28.845  39.017  14.427
60683W        W25943  44.429  13.564  13.528
60684W        W25944  28.202  44.969  13.904
60685W        W25945  35.586  20.701   3.659
60686W        W25946   0.538  20.770  11.259
60687W        W25947  15.676   9.598  12.952
60688W        W25948  17.642  40.509   2.237
60689W        W25949  23.306  13.427  13.833
60690W        W25950  34.668   4.995   2.707
60691W        W25951   1.394   6.121  13.444
60692W        W25952   7.117  23.012   3.699
60693W        W25953  39.930  33.838   3.153
60694W        W25954  39.359  26.656  10.937
60695W        W25955  16.763   5.968   4.088
60696W        W25956   0.907  39.458  10.706
60697W        W25957   6.952  30.073  11.570
60698W        W25958  21.618  25.436  13.478
60699W        W25959  14.627  12.461  13.382
60700W        W25960  34.031  35.957  12.003
60701W        W25961   6.521   9.807  12.364
60702W        W25962  39.036  16.203  11.423
60703W        W25963  22.121   3.435   0.274
60704W        W25964  25.606   8.610  13.178
60705W        W25965  35.118   4.657   1.787
60706W        W25966   3.006  23.623   1.286
60707W        W25967   5.777  44.498  14.662
60708W        W25968  23.936  43.775   2.811
60709W        W25969  24.594   9.189  13.953
60710W        W25970  31.358   8.350   3.249
60711W        W25971  27.044  40.858  11.149
60712W        W25972  44.015  23.238  14.530
60713W        W25973  44.466  11.377   3.073
60714W        W25974  32.978   7.377   1.945
60715W        W25975  40.353  34.829   1.345
60716W        W25976  21.061   1.586  13.276
60717W        W25977  18.501  31.574   2.182
60718W        W25978   7.907  40.431  13.021
60719W        W25979  25.447  11.256   0.319
60720W        W25980  14.922   2.084   1.143
60721W        W25981   1.825   4.912   2.112
60722W        W25982  27.267  17.943   4.107
60723W        W25983  33.614  38.185   1.688
60724W        W25984  29.441  20.640   0.278
60725W        W25985   2.611  19.557   4.522
60726W        W25986   8.296  40.614   1.229
60727W        W25987  26.282  41.334  13.847
60728W        W25988  25.555  13.330   2.408
60729W        W25989   2.301  33.016  10.775
60730W        W25990   3.500  21.805   0.473
60731W        W25991  24.014  31.215   0.682
60732W        W25992  11.796  32.068  10.818
60733W        W25993  29.019  23.093  14.262
60734W        W25994   7.687  20.116   3.636
60735W        W25995  14.588  26.379  12.152
60736W        W25996  19.648  32.362   0.802
60737W        W25997  39.390  19.454   0.240
60738W        W25998   0.750  37.575  12.114
60739W        W25999   3.339  14.658  12.062
60740W        W26000  25.237  35.367  14.089
60741W        W26001  18.298   2.259   3.688
60742W        W26002  24.090  25.178  11.089
60743W        W26003  11.093  37.605  14.962
60744W        W26004  29.071  34.535   3.956
60745W        W26005   6.254   9.356  12.479
60746W        W26006   4.948  42.297   0.318
60747W        W26007  27.428  24.945   0.877
60748W        W26008   7.582  14.873  13.928
60749W        W26009  28.125  43.360   3.573
60750W        W26010  18.533  31.685  10.950
60751W        W26011  16.086  11.164   1.249
60752W        W26012  38.217  12.324  11.102
60753W        W26013  36.978   7.922  12.457
60754W        W26014  24.580  12.599   1.027
60755W        W26015  12.227  34.688   0.503
60756W        W26016  15.305  11.260   4.668
60757W        W26017   3.225   6.327   3.211
60758W        W26018  40.916  38.896   0.001
60759W        W26019  38.317  38.559   1.446
60760W        W26020  37.111  23.575  11.982
60761W        W26021  38.377  36.919   1.941
60762W        W26022   6.527  29.651  11.877
60763W        W26023  21.728  32.465  11.272
60764W        W26024  36.290  29.982   0.383
60765W        W26025   3.536  14.528   2.610
60766W        W26026  14.426  33.581   1.442
60767W        W26027   4.734  30.952  14.408
60768W        W26028  30.460   0.838  13.409
60769W        W26029  10.140  10.099  13.319
60770W        W26030  31.646   6.790  12.988
60771W        W26031  10.425   0.748  12.427
60772W        W26032  13.473  44.507   3.789
60773W        W26033  44.546   5.895   4.371
60774W        W26034  20.007  30.940  14.371
60775W        W26035  10.865   4.650   2.924
60776W        W26036  39.844  29.707  12.126
60777W        W26037   6.234  15.091   2.844
60778W        W26038  44.477  41.783   0.727
60779W        W26039   6.813  23.292  12.610
60780W        W26040  26.615  16.855  12.636
60781W        W26041  12.266  39.345   1.518
60782W        W26042  13.799  12.755  14.050
60783W        W26043   3.533  36.196   3.346
60784W        W26044   7.813  27.994   3.126
60785W        W26045  16.571   8.695   3.802
60786W        W26046  28.007  44.470  14.459
60787W        W26047  13.199  16.079   0.477
60788W        W26048  43.839  44.029  11.066
60789W        W26049   3.684  23.916  12.988
60790W        W26050  36.576   4.248  11.498
60791W        W26051  22.646  31.958  13.859
60792W        W26052  27.163  14.384  12.806
60793W        W26053  32.657  34.206  13.715
60794W        W26054  20.275  13.675   2.632
60795W        W26055   3.947  40.343   1.322
60796W        W26056  25.480  18.856   3.136
60797W        W26057  23.308  37.389  10.654
60798W        W26058  21.031  16.020   3.352
60799W        W26059  22.734  29.551  13.875
60800W        W26060   3.253  44.286   1.629
60801W        W26061  26.231  25.936   1.716
60802W        W26062  12.100  37.425   5.273
60803W        W26063  43.802  11.281  11.988
60804W        W26064  30.360  41.257   0.405
60805W        W26065  28.828   5.010  11.995
60806W        W26066  18.104  19.848  13.397
60807W        W26067  41.181  17.715   0.752
60808W        W26068  35.481  27.628  11.407
60809W        W26069  11.252  25.223  12.132
60810W        W26070  33.476  20.733   2.852
60811W        W26071  35.643  15.398  14.799
60812W        W26072  39.430  37.120  11.735
60813W        W26073  11.976  10.670   3.258
60814W        W26074  22.571  43.820   3.232
60815W        W26075   8.611  20.763  12.217
60816W        W26076   9.312  25.635  14.869
60817W        W26077   7.707  39.447   0.927
60818W        W26078  22.543  34.907   3.678
60819W        W26079  34.887  33.840  10.715
60820W        W26080  42.546  43.195   4.921
60821W        W26081  40.232   9.687  11.187
60822W        W26082  39.074  29.362   1.030
60823W        W26083  11.792  19.572  10.717
60824W        W26084  19.953  42.663  11.638
60825W        W26085  30.191  12.095  11.760
60826W        W26086   9.373  11.683  14.313
60827W        W26087   5.728   1.035   3.458
60828W        W26088  28.774  11.867   2.811
60829W        W26089  31.108  17.006  12.085
60830W        W26090  39.557  32.322   3.701
60831W        W26091  25.863   3.819   4.660
60832W        W26092  30.510  32.389   4.714
60833W        W26093  13.682   7.955  14.045
60834W        W26094  26.664  15.012  14.426
60835W        W26095  10.758  38.787  11.148
60836W        W26096   9.327   2.323  13.347
60837W        W26097  31.719  14.192   3.387
60838W        W26098  20.119  35.275  11.727
60839W        W26099  27.709  35.531   0.369
60840W        W26100  15.108  22.114   3.310
60841W        W26101  28.624  18.769   2.112
60842W        W26102   0.723  17.576   2.377
60843W        W26103  18.675  27.027  10.629
60844W        W26104  37.356   1.953  14.471
60845W        W26105  42.927   9.894   0.264
60846W        W26106  37.434  28.064  12.993
60847W        W26107   6.400  31.699  12.064
60848W        W26108  13.251  35.836   9.744
60849W        W26109  21.670  15.694  10.314
60850W        W26110  41.360   7.851   2.660
60851W        W26111  35.207  18.966   4.133
60852W        W26112  41.572  23.163   4.289
60853W        W26113  43.407  13.740   1.930
60854W        W26114  14.111   7.676  14.983
60855W        W26115  37.425  25.980   4.048
60856W        W26116   1.338  26.473   2.785
60857W        W26117  32.588  39.444   3.703
60858W        W26118  18.783  12.761  11.277
60859W        W26119  25.151  43.383   4.907
60860W        W26120  34.561  33.732   1.544
60861W        W26121  44.408  20.200   0.894
60862W        W26122  23.585  30.518  11.217
60863W        W26123  17.302  42.761  10.936
60864W        W26124  15.827  23.418  12.741
60865W        W26125  29.017   9.224   3.579
60866W        W26126  18.584   4.264  12.991
60867W        W26127  10.376  41.485   2.890
60868W        W26128   3.239   2.183  11.131
60869W        W26129  41.857  39.267  13.414
60870W        W26130   4.738  33.172   1.871
60871W        W26131  31.941  41.497  11.225
60872W        W26132  35.901   4.934   0.218
60873W        W26133  23.188  38.423   1.719
60874W        W26134  29.885  21.208  10.540
60875W        W26135  35.902  20.078  14.382
60876W        W26136  15.228  22.768  11.604
60877W        W26137  29.524   3.487  10.523
60878W        W26138   0.170  35.420  12.073
60879W        W26139  38.900  37.611   4.658
60880W        W26140  18.384  24.247  11.514
60881W        W26141  44.803  11.155   3.447
60882W        W26142   6.585  15.181  13.837
60883W        W26143  13.864  27.566   4.084
60884W        W26144   8.610   0.967   3.876
60885W        W26145  44.318  14.344  13.929
60886W        W26146  11.882   8.163   1.854
60887W        W26147   4.160  22.224  13.337
60888W        W26148   2.385  20.071   3.710
60889W        W26149  13.967  15.460   0.278
60890W        W26150  36.405  41.481   3.179
60891W        W26151  30.259  14.035  11.714
60892W        W26152  39.381  43.932   4.201
60893W        W26153  27.961  24.531   4.200
60894W        W26154   4.015   1.919  13.410
60895W        W26155  16.750  27.219  13.819
60896W        W26156  41.479  12.798  11.243
60897W        W26157  13.383  29.501   0.592
60898W        W26158  27.548  43.888  14.967
60899W        W26159  36.846  32.215  12.702
60900W        W26160   9.609  14.281   0.865
60901W        W26161   9.646   6.102  11.607
60902W        W26162  37.521  12.510   4.167
60903W        W26163  18.757  37.507   0.241
60904W        W26164  26.583  12.829   3.327
60905W        W26165  30.689  18.194   0.270
60906W        W26166  41.473   2.753  14.293
60907W        W26167  37.267  43.893   4.519
60908W        W26168   9.335  28.270   1.406
60909W        W26169  19.393  37.310  10.836
60910W        W26170   8.349  14.388  14.266
60911W        W26171  20.841  42.152  13.145
60912W        W26172  18.228  22.677   1.802
60913W        W26173  38.907  26.535   4.081
60914W        W26174  39.061   5.382  10.555
60915W        W26175  31.429  43.476   3.744
60916W        W26176   9.230   6.714  13.318
60917W        W26177   7.749  29.474  14.571
60918W        W26178  17.407  44.712  11.534
60919W        W26179  10.048   8.410   1.002
60920W        W26180   5.555  17.349   0.495
60921W        W26181   0.988  10.312   1.890
60922W        W26182  36.295   0.279   0.062
60923W        W26183  21.544   3.679  12.367
60924W        W26184   9.121  20.264   4.330
60925W        W26185  41.603  31.630  13.459
60926W        W26186  41.838  43.025   1.570
60927W        W26187  40.362  27.938   2.985
60928W        W26188  35.880  23.234  10.699
60929W        W26189   1.984   7.804  13.518
60930W        W26190  29.428  17.006   5.022
60931W        W26191   1.432  15.436  11.863
60932W        W26192  41.479   4.690  10.795
60933W        W26193  21.002  31.587   4.133
60934W        W26194   1.669  29.000  14.855
60935W        W26195  30.584  31.084  11.971
60936W        W26196  19.241  26.442  13.610
60937W        W26197  28.706  32.612   0.162
60938W        W26198  17.255   0.362   2.161
60939W        W26199   7.870  23.491  12.030
60940W        W26200  39.144  16.628   0.938
60941W        W26201  32.827   4.467  11.954
60942W        W26202   1.224  37.443  13.134
60943W        W26203   8.374  35.138  10.749
60944W        W26204   2.630   4.348   3.210
60945W        W26205  43.432  34.414   4.173
60946W        W26206  32.136  35.537   1.417
60947W        W26207  37.584  29.436  11.610
60948W        W26208  22.988   2.478  12.486
60949W        W26209  23.321   2.660   5.062
60950W        W26210  43.236  44.386   1.652
60951W        W26211  13.610  39.889   0.862
60952W        W26212  29.595  29.445  14.526
60953W        W26213  24.337   2.531   0.360
60954W        W26214  29.034  38.538  14.370
60955W        W26215   1.928  33.257  13.533
60956W        W26216  30.060  18.271  14.779
60957W        W26217  41.875  29.339  13.477
60958W        W26218  15.819  26.472  11.122
60959W        W26219   6.814  15.722  14.468
60960W        W26220  17.505   5.768   3.690
60961W        W26221  12.975   3.278  11.186
60962W        W26222  39.927  38.523   1.909
60963W        W26223  17.678  16.782   2.212
60964W        W26224  10.799  19.179  12.396
60965W        W26225  37.990  19.004   3.351
60966W        W26226  37.988  26.719   1.400
60967W        W26227  27.416  39.575  13.893
60968W        W26228  12.598  23.019  11.226
60969W        W26229  11.038  13.416   1.115
60970W        W26230   2.687  41.867   0.902
60971W        W26231   7.338  44.999  12.957
60972W        W26232  15.244   1.632  11.232
60973W        W26233  35.050  27.238   3.423
60974W        W26234  40.262   6.240  11.195
60975W        W26235  26.489  27.556  13.810
60976W        W26236  19.112  23.066  13.044
60977W        W26237  36.365  16.580   0.952
60978W        W26238   9.195  42.805  14.248
60979W        W26239  39.254  16.532   3.201
60980W        W26240   4.597   5.322   2.800
60981W        W26241   2.531  15.367  10.901
60982W        W26242  38.381  34.524  10.710
60983W        W26243   5.331  44.434  14.942
60984W        W26244  31.576  27.117  12.097
60985W        W26245  11.595   8.164  13.521
60986W        W26246  26.594  24.633  14.732
60987W        W26247  41.456  11.017  11.758
60988W        W26248  12.211  41.752   4.078
60989W        W26249  44.188  18.246  13.482
60990W        W26250   9.202  16.213   4.689
60991W        W26251  11.732  11.640   0.463
60992W        W26252  18.302  35.564   0.800
60993W        W26253  42.866  21.722   4.906
60994W        W26254   7.591  36.020  13.455
60995W        W26255   7.769   6.105  13.919
60996W        W26256  36.055  27.614   4.271
60997W        W26257  37.001  26.963   2.454
60998W        W26258   7.094   8.925  14.007
60999W        W26259  37.591  10.418  10.707
61000W        W26260  35.456  36.521  11.890
61001W        W26261   8.659  29.161  12.640
61002W        W26262  37.280  30.777  12.096
61003W        W26263  30.128  10.354  10.594
61004W        W26264  26.606  43.581  13.357
61005W        W26265  11.408  22.992  11.901
61006W        W26266  33.840  37.270   4.600
61007W        W26267  23.004  24.496   1.783
61008W        W26268   4.600  42.649   3.527
61009W        W26269  23.529  41.297  12.804
61010W        W26270  17.071  13.543   4.868
61011W        W26271  31.821  21.056  14.217
61012W        W26272  42.303  13.492  11.046
61013W        W26273  44.923  21.096   3.178
61014W        W26274  10.817  14.367   2.368
61015W        W26275  31.281  21.106  12.458
61016W        W26276  14.571  26.081   2.275
61017W        W26277   9.919  18.134  12.621
61018W        W26278   8.287  39.000  11.988
61019W        W26279  24.093   6.020   4.968
61020W        W26280  19.203  31.691   4.695
61021W        W26281  26.676  29.553   1.233
61022W        W26282  38.861  26.249   2.611
61023W        W26283  13.266  40.755   1.772
61024W        W26284  17.276   6.817   1.447
61025W        W26285   7.929  22.947   0.407
61026W        W26286   7.166  34.307   0.660
61027W        W26287   1.295  25.564  12.090
61028W        W26288  32.663  20.106  13.854
61029W        W26289   8.993  32.968   2.853
61030W        W26290  25.222  15.792  13.614
61031W        W26291  21.704  40.911   4.344
61032W        W26292   7.745   2.853   1.308
61033W        W26293  18.066   8.474  14.398
61034W        W26294  15.811  29.348   1.427
61035W        W26295  29.407   4.232   4.497
61036W        W26296  33.458  22.348  14.804
61037W        W26297  40.791  12.768   1.847
61038W        W26298  17.295  31.173  10.727
61039W        W26299  22.779   1.254   4.119
61040W        W26300  24.055  44.410  11.388
61041W        W26301  32.888  18.174  12.611
61042W        W26302   4.262  10.635  14.216
61043W        W26303  42.922  32.925   4.140
61044W        W26304  29.667  15.767   4.602
61045W        W26305  39.738   9.710   3.589
61046W        W26306  16.521  28.100  14.764
61047W        W26307  33.909   2.454   1.845
61048W        W26308  34.960  28.286  11.473
61049W        W26309   0.718  41.419   0.951
61050W        W26310   9.950  24.968   1.365
61051W        W26311  15.424   0.373  10.657
61052W        W26312  13.569  18.177   1.366
61053W        W26313   6.192  35.904  10.345
61054W        W26314  39.832   8.213   1.262
61055W        W26315   5.459   0.740  14.470
61056W        W26316  15.558  30.578   1.847
61057W        W26317  32.529  31.665   4.598
61058W        W26318   1.861   3.661  11.237
61059W        W26319  25.587  22.893   1.210
61060W        W26320  22.509  12.362  12.469
61061W        W26321   8.141  32.985   4.196
61062W        W26322  21.803  37.033  14.046
61063W        W26323   1.534   3.179   0.934
61064W        W26324  43.050   1.403   3.437
61065W        W26325  25.487  34.298   4.250
61066W        W26326  38.912  37.843  11.950
61067W        W26327  20.118   9.794  13.407
61068W        W26328  18.163  41.773   2.654
61069W        W26329  13.090  13.547   1.477
61070W        W26330  27.985  41.390  14.930
61071W        W26331   0.432  32.706  14.965
61072W        W26332  25.366   2.652  14.384
61073W        W26333  19.574  21.111   0.199
61074W        W26334  25.037  18.154   3.782
61075W        W26335  31.671  37.434   3.344
61076W        W26336  44.249   2.125   5.215
61077W        W26337  15.660  15.320   4.637
61078W        W26338  21.739  20.915   2.243
61079W        W26339   4.004  29.089  12.472
61080W        W26340  31.696  19.982   3.666
61081W        W26341  42.990  32.413   4.208
61082W        W26342  14.483  19.238  14.487
61083W        W26343   0.206  18.651   3.199
61084W        W26344   9.183  20.169  14.747
61085W        W26345  44.654   3.633  13.119
61086W        W26346   4.371  39.236  14.226
61087W        W26347  27.814  17.627   2.639
61088W        W26348  40.385  21.569   0.822
61089W        W26349   5.798   7.620  11.675
61090W        W26350  21.184  35.454  12.893
61091W        W26351   3.524  21.866   4.047
61092W        W26352  34.609  23.618  10.242
61093W        W26353  36.746  43.979   9.981
61094W        W26354   1.991   3.164  11.191
61095W        W26355  15.892  34.679  12.577
61096W        W26356  11.714  20.489  13.938
61097W        W26357   3.624   1.829  12.491
61098W        W26358   3.300  38.897   2.248
61099W        W26359  15.984  14.144   4.298
61100W        W26360  34.770  14.286   3.782
61101W        W26361  32.121   7.127   3.366
61102W        W26362   9.815   5.641  11.723
61103W        W26363  22.430  39.763   2.803
61104W        W26364  20.694  40.123  14.552
61105W        W26365   2.199   3.253  11.853
61106W        W26366  24.728   6.764   2.474
61107W        W26367  33.008   7.765  11.596
61108W        W26368   4.442  11.832   2.257
61109W        W26369  42.887  44.958  14.453
61110W        W26370  42.535   4.853   0.461
61111W        W26371  19.129  41.717   0.810
61112W        W26372  14.085  26.799  11.572
61113W        W26373   9.449  38.070  11.029
61114W        W26374  27.190   9.710   1.984
61115W        W26375  15.576  14.290   1.185
61116W        W26376  40.382  42.482   4.725
61117W        W26377   9.374  15.126   0.466
61118W        W26378  25.013  42.562  13.839
61119W        W26379  36.807  18.686  12.124
61120W        W26380  14.174   8.623  10.682
61121W        W26381  23.009  40.311   0.967
61122W        W26382  44.017  33.124   3.693
61123W        W26383  18.787  20.768  11.947
61124W        W26384   6.329  22.344   0.252
61125W        W26385   5.994  18.706   3.139
61126W        W26386  11.852   4.820   5.012
61127W        W26387  41.460  22.758   0.721
61128W        W26388   5.940  43.412   2.782
61129W        W26389  43.493  15.273   4.181
61130W        W26390  44.518  34.326  12.681
61131W        W26391  28.673  44.957   2.267
61132W        W26392  16.795  31.359   1.249
61133W        W26393   1.553  18.525   2.650
61134W        W26394  31.378   4.653  14.436
61135W        W26395  15.853   8.136  13.846
61136W        W26396  43.498   1.281  10.910
61137W        W26397  12.417  19.861   3.964
61138W        W26398  11.168   1.318  11.670
61139W        W26399  18.201  37.213  11.938
61140W        W26400  34.499  35.603  13.872
61141W        W26401  12.876  40.817  11.392
61142W        W26402  25.300  19.307   2.197
61143W        W26403  39.980  35.326  12.603
61144W        W26404  18.974  38.416   3.349
61145W        W26405  21.912  29.344  11.717
61146W        W26406  24.173   5.851   0.992
61147W        W26407  24.451  39.606   4.521
61148W        W26408  17.112  30.541   2.758
61149W        W26409  27.697   9.903  12.038
61150W        W26410  38.662   2.278  10.267
61151W        W26411  29.624  18.610   1.814
61152W        W26412   7.849   0.817   2.290
61153W        W26413  18.002  18.528  11.881
61154W        W26414  25.741  41.053   3.149
61155W        W26415   9.307  33.622   2.895
61156W        W26416  34.566  32.035  11.986
61157W        W26417  17.366   8.845   0.801
61158W        W26418  16.428  37.935   2.867
61159W        W26419   9.232  32.853  13.362
61160W        W26420   9.765   2.826   0.386
61161W        W26421  13.404  28.557  10.665
61162W        W26422   4.913  12.513   4.150
61163W        W26423  36.955  32.156  13.225
61164W        W26424  19.035  10.834   4.556
61165W        W26425   2.944  20.446  14.083
61166W        W26426  42.883  41.897   3.150
61167W        W26427  36.902  26.660   3.784
61168W        W26428  17.002   6.721  13.482
61169W        W26429  40.984  16.675  13.028
61170W        W26430   1.697  37.982   0.792
61171W        W26431  43.143  24.491  11.102
61172W        W26432  18.120  13.795  14.503
61173W        W26433  10.864  18.038   4.768
61174W        W26434   5.199  26.124  10.514
61175W        W26435  29.918  21.624  13.050
61176W        W26436  19.496  32.928  13.668
61177W        W26437  30.655   9.649  11.144
61178W        W26438  34.431   5.168  12.820
61179W        W26439  20.266  30.013   0.589
61180W        W26440   4.346  44.352   4.519
61181W        W26441  24.123   9.370  10.216
61182W        W26442  36.047  40.108  14.959
61183W        W26443   0.442  18.141  12.468
61184W        W26444  25.314  19.212  14.760
61185W        W26445  39.459  43.275  14.447
61186W        W26446  38.874   5.915   1.784
61187W        W26447  25.908  29.319   2.369
61188W        W26448  36.276  20.764  12.469
61189W        W26449   1.182  32.104  11.362
61190W        W26450   7.681  36.295  11.199
61191W        W26451  36.068   9.183   1.644
61192W        W26452  40.944   2.799   3.630
61193W        W26453  13.629  17.674   2.149
61194W        W26454  32.045  13.051   0.865
61195W        W26455   6.661  25.142   3.710
61196W        W26456  38.949  31.427  11.147
61197W        W26457  32.587  35.459  10.941
61198W        W26458  43.956   4.724   0.683
61199W        W26459  25.525  22.757  11.609
61200W        W26460  10.366  35.469   1.701
61201W        W26461   0.311  32.147   3.817
61202W        W26462  37.434  23.045  11.173
61203W        W26463  32.271  24.204   3.840
61204W        W26464  18.945  19.086  13.898
61205W        W26465  20.958  27.992  14.752
61206W        W26466   8.935  35.757  12.937
61207W        W26467  43.526  43.869   3.224
61208W        W26468  11.086   5.419   4.131
61209W        W26469   6.298  38.037  11.441
61210W        W26470  20.576  11.746   2.974
61211W        W26471  31.948  37.908  13.969
61212W        W26472  23.714  21.308   0.910
61213W        W26473  11.605  18.471  13.684
61214W        W26474  19.550  41.477   4.313
61215W        W26475  26.114  14.998   2.896
61216W        W26476  36.403  41.977  14.683
61217W        W26477  41.754   3.421   4.697
61218W        W26478  25.099  30.414  12.949
61219W        W26479  21.700  30.847   4.070
61220W        W26480  13.257  40.484   4.699
61221W        W26481   4.171  35.373  14.736
61222W        W26482  22.687  14.884  10.733
61223W        W26483   1.323  38.401   4.556
61224W        W26484   8.650  20.310   1.871
61225W        W26485  18.951  32.538   1.338
61226W        W26486  41.447  17.624   1.246
61227W        W26487   3.644  27.094  12.411
61228W        W26488  25.182   7.234   3.367
61229W        W26489   5.322  12.201  14.411
61230W        W26490  44.912  23.498   1.562
61231W        W26491  25.081   7.649   3.079
61232W        W26492  18.693  44.371   3.618
61233W        W26493  41.176   3.298   2.771
61234W        W26494  35.949  21.186   0.482
61235W        W26495   0.697  21.266  13.921
61236W        W26496  40.993  15.699  11.239
61237W        W26497  30.619   4.260   2.312
61238W        W26498  17.994  13.639  12.977
61239W        W26499  23.224  20.774  14.023
61240W        W26500  35.303  18.757  12.998
61241W        W26501  37.768  26.153   4.417
61242W        W26502  11.261  36.995   2.745
61243W        W26503  12.262  25.952   0.807
61244W        W26504  33.125  11.615   3.401
61245W        W26505  20.589   0.302   4.397
61246W        W26506  42.875  40.822   3.192
61247W        W26507  27.125  19.025   1.763
61248W        W26508  12.485   0.369  13.019
61249W        W26509  27.588  27.312  13.121
61250W        W26510  33.021  41.939  10.357
61251W        W26511  19.158  30.170   0.851
61252W        W26512  27.342  23.481   0.821
61253W        W26513   3.891  14.195   1.704
61254W        W26514  43.479   9.786   2.070
61255W        W26515  10.958   1.077   3.922
61256W        W26516  22.432  32.136   4.263
61257W        W26517  32.069   1.674  12.116
61258W        W26518  16.686  43.234   4.416
61259W        W26519  12.053   5.760   0.001
61260W        W26520  41.966  21.201   4.702
61261W        W26521  31.510   7.977  11.811
61262W        W26522  38.625  36.381  13.090
61263W        W26523  18.951  20.648   0.795
61264W        W26524  24.462  18.325   2.489
61265W        W26525  41.942  18.534   0.298
61266W        W26526  41.224  38.921   3.997
61267W        W26527  28.912  25.757   4.776
61268W        W26528   1.422  24.584  13.010
61269W        W26529  28.152  22.088  12.834
61270W        W26530  43.022   3.941  11.505
61271W        W26531  35.537  28.697  12.675
61272W        W26532  11.913  29.962   2.705
61273W        W26533  21.165  11.221   4.778
61274W        W26534  36.555  10.235  14.887
61275W        W26535  21.918  21.208  10.292
61276W        W26536  43.289  36.227   4.135
61277W        W26537   1.288  28.764   2.521
61278W        W26538  12.791  12.689   3.631
61279W        W26539  36.364   1.795  13.137
61280W        W26540  44.543   1.730   4.331
61281W        W26541   4.507  38.987  11.536
61282W        W26542   2.868  35.948   1.195
61283W        W26543   8.860  31.153  11.124
61284W        W26544  34.960  43.307  14.776
61285W        W26545  17.273  18.463  13.377
61286W        W26546   6.310  38.560   4.630
61287W        W26547  18.764  38.341  14.825
61288W        W26548  13.082  22.412  12.189
61289W        W26549  15.595   6.471  10.462
61290W        W26550  16.787  22.207   1.340
61291W        W26551  44.254   3.152   2.576
61292W        W26552  34.597  33.386   3.791
61293W        W26553  37.314  38.215   0.101
61294W        W26554   7.377  33.888   0.411
61295W        W26555  27.144  38.323   2.668
61296W        W26556  37.061   2.006   3.078
61297W        W26557  21.754  17.206  11.503
61298W        W26558  33.133  14.081  11.561
61299W        W26559  16.551  44.354  11.155
61300W        W26560  26.540  39.756  11.174
61301W        W26561  12.191   6.086   4.097
61302W        W26562  26.703  29.168   0.675
61303W        W26563  35.830  17.666   4.489
61304W        W26564  14.289   0.872   4.088
61305W        W26565   3.322  13.548  13.040
61306W        W26566  15.117  20.701   4.100
61307W        W26567  12.728   2.343  10.921
61308W        W26568   5.242  43.203   0.622
61309W        W26569  22.368   2.512   9.481
61310W        W26570  14.614  41.254   2.278
61311W        W26571  13.163  40.524   0.172
61312W        W26572   4.662   6.267  13.979
61313W        W26573  17.308  15.593   4.586
61314W        W26574   0.482  42.482   4.194
61315W        W26575  43.809   5.792  13.263
61316W        W26576  21.810  28.063  10.765
61317W        W26577  18.308  19.311   1.032
61318W        W26578   4.846  37.483   2.280
61319W        W26579  43.671   9.993  10.440
61320W        W26580  33.515   7.947   4.402
61321W        W26581  33.030  18.719  12.524
61322W        W26582  16.140  29.372  10.785
61323W        W26583   8.963   3.844   1.498
61324W        W26584  43.610  29.164  13.008
61325W        W26585  17.112  24.702   1.727
61326W        W26586  34.413  11.907  14.919
61327W        W26587   4.372  13.118   3.443
61328W        W26588  38.053  33.639   1.441
61329W        W26589  37.844  22.604  10.371
61330W        W26590   8.733  13.724  14.831
61331W        W26591   6.722  15.286  12.412
61332W        W26592  39.198  21.971  13.769
61333W        W26593   9.211   0.586   2.250
61334W        W26594  22.986  21.342  11.918
61335W        W26595  11.378  35.512   3.098
61336W        W26596  13.887   6.251  14.752
61337W        W26597   9.880  36.545   4.291
61338W        W26598  29.945  34.198   2.348
61339W        W26599   5.451   0.205   1.437
61340W        W26600   2.955  30.496  11.011
61341W        W26601   4.939   0.566  11.458
61342W        W26602  15.224  44.916   2.192
61343W        W26603  34.511  16.943  11.718
61344W        W26604  34.823  20.944  14.712
61345W        W26605   7.460   7.677  12.094
61346W        W26606   0.955   7.028   1.737
61347W        W26607   0.807  21.115   1.406
61348W        W26608  23.649  26.599  11.427
61349W        W26609  29.450  40.924  10.427
61350W        W26610  10.197  12.804   1.989
61351W        W26611  17.794  34.642   4.668
61352W        W26612  26.617   0.781   4.630
61353W        W26613  22.827  22.515   0.945
61354W        W26614  25.094  26.630  10.650
61355W        W26615  42.863  39.983   4.571
61356W        W26616  28.192   8.991   5.072
61357W        W26617  43.371  25.190   1.644
61358W        W26618  21.825  26.697  13.365
61359W        W26619  21.473  37.667   2.884
61360W        W26620  37.913  34.395   3.936
61361W        W26621   9.411  16.257  11.067
61362W        W26622  22.755  39.142   4.977
61363W        W26623  36.879  38.896  12.122
61364W        W26624  38.709  26.426  14.390
61365W        W26625  27.066  12.293  12.119
61366W        W26626  21.120  19.493  10.723
61367W        W26627   4.380   0.681   0.797
61368W        W26628  41.926   8.847  13.360
61369W        W26629  40.817  41.103   0.650
61370W        W26630  37.197  11.747  14.706
61371W        W26631  28.601  33.544   3.208
61372W        W26632  10.233  33.396   2.778
61373W        W26633   4.233  34.422   1.874
61374W        W26634  42.738  27.370  14.913
61375W        W26635   3.251  37.656   3.371
61376W        W26636   4.358  17.699  14.316
61377W        W26637   6.912  22.668   0.238
61378W        W26638  15.712   3.854   3.201
61379W        W26639   1.428  28.243  10.688
61380W        W26640  20.995  39.782   1.992
61381W        W26641  39.330  43.617  11.972
61382W        W26642  11.017  22.107  14.084
61383W        W26643  17.615  44.025  14.978
61384W        W26644  18.380   1.817  11.559
61385W        W26645  12.347  24.500  11.556
61386W        W26646  22.260  17.298  11.423
61387W        W26647  38.572  35.518  11.519
61388W        W26648   5.661  13.816  12.527
61389W        W26649  24.536   2.411  14.038
61390W        W26650  43.274  13.658   3.571
61391W        W26651  27.093  17.484   0.466
61392W        W26652   2.772  38.849  12.417
61393W        W26653  43.462  24.221  10.735
61394W        W26654  13.566  28.907  11.005
61395W        W26655  40.135  19.022  14.726
61396W        W26656  15.631   0.176   1.325
61397W        W26657  38.989  18.441  14.511
61398W        W26658   5.384  33.939   1.708
61399W        W26659  23.561  23.186  14.008
61400W        W26660  26.369  15.173  14.024
61401W        W26661  21.611  37.545   0.731
61402W        W26662  42.932  22.669   1.917
61403W        W26663  33.674  15.705  12.417
61404W        W26664  35.683  21.712  14.073
61405W        W26665   6.998  41.970  13.757
61406W        W26666  40.141  29.075  11.651
61407W        W26667  44.948  17.957  12.424
61408W        W26668   8.127  24.174  14.170
61409W        W26669  14.809  39.027  11.496
61410W        W26670  12.978   6.268   0.050
61411W        W26671   5.179   5.011   0.256
61412W        W26672  15.067  16.715   0.350
61413W        W26673  11.349   8.922  11.148
61414W        W26674  13.263   5.457  11.443
61415W        W26675   0.734   2.792   0.901
61416W        W26676  26.511   5.413   3.293
61417W        W26677   0.814  31.533  14.432
61418W        W26678  35.923  15.573   5.140
61419W        W26679  33.965  34.896   1.510
61420W        W26680   0.289  43.377  12.087
61421W        W26681  43.867  44.936  10.940
61422W        W26682  14.855  28.075  13.085
61423W        W26683  40.382  31.171  13.421
61424W        W26684  30.374  17.251   4.048
61425W        W26685  26.015  21.991  14.959
61426W        W26686  28.472  33.749  14.036
61427W        W26687  21.679  44.794   2.784
61428W        W26688  15.179  44.688   3.765
61429W        W26689  43.939  23.643   3.512
61430W        W26690  29.130  32.397  11.633
61431W        W26691   9.974  26.772   3.139
61432W        W26692   2.726   5.369   2.755
61433W        W26693  37.805  42.309  12.973
61434W        W26694  13.067  18.123   1.197
61435W        W26695   8.403  36.405  11.994
61436W        W26696   4.747  44.788  11.938
61437W        W26697  28.588  27.448  11.381
61438W        W26698   4.976   0.244   0.275
61439W        W26699  19.003  20.632  13.494
61440W        W26700  13.213  41.034   1.338
61441W        W26701  32.430  29.949  13.453
61442W        W26702  20.415  32.926  13.573
61443W        W26703  20.748  38.996   3.494
61444W        W26704  31.862   4.673  11.947
61445W        W26705  33.972  15.273   0.465
61446W        W26706   0.489  35.957  13.834
61447W        W26707  11.136  12.452  13.045
61448W        W26708   2.517  28.911   2.178
61449W        W26709  33.918  28.538  13.840
61450W        W26710  34.491  14.495   0.114
61451W        W26711  33.437  40.155  11.644
61452W        W26712  40.661  24.109   4.841
61453W        W26713  35.066  23.283   4.969
61454W        W26714  19.051  26.993   3.692
61455W        W26715  27.498   3.500  10.480
61456W        W26716  10.603  35.472   0.737
61457W        W26717  34.902  19.781   1.320
61458W        W26718  32.642  40.888  14.133
61459W        W26719  28.067  44.775   4.847
61460W        W26720   5.214  14.126   2.251
61461W        W26721  41.632  24.313  13.448
61462W        W26722  29.577  12.901   3.082
61463W        W26723  43.504  25.503  10.872
61464W        W26724  39.404  44.616  14.977
61465W        W26725  21.288  20.975   4.538
61466W        W26726   1.014  44.066  14.025
61467W        W26727  43.150  22.261  11.263
61468W        W26728  21.733  12.992  14.365
61469W        W26729  26.564  26.109  13.262
61470W        W26730  17.073  42.488  12.917
61471W        W26731  18.370  32.460   0.317
61472W        W26732  37.136  43.858   2.709
61473W        W26733  31.482  14.866  13.484
61474W        W26734  37.773  10.801  11.485
61475W        W26735  37.578  15.562   9.629
61476W        W26736  36.922   5.819   4.310
61477W        W26737  43.383  35.839   2.212
61478W        W26738  33.604  18.189   1.840
61479W        W26739   6.303  13.756   1.674
61480W        W26740  19.925  35.577   2.707
61481W        W26741  29.489  11.261   2.091
61482W        W26742   5.851  34.863  11.040
61483W        W26743  31.411   4.280   2.819
61484W        W26744   4.686  34.945  11.587
61485W        W26745  11.207  12.658  14.359
61486W        W26746   9.386  29.667   4.641
61487W        W26747  32.269  40.020  14.069
61488W        W26748  18.151  30.147   4.169
61489W        W26749  18.832  17.970  12.927
61490W        W26750  39.948   4.925   4.753
61491W        W26751  20.680  22.727   0.407
61492W        W26752  18.590   2.813   2.463
61493W        W26753  36.539  15.330  13.456
61494W        W26754  39.528  10.851   1.720
61495W        W26755  14.209   0.184   2.741
61496W        W26756  32.126  10.928  13.578
61497W        W26757  18.968  30.109  14.533
61498W        W26758  36.133   9.096   5.065
61499W        W26759  25.428  17.586  14.239
61500W        W26760  17.729  40.571  12.775
61501W        W26761   6.371  38.013   0.033
61502W        W26762  36.553  21.955  12.982
61503W        W26763  26.717  17.026   4.104
61504W        W26764   9.875  10.300  12.022
61505W        W26765  13.976  35.166   1.505
61506W        W26766  31.669  20.718  12.589
61507W        W26767  42.821   7.895  12.076
61508W        W26768  16.305  40.866  12.486
61509W        W26769  41.027   4.894   4.704
61510W        W26770  30.739  25.706  13.405
61511W        W26771  33.726  22.167   4.905
61512W        W26772  27.448  11.708   2.963
61513W        W26773   0.976  18.482  10.819
61514W        W26774  23.970   5.628  10.359
61515W        W26775   9.030  25.235   2.310
61516W        W26776  41.539  39.576   1.755
61517W        W26777  29.239   2.048   4.792
61518W        W26778  23.439  40.992   2.003
61519W        W26779  28.927  13.614  11.575
61520W        W26780  26.720   0.323  12.955
61521W        W26781  20.042   0.496  12.940
61522W        W26782  28.693   4.760  10.382
61523W        W26783  13.906  36.924   2.207
61524W        W26784  10.122   1.472  14.423
61525W        W26785  20.724  24.510  14.502
61526W        W26786   7.696   0.465   0.490
61527W        W26787  36.436   2.895  14.396
61528W        W26788   6.765  44.879   2.750
61529W        W26789  17.072  22.788   0.187
61530W        W26790  35.042   5.299   4.366
61531W        W26791  40.129  40.393   2.770
61532W        W26792  22.652  23.585  10.306
61533W        W26793  37.997  26.939  13.767
61534W        W26794  29.698  13.906  13.822
61535W        W26795  19.139  38.369  11.436
61536W        W26796  35.351  41.819  13.535
61537W        W26797  27.426  42.505   4.908
61538W        W26798   1.468  17.305   3.401
61539W        W26799  28.199  31.951  10.958
61540W        W26800  38.354  25.116   4.877
61541W        W26801   5.710   5.970   2.424
61542W        W26802   0.300  41.060   2.253
61543W        W26803  15.517  24.958  14.016
61544W        W26804  27.526  21.456   4.445
61545W        W26805  30.958  20.044  13.600
61546W        W26806  36.205  33.344  14.955
61547W        W26807  21.639   3.382  11.412
61548W        W26808   6.550  20.967   1.322
61549W        W26809  23.953  37.726   2.625
61550W        W26810  22.249  35.985   1.824
61551W        W26811  40.298   3.546   3.868
61552W        W26812  33.388  35.545   0.950
61553W        W26813  11.015  13.162   1.937
61554W        W26814  39.145  36.754  11.945
61555W        W26815  27.080  36.328   1.018
61556W        W26816  21.401  20.578   3.528
61557W        W26817  10.097  30.581   1.597
61558W        W26818   3.544   5.115  12.431
61559W        W26819   3.870  26.479  11.128
61560W        W26820  20.924   9.137  12.624
61561W        W26821  42.058  26.574   3.175
61562W        W26822  26.977  29.146   1.351
61563W        W26823   3.455  29.706   2.783
61564W        W26824  23.074   8.847   2.131
61565W        W26825   3.572   0.765  14.426
61566W        W26826  23.400   7.431  11.160
61567W        W26827  18.207  29.140  12.515
61568W        W26828  28.683  38.182  11.932
61569W        W26829  13.809   2.750  11.691
61570W        W26830  36.393  26.362   0.411
61571W        W26831  39.031  18.761  14.091
61572W        W26832  14.517   3.717  10.501
61573W        W26833  11.143  26.743  13.862
61574W        W26834  40.223   8.646  10.390
61575W        W26835  42.281  34.483  11.156
61576W        W26836  33.598  16.593  13.435
61577W        W26837   0.479   2.329   2.426
61578W        W26838  43.097  25.239  11.402
61579W        W26839  20.788  12.517   0.029
61580W        W26840  25.157  14.796  14.322
61581W        W26841  11.418   9.886   3.206
61582W        W26842  39.660  25.951   2.520
61583W        W26843  38.054  11.349  10.623
61584W        W26844  23.752   9.124   9.905
61585W        W26845  34.903  21.241  14.297
61586W        W26846  15.036   8.030   5.445
61587W        W26847  15.076  40.109  14.478
61588W        W26848  17.645   0.777   0.271
61589W        W26849  20.683  15.404   1.279
61590W        W26850  32.574  29.143   4.084
61591W        W26851  10.688  10.731  13.634
61592W        W26852  30.975  34.235   2.893
61593W        W26853  15.548  17.732   4.187
61594W        W26854  17.593  35.179   2.802
61595W        W26855  25.233  15.250  11.112
61596W        W26856  39.555  15.691   3.734
61597W        W26857  33.706  20.939  11.093
61598W        W26858  38.563   7.636  10.443
61599W        W26859   5.300  40.938  13.500
61600W        W26860  17.862  28.171   2.768
61601W        W26861  27.189  19.652  11.918
61602W        W26862  19.274  17.320  11.646
61603W        W26863  21.089   7.457  10.329
61604W        W26864  33.407   6.315   2.634
61605W        W26865   0.253  18.279  14.354
61606W        W26866  21.105  41.894  11.158
61607W        W26867  18.969  22.930   2.664
61608W        W26868   2.331   6.385  14.327
61609W        W26869  30.392  43.244  11.948
61610W        W26870  27.942   6.344  10.622
61611W        W26871  22.510  37.116   0.027
61612W        W26872  20.124   8.875  10.549
61613W        W26873  41.250  31.026   0.912
61614W        W26874  12.907  17.542   4.653
61615W        W26875  20.082  25.608   0.286
61616W        W26876  12.768  13.350  12.413
61617W        W26877   4.407  43.255  14.280
61618W        W26878  16.496  37.572  12.982
61619W        W26879   9.179  12.462  13.771
61620W        W26880  33.807  34.450   1.815
61621W        W26881  24.836  32.291   1.933
61622W        W26882   6.191  34.966   0.975
61623W        W26883  40.608  43.957  11.655
61624W        W26884  36.563  23.144   0.316
61625W        W26885  44.054  24.729   1.885
61626W        W26886  24.141  16.148   3.585
61627W        W26887  37.634  38.391   0.477
61628W        W26888  33.018   5.881   0.030
61629W        W26889  12.594   0.444  11.238
61630W        W26890  40.972   1.195   4.904
61631W        W26891  30.610  29.135  13.962
61632W        W26892  15.114  12.681   0.973
61633W        W26893  24.542  39.564  14.974
61634W        W26894  39.868  29.723   2.621
61635W        W26895   1.332  15.749  14.937
61636W        W26896  31.767  25.549   3.025
61637W        W26897  39.130   0.499  11.165
61638W        W26898  35.889   0.679   1.729
61639W        W26899  17.594   4.192  11.053
61640W        W26900  42.111   8.742  10.713
61641W        W26901  38.998   5.424   4.934
61642W        W26902  31.160  32.493  12.139
61643W        W26903  15.271  19.220   1.331
61644W        W26904   0.428   3.229  11.556
61645W        W26905  41.670  41.790   0.423
61646W        W26906  27.869  20.216  12.427
61647W        W26907  24.527  37.122  14.840
61648W        W26908  32.891   2.683   0.315
61649W        W26909  19.710  44.047   3.621
61650W        W26910  15.745   2.753   4.550
61651W        W26911  35.476   5.952  13.275
61652W        W26912  26.488  21.693  14.185
61653W        W26913  23.381  11.815  12.549
61654W        W26914  12.933  37.086   2.542
61655W        W26915  43.087  14.780   3.684
61656W        W26916  30.907  43.810  12.652
61657W        W26917  31.122  24.118  13.441
61658W        W26918   4.392  15.615  11.231
61659W        W26919  37.898  13.317  14.875
61660W        W26920  29.047  42.921  11.484
61661W        W26921  40.960   1.905  11.030
61662W        W26922  10.040  35.353  14.907
61663W        W26923  31.935  17.124   0.317
61664W        W26924   4.943  33.814  11.178
61665W        W26925  42.907   4.781   5.103
61666W        W26926  19.348   8.653   3.222
61667W        W26927  27.188  18.093   1.735
61668W        W26928  12.804  30.448   1.195
61669W        W26929  14.678  31.628   2.048
61670W        W26930  24.246   7.883   1.151
61671W        W26931   2.227   2.430  14.280
61672W        W26932  33.588   6.532   1.353
61673W        W26933  40.386  27.926   0.844
61674W        W26934  21.201  29.138  14.802
61675W        W26935  23.532  28.659  12.657
61676W        W26936  39.809  12.648   3.619
61677W        W26937  27.802   2.258  11.039
61678W        W26938  16.052  16.243  12.797
61679W        W26939  16.749  14.525   1.304
61680W        W26940  31.811  12.957   1.846
61681W        W26941  15.188   3.058  12.402
61682W        W26942   6.246  27.710   1.401
61683W        W26943  29.047  34.376  14.909
61684W        W26944  28.033  34.602   2.337
61685W        W26945  39.583  31.686   0.842
61686W        W26946   0.374  23.211  14.715
61687W        W26947  26.248   2.307  11.981
61688W        W26948  35.986  36.327  10.504
61689W        W26949  42.006  29.960   3.689
61690W        W26950  15.846  37.983   4.623
61691W        W26951  11.526  37.386  14.748
61692W        W26952  34.024  13.491   1.162
61693W        W26953  26.227  30.284   3.365
61694W        W26954  32.094  15.081  14.001
61695W        W26955  26.740  12.845  10.254
61696W        W26956  18.667  11.411   1.792
61697W        W26957  41.305   3.387   1.193
61698W        W26958  37.272  17.232  12.511
61699W        W26959   1.407   2.248  11.495
61700W        W26960  24.346   2.914   3.710
61701W        W26961  26.927  43.769  12.204
61702W        W26962   1.344  24.064  10.796
61703W        W26963  31.056   9.245   4.363
61704W        W26964  35.304  35.926   0.850
61705W        W26965  10.609  24.042   3.540
61706W        W26966   8.685  43.757  13.925
61707W        W26967   1.816  21.224   4.494
61708W        W26968  35.389  37.376  14.865
61709W        W26969  43.288  41.654  12.663
61710W        W26970  44.033   5.416  14.098
61711W        W26971   2.892  44.498   3.678
61712W        W26972  40.083  33.105  13.451
61713W        W26973  18.304  27.607  10.804
61714W        W26974  39.012  25.610  12.361
61715W        W26975   1.189  16.850   1.123
61716W        W26976  36.807   9.867   1.859
61717W        W26977  26.670   0.013   0.193
61718W        W26978  41.310  39.507  11.402
61719W        W26979  26.963   3.163  14.328
61720W        W26980  32.909  36.615   2.017
61721W        W26981   0.438   0.721  12.600
61722W        W26982   8.296  13.113   0.448
61723W        W26983  34.521  37.978   4.329
61724W        W26984   9.691  31.320   4.227
61725W        W26985  40.069  40.397   4.492
61726W        W26986  27.663  33.397  12.910
61727W        W26987  21.407  40.023   2.200
61728W        W26988  39.205  31.273   3.688
61729W        W26989  23.889  24.700  12.453
61730W        W26990  19.121  16.160   4.556
61731W        W26991  27.185  40.817   3.121
61732W        W26992  39.509  16.618  14.834
61733W        W26993  37.463  22.826  13.953
61734W        W26994  21.660  25.698  12.955
61735W        W26995   4.896   0.476   3.911
61736W        W26996   4.417   2.288  12.975
61737W        W26997  28.133  11.171  14.242
61738W        W26998  21.355  44.313   5.052
61739W        W26999  11.439   2.840   4.113
61740W        W27000  35.240  11.339   1.734
61741W        W27001  28.430  17.153  10.207
61742W        W27002  13.617  19.838  14.409
61743W        W27003   5.275   2.187   1.353
61744W        W27004   2.494   1.877   2.316
61745W        W27005  30.438   6.914   4.128
61746W        W27006  23.700  25.617  11.646
61747W        W27007  39.315  23.959   2.238
61748W        W27008  17.569  41.822   4.993
61749W        W27009  14.637  18.434  10.566
61750W        W27010  20.299  24.057  11.486
61751W        W27011  20.003  24.602  13.939
61752W        W27012  37.520  42.527  14.878
61753W        W27013   0.247  16.508  12.031
61754W        W27014  30.141  17.640  12.019
61755W        W27015  28.373   3.236   3.328
61756W        W27016  24.771  43.201  12.557
61757W        W27017  10.109  39.450  11.619
61758W        W27018   9.454  30.000  10.701
61759W        W27019  34.448   1.860   4.579
61760W        W27020  14.673   3.954   0.898
61761W        W27021  18.071  27.061   0.740
61762W        W27022  40.947  33.972   2.204
61763W        W27023  26.758  41.162  13.825
61764W        W27024  17.351  38.535  10.631
61765W        W27025  23.066  37.410   4.043
61766W        W27026  15.070  19.656   2.479
61767W        W27027   5.379  34.971   2.888
61768W        W27028  41.777  38.949   0.210
61769W        W27029  41.741  20.714   1.158
61770W        W27030  34.493  32.518  11.573
61771W        W27031  11.262  32.154   1.435
61772W        W27032   3.191  23.617  12.382
61773W        W27033  27.975  15.551   2.902
61774W        W27034  27.645  10.880  10.934
61775W        W27035  10.428  36.028   2.344
61776W        W27036  40.427  34.982   2.747
61777W        W27037   0.638  34.629  12.929
61778W        W27038  32.066  16.491  11.892
61779W        W27039  10.726   2.808   3.246
61780W        W27040  38.058  14.228  11.406
61781W        W27041  32.884  32.263  12.122
61782W        W27042  42.455   2.961   4.610
61783W        W27043  38.801  12.664  13.784
61784W        W27044  25.615  22.404   2.776
61785W        W27045  20.159  21.435  14.562
61786W        W27046  38.817  36.021  14.945
61787W        W27047  18.230   6.928  12.416
61788W        W27048  24.569   6.424  13.015
61789W        W27049  18.681  23.831   4.302
61790W        W27050  29.604  20.496   3.970
61791W        W27051  21.869  26.005  11.990
61792W        W27052  41.128   5.789  13.641
61793W        W27053  44.610   9.651  11.963
61794W        W27054  24.865  17.712   3.998
61795W        W27055  37.481  44.463  11.386
61796W        W27056   1.019  30.492  11.175
61797W        W27057   3.670  20.600   1.693
61798W        W27058   1.439  41.357  13.379
61799W        W27059  34.067   5.892  13.125
61800W        W27060   2.879  24.071   4.546
61801W        W27061  14.493  40.879  12.052
61802W        W27062  25.282  29.982   0.661
61803W        W27063  23.201  21.482   3.881
61804W        W27064  26.680  24.960   3.088
61805W        W27065  42.367  21.233  12.159
61806W        W27066  30.622  26.244   0.633
61807W        W27067  32.359  25.676  12.568
61808W        W27068  42.454  44.383  14.502
61809W        W27069  29.702  20.620  11.655
61810W        W27070  23.078  21.165  13.711
61811W        W27071  19.607   7.864  11.178
61812W        W27072  36.925  37.369  10.994
61813W        W27073   4.824   5.641  14.054
61814W        W27074  33.172   1.937   2.338
61815W        W27075  41.448  39.577  12.652
61816W        W27076  21.759  44.520  13.342
61817W        W27077   7.648  12.136   2.834
61818W        W27078  21.982  30.422   3.222
61819W        W27079  21.125   8.996   4.280
61820W        W27080   9.838   4.731   1.298
61821W        W27081  15.988  31.621  11.935
61822W        W27082   1.473  32.210   1.777
61823W        W27083  30.106  35.155  13.537
61824W        W27084  29.978   3.256   4.682
61825W        W27085  12.618  32.280   3.339
61826W        W27086   8.931  32.959   3.799
61827W        W27087  44.329  26.583   0.876
61828W        W27088  26.688  33.497   2.869
61829W        W27089   8.173   4.150  13.414
61830W        W27090  15.992  38.302   5.014
61831W        W27091  13.349  14.151   5.025
61832W        W27092  35.091  11.542   0.866
61833W        W27093  34.060  12.423   3.763
61834W        W27094   9.219  10.300   1.010
61835W        W27095   6.567  26.076  12.435
61836W        W27096  23.199  36.913   0.010
61837W        W27097  32.918  21.149   3.706
61838W        W27098  10.758  10.790  13.121
61839W        W27099  39.050  31.493  12.965
61840W        W27100  38.002  41.386   4.459
61841W        W27101  21.678  10.548  13.924
61842W        W27102  22.277  10.903  14.408
61843W        W27103   9.578  38.355  12.430
61844W        W27104  25.509  34.629   4.656
61845W        W27105  34.094  25.147   0.216
61846W        W27106   9.266  19.748   4.974
61847W        W27107  43.986   0.094   2.353
61848W        W27108  16.179  35.384  13.029
61849W        W27109   5.403   3.052   4.249
61850W        W27110  41.921   3.878  12.145
61851W        W27111  16.602  35.749  12.416
61852W        W27112  43.743  40.990   1.753
61853W        W27113  42.425   5.752   0.280
61854W        W27114   9.595   7.770  14.952
61855W        W27115  30.000  30.378   4.163
61856W        W27116   1.712  14.757  11.694
61857W        W27117  12.832  37.479  14.437
61858W        W27118  34.674  33.982  13.877
61859W        W27119   8.798  32.882  10.418
61860W        W27120  22.787  20.072  14.487
61861W        W27121  27.047   8.327   3.825
61862W        W27122  29.185  21.662   2.353
61863W        W27123  41.033  26.507  13.509
61864W        W27124  33.065  20.597   0.929
61865W        W27125   5.746  29.902   4.249
61866W        W27126  22.267  16.348   2.321
61867W        W27127  21.809  13.789  14.002
61868W        W27128  40.071   5.883  11.925
61869W        W27129  33.376   2.042   0.324
61870W        W27130  23.138   8.893   2.673
61871W        W27131  20.472  32.951   3.083
61872W        W27132   1.786  22.774   3.055
61873W        W27133   8.124  17.345   3.160
61874W        W27134  21.466  28.069   0.321
61875W        W27135  20.977  16.614  13.821
61876W        W27136  22.131  24.297  13.726
61877W        W27137   3.543   1.968  14.865
61878W        W27138  28.842  20.558   1.260
61879W        W27139  21.753   4.084  13.885
61880W        W27140  18.691   8.484   5.195
61881W        W27141  23.502  19.104   0.330
61882W        W27142  14.341  27.464   2.216
61883W        W27143  13.136  24.560  14.353
61884W        W27144  23.999  30.471   0.304
61885W        W27145   7.221  33.425  10.721
61886W        W27146  32.559  15.622   2.205
61887W        W27147  37.072  34.654  14.493
61888W        W27148  39.493   2.742   2.619
61889W        W27149  29.335   4.455   4.975
61890W        W27150  31.084  34.524  12.909
61891W        W27151  29.174  29.903  12.361
61892W        W27152  44.218  17.184  12.469
61893W        W27153  22.482  17.586   2.747
61894W        W27154  37.552   0.350  11.636
61895W        W27155  22.412   8.857   4.532
61896W        W27156  21.199   7.351  12.133
61897W        W27157  22.771  17.484  11.108
61898W        W27158  30.595   9.224  12.667
61899W        W27159  37.079  19.408   4.714
61900W        W27160   6.348  32.383  14.047
61901W        W27161   9.194  20.547  11.637
61902W        W27162  35.562   4.382   2.396
61903W        W27163   9.450  24.948   5.330
61904W        W27164  44.013  33.528   0.903
61905W        W27165  12.035  40.196   1.293
61906W        W27166  23.019  42.025   1.690
61907W        W27167  11.764  25.756  13.065
61908W        W27168  25.552  14.101   4.004
61909W        W27169  27.590  31.510  12.151
61910W        W27170  39.204  42.784  10.822
61911W        W27171   8.379  21.421  11.083
61912W        W27172  22.492  16.684   0.742
61913W        W27173  38.250  44.965  14.702
61914W        W27174  42.921  17.239  14.279
61915W        W27175  35.857  36.153   3.667
61916W        W27176  41.802  15.769  11.606
61917W        W27177  43.587   4.271  14.333
61918W        W27178  31.015  22.255   1.144
61919W        W27179  29.532  24.244   3.573
61920W        W27180  41.652  41.914  11.805
61921W        W27181  38.761  33.902   0.339
61922W        W27182  44.954  23.599   2.084
61923W        W27183  40.354   0.701  12.072
61924W        W27184  14.251  13.641  12.889
61925W        W27185  35.408  42.566   1.263
61926W        W27186   7.776  22.496  14.505
61927W        W27187  25.223   1.676  11.562
61928W        W27188  39.517  33.429   1.811
61929W        W27189  29.847  13.335   0.302
61930W        W27190  34.198   5.286  11.374
61931W        W27191  37.744  15.334  10.084
61932W        W27192  23.009  42.582   2.588
61933W        W27193  24.645   6.187   1.844
61934W        W27194  11.142  33.640   2.568
61935W        W27195  24.056  36.306   3.638
61936W        W27196  35.267  43.879  11.680
61937W        W27197   9.614  34.591  12.042
61938W        W27198   9.616   4.532   2.498
61939W        W27199  22.505  32.682  14.401
61940W        W27200  32.719  43.985  11.457
61941W        W27201  36.780  26.681  11.085
61942W        W27202  42.348  33.607  11.451
61943W        W27203   9.601  32.602  10.615
61944W        W27204  27.610  16.783  14.007
61945W        W27205  40.379   5.461   1.101
61946W        W27206   4.930  33.810  10.274
61947W        W27207   3.411  23.515  12.838
61948W        W27208  38.767  36.141  10.389
61949W        W27209  26.192  36.759  11.495
61950W        W27210  27.036  41.323   0.084
61951W        W27211  32.199  38.442  12.618
61952W        W27212   9.957  25.419   3.586
61953W        W27213   2.229   8.430  14.396
61954W        W27214   9.792   4.125  13.966
61955W        W27215  21.544  30.210  14.762
61956W        W27216   1.715  18.628  14.680
61957W        W27217  22.595  41.518  11.241
61958W        W27218  19.315  23.482   3.840
61959W        W27219   5.881  20.306   1.911
61960W        W27220  13.419  22.657   3.604
61961W        W27221  23.890   9.527   1.192
61962W        W27222  24.554  29.655   2.941
61963W        W27223   8.404  28.205  13.848
61964W        W27224  38.427  10.177  14.955
61965W        W27225   7.400  24.132  10.809
61966W        W27226  25.657  22.907  12.081
61967W        W27227   5.303  14.806   0.112
61968W        W27228   5.522  34.661   2.113
61969W        W27229  28.335   7.475   0.275
61970W        W27230  29.115   6.254   4.483
61971W        W27231  19.435  41.453   3.811
61972W        W27232  25.516  30.989  10.468
61973W        W27233  11.249   0.266   2.886
61974W        W27234  31.181  26.599  13.239
61975W        W27235  44.342  10.409  10.687
61976W        W27236  22.983   1.504  13.992
61977W        W27237  36.543   0.251  13.020
61978W        W27238  43.086   9.433  12.933
61979W        W27239   4.156  10.576  11.501
61980W        W27240  31.096  42.548   2.483
61981W        W27241  22.942  18.972  13.900
61982W        W27242  11.693  33.282  11.493
61983W        W27243  33.163  32.667   0.761
61984W        W27244  23.010  32.381  10.427
61985W        W27245   3.886  22.131   2.596
61986W        W27246   3.326  10.687  10.939
61987W        W27247  41.525  40.433   0.528
61988W        W27248  10.198  39.495   3.857
61989W        W27249   8.980  26.520  14.418
61990W        W27250  18.124  16.792   2.914
61991W        W27251  24.103   2.404  13.278
61992W        W27252   6.020  33.504   0.612
61993W        W27253  44.786  42.839  12.782
61994W        W27254  20.511  27.956   0.013
61995W        W27255  23.603  34.314   0.712
61996W        W27256  19.991  32.483  14.556
61997W        W27257   9.070  15.103  13.312
61998W        W27258   5.928  42.861   0.304
61999W        W27259  30.934  16.018  14.452
62000W        W27260  32.452  19.965   0.998
62001W        W27261  17.050  16.700  12.879
62002W        W27262  40.861  17.601   4.100
62003W        W27263  29.668   1.917  12.160
62004W        W27264   6.391   3.388  13.559
62005W        W27265  44.437   2.597   1.753
62006W        W27266  22.663  28.712   5.022
62007W        W27267  42.166  30.933   3.720
62008W        W27268  35.120   2.349  14.523
62009W        W27269  21.858  24.190  12.942
62010W        W27270  29.442   5.564   0.203
62011W        W27271   8.813  21.982   0.712
62012W        W27272  32.549  36.393   1.667
62013W        W27273  30.071  18.658   2.848
62014W        W27274  13.100   0.073  14.142
62015W        W27275   1.525  11.811  11.584
62016W        W27276  41.079  23.721  10.650
62017W        W27277  38.199  34.618   2.175
62018W        W27278  38.326  25.954  11.429
62019W        W27279   7.273  42.200  14.853
62020W        W27280   7.888  38.206   2.537
62021W        W27281  17.298   0.046   3.725
62022W        W27282  11.211   4.592  11.040
62023W        W27283  30.530  21.880   2.640
62024W        W27284  42.522  11.474   3.639
62025W        W27285  21.634  23.663   5.179
62026W        W27286  41.479  25.707   3.595
62027W        W27287  32.588  42.406  12.515
62028W        W27288  40.235  15.076  14.941
62029W        W27289  12.220  25.509  12.946
62030W        W27290  27.664  29.467  12.900
62031W        W27291  25.539  28.015  12.270
62032W        W27292  41.356  40.931   3.337
62033W        W27293  14.902  31.484  14.023
62034W        W27294   4.612  44.004  14.740
62035W        W27295  27.769  41.993   4.154
62036W        W27296  43.755  33.994   0.860
62037W        W27297  44.577  34.022   1.253
62038W        W27298  17.307  12.655  13.987
62039W        W27299  42.471  31.539   0.851
62040W        W27300   6.615   1.545  11.403
62041W        W27301  32.526  44.194  11.896
62042W        W27302  25.028  25.525  11.068
62043W        W27303  37.929  37.797   1.644
62044W        W27304  10.931  39.866   3.875
62045W        W27305  12.088   4.829   4.559
62046W        W27306  17.574  26.227  14.698
62047W        W27307  38.853  21.580   3.680
62048W        W27308  17.585  44.944  12.393
62049W        W27309  20.294  25.504   3.342
62050W        W27310  23.381  25.161   2.285
62051W        W27311  39.803  14.189   3.534
62052W        W27312  27.405  32.002   2.622
62053W        W27313  31.868  10.261  14.004
62054W        W27314  27.021  28.921   1.863
62055W        W27315  33.981  35.963   0.457
62056W        W27316  17.838  20.648  14.855
62057W        W27317  38.118  42.404  13.358
62058W        W27318  27.466  26.076   3.446
62059W        W27319   5.480  29.432  14.828
62060W        W27320  27.097  31.419  12.000
62061W        W27321  40.505  41.230  12.993
62062W        W27322  43.396  30.579  11.855
62063W        W27323  38.873   4.900  14.927
62064W        W27324  26.407   4.983   1.266
62065W        W27325   4.478  26.066   0.827
62066W        W27326   1.688  27.786   1.783
62067W        W27327  24.640   8.889  13.483
62068W        W27328   7.416  29.806   3.309
62069W        W27329  35.121   4.838  12.397
62070W        W27330  19.903  27.162   0.885
62071W        W27331  22.484  24.430   1.717
62072W        W27332   2.527  23.643  14.409
62073W        W27333   4.769  15.992   2.825
62074W        W27334  28.918  18.269  14.416
62075W        W27335   5.449  25.974   3.709
62076W        W27336   2.031  34.425   1.645
62077W        W27337  40.473   7.478   0.785
62078W        W27338   9.173  21.354   3.219
62079W        W27339   5.818  19.807   1.961
62080W        W27340  33.135  13.591   4.794
62081W        W27341   3.681  13.839   2.017
62082W        W27342  33.354   7.774   2.001
62083W        W27343  10.299   3.791  10.588
62084W        W27344  10.709  44.007  11.954
62085W        W27345  22.726   7.904  13.827
62086W        W27346  39.937  36.979  10.626
62087W        W27347  13.221   4.677  14.514
62088W        W27348   9.198  34.364   1.291
62089W        W27349  16.641  40.534   1.746
62090W        W27350  27.653  16.828  12.356
62091W        W27351  39.354  21.176  10.051
62092W        W27352  38.317   3.314   4.502
62093W        W27353   5.680   7.216  12.010
62094W        W27354   4.436  19.811  11.964
62095W        W27355  35.985   9.197   4.588
62096W        W27356  28.103  12.730   5.144
62097W        W27357  22.649  30.877  11.675
62098W        W27358  22.827  14.998  12.199
62099W        W27359  23.624   4.477   3.190
62100W        W27360  10.189  42.209   1.968
62101W        W27361  18.157  16.140   4.675
62102W        W27362  25.439  11.924  14.892
62103W        W27363   4.838  22.303   2.268
62104W        W27364  10.294  29.089   2.665
62105W        W27365  14.507  27.901  11.163
62106W        W27366  16.576  21.217  13.595
62107W        W27367  27.259  32.713  11.548
62108W        W27368  35.168  16.811  11.502
62109W        W27369   0.023   0.355   3.668
62110W        W27370   4.414  43.232   0.821
62111W        W27371  34.093  25.965   3.086
62112W        W27372  37.665  41.097  11.194
62113W        W27373  22.371  39.040  11.442
62114W        W27374  22.116  25.152   0.045
62115W        W27375  33.150  35.723   4.599
62116W        W27376  27.234  35.544  10.635
62117W        W27377  16.595  43.796   1.849
62118W        W27378  18.218  36.707  11.826
62119W        W27379  40.346   5.787  11.461
62120W        W27380  10.094   0.821   1.239
62121W        W27381  26.521  11.317   1.318
62122W        W27382   8.878  12.093   2.360
62123W        W27383  31.430  14.197  10.713
62124W        W27384   0.368  37.304  13.739
62125W        W27385  35.479  11.247  10.766
62126W        W27386  26.045  32.360  10.428
62127W        W27387  27.478  35.580  12.391
62128W        W27388  30.068  10.085  13.588
62129W        W27389  44.979  34.635   2.704
62130W        W27390  30.930  32.658  13.139
62131W        W27391  23.013  19.144   3.398
62132W        W27392  30.717  39.943   0.787
62133W        W27393  12.413   5.814   3.167
62134W        W27394   3.777  13.304   2.115
62135W        W27395  32.238   5.992  13.755
62136W        W27396  28.594  26.387  13.078
62137W        W27397  38.124  20.758  13.946
62138W        W27398   7.059   8.368  12.434
62139W        W27399  40.259  43.304  12.966
62140W        W27400  39.036  37.531  12.334
62141W        W27401  33.576   9.836  14.015
62142W        W27402  13.276  37.965   1.952
62143W        W27403  28.146   3.965  12.492
62144W        W27404  29.991  42.734   2.893
62145W        W27405   9.180  13.193  13.380
62146W        W27406  12.231  35.925   3.807
62147W        W27407  18.466   6.901  13.564
62148W        W27408  25.976  14.065  14.992
62149W        W27409   9.198  28.695  11.161
62150W        W27410  41.380  22.702   3.522
62151W        W27411  17.949  25.332   0.726
62152W        W27412  19.708  31.130  13.952
62153W        W27413  37.602  17.143   0.478
62154W        W27414   3.564  19.602  11.180
62155W        W27415   2.274  24.676   2.740
62156W        W27416  42.243  43.923  14.799
62157W        W27417  21.813  16.763   1.493
62158W        W27418  13.523  14.841  12.558
62159W        W27419  23.528  43.074   0.916
62160W        W27420  32.128  35.213  14.753
62161W        W27421  28.628  32.590   0.691
62162W        W27422  11.326   4.681   2.695
62163W        W27423  17.012  42.808   2.428
62164W        W27424  24.230  29.999   3.131
62165W        W27425  29.609   4.795   2.124
62166W        W27426  30.868  22.804   3.232
62167W        W27427  26.033   8.649  11.144
62168W        W27428  36.213  29.755  11.198
62169W        W27429  11.716  15.010   3.899
62170W        W27430  26.791  27.184   0.605
62171W        W27431  41.265  11.303   1.430
62172W        W27432  10.365  19.474  11.559
62173W        W27433  42.710  44.974  11.712
62174W        W27434  30.983  19.626  10.223
62175W        W27435  40.444  10.333  11.217
62176W        W27436  30.161  39.873   2.329
62177W        W27437   6.396  27.480  14.983
62178W        W27438  30.309  19.741  10.726
62179W        W27439  39.873  20.943  12.505
62180W        W27440   2.994  35.300   1.744
62181W        W27441  24.696  18.213  13.034
62182W        W27442  28.455  15.506   2.201
62183W        W27443  17.054  34.267  12.960
62184W        W27444  42.018  28.271   5.119
62185W        W27445  39.565  16.757  10.889
62186W        W27446  41.997  42.413   1.014
62187W        W27447  39.548  32.033  13.777
62188W        W27448  27.919  34.571  13.432
62189W        W27449  15.773   9.125   1.745
62190W        W27450  22.716  25.609  10.476
62191W        W27451   3.425   3.509   4.590
62192W        W27452   6.407  28.467  13.051
62193W        W27453  11.908   0.510  10.643
62194W        W27454  36.934  35.332  11.184
62195W        W27455   8.821  21.842   2.359
62196W        W27456  15.004  34.008  14.446
62197W        W27457  38.972  22.195   4.891
62198W        W27458  40.018  15.704  10.705
62199W        W27459   2.852   5.621   2.280
62200W        W27460   7.928  43.554   1.448
62201W        W27461  27.493   2.301   2.108
62202W        W27462  34.720  29.991   0.325
62203W        W27463  39.358   5.768  12.878
62204W        W27464  29.725   7.008  11.160
62205W        W27465  27.970  34.907  11.592
62206W        W27466  30.252  13.469   1.131
62207W        W27467  34.137  32.725  11.252
62208W        W27468  12.696   6.834  12.988
62209W        W27469  28.076  32.648  14.024
62210W        W27470  36.172  33.680  12.894
62211W        W27471  29.537  25.049   3.188
62212W        W27472   6.796  42.014  14.846
62213W        W27473  23.208   2.538   3.268
62214W        W27474  23.005  40.398   1.503
62215W        W27475  14.569  30.702  14.429
62216W        W27476   4.553  34.447   2.282
62217W        W27477  43.831  40.390   1.865
62218W        W27478  43.740  17.131  13.499
62219W        W27479  30.935  30.006  14.399
62220W        W27480  21.603  16.017  13.897
62221W        W27481  12.351  39.531  10.708
62222W        W27482   3.367  41.678   3.761
62223W        W27483  39.994  40.847   1.016
62224W        W27484   6.703  26.152   1.842
62225W        W27485   3.428  38.956  14.250
62226W        W27486  36.840   5.569   0.943
62227W        W27487  36.423   1.962   0.415
62228W        W27488  22.813   0.909  11.257
62229W        W27489  34.181   2.932  10.160
62230W        W27490  27.188  34.812  11.130
62231W        W27491   7.390  24.242   1.590
62232W        W27492  33.666   5.359  11.155
62233W        W27493  28.656   6.304  14.206
62234W        W27494  21.750  37.122  11.615
62235W        W27495  22.986  38.394  14.819
62236W        W27496   6.713  32.407   4.173
62237W        W27497  11.352  20.665   3.636
62238W        W27498  29.701  12.795  14.896
62239W        W27499  44.816  28.388  14.813
62240W        W27500   0.300  36.306  14.855
62241W        W27501  33.212  28.590  12.765
62242W        W27502   8.351  18.304  13.465
62243W        W27503  28.281   5.981  14.392
62244W        W27504  23.832   9.145   5.533
62245W        W27505  25.597  16.103  14.753
62246W        W27506   5.272  36.240   3.130
62247W        W27507  20.795  30.704   2.637
62248W        W27508  25.096  14.407  10.172
62249W        W27509  40.883  19.130   2.933
62250W        W27510  44.110  39.527   0.820
62251W        W27511  25.985  21.729   0.480
62252W        W27512   7.780  17.998  10.665
62253W        W27513   7.985  10.364   2.328
62254W        W27514  26.769  32.432   4.624
62255W        W27515  42.697  26.589  14.370
62256W        W27516  24.426  31.912   1.212
62257W        W27517  16.233   1.997   4.867
62258W        W27518  30.135   6.752  11.230
62259W        W27519  37.588  32.897   1.065
62260W        W27520  18.353  32.814  12.528
62261W        W27521   3.393  22.746   2.521
62262W        W27522  13.679  30.488   4.347
62263W        W27523  37.553  41.520  10.821
62264W        W27524  32.002  13.152  12.228
62265W        W27525   1.942  16.566   1.663
62266W        W27526  35.008  32.798   4.167
62267W        W27527   3.886  37.533   1.205
62268W        W27528  44.459  22.974   9.780
62269W        W27529  35.424  17.839   3.757
62270W        W27530  40.335  26.449   4.826
62271W        W27531  40.414  44.990   4.619
62272W        W27532  34.065  37.476   3.842
62273W        W27533  42.744   8.317  13.476
62274W        W27534  26.172  13.827  10.945
62275W        W27535  18.757  14.561   3.138
62276W        W27536   5.895  29.985  10.668
62277W        W27537  11.357  32.564   4.129
62278W        W27538  15.993   4.314  14.954
62279W        W27539   3.461  34.089   3.804
62280W        W27540   3.930  35.894  10.645
62281W        W27541  31.276  39.329  14.822
62282W        W27542   0.779  22.023   0.615
62283W        W27543  15.295   3.399   2.274
62284W        W27544  44.014  43.009   1.769
62285W        W27545  10.808  36.798   0.081
62286W        W27546  13.779  20.249  11.053
62287W        W27547  16.562  15.604  11.558
62288W        W27548   2.872  20.283   0.369
62289W        W27549  31.291  22.370  14.388
62290W        W27550   4.234  18.612   3.853
62291W        W27551  27.446   6.374  11.574
62292W        W27552  16.177  33.659   4.755
62293W        W27553   2.429  40.281  13.941
62294W        W27554  23.693   0.802  10.736
62295W        W27555  15.801  10.496   1.756
62296W        W27556   4.292  21.912   2.884
62297W        W27557   0.137   2.760  14.696
62298W        W27558  30.543   3.153  13.895
62299W        W27559  41.381  22.727   4.552
62300W        W27560  27.094   6.453   0.629
62301W        W27561  10.624  17.445  12.539
62302W        W27562   9.727   0.960   2.185
62303W        W27563  40.898  30.974  10.448
62304W        W27564   0.324  36.404  12.072
62305W        W27565  15.561  26.563   3.513
62306W        W27566  37.411  13.736  14.022
62307W        W27567  36.251   6.743   0.751
62308W        W27568   9.898  37.923   4.170
62309W        W27569  43.971  36.958   4.555
62310W        W27570  40.866   7.029  13.728
62311W        W27571   2.845  40.770   4.061
62312W        W27572  25.688  44.729   3.598
62313W        W27573   7.769   5.619   1.691
62314W        W27574  41.603   3.948  11.600
62315W        W27575  34.485  32.507   2.787
62316W        W27576  13.545   0.716  14.497
62317W        W27577  19.792   3.201  11.992
62318W        W27578  36.323  40.382   3.130
62319W        W27579  29.467  17.659  14.528
62320W        W27580  35.999  13.263  12.108
62321W        W27581  36.806  18.684   4.699
62322W        W27582  25.035  24.182  12.664
62323W        W27583   3.286   6.614   1.001
62324W        W27584  15.389  34.955  14.357
62325W        W27585  36.217  15.075   2.025
62326W        W27586  22.986  25.704  12.372
62327W        W27587  27.151   0.702   3.591
62328W        W27588   1.431  23.268  13.809
62329W        W27589  20.547   9.002  12.160
62330W        W27590  11.884   1.768   3.019
62331W        W27591  27.924   0.884   5.061
62332W        W27592  11.291  23.180   1.824
62333W        W27593  32.485  10.961  14.879
62334W        W27594   6.682  20.590  14.050
62335W        W27595  19.741  19.063   4.021
62336W        W27596  41.771   1.743  12.486
62337W        W27597  14.897  25.068  14.996
62338W        W27598  28.564  11.559  12.492
62339W        W27599  42.721  22.462   3.730
62340W        W27600  14.563  21.029  11.490
62341W        W27601   1.050  33.106   0.849
62342W        W27602  32.446  21.763   0.494
62343W        W27603  41.932  28.186  10.740
62344W        W27604  13.934  42.252  12.105
62345W        W27605  14.169  14.912   3.107
62346W        W27606  27.897  16.340  13.329
62347W        W27607  25.515  21.099   2.224
62348W        W27608  43.793  30.516  14.594
62349W        W27609  17.157   5.571  10.142
62350W        W27610  35.307  24.399  13.344
62351W        W27611  34.870   9.350   1.203
62352W        W27612  40.709  13.687   3.717
62353W        W27613   2.320   5.336  10.850
62354W        W27614   0.686  27.247   4.426
62355W        W27615  37.881  16.039   2.894
62356W        W27616  19.835  26.240  12.874
62357W        W27617  18.357  13.319  14.379
62358W        W27618  22.543  25.286   5.369
62359W        W27619  38.294  33.097  12.383
62360W        W27620  27.024  38.451  10.974
62361W        W27621  11.612   8.040  14.128
62362W        W27622   6.259   2.923  13.345
62363W        W27623   7.373  29.897   3.823
62364W        W27624  19.486   7.262   3.219
62365W        W27625  20.805  41.930  10.728
62366W        W27626  38.488  21.031  11.452
62367W        W27627  25.614  32.151   2.149
62368W        W27628  24.030  31.956   3.876
62369W        W27629  12.175  33.033   1.413
62370W        W27630   8.389  39.386  13.989
62371W        W27631   2.351  23.448  10.298
62372W        W27632   2.956   0.812  14.464
62373W        W27633   5.218  27.590  11.618
62374W        W27634  41.914  29.037   0.933
62375W        W27635  14.329  18.522   2.263
62376W        W27636   3.483   5.941  12.603
62377W        W27637  10.677  21.230   3.136
62378W        W27638  42.642  12.899   5.123
62379W        W27639  25.238  23.701  12.591
62380W        W27640  10.851  10.557  14.080
62381W        W27641  12.306  41.701   0.531
62382W        W27642  34.137  33.240  11.162
62383W        W27643   2.359  37.022   1.240
62384W        W27644   1.408  17.086   1.900
62385W        W27645   7.248  37.013   3.136
62386W        W27646  32.908  22.112   2.337
62387W        W27647  28.726  15.869  14.859
62388W        W27648  43.569   7.838  13.167
62389W        W27649   5.529  14.021  13.476
62390W        W27650  12.343  29.955  14.834
62391W        W27651   4.772  40.979   4.474
62392W        W27652  11.047  27.242  13.751
62393W        W27653  27.123  12.083   0.074
62394W        W27654  35.366  26.904   1.780
62395W        W27655  43.963   4.095  13.980
62396W        W27656  24.404  31.455   1.967
62397W        W27657  14.468   4.643   4.563
62398W        W27658   5.168   3.143  11.082
62399W        W27659   5.566   1.075   1.305
62400W        W27660   8.855  28.674  12.520
62401W        W27661  36.531  15.119   0.102
62402W        W27662  32.538  44.839   0.211
62403W        W27663  20.813  41.613  12.262
62404W        W27664  29.205  32.494  12.152
62405W        W27665  24.117  39.857  14.942
62406W        W27666  37.320  35.546   4.204
62407W        W27667   5.514  37.866   2.252
62408W        W27668  26.894   9.368  13.925
62409W        W27669   9.236   9.404   2.868
62410W        W27670  16.953  31.964  10.339
62411W        W27671   3.302  21.282  14.722
62412W        W27672  12.796  12.086  11.913
62413W        W27673  17.304  43.792  13.512
62414W        W27674  26.266   4.917  11.076
62415W        W27675  28.883  39.409  13.697
62416W        W27676  34.012  11.565   4.256
62417W        W27677  33.031  18.566   2.457
62418W        W27678  33.063  30.672   1.259
62419W        W27679  43.432  30.059   4.534
62420W        W27680  30.840  24.461  13.932
62421W        W27681  22.032  34.965  13.937
62422W        W27682  23.196   8.931  12.229
62423W        W27683   6.526  30.641   2.199
62424W        W27684  26.128  40.360  14.796
62425W        W27685  27.014  23.095   3.615
62426W        W27686  29.446  42.801  11.158
62427W        W27687  22.518  24.701   3.129
62428W        W27688  21.762  21.020   0.899
62429W        W27689  42.369   9.729   3.762
62430W        W27690  21.690   1.704   2.357
62431W        W27691   5.195  13.865   1.206
62432W        W27692  35.919  38.867  12.955
62433W        W27693  22.278   4.033   3.147
62434W        W27694  24.028  24.581   0.777
62435W        W27695   5.812  37.094  13.011
62436W        W27696  14.843  28.899   0.926
62437W        W27697  28.440  42.042  13.882
62438W        W27698  15.105  25.135  12.032
62439W        W27699  25.721  21.103  12.050
62440W        W27700  43.429  25.606  14.862
62441W        W27701  25.523  41.534  14.788
62442W        W27702  33.894   0.360   3.293
62443W        W27703  15.798  28.355  13.387
62444W        W27704  37.502   3.741  11.765
62445W        W27705  19.118   0.569   4.740
62446W        W27706   3.720  30.089   3.919
62447W        W27707   8.920  27.632   2.862
62448W        W27708  42.931  16.850   0.409
62449W        W27709  16.666  20.805  13.926
62450W        W27710  24.661   8.955   4.629
62451W        W27711   2.600  29.024  12.077
62452W        W27712  36.510  26.190   4.438
62453W        W27713   4.751  36.094  11.231
62454W        W27714  31.977   0.459  10.715
62455W        W27715  35.916  22.271  11.635
62456W        W27716  10.244   8.597   0.564
62457W        W27717   0.501  33.321   2.920
62458W        W27718  35.019  13.427   4.088
62459W        W27719  43.165  39.574   3.706
62460W        W27720  43.790  13.425  12.143
62461W        W27721  34.988  15.214   1.455
62462W        W27722  42.993  11.702   0.232
62463W        W27723  41.997  27.737  13.967
62464W        W27724  12.339  11.677   4.149
62465W        W27725  19.806  37.337  13.035
62466W        W27726  15.182  18.101   3.549
62467W        W27727  26.656   2.236   1.702
62468W        W27728  10.205  20.066  10.959
62469W        W27729  42.096   9.276  10.673
62470W        W27730   2.434  14.579  11.072
62471W        W27731  41.016  19.641   0.483
62472W        W27732  26.165  27.496  11.563
62473W        W27733   8.881  21.182  12.019
62474W        W27734  42.546  26.640  11.509
62475W        W27735  10.682  40.325   4.109
62476W        W27736  29.136  13.768   0.397
62477W        W27737  20.331  34.271   2.633
62478W        W27738  41.749  44.848  10.529
62479W        W27739  22.867  31.427   0.500
62480W        W27740  21.475  11.645  14.859
62481W        W27741  30.313  25.115   9.888
62482W        W27742  15.591   9.362  12.500
62483W        W27743  41.297   2.675  13.372
62484W        W27744  24.983   5.958   1.454
62485W        W27745  40.574  39.968  11.471
62486W        W27746  11.102   2.662   2.295
62487W        W27747  42.705   2.323   4.033
62488W        W27748  17.101  25.757  11.452
62489W        W27749  24.938  35.892  14.100
62490W        W27750  43.328  40.067  11.043
62491W        W27751  10.913  42.710  12.959
62492W        W27752  35.409  23.016   3.602
62493W        W27753  14.160   8.622   2.048
62494W        W27754  39.528   6.670   1.272
62495W        W27755  30.610  12.165   2.490
62496W        W27756   5.136  43.246  14.346
62497W        W27757  17.066  25.965  12.076
62498W        W27758  37.523   7.722  13.416
62499W        W27759  17.044  38.549  12.991
62500W        W27760  22.192   6.976   0.469
62501W        W27761  30.445  22.103  14.281
62502W        W27762   5.758  29.425   4.075
62503W        W27763  21.623  41.917  11.158
62504W        W27764  29.156  15.096  14.322
62505W        W27765  42.269   1.678  14.061
62506W        W27766  15.277  43.587   4.021
62507W        W27767  16.640  29.079  13.508
62508W        W27768  36.284  25.832  12.490
62509W        W27769  36.527  25.497  13.025
62510W        W27770  29.102  23.146  14.766
62511W        W27771   1.840  16.622   0.270
62512W        W27772  27.716  28.981  14.856
62513W        W27773   9.231  17.595   1.441
62514W        W27774  21.046  11.755  12.094
62515W        W27775  22.289  24.457  12.917
62516W        W27776  17.636  12.488   4.063
62517W        W27777  29.158  37.442  11.800
62518W        W27778  42.832  16.633  13.312
62519W        W27779   5.485  19.465   1.752
62520W        W27780   1.195  13.709   3.926
62521W        W27781  15.107   3.629  11.582
62522W        W27782  25.396  10.179   3.619
62523W        W27783  29.447   2.883  11.180
62524W        W27784  44.765  13.904   1.361
62525W        W27785   0.671   8.579   5.298
62526W        W27786  22.654  11.681   1.758
62527W        W27787   3.550  15.116  10.958
62528W        W27788  27.363   3.480  11.656
62529W        W27789  19.144  21.249  14.911
62530W        W27790  40.420   0.357  13.061
62531W        W27791  19.423  23.511   0.148
62532W        W27792  15.284  23.266   4.859
62533W        W27793  38.465  18.839  13.000
62534W        W27794  35.893   3.784  14.228
62535W        W27795  17.744  39.917  12.489
62536W        W27796  35.645  15.547  11.299
62537W        W27797  17.689  18.512  13.047
62538W        W27798  40.524  31.058   2.745
62539W        W27799  10.865  25.723   3.542
62540W        W27800   1.093  34.418  14.412
62541W        W27801  37.785  13.670  10.768
62542W        W27802  43.231  39.373  12.601
62543W        W27803   3.229  34.828  10.903
62544W        W27804  29.107  10.269   0.453
62545W        W27805  27.045  10.211  11.154
62546W        W27806  31.354  40.122  11.810
62547W        W27807   2.794  31.494   4.711
62548W        W27808  41.249  10.073   4.181
62549W        W27809  33.141  28.677  13.288
62550W        W27810  23.547  23.798   1.881
62551W        W27811  44.044  31.503  12.615
62552W        W27812  17.833  22.352   0.392
62553W        W27813  41.843  23.992   0.725
62554W        W27814   3.941  25.033  10.472
62555W        W27815  19.932  38.517   3.281
62556W        W27816   9.734  24.090  13.050
62557W        W27817   4.301   1.233   3.201
62558W        W27818  31.767  22.799   0.439
62559W        W27819  21.282  22.813  13.788
62560W        W27820   4.897  21.798   0.147
62561W        W27821  22.187  25.562  11.975
62562W        W27822  36.837   9.180   4.694
62563W        W27823  41.387  36.895  12.514
62564W        W27824  31.597  14.896  14.288
62565W        W27825  29.065  43.658   2.391
62566W        W27826   6.166  25.584  11.469
62567W        W27827  23.428  27.859   4.085
62568W        W27828   2.341  41.704  12.840
62569W        W27829   8.228  28.438  12.993
62570W        W27830  16.202  25.585  14.317
62571W        W27831  17.678  18.245   3.885
62572W        W27832  21.808  15.602  14.107
62573W        W27833  23.161  22.962  12.869
62574W        W27834  31.875  41.869   1.361
62575W        W27835  18.555  41.044   3.432
62576W        W27836  39.862  41.306   4.612
62577W        W27837  17.955  33.567  11.558
62578W        W27838   1.315   7.332  14.458
62579W        W27839   4.232  27.577  10.750
62580W        W27840  18.990  26.274   5.020
62581W        W27841  24.177  42.466   4.190
62582W        W27842  40.292  20.164   4.412
62583W        W27843  23.512  25.705   0.796
62584W        W27844  40.346  13.058  10.702
62585W        W27845  15.038  30.272  12.033
62586W        W27846   1.269   1.938  12.314
62587W        W27847  42.406  36.068  12.563
62588W        W27848   9.636  42.889  12.024
62589W        W27849  33.393  12.861  11.295
62590W        W27850  30.062   5.454  13.982
62591W        W27851   0.267  15.872  10.754
62592W        W27852  29.969   5.337  12.011
62593W        W27853  26.758  15.135   3.349
62594W        W27854   6.309   9.069   3.092
62595W        W27855   8.663  13.031  13.387
62596W        W27856  24.899  36.815   2.788
62597W        W27857  35.159  25.391  13.826
62598W        W27858  16.681  40.812   2.223
62599W        W27859   4.850  41.566  12.407
62600W        W27860  22.094  40.035  11.114
62601W        W27861   9.201  36.406  11.002
62602W        W27862  21.150  15.509   3.299
62603W        W27863   3.485  21.372   4.156
62604W        W27864  11.685  13.507  11.451
62605W        W27865  26.943  28.797   0.014
62606W        W27866  32.452   2.419   0.250
62607W        W27867  27.198  18.483   1.288
62608W        W27868  16.380  20.182   3.058
62609W        W27869  29.717  29.983  10.888
62610W        W27870  42.994   3.813  12.002
62611W        W27871   1.345   1.019  12.439
62612W        W27872   7.228  29.124   0.767
62613W        W27873  15.828  30.450   3.324
62614W        W27874   9.671  34.897   3.266
62615W        W27875  22.515  18.563   0.786
62616W        W27876  39.507   3.167   4.225
62617W        W27877  33.764   9.714   1.630
62618W        W27878  43.643  22.096   1.725
62619W        W27879  25.998  42.071   0.448
62620W        W27880  22.501  21.569  12.513
62621W        W27881  31.711   9.702   0.794
62622W        W27882  13.154  24.174  10.691
62623W        W27883  10.577   0.304  10.077
62624W        W27884  28.988  29.883   1.464
62625W        W27885  30.515  10.286  13.747
62626W        W27886  42.540  37.483   4.540
62627W        W27887  29.421   7.949   3.255
62628W        W27888  27.664  25.503   3.672
62629W        W27889  32.452  44.807   0.740
62630W        W27890  29.611  23.613   2.637
62631W        W27891  29.170   2.517   1.140
62632W        W27892   4.235  42.317  14.807
62633W        W27893   2.233  12.576   3.686
62634W        W27894   9.908  24.986  13.789
62635W        W27895  18.276  37.455   1.016
62636W        W27896  35.613  19.766   1.812
62637W        W27897  18.125  31.595   4.532
62638W        W27898  18.516  12.866  11.696
62639W        W27899  26.967   4.594   0.390
62640W        W27900  31.969   8.510  10.722
62641W        W27901   6.764  39.164  13.980
62642W        W27902  26.174  25.891  10.529
62643W        W27903  23.069  26.591  13.887
62644W        W27904   9.351   5.180   2.676
62645W        W27905  38.241  32.454  11.889
62646W        W27906  15.331  18.296   0.178
62647W        W27907  32.104  44.279  14.621
62648W        W27908  43.174  12.117  14.963
62649W        W27909  41.372   0.774  12.810
62650W        W27910  13.712  39.259  10.716
62651W        W27911   6.222  32.431   1.819
62652W        W27912  39.069  21.139  12.955
62653W        W27913  33.888  31.920   0.921
62654W        W27914  35.916  33.418   4.970
62655W        W27915  18.535  28.927  14.905
62656W        W27916   8.793  38.385   3.328
62657W        W27917  22.589   0.717  14.974
62658W        W27918  34.156   5.281   1.388
62659W        W27919   4.135  31.939   3.197
62660W        W27920  23.225  29.425  14.823
62661W        W27921  16.269  27.299  13.962
62662W        W27922  30.643  44.926   3.697
62663W        W27923  21.401  23.157  11.216
62664W        W27924   1.887  43.834  10.732
62665W        W27925  21.741   1.653   4.569
62666W        W27926   9.579  31.812  12.495
62667W        W27927  36.946  38.657   0.641
62668W        W27928  33.766  29.029  11.811
62669W        W27929  32.632   1.312   3.141
62670W        W27930  30.504   8.917   0.817
62671W        W27931  43.896  19.293   1.619
62672W        W27932  24.541  28.690   0.365
62673W        W27933   5.398  10.235   0.235
62674W        W27934  38.343  44.536  14.988
62675W        W27935   3.233  17.027  11.156
62676W        W27936  24.134   7.420   2.163
62677W        W27937   9.447  15.088   2.806
62678W        W27938  37.668   1.010  13.969
62679W        W27939   2.367   1.055  12.002
62680W        W27940  26.044   9.422  14.073
62681W        W27941  33.505  40.236   4.353
62682W        W27942  22.784  32.561   3.199
62683W        W27943  10.151  10.839   2.931
62684W        W27944  16.415  43.596   0.650
62685W        W27945  18.111   2.345   1.435
62686W        W27946   8.820  38.085   2.839
62687W        W27947   1.928   5.130  13.065
62688W        W27948   8.377  28.639   3.318
62689W        W27949  32.879  39.611   2.396
62690W        W27950  19.208  30.614  12.999
62691W        W27951  15.112  44.905  13.482
62692W        W27952  28.139  32.506   0.906
62693W        W27953  12.519  13.415  14.676
62694W        W27954  31.692  27.097   2.351
62695W        W27955  31.692  43.077   2.834
62696W        W27956  34.989  41.782  11.243
62697W        W27957  32.490  33.830   3.455
62698W        W27958  37.289  32.905  12.827
62699W        W27959  11.296  25.000  11.685
62700W        W27960   4.945  26.579  10.424
62701W        W27961  13.632  40.367  14.939
62702W        W27962   1.783  33.955  13.583
62703W        W27963  22.545   3.648   1.858
62704W        W27964   6.345  42.919   0.938
62705W        W27965   8.672  25.126  13.274
62706W        W27966  32.713  35.589   2.625
62707W        W27967  15.196  13.205   4.382
62708W        W27968  25.710   9.427  12.683
62709W        W27969  43.365  33.961  11.416
62710W        W27970  39.350  23.669  11.255
62711W        W27971   7.318   7.877  13.108
62712W        W27972   0.002   5.320   4.328
62713W        W27973  37.895   4.909   4.763
62714W        W27974  30.112  39.744   2.858
62715W        W27975  34.629  20.869  12.066
62716W        W27976  29.369  37.797   4.063
62717W        W27977   6.234  24.568  11.468
62718W        W27978  21.142  14.052  14.766
62719W        W27979  44.474  21.690   2.724
62720W        W27980  23.648   4.212   3.654
62721W        W27981  31.594  16.121   4.649
62722W        W27982  37.815  35.603   4.187
62723W        W27983  44.260   0.562   2.377
62724W        W27984   4.353   7.364   1.311
62725W        W27985  29.594  10.635  14.760
62726W        W27986  38.970  40.678   2.315
62727W        W27987  20.327  37.325  13.012
62728W        W27988  20.096  23.342   1.936
62729W        W27989  36.139   9.621   4.307
62730W        W27990  27.454  12.763   3.899
62731W        W27991  11.729   3.700  10.944
62732W        W27992  16.149   7.782   2.719
62733W        W27993  41.372  35.040  12.002
62734W        W27994  42.644  32.628   1.188
62735W        W27995  44.234   0.205  14.937
62736W        W27996  27.025   7.678  10.262
62737W        W27997   6.352  39.626   1.186
62738W        W27998  19.609  33.638   0.425
62739W        W27999   2.450  41.442  13.261
62740W        W28000  36.104   9.700   1.410
62741W        W28001  13.488   8.438  14.006
62742W        W28002  20.104  38.827   2.471
62743W        W28003  33.128  14.288   2.385
62744W        W28004   1.826  11.228  10.669
62745W        W28005  37.543   5.247   3.734
62746W        W28006  38.549   4.881   3.206
62747W        W28007  34.296  18.686   1.745
62748W        W28008  22.576  25.114  10.511
62749W        W28009  25.249   1.416   0.869
62750W        W28010   7.611  23.084   1.255
62751W        W28011  34.819   0.843   1.835
62752W        W28012   4.735   1.053   3.753
62753W        W28013   3.790   1.815   0.395
62754W        W28014  30.484  24.962  12.944
62755W        W28015  23.261  37.345  12.612
62756W        W28016  32.044   0.863   2.361
62757W        W28017  37.826  20.472  13.546
62758W        W28018  33.475   9.715  12.044
62759W        W28019  11.876  13.041   2.499
62760W        W28020  25.971  24.705   1.388
62761W        W28021  26.119   5.229  12.599
62762W        W28022  38.846   2.713   0.996
62763W        W28023  35.876   7.964   1.305
62764W        W28024   1.305   1.952  14.532
62765W        W28025  41.980  28.789   1.441
62766W        W28026  33.142  31.900   4.147
62767W        W28027  39.625  43.484  10.948
62768W        W28028   0.816  23.436  14.571
62769W        W28029  42.999  18.894  13.402
62770W        W28030   1.285   3.314  13.970
62771W        W28031  28.769  33.922   0.960
62772W        W28032   0.349   9.614  11.513
62773W        W28033   7.859  23.296   3.419
62774W        W28034  16.250  12.134   1.187
62775W        W28035  17.849  38.350   0.726
62776W        W28036  27.640  40.629   3.013
62777W        W28037  21.822  42.350   0.044
62778W        W28038  26.781   1.056  14.519
62779W        W28039  42.402  29.709   2.734
62780W        W28040  25.564  39.535   3.738
62781W        W28041  39.499  10.308   4.995
62782W        W28042  15.728  12.945   5.006
62783W        W28043  10.807  26.473   1.323
62784W        W28044   3.957  14.236  14.988
62785W        W28045  12.405   1.968   3.895
62786W        W28046  44.946   8.150   9.854
62787W        W28047  39.603  23.723  14.729
62788W        W28048  21.297  41.440  12.410
62789W        W28049  12.270  40.439  12.034
62790W        W28050  16.058  10.104   1.551
62791W        W28051  27.610  23.937  10.642
62792W        W28052  39.822  30.414  14.449
62793W        W28053  22.688  21.526   3.152
62794W        W28054  38.374  44.187   4.092
62795W        W28055  22.076   0.926   2.127
62796W        W28056  38.213  17.777  14.352
62797W        W28057  21.203   9.303  14.347
62798W        W28058   7.332  40.206   4.885
62799W        W28059  37.717   4.284  11.117
62800W        W28060  38.716  38.297  14.619
62801W        W28061  26.647  37.568   2.846
62802W        W28062  14.845   2.008  13.458
62803W        W28063  15.186  38.132  12.810
62804W        W28064  24.528  15.327  10.644
62805W        W28065  26.124   8.691   4.679
62806W        W28066  24.741   8.930  11.038
62807W        W28067   6.820   8.715  13.064
62808W        W28068  36.446  15.611   1.809
62809W        W28069   4.755  38.059  13.655
62810W        W28070  40.352  10.518   5.212
62811W        W28071  28.012  39.561   1.803
62812W        W28072  13.244  20.738  11.602
62813W        W28073   0.437  28.246   3.797
62814W        W28074  40.707  44.335  11.322
62815W        W28075  30.598  38.987  13.872
62816W        W28076   3.820  26.192   0.897
62817W        W28077  22.879  12.577  11.326
62818W        W28078  42.585  11.558   2.816
62819W        W28079  31.483  18.240   4.388
62820W        W28080  44.459  43.746   3.385
62821W        W28081  23.477   8.698   0.875
62822W        W28082   0.493  15.823  13.849
62823W        W28083   2.268  21.293  10.784
62824W        W28084   3.484  36.573  11.121
62825W        W28085   0.563   6.704  12.058
62826W        W28086  27.301   4.593   5.762
62827W        W28087  37.322  25.504  12.304
62828W        W28088  41.750  37.990   0.554
62829W        W28089   3.734   0.527   3.116
62830W        W28090  12.313   3.634   4.074
62831W        W28091  10.882  32.891   4.136
62832W        W28092   3.916  38.514   3.645
62833W        W28093  38.554   2.967   2.262
62834W        W28094  17.847  25.213  13.593
62835W        W28095   5.861  26.478   0.352
62836W        W28096  28.582  37.335   0.006
62837W        W28097  29.578   6.117  14.345
62838W        W28098  11.935   6.338  13.857
62839W        W28099  19.515   8.072  12.417
62840W        W28100  27.839   5.185  13.333
62841W        W28101  12.816  33.116   3.449
62842W        W28102  21.015  25.552   4.103
62843W        W28103   2.255   4.457   2.872
62844W        W28104  13.204   9.288  11.153
62845W        W28105  10.298  41.952   4.691
62846W        W28106  32.545  32.028  14.242
62847W        W28107  37.350  31.654  13.314
62848W        W28108   6.565   0.717  13.048
62849W        W28109  14.397  22.134   1.342
62850W        W28110   9.839  35.852  10.536
62851W        W28111  28.689   5.834  13.972
62852W        W28112   0.983  35.829   2.267
62853W        W28113  22.966   2.800  12.903
62854W        W28114  41.165  11.805   3.298
62855W        W28115  29.507  39.841   1.415
62856W        W28116  18.811   7.290  13.496
62857W        W28117  40.387  16.795  11.113
62858W        W28118  14.846  39.233   0.310
62859W        W28119  39.863  15.043   4.172
62860W        W28120  26.926  37.359  10.992
62861W        W28121   3.384  28.619   1.269
62862W        W28122  24.557   9.119   0.913
62863W        W28123  27.635  16.951  11.069
62864W        W28124  21.269  37.322   2.539
62865W        W28125  19.762  16.218  13.520
62866W        W28126  22.521  42.773  13.011
62867W        W28127  24.155  11.145   0.291
62868W        W28128  15.368  20.578   0.876
62869W        W28129   4.111   2.194   4.444
62870W        W28130  44.010  34.311   4.336
62871W        W28131  32.092  38.563  13.846
62872W        W28132  38.538  16.264  13.334
62873W        W28133  36.399  14.726  10.783
62874W        W28134  30.714  18.207   1.683
62875W        W28135   0.176  22.656   4.446
62876W        W28136  42.553  43.558  14.109
62877W        W28137  18.101  33.991  12.732
62878W        W28138  39.357  13.855  12.906
62879W        W28139  24.183   0.754  14.328
62880W        W28140   1.135  37.021  10.978
62881W        W28141  13.773   2.444   1.026
62882W        W28142  23.551  21.744   3.054
62883W        W28143  40.395  25.457   4.400
62884W        W28144  33.121  27.392   1.351
62885W        W28145  27.528  39.115  12.024
62886W        W28146  25.001  13.169  13.844
62887W        W28147  35.038  30.451   1.729
62888W        W28148   2.816  24.236   0.269
62889W        W28149  40.003  24.989   0.889
62890W        W28150   1.024  26.588  13.974
62891W        W28151  42.853  39.273   0.426
62892W        W28152  22.738  38.970   1.157
62893W        W28153  35.860  14.116   3.869
62894W        W28154   8.759  13.860   3.878
62895W        W28155  36.926  33.376  13.425
62896W        W28156  37.159  37.855  10.953
62897W        W28157  43.233  35.515   1.449
62898W        W28158  26.710  38.618   2.809
62899W        W28159  14.545  44.608  14.348
62900W        W28160  35.331  31.167   4.569
62901W        W28161  19.718  20.329  13.923
62902W        W28162   1.415  43.793   4.897
62903W        W28163  20.376  17.465   3.947
62904W        W28164  23.660  20.351   3.863
62905W        W28165   0.580  31.050  14.390
62906W        W28166  21.033   4.944   5.036
62907W        W28167  41.373  31.933   1.461
62908W        W28168  43.489  44.596  14.962
62909W        W28169  38.918  26.361   0.289
62910W        W28170  33.291  19.550  12.823
62911W        W28171  43.205   7.462   4.959
62912W        W28172   7.432  29.453  13.018
62913W        W28173  16.074  22.603  13.551
62914W        W28174   4.238   4.614  10.707
62915W        W28175  21.605  19.818   5.023
62916W        W28176  11.855  43.032   4.550
62917W        W28177  23.976  32.986   2.737
62918W        W28178  27.683  42.951   1.375
62919W        W28179  42.284   1.283  11.021
62920W        W28180  37.588  25.650  11.869
62921W        W28181  31.196  20.826  11.639
62922W        W28182  35.812  40.855  11.456
62923W        W28183  28.864  16.120  11.519
62924W        W28184  12.278  31.989   1.676
62925W        W28185   2.368  10.593   4.583
62926W        W28186  36.880   3.119  12.390
62927W        W28187   1.955  28.742   1.335
62928W        W28188  37.636  33.167  14.434
62929W        W28189  32.952  30.336  14.468
62930W        W28190  44.781  12.164  11.578
62931W        W28191  12.249  31.612   4.851
62932W        W28192   2.826  43.898   0.815
62933W        W28193  36.674  23.224  14.392
62934W        W28194  14.379  42.965   4.627
62935W        W28195  37.757  18.660   5.051
62936W        W28196  27.458  43.592   3.051
62937W        W28197   8.171  29.781  11.137
62938W        W28198   4.893  10.190  12.083
62939W        W28199  21.322  25.302   4.983
62940W        W28200  13.168  42.309  12.334
62941W        W28201   8.100  36.616  14.059
62942W        W28202  17.149  17.566   0.519
62943W        W28203  20.518  25.835  11.158
62944W        W28204   1.325  21.080  12.563
62945W        W28205  42.322  16.114   3.448
62946W        W28206  24.321  38.582  10.636
62947W        W28207  11.550  14.485  13.669
62948W        W28208  38.865  10.380   2.842
62949W        W28209   2.975  16.197   4.934
62950W        W28210  17.589  35.105   1.932
62951W        W28211   7.847  34.639   3.243
62952W        W28212  27.930  19.253  11.922
62953W        W28213  11.406  42.557   4.098
62954W        W28214  43.407   2.353   3.370
62955W        W28215  12.276  14.795   1.948
62956W        W28216  29.572  19.051  13.504
62957W        W28217   8.784  18.270  10.508
62958W        W28218  30.962  22.046  14.176
62959W        W28219  26.619  19.094   1.063
62960W        W28220   8.866  33.759  12.132
62961W        W28221   0.683  10.214  11.129
62962W        W28222  22.675  15.249   0.847
62963W        W28223  37.647  18.038  14.336
62964W        W28224  26.527   8.341   0.287
62965W        W28225  11.607  30.633  13.823
62966W        W28226  32.679  26.256   0.245
62967W        W28227  11.604  22.103   4.637
62968W        W28228   9.034  32.446  12.722
62969W        W28229   5.091  30.119  11.059
62970W        W28230  12.399  30.806   2.432
62971W        W28231  19.695  37.012   0.029
62972W        W28232  41.533  32.231  10.704
62973W        W28233   0.913  43.180   3.713
62974W        W28234  35.026  38.050   1.923
62975W        W28235   2.530  12.169  12.965
62976W        W28236   1.871   8.136  10.752
62977W        W28237  26.142  13.743  11.450
62978W        W28238  44.808  37.296  11.089
62979W        W28239  35.292  24.670   5.382
62980W        W28240  15.077  37.980  13.701
62981W        W28241  36.266  22.651   1.310
62982W        W28242  13.583  39.256   1.093
62983W        W28243   4.148  44.851  13.908
62984W        W28244  25.457  29.032  11.651
62985W        W28245   0.846   2.370  12.810
62986W        W28246  40.983  36.170  14.891
62987W        W28247  18.629  30.127   2.324
62988W        W28248  38.920  30.438  10.197
62989W        W28249  20.311  29.304  10.303
62990W        W28250  24.887  15.034   1.032
62991W        W28251  40.518  44.773  13.047
62992W        W28252  10.391  42.275   3.227
62993W        W28253   3.075   4.247   2.303
62994W        W28254   5.499  11.802  12.553
62995W        W28255  24.638  34.062   3.772
62996W        W28256  32.350   9.627   0.472
62997W        W28257  17.810   9.765   1.813
62998W        W28258  15.336  24.265   1.846
62999W        W28259   4.977   5.442  11.359
63000W        W28260  29.530  20.195   1.441
63001W        W28261   0.852  26.872   4.073
63002W        W28262  27.032   0.898   0.644
63003W        W28263  23.928  29.636   1.363
63004W        W28264  33.273  15.167  13.053
63005W        W28265  21.243  19.656   2.126
63006W        W28266  22.829   9.818   4.538
63007W        W28267  14.206  15.548   1.246
63008W        W28268  15.572  15.829  13.413
63009W        W28269   9.797   0.893   0.821
63010W        W28270  30.619  41.931   4.311
63011W        W28271   4.630  15.784  10.743
63012W        W28272  10.947  24.731   0.007
63013W        W28273  13.826  31.873  14.336
63014W        W28274   3.329  10.390   2.724
63015W        W28275  38.053  35.014  14.017
63016W        W28276   4.190  42.866   3.827
63017W        W28277  32.373  39.296  12.044
63018W        W28278  24.120  23.585  11.374
63019W        W28279  29.612  40.347  12.766
63020W        W28280  22.632  26.981   3.813
63021W        W28281  37.742  19.572  11.332
63022W        W28282  26.023  32.752   1.021
63023W        W28283   3.487  27.653  11.195
63024W        W28284  12.560  21.632  10.888
63025W        W28285   9.687  43.476   1.553
63026W        W28286  36.080   9.585  13.591
63027W        W28287  27.181  17.605  12.082
63028W        W28288  40.020  43.406  10.592
63029W        W28289  37.850  17.629   4.471
63030W        W28290  39.351  21.316   0.946
63031W        W28291   4.117   5.485   2.746
63032W        W28292   0.216   1.026  10.912
63033W        W28293  23.438  14.382  11.209
63034W        W28294  25.882  11.579  11.951
63035W        W28295  14.747  23.578   2.433
63036W        W28296   2.412  26.639   0.257
63037W        W28297  13.654  26.965  11.334
63038W        W28298  28.679  17.634  10.253
63039W        W28299  38.622  14.260   4.106
63040W        W28300  41.426   4.629  12.548
63041W        W28301  11.723  22.477   2.425
63042W        W28302  24.703  31.845   2.143
63043W        W28303  11.092  28.970  13.977
63044W        W28304  30.985  32.018  14.899
63045W        W28305  13.468  38.871  12.076
63046W        W28306  44.750  43.992   2.113
63047W        W28307  27.371  23.073  14.520
63048W        W28308  18.369   7.589   3.844
63049W        W28309   8.594  36.911   3.289
63050W        W28310   3.690  39.864   1.999
63051W        W28311  34.543  16.642   1.028
63052W        W28312  36.983   9.314   3.667
63053W        W28313  27.653   9.187  12.068
63054W        W28314  30.797  40.529  14.217
63055W        W28315   2.141  39.573   4.078
63056W        W28316  35.624  25.152  14.027
63057W        W28317  37.647  10.773  13.359
63058W        W28318   3.895   5.218   0.040
63059W        W28319  25.212  30.947  14.387
63060W        W28320  37.340  20.527  14.310
63061W        W28321  33.755   0.679   3.657
63062W        W28322  32.871  34.405   2.806
63063W        W28323  25.916  26.034   3.746
63064W        W28324  16.301   0.416  11.143
63065W        W28325  22.797  14.190   3.694
63066W        W28326  13.810   9.768  12.902
63067W        W28327   4.050  31.153   2.486
63068W        W28328  38.040  34.750   2.652
63069W        W28329  41.691  44.632   1.799
63070W        W28330   9.876   5.914  12.963
63071W        W28331  41.745  26.983   3.475
63072W        W28332  25.550  15.628   9.669
63073W        W28333   2.346  38.118   0.028
63074W        W28334  19.059  42.263  13.837
63075W        W28335  29.937  22.555   0.862
63076W        W28336  14.221  20.011  11.963
63077W        W28337  33.643  30.154  11.970
63078W        W28338   1.637  24.075   2.667
63079W        W28339  44.355  17.441   1.775
63080W        W28340   7.097   6.837   2.774
63081W        W28341  40.337  14.230   3.202
63082W        W28342  27.480  23.967  13.516
63083W        W28343  24.087  42.254   0.978
63084W        W28344  24.545  17.812   2.474
63085W        W28345  25.720  39.159   4.773
63086W        W28346  32.613  28.561   2.268
63087W        W28347  41.532  21.558   1.224
63088W        W28348  31.116  37.607   4.190
63089W        W28349   8.130  42.861   3.330
63090W        W28350   1.167  41.724   5.004
63091W        W28351  26.411  25.025   1.411
63092W        W28352  21.316   7.795  10.651
63093W        W28353  27.733  33.098   3.601
63094W        W28354  33.657   8.435  13.468
63095W        W28355  31.819   9.378  13.405
63096W        W28356  12.044  24.995   3.213
63097W        W28357  32.996  23.175   1.922
63098W        W28358  28.111   5.235  12.908
63099W        W28359   2.972  44.245  14.986
63100W        W28360   7.699  20.719  13.930
63101W        W28361  29.181  37.551   3.156
63102W        W28362  24.667  21.012   3.316
63103W        W28363   0.387   2.194   0.889
63104W        W28364   0.769  16.729   2.390
63105W        W28365  37.282  43.876  12.146
63106W        W28366  13.764  41.714   3.418
63107W        W28367   3.814  27.752  13.556
63108W        W28368  14.281  30.487   0.410
63109W        W28369   7.879  31.617  12.193
63110W        W28370  44.890  31.355   3.783
63111W        W28371  14.008  44.922   4.559
63112W        W28372   4.285  20.696   0.830
63113W        W28373  28.575  22.155   4.024
63114W        W28374  38.943  15.190   2.052
63115W        W28375  19.767  43.291  10.632
63116W        W28376  35.942  35.431   1.808
63117W        W28377  42.189   8.339  13.428
63118W        W28378  38.497  39.527   0.335
63119W        W28379   1.424  17.700   4.501
63120W        W28380  32.478   5.359   4.567
63121W        W28381   3.871  39.884  13.385
63122W        W28382  11.376  43.002   0.899
63123W        W28383  20.528  34.981  10.739
63124W        W28384  30.751  27.233  11.501
63125W        W28385   0.933  23.163   0.011
63126W        W28386   9.047  44.490  13.372
63127W        W28387  13.252  11.878   4.582
63128W        W28388  42.571   3.692  11.607
63129W        W28389  42.751  40.697   2.353
63130W        W28390   8.200  20.183   3.643
63131W        W28391  29.874   8.854   3.983
63132W        W28392  34.563  14.088  13.476
63133W        W28393  22.008  36.442   1.714
63134W        W28394  18.019  14.711  12.083
63135W        W28395  28.613  38.419   4.196
63136W        W28396   4.377   9.410   0.354
63137W        W28397  29.198  22.552   1.351
63138W        W28398  31.214  22.434  10.313
63139W        W28399  25.504   9.141   3.782
63140W        W28400  32.071  39.367  12.479
63141W        W28401  22.478  43.303  11.234
63142W        W28402  43.590  23.743  10.490
63143W        W28403  42.339  32.452  13.233
63144W        W28404  21.592   6.351   2.217
63145W        W28405  30.503  12.040   3.948
63146W        W28406  30.400  16.830  12.527
63147W        W28407  30.459  10.800   1.239
63148W        W28408  20.155  27.580   1.023
63149W        W28409   8.050  31.165  13.787
63150W        W28410   3.804   2.859  10.593
63151W        W28411  24.244  12.755   3.354
63152W        W28412  21.503  20.052   2.347
63153W        W28413  18.279  17.056   2.501
63154W        W28414  24.391  19.133  12.561
63155W        W28415   1.118  19.291  14.086
63156W        W28416   0.752   9.310  11.621
63157W        W28417   4.587  11.684   4.144
63158W        W28418  18.191  17.566  12.907
63159W        W28419  17.738  34.385  13.305
63160W        W28420  33.577  21.765  10.758
63161W        W28421  37.385  15.722   0.325
63162W        W28422  14.647  41.849   2.636
63163W        W28423  41.674  40.381  10.897
63164W        W28424  39.383  22.239   2.704
63165W        W28425  32.939  22.988  13.266
63166W        W28426  31.572   3.124   3.117
63167W        W28427  32.441  22.591  11.606
63168W        W28428  21.805  28.778  12.419
63169W        W28429  33.399  26.545   1.008
63170W        W28430   2.688   8.332   4.746
63171W        W28431  37.773   5.959  11.131
63172W        W28432   1.396  44.832   0.050
63173W        W28433  39.300  20.658  11.972
63174W        W28434  28.051   7.675   4.307
63175W        W28435  17.865  30.521  10.735
63176W        W28436  38.999  20.006   4.565
63177W        W28437   9.343  30.527  10.698
63178W        W28438   0.939  27.972  11.547
63179W        W28439   6.176  23.196   0.842
63180W        W28440  42.865  35.600  14.497
63181W        W28441   6.240   7.137  11.873
63182W        W28442  18.548  15.876  12.735
63183W        W28443  31.018  16.093   0.869
63184W        W28444  38.271  41.991  14.909
63185W        W28445   9.724  24.743   0.415
63186W        W28446  44.408   5.113  12.108
63187W        W28447  43.453  31.158  11.330
63188W        W28448   0.345  29.564  13.516
63189W        W28449  32.888  11.555   4.588
63190W        W28450  43.540  37.606   4.407
63191W        W28451  38.101  27.727  14.536
63192W        W28452   5.897  31.372   3.264
63193W        W28453  38.895   7.763  14.093
63194W        W28454  20.685   7.351   0.909
63195W        W28455  34.698  22.444   3.772
63196W        W28456  16.944  44.990   4.177
63197W        W28457  24.688   2.467   2.206
63198W        W28458   1.425  42.558  12.119
63199W        W28459  38.793  22.748   1.657
63200W        W28460  10.673  14.851  13.243
63201W        W28461  17.958  34.333  14.894
63202W        W28462  15.123  39.825   2.852
63203W        W28463  32.607  24.487  11.202
63204W        W28464  17.997  21.822   4.645
63205W        W28465   1.536   9.735  11.587
63206W        W28466  13.674  23.932   1.403
63207W        W28467   1.017  24.446  13.325
63208W        W28468  42.869   3.337  11.818
63209W        W28469   3.347  35.338   4.313
63210W        W28470  10.563  38.441   2.505
63211W        W28471  31.668  39.521  11.544
63212W        W28472  43.100   6.806   2.882
63213W        W28473  17.596  14.840  12.364
63214W        W28474  28.501  23.649  11.089
63215W        W28475   4.212  33.313  12.469
63216W        W28476  19.452   9.173   3.880
63217W        W28477   0.957   9.055  14.704
63218W        W28478   6.769   7.436   0.947
63219W        W28479  28.896   6.603   3.625
63220W        W28480   5.587  39.437  11.514
63221W        W28481  26.538  14.731   2.728
63222W        W28482  41.024   7.858   0.392
63223W        W28483  26.054  23.048  13.891
63224W        W28484  18.250  14.327  13.410
63225W        W28485  24.658   6.852  14.323
63226W        W28486  21.247  19.074   5.136
63227W        W28487  30.566  34.044   2.223
63228W        W28488  33.002  38.563   2.430
63229W        W28489   3.292  41.374  12.823
63230W        W28490  14.278  27.404  14.884
63231W        W28491  11.888   4.930  11.996
63232W        W28492  32.458   4.174  12.209
63233W        W28493  16.492  30.622   4.564
63234W        W28494   8.280  12.279   3.131
63235W        W28495  42.964  10.674  11.088
63236W        W28496   9.732  28.020  13.462
63237W        W28497  40.641   5.960   4.192
63238W        W28498  17.309  18.229  13.826
63239W        W28499   5.374  32.666   3.428
63240W        W28500  20.777   1.517  14.708
63241W        W28501  19.337  23.090  13.510
63242W        W28502   7.821   5.588  13.872
63243W        W28503  18.178   6.491   2.614
63244W        W28504  27.753  25.518   1.231
63245W        W28505   0.806  40.610   5.016
63246W        W28506   1.052  36.566  12.515
63247W        W28507  41.485  20.718   3.258
63248W        W28508  16.325  18.830   1.941
63249W        W28509  30.145  33.472   4.282
63250W        W28510   9.505  13.686  10.616
63251W        W28511  40.258   4.844  14.453
63252W        W28512  43.512   2.637   2.778
63253W        W28513  17.968  40.766  14.011
63254W        W28514  30.050  15.005   2.516
63255W        W28515  41.956  17.224   4.909
63256W        W28516  43.069  12.250  13.595
63257W        W28517   8.360   4.212   3.139
63258W        W28518  43.360   8.181   2.816
63259W        W28519  32.331  25.078  12.024
63260W        W28520  42.090  14.808   0.002
63261W        W28521  42.564  44.392   2.709
63262W        W28522  32.135  30.232   1.903
63263W        W28523  25.305   4.189   4.109
63264W        W28524   5.339  29.129  10.757
63265W        W28525  24.154  36.726  10.396
63266W        W28526   0.135  31.747   5.193
63267W        W28527   3.098  28.158  12.048
63268W        W28528  16.623  18.924   0.090
63269W        W28529  33.025   0.715   4.408
63270W        W28530   4.504   3.887  11.215
63271W        W28531  28.174  44.387   2.613
63272W        W28532  15.812   8.698  14.878
63273W        W28533  32.434  28.954  11.616
63274W        W28534  13.693  39.313  13.308
63275W        W28535  36.049  43.391  12.547
63276W        W28536   8.353  36.314   2.947
63277W        W28537  14.218  19.492  11.977
63278W        W28538  42.746  42.348  12.707
63279W        W28539  31.863  23.065  12.063
63280W        W28540  31.844  36.564  13.811
63281W        W28541  21.357  38.372   1.516
63282W        W28542  13.546  29.982   2.667
63283W        W28543  29.556  10.186   0.205
63284W        W28544  20.777   0.430   1.940
63285W        W28545  11.169   3.661  14.005
63286W        W28546  15.672  40.822   3.613
63287W        W28547  14.841   6.473  12.616
63288W        W28548  41.615   8.292   1.774
63289W        W28549   2.513  13.603  13.132
63290W        W28550  24.692  41.762   2.337
63291W        W28551  26.559  35.847   5.440
63292W        W28552  37.883   6.714  13.831
63293W        W28553  13.570  22.645  10.907
63294W        W28554  14.623  39.393   1.256
63295W        W28555  36.388  25.769   4.735
63296W        W28556   7.348  24.721  14.780
63297W        W28557  31.418  16.814  13.856
63298W        W28558  32.897  21.268  10.766
63299W        W28559  22.115   4.478   0.929
63300W        W28560   9.223   0.923  11.152
63301W        W28561  16.313  39.351  13.932
63302W        W28562  12.544  30.418  10.589
63303W        W28563  12.762  31.877   1.836
63304W        W28564   4.247  22.501   0.299
63305W        W28565   8.462  21.144  11.507
63306W        W28566  36.347  17.255   1.205
63307W        W28567   6.650  27.078   4.999
63308W        W28568  36.952  26.669  12.155
63309W        W28569  10.774   7.150   2.198
63310W        W28570  25.844  21.566  10.418
63311W        W28571  18.061  36.790  10.990
63312W        W28572  44.056  28.599   4.506
63313W        W28573  41.120  17.765  14.319
63314W        W28574  26.308  38.137   4.321
63315W        W28575  12.880  31.395  12.571
63316W        W28576   9.211  42.407   0.767
63317W        W28577  34.708  32.881   4.608
63318W        W28578  34.546  40.793  14.134
63319W        W28579   2.324  32.145  14.450
63320W        W28580  32.965  31.003   0.830
63321W        W28581   9.200   7.241  10.424
63322W        W28582  40.860  34.302   0.984
63323W        W28583  12.350  35.655  12.725
63324W        W28584  10.353  32.397  13.391
63325W        W28585   7.003  26.947  12.951
63326W        W28586  33.208   1.766  12.344
63327W        W28587   3.686   2.465   4.393
63328W        W28588  32.695   8.238  13.479
63329W        W28589  41.293  23.302   2.425
63330W        W28590  35.717  17.184   3.304
63331W        W28591  41.264  13.876  14.581
63332W        W28592  15.746   2.855   3.318
63333W        W28593   4.731  38.781   3.174
63334W        W28594  28.154  18.581   4.908
63335W        W28595  31.515  24.803   1.368
63336W        W28596  14.895  17.595  13.744
63337W        W28597  21.945  40.311   4.257
63338W        W28598   9.475  42.845   0.913
63339W        W28599  33.781  17.936  12.464
63340W        W28600  25.585  17.608   2.800
63341W        W28601   6.714  20.265   1.665
63342W        W28602  40.409  43.578   2.577
63343W        W28603  38.678   1.479  12.969
63344W        W28604  19.143  10.961   3.271
63345W        W28605  26.982  21.115  13.052
63346W        W28606  10.429   1.339   5.092
63347W        W28607  12.147   5.688  12.416
63348W        W28608   9.195  26.607  11.657
63349W        W28609  27.035  15.143  12.104
63350W        W28610  19.367  42.482  14.225
63351W        W28611   3.421  43.082  13.031
63352W        W28612  39.739  18.609   2.455
63353W        W28613  44.218  38.118   3.598
63354W        W28614  20.564  33.392   2.836
63355W        W28615   7.356  40.381  12.990
63356W        W28616  18.813  21.535   1.146
63357W        W28617  14.284   8.992  13.642
63358W        W28618  38.868   7.433   1.594
63359W        W28619  16.222  21.765  11.508
63360W        W28620   7.917  32.971  11.122
63361W        W28621  36.029  29.205   0.777
63362W        W28622   5.379  43.317  11.056
63363W        W28623  21.079   5.765   1.899
63364W        W28624  24.925  13.917  11.073
63365W        W28625  24.790  10.887  14.008
63366W        W28626  33.219   1.252   1.988
63367W        W28627   7.260  28.170  12.395
63368W        W28628   5.263  40.714   1.483
63369W        W28629  36.534  33.811   2.695
63370W        W28630  23.741   8.910  14.026
63371W        W28631  12.932  31.045   0.464
63372W        W28632  43.513  29.598   0.441
63373W        W28633  33.436   2.869   4.403
63374W        W28634  15.435  21.111  14.456
63375W        W28635   4.932   4.624   3.858
63376W        W28636  24.229  34.492  13.308
63377W        W28637   5.242  35.932  12.436
63378W        W28638  38.586  44.211  13.974
63379W        W28639  14.976  30.321  13.366
63380W        W28640  22.714   6.461  13.317
63381W        W28641  35.411  42.505  11.403
63382W        W28642  36.858   5.450   3.778
63383W        W28643  36.276   1.026  12.516
63384W        W28644   2.083  25.898   0.494
63385W        W28645  12.232  31.383  12.880
63386W        W28646  39.069   2.907   2.875
63387W        W28647   1.503   6.453  11.786
63388W        W28648  25.235  41.226  13.443
63389W        W28649  13.198  30.432  13.493
63390W        W28650  40.653  34.706   1.766
63391W        W28651  26.963  18.015  14.062
63392W        W28652  18.161  18.608   5.569
63393W        W28653  33.345   7.761  11.198
63394W        W28654  16.271  38.304   4.450
63395W        W28655  32.207  16.885  10.135
63396W        W28656  28.340  38.172  14.805
63397W        W28657  44.883   4.488  11.544
63398W        W28658  22.970   5.746  14.844
63399W        W28659   3.056  43.432  13.222
63400W        W28660  31.735  43.415   0.429
63401W        W28661  36.455   9.209   4.375
63402W        W28662  39.421   8.123  14.945
63403W        W28663   7.727  14.781   3.787
63404W        W28664  40.469   9.719  12.889
63405W        W28665  25.585  40.092   2.235
63406W        W28666  44.803  10.955  11.179
63407W        W28667  35.470  31.958  14.214
63408W        W28668  17.121  18.237   2.791
63409W        W28669  43.860  11.707  13.465
63410W        W28670  10.712  40.549  13.301
63411W        W28671   5.553  44.809  11.262
63412W        W28672  31.540   4.459  11.148
63413W        W28673  19.630  37.917  14.206
63414W        W28674   8.456  40.769  13.769
63415W        W28675  27.864  22.504  12.800
63416W        W28676  39.299  16.480  10.547
63417W        W28677  21.251  23.159  12.463
63418W        W28678  34.862  11.832   1.786
63419W        W28679  20.799   4.088  12.459
63420W        W28680  44.215  36.399  14.399
63421W        W28681  12.600  26.694  14.338
63422W        W28682  13.144  18.065  14.684
63423W        W28683  28.736  34.047   3.317
63424W        W28684  30.550  14.452  11.128
63425W        W28685  24.704  10.133  12.089
63426W        W28686  37.912  11.141  11.100
63427W        W28687  26.826  11.388  14.492
63428W        W28688  22.187  39.453   0.598
63429W        W28689  42.761  30.531   0.007
63430W        W28690  21.091  12.777  11.174
63431W        W28691   7.839   6.193   0.406
63432W        W28692  41.440  39.988   0.792
63433W        W28693  44.164  15.333  14.758
63434W        W28694  36.817  13.259   2.863
63435W        W28695   9.776  15.660   1.478
63436W        W28696  24.281  29.429   3.764
63437W        W28697  37.901   9.249   0.828
63438W        W28698  13.539  24.989   4.261
63439W        W28699  23.108  20.682   3.341
63440W        W28700  42.750  23.180   1.374
63441W        W28701  40.496  20.850  11.005
63442W        W28702   9.424  14.648   1.756
63443W        W28703  30.983  36.601  11.627
63444W        W28704  40.980  31.561   3.538
63445W        W28705  44.234  26.535  12.456
63446W        W28706  27.395  22.698  10.637
63447W        W28707  25.018  16.965   9.533
63448W        W28708  11.766   8.650  13.341
63449W        W28709  44.798  43.939  11.920
63450W        W28710   2.699  37.065   4.868
63451W        W28711  28.710  20.484   4.349
63452W        W28712  11.735   0.036  11.446
63453W        W28713  19.680   3.405  13.464
63454W        W28714  17.844   9.620  12.412
63455W        W28715  13.265  30.719   4.555
63456W        W28716   3.860  11.583  12.375
63457W        W28717  25.531  19.714   2.426
63458W        W28718  37.416  35.243  13.430
63459W        W28719  10.828  24.563   3.847
63460W        W28720  42.942   3.397  13.100
63461W        W28721  31.432   9.731  13.509
63462W        W28722  15.495  21.173   0.771
63463W        W28723  18.612  27.085   3.955
63464W        W28724  19.268  29.095   3.962
63465W        W28725  44.272   7.773  14.909
63466W        W28726  42.922  43.299  10.629
63467W        W28727  22.132  16.152   2.793
63468W        W28728  18.839  39.595   2.698
63469W        W28729  24.676  13.673   1.913
63470W        W28730  29.918  33.872   2.804
63471W        W28731  14.661  44.409  11.668
63472W        W28732  14.172  23.587   0.244
63473W        W28733   9.929  44.284  10.551
63474W        W28734  15.715  12.142   3.769
63475W        W28735   0.494  31.052   3.243
63476W        W28736  35.989  19.822  11.653
63477W        W28737  42.740  16.941   4.928
63478W        W28738   4.783  10.948  12.947
63479W        W28739  13.640  22.768  12.864
63480W        W28740  21.320  29.722   2.267
63481W        W28741  18.442  42.779   4.310
63482W        W28742  21.153  42.512  13.333
63483W        W28743   1.558  26.970   3.622
63484W        W28744  34.532   0.249   3.858
63485W        W28745   8.231  36.940  14.894
63486W        W28746  22.198  27.223   1.887
63487W        W28747  36.099  14.621   2.266
63488W        W28748  29.613  22.957   0.935
63489W        W28749  37.133  37.119  13.555
63490W        W28750   0.892   3.472   4.222
63491W        W28751  11.233   5.210  13.852
63492W        W28752  36.394   7.883  11.537
63493W        W28753   3.854  20.986   0.953
63494W        W28754  36.678  34.488   2.291
63495W        W28755   3.515  37.831  10.675
63496W        W28756   0.059   4.402   1.785
63497W        W28757  17.333  39.660  11.585
63498W        W28758  34.596   1.332   2.739
63499W        W28759  35.115  24.652  14.953
63500W        W28760  20.394  22.632  12.608
63501W        W28761  24.717  16.680  12.878
63502W        W28762  29.260  11.731  11.998
63503W        W28763  41.455   7.865   0.698
63504W        W28764  31.816   2.881  11.497
63505W        W28765   2.475  30.706   4.149
63506W        W28766  23.237  22.051  13.478
63507W        W28767  25.221  32.911   1.012
63508W        W28768  26.191   3.430   4.750
63509W        W28769  43.357  42.252  13.518
63510W        W28770  10.206  37.201  10.702
63511W        W28771  13.861  35.604  10.704
63512W        W28772  39.499  29.924  14.927
63513W        W28773  14.945  38.860  14.625
63514W        W28774  32.105   3.641  11.147
63515W        W28775  14.327  39.835   1.411
63516W        W28776  33.137  43.273  14.396
63517W        W28777  13.203  18.608   1.383
63518W        W28778  24.584  34.045   2.829
63519W        W28779  37.832  29.516   0.821
63520W        W28780  14.637  28.003  11.981
63521W        W28781  22.286  29.690   5.054
63522W        W28782  35.478  12.407   3.520
63523W        W28783  31.286  16.724  11.146
63524W        W28784  17.659  42.985   3.111
63525W        W28785   9.924  37.514  14.932
63526W        W28786  15.290   4.645   1.846
63527W        W28787  42.890  36.230   9.994
63528W        W28788  27.617  18.665   2.843
63529W        W28789  16.044  44.270  14.658
63530W        W28790  16.266  36.051   4.649
63531W        W28791  11.334   9.392   3.250
63532W        W28792   5.960  28.781  12.787
63533W        W28793   9.859  22.260   2.987
63534W        W28794  35.447   7.668   1.462
63535W        W28795  16.138  35.033   4.560
63536W        W28796  18.656  24.634  11.713
63537W        W28797   8.838  17.875   1.636
63538W        W28798  21.309   2.576   1.228
63539W        W28799  17.819  35.405   3.239
63540W        W28800  12.455  37.529  12.907
63541W        W28801  43.655  35.827   4.136
63542W        W28802   6.706  22.987   1.418
63543W        W28803   5.751  16.066   1.723
63544W        W28804  11.387  14.776  14.847
63545W        W28805  21.184  25.616  10.733
63546W        W28806   2.170  34.452  11.990
63547W        W28807  14.904   8.307  12.195
63548W        W28808  34.686  26.690   2.271
63549W        W28809   9.659  14.650  12.947
63550W        W28810  10.392  39.668  11.221
63551W        W28811   1.558  35.284   2.454
63552W        W28812  18.621  37.079  10.554
63553W        W28813  41.931   7.380   3.188
63554W        W28814  34.983  33.538   0.203
63555W        W28815  14.692  14.812  11.217
63556W        W28816  11.652  23.544  10.322
63557W        W28817  36.366   7.851   1.770
63558W        W28818  18.337   9.353  13.464
63559W        W28819   5.863  18.569  11.447
63560W        W28820  14.633  15.147   2.844
63561W        W28821  20.539  16.718  13.281
63562W        W28822  25.035   8.760   3.789
63563W        W28823  37.292  20.048  11.947
63564W        W28824   6.789  22.536  12.980
63565W        W28825  19.605  17.032   3.116
63566W        W28826  39.015  40.396   4.261
63567W        W28827  42.911  17.770   3.904
63568W        W28828  13.038  17.607  11.514
63569W        W28829  11.668  31.487   3.612
63570W        W28830  44.250  34.443  10.663
63571W        W28831  14.214  13.414  11.454
63572W        W28832  44.179  43.031   3.745
63573W        W28833  34.988  42.255   4.286
63574W        W28834   8.754  38.823  13.279
63575W        W28835  19.938  34.181   4.812
63576W        W28836   2.727  22.452  13.899
63577W        W28837  13.156  37.487   1.780
63578W        W28838  29.565  43.907  12.099
63579W        W28839  30.339   3.299  13.424
63580W        W28840  14.757  34.344  13.091
63581W        W28841  41.036   8.783   2.253
63582W        W28842   8.836  32.399   0.262
63583W        W28843   9.227  30.872  13.401
63584W        W28844  38.497  40.509  10.420
63585W        W28845   4.946  17.214  10.581
63586W        W28846   7.832   3.940  12.508
63587W        W28847  22.297   2.494   5.400
63588W        W28848  35.318  17.128  12.989
63589W        W28849  32.028  26.055   0.914
63590W        W28850  27.400   4.916   4.516
63591W        W28851  38.745  31.088  13.119
63592W        W28852  42.016  24.670  13.390
63593W        W28853  41.898   4.495  13.761
63594W        W28854  21.336  17.925  11.305
63595W        W28855  16.753  18.297  11.530
63596W        W28856  32.577  40.866   0.545
63597W        W28857  44.827   1.330  10.729
63598W        W28858   0.642   6.315   3.766
63599W        W28859  22.249  36.853   2.166
63600W        W28860  26.943  28.045   0.436
63601W        W28861  17.348  21.545  12.485
63602W        W28862  39.522  36.554  12.209
63603W        W28863  25.060   6.931  11.905
63604W        W28864  22.226  31.873   3.355
63605W        W28865  27.930   7.632  12.867
63606W        W28866  10.275  31.604   0.787
63607W        W28867  24.567  33.168   2.718
63608W        W28868  35.500  38.766   0.213
63609W        W28869  43.371  41.232   4.442
63610W        W28870  23.881  36.420  14.395
63611W        W28871  29.935   3.943   0.806
63612W        W28872   8.373  33.157  14.407
63613W        W28873  14.276   1.188  14.887
63614W        W28874  34.187  41.859   2.393
63615W        W28875  17.871  26.513   4.246
63616W        W28876  16.533  17.657   0.301
63617W        W28877   1.064  22.411  10.215
63618W        W28878  29.024  33.493  12.573
63619W        W28879   6.954  37.999  13.402
63620W        W28880  35.926   0.359  12.048
63621W        W28881  17.984  19.582   2.696
63622W        W28882  15.293   5.379   3.148
63623W        W28883  21.965  15.612  12.807
63624W        W28884  33.115  28.945  11.943
63625W        W28885  42.819  18.910   3.559
63626W        W28886  34.450  12.749   0.475
63627W        W28887  30.990  15.563   1.019
63628W        W28888  17.728  23.277  11.910
63629W        W28889  37.871  35.395  13.119
63630W        W28890  17.145  35.803   1.381
63631W        W28891  17.906  34.814   4.197
63632W        W28892  13.601  22.608   1.862
63633W        W28893  16.068  28.063  11.060
63634W        W28894  25.150  31.535  12.414
63635W        W28895  41.772  11.528   0.408
63636W        W28896  28.768  23.960  11.570
63637W        W28897  26.021  23.403  14.424
63638W        W28898   5.216  28.471  12.469
63639W        W28899  23.030   7.226   2.208
63640W        W28900  34.501  18.742  13.919
63641W        W28901   5.952  26.704   0.837
63642W        W28902  37.583   3.244  13.575
63643W        W28903  19.991  23.763   3.318
63644W        W28904  42.348  34.041   4.855
63645W        W28905  27.967  43.458   2.248
63646W        W28906   4.758  27.409  12.032
63647W        W28907  13.307  11.748  10.692
63648W        W28908  20.852  14.361   2.163
63649W        W28909  39.132  14.490   0.422
63650W        W28910   2.217  36.152   1.672
63651W        W28911   2.398  31.172  12.604
63652W        W28912   5.359  33.028   4.101
63653W        W28913  11.829  30.666   2.188
63654W        W28914   7.570  37.903  10.874
63655W        W28915  40.695  22.701   1.968
63656W        W28916  41.121  35.171   1.798
63657W        W28917   1.456  39.909   0.955
63658W        W28918  16.180  34.789   0.862
63659W        W28919  27.140  27.242   2.218
63660W        W28920  23.992  34.765  10.190
63661W        W28921  39.475  18.306   4.804
63662W        W28922   0.484  13.017   2.260
63663W        W28923  24.782   6.468   4.647
63664W        W28924  10.615  26.012   0.007
63665W        W28925   3.732  36.880   2.423
63666W        W28926  25.604  31.427   1.279
63667W        W28927  12.288   9.541   4.712
63668W        W28928  38.405   1.671  13.896
63669W        W28929  32.735   4.871  12.890
63670W        W28930  40.421  14.364  14.223
63671W        W28931   0.466   5.717  12.201
63672W        W28932  14.312  19.144   0.386
63673W        W28933  23.975  25.362   4.327
63674W        W28934  32.575   7.440  14.457
63675W        W28935  42.834   9.871  12.874
63676W        W28936  30.186  44.511  14.736
63677W        W28937  14.324  19.120   5.185
63678W        W28938  43.087  22.988   0.979
63679W        W28939  12.315  32.943   2.813
63680W        W28940   5.709  13.408  13.442
63681W        W28941  23.798  33.350   0.956
63682W        W28942  12.179  31.203  11.617
63683W        W28943   8.382   9.709  12.624
63684W        W28944  43.235  33.574  14.836
63685W        W28945  15.949  37.344   3.374
63686W        W28946   2.956  44.648   0.765
63687W        W28947  11.848  28.539   0.725
63688W        W28948  43.724  24.338   4.556
63689W        W28949   6.908  17.237  10.843
63690W        W28950  24.543  24.447  13.976
63691W        W28951  30.178  23.909  14.366
63692W        W28952  10.230  24.725   3.216
63693W        W28953  12.709  12.740  10.724
63694W        W28954  42.079  16.562  11.173
63695W        W28955  32.280   2.415   1.143
63696W        W28956  36.295  25.351   0.869
63697W        W28957  38.866  43.764  12.231
63698W        W28958  15.177  24.060   4.264
63699W        W28959  19.206  37.020  12.117
63700W        W28960  11.693   4.196  10.931
63701W        W28961  33.846  28.678  14.349
63702W        W28962  38.349  12.403  13.881
63703W        W28963  41.172  36.986  12.996
63704W        W28964  28.259  23.265  12.143
63705W        W28965  31.763   5.309  10.922
63706W        W28966  32.064  36.915   0.917
63707W        W28967  40.152  16.372   4.769
63708W        W28968  30.600   3.317   2.632
63709W        W28969   7.451  13.389  11.012
63710W        W28970  18.806  40.101   2.781
63711W        W28971  40.492  39.983   2.347
63712W        W28972  16.790  29.920  13.716
63713W        W28973   1.531   5.351  11.292
63714W        W28974  15.536  34.059  14.454
63715W        W28975  12.639   1.224  13.695
63716W        W28976  25.937  35.349   0.827
63717W        W28977  28.993  37.666  10.843
63718W        W28978  37.441  29.631   2.938
63719W        W28979  15.875  41.430  12.398
63720W        W28980  34.236  24.650  12.166
63721W        W28981  42.969  33.683   2.193
63722W        W28982  12.659  22.735  13.107
63723W        W28983   4.429  40.555   1.420
63724W        W28984   1.610  10.855   1.020
63725W        W28985  15.437   1.185  12.428
63726W        W28986  30.563  41.826  14.278
63727W        W28987  13.376  31.910  11.890
63728W        W28988  38.779  16.144  10.975
63729W        W28989  12.577  25.552   2.118
63730W        W28990  41.480  17.630  11.642
63731W        W28991  43.276  35.603  12.183
63732W        W28992   2.272  10.363   1.256
63733W        W28993  38.802  18.801   4.100
63734W        W28994  42.951  31.855   3.198
63735W        W28995  38.341  21.061   0.485
63736W        W28996  11.473  31.428  13.909
63737W        W28997  20.311  14.573   2.454
63738W        W28998   3.046  16.730   3.108
63739W        W28999   8.545   3.992   4.956
63740W        W29000  44.377  17.454   4.529
63741W        W29001  19.097  12.059   3.949
63742W        W29002  41.215  26.017   4.321
63743W        W29003   9.854  33.782   1.781
63744W        W29004  11.456  11.616  10.869
63745W        W29005  20.832   9.309   0.473
63746W        W29006  39.850  27.526  13.163
63747W        W29007  11.301  10.647   0.853
63748W        W29008   0.506  33.112  10.769
63749W        W29009  23.104  26.554   2.689
63750W        W29010   9.239  35.450   3.843
63751W        W29011  10.713  32.248  13.755
63752W        W29012   4.603   2.891   1.291
63753W        W29013   7.848  36.415   2.721
63754W        W29014  41.405  28.477  14.764
63755W        W29015   8.950  39.426  10.712
63756W        W29016  35.470  33.439  10.895
63757W        W29017  18.780  11.937  13.183
63758W        W29018  25.058  38.279   2.337
63759W        W29019  21.723  15.755   1.931
63760W        W29020  41.977   5.654   2.684
63761W        W29021  33.275  14.740  12.514
63762W        W29022  31.896  38.281  13.454
63763W        W29023  41.846   5.189  13.302
63764W        W29024  30.645  20.518   0.943
63765W        W29025  42.448  33.824  12.869
63766W        W29026   7.856  24.406   4.075
63767W        W29027  15.000  13.572   4.054
63768W        W29028   9.117  25.154   4.974
63769W        W29029  40.068  42.416  11.638
63770W        W29030   8.337  32.541  13.783
63771W        W29031  34.155  17.884  13.662
63772W        W29032  18.289  21.573   3.275
63773W        W29033  24.523  23.605  10.593
63774W        W29034  44.935   1.755   3.876
63775W        W29035  34.265  27.260  12.998
63776W        W29036  27.021   8.136   2.213
63777W        W29037  28.477  44.450  13.495
63778W        W29038  13.209  39.718  12.086
63779W        W29039   2.631  29.057   9.798
63780W        W29040  20.399  12.201   2.614
63781W        W29041  15.732  11.815   2.216
63782W        W29042   9.112   6.235  13.105
63783W        W29043  40.915  34.912   2.615
63784W        W29044  43.631  37.310   0.551
63785W        W29045  31.136   6.448   2.872
63786W        W29046  36.009  38.032  11.500
63787W        W29047  27.582  15.973  13.534
63788W        W29048   4.872  40.715  12.163
63789W        W29049  26.327  37.948   0.842
63790W        W29050  27.479  39.926  11.542
63791W        W29051  15.323   8.396  11.059
63792W        W29052  20.987  38.097  13.858
63793W        W29053  29.143   7.340  10.730
63794W        W29054   6.667   4.192   1.081
63795W        W29055  28.281  10.193   9.799
63796W        W29056  12.746   5.461  11.553
63797W        W29057  13.431   4.917  14.016
63798W        W29058  31.204  13.904  12.570
63799W        W29059  12.141  15.219  12.524
63800W        W29060  41.465  23.661  11.927
63801W        W29061   7.771  41.756   3.837
63802W        W29062  29.724   5.886   3.764
63803W        W29063  11.529  44.525  14.333
63804W        W29064  31.988  19.824  12.499
63805W        W29065   2.522  27.053  13.479
63806W        W29066  13.213  17.391   0.810
63807W        W29067  40.622  23.007  10.925
63808W        W29068  27.561  36.824   3.321
63809W        W29069   7.857  37.511  10.616
63810W        W29070  39.492  13.895   2.294
63811W        W29071   6.654  20.675   2.875
63812W        W29072  11.787   2.815  10.710
63813W        W29073  16.721   6.797   2.989
63814W        W29074  39.044  35.966   4.331
63815W        W29075  33.370  37.404   0.727
63816W        W29076   2.481  31.926  14.007
63817W        W29077  29.710  31.791   3.283
63818W        W29078  13.239   7.233   1.690
63819W        W29079  25.002  13.741   4.184
63820W        W29080  38.793  28.141   1.420
63821W        W29081  39.351   9.180   1.766
63822W        W29082   4.838  31.862   2.534
63823W        W29083  44.798  30.633  14.240
63824W        W29084  23.077   4.447   0.686
63825W        W29085  15.567   7.849   3.650
63826W        W29086  19.744  37.042   0.557
63827W        W29087  40.005  24.448   0.304
63828W        W29088   5.169  38.653  14.951
63829W        W29089  41.012  38.851  12.973
63830W        W29090   9.281  24.657   1.709
63831W        W29091  14.361  43.423  12.010
63832W        W29092   4.973   8.776  10.919
63833W        W29093  43.342  30.561   3.367
63834W        W29094  38.254  19.148   1.650
63835W        W29095  33.079   8.164  14.954
63836W        W29096  35.623  39.781   4.920
63837W        W29097   7.024  34.102   0.124
63838W        W29098   7.745   8.708  10.704
63839W        W29099   7.770  25.430  10.846
63840W        W29100   9.303  44.648   1.004
63841W        W29101  35.919  42.353   1.351
63842W        W29102  22.785  37.117  12.499
63843W        W29103  33.620   1.323   1.661
63844W        W29104  22.897  42.425  12.947
63845W        W29105  33.542   8.465   4.322
63846W        W29106  24.255  39.947  11.081
63847W        W29107   8.379  17.174   1.369
63848W        W29108  42.726  24.575   2.306
63849W        W29109  22.642  18.455  13.163
63850W        W29110  41.388  26.165   2.911
63851W        W29111  22.700  42.864  11.078
63852W        W29112  25.837   4.271   4.979
63853W        W29113  44.607  41.015   4.941
63854W        W29114   0.299  36.100   0.859
63855W        W29115  29.410  43.421  11.988
63856W        W29116   8.181  16.584   0.527
63857W        W29117   4.346  28.112  10.732
63858W        W29118   3.486   6.129   1.814
63859W        W29119  36.989  29.707   3.237
63860W        W29120   4.866  42.067  12.301
63861W        W29121   1.369  17.260   0.856
63862W        W29122  41.065   2.069   5.371
63863W        W29123   3.374  33.634   0.339
63864W        W29124  22.893  17.586   1.943
63865W        W29125  23.046  18.227   3.620
63866W        W29126  20.764  23.037   4.721
63867W        W29127  24.816   2.702  13.295
63868W        W29128  34.959  30.800  12.190
63869W        W29129  18.707  36.954  14.331
63870W        W29130  13.143  28.129   9.778
63871W        W29131  39.018   9.025   3.204
63872W        W29132   4.655  30.411   4.256
63873W        W29133   8.249  12.806  11.230
63874W        W29134   2.726   3.389   1.725
63875W        W29135   0.505   9.219   2.276
63876W        W29136  43.453  39.100  10.650
63877W        W29137   3.768  39.884  10.709
63878W        W29138  36.904  20.229   3.130
63879W        W29139  26.029   8.608   1.268
63880W        W29140  20.436   2.018  11.170
63881W        W29141   7.669   3.731   1.265
63882W        W29142  16.319   1.796   3.155
63883W        W29143   4.925   1.849   2.777
63884W        W29144  11.102  13.917   4.483
63885W        W29145  13.289   1.585   0.823
63886W        W29146  29.153  34.192   1.211
63887W        W29147  40.037  32.259  11.646
63888W        W29148  18.500  29.016   1.188
63889W        W29149  12.560  36.549  11.529
63890W        W29150  10.222   3.509  14.622
63891W        W29151   9.393  36.242   0.929
63892W        W29152  26.774   1.795  13.356
63893W        W29153   2.566  27.958   4.583
63894W        W29154  42.546   9.833  12.462
63895W        W29155   5.185  17.227  13.074
63896W        W29156  17.728  17.298   0.353
63897W        W29157  32.537  16.291  12.108
63898W        W29158   4.681  15.597  11.660
63899W        W29159  30.089  30.199   3.695
63900W        W29160  26.916  37.410  14.921
63901W        W29161  12.436   2.635   2.754
63902W        W29162  25.615  27.662   2.966
63903W        W29163   4.825  20.825  10.670
63904W        W29164  39.901   2.978  14.385
63905W        W29165  28.693  32.806   4.404
63906W        W29166  42.800  26.620   2.687
63907W        W29167  30.903  33.129   0.280
63908W        W29168  34.537  20.096   4.030
63909W        W29169  22.636  44.481  10.805
63910W        W29170   4.664  27.081  12.422
63911W        W29171  30.537   1.331  13.558
63912W        W29172  18.326  35.974  13.043
63913W        W29173   9.948  25.145  11.961
63914W        W29174  28.859  38.527  10.926
63915W        W29175   8.291  39.288  13.055
63916W        W29176  12.858  29.600   0.493
63917W        W29177  23.661  10.872  12.644
63918W        W29178  29.743  32.182   1.359
63919W        W29179  30.545  23.233   2.970
63920W        W29180  10.799  30.918   2.378
63921W        W29181  42.355  18.245   4.670
63922W        W29182  14.031  28.766  12.317
63923W        W29183  39.059  33.023  14.012
63924W        W29184  27.074  22.009   2.542
63925W        W29185  38.834  26.645   3.580
63926W        W29186  21.546   9.098   2.770
63927W        W29187  21.601  31.605  11.907
63928W        W29188  19.820  14.710   2.353
63929W        W29189  35.665  18.207   0.461
63930W        W29190  13.691  29.832  12.064
63931W        W29191  23.766   0.871   3.681
63932W        W29192  12.320   9.927  10.334
63933W        W29193  15.672  13.789  12.498
63934W        W29194  39.077  33.176   1.686
63935W        W29195  40.464  29.947   0.808
63936W        W29196  24.154  40.718  10.761
63937W        W29197  22.938  33.899   5.409
63938W        W29198   5.890  28.491  13.719
63939W        W29199  24.010  28.251  12.120
63940W        W29200  37.501  20.280   2.502
63941W        W29201  17.346  29.717   4.498
63942W        W29202  24.651  12.810   4.067
63943W        W29203  41.354  27.613   3.697
63944W        W29204  11.003  11.793   3.325
63945W        W29205  27.019  35.913   4.175
63946W        W29206  25.706   1.312  10.889
63947W        W29207  18.676  28.143  11.550
63948W        W29208  40.023  38.850  12.861
63949W        W29209  25.666  35.603  13.001
63950W        W29210  44.512  28.647  10.760
63951W        W29211   4.864  44.449   4.564
63952W        W29212  35.096  27.319   1.573
63953W        W29213   9.564  28.388   0.867
63954W        W29214  22.682  11.016   3.968
63955W        W29215   7.899  24.268   2.295
63956W        W29216   4.264  23.657  14.889
63957W        W29217  31.580  11.297   3.339
63958W        W29218  34.912  30.136   0.890
63959W        W29219  39.585  38.911   4.409
63960W        W29220  32.739  41.537   3.343
63961W        W29221   2.994  28.111   3.316
63962W        W29222  24.965  36.599  12.433
63963W        W29223  21.826  36.424   0.196
63964W        W29224  10.582  14.058   4.558
63965W        W29225  31.784   7.601   2.390
63966W        W29226  31.939  40.298  13.366
63967W        W29227  35.785   4.355   1.932
63968W        W29228  13.673  14.749  14.544
63969W        W29229  25.284  33.508   4.526
63970W        W29230   1.904  22.256   3.060
63971W        W29231  41.814  25.006   3.268
63972W        W29232  44.305  25.839  13.858
63973W        W29233   7.832  18.036  11.182
63974W        W29234  42.059  38.692  14.263
63975W        W29235  36.846  18.276  11.611
63976W        W29236   5.300  16.792  13.374
63977W        W29237  44.176  27.096   4.507
63978W        W29238  26.566   1.000   0.384
63979W        W29239  31.879  26.243  11.566
63980W        W29240  11.383  41.369  13.691
63981W        W29241  18.249   9.935  13.026
63982W        W29242  17.090  26.243   3.394
63983W        W29243  24.708   0.888  10.494
63984W        W29244  16.019  33.091   3.673
63985W        W29245  19.945  35.038  14.884
63986W        W29246  28.385  21.127   4.521
63987W        W29247   8.270  22.254   4.913
63988W        W29248   7.326  41.449  12.581
63989W        W29249  36.962   5.696   2.381
63990W        W29250  15.400   2.379   0.301
63991W        W29251  17.116  36.672  12.814
63992W        W29252  41.431  24.938  14.692
63993W        W29253   3.734  42.597  13.831
63994W        W29254  25.991  20.260   4.839
63995W        W29255  30.161  37.299  14.841
63996W        W29256  21.529  21.472   1.010
63997W        W29257   4.475  22.667   0.857
63998W        W29258  21.956  11.768   1.269
63999W        W29259  32.436  44.658   1.666
64000W        W29260  35.073  43.606   1.836
64001W        W29261  16.773  27.473   4.896
64002W        W29262  22.077   2.510   3.187
64003W        W29263  25.125  33.551   1.631
64004W        W29264   3.642  14.463  10.782
64005W        W29265  13.705  21.950  12.896
64006W        W29266  13.982  33.535   1.191
64007W        W29267  25.089  12.261  14.405
64008W        W29268   8.563  37.280  13.009
64009W        W29269  42.382  19.469   1.367
64010W        W29270  37.949   9.949   2.392
64011W        W29271  34.866  43.783   4.494
64012W        W29272  36.584  40.747   4.749
64013W        W29273  34.488  38.533  10.397
64014W        W29274  21.671  29.356  10.227
64015W        W29275  21.495  10.856  11.165
64016W        W29276  43.799  28.523   1.311
64017W        W29277  26.263   4.525   4.917
64018W        W29278  10.804  28.057   2.761
64019W        W29279  22.775  25.253  11.432
64020W        W29280  27.407  42.002  12.413
64021W        W29281  36.257   6.372  11.449
64022W        W29282  17.949   2.931   4.695
64023W        W29283  19.752  29.941   1.973
64024W        W29284   7.797  13.380  14.773
64025W        W29285  21.033   6.848   1.549
64026W        W29286  22.766  11.782  14.690
64027W        W29287   6.323   2.928   2.283
64028W        W29288  14.085  31.449  14.959
64029W        W29289  17.328  36.928   4.884
64030W        W29290  16.721   7.461  13.115
64031W        W29291  14.863   0.759   0.330
64032W        W29292  28.448  36.870   3.037
64033W        W29293   9.162  25.233  10.256
64034W        W29294  14.038  40.362  11.234
64035W        W29295  24.960  18.729  14.592
64036W        W29296  18.209  12.469  13.795
64037W        W29297  17.927   3.296   2.453
64038W        W29298  18.064   7.068  11.054
64039W        W29299   6.549  26.723  14.486
64040W        W29300  27.549  18.804  11.631
64041W        W29301  17.508   4.165   2.163
64042W        W29302  40.233  42.532  14.061
64043W        W29303  25.468  22.460  10.707
64044W        W29304   9.517  22.654  14.972
64045W        W29305   7.802  17.734  13.809
64046W        W29306   9.330  26.013  13.439
64047W        W29307  43.003  23.105  11.001
64048W        W29308   7.841   9.714   1.854
64049W        W29309  25.207   9.685  12.366
64050W        W29310   0.884   5.876   3.567
64051W        W29311  18.517  39.330   3.643
64052W        W29312  20.699   4.848  10.685
64053W        W29313  35.466  24.431   4.644
64054W        W29314  38.397  23.321  14.033
64055W        W29315  24.267  22.663   9.639
64056W        W29316  29.132  10.194  13.793
64057W        W29317  16.766  18.315  13.733
64058W        W29318  25.584   0.693   0.757
64059W        W29319  32.412  33.439   1.845
64060W        W29320   5.628  44.145  11.125
64061W        W29321  44.240  34.130   2.812
64062W        W29322   3.775  36.580  13.461
64063W        W29323  30.993  40.321   3.868
64064W        W29324   7.886  11.385   1.728
64065W        W29325  16.665   8.156  12.673
64066W        W29326  34.973  13.047  10.614
64067W        W29327  34.615  23.561  13.034
64068W        W29328   3.226   1.497  11.972
64069W        W29329   6.166  42.091   1.933
64070W        W29330  23.209  37.167  13.577
64071W        W29331  41.558   7.805   1.625
64072W        W29332   0.058  42.446  14.349
64073W        W29333  43.449  27.308  13.184
64074W        W29334  13.772   2.149   3.447
64075W        W29335  40.324  28.996  14.886
64076W        W29336   1.344  23.755   0.360
64077W        W29337  25.461   9.821   0.506
64078W        W29338   4.033  28.790   3.799
64079W        W29339  23.972  10.746   3.887
64080W        W29340  21.032   2.038  11.939
64081W        W29341  30.427  13.848  14.442
64082W        W29342  30.702  19.171   1.485
64083W        W29343  39.955  37.443   0.965
64084W        W29344  39.911  16.979  14.879
64085W        W29345   0.771  34.570  13.992
64086W        W29346  33.292   6.485  12.044
64087W        W29347   9.827  25.927   2.118
64088W        W29348  24.598  10.650  11.967
64089W        W29349  28.035  12.416   2.332
64090W        W29350  17.357   0.145   1.704
64091W        W29351  12.166  13.209  10.535
64092W        W29352   8.376  30.591   0.183
64093W        W29353  42.421  11.200  14.454
64094W        W29354  20.967  10.109   3.278
64095W        W29355  29.730  40.487   3.571
64096W        W29356  31.333  16.214  13.509
64097W        W29357  37.450  21.557   2.211
64098W        W29358  24.456  35.978   0.917
64099W        W29359  12.105   0.659  14.885
64100W        W29360  36.168  20.492  12.048
64101W        W29361  26.605  17.667   0.382
64102W        W29362  32.568   1.489   0.762
64103W        W29363  31.369  20.719   0.519
64104W        W29364  16.278  37.734  14.891
64105W        W29365  42.306  26.629  14.955
64106W        W29366  32.508  44.827   3.724
64107W        W29367   5.305   1.207   3.696
64108W        W29368  29.461  34.019  13.002
64109W        W29369  11.689  30.821  12.327
64110W        W29370  43.150  23.012  14.661
64111W        W29371  37.594  42.477  12.060
64112W        W29372   3.769  35.897   2.384
64113W        W29373  34.319  27.827   0.355
64114W        W29374  21.254  22.002   0.284
64115W        W29375  10.389  38.033   1.458
64116W        W29376  30.345   3.610   3.864
64117W        W29377  39.865  44.454   3.181
64118W        W29378   6.776  33.116  10.733
64119W        W29379   8.591  20.820  14.936
64120W        W29380  41.815  21.103   3.433
64121W        W29381  29.194  34.443  13.155
64122W        W29382  39.573  10.855   3.954
64123W        W29383   4.277  21.215   0.724
64124W        W29384  11.855  15.998   3.186
64125W        W29385   2.164  22.586   2.205
64126W        W29386  36.765  34.058  11.999
64127W        W29387  37.499  42.200  12.557
64128W        W29388  31.628  34.468  12.807
64129W        W29389  29.028  12.253   4.117
64130W        W29390  17.778  19.578  11.225
64131W        W29391  13.267  40.599   3.080
64132W        W29392   7.236  29.752  13.391
64133W        W29393   9.573  43.118  11.157
64134W        W29394  38.541   3.811  14.735
64135W        W29395  35.052   7.729   3.759
64136W        W29396  15.132  40.088   4.593
64137W        W29397   6.979  17.399   3.703
64138W        W29398   0.999  10.597  12.385
64139W        W29399  12.393  18.665  14.401
64140W        W29400   3.069  14.526   0.158
64141W        W29401   9.732  23.347   2.261
64142W        W29402   1.012  34.474   2.764
64143W        W29403  11.309  29.961   3.245
64144W        W29404  26.975   5.285  12.866
64145W        W29405   9.842   5.657   1.318
64146W        W29406  20.970  37.812  14.882
64147W        W29407  27.066  35.506   1.630
64148W        W29408  12.821  10.712  10.197
64149W        W29409  10.607  44.031  14.818
64150W        W29410  26.953  15.877   0.316
64151W        W29411   3.027  29.027  10.192
64152W        W29412  43.790  43.034  12.481
64153W        W29413  39.561   0.335   1.804
64154W        W29414  39.922   8.337  13.191
64155W        W29415  30.422   8.307   0.355
64156W        W29416  37.631  43.746   3.332
64157W        W29417   4.908  34.039   2.348
64158W        W29418  39.990  18.774  12.509
64159W        W29419  39.938  14.932   1.144
64160W        W29420  44.394  26.059  13.388
64161W        W29421  37.352   3.464  13.185
64162W        W29422  35.342  29.997  12.499
64163W        W29423  32.169   9.884  11.185
64164W        W29424   5.822   1.504  14.446
64165W        W29425  33.710  18.605  11.496
64166W        W29426  38.071  36.827  12.582
64167W        W29427  15.887   9.806  12.431
64168W        W29428  30.051   9.436  11.923
64169W        W29429  27.694   7.851  11.039
64170W        W29430  32.415   6.490  13.937
64171W        W29431  29.257   4.304   1.284
64172W        W29432  44.229   3.439  13.380
64173W        W29433  38.467  39.823   4.227
64174W        W29434  44.389  37.319  11.403
64175W        W29435  31.891  11.060   1.243
64176W        W29436  19.387  28.350   4.344
64177W        W29437  19.159  16.652   1.663
64178W        W29438  25.480  35.655  13.503
64179W        W29439  27.519  42.789   4.177
64180W        W29440  13.707  17.173   2.347
64181W        W29441  25.101   7.199   4.320
64182W        W29442  28.993  17.304  11.076
64183W        W29443  29.131  34.648   2.063
64184W        W29444  42.343  37.891   1.813
64185W        W29445  37.596  19.831  14.789
64186W        W29446  23.780  44.039  10.885
64187W        W29447  25.752  25.202   4.652
64188W        W29448   8.443  17.715   4.583
64189W        W29449  16.342   6.419   0.052
64190W        W29450  41.961  25.387  12.044
64191W        W29451  23.244  13.079  13.421
64192W        W29452  14.074  21.772   2.252
64193W        W29453  19.616  19.462  12.820
64194W        W29454  20.337   1.682  14.444
64195W        W29455  27.441  22.959  13.590
64196W        W29456  38.720  10.649  11.537
64197W        W29457   5.055  18.122  11.668
64198W        W29458  42.133   3.974  11.678
64199W        W29459  40.268  41.917   0.392
64200W        W29460   8.284  14.098  13.062
64201W        W29461  12.670  10.899   2.585
64202W        W29462  18.578   6.462  14.494
64203W        W29463   4.440  26.922  11.133
64204W        W29464  29.064   4.196   1.775
64205W        W29465  12.093  14.364  12.979
64206W        W29466   3.986   2.812   4.644
64207W        W29467  35.987  43.080  13.114
64208W        W29468  19.481  15.286  14.090
64209W        W29469   6.045  23.866  11.945
64210W        W29470  36.990  18.504   2.404
64211W        W29471  12.081  33.555   1.314
64212W        W29472  37.412  36.242  13.493
64213W        W29473  31.083  35.402   4.865
64214W        W29474   3.854  42.378  10.676
64215W        W29475  18.453  43.863   0.435
64216W        W29476  42.779  18.565   2.562
64217W        W29477  24.536   7.689   3.860
64218W        W29478  22.191  27.628   0.122
64219W        W29479  22.766   2.911  14.865
64220W        W29480  43.670  21.643   3.211
64221W        W29481  12.358  19.796  10.798
64222W        W29482  28.185  35.241   1.307
64223W        W29483  23.695  43.734  13.965
64224W        W29484  18.719  13.750  13.415
64225W        W29485  41.002  23.027  11.290
64226W        W29486  19.450   3.444   1.290
64227W        W29487  14.078  38.190  12.465
64228W        W29488  35.854  30.615   2.773
64229W        W29489  38.585  37.569   1.444
64230W        W29490  24.530  11.399   0.518
64231W        W29491  44.130   5.482  13.560
64232W        W29492  36.921  24.503  14.232
64233W        W29493   8.931  38.903   4.176
64234W        W29494  22.325   7.627   1.285
64235W        W29495  39.519   1.526  13.546
64236W        W29496  11.015  39.900  13.021
64237W        W29497   0.146   6.716  14.907
64238W        W29498   0.941   3.366   3.267
64239W        W29499  37.823  40.318  14.795
64240W        W29500  16.337  21.705  13.365
64241W        W29501   3.549  37.568   4.400
64242W        W29502   8.317  21.016   2.255
64243W        W29503  22.265  17.348   0.499
64244W        W29504  37.928  22.937  14.886
64245W        W29505   3.980  14.227  12.893
64246W        W29506  17.162   7.378  12.805
64247W        W29507  36.240   7.376   1.935
64248W        W29508  24.044  27.477   1.343
64249W        W29509  42.356  29.011   0.677
64250W        W29510  14.270  15.733  11.016
64251W        W29511   4.862  15.497   2.799
64252W        W29512   9.678  35.937  12.331
64253W        W29513  33.225  33.501  10.233
64254W        W29514  18.355  36.659  13.416
64255W        W29515   2.952  18.669  11.069
64256W        W29516  27.875  17.587  10.721
64257W        W29517  17.777  23.005   2.696
64258W        W29518  43.347  11.860   0.644
64259W        W29519  35.158  16.740   0.331
64260W        W29520   8.519  15.230  14.743
64261W        W29521  33.870  34.803   2.776
64262W        W29522  15.722  11.323  13.598
64263W        W29523  34.149  24.054   1.348
64264W        W29524  22.152   1.464  11.818
64265W        W29525  33.514  34.496   0.084
64266W        W29526  20.336  24.864   4.772
64267W        W29527   8.713  42.290  14.905
64268W        W29528  19.013  44.992   2.332
64269W        W29529  20.052   1.412   4.483
64270W        W29530   4.624  23.100   2.729
64271W        W29531  22.813  17.657   1.426
64272W        W29532  16.846  16.765  14.264
64273W        W29533   9.294  12.016  12.907
64274W        W29534  17.089  22.532   2.760
64275W        W29535  41.548  43.263  14.373
64276W        W29536   4.566  23.207  13.326
64277W        W29537   4.982  35.587  12.060
64278W        W29538  43.981   4.562   3.608
64279W        W29539  17.629  26.564  11.874
64280W        W29540  25.990  20.558  11.236
64281W        W29541  23.269   5.238  11.917
64282W        W29542  26.076  37.737  11.459
64283W        W29543  14.185  37.819   3.739
64284W        W29544  34.526  18.378  11.991
64285W        W29545   7.407  26.948   1.286
64286W        W29546   1.766   6.112   1.265
64287W        W29547  39.666  32.884   4.322
64288W        W29548  22.510  19.350   3.274
64289W        W29549  44.254   4.214   0.925
64290W        W29550  16.347   2.208  11.242
64291W        W29551   2.228   2.451   4.413
64292W        W29552  36.580  27.323  10.042
64293W        W29553  44.725  20.961  13.035
64294W        W29554   9.835  11.056  10.699
64295W        W29555   4.697  28.505  11.616
64296W        W29556  18.930  33.924   4.151
64297W        W29557  25.773  40.336  13.400
64298W        W29558   9.643   1.631   1.363
64299W        W29559   5.283  14.024  10.573
64300W        W29560  35.311  19.087  14.343
64301W        W29561  14.202  17.548   3.894
64302W        W29562   4.475  11.908  11.126
64303W        W29563  26.148  30.790   3.355
64304W        W29564  13.171  41.850   2.801
64305W        W29565  19.045  22.167   2.634
64306W        W29566  15.415   3.582   1.389
64307W        W29567  18.181  18.984  11.989
64308W        W29568  10.759   9.200   1.327
64309W        W29569  10.117  41.398  14.037
64310W        W29570   6.211   6.327  12.910
64311W        W29571  36.293  21.000  14.866
64312W        W29572   5.768   4.877   3.808
64313W        W29573  27.613  24.140  13.044
64314W        W29574  13.239  11.661  14.517
64315W        W29575  31.980  33.593   3.806
64316W        W29576   6.156   5.419  14.456
64317W        W29577   3.759  35.379  10.712
64318W        W29578  32.673  43.775  14.413
64319W        W29579  13.143  42.389  14.416
64320W        W29580  38.188  42.527  14.266
64321W        W29581  12.568  27.467  10.676
64322W        W29582  35.014  10.990  12.457
64323W        W29583  32.296  43.224  13.497
64324W        W29584  26.887   5.361  13.931
64325W        W29585  11.911   5.942   3.169
64326W        W29586   7.936  37.299  11.500
64327W        W29587  34.484   5.660  12.930
64328W        W29588  25.029  34.923  13.866
64329W        W29589  38.689  43.251  13.362
64330W        W29590  26.249  15.715  13.986
64331W        W29591  32.853  37.388   0.785
64332W        W29592   3.393   7.227  13.429
64333W        W29593  42.210  23.158   1.278
64334W        W29594  12.803  41.385  12.542
64335W        W29595  20.575  12.000  11.020
64336W        W29596  25.339  26.131   2.769
64337W        W29597  33.512  42.386   0.366
64338W        W29598   5.853  32.922  14.305
64339W        W29599  26.973  19.261  11.648
64340W        W29600  24.911  39.771  12.429
64341W        W29601   3.191  23.515  10.869
64342W        W29602  35.052  41.605  10.776
64343W        W29603  21.177   5.828  12.867
64344W        W29604  40.009  24.178   1.695
64345W        W29605  43.211  18.791   1.024
64346W        W29606  29.297  24.737   4.587
64347W        W29607  31.491  34.019  11.819
64348W        W29608  41.352  26.469   1.328
64349W        W29609   2.358  11.258   2.241
64350W        W29610  28.637  13.073  11.182
64351W        W29611   6.483  36.040   4.586
64352W        W29612   5.385  27.695  13.752
64353W        W29613   8.506  24.554  14.056
64354W        W29614  10.201  23.280   3.540
64355W        W29615  22.673  20.770   0.484
64356W        W29616   9.123   7.827   3.187
64357W        W29617  40.673  11.042   5.402
64358W        W29618  31.938  22.466   4.128
64359W        W29619  35.674  15.337   4.288
64360W        W29620   5.372  35.921  11.924
64361W        W29621  26.110   2.992   2.824
64362W        W29622  26.643  36.549  13.507
64363W        W29623  23.458  37.879   0.334
64364W        W29624  17.624  33.533  13.837
64365W        W29625   0.673  30.731  11.677
64366W        W29626  16.536  22.618  13.838
64367W        W29627  31.029  33.525  13.478
64368W        W29628  39.911  10.345  13.996
64369W        W29629   3.793   7.408  10.763
64370W        W29630   4.836  19.818  12.986
64371W        W29631  34.402  16.208   2.478
64372W        W29632  34.601  29.513   0.452
64373W        W29633  42.876  23.688  13.578
64374W        W29634  43.348  20.273  11.155
64375W        W29635  28.254  23.292  10.778
64376W        W29636  13.153  28.208   0.100
64377W        W29637  23.047  38.634  14.341
64378W        W29638  39.051  20.537   0.638
64379W        W29639  41.825  14.463   4.559
64380W        W29640  23.563  14.050   4.070
64381W        W29641  12.812  11.914  14.327
64382W        W29642  32.752   8.789   0.844
64383W        W29643  24.778  26.989   2.191
64384W        W29644   0.701  29.134   4.884
64385W        W29645  12.074  42.574  12.387
64386W        W29646   0.486  23.531   2.294
64387W        W29647  43.740  26.209   2.673
64388W        W29648  37.380  44.028   2.274
64389W        W29649  16.401  10.601  13.942
64390W        W29650  40.107  19.994   1.620
64391W        W29651   0.370   1.670   0.873
64392W        W29652  10.269  41.483  10.324
64393W        W29653  26.167  37.189   4.026
64394W        W29654  35.003  19.020  12.026
64395W        W29655  38.078  28.547   3.173
64396W        W29656  40.106  41.748  12.463
64397W        W29657  12.831   7.341  12.896
64398W        W29658  17.099   8.493   2.935
64399W        W29659  15.227  34.467  14.345
64400W        W29660  28.860  17.585  14.494
64401W        W29661  30.385  23.145  11.431
64402W        W29662  27.109  10.481  10.737
64403W        W29663  21.059  42.312   1.432
64404W        W29664   5.127  23.321  14.857
64405W        W29665  10.897  29.732  12.493
64406W        W29666  13.664  29.286   3.624
64407W        W29667  18.702  33.631   0.027
64408W        W29668   7.161  43.933  13.747
64409W        W29669  42.358  14.534   4.242
64410W        W29670  43.531  17.587   4.514
64411W        W29671  44.047  12.130  12.869
64412W        W29672  17.081  19.265  12.109
64413W        W29673  23.963  34.642   2.245
64414W        W29674   1.676   3.954   0.751
64415W        W29675   7.246   4.009  11.813
64416W        W29676  44.418  36.630  13.020
64417W        W29677  33.595  31.402   0.735
64418W        W29678  40.899  16.705   4.230
64419W        W29679  24.380  34.636   3.557
64420W        W29680  29.348  30.689  11.672
64421W        W29681  13.082  21.233  14.505
64422W        W29682  37.039  10.346   3.733
64423W        W29683   6.978  10.619   3.271
64424W        W29684  32.646   4.376   4.489
64425W        W29685  15.000  35.748  11.608
64426W        W29686  41.469  17.613   0.312
64427W        W29687  29.740   3.470   0.786
64428W        W29688  26.033  43.506   3.636
64429W        W29689  37.375   4.720   3.659
64430W        W29690   4.254   1.230  12.876
64431W        W29691  24.764  30.635   3.697
64432W        W29692   0.726   4.313   2.787
64433W        W29693   4.144  43.473  12.720
64434W        W29694  34.050  11.907   2.923
64435W        W29695   9.589   6.263  12.219
64436W        W29696  25.496   2.377  11.253
64437W        W29697  40.820  16.404   1.185
64438W        W29698  12.328  44.726   0.981
64439W        W29699  21.668  41.400  13.082
64440W        W29700  32.460  21.295   4.134
64441W        W29701   0.218  42.138   4.450
64442W        W29702  18.054  14.272   4.352
64443W        W29703   3.391  16.093   3.832
64444W        W29704  43.207  43.988  14.275
64445W        W29705   1.279  40.045   3.245
64446W        W29706  26.990  36.347  11.057
64447W        W29707  34.572  39.441   4.755
64448W        W29708  27.615  30.517  14.375
64449W        W29709  13.760  22.077   0.264
64450W        W29710  26.278  36.837   5.001
64451W        W29711   9.285  34.915   0.021
64452W        W29712  36.114  19.070  13.938
64453W        W29713  15.244  13.657   0.065
64454W        W29714   4.670   5.432  10.948
64455W        W29715   4.536  42.378   2.675
64456W        W29716  42.289   5.137   1.403
64457W        W29717  31.555   3.510   0.741
64458W        W29718  30.136  31.577   2.520
64459W        W29719   5.202  13.518   1.588
64460W        W29720  25.249  44.925   3.845
64461W        W29721   3.937   6.468  13.294
64462W        W29722  30.220  34.334  12.849
64463W        W29723   8.051   0.412  13.400
64464W        W29724  22.237  40.323  14.611
64465W        W29725  41.052  20.860  12.242
64466W        W29726  24.474  41.964   4.841
64467W        W29727  10.469   1.048  12.024
64468W        W29728  20.403  38.093  11.823
64469W        W29729  42.966   9.204  14.013
64470W        W29730  42.746  32.384  10.986
64471W        W29731  15.360  29.043   2.296
64472W        W29732  15.139  31.875   0.856
64473W        W29733  29.749  42.544   4.137
64474W        W29734  22.187   4.020  13.486
64475W        W29735   1.391  28.236  11.521
64476W        W29736  42.869  19.734   4.758
64477W        W29737   3.410  15.025   2.617
64478W        W29738  11.325  32.965  12.109
64479W        W29739  37.826  21.179   2.340
64480W        W29740  22.710  15.824  11.743
64481W        W29741  26.581  29.205  14.836
64482W        W29742  12.500  14.034  12.937
64483W        W29743  26.969  41.588   3.662
64484W        W29744  12.854  23.104  12.797
64485W        W29745  12.647  31.225   2.275
64486W        W29746  32.313  41.308  11.498
64487W        W29747  22.033  17.505   4.988
64488W        W29748  29.633  16.203   3.766
64489W        W29749   1.528   8.190  11.195
64490W        W29750  43.488   7.647  14.726
64491W        W29751  21.479   0.853  11.068
64492W        W29752   2.920   6.051  12.657
64493W        W29753  20.463  20.722  14.137
64494W        W29754  10.295  15.575  14.395
64495W        W29755  28.050   3.398   0.285
64496W        W29756  26.618  21.798  14.834
64497W        W29757   1.012  33.968   0.455
64498W        W29758  42.361  44.116  12.098
64499W        W29759  22.511  31.727  12.105
64500W        W29760  30.936  23.818   2.865
64501W        W29761  44.979  35.641   0.287
64502W        W29762  19.770  16.200  14.938
64503W        W29763  33.569  22.924   3.620
64504W        W29764  20.800  36.250  12.137
64505W        W29765   3.473  33.064   3.591
64506W        W29766  34.505  42.211   0.046
64507W        W29767  43.320  40.041   2.098
64508W        W29768  12.353  33.037  12.202
64509W        W29769  37.446   3.285   0.766
64510W        W29770   7.274  35.552   2.112
64511W        W29771  14.852  14.310  13.823
64512W        W29772  14.424  11.721  14.009
64513W        W29773  20.849  15.448  11.913
64514W        W29774  20.145  13.628   4.682
64515W        W29775  38.397   8.857  11.701
64516W        W29776  16.301  29.274   1.632
64517W        W29777  20.923  14.734  11.303
64518W        W29778  14.702  35.815   4.248
64519W        W29779   6.678   7.417   4.261
64520W        W29780   7.681  42.975  14.174
64521W        W29781  19.720  39.059   4.293
64522W        W29782  22.568  25.957  14.416
64523W        W29783  12.298  24.700   3.608
64524W        W29784  30.948   8.144   4.590
64525W        W29785  25.432   1.425   0.335
64526W        W29786   8.635  26.743  13.431
64527W        W29787  23.236  41.080  14.108
64528W        W29788  35.753  20.824  10.886
64529W        W29789   0.348  24.713   0.799
64530W        W29790   6.292  19.821   2.737
64531W        W29791  43.356   3.998  11.110
64532W        W29792   8.182  30.382  13.813
64533W        W29793  12.609  17.570  12.522
64534W        W29794  18.046  33.138   2.723
64535W        W29795  20.705  10.632   1.795
64536W        W29796   2.260  36.416  10.583
64537W        W29797  31.771  39.364  14.955
64538W        W29798  17.379  17.187   2.319
64539W        W29799  40.908  23.837   3.888
64540W        W29800  42.374  11.861   0.876
64541W        W29801   2.503  21.050   4.182
64542W        W29802  16.677   7.603   0.778
64543W        W29803  24.508  44.675  10.619
64544W        W29804  43.200   8.720  11.090
64545W        W29805   3.867   2.863   0.771
64546W        W29806  32.405  37.007  13.080
64547W        W29807  20.844  15.782  10.614
64548W        W29808   1.317  44.229  14.429
64549W        W29809   5.239   2.089   0.461
64550W        W29810  42.145  39.244  14.292
64551W        W29811  11.858   0.049  13.710
64552W        W29812  31.034  30.085   3.659
64553W        W29813   9.942  35.655   0.354
64554W        W29814  37.462   4.263   3.249
64555W        W29815  36.852   6.901  13.685
64556W        W29816  33.600   2.380  12.109
64557W        W29817  34.505   6.031   1.453
64558W        W29818  27.428  11.111   3.644
64559W        W29819  41.269  15.110   2.107
64560W        W29820  11.808  42.484  11.146
64561W        W29821  24.187  33.883  14.824
64562W        W29822  11.265   5.843   4.537
64563W        W29823  32.480  29.477   4.491
64564W        W29824  17.073  15.583  10.668
64565W        W29825  43.585   5.929   4.102
64566W        W29826  43.126   1.034   1.655
64567W        W29827  16.695   7.088   0.778
64568W        W29828  11.422  17.627   0.336
64569W        W29829  25.553  19.034  11.540
64570W        W29830  33.444  36.506  10.030
64571W        W29831   3.990   4.803   0.836
64572W        W29832  42.546  15.025   0.172
64573W        W29833   7.204  28.496   0.191
64574W        W29834  44.026  33.321  12.781
64575W        W29835  28.290   1.515   1.701
64576W        W29836  12.367  39.929  11.897
64577W        W29837  14.148   5.735  12.655
64578W        W29838  17.648  34.194  11.048
64579W        W29839  36.413  20.119   1.234
64580W        W29840  37.071  30.252  13.478
64581W        W29841  19.752  19.457  11.057
64582W        W29842  38.291   4.180   2.739
64583W        W29843  23.277  38.968   1.122
64584W        W29844  38.208   8.315   4.968
64585W        W29845  12.428  35.984   2.392
64586W        W29846  11.380  41.545   4.173
64587W        W29847  22.315  24.619  11.984
64588W        W29848  44.665  24.596  10.724
64589W        W29849   3.803   5.867   3.362
64590W        W29850  20.128  20.515  13.357
64591W        W29851   5.578  28.886   5.791
64592W        W29852  19.659  31.923   4.575
64593W        W29853   7.294   4.539   2.240
64594W        W29854   1.467  25.030   3.223
64595W        W29855  28.940  14.948  14.769
64596W        W29856  28.210  29.745  13.906
64597W        W29857  41.900  20.685   4.690
64598W        W29858  18.799   2.632  13.798
64599W        W29859   1.240  32.858  11.811
64600W        W29860  10.650   3.298   2.757
64601W        W29861  28.462   8.572  10.804
64602W        W29862  41.035  19.216   0.771
64603W        W29863  39.911  15.923  12.502
64604W        W29864  32.345  39.877   3.546
64605W        W29865  10.205   1.457   1.909
64606W        W29866  41.206  17.569  10.531
64607W        W29867  18.139  18.257   4.159
64608W        W29868  41.422  21.216  11.341
64609W        W29869  44.688  33.835  11.189
64610W        W29870  41.545  40.956  10.609
64611W        W29871   4.008  23.464   3.757
64612W        W29872  20.226   1.938   4.502
64613W        W29873  34.442   5.849  14.747
64614W        W29874  27.369  32.236   2.160
64615W        W29875  12.865  27.213   4.416
64616W        W29876  27.941   1.409   0.389
64617W        W29877  42.043  39.373   0.009
64618W        W29878  26.894  39.964  10.872
64619W        W29879  43.484  40.222   4.593
64620W        W29880  18.000   7.343   4.595
64621W        W29881  25.511  44.288   3.361
64622W        W29882  31.996  37.434   1.650
64623W        W29883  35.003   6.453  10.772
64624W        W29884  26.388  26.628  12.081
64625W        W29885  36.515  26.866  10.286
64626W        W29886  24.721  13.644  11.933
64627W        W29887  40.825  21.528  12.991
64628W        W29888  19.593   6.891   2.322
64629W        W29889  35.544  34.074  13.784
64630W        W29890  13.618  11.958  13.405
64631W        W29891  27.492  42.504   1.165
64632W        W29892  22.647  24.539   1.242
64633W        W29893  24.014  36.166   0.713
64634W        W29894  26.289  19.230   2.260
64635W        W29895  28.946  34.454   4.962
64636W        W29896  15.245  42.888   0.987
64637W        W29897  36.942  39.846  11.302
64638W        W29898  27.461   6.007  13.378
64639W        W29899  32.172  22.714   3.733
64640W        W29900   9.549   4.313  11.572
64641W        W29901   7.882  42.847   2.726
64642W        W29902  44.576  18.109  11.201
64643W        W29903  25.074  33.019  13.485
64644W        W29904  31.631  12.281  11.515
64645W        W29905  18.403  33.526  10.633
64646W        W29906  21.171   3.485  11.192
64647W        W29907  31.713   5.258   4.141
64648W        W29908  32.159  14.154  14.839
64649W        W29909  38.378  44.776  12.033
64650W        W29910  34.182   3.518   4.661
64651W        W29911  38.988   6.433  11.277
64652W        W29912   2.745   3.097   3.015
64653W        W29913  17.887  44.906  13.392
64654W        W29914  41.465  19.550  12.365
64655W        W29915   9.860  30.952  10.775
64656W        W29916  34.012   7.363   3.658
64657W        W29917  15.318  16.818  10.772
64658W        W29918   1.823  12.270   0.761
64659W        W29919  13.724  30.411   2.370
64660W        W29920  23.049   4.734   3.438
64661W        W29921  44.062   4.589   1.714
64662W        W29922  25.621  31.429   3.022
64663W        W29923   6.870  37.813   3.209
64664W        W29924  16.669  28.402   3.618
64665W        W29925  26.530  28.204   0.710
64666W        W29926  42.530  24.514  13.410
64667W        W29927   4.720  40.224  12.243
64668W        W29928  33.904  15.189  10.619
64669W        W29929  18.158  34.515   0.795
64670W        W29930  18.136   6.313  14.245
64671W        W29931  23.992  12.664  13.799
64672W        W29932  32.325  27.982   4.762
64673W        W29933  41.443  32.605   3.879
64674W        W29934   2.571  44.401   5.138
64675W        W29935  19.762  35.111  12.061
64676W        W29936  11.834  12.797   1.690
64677W        W29937  15.747  39.752   0.286
64678W        W29938  39.090  19.260   3.872
64679W        W29939   8.578   0.873  14.731
64680W        W29940  41.717  37.347  12.044
64681W        W29941  37.620  41.372   1.252
64682W        W29942   1.202  26.051   0.853
64683W        W29943  15.669  44.293   0.005
64684W        W29944   6.766   0.645   0.339
64685W        W29945  28.925  42.528  12.211
64686W        W29946  35.899   9.232   3.602
64687W        W29947  20.728  24.530  13.123
64688W        W29948  44.770  10.468   5.127
64689W        W29949  31.908  31.334  13.338
64690W        W29950   8.065   9.596   3.297
64691W        W29951   9.277  11.411  10.473
64692W        W29952   9.944  39.238   4.357
64693W        W29953   4.802  31.436  14.030
64694W        W29954   5.604  42.054   2.792
64695W        W29955   8.904  28.246  13.870
64696W        W29956  27.497  21.642  12.449
64697W        W29957  41.652  25.721   4.467
64698W        W29958  23.653  17.118  11.214
64699W        W29959  35.933  32.458   0.273
64700W        W29960  26.586  12.158  13.342
64701W        W29961   9.946  36.854  13.825
64702W        W29962  11.619   9.229  10.234
64703W        W29963   9.585   7.406  13.284
64704W        W29964  16.301  32.340  12.382
64705W        W29965   9.359  23.023  12.523
64706W        W29966  26.046  35.529  11.592
64707W        W29967  10.865   8.125   1.288
64708W        W29968  31.083   8.351  11.089
64709W        W29969  11.696  38.072   4.573
64710W        W29970  30.928  41.910  12.882
64711W        W29971  44.496  37.881  13.459
64712W        W29972   9.164  23.201   0.223
64713W        W29973   4.859  21.263   0.010
64714W        W29974   2.185  23.679   0.731
64715W        W29975  28.924  21.748   4.267
64716W        W29976   0.665  34.684  11.999
64717W        W29977   1.142  28.588  13.555
64718W        W29978  13.525  15.921   4.934
64719W        W29979  21.627  35.669  13.672
64720W        W29980  13.274  24.535   1.248
64721W        W29981  20.414  28.134   0.553
64722W        W29982   3.213  37.816   0.729
64723W        W29983  15.395  27.005   3.234
64724W        W29984  11.347  40.877   4.676
64725W        W29985  33.162  10.437  12.366
64726W        W29986  17.252  25.120  14.062
64727W        W29987  26.516  14.551   1.848
64728W        W29988  27.507  33.139  12.477
64729W        W29989  15.549  31.543  11.017
64730W        W29990  41.810  38.436   3.301
64731W        W29991   9.183   6.396  14.019
64732W        W29992  14.554  18.381  13.420
64733W        W29993  21.527  30.425   1.767
64734W        W29994  42.297  44.319   3.161
64735W        W29995  33.807  36.987  14.444
64736W        W29996  28.623   4.855   1.958
64737W        W29997  22.196   1.865   4.557
64738W        W29998  22.303  12.655  14.619
64739W        W29999   5.963   8.743  13.389
64740W        W30000  27.573  30.641  10.756
64741W        W30001  19.646  13.414  10.555
64742W        W30002  34.922  33.897  12.445
64743W        W30003   5.363   7.864   4.783
64744W        W30004  22.056  27.197   3.181
64745W        W30005  15.565   8.675   0.346
64746W        W30006  28.626  42.735   2.735
64747W        W30007  19.944  32.534  12.913
64748W        W30008  43.991   2.440   4.562
64749W        W30009  18.321  31.494  12.690
64750W        W30010  37.356   8.322  14.390
64751W        W30011  41.383  22.173  10.707
64752W        W30012   8.055  27.833   4.491
64753W        W30013  15.901   8.566   4.532
64754W        W30014  34.046  27.539   0.907
64755W        W30015  13.784  18.507   2.719
64756W        W30016  18.218  41.559  11.834
64757W        W30017  12.351  33.656  14.622
64758W        W30018  44.749   3.908  10.638
64759W        W30019   1.834  39.997  11.505
64760W        W30020   5.401  29.529  11.851
64761W        W30021  44.900  18.876   0.761
64762W        W30022   7.185  25.191  14.940
64763W        W30023   0.094   3.812   3.286
64764W        W30024  28.942  23.431   1.429
64765W        W30025  21.771  10.959  14.547
64766W        W30026   3.722   0.506  12.593
64767W        W30027   3.215   4.476  11.991
64768W        W30028   4.003  10.130  12.647
64769W        W30029   5.277  28.703   1.367
64770W        W30030  33.963  17.006   1.704
64771W        W30031  40.531  35.441   0.338
64772W        W30032  24.845   8.348  13.558
64773W        W30033  23.793  30.933   5.138
64774W        W30034  19.522   2.284   3.144
64775W        W30035  40.097   5.786  14.401
64776W        W30036  39.880  36.085  10.619
64777W        W30037  26.087   8.350   1.744
64778W        W30038  44.449  27.571  12.770
64779W        W30039  37.248  28.616  12.977
64780W        W30040  28.497  29.677   4.049
64781W        W30041  36.541   2.008   3.106
64782W        W30042  15.506  15.716   1.748
64783W        W30043  40.552   2.409  10.193
64784W        W30044   9.928   1.382  12.917
64785W        W30045  32.009   4.404  10.964
64786W        W30046  35.000  30.962   1.838
64787W        W30047   9.343   5.189  12.443
64788W        W30048  40.466  24.656   0.374
64789W        W30049  14.601  35.334   2.991
64790W        W30050  38.479  13.031  10.589
64791W        W30051   9.345  20.767   0.913
64792W        W30052  18.406  12.088  14.722
64793W        W30053  26.149  13.697  12.480
64794W        W30054   8.484   2.933  12.957
64795W        W30055  21.592  27.723   3.590
64796W        W30056  31.290  37.996   2.696
64797W        W30057   9.115  33.879   0.581
64798W        W30058   4.687  31.691  11.063
64799W        W30059  39.421  27.455  13.461
64800W        W30060   5.686   7.965  13.843
64801W        W30061  26.549  15.319  11.568
64802W        W30062  25.230  16.709  14.130
64803W        W30063   2.365   0.362  10.342
64804W        W30064  43.293  40.547  12.521
64805W        W30065  40.733   8.275  12.303
64806W        W30066   7.850  17.129   2.649
64807W        W30067   9.580  35.030  10.964
64808W        W30068  32.033  22.613  11.074
64809W        W30069   3.012   1.181  12.319
64810W        W30070   6.158  24.149   3.710
64811W        W30071   5.734   8.747   3.622
64812W        W30072   0.008  12.816   2.308
64813W        W30073  14.899   5.422  12.455
64814W        W30074  38.925  11.266  10.717
64815W        W30075  23.106  33.331   3.858
64816W        W30076  19.692  19.201   0.599
64817W        W30077   1.450  20.717   2.522
64818W        W30078   7.401   2.417  11.670
64819W        W30079   6.879  13.303   0.617
64820W        W30080   0.859   5.199  10.684
64821W        W30081  17.817   2.006   4.553
64822W        W30082  28.113  10.202   0.320
64823W        W30083  13.521   8.614   3.626
64824W        W30084  18.564   1.974   1.424
64825W        W30085   6.850  41.874   2.316
64826W        W30086  44.864  41.759  13.396
64827W        W30087  20.271  14.475   3.673
64828W        W30088   8.628  14.759   3.873
64829W        W30089  35.072   0.786  14.014
64830W        W30090  13.491   0.226   1.272
64831W        W30091  38.173  29.894   0.165
64832W        W30092  13.187  16.234  12.597
64833W        W30093  22.167   0.042   4.187
64834W        W30094  44.271  44.951  13.775
64835W        W30095  33.678   1.352   3.385
64836W        W30096  37.867  40.902   4.601
64837W        W30097   4.377  21.055   0.157
64838W        W30098  23.611  13.904  14.106
64839W        W30099  32.355  25.887   2.066
64840W        W30100  15.538   5.744  11.813
64841W        W30101  30.003  16.441  10.772
64842W        W30102  30.405  37.513   2.424
64843W        W30103  42.503  23.470   0.995
64844W        W30104  27.639  34.409   4.021
64845W        W30105  42.215  19.165  12.113
64846W        W30106  12.391  35.569  11.704
64847W        W30107  29.829   3.366  13.434
64848W        W30108   7.841   6.362   2.646
64849W        W30109  43.259  13.677  12.982
64850W        W30110  29.347  21.047   4.489
64851W        W30111  19.884  21.803   1.810
64852W        W30112   4.744   2.789   3.440
64853W        W30113  20.306   0.806   2.644
64854W        W30114  20.212  17.804   3.007
64855W        W30115  42.914   2.953   0.536
64856W        W30116  23.331  20.227   3.501
64857W        W30117  22.118  33.449  12.067
64858W        W30118  10.801  36.490  14.323
64859W        W30119   1.225  20.483  11.828
64860W        W30120  13.124  18.606   1.921
64861W        W30121  17.872  21.694  11.742
64862W        W30122  36.871  12.726  11.022
64863W        W30123  44.440  12.075  13.638
64864W        W30124   0.974   9.720   0.424
64865W        W30125   3.297   7.009   3.843
64866W        W30126  11.338  18.234  11.561
64867W        W30127  27.580  42.560  14.102
64868W        W30128  22.280  22.843   0.316
64869W        W30129   4.199  33.738   0.111
64870W        W30130  33.157   4.913   2.729
64871W        W30131   8.158  25.155  13.884
64872W        W30132  31.618  13.392  11.958
64873W        W30133  44.016  17.993   1.366
64874W        W30134  21.454  26.408   1.148
64875W        W30135  28.898   1.420   3.165
64876W        W30136  34.994  25.998  10.100
64877W        W30137  44.903  33.414   1.772
64878W        W30138  31.196  17.347   1.409
64879W        W30139  21.324  38.891  11.504
64880W        W30140  29.290  23.165  11.912
64881W        W30141  41.113  10.806   1.496
64882W        W30142  33.286  11.140  12.987
64883W        W30143  20.968   3.176   4.601
64884W        W30144  30.963  25.357  11.746
64885W        W30145  43.838  43.965   0.706
64886W        W30146  37.333   3.866   2.621
64887W        W30147  29.958  12.743  12.987
64888W        W30148  31.192  34.536  13.772
64889W        W30149  44.505  42.612  10.828
64890W        W30150  44.045  31.911   1.768
64891W        W30151   6.348   6.945  13.432
64892W        W30152   1.945   0.952   0.923
64893W        W30153   4.938   0.957   1.697
64894W        W30154  40.826  27.404   1.392
64895W        W30155  17.072  15.347  13.049
64896W        W30156  34.743  15.236   0.989
64897W        W30157  13.301   4.286  13.357
64898W        W30158   4.612  26.800  14.936
64899W        W30159   7.744  19.075   1.294
64900W        W30160  16.684  42.024  12.497
64901W        W30161  36.314  11.335  13.387
64902W        W30162  29.038   6.694  11.624
64903W        W30163   2.757  22.776  13.505
64904W        W30164   1.446  14.845  13.841
64905W        W30165  41.537  40.444   3.262
64906W        W30166   3.299   5.917  12.140
64907W        W30167  44.015  26.523   4.246
64908W        W30168  14.343   9.263   4.521
64909W        W30169  36.348  26.913  14.411
64910W        W30170  34.057  26.678   0.557
64911W        W30171  33.541  11.671   3.686
64912W        W30172  31.940  27.444   3.984
64913W        W30173  39.967   3.681  10.669
64914W        W30174  12.864   6.918   0.778
64915W        W30175  25.051  26.647   1.865
64916W        W30176  15.327  21.104   3.831
64917W        W30177   1.451  10.675  11.462
64918W        W30178  33.867  27.143  13.927
64919W        W30179   0.943   2.393   1.371
64920W        W30180  32.949  13.633  12.150
64921W        W30181  11.813   1.965  13.353
64922W        W30182   3.723  24.117   2.121
64923W        W30183  14.860  22.944  10.705
64924W        W30184  20.218  10.905  14.869
64925W        W30185  32.115  14.374   4.247
64926W        W30186  43.489   7.147  13.955
64927W        W30187  10.063  35.011  13.409
64928W        W30188  31.208  43.032   2.621
64929W        W30189  26.423   3.784   2.361
64930W        W30190  21.784  28.414  12.027
64931W        W30191  22.141  20.705  12.816
64932W        W30192   1.548  15.348  13.502
64933W        W30193  14.393  29.944   2.189
64934W        W30194  29.618  44.222   1.595
64935W        W30195  29.825  19.184  11.489
64936W        W30196  41.480  33.535   2.771
64937W        W30197  20.840  10.342   0.878
64938W        W30198   4.197  38.492  10.685
64939W        W30199   6.579   1.537   3.354
64940W        W30200  42.849  35.291   4.124
64941W        W30201  32.631  42.197   1.463
64942W        W30202  29.848  20.595  12.583
64943W        W30203   1.472  10.476   1.741
64944W        W30204  23.204  17.761  11.178
64945W        W30205  19.993  34.135  13.540
64946W        W30206  10.695   4.944  11.165
64947W        W30207  31.126  18.713  13.339
64948W        W30208  35.564  29.435   2.427
64949W        W30209  34.044   1.728  11.985
64950W        W30210   3.413  11.743  12.560
64951W        W30211  34.036  11.574  13.530
64952W        W30212  43.163  12.308   3.508
64953W        W30213  26.611  27.876  14.330
64954W        W30214  35.659  29.956  13.134
64955W        W30215   7.899  31.117   4.057
64956W        W30216  20.955  23.483   2.522
64957W        W30217  20.581   1.028  13.856
64958W        W30218   8.551  29.906   2.613
64959W        W30219  11.353  29.623   2.440
64960W        W30220  41.012   3.357  14.492
64961W        W30221  13.718  14.010   0.816
64962W        W30222   3.716  42.816  14.308
64963W        W30223  41.135  32.008  13.945
64964W        W30224  24.290   5.471   1.349
64965W        W30225  25.053  17.802   1.142
64966W        W30226  20.571   4.334  11.521
64967W        W30227  32.095  32.173   2.456
64968W        W30228  27.470  12.368  13.895
64969W        W30229  24.104  12.334   1.013
64970W        W30230   1.693   7.386   3.264
64971W        W30231  26.059  30.796  12.659
64972W        W30232  36.478  17.062  11.443
64973W        W30233   4.027  34.920   3.230
64974W        W30234  13.131  27.990   1.110
64975W        W30235  44.415  34.410  12.178
64976W        W30236  18.638  34.059  12.009
64977W        W30237  41.319  39.081  12.572
64978W        W30238  32.023  26.124   3.788
64979W        W30239  28.823  13.835   0.818
64980W        W30240  29.096   0.174  12.959
64981W        W30241  32.138  21.089   0.766
64982W        W30242  41.604   9.691  10.756
64983W        W30243  23.255  16.102   4.012
64984W        W30244  19.777  16.496  12.901
64985W        W30245  32.506  17.629   4.199
64986W        W30246  34.814  34.623   3.646
64987W        W30247   1.811  32.616   0.254
64988W        W30248  15.880  41.978  13.336
64989W        W30249   0.497  31.841   0.928
64990W        W30250  21.536  37.608  12.680
64991W        W30251  28.167  28.913   0.827
64992W        W30252  14.294   7.259   2.642
64993W        W30253  12.572  44.862   2.896
64994W        W30254  37.934   9.940  12.066
64995W        W30255  10.824  24.152   3.026
64996W        W30256  16.268  25.562   2.906
64997W        W30257  44.202  18.640   2.105
64998W        W30258  30.933  14.218  10.846
64999W        W30259   4.002   5.423  11.615
65000W        W30260  37.754  36.099  10.681
65001W        W30261  10.947   0.437  12.885
65002W        W30262   7.692  29.991  13.351
65003W        W30263  36.463   3.894   3.307
65004W        W30264  44.801  32.583  11.012
65005W        W30265   2.213  19.317  14.843
65006W        W30266  40.524  42.047  12.513
65007W        W30267  17.678  37.904   3.454
65008W        W30268  44.013  13.956  10.294
65009W        W30269  27.539  30.715   3.138
65010W        W30270   8.341   8.149  11.996
65011W        W30271   1.291  30.065   2.684
65012W        W30272  27.975  15.302  11.853
65013W        W30273  38.059  17.705   3.968
65014W        W30274  41.427  42.225   0.213
65015W        W30275  20.060  28.227   1.368
65016W        W30276  37.077  41.519   3.622
65017W        W30277  11.182  38.597  12.563
65018W        W30278  44.451  16.302   3.747
65019W        W30279  33.227  19.114  10.791
65020W        W30280  16.799  42.229  11.991
65021W        W30281  15.560  23.763  12.016
65022W        W30282  36.364   7.393  13.111
65023W        W30283  17.636  17.612   3.228
65024W        W30284  43.108  15.029  11.105
65025W        W30285   9.931  40.825  10.664
65026W        W30286  15.619  18.401  12.861
65027W        W30287  18.531   1.470   2.735
65028W        W30288   0.294  36.428  13.617
65029W        W30289  12.554  14.623   1.148
65030W        W30290   5.604  31.287   3.696
65031W        W30291  17.021   3.540   2.635
65032W        W30292  36.705  42.501  11.025
65033W        W30293  12.405  25.422  11.724
65034W        W30294  31.549  22.055   2.726
65035W        W30295  16.830   8.916   2.713
65036W        W30296  23.003  26.687   1.598
65037W        W30297  19.193  33.785   2.775
65038W        W30298  40.207  39.359  12.957
65039W        W30299  15.364   4.417  11.135
65040W        W30300   8.677   3.272  11.182
65041W        W30301  24.603  14.023   1.130
65042W        W30302  38.770  25.109  11.536
65043W        W30303   5.820   1.984  14.785
65044W        W30304  28.887  15.299   4.657
65045W        W30305  21.585   5.339  14.441
65046W        W30306  40.844  22.043  11.533
65047W        W30307  27.726  30.347  12.581
65048W        W30308  33.002  31.572   3.725
65049W        W30309   3.252   7.757   1.738
65050W        W30310   8.810  34.510   1.930
65051W        W30311  22.571  16.145  13.048
65052W        W30312  17.990  39.991  12.043
65053W        W30313  11.576  44.364  13.444
65054W        W30314  19.748  13.728   2.440
65055W        W30315  37.577   4.637   4.158
65056W        W30316  21.195   1.731  11.470
65057W        W30317  19.869  34.336   2.395
65058W        W30318  20.913   3.836  11.605
65059W        W30319  32.391  30.716  14.972
65060W        W30320   0.549   1.843   3.150
65061W        W30321  22.429  35.844   3.262
65062W        W30322  19.532  43.835   2.383
65063W        W30323   6.794  16.882  13.628
65064W        W30324  10.228   1.302   1.157
65065W        W30325  23.181  36.397  14.991
65066W        W30326  36.943   9.237   4.179
65067W        W30327  30.769  11.848   4.628
65068W        W30328  40.899   0.282  14.360
65069W        W30329  44.917  33.111  10.627
65070W        W30330  33.253   8.179   4.036
65071W        W30331  37.864  31.833  12.470
65072W        W30332   8.459  27.611   0.978
65073W        W30333  32.971   5.819   0.921
65074W        W30334  12.147  33.476  12.335
65075W        W30335   0.308  36.817  13.973
65076W        W30336  30.264  13.728  12.273
65077W        W30337  17.041   4.440  14.852
65078W        W30338  32.203  27.528   3.553
65079W        W30339  37.393  17.306   3.732
65080W        W30340  37.822  11.961   1.884
65081W        W30341  44.876  40.367  14.513
65082W        W30342  42.844   2.843  13.485
65083W        W30343   9.089  35.336   4.944
65084W        W30344  30.874  12.669   3.672
65085W        W30345  25.695   1.699   0.707
65086W        W30346  20.106  28.413  12.513
65087W        W30347  24.433  16.737   2.773
65088W        W30348  28.751  37.532  12.749
65089W        W30349  17.498   5.679  14.358
65090W        W30350  31.603  29.995   3.731
65091W        W30351   5.695  22.485  11.968
65092W        W30352  40.473   1.779   0.331
65093W        W30353   9.252  24.071   2.413
65094W        W30354  16.589  29.510  10.580
65095W        W30355  17.095  10.635  11.081
65096W        W30356   6.844  24.008  11.684
65097W        W30357  25.162  35.337  13.142
65098W        W30358  26.561  43.377   0.670
65099W        W30359  26.879   7.854   2.706
65100W        W30360  22.779  14.871  14.097
65101W        W30361   8.306   2.792  13.947
65102W        W30362  41.019  10.799   0.984
65103W        W30363  18.075   1.846   1.241
65104W        W30364  10.376  31.896  11.571
65105W        W30365   4.912  15.630  11.176
65106W        W30366   7.617  32.230  11.646
65107W        W30367  25.032  40.875   0.765
65108W        W30368  44.809  36.308   4.298
65109W        W30369  22.963  42.763   0.301
65110W        W30370  33.006  35.218   4.690
65111W        W30371   9.859  26.484  14.999
65112W        W30372  33.760  25.577  12.513
65113W        W30373  44.164  42.482  11.678
65114W        W30374  28.037  10.734  14.572
65115W        W30375   1.855  25.036   5.077
65116W        W30376   6.772   1.037   2.936
65117W        W30377   5.219  27.001  14.292
65118W        W30378   1.030  37.796   3.060
65119W        W30379  14.881  15.775  14.532
65120W        W30380  19.295  34.137   4.505
65121W        W30381  32.474  33.511  11.239
65122W        W30382  12.970  12.139   0.391
65123W        W30383  33.580   1.418  11.385
65124W        W30384  31.462  19.941   0.017
65125W        W30385  29.767   0.588   4.054
65126W        W30386  24.593   0.566  10.878
65127W        W30387  37.178  36.008  10.749
65128W        W30388  18.174  31.669  11.665
65129W        W30389  32.039   3.935   4.491
65130W        W30390  16.510  41.335   3.853
65131W        W30391  28.244  11.733  12.110
65132W        W30392  26.477  40.690   3.477
65133W        W30393  27.686  31.578  12.633
65134W        W30394  39.738  30.440   1.235
65135W        W30395  24.396   0.830   4.864
65136W        W30396   7.384  38.490   4.237
65137W        W30397  37.423  41.341   3.259
65138W        W30398  10.105  17.938  13.081
65139W        W30399  26.284  35.441   9.829
65140W        W30400  30.053  10.842   4.496
65141W        W30401  18.018  36.194  12.147
65142W        W30402  15.836  20.120   1.936
65143W        W30403  25.588  44.936  14.332
65144W        W30404  37.957  15.293  10.576
65145W        W30405  24.716  37.303   2.931
65146W        W30406  26.521   1.862  14.333
65147W        W30407  24.656  32.784  11.504
65148W        W30408  17.642  26.915   3.112
65149W        W30409   6.646   1.984  11.662
65150W        W30410  22.582  40.430   4.584
65151W        W30411   5.925  43.957   0.947
65152W        W30412   6.552  24.064   0.916
65153W        W30413   6.447  25.931  13.735
65154W        W30414  27.028  17.970   0.380
65155W        W30415  19.900  38.237  12.955
65156W        W30416  25.807  31.212   0.237
65157W        W30417  28.504   5.370   4.297
65158W        W30418  34.019  42.412  12.649
65159W        W30419  22.621   3.414   5.083
65160W        W30420   0.420  24.885  13.446
65161W        W30421  41.903  36.188   1.697
65162W        W30422  35.923  16.620   4.917
65163W        W30423  38.486  23.023   0.882
65164W        W30424  44.952   9.804   0.451
65165W        W30425   7.355  36.451  12.655
65166W        W30426  14.715  29.645  10.635
65167W        W30427   8.660   2.036  13.982
65168W        W30428  22.831  35.328  10.755
65169W        W30429  31.103  44.754   1.753
65170W        W30430   7.099  10.826   1.001
65171W        W30431  13.156   5.787  14.994
65172W        W30432  34.654  26.259  10.374
65173W        W30433  20.228  17.149  14.625
65174W        W30434  16.297  10.887  14.355
65175W        W30435  19.367   4.489   2.452
65176W        W30436   2.400   7.135   2.347
65177W        W30437  20.345  24.122   3.189
65178W        W30438  20.204  20.906  14.611
65179W        W30439  32.640   8.320   2.661
65180W        W30440  36.174   3.327  14.339
65181W        W30441  11.109   2.363   2.734
65182W        W30442  10.263   0.502   4.091
65183W        W30443  17.963   6.254  10.675
65184W        W30444  18.566   4.511  12.063
65185W        W30445  34.312  23.613  14.351
65186W        W30446  22.643  44.821  13.945
65187W        W30447  39.651   7.052  14.900
65188W        W30448  10.805   2.822   1.728
65189W        W30449  36.172   4.909   4.972
65190W        W30450  39.815  12.885  10.750
65191W        W30451  34.998  40.278   2.356
65192W        W30452  26.501   2.462  13.923
65193W        W30453  28.521  30.522   0.889
65194W        W30454  26.057   0.559   3.295
65195W        W30455  18.130  33.884   3.007
65196W        W30456  37.114  14.726  14.521
65197W        W30457   8.693  42.391   0.760
65198W        W30458  20.390   9.218  14.784
65199W        W30459  43.044  29.558  10.464
65200W        W30460   7.600   7.942  14.075
65201W        W30461  35.946   7.977  10.700
65202W        W30462   6.961   3.331   2.757
65203W        W30463  24.978  33.236  13.000
65204W        W30464  15.169  15.158   2.622
65205W        W30465  35.747  21.482   4.180
65206W        W30466  12.301  23.732   1.777
65207W        W30467  29.052  34.482   1.603
65208W        W30468  43.465  22.775  12.446
65209W        W30469  27.926  29.063  13.099
65210W        W30470  21.714   3.854  13.372
65211W        W30471   6.311   4.291   4.112
65212W        W30472  37.478  11.402   3.187
65213W        W30473  26.611  31.135  14.463
65214W        W30474  36.426  15.970   1.427
65215W        W30475   1.753  38.999   1.695
65216W        W30476  43.528  13.270   0.329
65217W        W30477  15.702  14.812   4.517
65218W        W30478   5.680  31.437  14.221
65219W        W30479  27.430  24.174   3.713
65220W        W30480  14.362  13.164   0.923
65221W        W30481  42.695  24.619  10.438
65222W        W30482  38.931  21.727  14.124
65223W        W30483  29.499   3.772  11.006
65224W        W30484  20.156  39.314   2.656
65225W        W30485   6.421  41.093   4.575
65226W        W30486  21.819  22.800   2.818
65227W        W30487   1.644   4.157  12.902
65228W        W30488  12.365  11.026   3.299
65229W        W30489   6.985  12.855  11.576
65230W        W30490  16.661  27.157  12.492
65231W        W30491  41.398  27.232  10.712
65232W        W30492  40.452  18.822   0.090
65233W        W30493   9.323  14.136  14.075
65234W        W30494  24.241  42.790  11.964
65235W        W30495  40.474  15.727   2.731
65236W        W30496   1.733  42.988   4.392
65237W        W30497  31.609  43.030  11.671
65238W        W30498  28.009  22.921  13.061
65239W        W30499  24.173  34.120   0.739
65240W        W30500   7.543   5.859  11.646
65241W        W30501  32.998  39.358   0.548
65242W        W30502  16.752   8.409   1.208
65243W        W30503   6.258  15.333   1.837
65244W        W30504  35.132  10.338  13.928
65245W        W30505  18.156  12.181   3.315
65246W        W30506  41.338  40.446   0.042
65247W        W30507   5.343  19.363  14.378
65248W        W30508  40.820   0.907  12.095
65249W        W30509   9.156  24.198   1.924
65250W        W30510  29.178  31.550   1.263
65251W        W30511  33.384  37.018   4.599
65252W        W30512   6.136  42.037   2.760
65253W        W30513   9.516   0.330  13.625
65254W        W30514  22.137   0.134  14.808
65255W        W30515  35.521  18.293  13.961
65256W        W30516  15.078  30.333   2.796
65257W        W30517  20.609  20.159   3.086
65258W        W30518   0.469  29.822   2.691
65259W        W30519  21.564   0.298  11.959
65260W        W30520   4.892  16.274  10.742
65261W        W30521   7.893  10.577  14.757
65262W        W30522  31.485   7.460   0.355
65263W        W30523  44.943  22.855   3.481
65264W        W30524  37.094  25.154   0.728
65265W        W30525  23.974  29.201   0.761
65266W        W30526  12.881  44.762  11.564
65267W        W30527  26.572   4.693   0.746
65268W        W30528  43.530  26.670   2.777
65269W        W30529  12.940   7.905   2.466
65270W        W30530  17.292  34.504   4.544
65271W        W30531  19.390   5.985   3.565
65272W        W30532  17.523   7.957  11.460
65273W        W30533  15.776   4.940  14.798
65274W        W30534  20.142  22.686   3.925
65275W        W30535  13.094   1.270   1.872
65276W        W30536  35.954  26.591  10.851
65277W        W30537  31.185   8.167   2.304
65278W        W30538  15.408  37.495   0.810
65279W        W30539  40.369  34.889  13.884
65280W        W30540  40.065  12.756   3.180
65281W        W30541  42.591   0.439  11.463
65282W        W30542   1.744  17.327   4.647
65283W        W30543   3.932  32.773   1.393
65284W        W30544  20.043   2.152   4.068
65285W        W30545  26.982  13.207   0.861
65286W        W30546  42.538   0.396   0.298
65287W        W30547  43.653  11.006   4.162
65288W        W30548  34.276  26.692  14.716
65289W        W30549  28.880  29.932  13.238
65290W        W30550  22.827  20.026   0.834
65291W        W30551  18.738  35.080  12.115
65292W        W30552  13.851  41.637   3.989
65293W        W30553  13.780  33.496  13.901
65294W        W30554   8.706  14.091  12.421
65295W        W30555  41.531   5.635  13.353
65296W        W30556  33.356  11.926  11.195
65297W        W30557  41.139  24.543   2.046
65298W        W30558   9.879   3.061   2.181
65299W        W30559  33.132  41.312  11.696
65300W        W30560   2.452  23.299  10.783
65301W        W30561  12.583   2.571  10.481
65302W        W30562  36.159   9.437  12.375
65303W        W30563  30.520  16.031  12.840
65304W        W30564   3.789  25.959   2.086
65305W        W30565  20.519  40.588   0.907
65306W        W30566  27.986  30.087   1.440
65307W        W30567  43.949  37.310   2.963
65308W        W30568  18.451  25.228   0.883
65309W        W30569  15.296  36.167   1.892
65310W        W30570  16.970   3.795  13.849
65311W        W30571  22.287  27.173   4.189
65312W        W30572  37.047   3.523  14.879
65313W        W30573  28.682  25.432   3.600
65314W        W30574  20.122  26.269   1.021
65315W        W30575  32.075  29.740   4.777
65316W        W30576  10.673  31.452   1.344
65317W        W30577  37.748  24.744   2.745
65318W        W30578  37.899  11.259   2.154
65319W        W30579  17.103  28.164   1.441
65320W        W30580  39.354  40.566  13.369
65321W        W30581  44.923  29.432  14.816
65322W        W30582  23.267  32.661  13.984
65323W        W30583  24.145  37.825  12.112
65324W        W30584  32.758  16.245   4.693
65325W        W30585   1.027  11.247  10.247
65326W        W30586  31.711  11.156   0.370
65327W        W30587  15.818  32.398   2.378
65328W        W30588  24.898  31.063   2.618
65329W        W30589  28.575  42.483  10.648
65330W        W30590  32.237  20.435   4.888
65331W        W30591  40.666  16.650   0.763
65332W        W30592  12.603   4.840   4.541
65333W        W30593  21.037   2.009   3.924
65334W        W30594  28.210  44.750   3.678
65335W        W30595  18.260  17.332  10.758
65336W        W30596   4.250  36.841   3.156
65337W        W30597  14.152  22.678  14.973
65338W        W30598  32.432  40.975   1.049
65339W        W30599  29.025  36.974  11.596
65340W        W30600  39.077  10.076   0.709
65341W        W30601  37.038   7.399  11.140
65342W        W30602   2.150  28.274   1.282
65343W        W30603   2.616  44.019   2.868
65344W        W30604  18.190  13.682  12.075
65345W        W30605  19.646  33.137   2.635
65346W        W30606  42.845  25.019   1.464
65347W        W30607  27.956  16.782  10.472
65348W        W30608  20.242  37.864   0.548
65349W        W30609   0.970  38.499  14.052
65350W        W30610  38.378   4.600  14.359
65351W        W30611   7.806  37.405   0.377
65352W        W30612  23.410  26.144  12.119
65353W        W30613   4.997  25.715  12.914
65354W        W30614  35.615  24.645  10.725
65355W        W30615   0.891  39.439  13.105
65356W        W30616  35.053  16.020  13.865
65357W        W30617  18.360  31.545  14.858
65358W        W30618  27.744   5.900  10.806
65359W        W30619  12.366   5.866  11.968
65360W        W30620   3.038  19.742  11.094
65361W        W30621   3.155  28.165   1.372
65362W        W30622  35.449  10.914  12.717
65363W        W30623   6.685  36.052   1.940
65364W        W30624  17.854  27.944   1.783
65365W        W30625  42.053   2.933   0.050
65366W        W30626  41.588  31.667  11.939
65367W        W30627  19.184  30.629   3.131
65368W        W30628  26.708   2.634  10.523
65369W        W30629  12.821  18.111   1.919
65370W        W30630  14.050   3.522  10.491
65371W        W30631  34.865  22.972   3.827
65372W        W30632   9.851   4.749   0.442
65373W        W30633  24.635  13.925  12.860
65374W        W30634  27.526  19.585  10.982
65375W        W30635   2.664  19.313   0.771
65376W        W30636  32.624  13.820   4.452
65377W        W30637  11.631   1.034   4.596
65378W        W30638  44.076  37.621   3.728
65379W        W30639  40.779  17.814   3.222
65380W        W30640  40.565  34.448   3.662
65381W        W30641  35.219  26.787   9.939
65382W        W30642  36.512  18.318  10.964
65383W        W30643   9.250  19.680  14.919
65384W        W30644   5.785  16.611  11.093
65385W        W30645  32.495  13.838  12.976
65386W        W30646   0.548  37.274   1.222
65387W        W30647  36.127  16.669   1.406
65388W        W30648   3.230  29.908   0.323
65389W        W30649   3.153   5.867  14.328
65390W        W30650  37.351   2.839   3.781
65391W        W30651  21.430  10.612  14.377
65392W        W30652  33.211  17.204   0.148
65393W        W30653   3.972  41.549   2.732
65394W        W30654  37.187  41.488   2.240
65395W        W30655  32.642  29.541  14.421
65396W        W30656  22.712  23.857   0.440
65397W        W30657  41.426  41.212  11.135
65398W        W30658  18.087   9.427  13.045
65399W        W30659  12.868  10.407  12.602
65400W        W30660  32.737  21.852  11.939
65401W        W30661  23.180  10.382   1.350
65402W        W30662   2.287  36.439  13.035
65403W        W30663   4.009  22.078   3.990
65404W        W30664  35.640  20.257   2.732
65405W        W30665   7.255  15.749   0.407
65406W        W30666  42.881  37.371  12.543
65407W        W30667   9.274   5.162  11.539
65408W        W30668  29.072  36.379  14.434
65409W        W30669  20.746   3.168   4.085
65410W        W30670   9.900  24.000  14.890
65411W        W30671  15.710  28.470  11.154
65412W        W30672  39.252  34.456   2.116
65413W        W30673   1.851  15.259   0.428
65414W        W30674  44.999   2.304   1.211
65415W        W30675  10.599   7.500   3.021
65416W        W30676  23.552  17.080   1.677
65417W        W30677  44.978  43.938  10.448
65418W        W30678  15.508  19.095  12.204
65419W        W30679   4.089  26.654  14.939
65420W        W30680  28.681   2.736  14.427
65421W        W30681  35.606   5.018  11.648
65422W        W30682  30.685  30.138  14.835
65423W        W30683  34.005  19.676  12.367
65424W        W30684  27.664  28.558  13.682
65425W        W30685  18.545   5.251   2.151
65426W        W30686  10.321  11.718   2.541
65427W        W30687  41.918  17.888  11.434
65428W        W30688   9.092   0.843  14.732
65429W        W30689  22.284   6.827  14.204
65430W        W30690  38.056  38.978   2.712
65431W        W30691  22.260  28.487   3.914
65432W        W30692  40.754  32.026   2.922
65433W        W30693  21.590  29.936   1.873
65434W        W30694  11.389  10.405   3.230
65435W        W30695  31.910  26.146  14.977
65436W        W30696   1.890  21.569   1.342
65437W        W30697  34.899   2.938  14.304
65438W        W30698  25.155  39.924   0.993
65439W        W30699  19.229   1.019  11.154
65440W        W30700  16.096   0.262   4.538
65441W        W30701   6.317  14.790   0.932
65442W        W30702  24.243  15.796   4.132
65443W        W30703  29.583  31.459  13.033
65444W        W30704  11.764  29.345  12.570
65445W        W30705  18.799  23.743  14.073
65446W        W30706  23.131  13.755  12.994
65447W        W30707   9.483  32.489  11.941
65448W        W30708   6.727  23.020  10.612
65449W        W30709  32.905   0.617   5.651
65450W        W30710  17.698  44.078   4.535
65451W        W30711   5.168  39.977  14.548
65452W        W30712   7.650  33.203   4.071
65453W        W30713   2.741   3.363  10.602
65454W        W30714  22.587  16.684  11.281
65455W        W30715   9.712  40.690   2.765
65456W        W30716  23.427  39.953   3.720
65457W        W30717  31.860  23.927  14.856
65458W        W30718  30.478  16.785   1.898
65459W        W30719  14.953  14.659  11.656
65460W        W30720   6.335  18.117  12.067
65461W        W30721   8.886  16.154  14.293
65462W        W30722   0.488  39.738  14.359
65463W        W30723  31.400  13.782  13.375
65464W        W30724  15.669  17.626  10.678
65465W        W30725  11.515  44.678   3.545
65466W        W30726  29.082  24.477   3.497
65467W        W30727   9.817  22.622   3.357
65468W        W30728  26.377  40.314   1.361
65469W        W30729  21.992   1.733  14.015
65470W        W30730   3.327   9.386  12.029
65471W        W30731  19.568  42.432   1.915
65472W        W30732   6.940  33.389  11.149
65473W        W30733  44.747   0.722   0.773
65474W        W30734  40.336  44.551   1.082
65475W        W30735  33.093  15.273   0.880
65476W        W30736  29.377  17.733   3.298
65477W        W30737  26.055   2.256   2.397
65478W        W30738  15.850  40.915  11.594
65479W        W30739  25.640  37.813  14.725
65480W        W30740  35.061   9.950  11.125
65481W        W30741  30.664   7.921   3.641
65482W        W30742  25.576  32.490   3.160
65483W        W30743   7.687  21.415  11.501
65484W        W30744  23.222   9.280   0.525
65485W        W30745  21.029  24.961   4.025
65486W        W30746  41.935  24.274   1.162
65487W        W30747   5.959   7.833  11.234
65488W        W30748  40.835   8.587  14.850
65489W        W30749  18.113  29.942   3.251
65490W        W30750  37.359  19.595  14.394
65491W        W30751  42.906  11.989  13.989
65492W        W30752  37.361  20.045  10.561
65493W        W30753   6.262   4.691   3.732
65494W        W30754  26.546  32.059  14.008
65495W        W30755  13.242   7.314  12.532
65496W        W30756   7.683  35.667  13.029
65497W        W30757  18.142  37.923   3.682
65498W        W30758  31.446  28.520  12.515
65499W        W30759  28.682  21.091  13.554
65500W        W30760  43.790  44.427   4.247
65501W        W30761   9.373   9.153  12.859
65502W        W30762  31.144  14.303   2.933
65503W        W30763  22.749  22.063  12.551
65504W        W30764  43.835  25.017  13.923
65505W        W30765  39.422  36.948  12.716
65506W        W30766  11.736  42.534   2.726
65507W        W30767   6.303   3.504  12.029
65508W        W30768  20.727  21.004   0.793
65509W        W30769  26.164  21.851  10.706
65510W        W30770   0.700   9.488  14.874
65511W        W30771   3.043  16.705  14.067
65512W        W30772  14.745  28.930   3.029
65513W        W30773  27.106  15.540   1.979
65514W        W30774  30.737  20.201   4.082
65515W        W30775   3.752  36.450   0.255
65516W        W30776  37.739  28.076   9.921
65517W        W30777   8.733  14.716  12.580
65518W        W30778  28.991  43.783   0.057
65519W        W30779   5.449  23.988  11.074
65520W        W30780  27.983   5.271  14.274
65521W        W30781  30.152  37.938  14.319
65522W        W30782  34.110   1.131   3.622
65523W        W30783  12.347  21.041  13.593
65524W        W30784  34.864  34.489  12.790
65525W        W30785  22.505  37.903   2.836
65526W        W30786  41.245  23.575   3.573
65527W        W30787  14.503  31.711   1.544
65528W        W30788  39.202  19.305  13.270
65529W        W30789   6.393  21.103   4.478
65530W        W30790   5.395  41.933  14.886
65531W        W30791  24.979  30.567   0.729
65532W        W30792  39.932   5.298   1.313
65533W        W30793  41.919  18.755   4.039
65534W        W30794  42.852  23.004   2.353
65535W        W30795  13.357  13.216  13.519
65536W        W30796  35.358  40.930  13.297
65537W        W30797  34.621  28.049  10.144
65538W        W30798  23.535  16.728   0.740
65539W        W30799  42.079  23.806  12.237
65540W        W30800  18.195  19.675  11.521
65541W        W30801  18.781  43.539  11.636
65542W        W30802  41.992  17.174  13.372
65543W        W30803   7.603  37.383   4.755
65544W        W30804   5.867  32.175  12.878
65545W        W30805  11.097   5.528  11.850
65546W        W30806  30.816  27.708   4.055
65547W        W30807  25.161  44.209   1.301
65548W        W30808   3.235  42.402  12.344
65549W        W30809  35.910  17.202   1.646
65550W        W30810  18.534  26.112   0.968
65551W        W30811  18.815   2.409   1.636
65552W        W30812   9.747  13.803   4.910
65553W        W30813  11.369   2.171   0.595
65554W        W30814  30.538  22.531   4.174
65555W        W30815  42.889  38.383  10.651
65556W        W30816   7.374  11.318   1.822
65557W        W30817  24.921  37.532   4.445
65558W        W30818  17.788  13.338  12.069
65559W        W30819   5.891  30.966   1.833
65560W        W30820  43.331  18.353   4.926
65561W        W30821  35.053  37.229  12.895
65562W        W30822   4.433  14.487   3.661
65563W        W30823   9.082  14.071   4.770
65564W        W30824  44.488  43.949   0.287
65565W        W30825  16.118  43.529   3.750
65566W        W30826  11.893  18.079  10.703
65567W        W30827   6.149  31.138  13.400
65568W        W30828  41.379  31.364  14.393
65569W        W30829  10.890  42.462   4.124
65570W        W30830  37.034  29.521  12.902
65571W        W30831   8.250  22.273   3.837
65572W        W30832  12.790  27.000   2.074
65573W        W30833  21.824  11.143   0.586
65574W        W30834  20.037  26.169   4.095
65575W        W30835  25.751  15.222   2.617
65576W        W30836  26.761  31.623   4.211
65577W        W30837  44.121  12.309   3.653
65578W        W30838  12.810   7.196   0.245
65579W        W30839  33.113  37.840  12.826
65580W        W30840  35.222  19.685  11.275
65581W        W30841   7.195  22.142   4.125
65582W        W30842  33.285  17.069  14.297
65583W        W30843  26.104  42.849  13.453
65584W        W30844  40.985  42.133  14.961
65585W        W30845   8.107  18.703  13.011
65586W        W30846  20.161  22.497   0.365
65587W        W30847  33.116   3.109   0.175
65588W        W30848  16.354  21.213   2.656
65589W        W30849  38.972  25.664  14.749
65590W        W30850   9.066   5.891  12.361
65591W        W30851  25.169  14.049  11.530
65592W        W30852   9.336  22.036  14.418
65593W        W30853  44.320  25.282   4.478
65594W        W30854  27.445  43.482   0.310
65595W        W30855   0.792  40.840   3.594
65596W        W30856  22.319  43.990  14.332
65597W        W30857  31.548  14.219   0.721
65598W        W30858  33.892  16.292   2.373
65599W        W30859  15.811  43.746  11.121
65600W        W30860  43.853  42.814  10.594
65601W        W30861  35.769   5.305   0.977
65602W        W30862  37.892  28.566   1.166
65603W        W30863  18.150   7.826   0.600
65604W        W30864  18.731   9.228  10.659
65605W        W30865   3.026   6.128   4.111
65606W        W30866  10.597  34.002  14.210
65607W        W30867  40.932  34.427  11.642
65608W        W30868  19.945  11.677   0.975
65609W        W30869  17.371  16.593  12.504
65610W        W30870  44.515  29.332  13.253
65611W        W30871  19.854  13.509  13.014
65612W        W30872   4.885  19.613  12.107
65613W        W30873  19.309  44.113   2.761
65614W        W30874   7.253  13.033  11.959
65615W        W30875  23.250   6.880   3.086
65616W        W30876   3.343   1.360   3.022
65617W        W30877  13.342  42.499  11.054
65618W        W30878   6.228   6.282  12.078
65619W        W30879  33.936  21.397  10.710
65620W        W30880  34.378  42.799  13.804
65621W        W30881  15.270  12.431   3.814
65622W        W30882  12.832  18.787  11.974
65623W        W30883  23.162   5.273  12.415
65624W        W30884   2.831  28.168   0.029
65625W        W30885  16.809  10.123  12.984
65626W        W30886  27.998  10.188  13.019
65627W        W30887   3.070  14.116   4.191
65628W        W30888  18.261  29.539   1.129
65629W        W30889  37.852   5.167   1.594
65630W        W30890  23.805  30.113   1.513
65631W        W30891  27.214  39.056  11.228
65632W        W30892   7.445  33.248  11.149
65633W        W30893  40.846  41.378  12.078
65634W        W30894   2.249  37.932   1.784
65635W        W30895  14.402  31.302   4.183
65636W        W30896  31.381  26.962   1.881
65637W        W30897  28.474  16.267   1.761
65638W        W30898  28.311  43.411   1.816
65639W        W30899  27.072  28.087  14.357
65640W        W30900   9.388  35.765  14.260
65641W        W30901  32.695  27.816   1.297
65642W        W30902   5.256   8.720   4.546
65643W        W30903  39.123  19.051  14.944
65644W        W30904   9.256  18.367   2.753
65645W        W30905  17.359  26.521  11.144
65646W        W30906   9.400  32.075   4.943
65647W        W30907   7.829  17.322  14.226
65648W        W30908  16.757   6.973  11.948
65649W        W30909  26.264  42.243  14.408
65650W        W30910  25.178  42.052  12.989
65651W        W30911   9.724  32.851  12.204
65652W        W30912   6.286  44.546   9.830
65653W        W30913   9.279  27.731  12.633
65654W        W30914   9.785  16.738  14.789
65655W        W30915   1.807  13.537   4.476
65656W        W30916  18.502  12.104   9.840
65657W        W30917   7.207  25.586  14.044
65658W        W30918   4.226  17.764  11.229
65659W        W30919   6.853  24.463  14.831
65660W        W30920  27.791   3.241  13.923
65661W        W30921  27.639  28.532  14.520
65662W        W30922  40.048  43.354   4.256
65663W        W30923  21.335  36.527   0.073
65664W        W30924  12.709   4.159  11.158
65665W        W30925  25.806  11.712   4.220
65666W        W30926  22.907  23.772   2.315
65667W        W30927   6.648  11.346  11.630
65668W        W30928   9.742   3.850   4.269
65669W        W30929   3.795   3.236   0.255
65670W        W30930  12.453  41.677   3.609
65671W        W30931   2.880  20.937  13.918
65672W        W30932  23.522   9.175  14.976
65673W        W30933   4.317  33.967  11.975
65674W        W30934   1.386   3.255  14.898
65675W        W30935  26.070   0.902   0.491
65676W        W30936  23.261   2.943  12.488
65677W        W30937  14.851  30.771  12.043
65678W        W30938   8.387   9.662  10.932
65679W        W30939  36.982  44.300  12.214
65680W        W30940  37.674  24.626  10.556
65681W        W30941  10.825  43.729   3.666
65682W        W30942  31.867  31.912   2.864
65683W        W30943  25.806  33.985  13.066
65684W        W30944   0.238  36.030   3.317
65685W        W30945  27.975  13.142  14.318
65686W        W30946  44.463  19.740   4.021
65687W        W30947  23.916  43.624  11.157
65688W        W30948   8.621  14.875  13.053
65689W        W30949  35.380  11.264   4.440
65690W        W30950  34.357  12.177   2.273
65691W        W30951   3.425   7.309  12.535
65692W        W30952  21.798  35.462  14.112
65693W        W30953  15.654  16.943  13.098
65694W        W30954  16.008  30.666   4.771
65695W        W30955  22.027   3.626  12.163
65696W        W30956   4.696  11.352   2.357
65697W        W30957  10.069  14.469   2.868
65698W        W30958  33.209  44.307   0.451
65699W        W30959  35.778   4.389  11.088
65700W        W30960  44.571  29.150   0.066
65701W        W30961  10.855   1.469  10.736
65702W        W30962  28.533  15.621  13.084
65703W        W30963  12.673   0.011   0.292
65704W        W30964  21.144  27.633  12.145
65705W        W30965   0.259   2.790   0.194
65706W        W30966  18.769  12.171   1.231
65707W        W30967  18.060  36.683   2.229
65708W        W30968  36.149  32.377  11.582
65709W        W30969  15.718  33.025   3.255
65710W        W30970  18.784   4.364   1.819
65711W        W30971   1.278  18.797  13.960
65712W        W30972  39.589  11.827  14.867
65713W        W30973  24.147  23.104  13.057
65714W        W30974  11.212   5.349   5.431
65715W        W30975   7.237   5.122   0.947
65716W        W30976  41.306  31.901  14.426
65717W        W30977   5.371   4.404  13.727
65718W        W30978   5.798  42.027  11.007
65719W        W30979  18.423  23.443   1.415
65720W        W30980  34.374   0.730   0.227
65721W        W30981   5.408  34.640  12.665
65722W        W30982  20.790   2.296  14.929
65723W        W30983  38.631  33.118  11.136
65724W        W30984  26.434   0.565  12.603
65725W        W30985  31.072  37.449  11.125
65726W        W30986   4.289  43.463  11.748
65727W        W30987  19.476  28.613   3.896
65728W        W30988  15.826  43.021  11.479
65729W        W30989  25.681  42.691  10.810
65730W        W30990  37.419  28.979   4.501
65731W        W30991  16.632  14.512  12.484
65732W        W30992  35.601  25.630  14.846
65733W        W30993   5.366  35.571  13.248
65734W        W30994  17.215   0.013  13.721
65735W        W30995  30.390  44.042  11.495
65736W        W30996  19.218   9.085   1.884
65737W        W30997  36.810  27.466   4.852
65738W        W30998  15.717  37.946   2.179
65739W        W30999  27.608  14.290   0.383
65740W        W31000  13.835   6.356  11.912
65741W        W31001   9.788   7.572  12.416
65742W        W31002  31.018  34.892   2.123
65743W        W31003  37.384  18.322  11.054
65744W        W31004  38.934  30.876  14.352
65745W        W31005  36.656  36.495  12.534
65746W        W31006  11.413  29.142   3.248
65747W        W31007   6.483  40.532  10.904
65748W        W31008  22.947  16.084   3.526
65749W        W31009  15.679  32.413  12.854
65750W        W31010  20.466  39.250  14.888
65751W        W31011  26.255  10.586  12.867
65752W        W31012  39.381  11.269   2.917
65753W        W31013  19.301   4.853   1.368
65754W        W31014  17.033   3.136  14.487
65755W        W31015  43.506  21.588   0.997
65756W        W31016  40.024  16.547  10.872
65757W        W31017  31.556  23.446  11.955
65758W        W31018   7.607  11.646  12.091
65759W        W31019   3.845  41.594  12.112
65760W        W31020  41.506   0.432  14.538
65761W        W31021   5.637   8.145  14.964
65762W        W31022   2.504   9.961  11.386
65763W        W31023  12.862  13.792  10.721
65764W        W31024  26.771   7.560   4.509
65765W        W31025  42.648  18.142  11.629
65766W        W31026  31.530  27.489  11.554
65767W        W31027  43.876   8.276   2.897
65768W        W31028  16.085   9.645  11.948
65769W        W31029   6.127   1.342  12.038
65770W        W31030  22.961  21.960  13.015
65771W        W31031  32.687   6.897  12.943
65772W        W31032   4.313   0.392   3.638
65773W        W31033  27.872  39.390  14.028
65774W        W31034  17.909  33.071   0.963
65775W        W31035  22.761  36.683   2.191
65776W        W31036  23.724  39.385   2.304
65777W        W31037  30.416  29.974  14.411
65778W        W31038   9.425  36.456  13.538
65779W        W31039  34.965  26.247   3.704
65780W        W31040  30.229  37.290   4.073
65781W        W31041  16.784  22.708  11.208
65782W        W31042   3.884  13.592  10.891
65783W        W31043  29.359  32.435  13.526
65784W        W31044   3.998  39.415  13.903
65785W        W31045  44.843   5.766  11.538
65786W        W31046   3.481  12.825   3.190
65787W        W31047  36.497  43.477   0.900
65788W        W31048   7.511   4.343   0.724
65789W        W31049  11.867  10.273  10.648
65790W        W31050  31.458   9.460   4.671
65791W        W31051   9.342  19.487  10.816
65792W        W31052   6.848   1.603  13.511
65793W        W31053   4.186  43.483  13.856
65794W        W31054   2.039  37.714   4.141
65795W        W31055  28.180  39.538   2.716
65796W        W31056  25.697  17.122   4.183
65797W        W31057  34.787  13.773  11.951
65798W        W31058  20.780  27.020   0.369
65799W        W31059  40.363  25.811  10.161
65800W        W31060  44.485  27.979  11.325
65801W        W31061  31.733  38.800   1.147
65802W        W31062  32.008  21.071   4.033
65803W        W31063   7.705  26.392  11.782
65804W        W31064   6.496  10.457   3.116
65805W        W31065  27.030  12.943  11.510
65806W        W31066   9.257   1.373   2.712
65807W        W31067   2.875  39.468  11.208
65808W        W31068  16.751   4.937  11.361
65809W        W31069  30.131  22.769   1.669
65810W        W31070  23.124  11.532  14.370
65811W        W31071  38.115  34.000  12.970
65812W        W31072  38.933  38.547  10.285
65813W        W31073  39.667  19.691   1.460
65814W        W31074  15.611  10.602  14.879
65815W        W31075  18.626  42.862   3.809
65816W        W31076   7.885  32.965   1.432
65817W        W31077  27.992  30.451   0.285
65818W        W31078  30.209   7.175  10.872
65819W        W31079  40.374  18.056  10.168
65820W        W31080   9.106   2.015   2.084
65821W        W31081   7.766   8.400  14.304
65822W        W31082  31.158  16.229  11.111
65823W        W31083   2.746   2.477  14.321
65824W        W31084  27.036  14.565   1.902
65825W        W31085   9.708  10.899   4.583
65826W        W31086  13.614  10.084   2.735
65827W        W31087  16.283  14.040   4.717
65828W        W31088  10.831  26.780  14.873
65829W        W31089  32.900  38.512  12.084
65830W        W31090  17.771  31.154  14.326
65831W        W31091  10.597  27.142  12.066
65832W        W31092   6.836  43.567  11.153
65833W        W31093   7.818  38.746  12.031
65834W        W31094  22.768  23.597  14.933
65835W        W31095  15.040  35.841   2.211
65836W        W31096  32.934  19.028  12.947
65837W        W31097   4.675  27.455  13.006
65838W        W31098  32.556   2.006  13.040
65839W        W31099  44.981   9.676   3.583
65840W        W31100  21.727   7.914  13.114
65841W        W31101   3.216  30.605   4.133
65842W        W31102  16.826  43.742   1.357
65843W        W31103  23.383  35.324  14.367
65844W        W31104  15.184  44.319   3.408
65845W        W31105  24.471  39.981  12.601
65846W        W31106  29.632   2.247   0.197
65847W        W31107  29.211  31.441   2.629
65848W        W31108  18.507  21.806   4.550
65849W        W31109  17.170   6.209   0.637
65850W        W31110  27.858   7.099  12.132
65851W        W31111   4.517  36.642  14.052
65852W        W31112   8.868  19.075   4.545
65853W        W31113  39.992  33.697   3.821
65854W        W31114  14.584   4.199   2.159
65855W        W31115  35.046  28.588   4.047
65856W        W31116  25.984  42.351  13.439
65857W        W31117   9.013  25.562   3.629
65858W        W31118  36.074   1.816   3.196
65859W        W31119  17.631  21.411   1.770
65860W        W31120   6.292  15.030  12.561
65861W        W31121  35.971  12.285   2.243
65862W        W31122   4.473  26.923  12.865
65863W        W31123  34.953  15.014   0.558
65864W        W31124   9.380  43.345  12.910
65865W        W31125   3.470  14.083   1.203
65866W        W31126   3.472  42.010  10.784
65867W        W31127  17.711  42.007   2.835
65868W        W31128  34.986  43.940   3.132
65869W        W31129   2.981  24.012   2.597
65870W        W31130  42.998  19.600  10.768
65871W        W31131  10.241  33.476   1.921
65872W        W31132  44.879  22.509  14.319
65873W        W31133  28.171  39.335  11.532
65874W        W31134  21.076  32.461  13.915
65875W        W31135   1.481   1.252   3.361
65876W        W31136   6.555  43.046  14.642
65877W        W31137  21.605  18.080  10.646
65878W        W31138  16.728  35.582   0.257
65879W        W31139  16.129   5.977   1.658
65880W        W31140  42.078  14.607  13.408
65881W        W31141   2.178  34.201  12.688
65882W        W31142   6.240  18.553   3.612
65883W        W31143  37.546   5.220  13.924
65884W        W31144   7.366   7.330   2.758
65885W        W31145  31.081  34.869  12.127
65886W        W31146  42.503  10.428  14.879
65887W        W31147  17.475  30.401  12.111
65888W        W31148  36.010   4.175   3.293
65889W        W31149  15.571  27.917   4.513
65890W        W31150  27.097   7.871   0.766
65891W        W31151  41.345  34.375  11.229
65892W        W31152  31.538  35.356  11.572
65893W        W31153  11.393  26.637  13.020
65894W        W31154  15.937  42.453  10.671
65895W        W31155  40.098  14.942   3.719
65896W        W31156  10.746  38.977   3.872
65897W        W31157  38.460  33.991  13.369
65898W        W31158  18.603  18.099  14.401
65899W        W31159  44.223  43.542   3.800
65900W        W31160  17.998  26.116  11.162
65901W        W31161  20.996  14.302  12.506
65902W        W31162  21.453   9.724  14.492
65903W        W31163   1.848  33.512  11.618
65904W        W31164  41.399  11.870  12.087
65905W        W31165  33.488  38.079  11.075
65906W        W31166  32.508  21.061  11.562
65907W        W31167  19.357  24.693   1.281
65908W        W31168  27.281  16.802  12.729
65909W        W31169  37.187  14.530   0.411
65910W        W31170   1.746   3.461   3.762
65911W        W31171  35.310  22.778  12.495
65912W        W31172  27.069  38.305  14.882
65913W        W31173  40.619  29.146  14.468
65914W        W31174  13.897  36.636   0.307
65915W        W31175  27.542  27.535  13.985
65916W        W31176  18.802  25.042  14.884
65917W        W31177  24.635  13.118  11.968
65918W        W31178  31.066   4.742  14.832
65919W        W31179   2.337  25.266   2.148
65920W        W31180  20.740   0.355  10.669
65921W        W31181   7.666  40.231   3.744
65922W        W31182  25.317  12.315   5.061
65923W        W31183  42.118  30.067  11.100
65924W        W31184   6.981   5.898   2.217
65925W        W31185  30.082  18.798   0.030
65926W        W31186  15.667  26.907   2.736
65927W        W31187   3.690   8.003   1.668
65928W        W31188  14.784  39.303  12.534
65929W        W31189  19.345  31.804  11.994
65930W        W31190  18.198   3.241  12.962
65931W        W31191   1.940  35.547   0.042
65932W        W31192   2.930  24.498  10.371
65933W        W31193  38.608  41.515  13.335
65934W        W31194   4.328  35.485  13.251
65935W        W31195  29.527  27.423  11.777
65936W        W31196  30.211  28.317  13.816
65937W        W31197   1.964  17.209   3.109
65938W        W31198   4.441  19.837   3.312
65939W        W31199  19.158  29.445   2.540
65940W        W31200  16.587   1.750  11.999
65941W        W31201   1.711  19.938  12.558
65942W        W31202  44.518  35.423   3.196
65943W        W31203  41.075   0.698   4.964
65944W        W31204  43.304   4.416  13.928
65945W        W31205  37.305  13.124   1.549
65946W        W31206  15.045  32.630  11.191
65947W        W31207  12.445  28.346   0.704
65948W        W31208   6.285  17.338  12.425
65949W        W31209  13.687   7.202  13.333
65950W        W31210  42.821  34.170  13.022
65951W        W31211  15.138  10.846   3.681
65952W        W31212  35.877  19.341  10.801
65953W        W31213  32.103  16.643  13.478
65954W        W31214  21.967   4.684   1.403
65955W        W31215  32.809  43.873   3.142
65956W        W31216  12.824  33.369  13.556
65957W        W31217  33.945  33.555  12.082
65958W        W31218  23.617  42.024   3.598
65959W        W31219  18.594  21.470   2.883
65960W        W31220  14.723  34.133  13.560
65961W        W31221   4.510   3.050   2.855
65962W        W31222   6.984   5.694  10.764
65963W        W31223  15.751  23.477   1.229
65964W        W31224  11.167  40.326   3.873
65965W        W31225  44.027  12.771   2.161
65966W        W31226  19.028  18.553   2.772
65967W        W31227   7.938  13.206   1.747
65968W        W31228  39.290  18.693   1.294
65969W        W31229   6.198  28.246   1.393
65970W        W31230   5.315  22.163   4.459
65971W        W31231   3.935  17.369  12.464
65972W        W31232  39.591  27.105  13.800
65973W        W31233  24.926  41.807   0.540
65974W        W31234  27.735  18.887   4.209
65975W        W31235  44.720  10.816  11.931
65976W        W31236   7.786  30.966   4.522
65977W        W31237  28.590  29.761   1.841
65978W        W31238  15.301  28.063   3.257
65979W        W31239  42.952  29.940   3.172
65980W        W31240  29.991  16.048   2.265
65981W        W31241  11.851  26.293   4.384
65982W        W31242  19.858   4.683   5.441
65983W        W31243  24.126   9.348   3.489
65984W        W31244  12.674  14.368  12.483
65985W        W31245  36.356  27.974  10.606
65986W        W31246  16.848  26.922   1.260
65987W        W31247  20.743  10.326  12.899
65988W        W31248  11.358  12.544  13.497
65989W        W31249   9.765  31.688   3.264
65990W        W31250   4.801  44.276  11.911
65991W        W31251  30.445  35.814  11.650
65992W        W31252  36.327   8.858  14.038
65993W        W31253  17.299  31.744   4.029
65994W        W31254  20.105  26.905  14.615
65995W        W31255   9.104  26.181   1.859
65996W        W31256  41.913  21.487   4.218
65997W        W31257  15.845  26.827  11.497
65998W        W31258  11.575  29.743  13.413
65999W        W31259   7.351  28.633  13.605
66000W        W31260  28.903  22.014  10.788
66001W        W31261  40.867  44.467   2.819
66002W        W31262  40.872   2.362   1.871
66003W        W31263  40.954  16.529  12.069
66004W        W31264  15.119  27.747  11.974
66005W        W31265  23.517   5.210  13.937
66006W        W31266  44.553  24.782   3.305
66007W        W31267  26.168  33.330  10.728
66008W        W31268   8.737  31.332   3.325
66009W        W31269  31.878  27.265   0.774
66010W        W31270  30.347  27.230  10.443
66011W        W31271  15.755   5.755   0.210
66012W        W31272  44.227  32.432  10.830
66013W        W31273  16.685  40.599  11.000
66014W        W31274  19.513  26.178   2.731
66015W        W31275  14.897  19.238   1.756
66016W        W31276  28.885  14.222   1.403
66017W        W31277  39.795   7.025  11.623
66018W        W31278   2.197  42.972   4.147
66019W        W31279  10.284  36.250   4.122
66020W        W31280  32.124  41.462   2.045
66021W        W31281   9.664  29.210   0.174
66022W        W31282   8.059  14.324   0.881
66023W        W31283  43.952   9.653   2.513
66024W        W31284  35.024   9.253   2.545
66025W        W31285  10.670   6.945   0.370
66026W        W31286  19.300  26.254  11.480
66027W        W31287  24.383  42.964   0.578
66028W        W31288  16.840  36.492  11.661
66029W        W31289   1.816  44.264  14.529
66030W        W31290  37.059   6.694  11.322
66031W        W31291  40.438  42.508  14.563
66032W        W31292  44.969  25.019  14.364
66033W        W31293  12.673  32.668   0.374
66034W        W31294  37.025  39.850  12.321
66035W        W31295   8.386  35.060  11.692
66036W        W31296  20.145   9.316  14.341
66037W        W31297  14.985  35.971   3.335
66038W        W31298   1.286  16.158   0.427
66039W        W31299  11.094   3.743  13.502
66040W        W31300  31.315  15.404   3.954
66041W        W31301  30.991  23.111   4.550
66042W        W31302   2.008  23.734   4.531
66043W        W31303  30.699   5.201  13.383
66044W        W31304  11.549  22.514  12.058
66045W        W31305   1.650  29.177  13.360
66046W        W31306   3.816  31.201  14.502
66047W        W31307   2.341   9.170   2.189
66048W        W31308  10.882   5.358   1.815
66049W        W31309  44.352  38.469   2.849
66050W        W31310  24.582  32.529  10.985
66051W        W31311  30.583   5.722  13.251
66052W        W31312  17.231  11.318  12.594
66053W        W31313  26.051  23.902  14.551
66054W        W31314  15.679  28.700  14.855
66055W        W31315  19.968  34.250   1.338
66056W        W31316  31.859  37.002  14.535
66057W        W31317  16.506  28.212  13.900
66058W        W31318  30.090  41.598  11.241
66059W        W31319  19.580   4.163   3.286
66060W        W31320  23.415  27.325   4.129
66061W        W31321  26.274  37.397  14.034
66062W        W31322   4.784   9.744  13.200
66063W        W31323  37.434  15.720   1.684
66064W        W31324  15.992   2.406   3.259
66065W        W31325   7.224  29.689   5.068
66066W        W31326   2.347  35.904   1.242
66067W        W31327   2.364  20.521   4.046
66068W        W31328  35.608  37.833   3.514
66069W        W31329  36.219   6.159  14.490
66070W        W31330  42.877  27.839  13.517
66071W        W31331  37.603   5.174   4.271
66072W        W31332  38.806  35.486   0.777
66073W        W31333  19.228  39.451  14.281
66074W        W31334  15.969  15.388   2.283
66075W        W31335  17.842   4.861  14.064
66076W        W31336  11.442  29.459  12.993
66077W        W31337  26.239  29.599   1.534
66078W        W31338   6.546  20.185  12.871
66079W        W31339  34.006  10.449   3.721
66080W        W31340  20.037  42.212  12.100
66081W        W31341  31.316  42.967   1.332
66082W        W31342  43.374  23.793  12.382
66083W        W31343  16.586   5.777  10.851
66084W        W31344  15.603  27.386   1.672
66085W        W31345  25.070  32.613  12.093
66086W        W31346  15.745  26.178  14.764
66087W        W31347  23.015  44.291   1.330
66088W        W31348  14.283  17.166  12.516
66089W        W31349  43.936  30.858   1.854
66090W        W31350  14.923  40.895   2.490
66091W        W31351   7.964   8.844  12.331
66092W        W31352  10.669   7.770  12.584
66093W        W31353   4.777  21.091   0.513
66094W        W31354  44.972  28.348   0.392
66095W        W31355  27.586  37.786   2.008
66096W        W31356  40.782  13.156  13.944
66097W        W31357  34.795  43.971  11.797
66098W        W31358  14.198  12.358   4.426
66099W        W31359   2.945  30.832  11.471
66100W        W31360  28.262  35.187   4.621
66101W        W31361  44.798  32.926  11.495
66102W        W31362   7.928  42.840  12.674
66103W        W31363   0.160  28.107   4.212
66104W        W31364  31.019  36.919  11.219
66105W        W31365  27.458  15.760  14.324
66106W        W31366   7.304   3.626   4.544
66107W        W31367  34.451  19.877  10.444
66108W        W31368  38.076  19.755  13.898
66109W        W31369  12.053  13.787  13.061
66110W        W31370   6.622  12.668   3.555
66111W        W31371  30.890  18.111  10.753
66112W        W31372  18.105   2.795   2.290
66113W        W31373  14.291  41.104   0.940
66114W        W31374  28.091  11.325  10.324
66115W        W31375  27.950  11.593  12.500
66116W        W31376  16.907  37.334   3.820
66117W        W31377  23.843  15.700  14.062
66118W        W31378  20.758   1.603  11.150
66119W        W31379  23.734  39.767   1.272
66120W        W31380  27.152   8.793   0.721
66121W        W31381  11.378  27.223  12.496
66122W        W31382  40.308   2.995   2.408
66123W        W31383   9.758  27.994   1.186
66124W        W31384  28.548  28.549  11.206
66125W        W31385  37.985  34.402  11.543
66126W        W31386  21.639  17.810  10.220
66127W        W31387  20.573  20.636   3.757
66128W        W31388  38.612  27.127   3.319
66129W        W31389   4.388  44.408  14.054
66130W        W31390   9.892  40.311  13.554
66131W        W31391   5.141  31.795  12.352
66132W        W31392  33.898  20.978  11.582
66133W        W31393  26.467  33.616  11.077
66134W        W31394   1.493  14.185  12.402
66135W        W31395  29.099  29.127  13.883
66136W        W31396  17.196  21.167   1.993
66137W        W31397  38.571  42.010   2.648
66138W        W31398  37.450  41.472   1.763
66139W        W31399  11.072   8.951  10.703
66140W        W31400  34.820  32.828  14.430
66141W        W31401  30.871  10.339   2.399
66142W        W31402  13.357  24.823  13.361
66143W        W31403  23.435  39.012   0.627
66144W        W31404   0.848   0.297   3.291
66145W        W31405  35.582  25.290   4.328
66146W        W31406  44.509   2.289   1.346
66147W        W31407  10.053  42.961  11.106
66148W        W31408  35.324  20.199   1.892
66149W        W31409   4.748  28.222  13.331
66150W        W31410  28.934  44.886   0.972
66151W        W31411  37.507  44.322   0.827
66152W        W31412  27.888  13.635  11.654
66153W        W31413  44.101  32.505  12.530
66154W        W31414  11.767   1.369  12.533
66155W        W31415  22.778  28.050  12.496
66156W        W31416  19.855   3.038  11.493
66157W        W31417  38.177   3.919  13.852
66158W        W31418  32.365  30.916   4.075
66159W        W31419  37.931  15.601  13.862
66160W        W31420   0.187   8.117   4.282
66161W        W31421  34.884  24.102  10.371
66162W        W31422  42.365  19.711   4.624
66163W        W31423  32.969  14.719   3.903
66164W        W31424  42.898  42.360   4.168
66165W        W31425  10.663  41.255  11.247
66166W        W31426   4.536  18.080  11.626
66167W        W31427  27.605  34.059   3.617
66168W        W31428  26.795  18.168   2.092
66169W        W31429  44.489  29.808   2.108
66170W        W31430  15.584  39.872   4.437
66171W        W31431  11.380  25.450  11.397
66172W        W31432  10.187  14.610   0.439
66173W        W31433   7.893  23.598  10.366
66174W        W31434  28.660  37.201  14.491
66175W        W31435  39.029   5.210  12.337
66176W        W31436   1.846  14.272   2.165
66177W        W31437  11.278  25.736  12.912
66178W        W31438  15.768  36.334  14.490
66179W        W31439  19.289  28.523  14.514
66180W        W31440  27.979  33.151   0.397
66181W        W31441  19.634  41.277   2.404
66182W        W31442  19.684  12.625  13.672
66183W        W31443  24.459  13.729  10.986
66184W        W31444  32.123  31.671   1.685
66185W        W31445   0.383  26.224   3.107
66186W        W31446   5.336  22.441  10.245
66187W        W31447  33.003  18.015  13.082
66188W        W31448   2.457  37.899   2.805
66189W        W31449  12.379  10.141   0.358
66190W        W31450  36.420  10.930  14.341
66191W        W31451  25.313   9.193  10.650
66192W        W31452  32.201  27.993   1.343
66193W        W31453  38.868   5.363   1.839
66194W        W31454  39.032   4.156   2.250
66195W        W31455  17.234   7.490   3.251
66196W        W31456  22.520   0.812  12.514
66197W        W31457  33.069  19.214   4.634
66198W        W31458  30.736  35.499   0.369
66199W        W31459  22.706   3.073  11.147
66200W        W31460  22.083  13.981  11.552
66201W        W31461  23.572  39.082   0.131
66202W        W31462  43.122   7.515  13.907
66203W        W31463  17.174  18.616  11.545
66204W        W31464  23.573  19.845   2.293
66205W        W31465  10.824  42.290   0.824
66206W        W31466  14.786  43.438  14.893
66207W        W31467   0.369   7.651   3.866
66208W        W31468  29.369  14.629  14.917
66209W        W31469  35.805   8.773   4.849
66210W        W31470  11.537  13.306   4.975
66211W        W31471  20.740   4.152   3.524
66212W        W31472  40.567  34.381   4.753
66213W        W31473  11.356  23.927   2.728
66214W        W31474  18.709  39.321  13.474
66215W        W31475   7.370  13.923  12.761
66216W        W31476  25.010  16.938   4.022
66217W        W31477  31.531   1.964  11.069
66218W        W31478  19.220   8.277  12.027
66219W        W31479   5.661   9.346   2.352
66220W        W31480  39.075  33.619   1.978
66221W        W31481  36.170  11.661  14.934
66222W        W31482  36.151   7.392  14.032
66223W        W31483  28.548   7.628  12.576
66224W        W31484  20.050  17.213  13.424
66225W        W31485   7.823  17.570   1.178
66226W        W31486  16.717   9.971   2.821
66227W        W31487  11.309  16.308   4.556
66228W        W31488  23.746  21.158  12.458
66229W        W31489  22.239  16.880   2.277
66230W        W31490  40.243  26.508  11.108
66231W        W31491   4.940   8.397   2.357
66232W        W31492   4.132   5.330   0.475
66233W        W31493  25.596  34.155   2.472
66234W        W31494  27.940  24.112  12.042
66235W        W31495  29.433  21.468  10.652
66236W        W31496  42.063  15.739   4.188
66237W        W31497  28.445  28.165   1.345
66238W        W31498  39.784   6.984   1.672
66239W        W31499   0.916   8.841  12.856
66240W        W31500  15.590  30.839  14.436
66241W        W31501  21.302  24.264  13.752
66242W        W31502  26.488  44.945  14.719
66243W        W31503  44.580   3.232  12.041
66244W        W31504   4.595  15.961   0.774
66245W        W31505  18.996  36.535  12.097
66246W        W31506   3.846  24.591   4.780
66247W        W31507   6.888  33.719   0.463
66248W        W31508   4.526   1.807   3.719
66249W        W31509   6.619  33.300   1.291
66250W        W31510  17.971  13.231  13.907
66251W        W31511  40.841  25.805   0.226
66252W        W31512   6.035  43.651  13.536
66253W        W31513  14.009  37.519  10.948
66254W        W31514  24.822   4.922   2.241
66255W        W31515   1.388  11.349  12.300
66256W        W31516   3.649  23.652  11.487
66257W        W31517  15.424  16.326  13.407
66258W        W31518   1.103  10.950  14.282
66259W        W31519  10.858   8.230  14.882
66260W        W31520  10.885   1.345  14.959
66261W        W31521   7.215   8.892  11.579
66262W        W31522   9.750  42.428  12.211
66263W        W31523   5.764  10.344   0.564
66264W        W31524  13.042  22.660  14.428
66265W        W31525  23.972   6.703  11.557
66266W        W31526   5.213  10.810  10.923
66267W        W31527  24.381  16.683  11.584
66268W        W31528  24.194  33.421  10.711
66269W        W31529  15.614  28.290   3.710
66270W        W31530  23.262  39.498  12.969
66271W        W31531   7.378  25.981  14.788
66272W        W31532  13.561  40.278  13.046
66273W        W31533  10.317  19.317   2.767
66274W        W31534  22.153  12.148  11.536
66275W        W31535  22.619  32.579   4.446
66276W        W31536  43.932  12.926  12.209
66277W        W31537  34.039  30.128  14.768
66278W        W31538  43.353  24.789  13.851
66279W        W31539  30.361   6.822   3.318
66280W        W31540  38.569  34.869  11.997
66281W        W31541  23.593  14.693   2.618
66282W        W31542  30.591   7.291   3.293
66283W        W31543  20.233  28.904  10.702
66284W        W31544  32.384  43.703  11.999
66285W        W31545  43.743   1.478   3.469
66286W        W31546  44.503   2.258  12.016
66287W        W31547  39.036   8.289  13.666
66288W        W31548  13.149  36.077   4.220
66289W        W31549  31.619   7.266  11.080
66290W        W31550   8.768   5.957   4.200
66291W        W31551   3.882  33.368  11.484
66292W        W31552  14.352  27.736   2.671
66293W        W31553  43.149   2.887  11.931
66294W        W31554  43.500  16.027   3.725
66295W        W31555   2.955  22.753  11.321
66296W        W31556  20.670  35.635  12.945
66297W        W31557  37.555   0.261   0.693
66298W        W31558  13.581  32.101  10.306
66299W        W31559   8.435  42.855   1.960
66300W        W31560  39.055   4.665   2.423
66301W        W31561  42.008  24.517  14.289
66302W        W31562  36.115   8.325   4.073
66303W        W31563  19.733  19.611   0.264
66304W        W31564   7.873  10.664  10.621
66305W        W31565  25.481   6.676   1.473
66306W        W31566  31.396  11.776   3.656
66307W        W31567  30.993  16.663  14.870
66308W        W31568  22.340  26.976  11.012
66309W        W31569   8.256   3.742   1.150
66310W        W31570  41.578   0.814   2.398
66311W        W31571   8.688  27.273  13.505
66312W        W31572  41.813  35.166   1.311
66313W        W31573   3.827  11.637  14.806
66314W        W31574  11.330  43.005  10.565
66315W        W31575  26.479  14.834  10.802
66316W        W31576  31.590  26.386  14.656
66317W        W31577   5.217  31.947  10.658
66318W        W31578  37.879  31.677  13.410
66319W        W31579   2.453  38.082   4.136
66320W        W31580   0.915  37.598  14.883
66321W        W31581   1.745   4.331   2.845
66322W        W31582  33.618  24.526  12.952
66323W        W31583  17.248  38.341  11.097
66324W        W31584   2.844  31.252  12.967
66325W        W31585   5.470   5.772  10.598
66326W        W31586  15.055  10.871   4.462
66327W        W31587   0.218   4.924   4.729
66328W        W31588  37.046   8.400   4.098
66329W        W31589  29.130  11.787  13.314
66330W        W31590  41.888  40.340  12.673
66331W        W31591  17.764  21.142  13.200
66332W        W31592   3.727  21.655   0.026
66333W        W31593  33.977   5.142   3.624
66334W        W31594   8.659  26.217   1.218
66335W        W31595  15.749  37.532  12.453
66336W        W31596  19.371  14.326  12.165
66337W        W31597  42.333  10.620   3.677
66338W        W31598  43.453   6.674  14.158
66339W        W31599  20.162  35.392   4.630
66340W        W31600  10.546   0.559  14.521
66341W        W31601  43.710  18.676   3.540
66342W        W31602  19.185  17.502  11.169
66343W        W31603  33.578  23.053   0.349
66344W        W31604  26.744  41.298   5.165
66345W        W31605  36.103  40.179  10.989
66346W        W31606  32.329   3.863   0.437
66347W        W31607  14.784  19.048   1.223
66348W        W31608  11.611   0.266   0.360
66349W        W31609  37.109   1.487  13.010
66350W        W31610   1.926   8.888   2.239
66351W        W31611  34.834   0.794  10.654
66352W        W31612  21.705  25.739  10.745
66353W        W31613   6.482  18.274   0.813
66354W        W31614  18.162  39.567   1.790
66355W        W31615  42.567  30.461   1.899
66356W        W31616  23.355  40.948   3.447
66357W        W31617  34.442  13.644  14.389
66358W        W31618  13.643  20.433   1.930
66359W        W31619   9.933  27.457   4.937
66360W        W31620   4.794  13.843   2.002
66361W        W31621  21.096  35.128  14.729
66362W        W31622  10.233  31.655  14.373
66363W        W31623   5.658  14.221  11.094
66364W        W31624  29.442  15.022   4.156
66365W        W31625   0.103   6.710   0.840
66366W        W31626  36.552   9.143   1.460
66367W        W31627   7.778  28.737  12.912
66368W        W31628   9.423  20.186   2.323
66369W        W31629   6.655  13.379  14.828
66370W        W31630  10.495   4.942   5.082
66371W        W31631  34.817  23.117   0.878
66372W        W31632  32.586  19.879  14.777
66373W        W31633  34.182  43.351  14.383
66374W        W31634  33.448  10.633  10.805
66375W        W31635  27.709  23.026   4.231
66376W        W31636   2.275  28.137  10.578
66377W        W31637  28.710   5.372  11.469
66378W        W31638  29.371  26.053   3.395
66379W        W31639  42.849  39.238   3.472
66380W        W31640  32.356  37.438  12.775
66381W        W31641  38.565  35.572   3.710
66382W        W31642   5.571  39.316  13.095
66383W        W31643  44.990  42.985   3.331
66384W        W31644  12.842   0.249   0.722
66385W        W31645  15.286  26.380  14.065
66386W        W31646  41.529  26.501  13.382
66387W        W31647   7.725  27.386   2.306
66388W        W31648  15.598   3.462   0.906
66389W        W31649   7.387  33.958   0.977
66390W        W31650   6.127   1.720   4.140
66391W        W31651   9.559   8.376   5.085
66392W        W31652  41.965  26.134   4.234
66393W        W31653  34.902   4.917  12.849
66394W        W31654  29.107   9.882  13.030
66395W        W31655  27.527  28.460   2.766
66396W        W31656  21.193  31.969  13.741
66397W        W31657  24.010  36.136   0.208
66398W        W31658  14.233  29.359   3.392
66399W        W31659  40.053   1.791   2.313
66400W        W31660  13.022   8.440  11.322
66401W        W31661  15.610  26.659   4.017
66402W        W31662   5.750  16.074   3.476
66403W        W31663   3.950  35.879   3.287
66404W        W31664  44.352  17.161   0.311
66405W        W31665  41.287  20.398   3.626
66406W        W31666  12.667   8.621  13.435
66407W        W31667   6.126  22.141  14.358
66408W        W31668   5.131  29.255  11.206
66409W        W31669   6.550  14.111   4.408
66410W        W31670  36.437  38.782  12.365
66411W        W31671  36.015  22.458   4.199
66412W        W31672  18.607  39.143   2.783
66413W        W31673   3.845  14.760  11.177
66414W        W31674   2.702  39.940  11.929
66415W        W31675   5.489  17.957  14.900
66416W        W31676  12.921  32.674   3.228
66417W        W31677  36.033   7.347   2.554
66418W        W31678   7.284  10.509  14.630
66419W        W31679   7.191  26.924   1.753
66420W        W31680  42.525  21.594   2.921
66421W        W31681   4.358  11.740  14.837
66422W        W31682  32.581  25.750   4.204
66423W        W31683  16.216  22.156   2.550
66424W        W31684  11.587  14.302  14.751
66425W        W31685  12.734  23.815  13.967
66426W        W31686   1.211  26.977  13.173
66427W        W31687  19.939  24.973  10.845
66428W        W31688  26.170  43.878   0.444
66429W        W31689  20.199   3.868   4.465
66430W        W31690  10.266  35.312  11.149
66431W        W31691  21.275   7.504  11.641
66432W        W31692  15.794  22.593  12.484
66433W        W31693  12.635  31.253  11.916
66434W        W31694   3.122  17.492   3.101
66435W        W31695   7.263   2.844   4.155
66436W        W31696  24.063   4.022   1.798
66437W        W31697  16.190  28.462  11.355
66438W        W31698  15.053  16.300  11.078
66439W        W31699  33.500  41.832  10.550
66440W        W31700  25.197  16.502  12.137
66441W        W31701   4.246  11.713  10.701
66442W        W31702   9.634  19.055   3.865
66443W        W31703  39.887   0.732   1.717
66444W        W31704  10.394  10.066   2.312
66445W        W31705   7.668   7.377  13.343
66446W        W31706  27.116  27.973   0.933
66447W        W31707  10.781  22.706  10.736
66448W        W31708  18.642  22.999   1.187
66449W        W31709  13.712  13.654  13.810
66450W        W31710  23.255  28.928   2.580
66451W        W31711  12.370  37.864   1.448
66452W        W31712  30.053   7.931  14.417
66453W        W31713  19.478  31.500   0.924
66454W        W31714  30.589  33.933   3.637
66455W        W31715  10.863   6.463   3.185
66456W        W31716  15.502   9.508   2.005
66457W        W31717  35.566  18.478  10.800
66458W        W31718   0.251   6.964   3.259
66459W        W31719  43.421  31.023   2.599
66460W        W31720   4.380   2.216   3.998
66461W        W31721  12.919  10.367   3.781
66462W        W31722  10.593  11.178   0.367
66463W        W31723  41.603  16.363  11.139
66464W        W31724  41.180   9.195   2.537
66465W        W31725  20.983  30.062  10.732
66466W        W31726  18.689   9.772   2.914
66467W        W31727  23.289  11.744  14.788
66468W        W31728  14.937  20.999  14.643
66469W        W31729   1.217  20.711   4.891
66470W        W31730  40.918   5.322  13.567
66471W        W31731  32.833  30.375   1.630
66472W        W31732  32.603  10.115   1.436
66473W        W31733  12.401  14.830  11.615
66474W        W31734  31.956  37.859   1.947
66475W        W31735  12.957  32.636   0.845
66476W        W31736  40.373   0.059   1.157
66477W        W31737   6.433   0.198  13.035
66478W        W31738  27.171  43.749  12.667
66479W        W31739  40.807  44.480   0.333
66480W        W31740   8.463  14.773  12.142
66481W        W31741   0.369  40.823   3.268
66482W        W31742  43.548  24.167   0.853
66483W        W31743  31.856  14.188   1.128
66484W        W31744   8.425  26.001  11.815
66485W        W31745  37.758  29.704  14.405
66486W        W31746  26.429  33.917  12.516
66487W        W31747  20.067  44.293   0.190
66488W        W31748  32.740  37.900  14.254
66489W        W31749   5.333   6.807  14.713
66490W        W31750  28.570  36.552  12.491
66491W        W31751  36.117  15.698  11.424
66492W        W31752  25.601  30.576   0.928
66493W        W31753  24.675  31.918   3.193
66494W        W31754  38.414  31.149  12.663
66495W        W31755  21.994   8.215  11.594
66496W        W31756   2.861  22.954  14.948
66497W        W31757  18.824  38.377   2.260
66498W        W31758  44.831  22.595  13.795
66499W        W31759  27.524  24.664   2.758
66500W        W31760  41.338  21.044   1.199
66501W        W31761   7.043  37.264   1.118
66502W        W31762   5.457   7.196   3.591
66503W        W31763  15.116  20.507   3.619
66504W        W31764  16.105  16.777  14.907
66505W        W31765   1.510  43.939  14.031
66506W        W31766  40.363  34.528  11.215
66507W        W31767  19.245  28.945   3.446
66508W        W31768  10.356  24.964  11.156
66509W        W31769  36.573  12.484   1.947
66510W        W31770   5.284  21.574   3.254
66511W        W31771  38.152   4.640   2.976
66512W        W31772  20.064   2.955  13.892
66513W        W31773  20.143  21.726  12.714
66514W        W31774  36.876  22.146   4.290
66515W        W31775  13.359  26.601   5.017
66516W        W31776  12.603  17.116   0.860
66517W        W31777   8.339  11.648  13.005
66518W        W31778  31.668  11.864   0.477
66519W        W31779  35.641   2.934  10.652
66520W        W31780  10.912  15.704  13.546
66521W        W31781   0.454  26.065  12.877
66522W        W31782  28.400  21.988   2.126
66523W        W31783  42.832  31.154  12.182
66524W        W31784  10.595  25.510  14.412
66525W        W31785   6.256  25.359   1.651
66526W        W31786  25.108  40.496  10.389
66527W        W31787  15.573   5.424  14.853
66528W        W31788   8.340  42.951   0.501
66529W        W31789  31.536  21.092   3.821
66530W        W31790  12.328   5.175  11.588
66531W        W31791   3.488  35.757  13.522
66532W        W31792   7.404   4.152  14.417
66533W        W31793  13.857  19.026   0.841
66534W        W31794  14.668  12.522  14.429
66535W        W31795  36.002  19.282  11.639
66536W        W31796  36.892  27.428   2.217
66537W        W31797  22.050  17.239  10.500
66538W        W31798  20.563  24.704   2.638
66539W        W31799  18.494   5.784   4.594
66540W        W31800   4.854  15.293   3.315
66541W        W31801  19.419   7.291   0.404
66542W        W31802  41.427  16.053  10.667
66543W        W31803  42.888   1.499   2.956
66544W        W31804  15.204  10.579   0.580
66545W        W31805   7.125   5.211  11.056
66546W        W31806   3.181   8.154   3.118
66547W        W31807   0.249   7.282   1.256
66548W        W31808   8.999  29.178  11.907
66549W        W31809   2.791  26.225  10.332
66550W        W31810   9.868   4.343  12.541
66551W        W31811  18.109  25.683  14.324
66552W        W31812  42.908  33.012   0.490
66553W        W31813  19.588  31.829  12.588
66554W        W31814  29.020  40.295  12.953
66555W        W31815  23.777   7.695   0.970
66556W        W31816   7.447  22.633   3.532
66557W        W31817  21.953  10.632   0.355
66558W        W31818  44.309  22.316   0.254
66559W        W31819  42.361  12.296   2.244
66560W        W31820  37.432  12.297   4.648
66561W        W31821  33.925  38.560   3.350
66562W        W31822  43.080   4.918   2.225
66563W        W31823  22.238  18.293   9.763
66564W        W31824  26.546  42.698   2.807
66565W        W31825  41.320  33.877  12.775
66566W        W31826  24.909  14.377  12.457
66567W        W31827  33.380   3.688   3.702
66568W        W31828  23.531  21.962   4.674
66569W        W31829  14.578  16.600  12.039
66570W        W31830  42.881  23.902  13.090
66571W        W31831  37.031  14.329   3.347
66572W        W31832  44.846  32.215  12.053
66573W        W31833  37.919  20.220   4.075
66574W        W31834  41.736  39.882  14.407
66575W        W31835  42.369   4.167   4.541
66576W        W31836  39.839  24.070  13.461
66577W        W31837  36.011  35.950   4.141
66578W        W31838  29.709  21.490  14.051
66579W        W31839  22.535  36.772   0.434
66580W        W31840  40.490   9.125  14.358
66581W        W31841  30.729  20.698  11.491
66582W        W31842  24.884  10.249  12.923
66583W        W31843  23.567   3.849   1.788
66584W        W31844  15.819  18.483   1.711
66585W        W31845  34.328   5.298  12.315
66586W        W31846  16.955  10.294  14.289
66587W        W31847   4.531  39.886  14.698
66588W        W31848  32.141  39.085  11.621
66589W        W31849  44.369  22.760   3.726
66590W        W31850   6.903  28.522  13.919
66591W        W31851  11.656  42.866  10.071
66592W        W31852  42.769   8.065  11.058
66593W        W31853  44.403  23.429   3.339
66594W        W31854  43.489  34.598   2.967
66595W        W31855  11.886  38.108  11.265
66596W        W31856   5.108  33.527  12.849
66597W        W31857  27.314  33.566  10.721
66598W        W31858  20.645  44.058   1.432
66599W        W31859  42.569   4.402  13.468
66600W        W31860  17.577  17.069   4.395
66601W        W31861  23.812  24.036  11.078
66602W        W31862  26.167  39.562   1.562
66603W        W31863  29.930  29.028  14.385
66604W        W31864  11.898  13.148   1.243
66605W        W31865  36.409  18.359   4.745
66606W        W31866   5.082  32.159  14.121
66607W        W31867   6.690  26.110   2.762
66608W        W31868  34.500  40.833  13.136
66609W        W31869   1.534   0.700  10.943
66610W        W31870  21.160  44.361   3.958
66611W        W31871   6.448  19.026   4.422
66612W        W31872  33.383  42.771  11.945
66613W        W31873  34.414  24.592   4.442
66614W        W31874  22.641  41.809  13.085
66615W        W31875  44.388  34.426  11.168
66616W        W31876  42.215  18.863   2.389
66617W        W31877  28.490   2.231   0.341
66618W        W31878  21.598  27.460   3.133
66619W        W31879  16.767  32.750   0.826
66620W        W31880  39.414  13.697   0.453
66621W        W31881  20.934  34.125  14.516
66622W        W31882  30.061   7.962  12.555
66623W        W31883  41.827  41.533  12.130
66624W        W31884   4.279  16.079  14.049
66625W        W31885  22.014   1.413  10.323
66626W        W31886  37.423  12.200   3.741
66627W        W31887  15.308  41.076   3.277
66628W        W31888  15.580   3.805  11.914
66629W        W31889  14.803  35.782  14.317
66630W        W31890  22.640  32.909  12.304
66631W        W31891   9.266   0.578   3.147
66632W        W31892  42.042  35.895   0.723
66633W        W31893  29.756  17.578   1.434
66634W        W31894  16.150  25.144   1.361
66635W        W31895   6.486  36.272  11.918
66636W        W31896  10.795  34.201   3.701
66637W        W31897  27.710  33.987  14.962
66638W        W31898  38.910   4.735  12.088
66639W        W31899  16.109   4.157   3.664
66640W        W31900  32.093  32.640  11.176
66641W        W31901   2.318   3.393   3.105
66642W        W31902  29.453   7.114   2.880
66643W        W31903   7.436   1.742  14.912
66644W        W31904  41.239  43.993  14.851
66645W        W31905  37.464  20.537   3.949
66646W        W31906  18.476  24.904  10.460
66647W        W31907  32.881  29.695   0.989
66648W        W31908   8.232  20.933  11.065
66649W        W31909   4.838   7.176   4.385
66650W        W31910  14.032  37.933  10.583
66651W        W31911  24.133  18.594   0.751
66652W        W31912  19.916  32.875  13.325
66653W        W31913  19.853  36.139  14.370
66654W        W31914  24.980  28.141   3.759
66655W        W31915  41.557  19.031   1.479
66656W        W31916  37.416  38.729  13.348
66657W        W31917   7.569  34.669   0.679
66658W        W31918   6.306  15.866   0.920
66659W        W31919  27.475   9.686  13.378
66660W        W31920   5.303  32.038   0.480
66661W        W31921  22.807  39.980  14.810
66662W        W31922  37.584  33.866   1.381
66663W        W31923   0.435  18.099  11.531
66664W        W31924  13.139  29.194  13.731
66665W        W31925  39.439   1.003   2.229
66666W        W31926  17.052   2.344  14.853
66667W        W31927   5.759   7.122   4.458
66668W        W31928   5.244  20.045  10.684
66669W        W31929   0.779  37.088  13.988
66670W        W31930  39.545  12.211   3.694
66671W        W31931  21.267  33.980   0.724
66672W        W31932   0.891  13.945   3.603
66673W        W31933  42.385  25.667   3.661
66674W        W31934  35.121  12.292   1.722
66675W        W31935  30.032  19.219  13.309
66676W        W31936   9.330  41.916  13.987
66677W        W31937  23.185  21.163   2.499
66678W        W31938  29.186  21.521  14.053
66679W        W31939   2.186  27.870   0.288
66680W        W31940   6.758  15.691   0.694
66681W        W31941  20.773  21.000  11.071
66682W        W31942  15.143  20.012   3.498
66683W        W31943  40.535  39.780  13.066
66684W        W31944  28.934   0.742   0.446
66685W        W31945  19.012   3.919  12.940
66686W        W31946  13.667  13.120   4.337
66687W        W31947  34.896  24.244   3.800
66688W        W31948  10.889  23.150   0.976
66689W        W31949   9.491  37.819  13.690
66690W        W31950  22.609  27.466  14.830
66691W        W31951   5.185  38.563  10.512
66692W        W31952  16.100  27.016   1.766
66693W        W31953  42.963  30.116   3.832
66694W        W31954  34.165  38.129  13.988
66695W        W31955  13.230  21.892  13.115
66696W        W31956  40.774  38.842   3.704
66697W        W31957  12.730   1.279  11.084
66698W        W31958   4.984  13.704   2.457
66699W        W31959   1.846  19.092   1.000
66700W        W31960  18.969  16.763   2.579
66701W        W31961  35.315  10.165  14.372
66702W        W31962  30.231  43.488  11.544
66703W        W31963  42.040  23.150  13.542
66704W        W31964  37.988  28.637   3.695
66705W        W31965   8.451   6.819   4.614
66706W        W31966  33.853  20.327   1.560
66707W        W31967   0.271   6.871  14.388
66708W        W31968   5.281  32.492   4.287
66709W        W31969  16.661  14.223   4.294
66710W        W31970  43.817  37.604  13.447
66711W        W31971  41.693  35.999  13.967
66712W        W31972  10.956  24.043   3.936
66713W        W31973  33.675   6.763   2.805
66714W        W31974  31.247  22.548  13.493
66715W        W31975  43.897  18.253  14.551
66716W        W31976  11.607  34.985  11.941
66717W        W31977   3.285   1.784   0.311
66718W        W31978  22.026   2.511   2.178
66719W        W31979   1.094  33.899   1.431
66720W        W31980   9.952  18.991  12.960
66721W        W31981   0.746  12.109   3.141
66722W        W31982   4.783  22.233   1.779
66723W        W31983  10.876  41.011   1.973
66724W        W31984  12.921  38.419   3.894
66725W        W31985  29.016  26.525  11.666
66726W        W31986  39.342   6.932  12.594
66727W        W31987  35.806  42.778  12.135
66728W        W31988   6.963  10.092   4.557
66729W        W31989  14.035  27.304  11.492
66730W        W31990  31.040  34.318  10.007
66731W        W31991  10.440   0.907   3.839
66732W        W31992   2.883  32.014   2.456
66733W        W31993  17.285  13.368  13.347
66734W        W31994  41.244  31.348  10.745
66735W        W31995  21.142  31.912  11.916
66736W        W31996   9.916  15.090   4.202
66737W        W31997  34.864  36.490   0.585
66738W        W31998  20.557  23.573  12.932
66739W        W31999  33.182  17.548   2.893
66740W        W32000  30.599  15.794   1.455
66741W        W32001  13.429  19.611   4.051
66742W        W32002   7.987  34.053   2.848
66743W        W32003   4.156  30.214   1.288
66744W        W32004   7.292   8.595  14.406
66745W        W32005  40.039   5.352  11.092
66746W        W32006  16.867  13.444  13.627
66747W        W32007  44.035   1.540   2.176
66748W        W32008  11.078   8.978  11.600
66749W        W32009  36.418  24.644   2.298
66750W        W32010   5.722   2.203   1.818
66751W        W32011  39.547  23.264  11.673
66752W        W32012  21.157  29.453   1.290
66753W        W32013  35.001  10.080   3.733
66754W        W32014  10.366  35.763   4.289
66755W        W32015  33.407  13.803   3.812
66756W        W32016   6.138  13.289  14.866
66757W        W32017  37.119  33.928  10.484
66758W        W32018  16.783  13.728  11.956
66759W        W32019  20.707   2.869   0.440
66760W        W32020  13.813  36.342  14.417
66761W        W32021  39.070   0.670   2.142
66762W        W32022  15.734   8.205  14.756
66763W        W32023   2.344  17.288  13.927
66764W        W32024  40.031  12.762   2.335
66765W        W32025  31.145  21.226   0.754
66766W        W32026  37.041   4.934  13.818
66767W        W32027  10.660  36.949  12.158
66768W        W32028  44.713  14.451  10.722
66769W        W32029  28.873   8.682  11.143
66770W        W32030   0.765  22.729   4.497
66771W        W32031  16.568   8.523   5.109
66772W        W32032  27.444  42.505  14.750
66773W        W32033   3.514  39.986   2.941
66774W        W32034  29.474  11.280   2.682
66775W        W32035  37.555  12.579  12.431
66776W        W32036  23.135  32.446   4.406
66777W        W32037  44.367  37.150  11.874
66778W        W32038  38.359  34.347   4.172
66779W        W32039  27.656  34.505  11.895
66780W        W32040  26.522  44.397   4.685
66781W        W32041   6.813  24.125  13.039
66782W        W32042  17.295  17.180  12.976
66783W        W32043   5.441  42.330  13.498
66784W        W32044  17.901  23.714  13.248
66785W        W32045  39.992   8.642   0.561
66786W        W32046  42.896  15.290   0.436
66787W        W32047  26.200  11.420  14.880
66788W        W32048  38.569  22.504  14.420
66789W        W32049   4.005  41.213   5.412
66790W        W32050  18.155   5.292   4.263
66791W        W32051  21.586  25.981   1.405
66792W        W32052   4.673  12.919  11.135
66793W        W32053  24.680  38.928  11.894
66794W        W32054  33.487   8.920  14.535
66795W        W32055  11.766  39.566   3.620
66796W        W32056  15.804  25.819   0.332
66797W        W32057  37.518  34.973  11.172
66798W        W32058  18.173  10.801  12.486
66799W        W32059  11.775  41.396  14.213
66800W        W32060  10.363   6.059  10.628
66801W        W32061  44.776  14.643  13.970
66802W        W32062  38.264  24.434   1.754
66803W        W32063   6.402  32.238   2.287
66804W        W32064  27.787   6.242  13.040
66805W        W32065  16.485  43.271   3.450
66806W        W32066  23.277  26.962  14.904
66807W        W32067  10.895   9.766   3.176
66808W        W32068   2.097  26.694  10.651
66809W        W32069  26.583  12.633  13.092
66810W        W32070  43.372   9.473  13.365
66811W        W32071  43.831  27.923   3.267
66812W        W32072  29.034  34.844  12.833
66813W        W32073  22.539  40.793   2.356
66814W        W32074  44.053  22.067   2.075
66815W        W32075  41.757  19.438  11.300
66816W        W32076  42.135  21.482  14.423
66817W        W32077   9.041  44.365   4.025
66818W        W32078  28.041  42.206   0.589
66819W        W32079   8.977   6.723   3.217
66820W        W32080  32.088  42.991  12.321
66821W        W32081  32.744  33.209  13.444
66822W        W32082   4.754  42.388  13.942
66823W        W32083  42.403  12.694   0.199
66824W        W32084  16.866  27.207   0.038
66825W        W32085  23.511   3.118   2.421
66826W        W32086  35.617   6.422   3.666
66827W        W32087  36.926  16.830  12.360
66828W        W32088   1.817   1.095   2.992
66829W        W32089  39.743  17.296  10.398
66830W        W32090   4.739  12.299   2.392
66831W        W32091  13.828  35.116   3.184
66832W        W32092  22.437  20.739  13.247
66833W        W32093  33.560  40.298   2.036
66834W        W32094  37.360  18.224  12.903
66835W        W32095   5.892   0.503  11.806
66836W        W32096  33.049  34.356   1.442
66837W        W32097  23.316  42.617   1.593
66838W        W32098  11.573  25.231   0.115
66839W        W32099  21.207  18.290   2.908
66840W        W32100  23.757  27.407   2.765
66841W        W32101  31.443  42.422   0.262
66842W        W32102  34.917  25.220  11.989
66843W        W32103   2.245  22.250   0.915
66844W        W32104  10.412  38.992  13.205
66845W        W32105   4.482   7.267  11.219
66846W        W32106  23.699  12.840   4.349
66847W        W32107  20.151   8.699   3.847
66848W        W32108  28.238  43.588  12.476
66849W        W32109  28.281  14.513  13.473
66850W        W32110  18.655   3.819   4.589
66851W        W32111  13.081  13.166  12.782
66852W        W32112   0.494  26.715   3.321
66853W        W32113  11.323   1.458   4.536
66854W        W32114  32.277  15.766   1.770
66855W        W32115  24.033  21.128  14.967
66856W        W32116  25.953  25.755   2.375
66857W        W32117  19.049  34.078  13.178
66858W        W32118  21.532   3.783   2.347
66859W        W32119  25.072  21.313  10.801
66860W        W32120   5.970  24.141  11.069
66861W        W32121  18.137   7.349  11.482
66862W        W32122   8.566  27.399  12.009
66863W        W32123  32.588  37.752  13.120
66864W        W32124   3.435  20.098   4.589
66865W        W32125   3.870  34.478  14.892
66866W        W32126  24.147  39.110   4.099
66867W        W32127  44.787  20.077   2.662
66868W        W32128   9.415   3.754  11.572
66869W        W32129  34.415   1.246  13.475
66870W        W32130  29.410  25.393  11.047
66871W        W32131  33.653   1.923  11.033
66872W        W32132   8.914  18.531  11.027
66873W        W32133  28.191   6.405   4.129
66874W        W32134   4.701   5.987   3.191
66875W        W32135  19.763  14.331   1.413
66876W        W32136  31.561  29.595   3.346
66877W        W32137  14.387   0.512   0.337
66878W        W32138  18.610   0.246   4.647
66879W        W32139   4.891  13.493   4.136
66880W        W32140  25.241  26.910   1.420
66881W        W32141  24.485  23.697   1.438
66882W        W32142  11.657  29.873  11.992
66883W        W32143   7.138  31.105   0.718
66884W        W32144  10.829   8.670   1.254
66885W        W32145  21.526  20.571  14.848
66886W        W32146  42.711  41.783   4.870
66887W        W32147  21.441   6.195  14.902
66888W        W32148  18.604  16.069   4.157
66889W        W32149  13.969  43.855  13.355
66890W        W32150   9.571  16.677   2.776
66891W        W32151  20.798   9.841  12.155
66892W        W32152  24.216  15.721   4.989
66893W        W32153  29.370  44.278   4.564
66894W        W32154  40.932  18.292  11.640
66895W        W32155  38.611  19.980  13.454
66896W        W32156  19.118   0.723   0.132
66897W        W32157  22.628  19.282   2.666
66898W        W32158  31.668  25.440  11.867
66899W        W32159  23.084  16.927   0.348
66900W        W32160  20.452  27.996   1.133
66901W        W32161  28.891  40.283  13.996
66902W        W32162  18.268  15.510  14.731
66903W        W32163  14.860  26.083   4.114
66904W        W32164  13.144  26.791  14.979
66905W        W32165  19.000   6.131  14.469
66906W        W32166   8.527   9.953   4.056
66907W        W32167   5.523   4.850   1.943
66908W        W32168  23.820  32.886   0.725
66909W        W32169   9.842  13.302   5.071
66910W        W32170  14.306  26.077   1.420
66911W        W32171   0.784   2.229  11.805
66912W        W32172  15.431  35.086   4.184
66913W        W32173  36.090  39.221  14.009
66914W        W32174  17.821   9.263  10.571
66915W        W32175  26.271  25.019   4.693
66916W        W32176  10.169  31.488   1.290
66917W        W32177  28.166   2.919  12.904
66918W        W32178  39.478  22.685  10.992
66919W        W32179  26.950  40.339   4.765
66920W        W32180  33.753  41.551  11.193
66921W        W32181  39.253   8.048   5.056
66922W        W32182  41.842  18.778   4.529
66923W        W32183  40.093  42.329   2.819
66924W        W32184  12.818  17.255  11.170
66925W        W32185   0.114  14.199  12.036
66926W        W32186  33.072  13.906   2.713
66927W        W32187   4.688  18.820   1.748
66928W        W32188   2.220  29.004   3.035
66929W        W32189  11.787  15.307  12.916
66930W        W32190  19.238   2.264   1.326
66931W        W32191  38.924  34.496  13.000
66932W        W32192  13.109  25.292  13.234
66933W        W32193  36.970  18.576  12.999
66934W        W32194  16.714  35.337  14.801
66935W        W32195   4.243  10.426   4.706
66936W        W32196  40.221  36.438   1.735
66937W        W32197  15.363   3.902   2.294
66938W        W32198  23.107  32.023   3.747
66939W        W32199   3.984   1.416  13.315
66940W        W32200  13.037  43.818  14.765
66941W        W32201   7.746  18.746   4.046
66942W        W32202  43.754  12.627   1.277
66943W        W32203  28.346  14.749   1.729
66944W        W32204  22.566  10.639   0.284
66945W        W32205  30.156   6.846   0.936
66946W        W32206   2.516  20.631   1.137
66947W        W32207  17.813   3.196  11.879
66948W        W32208  22.604   4.673   0.868
66949W        W32209  22.667  28.576   2.667
66950W        W32210  15.752  14.179   0.673
66951W        W32211  10.437  19.555  12.274
66952W        W32212  25.537  35.092   2.705
66953W        W32213  28.520  35.017   0.367
66954W        W32214  23.056  30.156   0.513
66955W        W32215  10.808  15.428   3.710
66956W        W32216  24.331  12.769  14.942
66957W        W32217  22.609  15.817   1.678
66958W        W32218  40.043   1.286   2.841
66959W        W32219  14.642  43.487   0.805
66960W        W32220  10.296   0.449   1.665
66961W        W32221  23.213  26.497   0.188
66962W        W32222  25.256  41.789   1.496
66963W        W32223   6.407   2.208   1.917
66964W        W32224  27.148  11.782   1.844
66965W        W32225  34.289  38.104  10.610
66966W        W32226  20.822  24.436   2.254
66967W        W32227  36.360   7.822  12.442
66968W        W32228  40.393  12.814  12.022
66969W        W32229  40.216  41.541   4.969
66970W        W32230  30.873  17.528  14.486
66971W        W32231   3.031  13.795  14.434
66972W        W32232   0.780  15.636   4.347
66973W        W32233   3.025   5.843   1.807
66974W        W32234  27.007  30.915  12.198
66975W        W32235   9.093   6.290  12.036
66976W        W32236  32.948  44.350   4.909
66977W        W32237  12.906  13.228  11.935
66978W        W32238  25.214  19.689  12.597
66979W        W32239  36.904  40.869  13.370
66980W        W32240   1.205   8.165  13.522
66981W        W32241  21.102  18.588   0.726
66982W        W32242  13.685   3.158  12.103
66983W        W32243   6.745   6.241  12.031
66984W        W32244  18.281  15.885  13.579
66985W        W32245  42.836  18.331  12.083
66986W        W32246  32.124  22.046   9.787
66987W        W32247  44.939  11.261   0.025
66988W        W32248  22.539  27.395  10.566
66989W        W32249  38.806  41.252   1.091
66990W        W32250   5.492  11.719   0.704
66991W        W32251  28.088  10.804   1.081
66992W        W32252  33.869  25.921  11.746
66993W        W32253  42.225  23.061  10.517
66994W        W32254  11.864  16.975   2.486
66995W        W32255   8.772  43.066   4.529
66996W        W32256  36.512  19.620  12.377
66997W        W32257   2.868  28.045  14.105
66998W        W32258  11.727  39.613   1.888
66999W        W32259  44.679   0.528  14.963
67000W        W32260   5.754  40.962   2.544
67001W        W32261  37.839   2.222  14.465
67002W        W32262  17.755  37.638   2.240
67003W        W32263  38.137   2.093  10.283
67004W        W32264   0.549  15.369  10.696
67005W        W32265   8.442  41.404   0.872
67006W        W32266  35.139  28.021   2.232
67007W        W32267  18.608  36.916  11.035
67008W        W32268  23.610  26.436   2.847
67009W        W32269  29.469  40.145  14.534
67010W        W32270  33.428  15.245  13.568
67011W        W32271   4.050  16.097   4.648
67012W        W32272   5.511  30.721   2.126
67013W        W32273  22.025   6.550   2.022
67014W        W32274  25.157  37.511   0.479
67015W        W32275   9.545  23.741   3.259
67016W        W32276  33.543   1.319  13.461
67017W        W32277  42.548   7.110   0.997
67018W        W32278  25.718  17.266  13.039
67019W        W32279  16.959  13.809   4.130
67020W        W32280   1.770  23.633   3.182
67021W        W32281  17.860  27.492   2.447
67022W        W32282  14.620  25.592  14.828
67023W        W32283  16.833   2.285  11.340
67024W        W32284  22.214  24.444  10.683
67025W        W32285  35.502   3.882  12.326
67026W        W32286  25.988  29.949  12.872
67027W        W32287  40.978  19.001  13.906
67028W        W32288   1.416  17.232   1.396
67029W        W32289   6.627  34.361   2.759
67030W        W32290  39.886   1.729   3.768
67031W        W32291  34.555  16.646   0.464
67032W        W32292   6.575  23.945  12.112
67033W        W32293  25.231   0.811  10.372
67034W        W32294  38.267  43.862   3.706
67035W        W32295  38.343  42.502   2.630
67036W        W32296  38.858  18.508  11.126
67037W        W32297  11.150  19.873   0.794
67038W        W32298  15.594   1.151  11.197
67039W        W32299  23.090  16.316  12.994
67040W        W32300  14.380  25.185   1.185
67041W        W32301  38.981  42.870   2.793
67042W        W32302  30.447  10.727   2.143
67043W        W32303  10.675  22.809   0.633
67044W        W32304  38.898  13.055  12.832
67045W        W32305  28.258  28.276   5.227
67046W        W32306   5.673   8.665  12.957
67047W        W32307   5.153  42.802  13.549
67048W        W32308   8.883  17.212   1.442
67049W        W32309   1.422   6.352  13.928
67050W        W32310  37.405   4.354  10.685
67051W        W32311   2.710   7.828   4.676
67052W        W32312  32.655  12.842  14.375
67053W        W32313  23.081  40.826  13.305
67054W        W32314  40.585  43.095  11.629
67055W        W32315  23.065  26.883   0.956
67056W        W32316  30.062   0.756   1.095
67057W        W32317  23.667  28.605  10.690
67058W        W32318   3.809   7.032   2.721
67059W        W32319  38.938  40.174   2.466
67060W        W32320  12.281  42.566   3.304
67061W        W32321  27.467  36.065   2.331
67062W        W32322  21.109  41.262  14.868
67063W        W32323  20.617  38.378  11.455
67064W        W32324  42.317  43.937   2.635
67065W        W32325  24.059  34.912  13.564
67066W        W32326   6.736   1.188   0.582
67067W        W32327  44.822  34.538   3.188
67068W        W32328   6.758  10.829  10.726
67069W        W32329  37.411  42.433   2.667
67070W        W32330  12.923   2.790  14.419
67071W        W32331   9.920  31.108  11.983
67072W        W32332  10.821   1.091  13.341
67073W        W32333  34.980   6.277   0.274
67074W        W32334  42.987   7.708   4.136
67075W        W32335   4.906  28.783  14.445
67076W        W32336  11.537   5.276  11.883
67077W        W32337   7.228  23.751  14.496
67078W        W32338  20.355  15.306  12.603
67079W        W32339  38.457   2.114  10.714
67080W        W32340  14.159  17.668   4.406
67081W        W32341  32.083   3.189  11.884
67082W        W32342   8.881   4.984   4.109
67083W        W32343  20.247  34.137   3.790
67084W        W32344   9.681   4.013   2.443
67085W        W32345   3.402  41.469   4.227
67086W        W32346  23.505  40.568   4.866
67087W        W32347   7.034   6.880  10.892
67088W        W32348  15.601  42.267   2.295
67089W        W32349  15.505  10.729  13.698
67090W        W32350  36.190  42.863  10.378
67091W        W32351   8.206  19.150  14.556
67092W        W32352  23.879   1.753   2.364
67093W        W32353   5.702  34.932   0.734
67094W        W32354   1.761   1.783   0.410
67095W        W32355  20.247  12.318   0.683
67096W        W32356  32.181  13.741  10.587
67097W        W32357  25.428  17.879  12.396
67098W        W32358  42.255  35.089   2.259
67099W        W32359  43.057   7.693   2.136
67100W        W32360  31.910  19.525  12.049
67101W        W32361   6.649  30.743   2.975
67102W        W32362   9.313   8.283   3.364
67103W        W32363  14.411  10.833   4.959
67104W        W32364  30.414  44.105   2.709
67105W        W32365   0.570  13.300  12.033
67106W        W32366  20.841  11.488   3.393
67107W        W32367  20.055  14.397   4.940
67108W        W32368  21.715   9.141   4.037
67109W        W32369  21.064   0.283   0.132
67110W        W32370  16.429  38.541  11.391
67111W        W32371  33.820  37.664   1.683
67112W        W32372  40.968  40.971   1.538
67113W        W32373   9.173  11.206  14.302
67114W        W32374  21.613  38.648   1.902
67115W        W32375  16.281  14.309   2.921
67116W        W32376  23.554  24.212   2.568
67117W        W32377  28.359  15.176  12.673
67118W        W32378  32.701   1.674  14.508
67119W        W32379  36.134  10.893  10.685
67120W        W32380  31.430   4.934   1.850
67121W        W32381  18.742  15.226   0.681
67122W        W32382  10.550  33.399  10.243
67123W        W32383  33.008  36.681  10.254
67124W        W32384  13.336  10.283  12.118
67125W        W32385  13.649  14.578  12.047
67126W        W32386   7.070  14.879  12.400
67127W        W32387  22.667   1.255   1.369
67128W        W32388  33.869  22.762  11.159
67129W        W32389  42.946  20.747  14.862
67130W        W32390  37.376   4.429  12.925
67131W        W32391   5.885  41.071   3.542
67132W        W32392  35.595  10.556   0.394
67133W        W32393  34.843   1.875   0.330
67134W        W32394  44.497  25.515  14.768
67135W        W32395   5.885  25.160   3.366
67136W        W32396  14.353  36.853  11.669
67137W        W32397  31.874  26.663  14.294
67138W        W32398  42.930  24.001   1.107
67139W        W32399  11.942   7.204   2.740
67140W        W32400  31.077  25.901   2.538
67141W        W32401  26.787  31.385  12.396
67142W        W32402  33.350  37.944  10.580
67143W        W32403  41.040  18.695  14.313
67144W        W32404  11.000  12.190   2.655
67145W        W32405  28.727  30.174  12.200
67146W        W32406   3.457  43.200   0.797
67147W        W32407  34.130  16.585   2.734
67148W        W32408   9.593  37.987  10.527
67149W        W32409  28.419  18.903   0.354
67150W        W32410  40.349  12.335   2.333
67151W        W32411  11.921  23.828   3.984
67152W        W32412  33.624  26.386  12.361
67153W        W32413  41.943  14.013   2.655
67154W        W32414  21.254   9.694  11.395
67155W        W32415  13.765  33.073   2.418
67156W        W32416  21.616  23.017  10.758
67157W        W32417  30.189   2.963   1.424
67158W        W32418  37.830  33.591  11.209
67159W        W32419  42.083   6.347  11.620
67160W        W32420  27.944  35.383   0.829
67161W        W32421  23.613   2.252  14.567
67162W        W32422  23.307  26.714  12.614
67163W        W32423  16.487  32.071   0.297
67164W        W32424   3.143  42.335   3.192
67165W        W32425  24.146  40.326   1.825
67166W        W32426  16.043  38.754  14.895
67167W        W32427  35.075  12.709   2.825
67168W        W32428  23.340  20.261   0.813
67169W        W32429  13.251  15.245  14.781
67170W        W32430   7.749  21.046  14.391
67171W        W32431  10.551  42.944  11.197
67172W        W32432  42.819   9.349  12.480
67173W        W32433  40.342  16.683   3.282
67174W        W32434  36.899   7.351   4.158
67175W        W32435  37.355  29.462  12.058
67176W        W32436  42.051  21.597   1.285
67177W        W32437  41.346  31.319   4.772
67178W        W32438   1.354  25.513  11.589
67179W        W32439  30.889  44.767   0.936
67180W        W32440  34.767  36.329   3.251
67181W        W32441  30.386  11.155  14.945
67182W        W32442   0.320   3.851   1.878
67183W        W32443  25.135  14.986   2.658
67184W        W32444  37.162  25.152   1.259
67185W        W32445  12.251  44.136  12.562
67186W        W32446  23.309  43.000  12.929
67187W        W32447  32.083  42.210  11.853
67188W        W32448  13.207  24.110  14.568
67189W        W32449  35.465  29.088  12.354
67190W        W32450  33.377  44.815   3.966
67191W        W32451  36.151  36.585   3.631
67192W        W32452  41.794  31.001  14.476
67193W        W32453   5.252  36.107  11.158
67194W        W32454   7.515  43.386   2.532
67195W        W32455  23.741  40.315   4.060
67196W        W32456   2.773  23.788   3.027
67197W        W32457  23.203  18.120   3.123
67198W        W32458  20.191   5.192   1.255
67199W        W32459  20.686  29.325  10.675
67200W        W32460  16.142  44.955  14.058
67201W        W32461  30.629  39.865  13.500
67202W        W32462  21.608  16.750   1.968
67203W        W32463  17.786  39.326  13.261
67204W        W32464   3.326  39.016   0.242
67205W        W32465   5.974   6.308   2.988
67206W        W32466   3.240  27.701   2.569
67207W        W32467   7.679  35.799   2.497
67208W        W32468   8.669  30.021  11.267
67209W        W32469  18.574  23.070  14.786
67210W        W32470  26.663  36.071   1.264
67211W        W32471   5.462  22.026   1.310
67212W        W32472  26.731  29.074  13.935
67213W        W32473   4.782  21.146  12.038
67214W        W32474   0.939  32.512  11.542
67215W        W32475   0.224  26.724  12.487
67216W        W32476   8.177  39.840   3.091
67217W        W32477  15.421  12.831   2.676
67218W        W32478  34.584  12.369   3.705
67219W        W32479  12.105  34.086   4.640
67220W        W32480   1.299  31.392   4.195
67221W        W32481  29.538  34.536   1.378
67222W        W32482  30.944  24.785  11.582
67223W        W32483   1.635   5.217   2.705
67224W        W32484  12.536   2.273   3.503
67225W        W32485   0.250  30.868   2.843
67226W        W32486  21.498  23.654  11.113
67227W        W32487  21.293  12.475   3.227
67228W        W32488  27.420  20.110  12.098
67229W        W32489  28.720  10.658   0.517
67230W        W32490   7.472   7.133  10.990
67231W        W32491  30.517   0.340   1.714
67232W        W32492   2.361   5.661   2.427
67233W        W32493   2.665  26.178  13.027
67234W        W32494  41.729  18.326  11.622
67235W        W32495  43.745  42.367   0.219
67236W        W32496  37.401  25.858  12.652
67237W        W32497  31.989  42.611   3.146
67238W        W32498   7.894  42.644  10.550
67239W        W32499   9.611  39.342  13.164
67240W        W32500  17.700   1.371  13.211
67241W        W32501  41.484  37.187   0.362
67242W        W32502  25.009  15.113  11.552
67243W        W32503  17.632  35.051  10.855
67244W        W32504  25.739  28.599   2.632
67245W        W32505  41.838  34.395  11.419
67246W        W32506   3.783  42.303   4.437
67247W        W32507  12.895  30.246  12.417
67248W        W32508   6.887  44.859  12.432
67249W        W32509  20.608  38.441   0.400
67250W        W32510  37.929  39.316   1.692
67251W        W32511  40.420  35.240  10.678
67252W        W32512  40.009  29.658  14.003
67253W        W32513  20.632   6.687  10.949
67254W        W32514  18.271   8.739   4.712
67255W        W32515   9.808  41.031   2.338
67256W        W32516  43.394   5.964  12.958
67257W        W32517   5.931  29.078   3.756
67258W        W32518  28.926   4.270   3.647
67259W        W32519  22.321  24.212   0.397
67260W        W32520  24.746  41.085   0.053
67261W        W32521  44.515   4.998   1.306
67262W        W32522  44.789  13.903   4.551
67263W        W32523  40.127  15.746  13.060
67264W        W32524  27.659   0.327   0.864
67265W        W32525  20.602   6.009   1.181
67266W        W32526  21.166   6.392  12.266
67267W        W32527  16.228  19.818   1.716
67268W        W32528  20.550  10.321   2.205
67269W        W32529  40.522   7.597  12.343
67270W        W32530  35.928  32.032   4.609
67271W        W32531   0.244   8.198  13.290
67272W        W32532  20.848  22.246   0.498
67273W        W32533  30.381  32.893  12.481
67274W        W32534  43.308  35.997   0.272
67275W        W32535  18.211  42.290   2.182
67276W        W32536   5.973  41.874   3.238
67277W        W32537  15.511  10.949  14.173
67278W        W32538  21.980   7.426   0.883
67279W        W32539  20.268  17.415  13.847
67280W        W32540  36.741  32.001   0.987
67281W        W32541  28.552   1.040  11.920
67282W        W32542   3.800  24.144  10.770
67283W        W32543  14.076  26.758   0.900
67284W        W32544  31.651  44.432  12.313
67285W        W32545  15.310  13.072  12.519
67286W        W32546  36.424  38.086  13.031
67287W        W32547   0.333  10.908   0.970
67288W        W32548  18.835  11.802   3.071
67289W        W32549  10.774  41.968   4.243
67290W        W32550  41.273  35.433  12.386
67291W        W32551  31.423  30.198   5.151
67292W        W32552   4.414  37.839  11.991
67293W        W32553  29.220  44.395   1.858
67294W        W32554  10.434   3.942   0.976
67295W        W32555   1.456   4.404  10.893
67296W        W32556  32.332  36.527   0.709
67297W        W32557  36.016  26.754  10.376
67298W        W32558  32.842  22.185  13.945
67299W        W32559  20.167  36.968   2.402
67300W        W32560   0.372  14.049  13.399
67301W        W32561  37.983  30.737  14.413
67302W        W32562  29.535  12.791   1.494
67303W        W32563   2.802  24.754   0.289
67304W        W32564  36.972  14.271  10.340
67305W        W32565  30.361  27.375   4.074
67306W        W32566   8.366  42.862  10.771
67307W        W32567  23.265  44.830   1.257
67308W        W32568  20.404  40.389   4.604
67309W        W32569  19.794   4.956   0.214
67310W        W32570  13.553  20.281  14.110
67311W        W32571   1.903   3.657   0.361
67312W        W32572   9.107   5.036  14.318
67313W        W32573  18.431  22.411  10.309
67314W        W32574  22.966  18.059  10.223
67315W        W32575  16.166  21.672  14.230
67316W        W32576  36.963  15.128   4.626
67317W        W32577   5.067  12.286   1.412
67318W        W32578  26.811  35.504   9.825
67319W        W32579  16.854  38.285  11.525
67320W        W32580  24.437  17.373   2.743
67321W        W32581  29.944  23.552  12.089
67322W        W32582   7.721   6.906   3.322
67323W        W32583  14.080  31.061  14.313
67324W        W32584  36.362  34.505   1.852
67325W        W32585  14.292  29.570   1.019
67326W        W32586  32.112   8.705  13.839
67327W        W32587  14.168  35.103  14.074
67328W        W32588  27.441  15.859  12.377
67329W        W32589  21.257  18.025   9.928
67330W        W32590  15.568  17.749   2.293
67331W        W32591   7.547   7.355   2.277
67332W        W32592  42.451  39.176  10.693
67333W        W32593   8.222  27.524   2.287
67334W        W32594  30.423  27.644  11.254
67335W        W32595   9.136  26.074   0.053
67336W        W32596  38.053   5.336   4.515
67337W        W32597   5.360  21.561   0.909
67338W        W32598  28.922   4.896  13.284
67339W        W32599   5.015  17.210  12.514
67340W        W32600  23.544  22.462   3.791
67341W        W32601  41.455  11.820   2.875
67342W        W32602  14.183  32.980   2.677
67343W        W32603  10.852  35.331  12.002
67344W        W32604  14.530  20.130   9.760
67345W        W32605  36.634   8.684  11.017
67346W        W32606   2.701  27.084   0.295
67347W        W32607  37.152  34.574   0.889
67348W        W32608  29.516   6.296  10.713
67349W        W32609  39.669  43.536  14.854
67350W        W32610  43.833   5.069   3.537
67351W        W32611  41.536   0.336  10.745
67352W        W32612  39.014  28.698   2.686
67353W        W32613  33.061  27.910   3.719
67354W        W32614  17.100  39.796  11.138
67355W        W32615  36.960  38.110   2.352
67356W        W32616  38.737   3.468   0.299
67357W        W32617   9.148  28.531   2.506
67358W        W32618  21.830   5.296  12.274
67359W        W32619   9.838   9.399   1.727
67360W        W32620  42.821  15.072   2.322
67361W        W32621  16.398  13.199  13.592
67362W        W32622  41.076  24.519   4.171
67363W        W32623   7.441  18.245  12.526
67364W        W32624  30.086  34.844  14.420
67365W        W32625   6.699  13.178   2.662
67366W        W32626  19.026  13.596   4.129
67367W        W32627  26.722  11.063   2.767
67368W        W32628   2.045  16.086   2.622
67369W        W32629  43.983  39.443  11.754
67370W        W32630   1.718  37.884   1.736
67371W        W32631   6.963  10.088  11.199
67372W        W32632   1.285  25.691   1.216
67373W        W32633  27.179  20.554  11.919
67374W        W32634  38.038  23.068   1.169
67375W        W32635  18.645  36.826   4.707
67376W        W32636  28.018  12.295   1.590
67377W        W32637   4.295   9.367  11.092
67378W        W32638  25.793  20.341   1.100
67379W        W32639  35.930  18.294  12.500
67380W        W32640  30.946  32.009   2.839
67381W        W32641  14.037  41.884   4.445
67382W        W32642  35.296  31.995  13.716
67383W        W32643  23.772  27.617   0.866
67384W        W32644  16.156  15.679  12.681
67385W        W32645  18.302  19.952   2.871
67386W        W32646  42.725  43.748   4.552
67387W        W32647  27.446  24.409  10.762
67388W        W32648  34.001  12.649  10.028
67389W        W32649  41.020  39.395  14.911
67390W        W32650  23.450  13.621   3.767
67391W        W32651  22.441   4.250   2.691
67392W        W32652  33.458  34.668   4.572
67393W        W32653   3.983  14.074  10.664
67394W        W32654   0.947   5.029  10.209
67395W        W32655   0.083  13.825   4.960
67396W        W32656  38.027  14.166   1.190
67397W        W32657  23.808   6.280   3.636
67398W        W32658   8.022  12.711   4.524
67399W        W32659  32.643  38.628   1.423
67400W        W32660  38.377  11.748  12.992
67401W        W32661  34.719  39.822  13.856
67402W        W32662  29.452  13.411   0.601
67403W        W32663  18.134  19.410   3.703
67404W        W32664  22.677  26.128  11.030
67405W        W32665  23.664   0.947   2.842
67406W        W32666  31.930  43.301   0.915
67407W        W32667  39.078  10.768   4.046
67408W        W32668  16.513  21.006   5.023
67409W        W32669  20.731  18.465  11.030
67410W        W32670   8.444  22.923   2.327
67411W        W32671   6.401  16.273  13.115
67412W        W32672  24.019  28.901   3.748
67413W        W32673   1.372  24.757  11.548
67414W        W32674  41.234   6.897   2.753
67415W        W32675  26.466  26.595   5.020
67416W        W32676  11.420   7.264   2.667
67417W        W32677   9.394  12.267  13.346
67418W        W32678  29.238  23.303   0.805
67419W        W32679  42.230   9.245   3.612
67420W        W32680  15.691  19.138   0.443
67421W        W32681  23.195  19.340  10.765
67422W        W32682  22.275  31.940  10.609
67423W        W32683  42.671   2.499   4.526
67424W        W32684   4.247   8.113  10.729
67425W        W32685  42.322  12.596  12.963
67426W        W32686  32.577  33.696  10.770
67427W        W32687  14.239  34.564  11.988
67428W        W32688   7.880  44.734   2.156
67429W        W32689   0.308   3.201   1.899
67430W        W32690   3.021  31.673  13.212
67431W        W32691  19.045  14.058   0.417
67432W        W32692   8.200  26.979  13.345
67433W        W32693  42.811  26.146   0.863
67434W        W32694  12.732  34.168   2.744
67435W        W32695  18.353  39.842   2.769
67436W        W32696   2.612  11.995  12.080
67437W        W32697  39.263  28.403  11.587
67438W        W32698  21.598  35.225   2.337
67439W        W32699   0.952  24.746   3.636
67440W        W32700  34.004  19.569  10.513
67441W        W32701  12.503  33.166   3.858
67442W        W32702  42.843  19.301  14.870
67443W        W32703   2.856  42.061  13.818
67444W        W32704   4.490  42.516  12.060
67445W        W32705   1.681   4.793  10.620
67446W        W32706  34.723   4.195  11.182
67447W        W32707   6.646  25.642  14.860
67448W        W32708  37.503  13.737   1.424
67449W        W32709   0.636  22.373   2.483
67450W        W32710  36.166  33.683   3.655
67451W        W32711  38.965  11.845   4.465
67452W        W32712  19.104   7.679   2.292
67453W        W32713   1.577  40.576  12.946
67454W        W32714  26.259   6.845   4.609
67455W        W32715  15.344   3.316  11.947
67456W        W32716  13.033  23.600   2.267
67457W        W32717  16.825  38.985  14.843
67458W        W32718  21.987  26.942  11.374
67459W        W32719   0.800  41.732   3.381
67460W        W32720  33.549   9.902   0.897
67461W        W32721  32.395  36.342   3.100
67462W        W32722  31.597  36.137   2.353
67463W        W32723  39.118  39.576   4.750
67464W        W32724  23.010  20.595   2.844
67465W        W32725  16.551  33.051   2.804
67466W        W32726  42.583  19.247   4.745
67467W        W32727   6.388   7.085   2.797
67468W        W32728   4.638   6.331  11.564
67469W        W32729  39.391   1.028  13.446
67470W        W32730  33.542   4.962   0.342
67471W        W32731   8.698   1.191  13.618
67472W        W32732  34.188  12.383   0.229
67473W        W32733   1.092  23.738   3.685
67474W        W32734  35.585  25.968  13.028
67475W        W32735   3.279  26.791   5.106
67476W        W32736  25.945   1.862   2.723
67477W        W32737  36.682  13.369  13.643
67478W        W32738  36.259   4.218   2.839
67479W        W32739   9.780  44.952  12.482
67480W        W32740  38.512  43.002   1.457
67481W        W32741  10.439  26.861  14.488
67482W        W32742  29.069  15.640   3.295
67483W        W32743   8.445  13.599  10.808
67484W        W32744  18.342   6.262   5.184
67485W        W32745  38.651  18.607  13.765
67486W        W32746  39.356   5.356   3.652
67487W        W32747  17.556  28.583   2.599
67488W        W32748   0.255  30.771   1.220
67489W        W32749  26.949  27.740   2.212
67490W        W32750  43.817  36.123  13.512
67491W        W32751  12.350  13.652  10.715
67492W        W32752  18.136  17.945  12.540
67493W        W32753  26.093  28.381  12.834
67494W        W32754   8.647  11.765   3.736
67495W        W32755  27.180   1.777   2.243
67496W        W32756  15.660   6.782  14.498
67497W        W32757  44.884  37.407  14.778
67498W        W32758  32.643  25.580  11.085
67499W        W32759  19.141   6.955   3.823
67500W        W32760  35.941   8.744   3.839
67501W        W32761  21.869   5.235   0.681
67502W        W32762  29.149  41.034   1.838
67503W        W32763  30.369   1.963  14.825
67504W        W32764  25.732   9.467  10.806
67505W        W32765  36.900  14.240  13.383
67506W        W32766  10.194  11.901  11.792
67507W        W32767  34.909  22.984   3.328
67508W        W32768  29.603   4.423  12.167
67509W        W32769  17.502  40.947   3.734
67510W        W32770  36.101  21.076  11.240
67511W        W32771  14.571  32.157   0.393
67512W        W32772  19.612  37.454   0.870
67513W        W32773  27.804   5.254   0.920
67514W        W32774  38.581   4.986   3.708
67515W        W32775  21.009  36.213   0.602
67516W        W32776  33.101  37.466  10.602
67517W        W32777  43.885  38.503   4.760
67518W        W32778  16.740  21.293  10.863
67519W        W32779  13.873  35.485  13.151
67520W        W32780  17.207  32.182   4.309
67521W        W32781  34.600   4.182  14.042
67522W        W32782  10.942  39.618  13.454
67523W        W32783   7.608  21.780  14.037
67524W        W32784  44.653   8.873  10.226
67525W        W32785  33.525  39.429  13.848
67526W        W32786  20.723  29.956  11.151
67527W        W32787  31.121  42.925   2.121
67528W        W32788  30.631  32.990  13.385
67529W        W32789   0.314  34.818  14.724
67530W        W32790  23.968  11.144  12.942
67531W        W32791  32.276  40.886  11.977
67532W        W32792  17.035  14.987  14.382
67533W        W32793  19.800  18.188   1.298
67534W        W32794  10.431  34.294  10.306
67535W        W32795  29.994  14.784  12.905
67536W        W32796  31.601   8.935  13.769
67537W        W32797  18.618  41.911  14.436
67538W        W32798  32.707  32.002  12.775
67539W        W32799  19.551  25.299   3.198
67540W        W32800  40.492  44.751  12.025
67541W        W32801  22.769  28.072  10.805
67542W        W32802  26.141  16.208   3.965
67543W        W32803  18.635   7.455   0.048
67544W        W32804  30.997   0.167  11.089
67545W        W32805  41.929  37.393  13.729
67546W        W32806  39.010   6.457  14.354
67547W        W32807  31.647  42.572  13.503
67548W        W32808  27.642  18.170   1.965
67549W        W32809   8.910  40.844   2.414
67550W        W32810  22.297  10.705   4.199
67551W        W32811   4.295  34.111   4.115
67552W        W32812  39.743  27.512   2.213
67553W        W32813  17.272  31.691   9.883
67554W        W32814  23.657  30.141   2.768
67555W        W32815  43.449  18.005   1.392
67556W        W32816  29.227   3.974  13.248
67557W        W32817  37.137  13.244  12.130
67558W        W32818  41.576   2.522   0.789
67559W        W32819  25.553  43.327   3.227
67560W        W32820  37.497   2.356  10.352
67561W        W32821   1.485  30.603  14.675
67562W        W32822   7.616  44.233   3.655
67563W        W32823   7.911  28.521   3.087
67564W        W32824  31.968  32.570   3.759
67565W        W32825  16.485   7.931  13.120
67566W        W32826  19.338  29.756  14.571
67567W        W32827  16.067  26.939  13.639
67568W        W32828  24.423  20.276   2.776
67569W        W32829  37.323  24.487   0.782
67570W        W32830  15.207  38.450  13.210
67571W        W32831  15.400  43.301  14.253
67572W        W32832  44.094  41.015   4.800
67573W        W32833  30.493   5.378   2.368
67574W        W32834  29.633  25.671  13.922
67575W        W32835  28.176  27.130   1.478
67576W        W32836  43.244  25.760  14.006
67577W        W32837  23.245  30.654   4.623
67578W        W32838  24.719  33.431   3.137
67579W        W32839  36.618   0.196  14.603
67580W        W32840  34.868   7.319   4.026
67581W        W32841  25.429   9.303  13.107
67582W        W32842   7.696   3.180   3.168
67583W        W32843  27.523  42.018   0.424
67584W        W32844  10.748   6.694  12.992
67585W        W32845   3.278  22.160  13.582
67586W        W32846  23.232  33.821   3.576
67587W        W32847   1.797  31.859   5.161
67588W        W32848  41.822  25.847   0.021
67589W        W32849  32.519   0.905   0.712
67590W        W32850  21.570   3.262   2.406
67591W        W32851  11.929  40.617  11.511
67592W        W32852  10.859  38.547   2.079
67593W        W32853   6.484  23.696  12.670
67594W        W32854  35.050  13.365   0.766
67595W        W32855  14.135  33.102   3.685
67596W        W32856  32.418   8.996   0.487
67597W        W32857  44.224  33.341   4.109
67598W        W32858  16.751  23.155  12.064
67599W        W32859  16.864   4.777   0.778
67600W        W32860  12.694  18.814   1.385
67601W        W32861  41.886  41.820   1.899
67602W        W32862  31.030  38.425   3.861
67603W        W32863  23.290  39.859   0.909
67604W        W32864   6.857  43.815   0.394
67605W        W32865  18.009   3.040   3.314
67606W        W32866  38.003   4.198   3.223
67607W        W32867   2.315  24.841  12.006
67608W        W32868  12.115  19.088  10.717
67609W        W32869   3.220   8.744   1.279
67610W        W32870  23.140   7.575  11.961
67611W        W32871   2.772  39.860  12.979
67612W        W32872   8.656   4.923  13.561
67613W        W32873  44.716   6.451  14.979
67614W        W32874  18.366  41.811  11.388
67615W        W32875  36.177  17.283   3.051
67616W        W32876  10.373  38.431   0.753
67617W        W32877  43.996  19.866  10.621
67618W        W32878  37.339  34.150   1.775
67619W        W32879  25.495  25.489  13.231
67620W        W32880  36.823   5.157  14.497
67621W        W32881  22.545   6.540   0.345
67622W        W32882   6.808  41.852  14.258
67623W        W32883  16.556   1.558   0.533
67624W        W32884   2.154  43.015   1.556
67625W        W32885   2.342   9.320   1.250
67626W        W32886  30.934  11.620  12.940
67627W        W32887  33.148  34.348  11.391
67628W        W32888   9.361  32.722  13.893
67629W        W32889  20.012   7.526  10.297
67630W        W32890  32.491  37.565   4.871
67631W        W32891  17.981  44.762   2.308
67632W        W32892  18.270   2.727   1.119
67633W        W32893  28.031  37.977  13.542
67634W        W32894  12.823  37.345  13.254
67635W        W32895  31.417  39.974   2.775
67636W        W32896  37.301  34.084  14.369
67637W        W32897  33.670  38.830  14.968
67638W        W32898   1.398  41.026   2.917
67639W        W32899  22.640  10.223  13.443
67640W        W32900   4.970  40.965  14.679
67641W        W32901  12.832  22.867  12.031
67642W        W32902   1.857   9.888   0.903
67643W        W32903  25.196  19.031   4.020
67644W        W32904  15.612  43.238   1.262
67645W        W32905   1.566   5.825  11.022
67646W        W32906  37.037  27.080  14.959
67647W        W32907  32.293  22.125  12.113
67648W        W32908   0.242  37.428  12.006
67649W        W32909  29.228   9.273  12.524
67650W        W32910  23.119  17.601  13.547
67651W        W32911  11.274  12.144   0.780
67652W        W32912   1.893  37.339   3.243
67653W        W32913   5.323  14.928  12.160
67654W        W32914   1.941  33.016   4.442
67655W        W32915  24.170  38.236  13.232
67656W        W32916  28.412  34.146   2.420
67657W        W32917  11.231  38.674  10.445
67658W        W32918  43.552  33.030  12.974
67659W        W32919  28.104  18.403   1.458
67660W        W32920  18.556  15.584  11.125
67661W        W32921  12.208  27.337  11.025
67662W        W32922  38.084  11.401  12.092
67663W        W32923  14.954  41.842   0.613
67664W        W32924   5.940  23.554   3.808
67665W        W32925  35.470  18.992  10.799
67666W        W32926   0.754  17.222   0.027
67667W        W32927  34.430  33.919  11.644
67668W        W32928  35.372   1.001  14.474
67669W        W32929   3.050   5.563  12.598
67670W        W32930  23.907  15.381  13.219
67671W        W32931  29.007  39.134   0.763
67672W        W32932  10.226  28.491   3.176
67673W        W32933   8.301  42.940  13.065
67674W        W32934   1.140  22.498  12.444
67675W        W32935  28.780  44.265  14.955
67676W        W32936  28.251  11.142  12.485
67677W        W32937  25.501  28.229   1.142
67678W        W32938  41.644  40.436   2.755
67679W        W32939  32.348   9.171  13.158
67680W        W32940  43.391  37.494   0.099
67681W        W32941  10.658  37.775   0.261
67682W        W32942  36.959  17.634  13.905
67683W        W32943  14.328   9.335  10.753
67684W        W32944   1.375  27.269   2.304
67685W        W32945  42.010   7.348   2.667
67686W        W32946  17.102  39.417  14.871
67687W        W32947  25.203  25.150   2.750
67688W        W32948  34.560  19.358   3.413
67689W        W32949  14.300  16.354  12.444
67690W        W32950  19.207  27.644   0.039
67691W        W32951  15.720  28.610  12.213
67692W        W32952   2.945  15.422   2.940
67693W        W32953  43.078  20.151   4.521
67694W        W32954   9.259  15.591   1.709
67695W        W32955  39.588  38.788  14.873
67696W        W32956  16.561  43.363  12.417
67697W        W32957  17.328  10.232  12.094
67698W        W32958  43.953  19.779  11.823
67699W        W32959  33.924  40.032   4.598
67700W        W32960  42.468  38.056   1.323
67701W        W32961  40.975   6.268   0.332
67702W        W32962  19.164  27.420   4.609
67703W        W32963  35.856  21.841  14.829
67704W        W32964  19.737  15.359   3.709
67705W        W32965   5.247  12.215  12.675
67706W        W32966  31.163  42.935   4.368
67707W        W32967  26.959  30.100   3.614
67708W        W32968  27.581  41.617   3.267
67709W        W32969  35.371  36.897   0.033
67710W        W32970   7.233  15.906   1.906
67711W        W32971  11.337  21.946   2.982
67712W        W32972  32.579  19.636   1.994
67713W        W32973  34.791  20.167   1.908
67714W        W32974  34.076  41.581  11.595
67715W        W32975  35.059  31.951  12.841
67716W        W32976  37.497  26.035  12.166
67717W        W32977  31.203  25.518  13.276
67718W        W32978  23.619  33.547   2.385
67719W        W32979  18.454  22.807   4.588
67720W        W32980  43.287   7.219   1.414
67721W        W32981  21.059   7.626  11.134
67722W        W32982  36.834  29.020  11.454
67723W        W32983  32.650   6.205   3.296
67724W        W32984   6.656   8.835  11.641
67725W        W32985  43.454  38.801  10.222
67726W        W32986  26.454  26.279  11.326
67727W        W32987  12.885  22.991   2.417
67728W        W32988  24.152   9.350   3.988
67729W        W32989   4.951  11.813   2.367
67730W        W32990  15.911  22.142  13.335
67731W        W32991   0.127  32.626  10.627
67732W        W32992  39.469  23.830   3.903
67733W        W32993   0.210   9.987   1.965
67734W        W32994   1.277  22.024   0.725
67735W        W32995  36.418  11.094  13.842
67736W        W32996  44.052  29.902   4.146
67737W        W32997   5.949  44.491  13.296
67738W        W32998  12.161  22.232   3.199
67739W        W32999   1.493  43.836  14.768
67740W        W33000   9.233  15.609   0.641
67741W        W33001  35.616  14.659   1.145
67742W        W33002   4.743  21.338  10.677
67743W        W33003  36.078   5.409   1.359
67744W        W33004  14.244  12.286   0.912
67745W        W33005   2.485  42.186  12.965
67746W        W33006   4.971   1.009   0.824
67747W        W33007  36.586  13.706   2.740
67748W        W33008   9.309  19.529  13.432
67749W        W33009  37.435   9.900   4.546
67750W        W33010  44.473  42.779   3.408
67751W        W33011   3.076  41.036  12.492
67752W        W33012  18.110   5.270   0.354
67753W        W33013  30.042  23.029  14.204
67754W        W33014  28.092  23.792   4.330
67755W        W33015  12.252  29.864  11.297
67756W        W33016  33.258  14.688   2.043
67757W        W33017   7.758  32.754   3.265
67758W        W33018  30.085  31.363   4.419
67759W        W33019   1.175  43.733  14.367
67760W        W33020   6.913  43.949  14.200
67761W        W33021  36.905   6.644  12.783
67762W        W33022  15.534  37.989  10.611
67763W        W33023  43.455  19.114  13.461
67764W        W33024   1.251  18.638  11.241
67765W        W33025   9.175  19.776   3.474
67766W        W33026   3.221   0.385  14.318
67767W        W33027  36.522  14.561  10.269
67768W        W33028  34.482   9.756   3.781
67769W        W33029   1.364  27.798   1.357
67770W        W33030   6.613  39.772   4.392
67771W        W33031  37.273  34.736  13.505
67772W        W33032  38.638  27.365   0.370
67773W        W33033  13.729  40.313  13.974
67774W        W33034  44.909  28.763  13.373
67775W        W33035  14.562  38.597  13.940
67776W        W33036   1.450  19.059  11.567
67777W        W33037  24.054  43.205  13.073
67778W        W33038  38.877  15.037   4.637
67779W        W33039  32.916  34.136  10.994
67780W        W33040   6.815  20.285  14.835
67781W        W33041   1.009  27.183  11.306
67782W        W33042  44.979  31.694  11.963
67783W        W33043  34.405   3.104   1.465
67784W        W33044  11.243  32.528  12.379
67785W        W33045  39.100  10.410   2.368
67786W        W33046   0.265   1.466  12.822
67787W        W33047  41.950   1.013   2.094
67788W        W33048  23.135  30.583  12.410
67789W        W33049  44.864  41.917   2.671
67790W        W33050  18.327   6.314   3.063
67791W        W33051  38.439  15.495  10.589
67792W        W33052  17.654  37.334  13.859
67793W        W33053  15.747   5.425  11.427
67794W        W33054  20.550   4.858  12.136
67795W        W33055  23.195  41.408  12.060
67796W        W33056  20.984  20.276  11.722
67797W        W33057  12.187   9.452   4.225
67798W        W33058  38.430   3.313  14.903
67799W        W33059  42.128  24.584   3.156
67800W        W33060  10.480  20.939   4.076
67801W        W33061  16.858  35.519  10.665
67802W        W33062  16.920   9.177  12.453
67803W        W33063   5.000  16.456  13.620
67804W        W33064   0.452  42.498   1.196
67805W        W33065  15.815   2.945   0.400
67806W        W33066   4.789  15.123   0.837
67807W        W33067  39.438  42.340  10.797
67808W        W33068  21.560  18.076   3.219
67809W        W33069  44.551  16.464   1.922
67810W        W33070   3.917  31.709  12.895
67811W        W33071   0.034  21.713  11.295
67812W        W33072  14.901  32.622   3.276
67813W        W33073  39.860  12.166  14.580
67814W        W33074  43.839   7.735   1.667
67815W        W33075  34.563  13.829   4.755
67816W        W33076  13.567  37.725  10.722
67817W        W33077   2.728  42.418  12.543
67818W        W33078   8.089  27.507   1.311
67819W        W33079  21.810  30.565  10.764
67820W        W33080  29.398   2.265   3.174
67821W        W33081  26.962  34.947   4.243
67822W        W33082  20.661  23.850   1.248
67823W        W33083  24.101  25.687  11.953
67824W        W33084   1.314  32.883   0.401
67825W        W33085  40.732  39.827  11.951
67826W        W33086  28.820  43.426   1.993
67827W        W33087  21.315  41.515   2.742
67828W        W33088  37.618  16.021   4.145
67829W        W33089  19.607   5.685   1.712
67830W        W33090  17.330  20.738  14.809
67831W        W33091  16.294  39.293   2.849
67832W        W33092  44.889  32.489   1.699
67833W        W33093  24.895  39.094  10.021
67834W        W33094  24.564  38.238   2.469
67835W        W33095   7.127  14.317   0.707
67836W        W33096  31.225   6.954   2.801
67837W        W33097  30.598  25.202  12.497
67838W        W33098  27.359  28.438  14.083
67839W        W33099  27.212   9.761  13.840
67840W        W33100   6.264   5.174   0.301
67841W        W33101  20.779   4.739  14.360
67842W        W33102  19.028  12.490   1.808
67843W        W33103  36.822  32.411   1.851
67844W        W33104   2.186  24.152  13.983
67845W        W33105  32.809  36.479   3.427
67846W        W33106   4.218  30.860  14.438
67847W        W33107  33.593  31.251   2.298
67848W        W33108  42.533   1.300   4.266
67849W        W33109   0.870  32.346   4.909
67850W        W33110   2.260  37.457   1.500
67851W        W33111  33.051   1.494   0.988
67852W        W33112  19.565   2.961   1.381
67853W        W33113  11.112  17.502  14.467
67854W        W33114  44.506  43.579   2.331
67855W        W33115   2.800  32.293  14.327
67856W        W33116  12.602  17.231  14.040
67857W        W33117  15.282   4.730   0.944
67858W        W33118  41.753  31.262  10.698
67859W        W33119  40.970  23.956  13.891
67860W        W33120   4.193  40.270  12.439
67861W        W33121  41.416  44.471  13.606
67862W        W33122  14.269   6.500  12.231
67863W        W33123  25.488   1.640   2.731
67864W        W33124  29.662  27.921   2.707
67865W        W33125  43.898  27.459  11.223
67866W        W33126  30.983  38.324  13.994
67867W        W33127   1.260  12.777  13.618
67868W        W33128   2.929   7.282  12.491
67869W        W33129  36.846  35.788   3.748
67870W        W33130  32.713  39.984   1.406
67871W        W33131  11.169  11.094  12.009
67872W        W33132  18.069   9.034   3.726
67873W        W33133   0.258  18.925  12.628
67874W        W33134   2.435   3.702  13.781
67875W        W33135  19.343  33.466   2.347
67876W        W33136  29.340  38.458  10.760
67877W        W33137  16.337   8.202   0.371
67878W        W33138  36.822   0.294   9.956
67879W        W33139  27.028  21.703  13.436
67880W        W33140  23.643  25.741  14.422
67881W        W33141  17.073   1.064   0.971
67882W        W33142  19.735  38.959  10.268
67883W        W33143   5.417  25.920   1.946
67884W        W33144  23.019   8.503   1.709
67885W        W33145   2.115   3.987  11.581
67886W        W33146  13.310   2.433   3.322
67887W        W33147  22.948  15.116  14.519
67888W        W33148  14.856  36.222  11.518
67889W        W33149  38.051  39.056  11.148
67890W        W33150  18.961  16.216   1.431
67891W        W33151  37.652  44.854  12.579
67892W        W33152  12.845  31.547  10.798
67893W        W33153  10.959   9.395  11.972
67894W        W33154  26.648  25.166  13.438
67895W        W33155   8.614  44.691  12.117
67896W        W33156  14.526   5.855   1.837
67897W        W33157  15.103   3.782  13.540
67898W        W33158  32.701   9.735  14.438
67899W        W33159  31.233  29.532  11.086
67900W        W33160  18.151  21.357   4.515
67901W        W33161  33.048  37.821  10.995
67902W        W33162  30.647   7.918  14.044
67903W        W33163  29.654   7.280  10.744
67904W        W33164  13.229  41.979   0.456
67905W        W33165   8.883  16.437   3.641
67906W        W33166  22.554   1.252   3.273
67907W        W33167  44.050  15.686   0.965
67908W        W33168  11.902  42.690   4.166
67909W        W33169  36.675   3.532   1.414
67910W        W33170  12.400   8.131   1.783
67911W        W33171  13.784  35.457  12.069
67912W        W33172   7.626  27.240  10.306
67913W        W33173  10.694  31.822   0.952
67914W        W33174  38.021  37.826  10.454
67915W        W33175  10.636  42.553  12.124
67916W        W33176   6.772  34.083   0.988
67917W        W33177  42.876  10.192   2.669
67918W        W33178  38.334  34.539   3.081
67919W        W33179  30.677  44.987   2.887
67920W        W33180  31.845  10.263  11.087
67921W        W33181  39.937  35.229  13.112
67922W        W33182  35.397  13.601  11.273
67923W        W33183  28.654  39.381   4.607
67924W        W33184   6.140  17.602  10.241
67925W        W33185  40.414   3.276  13.273
67926W        W33186  13.876  14.082   2.297
67927W        W33187  24.516  16.644  14.474
67928W        W33188  13.414   8.942  13.980
67929W        W33189  25.260  28.545  13.429
67930W        W33190   8.881  35.368  12.156
67931W        W33191  26.274   1.237  14.082
67932W        W33192  43.525  37.110  14.290
67933W        W33193  20.270  25.044  13.859
67934W        W33194   6.599  31.722  11.201
67935W        W33195  11.293   1.075  12.537
67936W        W33196  42.719   7.775   0.752
67937W        W33197  30.914  36.022   4.231
67938W        W33198  31.666  44.530   1.792
67939W        W33199  24.542   0.284   2.259
67940W        W33200   5.960  38.331   0.214
67941W        W33201  16.348  31.884   4.135
67942W        W33202   7.225  39.050   1.242
67943W        W33203  22.983  38.428  11.131
67944W        W33204  14.753  25.022  10.662
67945W        W33205   9.846  11.903  14.394
67946W        W33206  11.668  10.194   4.461
67947W        W33207  11.728  11.248   0.823
67948W        W33208   2.793  43.583  10.621
67949W        W33209  10.537  13.175   2.574
67950W        W33210  38.943   9.249  12.898
67951W        W33211   0.145  36.915  11.031
67952W        W33212   6.901  39.695  12.778
67953W        W33213  12.971  16.625  12.329
67954W        W33214  32.552  10.661  11.533
67955W        W33215   6.838   1.895  10.606
67956W        W33216  39.483  34.573   0.513
67957W        W33217  36.476  35.084  13.964
67958W        W33218   4.266  20.364   4.873
67959W        W33219  11.844  20.539  14.447
67960W        W33220  32.087  43.780  12.429
67961W        W33221  12.659  22.737   4.269
67962W        W33222  32.158  29.428   2.242
67963W        W33223  41.562  15.545   2.045
67964W        W33224  40.014   0.436   3.804
67965W        W33225  37.063   0.053   3.239
67966W        W33226  23.051  10.021  11.638
67967W        W33227  12.919  26.867  12.967
67968W        W33228  29.533  32.597  13.985
67969W        W33229  14.649  14.207   0.061
67970W        W33230  12.862   7.906  10.593
67971W        W33231  41.850  18.882   5.031
67972W        W33232  33.604   1.838   2.612
67973W        W33233   4.257   5.739  11.021
67974W        W33234  28.694  43.894   3.327
67975W        W33235  30.452  40.565   1.764
67976W        W33236  34.594  32.414   3.278
67977W        W33237  36.938  14.631   2.779
67978W        W33238  41.312  25.658   1.459
67979W        W33239  25.640  38.865  10.845
67980W        W33240   7.407  14.593  14.795
67981W        W33241  29.653   1.739   4.767
67982W        W33242  31.470   2.872  12.464
67983W        W33243  25.450   1.871   4.114
67984W        W33244  21.690  18.131  11.658
67985W        W33245  13.000  38.316   2.690
67986W        W33246  30.675  42.365   0.797
67987W        W33247   7.434  22.254   0.815
67988W        W33248  10.845  30.370   3.070
67989W        W33249   5.841  12.082   0.909
67990W        W33250  25.764  21.567  14.844
67991W        W33251  13.066  27.909  13.705
67992W        W33252  25.809  24.835  14.345
67993W        W33253   5.105  30.418   1.664
67994W        W33254  31.855  24.574   0.805
67995W        W33255  40.801   8.079  14.776
67996W        W33256  32.511  23.494   2.739
67997W        W33257  33.737  19.170  10.718
67998W        W33258  36.792  25.257  14.842
67999W        W33259  39.275  15.272   4.873
68000W        W33260  19.585  24.458   3.701
68001W        W33261  38.783  31.644  11.584
68002W        W33262   0.253   2.555  14.224
68003W        W33263   3.872  38.811   1.377
68004W        W33264   6.332  11.105   0.472
68005W        W33265  26.957  12.629  12.507
68006W        W33266  28.711  43.779  12.369
68007W        W33267  34.926  18.038  12.025
68008W        W33268  27.746   0.692  14.851
68009W        W33269   6.365  32.166  14.515
68010W        W33270  37.834  26.558  10.982
68011W        W33271  37.151   9.703   1.535
68012W        W33272  10.617   3.533  13.574
68013W        W33273   3.254  29.672   4.563
68014W        W33274  26.603  10.637   2.000
68015W        W33275   6.425  39.959   3.764
68016W        W33276   5.399  20.170  11.633
68017W        W33277  25.561  38.168  10.643
68018W        W33278  25.176  18.692  11.659
68019W        W33279  27.668  39.136   2.733
68020W        W33280   1.066  38.832   0.448
68021W        W33281   1.029  10.780   4.906
68022W        W33282   7.971  24.021  12.826
68023W        W33283  34.561  14.572   4.473
68024W        W33284  42.496  44.758  14.880
68025W        W33285   7.414   5.918   1.929
68026W        W33286  37.448  19.638   4.155
68027W        W33287  26.927  23.200   0.328
68028W        W33288  12.787  30.601   4.446
68029W        W33289  31.843  43.513  10.692
68030W        W33290  21.520   0.518   0.351
68031W        W33291   9.896   9.331   4.088
68032W        W33292  20.137  23.789   4.540
68033W        W33293   1.744   4.284  13.982
68034W        W33294  40.433   9.894   2.307
68035W        W33295  19.729  34.945  13.913
68036W        W33296  40.147   6.661  11.485
68037W        W33297   4.126  28.124   2.634
68038W        W33298  15.335  14.125   2.299
68039W        W33299  23.617  27.975  11.932
68040W        W33300   6.963  38.500  14.332
68041W        W33301   4.079  16.769   4.189
68042W        W33302  26.699  44.056  13.548
68043W        W33303   0.726  41.017   1.822
68044W        W33304   5.656  27.686  12.042
68045W        W33305  37.830  33.942   3.683
68046W        W33306  31.127  10.728  13.409
68047W        W33307  19.662  20.533   2.280
68048W        W33308   5.958  25.713  10.143
68049W        W33309  11.307  31.841   1.846
68050W        W33310  40.218  22.323  12.095
68051W        W33311  43.129  38.897   2.689
68052W        W33312  33.021  33.640  13.254
68053W        W33313  41.497  36.475  14.075
68054W        W33314  40.427   1.936   4.587
68055W        W33315   0.988  36.548  11.227
68056W        W33316  15.711  41.316   4.419
68057W        W33317  30.975  38.924  14.914
68058W        W33318  42.629   9.087   5.090
68059W        W33319  25.457   4.718  14.753
68060W        W33320  19.068  42.872  14.424
68061W        W33321   4.629  20.303   3.142
68062W        W33322  22.098  44.522  12.945
68063W        W33323  41.335  15.228   2.586
68064W        W33324  13.324  20.082  13.522
68065W        W33325  11.134  14.383   3.642
68066W        W33326   6.114  36.997   2.355
68067W        W33327  10.109  14.621   4.181
68068W        W33328  40.540  26.980  14.544
68069W        W33329  12.901  36.837  13.951
68070W        W33330  19.052  10.896  13.435
68071W        W33331   4.117  14.331  11.107
68072W        W33332  37.880  44.397  13.475
68073W        W33333  21.002  10.168   2.458
68074W        W33334  16.018  15.261   3.639
68075W        W33335  41.351  19.990   1.194
68076W        W33336   6.937  31.982   3.893
68077W        W33337  11.791  28.840  12.369
68078W        W33338  18.294  41.319   2.891
68079W        W33339  25.967  26.625   4.284
68080W        W33340  21.066  30.519   4.548
68081W        W33341  12.182  10.405  13.403
68082W        W33342  44.546  10.063   0.250
68083W        W33343  20.578  17.090   1.805
68084W        W33344  27.431  10.754   1.457
68085W        W33345   0.702  39.415   2.854
68086W        W33346  39.455  17.581  12.999
68087W        W33347  12.391   3.046  11.978
68088W        W33348  42.714  43.924  14.523
68089W        W33349  29.482  22.734  14.987
68090W        W33350  10.714  43.435  11.176
68091W        W33351  18.186  34.473  12.504
68092W        W33352  16.463  28.487   1.101
68093W        W33353  11.747   3.519  11.442
68094W        W33354  15.728  17.690  11.208
68095W        W33355  12.396   4.891  12.006
68096W        W33356  36.876  19.749   3.321
68097W        W33357  13.048  22.198  13.514
68098W        W33358  15.775   4.852   0.768
68099W        W33359   8.976  25.898   2.273
68100W        W33360  22.839  24.484   4.424
68101W        W33361  42.944   7.443   1.083
68102W        W33362  33.546   4.338   0.763
68103W        W33363   3.980  32.166  13.168
68104W        W33364   1.907  30.557  12.157
68105W        W33365  28.064  37.020  11.600
68106W        W33366  37.204  32.954   0.741
68107W        W33367  19.597  22.617   1.017
68108W        W33368  16.651  15.211   2.708
68109W        W33369   4.858  44.304   1.384
68110W        W33370  24.500  26.621   1.923
68111W        W33371  26.522   9.398  14.314
68112W        W33372  28.377  20.782   3.237
68113W        W33373  19.462   6.711  12.024
68114W        W33374  26.477  21.809   3.814
68115W        W33375  41.554  34.456   0.849
68116W        W33376  25.604   4.436  13.945
68117W        W33377   2.315  24.764   2.028
68118W        W33378  25.241   5.872   3.287
68119W        W33379  29.482  13.556   4.343
68120W        W33380   5.801   1.360   3.916
68121W        W33381  19.906  35.164  13.487
68122W        W33382  27.057  31.204   4.137
68123W        W33383  31.469  22.246   4.082
68124W        W33384  40.752  31.112   3.664
68125W        W33385  38.695   7.155  10.320
68126W        W33386  29.082   5.770   2.810
68127W        W33387   9.783  28.908   3.796
68128W        W33388  29.990  11.673  11.464
68129W        W33389  19.209  15.862   2.754
68130W        W33390  27.631  12.773  10.787
68131W        W33391  12.135  33.076  11.728
68132W        W33392  11.298  19.314  12.525
68133W        W33393  20.223   6.310  13.902
68134W        W33394  28.699   3.845  11.518
68135W        W33395   5.427   7.369   0.434
68136W        W33396  28.212  29.592  14.682
68137W        W33397  16.772   9.986   1.157
68138W        W33398  10.305  44.394   4.294
68139W        W33399  36.294  41.292   1.360
68140W        W33400   3.729  11.097   4.010
68141W        W33401  17.972  10.554   0.948
68142W        W33402  23.667  27.169  13.116
68143W        W33403  44.226  33.848  12.814
68144W        W33404  17.671  42.951   0.191
68145W        W33405  34.557  37.847   1.850
68146W        W33406  17.923  44.280  14.071
68147W        W33407  36.626  33.180   4.662
68148W        W33408  33.928  22.539  14.511
68149W        W33409  21.690  38.049  14.462
68150W        W33410  20.266  15.755   4.573
68151W        W33411   5.782  31.386  12.609
68152W        W33412   2.021   8.078   1.273
68153W        W33413  31.425  16.868   1.345
68154W        W33414  42.694  24.953   9.992
68155W        W33415  18.572  31.263   1.294
68156W        W33416  29.666  32.444   2.753
68157W        W33417  31.299   9.762   1.726
68158W        W33418  30.536  39.939  10.712
68159W        W33419  20.828   3.246   1.757
68160W        W33420  28.221  17.647   2.257
68161W        W33421  27.064  25.918   3.152
68162W        W33422  42.519  30.063   2.253
68163W        W33423  24.540  28.983  14.913
68164W        W33424  38.049  23.533  10.472
68165W        W33425  39.749  22.035   4.579
68166W        W33426   0.740   5.858   3.083
68167W        W33427  37.534  43.731  12.572
68168W        W33428  30.022  43.073   0.898
68169W        W33429  41.997  14.060   3.631
68170W        W33430  18.692  38.605  14.360
68171W        W33431  14.297  34.537   3.583
68172W        W33432   8.556  24.423  11.170
68173W        W33433  20.572  42.323   1.622
68174W        W33434  41.013  23.503  13.609
68175W        W33435   4.385  35.075   0.501
68176W        W33436  29.354  15.226  12.360
68177W        W33437  22.013   4.172  14.816
68178W        W33438  23.135  28.563   2.923
68179W        W33439   4.292  44.349   2.569
68180W        W33440  32.608   8.481   3.613
68181W        W33441  28.612  31.941  13.490
68182W        W33442  23.576   7.246   2.940
68183W        W33443  15.057  22.623   2.769
68184W        W33444  31.831   2.719  10.688
68185W        W33445  27.092  27.456   4.525
68186W        W33446  26.435  31.995   4.979
68187W        W33447   0.741  10.631  11.926
68188W        W33448  19.482  43.416   1.308
68189W        W33449  19.279  30.705   4.339
68190W        W33450  11.382  28.118  12.755
68191W        W33451  17.110  14.632  13.409
68192W        W33452  42.215  15.645   2.748
68193W        W33453  18.791  39.973   3.977
68194W        W33454  39.136  21.149  11.971
68195W        W33455  35.925  23.523   1.686
68196W        W33456  36.104  13.512  13.440
68197W        W33457  39.535  42.413  11.678
68198W        W33458  25.580   5.981   0.120
68199W        W33459  18.979  19.158   2.265
68200W        W33460   9.966  30.539   2.106
68201W        W33461  42.095   7.131   1.264
68202W        W33462  33.754  14.165   3.514
68203W        W33463  43.003  32.993  14.165
68204W        W33464  31.083   1.913   0.230
68205W        W33465  11.487  33.443  12.223
68206W        W33466  17.817   8.313   1.854
68207W        W33467  37.847  16.772  11.563
68208W        W33468  28.271  35.399   4.143
68209W        W33469  31.491  42.237  12.844
68210W        W33470  26.897   7.468  12.692
68211W        W33471  42.027  16.036   4.614
68212W        W33472  19.819   3.123   2.604
68213W        W33473   2.802   5.784   0.520
68214W        W33474   9.886  20.060  12.590
68215W        W33475  44.808  35.417   2.183
68216W        W33476   3.691  20.983  14.520
68217W        W33477  37.579   4.001   1.262
68218W        W33478  19.691   2.484   1.507
68219W        W33479  13.322   1.107  14.229
68220W        W33480   4.102  14.644  14.378
68221W        W33481  18.177  21.423   5.419
68222W        W33482  33.394  24.095  11.187
68223W        W33483  38.040  19.351   3.766
68224W        W33484  17.898  22.806  11.729
68225W        W33485  26.702  21.639   4.234
68226W        W33486  16.691  37.695  10.891
68227W        W33487  10.632  16.063  13.031
68228W        W33488  44.458   9.137   0.464
68229W        W33489  25.773  36.032  14.359
68230W        W33490   3.761  25.089   1.215
68231W        W33491  17.154   2.406  10.515
68232W        W33492  37.428  12.103   0.924
68233W        W33493  16.377  41.523  10.511
68234W        W33494  34.156   7.687   4.692
68235W        W33495  12.143  20.793   3.196
68236W        W33496  24.925  28.472   2.357
68237W        W33497  27.189  26.170   2.195
68238W        W33498   0.458  19.034  14.859
68239W        W33499  40.399  35.289   1.111
68240W        W33500   4.716  40.662  13.949
68241W        W33501  22.177  37.504  14.927
68242W        W33502  22.566  13.282   2.729
68243W        W33503  16.063  30.682  11.888
68244W        W33504  43.217  39.068   5.053
68245W        W33505  43.902   1.799  10.410
68246W        W33506  33.322  36.530  11.034
68247W        W33507  13.229  21.097   1.801
68248W        W33508  44.452  13.803   4.148
68249W        W33509  39.085   6.253  13.874
68250W        W33510  30.471  19.034  12.132
68251W        W33511  13.795  38.998  11.696
68252W        W33512  10.134   7.907  12.624
68253W        W33513   2.588  12.264   3.101
68254W        W33514   8.164  11.062   0.329
68255W        W33515  25.122  36.981  14.356
68256W        W33516  16.723  31.513   4.370
68257W        W33517  16.656  21.693  11.190
68258W        W33518  25.504  30.300   0.097
68259W        W33519  23.907   2.721   2.425
68260W        W33520  20.315  12.323   0.172
68261W        W33521  12.278  38.097   0.948
68262W        W33522  30.623  34.512   0.477
68263W        W33523  42.145  20.301   0.835
68264W        W33524  33.178  33.564   0.249
68265W        W33525  30.523  13.281   3.323
68266W        W33526  32.443  14.583  14.732
68267W        W33527   6.924  13.320  14.357
68268W        W33528  41.692  14.917  11.205
68269W        W33529  17.514   2.231   3.255
68270W        W33530  20.990  31.962   2.332
68271W        W33531  33.498  14.772   4.012
68272W        W33532  22.325  36.353   2.169
68273W        W33533  13.191  16.256  13.495
68274W        W33534  10.089  12.733   0.457
68275W        W33535  10.360  10.564  11.930
68276W        W33536  35.306   9.211  12.052
68277W        W33537  41.037  16.391   4.647
68278W        W33538  35.393  42.614  11.888
68279W        W33539  12.840  18.456   3.732
68280W        W33540  39.133  29.320   3.932
68281W        W33541  42.999  27.996   2.705
68282W        W33542   3.729   0.312  12.118
68283W        W33543   8.381  24.086   0.910
68284W        W33544  12.673  17.192  14.983
68285W        W33545   4.953  17.619  13.290
68286W        W33546   6.257  42.691  14.946
68287W        W33547  16.329  28.844  11.655
68288W        W33548  24.441   8.091  13.688
68289W        W33549   3.715  38.360  12.451
68290W        W33550  10.245  30.593   4.103
68291W        W33551  16.639  11.475  11.548
68292W        W33552  35.780  17.149   2.147
68293W        W33553  10.789  43.864   4.720
68294W        W33554  33.038  28.830  10.354
68295W        W33555  34.274  22.854   1.703
68296W        W33556  34.457  39.345   3.363
68297W        W33557  27.696  22.093  13.070
68298W        W33558  40.302  23.260   2.225
68299W        W33559   4.898  26.095   2.027
68300W        W33560  33.583  13.347   0.931
68301W        W33561  25.612  30.674  13.174
68302W        W33562  21.999  30.080  12.827
68303W        W33563  18.603  24.513   0.616
68304W        W33564  18.176  19.217  14.588
68305W        W33565  31.511  24.215  10.709
68306W        W33566   3.362  27.464  13.351
68307W        W33567  40.655  36.339   1.949
68308W        W33568  41.063   9.246  13.643
68309W        W33569  43.014  32.060   2.734
68310W        W33570  42.824  20.638   2.773
68311W        W33571  40.506  27.250  12.578
68312W        W33572  14.708  13.813  13.878
68313W        W33573  32.386  28.996   2.434
68314W        W33574  36.974  22.802   1.042
68315W        W33575  24.940  27.993  14.955
68316W        W33576  25.106  34.098   2.676
68317W        W33577   5.416  28.175  12.084
68318W        W33578   3.885  29.151  10.783
68319W        W33579   8.472  43.789   4.722
68320W        W33580  18.113  18.285   1.231
68321W        W33581   3.461   8.182   0.230
68322W        W33582  30.488  34.533  11.902
68323W        W33583  13.695   4.866   4.096
68324W        W33584  43.373  40.998   3.118
68325W        W33585   2.491  16.414  11.986
68326W        W33586   2.190  39.877  14.179
68327W        W33587  42.911   6.617   3.377
68328W        W33588   0.268   2.687   0.689
68329W        W33589  44.434  25.430   9.866
68330W        W33590  34.641  12.597  11.489
68331W        W33591  27.903  16.686   2.255
68332W        W33592  11.457  29.912   4.184
68333W        W33593  26.650  10.303  12.688
68334W        W33594  34.298   5.922   0.225
68335W        W33595  28.977  44.814   3.132
68336W        W33596   6.295  16.507  12.056
68337W        W33597  38.065  39.963   4.540
68338W        W33598  37.895  14.822   0.907
68339W        W33599   8.916  21.045   0.715
68340W        W33600  34.665  43.875   1.983
68341W        W33601  17.290  22.585   2.284
68342W        W33602   0.912  42.366  12.056
68343W        W33603  41.462  33.072   0.708
68344W        W33604  26.669  34.098  11.139
68345W        W33605   7.844  26.189   4.532
68346W        W33606  25.097  39.561  11.896
68347W        W33607  10.166  35.796   1.308
68348W        W33608  15.071  42.996   1.980
68349W        W33609   2.862  18.086   2.667
68350W        W33610  34.377  18.368   3.745
68351W        W33611   8.929  29.573  12.482
68352W        W33612  18.909  28.483   2.719
68353W        W33613  34.027  17.858   3.064
68354W        W33614  13.223  44.033   2.125
68355W        W33615  38.785  12.847   1.903
68356W        W33616  11.920   5.697   9.757
68357W        W33617  37.997   8.027  12.142
68358W        W33618  11.231  17.292   2.779
68359W        W33619  23.481  11.040   3.096
68360W        W33620  17.299  43.516  12.837
68361W        W33621  42.610   6.314  11.610
68362W        W33622  12.177  26.367  11.208
68363W        W33623   2.201  17.785  14.058
68364W        W33624   1.353  17.076   4.416
68365W        W33625   6.717  30.371   2.612
68366W        W33626   1.342  28.739   3.223
68367W        W33627   4.678   4.949   2.284
68368W        W33628  44.107  32.804   0.383
68369W        W33629   6.655   1.966   2.533
68370W        W33630  36.285  41.897   2.277
68371W        W33631  32.470  42.866  14.572
68372W        W33632  42.999  13.518  14.938
68373W        W33633  31.594  38.373   0.270
68374W        W33634  35.671  33.702  12.585
68375W        W33635   9.929  41.994  10.971
68376W        W33636  40.034   2.781  13.086
68377W        W33637  25.135  35.378   2.549
68378W        W33638  16.656  31.151   0.354
68379W        W33639  43.909  23.529   1.359
68380W        W33640   9.775  23.143  12.141
68381W        W33641  23.677  35.548  12.205
68382W        W33642  25.256  33.103  11.231
68383W        W33643  34.686  17.832  10.603
68384W        W33644  26.725  22.180  13.414
68385W        W33645  40.141  37.535  11.488
68386W        W33646  36.125  24.543  10.648
68387W        W33647  42.942  10.385  10.643
68388W        W33648  19.011  17.764   3.482
68389W        W33649   1.013  20.865  10.931
68390W        W33650  22.621   9.502   4.115
68391W        W33651   2.277   2.256  13.433
68392W        W33652  28.921  40.818  12.984
68393W        W33653  34.960  28.527   2.171
68394W        W33654  11.576  18.955   4.195
68395W        W33655   5.560   5.523   3.196
68396W        W33656  24.054  10.430  14.074
68397W        W33657   3.899  26.394   1.806
68398W        W33658  11.909   5.209   3.747
68399W        W33659  19.034  28.693   4.201
68400W        W33660  15.309  25.319  10.686
68401W        W33661  41.296  43.489   2.965
68402W        W33662   5.156  27.015  11.566
68403W        W33663  37.247  19.639  13.502
68404W        W33664  43.357  36.252  11.181
68405W        W33665   7.804  33.252  11.532
68406W        W33666   4.659  11.356   0.163
68407W        W33667  34.555  25.161  11.628
68408W        W33668  18.690  23.356  10.139
68409W        W33669   5.275   4.993   3.805
68410W        W33670  29.040  16.914   4.155
68411W        W33671  41.859   3.479   3.298
68412W        W33672  17.233  22.404  11.304
68413W        W33673  26.114  29.042  12.840
68414W        W33674  27.162   5.720   9.658
68415W        W33675  37.012  19.191   0.724
68416W        W33676  40.990  13.351  11.598
68417W        W33677   0.246  36.979  12.387
68418W        W33678  41.802  19.924   0.907
68419W        W33679  11.664  24.061  10.433
68420W        W33680  29.152   6.678   2.720
68421W        W33681  19.041  40.045   2.328
68422W        W33682   3.733  16.708   2.670
68423W        W33683  33.710  20.979  12.539
68424W        W33684  11.066   4.821  13.567
68425W        W33685  21.167  21.598   2.171
68426W        W33686  44.862  29.020  13.981
68427W        W33687  30.182   0.171   2.912
68428W        W33688  24.515  42.680  13.955
68429W        W33689  21.312   3.398   2.890
68430W        W33690  18.092  44.438   1.290
68431W        W33691  34.772  25.898  12.562
68432W        W33692  43.322  16.075   1.290
68433W        W33693  14.795  40.399   3.991
68434W        W33694  32.940  44.721  12.569
68435W        W33695  11.680  34.290   0.348
68436W        W33696  27.657  23.262  14.929
68437W        W33697  15.513  25.251  13.057
68438W        W33698  31.030  40.221  13.872
68439W        W33699   5.754  15.240   1.230
68440W        W33700  26.710  30.639  10.527
68441W        W33701   8.406  44.994   4.207
68442W        W33702  13.136   9.486  12.510
68443W        W33703  25.498  17.626  14.766
68444W        W33704  30.403  39.801   0.381
68445W        W33705  27.511   1.463  12.119
68446W        W33706  21.567  14.990   2.088
68447W        W33707   7.616  15.101   1.951
68448W        W33708   0.803  33.763  13.665
68449W        W33709   3.709  12.327   2.349
68450W        W33710  16.202  16.102  10.509
68451W        W33711  16.777  39.587  13.997
68452W        W33712  22.277  19.474   3.759
68453W        W33713   4.584   0.522  14.440
68454W        W33714  20.967   9.466  13.885
68455W        W33715  35.961  28.409  12.556
68456W        W33716  26.404  39.528  13.486
68457W        W33717  37.105  24.827  11.656
68458W        W33718  21.656   1.692  10.945
68459W        W33719  17.087   5.262  11.080
68460W        W33720  38.807   3.304   1.962
68461W        W33721  27.240  31.472   3.731
68462W        W33722  37.022  37.984  11.954
68463W        W33723  36.309  38.517   3.084
68464W        W33724   9.565  20.120   3.668
68465W        W33725   6.657   1.287   4.770
68466W        W33726  30.572  34.914  12.221
68467W        W33727  40.052   6.164   3.405
68468W        W33728  26.068  43.604   4.605
68469W        W33729  25.664  33.866  11.446
68470W        W33730  42.308  35.336   2.720
68471W        W33731  42.780  37.046   0.420
68472W        W33732   7.090  23.481  14.935
68473W        W33733  44.400  37.360   0.734
68474W        W33734  34.983  31.959   4.970
68475W        W33735  14.080  30.317  14.954
68476W        W33736  10.380   5.797   2.310
68477W        W33737  19.885  16.960   0.848
68478W        W33738  28.690   1.911   0.836
68479W        W33739   3.091  27.728  14.887
68480W        W33740  31.166  24.666   2.189
68481W        W33741  12.157  35.423  14.928
68482W        W33742  19.330  34.552  13.039
68483W        W33743  11.242  40.881  13.551
68484W        W33744  22.810  12.811   1.237
68485W        W33745  23.331   1.495  10.274
68486W        W33746  36.540  30.084   0.841
68487W        W33747  43.816  37.582  14.294
68488W        W33748  13.714  31.862   1.322
68489W        W33749   1.937   9.626   1.379
68490W        W33750  16.840  10.287  14.804
68491W        W33751  24.148  39.336   3.647
68492W        W33752  41.969  43.208  14.791
68493W        W33753  44.308  14.692   0.289
68494W        W33754  18.300  26.697  14.490
68495W        W33755  14.398   3.655  14.308
68496W        W33756   6.836  10.343  14.361
68497W        W33757  21.802  23.902  14.923
68498W        W33758  23.271   7.750   0.759
68499W        W33759  36.538  14.802   4.676
68500W        W33760  29.904   6.792  14.958
68501W        W33761  22.594  31.848   3.857
68502W        W33762  23.722  20.213   0.461
68503W        W33763  30.636  35.132   1.267
68504W        W33764  32.022   6.960  11.001
68505W        W33765  33.635  41.211   1.501
68506W        W33766  14.083  38.566  11.592
68507W        W33767   6.660  38.397  14.783
68508W        W33768  14.754  36.824  12.972
68509W        W33769  40.936  30.986  10.971
68510W        W33770  15.232  35.055  11.144
68511W        W33771  34.633   4.421   4.542
68512W        W33772   2.270  21.509   2.664
68513W        W33773  10.964   7.153  13.100
68514W        W33774   8.430   5.411  11.015
68515W        W33775  10.298  17.020   0.464
68516W        W33776   4.403  43.959   4.165
68517W        W33777  41.241  22.792   2.207
68518W        W33778  44.284  30.934  14.923
68519W        W33779   2.692  30.104  12.149
68520W        W33780  29.086  28.964  12.574
68521W        W33781  14.052  41.226  12.969
68522W        W33782   2.381  12.660  11.297
68523W        W33783  29.192  35.533  10.672
68524W        W33784  34.827  18.768   2.767
68525W        W33785  39.464   9.433  13.528
68526W        W33786  31.477   5.802   4.326
68527W        W33787   9.332  16.399  14.347
68528W        W33788   2.854  27.398  14.275
68529W        W33789  12.344  16.236   2.289
68530W        W33790  33.540  21.069   0.326
68531W        W33791  32.917  30.795  11.895
68532W        W33792   3.209   5.739   1.329
68533W        W33793  35.119  22.493   4.567
68534W        W33794  15.020  11.700   4.681
68535W        W33795  41.525   4.498  11.465
68536W        W33796  30.490  19.843  12.901
68537W        W33797  28.303  11.991  12.562
68538W        W33798  34.751  32.936  13.921
68539W        W33799  44.538   9.889  12.492
68540W        W33800  19.939  40.918  13.389
68541W        W33801   0.390  28.971   0.029
68542W        W33802  18.329  34.023   0.892
68543W        W33803  33.049   5.198   3.692
68544W        W33804  36.081  10.616   2.939
68545W        W33805   9.424  18.618  12.368
68546W        W33806  12.792  38.776  13.502
68547W        W33807  29.845  30.680   2.602
68548W        W33808  19.121  14.989  14.961
68549W        W33809  21.802   5.400   1.809
68550W        W33810  30.109  13.581  13.906
68551W        W33811   1.845  43.926   4.130
68552W        W33812   2.615   6.795  13.433
68553W        W33813  10.239  44.516   3.783
68554W        W33814  31.613   4.921   4.546
68555W        W33815  36.867  33.648   4.667
68556W        W33816  18.670  40.390  10.583
68557W        W33817  37.157  39.465   0.442
68558W        W33818  40.028  18.023   3.649
68559W        W33819  29.091  43.687   0.609
68560W        W33820  17.707   5.418  13.947
68561W        W33821  14.743  34.657  13.510
68562W        W33822   8.692  37.824   2.373
68563W        W33823  39.469  28.369  13.726
68564W        W33824  21.516  39.741  13.685
68565W        W33825  17.270   9.425   4.816
68566W        W33826  16.189  19.074  13.831
68567W        W33827  22.755  27.142  13.090
68568W        W33828  38.354   4.867  14.800
68569W        W33829  32.459  34.469   1.351
68570W        W33830  35.624  10.727  13.537
68571W        W33831  21.762  27.278   0.877
68572W        W33832  27.804   6.031   1.252
68573W        W33833  15.241  36.648  12.836
68574W        W33834   8.854  40.833   1.438
68575W        W33835   1.677  20.244   2.320
68576W        W33836  29.859  24.842   1.884
68577W        W33837   4.802  34.852  10.716
68578W        W33838   2.255  42.522   0.097
68579W        W33839   2.740  41.439   3.430
68580W        W33840   7.651  10.139  14.560
68581W        W33841   7.549   8.847  11.997
68582W        W33842  40.831  40.223  10.814
68583W        W33843   4.429   4.862   1.348
68584W        W33844   5.286  41.075   4.322
68585W        W33845  25.950  25.182   3.761
68586W        W33846  19.067   9.696   4.183
68587W        W33847  15.578   6.750  10.932
68588W        W33848  19.439  17.326  14.312
68589W        W33849   4.602   6.796   4.683
68590W        W33850  28.346  28.531   3.680
68591W        W33851  16.018  36.306   2.828
68592W        W33852  42.719  22.447   2.883
68593W        W33853  27.991  10.252  11.200
68594W        W33854  17.157  41.966  12.746
68595W        W33855  29.718   9.176   4.543
68596W        W33856  19.491  40.460  13.411
68597W        W33857  29.891  14.858  14.035
68598W        W33858  40.932   8.243  14.295
68599W        W33859  16.378  19.151   5.031
68600W        W33860  26.489  16.984   4.646
68601W        W33861  29.189  36.065   0.342
68602W        W33862  34.503   4.018  13.547
68603W        W33863  13.122  35.774   0.841
68604W        W33864  10.946   8.765  12.542
68605W        W33865  11.190  33.382   3.559
68606W        W33866   9.788  39.276   1.019
68607W        W33867  39.227   4.091  14.522
68608W        W33868  43.062  25.468   4.215
68609W        W33869  23.907  41.345  11.340
68610W        W33870  12.809  35.724  12.450
68611W        W33871  11.009  38.830   0.386
68612W        W33872   9.849  42.872   2.824
68613W        W33873  23.082  21.581  10.468
68614W        W33874   1.742   7.643   4.375
68615W        W33875  11.100  17.297  10.005
68616W        W33876  34.917   2.572  13.460
68617W        W33877  13.768  42.260   2.188
68618W        W33878  20.563  22.192  11.066
68619W        W33879  41.423  27.938   3.270
68620W        W33880  14.742  29.428   4.831
68621W        W33881   9.928  41.822   0.868
68622W        W33882  35.276  43.741   0.646
68623W        W33883  17.651  33.683  11.138
68624W        W33884  14.330  36.993  14.836
68625W        W33885  35.187  21.692  13.899
68626W        W33886  20.608  21.828  11.496
68627W        W33887   1.730  37.816  12.518
68628W        W33888  39.672  20.647   4.982
68629W        W33889  40.671  15.400   3.113
68630W        W33890  16.182   6.028   0.351
68631W        W33891  38.102   9.545   4.101
68632W        W33892  26.815   0.867  12.451
68633W        W33893  30.208  19.147   1.325
68634W        W33894  21.490   0.881  12.004
68635W        W33895  23.624  15.576   4.914
68636W        W33896  21.549   1.844   0.086
68637W        W33897  25.286  18.212   4.489
68638W        W33898  25.017  31.482   0.028
68639W        W33899  14.380  41.701  14.965
68640W        W33900  43.711  39.364  12.186
68641W        W33901   7.452  21.299   3.678
68642W        W33902  16.817  23.623   3.783
68643W        W33903  10.529  42.834   4.106
68644W        W33904  19.226  12.514  14.414
68645W        W33905  14.290  31.505   0.458
68646W        W33906  24.127  17.143   1.233
68647W        W33907  15.546  31.484   0.753
68648W        W33908  18.614   0.221  11.963
68649W        W33909  10.070   8.772  10.494
68650W        W33910  36.601   5.857  12.102
68651W        W33911  22.907  10.168  14.564
68652W        W33912  34.674   7.151  11.996
68653W        W33913  20.361  20.727  11.921
68654W        W33914  26.990  24.310   1.291
68655W        W33915  24.996  15.534  11.867
68656W        W33916  10.405  31.881  13.475
68657W        W33917   3.884  17.285  13.328
68658W        W33918   0.820  29.928  12.030
68659W        W33919  27.450   7.579   0.547
68660W        W33920   6.632  35.641   0.413
68661W        W33921  34.905   3.864   1.285
68662W        W33922  18.182  20.676  14.478
68663W        W33923  36.614   8.075  10.943
68664W        W33924  19.468   7.330  12.893
68665W        W33925   7.906  42.813   1.926
68666W        W33926  14.179  40.505  13.763
68667W        W33927   7.453   0.201   3.693
68668W        W33928   4.406   8.648  10.612
68669W        W33929  29.251  25.022   5.513
68670W        W33930  43.467  42.557  14.445
68671W        W33931  19.697  14.993  12.895
68672W        W33932  10.667  24.514   3.375
68673W        W33933  40.290  44.091   1.750
68674W        W33934  13.707  18.281  11.938
68675W        W33935   1.754  30.160   4.757
68676W        W33936  22.437  38.540   4.153
68677W        W33937  18.238  33.589   4.033
68678W        W33938  26.036  17.758   3.461
68679W        W33939  32.815  32.538   2.928
68680W        W33940  24.143  16.651   4.409
68681W        W33941   0.203  43.307  11.125
68682W        W33942  19.899   2.426  13.207
68683W        W33943  30.581   7.864   0.573
68684W        W33944  21.095  43.079   1.740
68685W        W33945  31.368  21.606   1.861
68686W        W33946  35.751  40.799  13.021
68687W        W33947  32.929   0.070   2.480
68688W        W33948  40.010   7.361  12.125
68689W        W33949  44.821  34.062  14.356
68690W        W33950  13.651  20.250  12.553
68691W        W33951  39.990   1.914   1.761
68692W        W33952  10.734   3.482  11.703
68693W        W33953  16.721  24.243  11.079
68694W        W33954   8.808  16.946   3.636
68695W        W33955  11.732  36.341  14.856
68696W        W33956  24.533   8.926  12.553
68697W        W33957  28.337  21.607  12.857
68698W        W33958  11.891  18.079  12.421
68699W        W33959  23.409  39.986  10.699
68700W        W33960  35.101  37.929  11.072
68701W        W33961  11.361  34.680   3.209
68702W        W33962   9.223  14.579  11.717
68703W        W33963  19.076  37.315  10.431
68704W        W33964  26.561  19.059   0.542
68705W        W33965  22.838  15.429  15.000
68706W        W33966  26.059  14.360  14.178
68707W        W33967  26.569  29.991   0.444
68708W        W33968  19.526  29.080   2.630
68709W        W33969   1.294   1.450   4.748
68710W        W33970  20.705  20.126   0.800
68711W        W33971  26.766  19.673  13.427
68712W        W33972   2.787  25.139  13.291
68713W        W33973   9.857  34.305   1.832
68714W        W33974  21.010  30.408   1.628
68715W        W33975  16.403   7.784  11.322
68716W        W33976  25.133  17.570   3.144
68717W        W33977   2.175   3.728  12.479
68718W        W33978  43.989  18.711  13.308
68719W        W33979   0.783  32.990  11.650
68720W        W33980  19.728  22.636  11.570
68721W        W33981  13.096   7.843   1.159
68722W        W33982   7.362  43.608  11.506
68723W        W33983  38.784  12.121   3.252
68724W        W33984   2.136  43.980   3.267
68725W        W33985  15.240  44.544   4.253
68726W        W33986  26.515  27.518   2.866
68727W        W33987   5.660  41.099  12.292
68728W        W33988   3.715   6.880   3.194
68729W        W33989  31.161  36.451   1.167
68730W        W33990  22.690   8.814  13.808
68731W        W33991  25.657  24.991   4.192
68732W        W33992   5.301  11.283  11.138
68733W        W33993  20.610  18.577  10.525
68734W        W33994  30.508  17.970  14.790
68735W        W33995  20.982  22.563  13.433
68736W        W33996  12.603  33.580   3.566
68737W        W33997   1.280  29.065  11.049
68738W        W33998  42.898  25.293   3.219
68739W        W33999   0.547  25.623   0.068
68740W        W34000  43.890  15.035   0.407
68741W        W34001  34.060  38.023  13.137
68742W        W34002  19.971  41.509  14.032
68743W        W34003   4.925  43.023  12.806
68744W        W34004   5.202  10.643  12.926
68745W        W34005   0.242  39.016   1.639
68746W        W34006  32.691  10.789   2.003
68747W        W34007  31.287  42.534   4.069
68748W        W34008  31.784  42.079  14.341
68749W        W34009  18.557   2.682   3.926
68750W        W34010  16.180  30.102   0.426
68751W        W34011  19.489  38.543   1.766
68752W        W34012  23.435  37.326   3.296
68753W        W34013  10.176  26.896   3.754
68754W        W34014   2.921  39.371  13.939
68755W        W34015   0.758  31.008   4.041
68756W        W34016   9.933   4.628  13.886
68757W        W34017  19.775  42.985   3.964
68758W        W34018  40.065  26.136   1.197
68759W        W34019  36.952  16.426   3.168
68760W        W34020   2.786  26.511  14.421
68761W        W34021  38.501  12.049  10.771
68762W        W34022  28.999  13.929   4.461
68763W        W34023  39.468  40.814  10.981
68764W        W34024  42.913  36.887   0.901
68765W        W34025  23.694  11.827   2.455
68766W        W34026   3.041  37.006   0.224
68767W        W34027  23.638  23.147  14.531
68768W        W34028   3.323  19.699   3.881
68769W        W34029  35.472  33.474   0.456
68770W        W34030  27.546   3.210  13.466
68771W        W34031  30.648  11.717   9.765
68772W        W34032  11.794  22.236  14.842
68773W        W34033  18.801   2.897   4.324
68774W        W34034  11.781  44.025  13.849
68775W        W34035  11.653  41.765  13.879
68776W        W34036   1.973  38.502  14.976
68777W        W34037  11.381  37.198   2.294
68778W        W34038  37.968  11.291   3.764
68779W        W34039  15.714  27.722   2.063
68780W        W34040  42.462   6.054  12.035
68781W        W34041  39.038  23.512   2.312
68782W        W34042  29.694  22.728   1.394
68783W        W34043  35.323  19.037  12.554
68784W        W34044  17.662   2.870   2.564
68785W        W34045  38.344  11.528  12.527
68786W        W34046  19.861  24.892   3.675
68787W        W34047  43.479  38.359  11.704
68788W        W34048   0.788  20.491   2.118
68789W        W34049  10.465  10.181   1.275
68790W        W34050  27.513  40.298  13.498
68791W        W34051  18.118  10.730  13.586
68792W        W34052  43.237  40.089   3.660
68793W        W34053  17.283  34.048  13.362
68794W        W34054  22.645  35.105  14.731
68795W        W34055  30.142   2.291  13.760
68796W        W34056  20.207  19.038  13.319
68797W        W34057  25.112  10.906   1.600
68798W        W34058  37.131  10.699  13.426
68799W        W34059  16.571  37.818   0.358
68800W        W34060   3.244  11.894   5.145
68801W        W34061   6.084  31.609  11.171
68802W        W34062  29.444  43.869  14.801
68803W        W34063  25.828  36.547  14.947
68804W        W34064   6.827  14.271   3.513
68805W        W34065  41.539   5.961  10.838
68806W        W34066  19.127  26.562   4.487
68807W        W34067  26.280  28.578   1.235
68808W        W34068  24.173   5.597  10.825
68809W        W34069  14.709   3.199   3.015
68810W        W34070   8.552  17.737   2.252
68811W        W34071   7.450  29.029   4.044
68812W        W34072  10.458  24.736   2.390
68813W        W34073  29.866  20.157   1.818
68814W        W34074  31.903  24.689   5.431
68815W        W34075  43.315   2.833   2.325
68816W        W34076  28.276  17.670   4.113
68817W        W34077  31.410  18.315  14.026
68818W        W34078  38.046   4.948  11.701
68819W        W34079  37.954   5.826  11.699
68820W        W34080   3.982   2.975   2.811
68821W        W34081   4.973  26.179   2.996
68822W        W34082  44.820  19.623   1.718
68823W        W34083  30.429   8.163  13.119
68824W        W34084  33.177  30.179   5.001
68825W        W34085   4.943  40.296  14.224
68826W        W34086   7.923   6.759   2.321
68827W        W34087   2.155   2.542  10.533
68828W        W34088  40.458  33.541   4.024
68829W        W34089  13.058  39.194   3.259
68830W        W34090  30.197   4.553   2.330
68831W        W34091  23.266  40.438  13.005
68832W        W34092  39.420  14.249   2.713
68833W        W34093   7.699  14.264  10.909
68834W        W34094   3.926  30.185  14.027
68835W        W34095   2.681  27.934   0.493
68836W        W34096   8.392  34.936  13.328
68837W        W34097  25.457  38.262   4.441
68838W        W34098  32.609  37.823   0.867
68839W        W34099  11.338  31.104   4.536
68840W        W34100  40.634   9.421  13.920
68841W        W34101  22.451  13.366  13.508
68842W        W34102  20.195  29.569  14.712
68843W        W34103  39.063  27.507   4.188
68844W        W34104  44.412   8.210  11.198
68845W        W34105  14.103  35.071   4.897
68846W        W34106  14.884  27.698   3.743
68847W        W34107  23.954  22.188   2.363
68848W        W34108   8.438   4.627   1.626
68849W        W34109   5.453  36.556  14.430
68850W        W34110  38.369  15.911   4.992
68851W        W34111   2.846  16.561  13.585
68852W        W34112   3.966   6.808   0.765
68853W        W34113  43.790  25.879   3.085
68854W        W34114  38.295  25.264   3.682
68855W        W34115   2.293   7.142  14.791
68856W        W34116  22.274   7.790   4.721
68857W        W34117  39.048  26.209  14.033
68858W        W34118   9.139   8.526   0.917
68859W        W34119   8.377  18.594  11.316
68860W        W34120  34.675  24.701  12.459
68861W        W34121  22.318   1.948  14.351
68862W        W34122  15.495   6.201   0.350
68863W        W34123   9.773  33.694  12.419
68864W        W34124  21.199  20.462   0.413
68865W        W34125   8.189  29.657  14.844
68866W        W34126   3.832  27.248  14.913
68867W        W34127  40.411   8.868   0.749
68868W        W34128  15.485  26.871   4.463
68869W        W34129  33.115  22.195  13.504
68870W        W34130  19.734   8.398  13.568
68871W        W34131   4.660  30.898  12.263
68872W        W34132  38.042  23.628   2.707
68873W        W34133   3.016  29.488   5.066
68874W        W34134  11.607  13.863  11.091
68875W        W34135  28.672  29.406   0.828
68876W        W34136  30.328  39.532  14.971
68877W        W34137  33.295   0.716  14.358
68878W        W34138   9.220   2.788  13.821
68879W        W34139  37.378  12.103  14.067
68880W        W34140   5.916  35.553  12.001
68881W        W34141   5.695   1.435  12.996
68882W        W34142  13.873   5.267  11.396
68883W        W34143  15.278   1.815  13.692
68884W        W34144  25.963   3.557  12.417
68885W        W34145  19.879  19.130   4.911
68886W        W34146  43.118   9.034   2.312
68887W        W34147  37.440  41.083  12.201
68888W        W34148  10.600  36.374  10.403
68889W        W34149  19.000  37.105   4.415
68890W        W34150  34.997  11.664  14.295
68891W        W34151   7.914  38.368   0.456
68892W        W34152  26.223  26.473  13.448
68893W        W34153  12.219  17.613   4.047
68894W        W34154  41.596  18.335  14.937
68895W        W34155  28.541  40.479  12.873
68896W        W34156  44.383   5.288   4.569
68897W        W34157  14.905  39.800  12.600
68898W        W34158  39.444  26.215  10.672
68899W        W34159  22.987  15.065   2.121
68900W        W34160  34.334  11.823   4.583
68901W        W34161   6.929  42.212  12.993
68902W        W34162  15.711  22.984  11.606
68903W        W34163  43.541  15.737   0.389
68904W        W34164  20.873  40.231  12.933
68905W        W34165   3.429  30.069   2.242
68906W        W34166  44.775  18.634  14.564
68907W        W34167  36.608  38.997   1.432
68908W        W34168  34.908  13.629   1.181
68909W        W34169  32.611  40.567  14.782
68910W        W34170  13.390  18.581  13.076
68911W        W34171  43.622  28.185   0.424
68912W        W34172  11.617  12.659  13.030
68913W        W34173   1.387  24.099  10.290
68914W        W34174  15.198  34.015   1.307
68915W        W34175  31.519  10.067  10.496
68916W        W34176  37.565  24.025  12.129
68917W        W34177  26.544  35.893  12.183
68918W        W34178  15.161  15.183  13.029
68919W        W34179  43.408   7.093  11.071
68920W        W34180  35.772  38.112  11.963
68921W        W34181  32.966  17.769   2.422
68922W        W34182  32.459  12.288   1.373
68923W        W34183   8.881  18.726  13.375
68924W        W34184  42.004  38.398  10.459
68925W        W34185  32.690  27.770  14.883
68926W        W34186   0.265  43.890  12.173
68927W        W34187  15.063   7.650  10.157
68928W        W34188  28.272  28.736  10.811
68929W        W34189  15.504  39.379   3.724
68930W        W34190  30.864  15.824   2.783
68931W        W34191  31.590  12.217   2.884
68932W        W34192   9.650  35.549   1.143
68933W        W34193  14.619   5.253  13.366
68934W        W34194   9.037  24.556  11.209
68935W        W34195  15.543   0.887   2.650
68936W        W34196  31.979   8.184   1.473
68937W        W34197  14.232  25.459   3.515
68938W        W34198  39.469  38.358   1.649
68939W        W34199  32.851  14.027   3.158
68940W        W34200   2.050   9.557   4.515
68941W        W34201  24.531   0.041   1.762
68942W        W34202  22.640   8.112   2.586
68943W        W34203  38.700   2.161   2.600
68944W        W34204  10.594  34.756  12.975
68945W        W34205  39.450  30.695  10.644
68946W        W34206  27.138   4.339  11.948
68947W        W34207   6.160   2.010   2.364
68948W        W34208  22.561  43.288  12.962
68949W        W34209  14.570   4.826  12.435
68950W        W34210  27.574  30.246   0.509
68951W        W34211  14.569  42.857   4.157
68952W        W34212  31.085   3.225   0.321
68953W        W34213  22.406  21.190  10.171
68954W        W34214   4.873  43.490  11.054
68955W        W34215  18.647  17.020   2.881
68956W        W34216  16.312  22.570   4.087
68957W        W34217  33.929  27.656   1.865
68958W        W34218  15.681  35.314  12.983
68959W        W34219   2.208  11.086   0.352
68960W        W34220  35.553  20.716  13.266
68961W        W34221   2.954   3.506  13.440
68962W        W34222   1.967  32.981   2.616
68963W        W34223  11.395  34.160   3.118
68964W        W34224  24.667  18.629  13.347
68965W        W34225  14.098  31.844   5.004
68966W        W34226  44.510   0.409  14.494
68967W        W34227  26.357  25.469   9.716
68968W        W34228  23.130  41.796  12.895
68969W        W34229   1.279  42.729  13.338
68970W        W34230  35.480  28.904  14.773
68971W        W34231  16.605  18.075  14.818
68972W        W34232  31.434  28.913   0.310
68973W        W34233  27.391  15.586   0.195
68974W        W34234  32.584  42.268  13.500
68975W        W34235   3.206  16.665   2.585
68976W        W34236   0.958  34.019  10.689
68977W        W34237  26.025  26.453  14.944
68978W        W34238  22.965  16.421  11.011
68979W        W34239  42.060   1.361  12.300
68980W        W34240  42.015  32.439  12.451
68981W        W34241  29.453   7.257   4.818
68982W        W34242  15.036   6.370   2.295
68983W        W34243   6.608  42.778  13.803
68984W        W34244  14.082   8.893   4.219
68985W        W34245  39.624  43.410   2.107
68986W        W34246  44.493  16.555  12.634
68987W        W34247  20.049  12.228   4.273
68988W        W34248  15.212  42.917   1.504
68989W        W34249  34.105   4.883  13.652
68990W        W34250  22.218  35.400   2.497
68991W        W34251  23.342  11.016  13.556
68992W        W34252   5.743  34.262  14.904
68993W        W34253  14.361  26.186  13.110
68994W        W34254  36.290  20.296  12.989
68995W        W34255  40.464  29.471  14.847
68996W        W34256  15.214  38.144   1.408
68997W        W34257  32.128  35.726  12.146
68998W        W34258   7.916  43.682   3.198
68999W        W34259  42.483   3.874  14.767
69000W        W34260  23.044  29.239   0.784
69001W        W34261  11.243   7.438   2.219
69002W        W34262  37.390  21.699   3.231
69003W        W34263   8.671  28.576   4.587
69004W        W34264   2.299  43.510  10.738
69005W        W34265  22.982  39.020  10.612
69006W        W34266  25.139  44.583  13.036
69007W        W34267  40.956  13.582   2.298
69008W        W34268  29.200  20.495  10.480
69009W        W34269  36.483  12.304   2.933
69010W        W34270  25.149   2.275   3.944
69011W        W34271  33.556  43.638  11.019
69012W        W34272  15.247  41.636  10.595
69013W        W34273   9.200  28.054   0.469
69014W        W34274   1.425  28.970  14.305
69015W        W34275  33.072  42.993   1.960
69016W        W34276   2.186  18.688  12.519
69017W        W34277   0.959  29.741  14.919
69018W        W34278   8.022  17.806   2.230
69019W        W34279  27.140  20.645   2.601
69020W        W34280   3.175   8.847  14.433
69021W        W34281  30.616  15.015  12.896
69022W        W34282  20.542  41.741   3.291
69023W        W34283   1.452  11.224   3.190
69024W        W34284   2.740  18.857   0.522
69025W        W34285  26.682  14.258   3.274
69026W        W34286  32.063  22.319   3.363
69027W        W34287  10.748  37.980  11.511
69028W        W34288  28.604  12.748   1.607
69029W        W34289   7.142  38.810   3.185
69030W        W34290  11.860  21.315  11.222
69031W        W34291  37.108  30.485   0.258
69032W        W34292  44.361  23.556   0.890
69033W        W34293  29.982   9.797   3.745
69034W        W34294  26.155  17.387   0.401
69035W        W34295  19.764  43.963   0.858
69036W        W34296  37.441  31.312  12.037
69037W        W34297  34.949  27.731   0.315
69038W        W34298  42.747  32.210   4.661
69039W        W34299  22.826   1.501  10.137
69040W        W34300   5.314  22.272   3.959
69041W        W34301  11.432   2.207  11.752
69042W        W34302   4.439  34.066   3.615
69043W        W34303  37.782  35.118  12.130
69044W        W34304  18.405  18.973   4.623
69045W        W34305  35.533  26.635  11.110
69046W        W34306  37.955  11.807  11.454
69047W        W34307  20.217  21.781  14.998
69048W        W34308  21.222  35.431  13.465
69049W        W34309   8.719  39.414  11.170
69050W        W34310  29.019   7.973   4.034
69051W        W34311  39.349  12.267  14.707
69052W        W34312  18.116  25.598   1.674
69053W        W34313  39.493   7.680  13.885
69054W        W34314  37.054   2.502  14.845
69055W        W34315   1.161  34.484  10.724
69056W        W34316  12.565  34.520   0.090
69057W        W34317  40.676  32.404   1.355
69058W        W34318  12.712  16.843  11.930
69059W        W34319  25.371  34.559   2.164
69060W        W34320   9.314  38.544  11.101
69061W        W34321  21.354   5.270  13.045
69062W        W34322   6.581  12.612   0.990
69063W        W34323   2.656  11.343   5.001
69064W        W34324  31.050  13.547   2.408
69065W        W34325  21.559   1.146  10.240
69066W        W34326  22.620  37.841  14.266
69067W        W34327  21.863   2.015   4.178
69068W        W34328  15.893  28.780  12.658
69069W        W34329  37.257  32.673   2.049
69070W        W34330   4.661   5.162   0.351
69071W        W34331  42.918  39.639   2.054
69072W        W34332  16.063   0.757   3.418
69073W        W34333  10.836  11.599   0.245
69074W        W34334  16.811   0.784  10.724
69075W        W34335  38.104  32.356  12.528
69076W        W34336  12.945  43.900   1.012
69077W        W34337   9.140   0.487  12.064
69078W        W34338  38.719  19.547   1.302
69079W        W34339  19.293  10.926  10.525
69080W        W34340  23.529  39.069   1.876
69081W        W34341  42.563  44.740   3.879
69082W        W34342  10.900   2.027   0.832
69083W        W34343  23.738  31.115  13.084
69084W        W34344  25.469  41.817  11.177
69085W        W34345   2.917   9.139   0.277
69086W        W34346  34.251  20.341  11.219
69087W        W34347  37.314   9.285   3.257
69088W        W34348  32.489  37.249   1.712
69089W        W34349   2.654   9.084   1.793
69090W        W34350   7.294  15.338  13.152
69091W        W34351  42.876   2.946  11.496
69092W        W34352  37.495   0.779   3.762
69093W        W34353  23.180  27.287  11.086
69094W        W34354  44.184  23.179  11.487
69095W        W34355  16.534   8.659   2.365
69096W        W34356  29.459  40.052   3.235
69097W        W34357  25.302   0.493   0.350
69098W        W34358  29.555  16.553   1.907
69099W        W34359   4.255  13.649  12.554
69100W        W34360   5.428  14.707  11.194
69101W        W34361  40.105  14.790   0.334
69102W        W34362  26.217  42.883   2.422
69103W        W34363  32.499  32.096  11.822
69104W        W34364  39.453   2.492   3.111
69105W        W34365  43.009   8.512   4.547
69106W        W34366  38.522  34.938   1.915
69107W        W34367  28.662   3.893   1.834
69108W        W34368  24.355  19.134   0.014
69109W        W34369  27.128  34.505  12.952
69110W        W34370  32.205  24.690   3.685
69111W        W34371  18.620  10.205  10.017
69112W        W34372  36.408  28.948  13.407
69113W        W34373  23.512  32.941   0.276
69114W        W34374  27.127   3.834   2.861
69115W        W34375  28.972  23.069  11.539
69116W        W34376   5.200  15.678   3.283
69117W        W34377   6.197  12.300  10.064
69118W        W34378  21.895   4.888   1.918
69119W        W34379  18.874  18.104  10.730
69120W        W34380  25.093  39.558  14.297
69121W        W34381   0.409  39.650   1.963
69122W        W34382  18.443   5.810   0.814
69123W        W34383  15.105  24.027  11.998
69124W        W34384  21.972   0.368  11.656
69125W        W34385   0.931   9.825  10.871
69126W        W34386  29.760  11.910   3.259
69127W        W34387  24.711   3.222   2.821
69128W        W34388  17.418  16.603   3.677
69129W        W34389  18.271   8.859   2.408
69130W        W34390  14.150  16.907  11.992
69131W        W34391  27.434   1.972  10.735
69132W        W34392  24.973  30.638  12.344
69133W        W34393  29.775   2.542   1.934
69134W        W34394  37.800  33.884   1.850
69135W        W34395  35.863  18.588   1.687
69136W        W34396  42.251  19.294  13.584
69137W        W34397   7.641  10.133   0.544
69138W        W34398  28.526  29.049   2.704
69139W        W34399  12.246   1.423   3.228
69140W        W34400  11.179  23.432  13.425
69141W        W34401  21.597  12.742   0.285
69142W        W34402  17.298   0.817   4.907
69143W        W34403   8.847  32.015  12.019
69144W        W34404  28.737  34.855   3.718
69145W        W34405   7.707  39.928   3.324
69146W        W34406   9.922  20.779  13.429
69147W        W34407  27.145  28.508   4.572
69148W        W34408  18.025  17.216  13.823
69149W        W34409  27.025  34.167  13.439
69150W        W34410  35.085  41.894  14.504
69151W        W34411   8.291   5.886   0.478
69152W        W34412  21.153   3.369  11.698
69153W        W34413  33.392  43.508  13.421
69154W        W34414  26.019  35.598  12.537
69155W        W34415   8.102   7.219   4.670
69156W        W34416   7.654  34.574   1.906
69157W        W34417   8.728  10.362   0.230
69158W        W34418   8.286  34.389  13.440
69159W        W34419  14.792  16.873  10.743
69160W        W34420  19.951  31.068   1.367
69161W        W34421  19.086  26.669  11.697
69162W        W34422  44.731  35.516   4.658
69163W        W34423  41.488   3.753  13.887
69164W        W34424  18.615  40.516   4.679
69165W        W34425   2.625  35.179   0.547
69166W        W34426  29.452  39.325   2.100
69167W        W34427   7.882  17.194  13.697
69168W        W34428  24.135  33.021   1.457
69169W        W34429  21.251  21.478   4.521
69170W        W34430  10.601   4.773   0.012
69171W        W34431  28.412  10.937   1.459
69172W        W34432  42.376  22.371  10.977
69173W        W34433  44.871  36.934   2.293
69174W        W34434   8.771  24.287  10.355
69175W        W34435  15.215  42.102  10.380
69176W        W34436   7.085  33.815   4.560
69177W        W34437   5.307  23.474  11.114
69178W        W34438   5.211  23.068  13.946
69179W        W34439   4.696   2.457  13.513
69180W        W34440  19.508  33.487  11.522
69181W        W34441  16.630  30.565   1.847
69182W        W34442  19.544   7.589  11.656
69183W        W34443  14.651  33.364  11.140
69184W        W34444   2.300  14.507  12.932
69185W        W34445  24.680  24.150   0.265
69186W        W34446  36.380   9.743   3.736
69187W        W34447  23.254  33.855  10.687
69188W        W34448  42.450  13.474  12.906
69189W        W34449   3.640  10.014   0.530
69190W        W34450  16.130  31.985  14.901
69191W        W34451   2.224  37.480  12.054
69192W        W34452   8.855  44.512   1.593
69193W        W34453  17.177  42.057   4.550
69194W        W34454  41.506  15.689   4.340
69195W        W34455   3.120   7.256  12.977
69196W        W34456   9.358  38.040   0.177
69197W        W34457  44.819  21.305   2.713
69198W        W34458  25.713  43.043  11.185
69199W        W34459  23.711  21.799   2.574
69200W        W34460   8.366   9.139  10.997
69201W        W34461  18.419   6.116   1.217
69202W        W34462  42.732  11.015  11.413
69203W        W34463  37.830   0.772  13.464
69204W        W34464  34.600  44.871  12.172
69205W        W34465  25.148  16.017  11.985
69206W        W34466  20.914  22.233   2.541
69207W        W34467  16.582  10.728   2.232
69208W        W34468   3.677   0.192  11.213
69209W        W34469   5.689  30.905   3.317
69210W        W34470  19.661  19.803   3.759
69211W        W34471  14.996   1.752  10.253
69212W        W34472  44.341  28.056   2.554
69213W        W34473   7.106  26.925   5.176
69214W        W34474   3.290   5.290   3.061
69215W        W34475  28.225  19.097   5.011
69216W        W34476   3.384  41.368   1.684
69217W        W34477  33.071   4.139  10.437
69218W        W34478  28.871  40.101  10.103
69219W        W34479  14.378  25.608   2.406
69220W        W34480   2.056   5.135   1.276
69221W        W34481  27.467  31.426  11.152
69222W        W34482  44.461  15.710   0.307
69223W        W34483   8.738  38.340   2.346
69224W        W34484  18.717  23.066  11.045
69225W        W34485  38.520   1.436  14.363
69226W        W34486  37.224   7.242  11.605
69227W        W34487  30.122  41.930  13.591
69228W        W34488  16.217  14.810  13.879
69229W        W34489   1.864  25.560   4.974
69230W        W34490  39.187  42.059   0.868
69231W        W34491  23.277   2.240  12.075
69232W        W34492   4.935  10.684   4.207
69233W        W34493  34.589  13.792   3.859
69234W        W34494  15.389  22.134  13.388
69235W        W34495  19.485  29.495   4.630
69236W        W34496   5.824   4.664   1.083
69237W        W34497  35.349  14.680   0.675
69238W        W34498  14.169  20.577  11.828
69239W        W34499  40.231  43.238   1.488
69240W        W34500  27.398  32.962  13.777
69241W        W34501   7.773  21.497   0.401
69242W        W34502  13.882  40.686  12.994
69243W        W34503   4.745   1.022  11.411
69244W        W34504  28.109   1.973   5.115
69245W        W34505  38.901  19.308   0.346
69246W        W34506   6.115  25.806  13.330
69247W        W34507  24.749  37.582   1.889
69248W        W34508   8.455  18.580  10.800
69249W        W34509   3.260  31.322   2.889
69250W        W34510  19.864   1.273   0.098
69251W        W34511  28.840   9.812   1.978
69252W        W34512  13.391  17.358   4.595
69253W        W34513  22.337  44.438   3.490
69254W        W34514  14.509  15.516  11.976
69255W        W34515   3.588   6.370  11.508
69256W        W34516   6.396  35.622   1.890
69257W        W34517  17.184  11.575   0.880
69258W        W34518  22.509  22.545   1.379
69259W        W34519   5.338   8.269  14.062
69260W        W34520  28.645  15.331  11.631
69261W        W34521  33.054   4.070   3.600
69262W        W34522   9.660  21.812   0.345
69263W        W34523  39.781  23.980   2.891
69264W        W34524  43.317   0.754   4.605
69265W        W34525  43.755   1.931   3.230
69266W        W34526  31.250  26.585  14.310
69267W        W34527   2.505  26.092   1.727
69268W        W34528  36.492  32.530   0.366
69269W        W34529  33.959   6.939  12.602
69270W        W34530  19.087  28.647   4.715
69271W        W34531   0.450  32.108  10.801
69272W        W34532   6.332  12.129   2.886
69273W        W34533  10.930  12.402   3.666
69274W        W34534  39.800  40.560   4.086
69275W        W34535  16.822  24.711   4.537
69276W        W34536  36.603  40.229  11.191
69277W        W34537  26.148  36.015   1.286
69278W        W34538  30.566  20.782  14.387
69279W        W34539  18.546  36.571   3.872
69280W        W34540  40.088  29.486   3.613
69281W        W34541   2.216  35.431   3.279
69282W        W34542  29.811  12.092  14.134
69283W        W34543  37.571  34.041  11.179
69284W        W34544  35.581  36.024  14.511
69285W        W34545  40.651   8.170   2.772
69286W        W34546  30.837  44.128  11.231
69287W        W34547   1.547  37.167  10.723
69288W        W34548  39.900  40.035   4.108
69289W        W34549   9.125  11.011  12.952
69290W        W34550  26.992  11.545   1.371
69291W        W34551  31.199  19.581   0.290
69292W        W34552  16.827  21.041   2.813
69293W        W34553  42.592  21.261   1.816
69294W        W34554   0.597   3.746   3.396
69295W        W34555  41.956  22.662  12.835
69296W        W34556  18.293   2.629  13.610
69297W        W34557  10.409  30.790   1.971
69298W        W34558  25.769  42.868   4.972
69299W        W34559  36.637   8.641   1.222
69300W        W34560  41.070  31.814   2.558
69301W        W34561  20.523  20.982  12.465
69302W        W34562   9.094  29.931   0.330
69303W        W34563  42.584   7.104   4.313
69304W        W34564  33.969  11.747   3.395
69305W        W34565   2.404  28.407   4.050
69306W        W34566  14.650  12.862   3.204
69307W        W34567  39.777  14.813  12.943
69308W        W34568  27.165  35.125  13.476
69309W        W34569  35.576  12.653  12.532
69310W        W34570  41.431  26.789   0.934
69311W        W34571  37.191  10.209   1.377
69312W        W34572  30.064   1.448  13.386
69313W        W34573   0.936  13.817   2.301
69314W        W34574   5.300   8.658  12.573
69315W        W34575  16.487  41.362  14.651
69316W        W34576  27.750   3.163  10.179
69317W        W34577  26.566  31.116   3.335
69318W        W34578  11.175  15.356  12.497
69319W        W34579  41.971  25.656  11.141
69320W        W34580  42.249  29.679  11.724
69321W        W34581  30.138   5.960  14.883
69322W        W34582   1.383   4.265  13.602
69323W        W34583  43.940  34.855  14.824
69324W        W34584   6.689  39.316   4.723
69325W        W34585  27.053  25.404   1.793
69326W        W34586  19.050  33.913   1.408
69327W        W34587  31.869  39.753   1.703
69328W        W34588  40.971   0.187   2.125
69329W        W34589   6.763   3.805   2.920
69330W        W34590  29.103   0.952   1.909
69331W        W34591  40.522  21.335   1.348
69332W        W34592  12.447   0.387   3.038
69333W        W34593  21.468  11.256   2.694
69334W        W34594  16.540  12.310   4.509
69335W        W34595  38.494  23.060   1.403
69336W        W34596  28.180  16.161  12.050
69337W        W34597  21.313  40.066  11.155
69338W        W34598  10.688  33.635   2.826
69339W        W34599   2.040  29.120   2.162
69340W        W34600   6.420  32.606  11.151
69341W        W34601  44.186  28.774  10.368
69342W        W34602   8.002   0.877   0.783
69343W        W34603  27.559  29.442  13.914
69344W        W34604  40.663  43.679  13.032
69345W        W34605  39.121   4.912   3.733
69346W        W34606  40.064  21.403  11.611
69347W        W34607   7.664  40.672   2.843
69348W        W34608  24.246  17.603   1.440
69349W        W34609  32.551  13.023   2.355
69350W        W34610  26.121  13.697  13.484
69351W        W34611  24.990   2.254  13.774
69352W        W34612  15.167   0.557  14.936
69353W        W34613  16.298  31.367  14.243
69354W        W34614  25.573  25.154   0.500
69355W        W34615  23.906  35.744  12.739
69356W        W34616  29.572   4.252  11.222
69357W        W34617  37.964  25.776   2.755
69358W        W34618   9.671   1.654   2.821
69359W        W34619  35.976  11.394  10.696
69360W        W34620  32.071  35.557  14.387
69361W        W34621  22.498  14.335  13.605
69362W        W34622  23.665  40.073  11.139
69363W        W34623  15.518  16.596   4.261
69364W        W34624   4.187  24.797   0.389
69365W        W34625  20.667  14.153  13.460
69366W        W34626  19.356   6.898  11.028
69367W        W34627  11.692  16.252  12.884
69368W        W34628  38.996  12.198   1.939
69369W        W34629  10.191  43.200   3.237
69370W        W34630  38.888  23.785   0.629
69371W        W34631  36.743  13.671  10.643
69372W        W34632  24.648  36.495   2.432
69373W        W34633  44.258  25.860   1.294
69374W        W34634  40.181  30.415  11.624
69375W        W34635  18.175  11.313  13.157
69376W        W34636   6.173  14.209   1.892
69377W        W34637  21.525  10.757  13.478
69378W        W34638  41.382  31.871   0.318
69379W        W34639  12.021   9.132   0.945
69380W        W34640  41.263  42.014   0.661
69381W        W34641  12.032  28.583  11.998
69382W        W34642   0.699  38.333  14.487
69383W        W34643  22.495  38.968  10.466
69384W        W34644  35.354   9.922   2.613
69385W        W34645  12.114  43.791   1.282
69386W        W34646   5.005  25.791   1.652
69387W        W34647  33.187  30.092  13.057
69388W        W34648  37.409  14.563  14.944
69389W        W34649   6.685  11.624  12.105
69390W        W34650  20.840  39.992  12.470
69391W        W34651   9.889  33.691   3.591
69392W        W34652  22.511  44.240   4.234
69393W        W34653  17.584  13.555  12.536
69394W        W34654  20.715  23.493  13.435
69395W        W34655  42.721  31.025  10.804
69396W        W34656  22.855  42.182   2.269
69397W        W34657  20.130  36.560   1.765
69398W        W34658   2.479  18.815  12.063
69399W        W34659  20.247  33.423  10.138
69400W        W34660   6.646  29.846  10.151
69401W        W34661  13.058   1.440  13.941
69402W        W34662  18.001  40.097   0.845
69403W        W34663  13.548  19.617   9.975
69404W        W34664  41.805  17.603  10.548
69405W        W34665  14.074  30.112   2.678
69406W        W34666  25.926  41.485   4.782
69407W        W34667  12.727  40.855   1.373
69408W        W34668  38.538  39.910   1.246
69409W        W34669  22.486   2.107  11.187
69410W        W34670  43.622   3.862   1.392
69411W        W34671  41.366  33.535   4.821
69412W        W34672  36.976  27.932   4.598
69413W        W34673  42.966  34.598   1.872
69414W        W34674   9.709   8.408   1.847
69415W        W34675  17.835  31.908   2.404
69416W        W34676  39.278  37.376  14.019
69417W        W34677  32.954  34.964   0.190
69418W        W34678  29.550  10.416   1.731
69419W        W34679  14.878  13.122   0.793
69420W        W34680  24.661  13.404  12.401
69421W        W34681  40.099  39.049  11.589
69422W        W34682  14.065  41.627  11.684
69423W        W34683  41.304   6.830   1.784
69424W        W34684  27.550  44.213  14.558
69425W        W34685  23.592  16.771  14.328
69426W        W34686  21.475  16.297   0.342
69427W        W34687  27.287  31.927   1.170
69428W        W34688   5.564  20.575   3.267
69429W        W34689  35.322   8.791  11.659
69430W        W34690  33.595  15.529   3.619
69431W        W34691  11.391  37.138   1.176
69432W        W34692  31.115  15.193  12.042
69433W        W34693   5.205  36.964   1.689
69434W        W34694  34.856  26.121   2.373
69435W        W34695  22.058  24.771   2.072
69436W        W34696  33.730  31.404  12.369
69437W        W34697   5.807  41.512  12.590
69438W        W34698  24.686  17.122  14.361
69439W        W34699  15.704   6.213  14.476
69440W        W34700  13.831   7.912   0.852
69441W        W34701  29.571   6.819   4.043
69442W        W34702   2.383  39.345   3.699
69443W        W34703  19.319  40.166   4.049
69444W        W34704   2.386   0.264   4.394
69445W        W34705  17.656  13.061  13.498
69446W        W34706  22.620  33.601   4.569
69447W        W34707  31.974   2.997  12.370
69448W        W34708  23.711  25.032   2.807
69449W        W34709   0.686  25.582   1.853
69450W        W34710  21.278  28.505  13.445
69451W        W34711  24.236  37.334  13.887
69452W        W34712  35.980  26.246  13.468
69453W        W34713   7.358   3.842   4.076
69454W        W34714  11.150  38.966   0.869
69455W        W34715  14.137  21.692   4.998
69456W        W34716  39.013   1.020   3.032
69457W        W34717  24.315  24.734  11.076
69458W        W34718  15.064  22.706  10.309
69459W        W34719  26.778  16.735  14.997
69460W        W34720  42.422   6.987  14.864
69461W        W34721  12.214  29.949   2.272
69462W        W34722  34.929   2.434  10.846
69463W        W34723  20.552  39.272  14.071
69464W        W34724  15.762  17.877  12.754
69465W        W34725  31.063   2.770  11.112
69466W        W34726   3.892  26.118  10.282
69467W        W34727  26.636  36.187  14.990
69468W        W34728  43.788  22.440   1.320
69469W        W34729  38.565   2.781   3.173
69470W        W34730  34.101   4.933  13.155
69471W        W34731  15.995  14.291  14.684
69472W        W34732   5.152  18.552   1.832
69473W        W34733  33.039   2.931  12.771
69474W        W34734   2.960  25.542  12.058
69475W        W34735  29.449  43.084  13.085
69476W        W34736  15.374   7.395   3.816
69477W        W34737  17.282   8.106  13.783
69478W        W34738  12.737   8.079  11.067
69479W        W34739   6.757  12.109   4.890
69480W        W34740   0.270  29.203   1.376
69481W        W34741  33.358  15.697   1.734
69482W        W34742   1.539  37.163  14.430
69483W        W34743  28.224  35.878  10.620
69484W        W34744  43.096   3.398   0.379
69485W        W34745  31.486   4.283  11.631
69486W        W34746  20.314  40.752   4.997
69487W        W34747  22.219  22.103   2.126
69488W        W34748  44.421  21.706  14.401
69489W        W34749  21.996   8.697   3.988
69490W        W34750  34.465  12.110   3.233
69491W        W34751  40.242  23.692  11.453
69492W        W34752   5.328   2.156   2.674
69493W        W34753   5.678  23.699   0.300
69494W        W34754  14.648  25.983  11.819
69495W        W34755  42.035  42.311  14.084
69496W        W34756   7.882   4.665   2.221
69497W        W34757  19.333  17.299  12.957
69498W        W34758  13.718   8.010  14.546
69499W        W34759   6.320  11.058  14.249
69500W        W34760  38.589  42.845   4.665
69501W        W34761  23.034  44.914   4.014
69502W        W34762  31.868  11.207  12.046
69503W        W34763   5.573  38.872  10.637
69504W        W34764  40.555  30.202  10.750
69505W        W34765   4.732  44.362   3.204
69506W        W34766  24.555   6.547   1.475
69507W        W34767  44.501  28.819  12.024
69508W        W34768  39.335  32.136   2.366
69509W        W34769   8.946  43.934  11.762
69510W        W34770  36.917  39.877   2.682
69511W        W34771   9.173   9.965   4.594
69512W        W34772  31.015   3.937   2.208
69513W        W34773  13.036  42.851  13.382
69514W        W34774  35.080  30.068  14.920
69515W        W34775   7.597   9.725  14.868
69516W        W34776  17.480   0.809   2.376
69517W        W34777  36.221  33.522   2.309
69518W        W34778  10.895   5.747   2.189
69519W        W34779  22.055  19.275   0.351
69520W        W34780  27.062  14.383   3.643
69521W        W34781  33.914   0.719   2.364
69522W        W34782  32.442   0.501   4.596
69523W        W34783  21.282  20.176  11.291
69524W        W34784  41.967  37.044   1.096
69525W        W34785  10.016  13.583   1.281
69526W        W34786   6.729  19.292  13.814
69527W        W34787  12.917  40.028  11.077
69528W        W34788  41.836  10.176   3.326
69529W        W34789  39.585   0.880  14.045
69530W        W34790  24.886  35.079  14.362
69531W        W34791  16.704  37.295   2.190
69532W        W34792  21.084  14.904   2.301
69533W        W34793  10.722   7.867   0.808
69534W        W34794  37.639  35.503  14.418
69535W        W34795  34.694  28.881  14.294
69536W        W34796  41.073  18.262   2.347
69537W        W34797   5.699  13.942   0.991
69538W        W34798  32.367  31.330  11.506
69539W        W34799   7.245  40.569   3.877
69540W        W34800  37.074  25.573  12.984
69541W        W34801  14.339  26.234   2.770
69542W        W34802  16.686  13.362  11.522
69543W        W34803  15.197  27.326  12.598
69544W        W34804  33.507  40.375   0.046
69545W        W34805  28.475  29.562  11.164
69546W        W34806   5.983  11.244  10.459
69547W        W34807  19.543   7.338  11.205
69548W        W34808  23.522  21.627   0.525
69549W        W34809  42.419  10.075  13.085
69550W        W34810   2.779  32.516  13.047
69551W        W34811  41.318  10.851   2.800
69552W        W34812  19.024  28.076   0.354
69553W        W34813   4.350  28.738   1.240
69554W        W34814  12.224  39.547   0.027
69555W        W34815  35.650  38.892   2.292
69556W        W34816  30.713  17.594  11.124
69557W        W34817  21.454  37.168  10.698
69558W        W34818  34.832  38.620  14.523
69559W        W34819  23.711  19.562   1.261
69560W        W34820  30.613   4.468   0.800
69561W        W34821  20.850  25.881  14.061
69562W        W34822  41.398  16.124  11.560
69563W        W34823  22.287  11.794  14.483
69564W        W34824  30.158  37.385  13.307
69565W        W34825  31.326   5.361  12.266
69566W        W34826  26.498  24.742   2.643
69567W        W34827  44.458  26.537  10.461
69568W        W34828  30.776  22.647   4.622
69569W        W34829  36.389   9.937   4.613
69570W        W34830  35.073  17.182  14.934
69571W        W34831  13.257  17.242   2.134
69572W        W34832  38.358  35.303  13.322
69573W        W34833  13.081  29.077   0.437
69574W        W34834  43.689  27.206   1.376
69575W        W34835   2.439  10.066  13.759
69576W        W34836  27.092  18.199  13.100
69577W        W34837  14.869   2.299  10.703
69578W        W34838  17.508  35.884  13.948
69579W        W34839  33.823   1.718   0.388
69580W        W34840  37.917  25.497   2.313
69581W        W34841  42.824   8.787   0.944
69582W        W34842  21.042  39.820   2.528
69583W        W34843  29.632  13.706  12.437
69584W        W34844   8.412  41.076   4.413
69585W        W34845  39.509  39.836   1.748
69586W        W34846  39.958   4.178   2.336
69587W        W34847  34.466  12.185  11.222
69588W        W34848  27.775   1.551   2.770
69589W        W34849  32.471  36.756  11.082
69590W        W34850  15.058   8.920  14.710
69591W        W34851   6.886  33.499  13.301
69592W        W34852  29.912   4.260  11.599
69593W        W34853  20.616   1.472   0.836
69594W        W34854  39.929  43.930   3.305
69595W        W34855  22.851  21.047   3.079
69596W        W34856   0.665  10.723   2.103
69597W        W34857  14.134  32.244   3.535
69598W        W34858   3.131  30.952  14.942
69599W        W34859  33.363  26.000  12.572
69600W        W34860  21.498   9.572  13.070
69601W        W34861  16.175  24.524  11.216
69602W        W34862  38.030  30.839  12.583
69603W        W34863  26.811  15.673  10.457
69604W        W34864   1.214  43.868   3.424
69605W        W34865  26.223  10.917   0.004
69606W        W34866  26.319  31.678  12.437
69607W        W34867  35.231   5.733  11.915
69608W        W34868  31.357  37.148   4.225
69609W        W34869  32.002   0.727   4.737
69610W        W34870  12.383  35.538   4.107
69611W        W34871  17.013  12.150   4.241
69612W        W34872  15.046  44.883  12.572
69613W        W34873   4.354  43.373   1.797
69614W        W34874   0.173  23.515  14.305
69615W        W34875  20.061   2.378  14.313
69616W        W34876  34.603   4.697   1.853
69617W        W34877  15.110  44.702  10.980
69618W        W34878  35.596  23.525  10.036
69619W        W34879  44.231  35.839  14.352
69620W        W34880  40.370  19.647  11.706
69621W        W34881   3.682  36.967   2.938
69622W        W34882  42.016  26.458  12.798
69623W        W34883   7.148  35.393   3.173
69624W        W34884   0.704   4.180  12.478
69625W        W34885  42.859  11.722  12.439
69626W        W34886  30.100  11.603  14.985
69627W        W34887  19.609   2.398  14.566
69628W        W34888  26.608   9.360   4.579
69629W        W34889  16.040   8.656   2.285
69630W        W34890  15.176  10.074   4.051
69631W        W34891  37.550  25.235  13.293
69632W        W34892  24.979  39.427   2.137
69633W        W34893  43.409  15.515   4.670
69634W        W34894  36.570  24.978  13.419
69635W        W34895  14.209  37.998  11.052
69636W        W34896  34.405  44.083  12.441
69637W        W34897  44.494  34.123   4.119
69638W        W34898  18.660  37.742   0.691
69639W        W34899  43.709   7.153  13.496
69640W        W34900  31.174   0.184   0.848
69641W        W34901  15.977   7.135   2.072
69642W        W34902  44.448   6.893   3.930
69643W        W34903   7.865   0.901   5.043
69644W        W34904  31.167   6.339  14.547
69645W        W34905   8.835  23.591  13.899
69646W        W34906  35.724  23.511  12.531
69647W        W34907  24.550  40.345   3.188
69648W        W34908  11.277   9.896   4.016
69649W        W34909   7.300  10.616   1.458
69650W        W34910  31.679  33.987  13.164
69651W        W34911  37.373   5.836  12.801
69652W        W34912  11.867  17.247  12.333
69653W        W34913  20.230   8.385   2.387
69654W        W34914  40.083  14.319   0.506
69655W        W34915  41.609  23.224   0.877
69656W        W34916  42.091  29.485  10.739
69657W        W34917   3.227   9.245  11.016
69658W        W34918  16.331  27.046   1.273
69659W        W34919   1.066   6.618  12.054
69660W        W34920  34.187  15.846   3.258
69661W        W34921   8.163   0.013  11.928
69662W        W34922  27.925  18.172   0.474
69663W        W34923  43.378  32.048  12.099
69664W        W34924  34.869  15.223   3.732
69665W        W34925  41.526  12.795   4.281
69666W        W34926  19.460  29.612   1.718
69667W        W34927  43.979  31.659   3.710
69668W        W34928  44.077  19.755  13.408
69669W        W34929  44.472   0.720   1.886
69670W        W34930   3.475   7.727  13.342
69671W        W34931  42.444  30.829   0.302
69672W        W34932   3.315  16.642  13.412
69673W        W34933   0.361   1.402   0.346
69674W        W34934  38.355  44.721   1.747
69675W        W34935   4.470  42.256  11.282
69676W        W34936  13.189  41.803  12.209
69677W        W34937   2.393  10.978   2.678
69678W        W34938   6.360  37.052   4.411
69679W        W34939  14.215  23.241   1.937
69680W        W34940  28.477   5.772   0.478
69681W        W34941  34.522  11.592   4.146
69682W        W34942  38.375  43.300   4.776
69683W        W34943  38.023  27.220   1.271
69684W        W34944  19.737  21.590   2.275
69685W        W34945  27.056  41.334  10.878
69686W        W34946   9.210  20.228  12.860
69687W        W34947  14.841  10.390  12.445
69688W        W34948  11.939   3.906  14.379
69689W        W34949  35.798  14.767  11.963
69690W        W34950  36.133  12.357  11.706
69691W        W34951  20.578  41.371   1.393
69692W        W34952  10.666  23.449  11.175
69693W        W34953   9.547   3.253  10.654
69694W        W34954  35.882   0.208   1.879
69695W        W34955  10.296  17.618  11.741
69696W        W34956  44.038  24.088   3.755
69697W        W34957  42.881  27.926   1.336
69698W        W34958  18.671  31.600   4.566
69699W        W34959  40.578  43.372   2.118
69700W        W34960  24.146  11.126  10.576
69701W        W34961  35.522  27.062   2.264
69702W        W34962  16.985  37.022  11.919
69703W        W34963  13.218  25.011   2.311
69704W        W34964  37.552  28.351   3.749
69705W        W34965  26.743  15.802  14.034
69706W        W34966  36.368  11.260  11.000
69707W        W34967  15.263  29.024  14.932
69708W        W34968  25.055  41.768  14.256
69709W        W34969  36.916  11.632  12.446
69710W        W34970  39.425  28.167   4.634
69711W        W34971   3.315  43.205  14.966
69712W        W34972  33.837  31.199  10.586
69713W        W34973  44.409  30.275   1.360
69714W        W34974   1.549  40.524  12.056
69715W        W34975  21.760  44.447   4.729
69716W        W34976  22.972   1.236  13.565
69717W        W34977  42.540  32.709  14.278
69718W        W34978  44.971   6.775   4.130
69719W        W34979  12.527  21.515  12.091
69720W        W34980  24.725  39.860   0.347
69721W        W34981   9.768   2.004  11.550
69722W        W34982  26.171   7.514   2.174
69723W        W34983  30.640  34.604   2.838
69724W        W34984  30.162  33.290   4.816
69725W        W34985  26.103   2.619   9.859
69726W        W34986  37.474   9.156  12.956
69727W        W34987  26.254   8.756   0.325
69728W        W34988  41.516  16.015   1.851
69729W        W34989   2.963  10.652  14.271
69730W        W34990  33.732  31.698  10.693
69731W        W34991  39.196  13.776   2.725
69732W        W34992  43.764  42.251  13.860
69733W        W34993  19.083  13.701  11.625
69734W        W34994   2.793   0.530   1.969
69735W        W34995  31.061   7.168   1.890
69736W        W34996  28.438  21.262  10.743
69737W        W34997  23.211  26.435  11.672
69738W        W34998   8.267  13.300   2.344
69739W        W34999  22.971   0.899  12.274
69740W        W35000   5.085  36.778  10.762
69741W        W35001   8.085   1.392  14.492
69742W        W35002  42.475  20.763  11.914
69743W        W35003   9.843  25.660  11.946
69744W        W35004  32.650  26.605  13.485
69745W        W35005  23.138   2.768   5.538
69746W        W35006  22.780   0.987  10.232
69747W        W35007  30.732   0.643  11.986
69748W        W35008  32.387  18.123   4.035
69749W        W35009  18.069  37.021  13.723
69750W        W35010  23.541  10.404  12.820
69751W        W35011  16.485  37.322  11.221
69752W        W35012   8.363  13.262   3.235
69753W        W35013   3.173   2.261  13.559
69754W        W35014   8.292   6.213   2.871
69755W        W35015   4.805  21.582  11.114
69756W        W35016  39.769  40.790   2.926
69757W        W35017   9.195  26.050  14.509
69758W        W35018   3.658  41.988  14.360
69759W        W35019  35.126  27.880   2.735
69760W        W35020  24.704  12.653  11.428
69761W        W35021  34.760  25.422  11.198
69762W        W35022  22.916  18.148   1.240
69763W        W35023  44.726   3.513  11.603
69764W        W35024  15.705   3.037  13.931
69765W        W35025  38.498  18.166  11.915
69766W        W35026  23.580  29.452   1.020
69767W        W35027  19.463  23.009   2.802
69768W        W35028  14.813  34.062   4.176
69769W        W35029  35.904  36.976   3.133
69770W        W35030  37.398   2.938  12.432
69771W        W35031  38.993  39.939   3.350
69772W        W35032   3.948   6.219   0.131
69773W        W35033  11.755  13.629  12.570
69774W        W35034  38.435  41.618   4.656
69775W        W35035  13.701  44.438   1.866
69776W        W35036  12.224   3.112   2.742
69777W        W35037  40.104  13.245  13.387
69778W        W35038  16.148  42.030  10.458
69779W        W35039  23.597  29.480   4.288
69780W        W35040  27.230  25.055   4.897
69781W        W35041  34.349   5.945  11.133
69782W        W35042  13.979  27.412   1.282
69783W        W35043  10.604  39.876   0.831
69784W        W35044  23.177   8.844   3.200
69785W        W35045  40.269  16.972  11.597
69786W        W35046  22.097   7.635  14.938
69787W        W35047  19.222  24.058   5.014
69788W        W35048  42.886  18.651  12.966
69789W        W35049  19.155  18.618   5.198
69790W        W35050  14.128  43.319   2.592
69791W        W35051  26.232  41.892   1.467
69792W        W35052  28.713  42.054  14.347
69793W        W35053  11.803  20.557  10.559
69794W        W35054  25.546  38.890  11.355
69795W        W35055   5.671  22.148   3.157
69796W        W35056   5.641   9.867  14.419
69797W        W35057  22.683  39.535   4.050
69798W        W35058   4.234  41.216  12.321
69799W        W35059  32.590  22.477  11.113
69800W        W35060  29.018  24.686  10.445
69801W        W35061  41.987  16.852  12.978
69802W        W35062  31.224  18.584   0.862
69803W        W35063   9.356  10.273  12.028
69804W        W35064  44.712  31.874   2.317
69805W        W35065   3.748   6.293   4.556
69806W        W35066  17.052  41.502   0.370
69807W        W35067   1.090  32.988   3.317
69808W        W35068  41.763   4.035   0.294
69809W        W35069   4.355  33.269   0.262
69810W        W35070  21.962  18.419   5.492
69811W        W35071   5.945   5.581  13.322
69812W        W35072  37.085   2.752   1.329
69813W        W35073   1.051  20.596  11.351
69814W        W35074  21.578  14.672   4.021
69815W        W35075  17.750  35.872   2.376
69816W        W35076  25.405  42.299   1.283
69817W        W35077  12.200  40.478   4.880
69818W        W35078  40.081   2.759  10.537
69819W        W35079  37.510   6.329  13.058
69820W        W35080   6.865  12.852  13.642
69821W        W35081  10.808  11.703   5.028
69822W        W35082  10.800  31.138   4.703
69823W        W35083  24.020   9.364   5.106
69824W        W35084  24.987   6.739  13.034
69825W        W35085  23.078  23.568   2.776
69826W        W35086  17.729  12.255  11.455
69827W        W35087  32.393   7.863  12.779
69828W        W35088  25.887  17.242  12.069
69829W        W35089  19.785  38.942   0.799
69830W        W35090  25.280   6.872  10.903
69831W        W35091  17.994  10.993   4.484
69832W        W35092  31.978  11.712  14.735
69833W        W35093  29.959  35.076  10.720
69834W        W35094   3.405  28.233  12.458
69835W        W35095  11.859  26.751   9.847
69836W        W35096  14.210  22.222  10.291
69837W        W35097   2.274  15.886   1.748
69838W        W35098  35.938  38.056   3.138
69839W        W35099  31.019  19.273  12.458
69840W        W35100  23.681  32.916   1.214
69841W        W35101  43.268  37.104  14.745
69842W        W35102  21.943  40.267   0.037
69843W        W35103  42.788  22.735   4.593
69844W        W35104  16.106   7.256   4.568
69845W        W35105  13.690  41.313   2.579
69846W        W35106  15.879  36.625  11.555
69847W        W35107  38.465   6.740   1.999
69848W        W35108  26.443  36.080   4.976
69849W        W35109  24.541  22.323   2.804
69850W        W35110  13.109  43.836  11.498
69851W        W35111  43.060  27.609  11.126
69852W        W35112  19.061  25.695   2.743
69853W        W35113  38.765  35.343  11.951
69854W        W35114  40.829  22.779   4.599
69855W        W35115   1.992  13.841  14.414
69856W        W35116  12.204   9.648   0.288
69857W        W35117  24.062  30.815  14.838
69858W        W35118  20.179  38.765   4.166
69859W        W35119  13.174   0.644  12.466
69860W        W35120  36.318   4.861  12.150
69861W        W35121  20.716   9.550   3.898
69862W        W35122  38.558  41.879   3.792
69863W        W35123  25.043  24.910  11.655
69864W        W35124   0.926   0.464   1.423
69865W        W35125  22.621  35.092   2.586
69866W        W35126  10.019  42.893   4.222
69867W        W35127  19.795   8.152  10.725
69868W        W35128  14.320  35.429   1.226
69869W        W35129  18.854  19.928   3.487
69870W        W35130  41.586  28.579  10.564
69871W        W35131   4.420  32.519  10.725
69872W        W35132  29.105   2.469  12.660
69873W        W35133  14.518  28.921   3.925
69874W        W35134  18.490  16.923   0.877
69875W        W35135  14.030  28.420   3.269
69876W        W35136  27.589  36.425  12.143
69877W        W35137  33.876  34.943   3.848
69878W        W35138  32.863  13.645   0.691
69879W        W35139  38.200  28.398   4.747
69880W        W35140   2.806   1.885   1.837
69881W        W35141   0.884  11.407  13.948
69882W        W35142  32.523  30.807  11.519
69883W        W35143   5.290   1.087  11.926
69884W        W35144  44.836   4.269   0.389
69885W        W35145   3.657  42.302   4.949
69886W        W35146  15.305  25.189   1.452
69887W        W35147  40.103  33.406  13.877
69888W        W35148  37.670  34.676   2.302
69889W        W35149  33.370   4.349  12.156
69890W        W35150  14.045  33.100  11.555
69891W        W35151  36.962  12.401   3.760
69892W        W35152  43.389  32.328  13.424
69893W        W35153  33.410  15.505   4.493
69894W        W35154  12.916  13.839   3.650
69895W        W35155  43.943  44.349  14.863
69896W        W35156  42.609   0.704  13.968
69897W        W35157  15.745  40.068  14.847
69898W        W35158  22.525  25.448  12.347
69899W        W35159   8.744  18.551  14.749
69900W        W35160  30.483  38.237  10.521
69901W        W35161  13.615  40.534  10.957
69902W        W35162  12.799  40.355   3.807
69903W        W35163  39.969  39.830   2.440
69904W        W35164  11.627  18.448   4.127
69905W        W35165  13.937  12.242   3.335
69906W        W35166  27.697  15.204   3.330
69907W        W35167  32.137   3.825  14.954
69908W        W35168  35.996  26.047  10.939
69909W        W35169  40.935   2.052   0.385
69910W        W35170   3.022  38.969  11.597
69911W        W35171   6.067  29.266  12.643
69912W        W35172  22.248  33.585  14.313
69913W        W35173  11.570  30.368   4.412
69914W        W35174  34.862  28.679  12.174
69915W        W35175   5.369   1.964  10.690
69916W        W35176  17.833  17.652   1.880
69917W        W35177  13.706   4.398   1.206
69918W        W35178  25.085  13.412   1.741
69919W        W35179  21.473  25.667   4.534
69920W        W35180  44.714  28.433  11.184
69921W        W35181  21.946  35.552   1.432
69922W        W35182   9.768  11.880  11.025
69923W        W35183  42.910  35.009  13.001
69924W        W35184  12.150  12.379  11.597
69925W        W35185  20.870  36.133   4.765
69926W        W35186  25.745  35.508  12.059
69927W        W35187  24.398  25.561   5.161
69928W        W35188  14.479  17.114   3.654
69929W        W35189  10.055  15.860  12.076
69930W        W35190  30.046  10.718  12.329
69931W        W35191  39.626  38.363  12.160
69932W        W35192  22.538  31.571   2.177
69933W        W35193  21.205  34.504   3.734
69934W        W35194  44.501  20.605  13.800
69935W        W35195   9.728  35.986   4.983
69936W        W35196  38.039  10.139  10.671
69937W        W35197  17.732  30.238  14.820
69938W        W35198  35.011  36.020   0.415
69939W        W35199   9.436   9.808  12.467
69940W        W35200  22.917  44.070   2.879
69941W        W35201  22.023   1.880  10.589
69942W        W35202   8.625  26.240  13.290
69943W        W35203  32.214  10.860   1.783
69944W        W35204  18.534  43.913  10.498
69945W        W35205  33.684  18.107  13.605
69946W        W35206  31.454   2.291   2.461
69947W        W35207   9.309   9.896   3.708
69948W        W35208  43.629  11.071   0.718
69949W        W35209   6.483   2.452   3.237
69950W        W35210  14.683   3.452   1.923
69951W        W35211  30.108  36.603   2.877
69952W        W35212  26.140  13.405   0.673
69953W        W35213   0.206   8.579  11.042
69954W        W35214  26.457  12.651   0.854
69955W        W35215   3.667   1.774   5.309
69956W        W35216  22.448  41.166   0.044
69957W        W35217  10.485  41.277  12.011
69958W        W35218   9.279  41.446  13.079
69959W        W35219  44.149  28.294   4.087
69960W        W35220  30.011  36.257  13.940
69961W        W35221  17.648  41.807  11.993
69962W        W35222  15.119  41.121   0.760
69963W        W35223  32.831  24.568   0.879
69964W        W35224  17.189  13.259  11.572
69965W        W35225   3.390  34.337  12.108
69966W        W35226  18.937  41.575   1.279
69967W        W35227  27.602   4.245  13.206
69968W        W35228  35.915  17.661   2.212
69969W        W35229  18.660   2.852   1.427
69970W        W35230  40.870  11.647   1.091
69971W        W35231  16.663  39.869   0.323
69972W        W35232  39.828   3.512   3.579
69973W        W35233   5.918  24.791  10.303
69974W        W35234  39.710   6.123  13.785
69975W        W35235  19.368  42.494   3.173
69976W        W35236   2.996  20.149  13.622
69977W        W35237  27.580  34.466  10.361
69978W        W35238  31.999  27.213  10.827
69979W        W35239  18.087  26.476  13.184
69980W        W35240  38.218  11.269  13.890
69981W        W35241   5.087   0.400   2.398
69982W        W35242  42.786  16.746   3.132
69983W        W35243  11.868  14.023   2.253
69984W        W35244  42.200  36.351  12.927
69985W        W35245  44.170  43.094   0.455
69986W        W35246  27.832   7.800   2.289
69987W        W35247  34.628  42.423  10.804
69988W        W35248  29.176  42.746   2.449
69989W        W35249  39.501  16.113   1.564
69990W        W35250  13.596   9.179   4.275
69991W        W35251  20.010  17.771  13.572
69992W        W35252  14.637  42.251   4.102
69993W        W35253  28.950  26.237   3.743
69994W        W35254   2.714  38.763   1.222
69995W        W35255  16.192  16.154  14.379
69996W        W35256  42.249   6.144  12.918
69997W        W35257  14.157   0.358  11.648
69998W        W35258  28.529  16.615   4.064
69999W        W35259  35.429  39.373   3.128
70000W        W35260  37.496  29.222   3.243
70001W        W35261  13.028  44.771  12.085
70002W        W35262  21.036   8.832  13.478
70003W        W35263  30.904  35.032  13.122
70004W        W35264  38.858  10.324  10.388
70005W        W35265  22.690  28.966   1.738
70006W        W35266  12.105  30.513  11.923
70007W        W35267  41.925   6.417   4.035
70008W        W35268  13.910   7.230  11.759
70009W        W35269  15.760  34.541  14.440
70010W        W35270  25.795  18.682  12.609
70011W        W35271  35.528  16.155  13.290
70012W        W35272  31.550   4.666   2.287
70013W        W35273  20.858  15.776   2.208
70014W        W35274  23.772  26.134   4.709
70015W        W35275   6.138   8.842  14.881
70016W        W35276  28.505  24.476   4.691
70017W        W35277  43.513  14.662   3.361
70018W        W35278  22.239  42.500  14.253
70019W        W35279   4.240  28.130   2.133
70020W        W35280  17.576  19.832   1.844
70021W        W35281   2.941  31.981   4.564
70022W        W35282  26.691  38.346   0.275
70023W        W35283   1.840   2.867   2.865
70024W        W35284   8.358  16.387  14.841
70025W        W35285  42.693  32.875   1.945
70026W        W35286  10.105  31.445  11.613
70027W        W35287  36.380  17.771   3.689
70028W        W35288  27.586  15.806   2.647
70029W        W35289   5.515  23.987  11.971
70030W        W35290  20.094  32.999  14.326
70031W        W35291   6.154  42.012  11.570
70032W        W35292   0.873  20.351   0.783
70033W        W35293   3.747  36.009   3.775
70034W        W35294  22.538  14.119   4.122
70035W        W35295  41.448  28.899  10.946
70036W        W35296  36.820  41.535   0.857
70037W        W35297  42.881  16.240   4.630
70038W        W35298  10.297  29.853  14.405
70039W        W35299  43.789  29.168   0.515
70040W        W35300  11.636  17.615  13.628
70041W        W35301  17.894  28.159   1.277
70042W        W35302  26.701   1.344  14.978
70043W        W35303  28.607  43.341   1.129
70044W        W35304  25.007  36.890  12.937
70045W        W35305  41.314  32.378   0.228
70046W        W35306  25.678  27.111   1.896
70047W        W35307  11.575  18.813  13.288
70048W        W35308  28.247   4.437   1.188
70049W        W35309  36.466  43.715  10.774
70050W        W35310  21.994  25.271   1.373
70051W        W35311  16.788  34.650  14.525
70052W        W35312  30.045  32.205  14.709
70053W        W35313  11.799  17.242  12.860
70054W        W35314  14.598  13.282   4.193
70055W        W35315  13.247  29.938  13.358
70056W        W35316   6.918  27.104   2.636
70057W        W35317  39.592  44.058  11.680
70058W        W35318  13.320  20.899  12.245
70059W        W35319  37.363  33.124   4.025
70060W        W35320  36.021  13.681   3.649
70061W        W35321  25.190  37.316  13.883
70062W        W35322  20.034  17.673  11.479
70063W        W35323   7.827   2.796   4.813
70064W        W35324  43.839   3.481  11.968
70065W        W35325  31.880  39.214   0.862
70066W        W35326  30.054  25.026   1.447
70067W        W35327  37.134  41.800  14.378
70068W        W35328  18.973   3.917   0.609
70069W        W35329  27.616  19.224   3.804
70070W        W35330  29.953  11.841   0.416
70071W        W35331   1.721   9.687  14.893
70072W        W35332  41.636  33.394   2.291
70073W        W35333  18.885  30.966   2.607
70074W        W35334  22.679  10.586  14.332
70075W        W35335  17.292  14.892  11.122
70076W        W35336  25.647  37.827  11.969
70077W        W35337  17.544  12.000  14.562
70078W        W35338  36.923   9.369  13.662
70079W        W35339  27.541  25.214   0.461
70080W        W35340   4.884  30.619   3.327
70081W        W35341  37.542  32.491   2.883
70082W        W35342  11.209  10.143   2.799
70083W        W35343  21.606  19.477   1.746
70084W        W35344  23.649  30.746  11.677
70085W        W35345  13.277   4.422   1.488
70086W        W35346  39.093  20.688   4.995
70087W        W35347  39.091  37.418  11.452
70088W        W35348   7.647  37.771   4.445
70089W        W35349  37.086  43.344   2.761
70090W        W35350  35.365  25.128   5.166
70091W        W35351   2.025   4.230  14.457
70092W        W35352  42.115  40.256  13.513
70093W        W35353  42.914   2.334   1.796
70094W        W35354  34.077   9.327   1.760
70095W        W35355  18.885  25.143   4.642
70096W        W35356  15.270  12.128   3.396
70097W        W35357  22.731  19.339  12.023
70098W        W35358  36.520  31.960  10.119
70099W        W35359  20.800  27.416  13.862
70100W        W35360  10.891  22.480   4.766
70101W        W35361  28.954  23.006   3.649
70102W        W35362  15.450  37.385   0.245
70103W        W35363  18.824  38.493  13.404
70104W        W35364  25.286  17.656  13.273
70105W        W35365   0.858   4.242   1.297
70106W        W35366  33.776   9.250  13.180
70107W        W35367  37.822   0.871   1.676
70108W        W35368   7.808   4.803  13.418
70109W        W35369  17.631  44.812   0.498
70110W        W35370  32.604  17.277  13.295
70111W        W35371  30.831  36.404  11.191
70112W        W35372  27.876  24.019  13.850
70113W        W35373  35.886  22.150  13.844
70114W        W35374  37.249  43.901   3.674
70115W        W35375  28.953  12.190   1.043
70116W        W35376   6.621  43.387   0.613
70117W        W35377  14.288  41.075  10.802
70118W        W35378  14.141   2.245   4.525
70119W        W35379   1.350  20.423   2.910
70120W        W35380  41.043  15.084  13.940
70121W        W35381  41.943  43.562  10.693
70122W        W35382  18.590  44.489   2.649
70123W        W35383  18.194  23.003   4.144
70124W        W35384  31.994   0.239   4.554
70125W        W35385  18.949  17.161   0.910
70126W        W35386   5.930  42.475  10.714
70127W        W35387  24.083  19.333   1.523
70128W        W35388  24.539  44.058   0.412
70129W        W35389  10.555  24.110  12.442
70130W        W35390  16.826  25.713  13.895
70131W        W35391   1.243  11.020   9.814
70132W        W35392  42.284   7.855  12.467
70133W        W35393  30.378   5.345  14.746
70134W        W35394  15.466  38.455   0.806
70135W        W35395   1.817  11.667   2.890
70136W        W35396  41.569  42.715   0.271
70137W        W35397  34.512  35.193   2.411
70138W        W35398  32.797  39.890   0.483
70139W        W35399  31.514  14.690   2.857
70140W        W35400  16.042   6.715   2.374
70141W        W35401  28.417   3.359  14.894
70142W        W35402  40.279   0.194  12.165
70143W        W35403  24.770  38.476  11.619
70144W        W35404  37.107  19.218  11.464
70145W        W35405  39.960  17.077  14.366
70146W        W35406   7.005  44.342  12.468
70147W        W35407   2.731  15.151   0.793
70148W        W35408  29.793  35.031  12.630
70149W        W35409  36.370  10.083   1.681
70150W        W35410  32.348  18.554  14.703
70151W        W35411  11.827  36.989  13.422
70152W        W35412  35.637  41.339  13.488
70153W        W35413  33.474  24.630  10.309
70154W        W35414  14.118  19.357   4.781
70155W        W35415  16.938  33.570  12.505
70156W        W35416  27.717  44.557   2.767
70157W        W35417   0.042  10.208  12.509
70158W        W35418   8.844  10.397   1.363
70159W        W35419   9.158  14.719   3.083
70160W        W35420  25.372   1.306  14.560
70161W        W35421  18.621  24.672   2.933
70162W        W35422  21.258   0.813   3.215
70163W        W35423   6.249  12.926  12.016
70164W        W35424  12.541  15.389  13.475
70165W        W35425  12.812   9.887   9.810
70166W        W35426  42.206  25.092   4.229
70167W        W35427   1.984  27.107  10.328
70168W        W35428  28.458  36.132  14.334
70169W        W35429  33.398   1.029   1.247
70170W        W35430  14.916  36.896  12.486
70171W        W35431   9.848  15.304  14.302
70172W        W35432  11.583   1.495   0.492
70173W        W35433   7.262  21.026  14.625
70174W        W35434  39.377  44.966  10.847
70175W        W35435   6.953  44.916  11.464
70176W        W35436   7.232   1.649  13.885
70177W        W35437   8.240   7.652   4.384
70178W        W35438  43.327  41.275   1.845
70179W        W35439  12.107  12.392   0.449
70180W        W35440  10.593  11.272  13.038
70181W        W35441   0.857  15.774   3.863
70182W        W35442  36.304  42.766  12.179
70183W        W35443  29.901   4.731  13.524
70184W        W35444   3.705  22.235   0.731
70185W        W35445  34.432  44.116   3.741
70186W        W35446   7.742  25.939  14.003
70187W        W35447  41.781  25.084  11.300
70188W        W35448  40.999  17.556  12.966
70189W        W35449  42.764   1.369   0.542
70190W        W35450  18.251   5.693  12.853
70191W        W35451  31.938  12.244   0.701
70192W        W35452  25.255  19.558  14.010
70193W        W35453   2.126  43.436  14.214
70194W        W35454  14.282  38.782   3.768
70195W        W35455  33.431  16.804  12.001
70196W        W35456  27.237  18.404   2.187
70197W        W35457   7.593  42.944   2.306
70198W        W35458  27.013  26.729  14.817
70199W        W35459  23.933  24.328   4.505
70200W        W35460  44.961  43.040  11.902
70201W        W35461  14.197   0.358   4.833
70202W        W35462  32.848   3.174  13.630
70203W        W35463  30.869  27.106   1.853
70204W        W35464   8.285  18.538  12.564
70205W        W35465  20.458  17.796  12.877
70206W        W35466  37.927  12.203  10.686
70207W        W35467  26.271  12.320  14.077
70208W        W35468  10.270  27.431  11.715
70209W        W35469  12.295  18.149  14.310
70210W        W35470   0.373  24.491  12.543
70211W        W35471  24.241  23.601   3.265
70212W        W35472  35.448  38.575   4.198
70213W        W35473  24.599  44.060  13.584
70214W        W35474   4.728  23.484   5.016
70215W        W35475  43.072  35.967   0.732
70216W        W35476  13.121   8.390   2.405
70217W        W35477   1.235  13.245   2.788
70218W        W35478  37.457  32.741  10.768
70219W        W35479  28.464   8.643   1.209
70220W        W35480  18.614   7.242  14.570
70221W        W35481  38.984  12.625   0.141
70222W        W35482  42.415  23.753   2.841
70223W        W35483  24.511  40.954  12.549
70224W        W35484   6.892   0.887   4.495
70225W        W35485  34.411  19.689   1.220
70226W        W35486  29.434  15.702   1.329
70227W        W35487  37.681  30.155  12.892
70228W        W35488  20.017  35.680   9.771
70229W        W35489  28.875  21.190   3.659
70230W        W35490  14.714  12.240  12.492
70231W        W35491  32.512  27.172  12.595
70232W        W35492   6.553  33.345   0.320
70233W        W35493  26.012  36.562  12.498
70234W        W35494  21.263  28.213   2.296
70235W        W35495  27.576  19.442   5.019
70236W        W35496  43.747  40.292  12.374
70237W        W35497  33.079  30.220   2.688
70238W        W35498   3.855  13.739  14.866
70239W        W35499  18.063   7.257   3.124
70240W        W35500  21.592   5.993   3.103
70241W        W35501  39.421  28.008   3.646
70242W        W35502   7.463  30.634  11.160
70243W        W35503   2.765  17.128  12.129
70244W        W35504  39.482   5.140  14.871
70245W        W35505  23.224  35.891  11.668
70246W        W35506   9.738   8.999  13.891
70247W        W35507  41.355  12.486  12.928
70248W        W35508  33.625  10.922  13.305
70249W        W35509  20.412   6.655  12.028
70250W        W35510  30.469  34.865   3.256
70251W        W35511  29.945  39.651  11.162
70252W        W35512   1.898  30.466   2.044
70253W        W35513  39.805  37.716  14.087
70254W        W35514  15.451  33.477   3.284
70255W        W35515  39.524  14.134   1.245
70256W        W35516   8.853  30.632   4.131
70257W        W35517  29.126  13.658  13.798
70258W        W35518  36.964  29.167   3.298
70259W        W35519  38.083  43.443   0.812
70260W        W35520  12.554   3.918  11.970
70261W        W35521  10.257  11.619   1.112
70262W        W35522  43.394   9.231   4.655
70263W        W35523   0.749  17.733  14.004
70264W        W35524  19.272  22.104   2.176
70265W        W35525  21.174   2.505   2.274
70266W        W35526  39.989  43.776  13.557
70267W        W35527  21.885  33.071   3.673
70268W        W35528  34.628   9.829  12.999
70269W        W35529  36.057   6.417   3.373
70270W        W35530  25.770  11.764   0.757
70271W        W35531  41.418  35.236   2.602
70272W        W35532   0.834  12.133   0.961
70273W        W35533   7.604  23.091  12.936
70274W        W35534  31.022  29.508   0.821
70275W        W35535  23.792  34.995   3.093
70276W        W35536   0.525   9.828   1.178
70277W        W35537  18.172  20.534  13.972
70278W        W35538   2.866  13.358   2.740
70279W        W35539  17.710  34.839   2.380
70280W        W35540   1.447  39.894  14.609
70281W        W35541  40.202   3.600   2.727
70282W        W35542  26.225  38.768   1.926
70283W        W35543  17.506  27.092   0.678
70284W        W35544  41.491  35.232   3.119
70285W        W35545  21.767  33.363   0.706
70286W        W35546  28.548  22.999   3.105
70287W        W35547  40.348   3.887   1.418
70288W        W35548  10.434  20.599   3.183
70289W        W35549  14.365  28.349  10.839
70290W        W35550  21.648  31.537   3.564
70291W        W35551  34.154  11.490  12.745
70292W        W35552  21.202   0.549  13.290
70293W        W35553  37.262  34.087   0.292
70294W        W35554  28.490  12.369  14.652
70295W        W35555  27.071  12.020  13.475
70296W        W35556  31.986   9.637  13.851
70297W        W35557  21.054  37.967   1.320
70298W        W35558  29.182  31.029   4.002
70299W        W35559  22.605   2.950   4.844
70300W        W35560  24.659  42.482   3.967
70301W        W35561  16.713  21.579   2.718
70302W        W35562  38.220   5.410  10.741
70303W        W35563  32.749  40.038  12.151
70304W        W35564  11.824  37.452  10.796
70305W        W35565  34.344  38.506  11.933
70306W        W35566   0.636   6.870  14.986
70307W        W35567  41.338  19.095   4.179
70308W        W35568  10.031  29.767   3.517
70309W        W35569   0.455  14.004   0.480
70310W        W35570  17.853  12.805  12.103
70311W        W35571  14.349   8.205   2.320
70312W        W35572  39.502  36.057   0.188
70313W        W35573  38.562  37.631  13.508
70314W        W35574  31.708  28.609   3.107
70315W        W35575  20.561  17.596   0.891
70316W        W35576  34.861  17.320   3.109
70317W        W35577   6.220  44.100  13.781
70318W        W35578  25.371  24.083   2.019
70319W        W35579  31.054  29.560  12.881
70320W        W35580  23.018  19.678  12.282
70321W        W35581  13.230  29.320  10.094
70322W        W35582  43.003  23.718   0.190
70323W        W35583  35.050  36.464  13.373
70324W        W35584  34.485   8.505  12.330
70325W        W35585  22.626  24.035  10.721
70326W        W35586  27.004  13.633   4.102
70327W        W35587   7.839  34.789   0.253
70328W        W35588  31.001  18.429   4.165
70329W        W35589   8.973  18.700  12.076
70330W        W35590  38.299  22.640  13.410
70331W        W35591   7.453  42.751   1.256
70332W        W35592  30.151   7.214   1.663
70333W        W35593  44.024  42.798   4.170
70334W        W35594  33.887  44.788   4.069
70335W        W35595  35.165  33.406   3.730
70336W        W35596  41.002  25.222  14.121
70337W        W35597   9.869  28.427   3.583
70338W        W35598   1.146  34.945  12.497
70339W        W35599  15.786  24.535  10.474
70340W        W35600   0.099  41.518   0.174
70341W        W35601  30.469  23.768  14.764
70342W        W35602  22.284  33.394   1.211
70343W        W35603   7.212  26.625  13.337
70344W        W35604  23.931  27.696  13.878
70345W        W35605  14.192  41.392  13.451
70346W        W35606  23.002  15.325  14.020
70347W        W35607  32.418  43.759   1.903
70348W        W35608  40.794   2.372   9.740
70349W        W35609  43.229  26.108  12.978
70350W        W35610  35.658  12.521  11.623
70351W        W35611  14.765   1.753   3.333
70352W        W35612  43.319  30.421  12.328
70353W        W35613  28.978  30.620   1.578
70354W        W35614   4.962  23.133  10.345
70355W        W35615  44.430  10.141  12.049
70356W        W35616  32.602   8.979   5.134
70357W        W35617  13.802   9.345   2.385
70358W        W35618  23.658  36.642   4.219
70359W        W35619  22.594   8.777   5.010
70360W        W35620  27.085  17.372   2.329
70361W        W35621  22.033   9.339  12.335
70362W        W35622  43.092   9.632   0.695
70363W        W35623  25.696  20.761  10.359
70364W        W35624  14.405  26.081   4.401
70365W        W35625  32.650  38.522   0.374
70366W        W35626   0.046  40.769   2.594
70367W        W35627  40.055   1.803   2.829
70368W        W35628  23.494  25.215  12.042
70369W        W35629  10.312  36.563   4.573
70370W        W35630  27.678  34.106  13.528
70371W        W35631  14.843  19.874   5.319
70372W        W35632   5.222   0.333   4.793
70373W        W35633  17.775  42.988  14.135
70374W        W35634   8.825   3.458   2.932
70375W        W35635  15.103  23.514  11.996
70376W        W35636  13.640  10.847  12.369
70377W        W35637  40.577  16.090   0.824
70378W        W35638  39.956  37.049  13.579
70379W        W35639  13.991   8.158  10.837
70380W        W35640  43.927  37.297   4.111
70381W        W35641   3.682  12.682  12.966
70382W        W35642  11.919  35.740  12.429
70383W        W35643  26.657   2.282  13.461
70384W        W35644  32.472  42.967   2.649
70385W        W35645  28.731   5.508  12.519
70386W        W35646  37.778  38.829  12.600
70387W        W35647   3.667  38.997   0.634
70388W        W35648  29.518  17.873   4.622
70389W        W35649  41.521  22.079  12.507
70390W        W35650  12.564  38.818   3.703
70391W        W35651  44.715  25.055  14.839
70392W        W35652  35.127  40.887   2.722
70393W        W35653  37.084  42.765  11.211
70394W        W35654   5.697  27.953   3.993
70395W        W35655  11.599  33.256   2.167
70396W        W35656  27.617  21.232   4.893
70397W        W35657   4.310  23.165   5.099
70398W        W35658   3.724   1.398   1.725
70399W        W35659  14.734  29.398   0.793
70400W        W35660  25.491  22.263  14.925
70401W        W35661   1.243  27.668  13.457
70402W        W35662  44.209  44.098  10.081
70403W        W35663  13.267  43.296   4.361
70404W        W35664  25.803   4.675   2.146
70405W        W35665  33.564  36.428  11.478
70406W        W35666  43.311   7.350  11.494
70407W        W35667  40.379   5.700   3.420
70408W        W35668  36.405  17.849   4.615
70409W        W35669  16.636  42.476  14.793
70410W        W35670   5.823  30.753  13.598
70411W        W35671  14.266  29.911  12.940
70412W        W35672  12.489  34.491   3.493
70413W        W35673  28.591  21.257   3.219
70414W        W35674   5.783  44.545  10.827
70415W        W35675   2.999  17.388   1.382
70416W        W35676  25.927   8.933   4.251
70417W        W35677  20.873  16.195  12.488
70418W        W35678   9.159  14.257   2.727
70419W        W35679   4.535  42.797   0.533
70420W        W35680  21.120  28.883  14.328
70421W        W35681   2.275  12.065   3.606
70422W        W35682  18.136  34.520   1.699
70423W        W35683  36.075  34.402   3.226
70424W        W35684  42.322  44.868  12.613
70425W        W35685  42.761  35.036   3.053
70426W        W35686  13.655  19.940   1.357
70427W        W35687  32.654  44.962  10.244
70428W        W35688  31.221   2.201   0.987
70429W        W35689  19.275  29.451   1.267
70430W        W35690  11.775  38.529  13.372
70431W        W35691  32.415   5.275  12.944
70432W        W35692  40.477  23.201   0.804
70433W        W35693  24.106  38.440   0.741
70434W        W35694  18.655  41.788  14.941
70435W        W35695  36.409  25.960   1.904
70436W        W35696  14.804  35.349  11.110
70437W        W35697  33.108  35.880   2.803
70438W        W35698  25.847  27.515  12.403
70439W        W35699  21.515  26.906  13.739
70440W        W35700  28.553  10.369  13.783
70441W        W35701  29.111  25.120   2.902
70442W        W35702  23.565  40.951   2.522
70443W        W35703  17.736  26.238   4.645
70444W        W35704  27.439  12.356  13.389
70445W        W35705  10.723   5.196  11.627
70446W        W35706  33.803  14.689   2.687
70447W        W35707  12.103  19.615  12.998
70448W        W35708   4.212  31.065  10.783
70449ION    NA+35709  32.393  12.730  11.605
70450ION    NA+35710  18.529  28.953  13.981
70451ION    NA+35711  25.070  38.507   0.777
70452ION    NA+35712   9.756  11.346   0.181
70453ION    NA+35713  21.405   1.760   4.195
70454ION    NA+35714  27.663  28.552   0.434
70455ION    NA+35715   3.928  29.025   3.312
70456ION    NA+35716  44.177   1.489   3.786
70457ION    NA+35717  39.865   3.390  11.106
70458ION    NA+35718  35.575  14.543   4.056
70459ION    NA+35719  13.251  17.456  11.996
70460ION    NA+35720  38.199   7.531  12.372
70461ION    NA+35721  19.610   5.788   4.005
70462ION    NA+35722  10.308  12.182  10.308
70463ION    NA+35723  43.086   7.187   0.600
70464ION    NA+35724  22.012  30.371   2.351
70465ION    NA+35725  33.241  24.162  10.321
70466ION    NA+35726  25.348  43.586   0.211
70467ION    NA+35727  40.100  22.845   4.323
70468ION    NA+35728   2.645   1.387   1.597
70469ION    NA+35729  42.967  43.854  10.784
70470ION    NA+35730  11.346  38.241   3.256
70471ION    NA+35731   4.883   8.133   4.179
70472ION    NA+35732   5.662  36.294  13.752
70473ION    NA+35733  29.551  17.027   1.719
70474ION    NA+35734  27.641  20.568   3.718
70475ION    NA+35735  34.883  30.360  11.280
70476ION    NA+35736   7.653  39.292   0.054
70477ION    NA+35737  14.384   4.453   2.883
70478ION    NA+35738  16.162  23.110   2.329
70479ION    NA+35739   0.224  22.641  10.589
70480ION    NA+35740  12.605  41.211  11.198
70481ION    NA+35741  11.571   9.602   3.700
70482ION    NA+35742  40.076  34.315   2.382
70483ION    NA+35743  22.146  30.844  11.180
70484ION    NA+35744  15.580   6.395   2.241
70485ION    NA+35745   6.271  14.481   1.394
70486ION    NA+35746   3.480   1.020   0.767
70487ION    NA+35747  27.360  14.992  12.759
70488ION    NA+35748  31.581   0.296  13.813
70489ION    NA+35749  40.843  43.820  10.473
70490ION    NA+35750  27.951  11.949  11.559
70491ION    NA+35751  17.710  43.906  10.953
70492ION    NA+35752  33.930  19.279  14.313
70493ION    NA+35753  12.282  14.337   0.751
70494ION    NA+35754  14.738   2.908  14.766
70495ION    NA+35755  19.727  29.714  13.982
70496ION    NA+35756   0.448  17.145   2.394
70497ION    NA+35757  42.641  15.043  12.387
70498ION    NA+35758  13.681  41.847  13.875
70499ION    NA+35759  39.987   0.290   1.452
70500ION    NA+35760  19.365  43.325   3.951
70501ION    NA+35761  21.415   1.289  11.677
70502ION    NA+35762  36.634   9.600  12.141
70503ION    NA+35763  22.028  16.480   4.219
70504ION    NA+35764  32.938  11.243  14.871
70505ION    NA+35765   1.251  22.539  14.278
70506ION    NA+35766  27.730  13.798  10.764
70507ION    NA+35767  10.135   1.721   1.449
70508ION    NA+35768  17.353  25.678   3.780
70509ION    NA+35769   8.239  30.110  11.569
70510ION    NA+35770   5.742  40.097  12.328
70511ION    NA+35771  16.361  21.639  10.751
70512ION    NA+35772   2.257  19.668   2.299
70513ION    NA+35773  13.132  16.297   4.723
70514ION    NA+35774  42.938  25.065  13.768
70515ION    NA+35775  38.457   5.836  11.992
70516ION    NA+35776  22.132   3.724  13.065
70517ION    NA+35777  21.234  30.037  11.737
70518ION    NA+35778  31.650  23.991  11.139
70519ION    NA+35779  43.466  40.053   3.188
70520ION    NA+35780  43.436  22.722   2.855
70521ION    NA+35781  31.603  32.474  11.400
70522ION    NA+35782  30.128  43.685  12.640
70523ION    NA+35783  26.739  31.423  13.399
70524ION    NA+35784   3.224  18.702  12.561
70525ION    NA+35785  22.373   2.375  13.058
70526ION    NA+35786  25.238  38.895  12.664
70527ION    NA+35787  26.157  10.894   2.192
70528ION    NA+35788   7.474  16.950  12.781
70529ION    NA+35789  38.937   1.134   2.320
70530ION    NA+35790   5.615  25.524   3.118
70531ION    NA+35791  30.299  18.079   1.993
70532ION    NA+35792  14.560  21.270  12.458
70533ION    NA+35793   3.238  39.132  12.490
70534ION    NA+35794  24.186  37.264  12.857
70535ION    NA+35795   7.962  19.821  10.241
70536ION    NA+35796  11.729  17.082   0.792
70537ION    NA+35797   5.740  34.623   0.284
70538ION    NA+35798  10.622  24.540  13.287
70539ION    NA+35799  41.356   8.374   5.046
70540ION    NA+35800  20.765  20.399   5.745
70541ION    NA+35801  33.405  29.118   2.467
70542ION    NA+35802  39.632  19.095  14.845
70543ION    NA+35803   2.647  15.810  10.670
70544ION    NA+35804   5.200   0.732  12.904
70545ION    NA+35805  28.269  41.181  14.518
70546ION    NA+35806  22.773   0.100   4.644
70547ION    NA+35807  16.524  32.300   3.796
70548ION    NA+35808  35.085   6.779   0.291
70549ION    NA+35809  34.408  43.276   1.464
70550ION    NA+35810  14.904  41.669   4.260
70551ION    NA+35811  32.963  28.992   0.380
70552ION    NA+35812  20.168  40.044  11.959
70553ION    NA+35813  39.324  30.775   1.245
70554ION    NA+35814   4.482  32.878  12.549
70555ION    NA+35815   6.151  10.943   0.006
70556ION    NA+35816  38.602   6.067   4.430
70557ION    NA+35817  21.908   6.444   3.010
70558ION    NA+35818  33.195  32.212   1.616
70559ION    NA+35819  36.091   4.105  12.682
70560ION    NA+35820   8.390   4.908  14.992
70561ION    NA+35821   0.080  18.520   1.622
70562ION    NA+35822  43.368  33.325  14.375
70563ION    NA+35823  17.793  35.195  12.077
70564ION    NA+35824  25.221   4.237  14.890
70565ION    NA+35825  42.928  31.267  14.000
70566ION    NA+35826  31.873  10.790  12.786
70567ION    NA+35827  29.904  32.875  10.837
70568ION    NA+35828  12.566   3.505   0.409
70569ION    NA+35829   7.803  34.063  10.998
70570ION    NA+35830  32.174  21.923  12.601
70571ION    NA+35831   0.309  43.502  13.028
70572ION    NA+35832  15.023  33.699   3.076
70573ION    NA+35833  23.821  29.691   2.992
70574ION    NA+35834   4.096   6.130   4.932
70575ION    NA+35835  28.049  39.893   5.369
70576ION    NA+35836  28.425  26.188   1.269
70577ION    NA+35837  35.026   5.277  13.630
70578ION    NA+35838  28.227   5.526  13.400
70579ION    NA+35839  25.603   0.380  10.431
70580ION    NA+35840  35.600  23.901  12.179
70581ION    NA+35841  18.017  40.869   4.612
70582ION    NA+35842  30.767  41.882   0.053
70583ION    NA+35843  13.399   7.202   2.533
70584ION    NA+35844  10.692  10.816   2.851
70585ION    NA+35845  39.229  30.177  13.075
70586ION    NA+35846  37.475  16.825   2.819
70587ION    NA+35847   2.341  44.199  13.249
70588ION    NA+35848  40.254  41.286   1.155
70589ION    NA+35849  28.795  37.158  13.125
70590ION    NA+35850  36.438  43.263   0.417
70591ION    NA+35851  18.625   3.417  14.040
70592ION    NA+35852  10.117  34.532   9.828
70593ION    NA+35853  38.530  21.734  13.372
70594ION    NA+35854  39.120  25.219  14.948
70595ION    NA+35855  23.262  31.397   2.599
70596ION    NA+35856  43.477  14.330  14.738
70597ION    NA+35857  16.809   6.537   3.433
70598ION    NA+35858   1.103   9.695  13.949
70599ION    NA+35859  19.469   2.675   4.518
70600ION    NA+35860  37.105  11.046  10.733
70601ION    NA+35861  26.862   6.449  10.768
70602ION    NA+35862  14.373  11.898   3.718
70603ION    NA+35863  27.673  25.672   0.270
70604ION    NA+35864  35.863  10.784  11.922
70605ION    NA+35865  17.591  36.414  12.797
70606ION    NA+35866  37.376   3.457   2.329
70607ION    NA+35867  15.546   3.694   4.457
70608ION    NA+35868  13.595  16.747  13.392
70609ION    NA+35869  22.061  24.924   3.067
70610ION    NA+35870  23.983  25.253   5.011
70611ION    NA+35871  19.810  13.488  13.894
70612ION    NA+35872  22.437  37.669  11.811
70613ION    NA+35873  24.813   8.624   0.358
70614ION    NA+35874  38.666  17.404   3.381
70615ION    NA+35875  33.977  31.193  14.780
70616ION    NA+35876  44.367  24.880   4.100
70617ION    NA+35877  43.744  41.300   4.061
70618ION    NA+35878   0.837  38.613   3.185
70619ION    NA+35879  10.674  23.220   3.305
70620ION    NA+35880  20.080  14.172   5.408
70621ION    NA+35881  31.606   3.371  13.070
70622ION    NA+35882  26.934  29.030  13.455
70623ION    NA+35883  20.600  37.939   0.213
70624ION    NA+35884  39.063  20.642   2.038
70625ION    NA+35885   9.889  21.697   1.739
70626ION    NA+35886   9.104  42.370   2.982
70627ION    NA+35887  25.456  38.188  14.401
70628ION    NA+35888  43.314  23.213  13.900
70629ION    NA+35889  25.238   9.697  13.408
70630ION    NA+35890   2.774   4.461   2.714
70631ION    NA+35891  12.620  13.063  11.525
70632ION    NA+35892  15.703  33.852   1.271
70633ION    NA+35893  10.047  32.905  14.922
70634ION    NA+35894  28.879  32.157   0.425
70635ION    NA+35895  10.256  14.750   2.443
70636ION    NA+35896  31.062  21.252   2.407
70637ION    NA+35897  28.869  26.208  12.081
70638ION    NA+35898  16.639  33.814  11.479
70639ION    NA+35899  44.495  15.868  10.888
70640ION    NA+35900   5.569  12.754   1.985
70641ION    NA+35901   7.932  43.052   5.130
70642ION    NA+35902  40.564   0.937   1.354
70643ION    NA+35903  27.292   0.510   0.048
70644ION    NA+35904  29.223  20.488  11.811
70645ION    NA+35905  22.965   0.369  13.394
70646ION    NA+35906  37.516   9.066   3.675
70647ION    NA+35907  14.120   5.333  10.613
70648ION    NA+35908  17.421  12.741   1.758
70649ION    NA+35909  26.722  14.739  13.522
70650ION    NA+35910  32.420  25.610   1.622
70651ION    NA+35911  18.831  24.051  12.311
70652ION    NA+35912   0.218  10.499  10.489
70653ION    NA+35913  29.119  34.373  14.026
70654ION    NA+35914  11.137  16.317   3.618
70655ION    NA+35915   9.228   0.702  10.688
70656ION    NA+35916  25.013  41.759   1.947
70657ION    NA+35917  29.141  41.215   4.924
70658ION    NA+35918  28.596  27.167  13.620
70659ION    NA+35919   7.990  40.818  12.650
70660ION    NA+35920  11.723  29.471   4.006
70661ION    NA+35921  23.164  42.019   0.770
70662ION    NA+35922   3.977   5.749  12.639
70663ION    NA+35923  32.298  37.104   3.720
70664ION    NA+35924  13.356  19.078   0.268
70665ION    NA+35925  40.218  28.450   1.012
70666ION    NA+35926   9.930  21.621   4.580
70667ION    NA+35927  16.846  20.622  13.035
70668ION    NA+35928  22.058  16.354  14.586
70669ION    NA+35929  33.553  40.781   1.817
70670ION    NA+35930  22.238   9.264   0.575
70671ION    NA+35931  27.630  37.173   1.967
70672ION    NA+35932   8.136  40.650  10.973
70673ION    NA+35933   1.583   0.165   4.536
70674ION    NA+35934   6.991   5.944   2.725
70675ION    NA+35935   8.736  20.804   4.621
70676ION    NA+35936  30.529  41.577   1.872
70677ION    NA+35937  19.798  16.620   2.325
70678ION    NA+35938  32.422  25.384  14.991
70679ION    NA+35939  33.418   9.886  14.935
70680ION    NA+35940   5.424  26.531  12.365
70681ION    NA+35941  42.076  35.783   2.024
70682ION    NA+35942  26.909   9.016  11.665
70683ION    NA+35943   7.087  36.354  13.990
70684ION    NA+35944  11.199  32.529  11.858
70685ION    NA+35945  20.577  22.493   3.180
70686ION    NA+35946  10.236   3.602  11.615
70687ION    NA+35947   9.401  42.301   2.030
70688ION    NA+35948   5.193  34.372   2.702
70689ION    NA+35949  15.795  33.564  14.401
70690ION    NA+35950  31.357  37.528   0.942
70691ION    NA+35951  28.081  25.653  14.358
70692ION    NA+35952  32.616  11.158  12.619
70693ION    NA+35953  33.470  36.049   1.942
70694ION    NA+35954  22.087   3.861   1.653
70695ION    NA+35955  40.858   4.259   2.205
70696ION    NA+35956  36.420  11.939   2.563
70697ION    NA+35957  32.389  35.518  11.415
70698ION    NA+35958  42.098  39.730   2.955
70699ION    NA+35959  39.374   0.272   2.769
70700ION    NA+35960  30.652  32.670   0.920
70701ION    NA+35961  31.067  12.794   0.002
70702ION    NA+35962  21.884   3.777   4.780
70703ION    NA+35963  42.564  43.126  12.312
70704ION    NA+35964  27.705  33.004  11.529
70705ION    NA+35965  34.498  15.197  13.367
70706ION    NA+35966  41.218   6.426  13.052
70707ION    NA+35967   7.842  43.363   4.038
70708ION    NA+35968  18.759  27.975  10.682
70709ION    NA+35969  21.720  23.408  14.780
70710ION    NA+35970   7.410  18.867   2.767
70711ION    NA+35971  42.166   6.396  13.367
70712ION    NA+35972  29.804  16.909   2.568
70713ION    NA+35973  40.610  28.571  10.776
70714ION    NA+35974  42.495  10.558  13.186
70715ION    NA+35975  17.330   9.107  12.109
70716ION    NA+35976  17.944  20.945  10.442
70717ION    NA+35977  32.481  11.243   4.413
70718ION    NA+35978  29.693   5.183  13.719
70719ION    NA+35979  42.462   2.670   1.776
70720ION    NA+35980  13.673  12.485  13.423
70721ION    NA+35981  33.406   7.953   0.284
70722ION    NA+35982  39.137  32.822   2.850
70723ION    NA+35983  23.481   5.692  14.915
70724ION    NA+35984   4.860   1.421  11.860
70725ION    NA+35985  22.675  30.317  10.086
70726ION    NA+35986  39.579  11.690   3.160
70727ION    NA+35987  41.911   1.871   3.699
70728ION    NA+35988  32.681  18.726   3.398
70729ION    NA+35989  32.583  42.958  11.644
70730ION    NA+35990  17.758  27.538  14.283
70731ION    NA+35991  26.864  18.691   0.824
70732ION    NA+35992  22.802  16.673  13.910
70733ION    NA+35993  23.420   3.457   5.265
70734ION    NA+35994   6.372  38.088  10.083
70735ION    NA+35995  43.433  19.738  12.039
70736ION    NA+35996   7.602  34.991  14.845
70737ION    NA+35997  23.962  13.742   0.896
70738ION    NA+35998  27.784  16.014   3.112
70739ION    NA+35999  32.640  19.373   0.099
70740ION    NA+36000   9.845  35.069   4.589
70741ION    NA+36001  36.844  11.116  12.436
70742ION    NA+36002   7.386  13.924  12.231
70743ION    NA+36003  31.577  35.382  14.335
70744ION    NA+36004  36.275  38.667  13.664
70745ION    NA+36005  17.093  24.539   0.507
70746ION    NA+36006  11.629  31.170   0.548
70747ION    NA+36007  18.809   2.227   3.840
70748ION    NA+36008  29.739  25.854   4.906
70749ION    NA+36009  25.588  27.151  14.909
70750ION    NA+36010  26.937  20.804   3.049
70751ION    NA+36011  34.432  33.773   2.097
70752ION    NA+36012  33.607  30.118  14.451
70753ION    NA+36013  32.953  10.932   1.185
70754ION    NA+36014  23.482  15.879   1.864
70755ION    NA+36015  22.385   3.231   4.109
70756ION    NA+36016  29.707  11.990  11.118
70757ION    NA+36017  14.412   8.446  12.003
70758ION    NA+36018  27.614   0.008  10.320
70759ION    NA+36019  32.742  40.856  12.385
70760ION    NA+36020  24.883  21.785  10.922
70761ION    NA+36021  14.203  42.694  11.251
70762ION    NA+36022  14.544   0.582  13.734
70763ION    NA+36023   1.305  11.097  13.847
70764ION    NA+36024  44.388  43.977   0.804
70765ION    NA+36025  17.100  42.861   1.447
70766ION    NA+36026   6.225  24.098  12.446
70767ION    NA+36027  27.964  21.730  13.778
70768ION    NA+36028   5.862  20.587  11.016
70769ION    NA+36029  20.466  42.301  11.843
70770ION    NA+36030  26.488  34.916  12.610
70771ION    NA+36031  17.485  40.209  10.711
70772ION    NA+36032  42.304  18.410   2.655
70773ION    NA+36033   2.687   4.767   0.265
70774ION    NA+36034   4.148  21.590   4.740
70775ION    NA+36035  24.567  26.651  10.854
70776ION    NA+36036  30.655  16.256  11.195
70777ION    NA+36037  32.052   6.012  10.633
70778ION    NA+36038  34.587   1.721   3.069
70779ION    NA+36039  36.562  32.024   2.285
70780ION    NA+36040   7.792  23.542  13.598
70781ION    NA+36041  19.190  32.511  13.588
70782ION    NA+36042   3.712  20.720   4.348
70783ION    NA+36043  17.678   3.010   2.065
70784ION    NA+36044  43.291  28.325  14.101
70785ION    NA+36045  37.553  23.299   2.347
70786ION    NA+36046  22.490  15.303  14.175
70787ION    NA+36047   8.591  15.034   1.866
70788ION    NA+36048  39.782  21.408  13.172
70789ION    NA+36049  40.045  13.801   2.882
70790ION    NA+36050  22.201   1.832   3.594
70791ION    NA+36051  10.815  44.910   0.711
70792ION    NA+36052  19.736  13.091  14.753
70793ION    NA+36053  31.052  40.042   1.254
70794ION    NA+36054  13.263  27.570   5.491
70795ION    NA+36055  34.570  14.298   0.589
70796ION    NA+36056  17.561  23.831   1.899
70797ION    NA+36057  23.961  18.645  13.024
70798ION    NA+36058  11.141  24.134  10.825
70799ION    NA+36059  17.933  10.298   2.955
70800ION    NA+36060  25.721  21.179   0.781
70801ION    NA+36061  39.168   8.786  12.709
70802ION    NA+36062  24.323  14.161  14.184
70803ION    NA+36063  44.446  13.311   3.982
70804ION    NA+36064  26.408  16.754   1.354
70805ION    NA+36065   6.627  36.387   2.956
70806ION    NA+36066  16.738  33.366   2.216
70807ION    NA+36067  12.784  44.883   2.423
70808ION    NA+36068  39.121  39.400   0.797
70809ION    NA+36069  44.328  29.914  12.047
70810ION    NA+36070  10.080  18.987  14.022
70811ION    NA+36071   6.985  13.631  11.161
70812ION    NA+36072  34.540  18.701  12.618
70813ION    NA+36073   0.685  33.147  14.859
70814ION    NA+36074   1.300  37.926  10.350
70815ION    NA+36075  20.339   3.779   0.201
70816ION    NA+36076  11.314  13.111  14.063
70817ION    NA+36077  23.614  11.058   4.080
70818ION    NA+36078  19.328   6.946  10.508
70819ION    NA+36079  24.489  38.496  12.080
70820ION    NA+36080  29.221  29.860   1.931
70821ION    NA+36081  32.509  21.647  11.515
70822ION    NA+36082  30.094  40.862   2.442
70823ION    NA+36083  16.566   9.738  11.699
70824ION    NA+36084  29.929  31.980   0.913
70825ION    NA+36085  39.604  13.650  10.993
70826ION    NA+36086  13.528  25.615  13.254
70827ION    NA+36087  36.240  32.407   1.370
70828ION    NA+36088  26.391   5.215  13.846
70829ION    NA+36089  19.849  20.993   2.547
70830ION    NA+36090  28.689   9.712  10.811
70831ION    NA+36091  35.619  38.354   5.052
70832ION    NA+36092  30.652   4.788   2.187
70833ION    NA+36093   5.385  20.285   4.149
70834ION    NA+36094  22.094  31.701   3.817
70835ION    NA+36095  35.435  12.664  11.174
70836ION    NA+36096  28.388   4.360  10.292
70837ION    NA+36097  31.596  34.161  12.361
70838ION    NA+36098  11.883  33.514  11.900
70839ION    NA+36099  38.041  23.742   0.502
70840ION    NA+36100  30.023   1.320  13.883
70841ION    NA+36101  37.066   2.452  11.814
70842ION    NA+36102   5.351  23.044   0.310
70843ION    NA+36103   2.764  26.472  11.871
70844ION    NA+36104   1.012   2.878   4.800
70845ION    NA+36105  12.045  29.917  13.475
70846ION    NA+36106  18.623   4.632   3.320
70847ION    NA+36107  42.936  29.644  12.891
70848ION    NA+36108  44.877   5.916  11.026
70849ION    NA+36109   7.572  42.543   3.934
70850ION    NA+36110  23.612  23.930  14.657
70851ION    NA+36111  12.549   8.435  11.922
70852ION    NA+36112  44.933  28.874   0.319
70853ION    NA+36113   5.843  36.117   0.049
70854ION    NA+36114   0.728  42.796  14.449
70855ION    NA+36115   4.993  30.946  13.882
70856ION    NA+36116  44.979  17.559  13.360
70857ION    NA+36117  16.412  39.037   0.163
70858ION    NA+36118  19.761   5.856   2.226
70859ION    NA+36119   1.439  17.272   2.375
70860ION    NA+36120  31.131  42.703  13.503
70861ION    NA+36121  26.162   3.817   1.575
70862ION    NA+36122  41.336  11.817   0.404
70863ION    NA+36123  22.621  30.560   5.329
70864ION    NA+36124  16.525  16.075   4.684
70865ION    NA+36125   5.301   4.419   2.620
70866ION    NA+36126  38.429  20.474   1.203
70867ION    NA+36127   6.398   9.126  14.524
70868ION    NA+36128  24.882  20.880  12.086
70869ION    NA+36129   3.707   9.383   2.313
70870ION    NA+36130  42.224  30.553  13.740
70871ION    NA+36131  20.124  10.075   3.665
70872ION    NA+36132  40.471  23.645   4.111
70873ION    NA+36133  14.090  41.775  12.185
70874ION    NA+36134  22.483   8.619  12.036
70875ION    NA+36135  24.645   3.591  12.114
70876ION    NA+36136  16.863  13.626   1.246
70877ION    NA+36137  12.155   1.228   3.708
70878ION    NA+36138  25.107   6.442   4.204
70879ION    NA+36139  30.148  38.675   1.721
70880ION    NA+36140  33.148  40.157   4.707
70881ION    NA+36141  27.319  41.110   1.305
70882ION    NA+36142  12.614  22.224  13.246
70883ION    NA+36143  31.159  41.338   3.087
70884ION    NA+36144   6.698  43.485  14.326
70885ION    NA+36145  33.289   4.569  10.220
70886ION    NA+36146  15.052  44.864   1.717
70887ION    NA+36147  12.618  24.699   2.639
70888ION    NA+36148  13.218  19.879   3.624
70889ION    NA+36149  33.719   5.583   2.167
70890ION    NA+36150   6.499  14.317  11.715
70891ION    NA+36151  32.825  14.829   2.860
70892ION    NA+36152  14.530   0.003  10.402
70893ION    NA+36153   2.918  28.499   1.022
70894ION    NA+36154  25.446  26.729  11.865
70895ION    NA+36155  15.822  31.515   0.312
70896ION    NA+36156   0.343   5.016   0.626
70897ION    NA+36157  17.893  38.302  13.312
70898ION    NA+36158   8.693  23.126   1.872
70899ION    NA+36159  34.922  35.924  13.826
70900ION    NA+36160  12.193   5.426   0.412
70901ION    NA+36161  31.503   9.911  13.976
70902ION    NA+36162   5.771  19.623   0.970
70903ION    NA+36163  40.434  13.744  12.089
70904ION    NA+36164  22.204  25.733   4.221
70905ION    NA+36165  37.979  30.565  13.024
70906ION    NA+36166  35.811   8.269   2.114
70907ION    NA+36167   1.012  19.419  10.996
70908ION    NA+36168  25.032  44.076  13.068
70909ION    NA+36169  19.965  13.556   0.427
70910ION    NA+36170  18.059  15.985  14.788
70911ION    NA+36171  37.343   1.975  13.098
70912ION    NA+36172   6.540  25.970  10.848
70913ION    NA+36173  41.324   2.026   4.716
70914ION    NA+36174   0.010  42.670   0.930
70915ION    NA+36175  42.854  15.395  10.696
70916ION    NA+36176  37.494  32.102  11.481
70917ION    NA+36177  16.859   3.279   1.331
70918ION    NA+36178  12.335  10.109  12.104
70919ION    NA+36179   1.972  13.022  14.812
70920ION    NA+36180  16.659  27.924   3.795
70921ION    NA+36181  28.976   1.508  13.052
70922ION    NA+36182  44.347  23.333  11.017
70923ION    NA+36183  40.729  13.342   4.103
70924ION    NA+36184  41.979  43.538   3.611
70925ION    NA+36185  26.176  37.372   1.726
70926ION    NA+36186  43.915   2.883   3.771
70927ION    NA+36187  34.655  15.102   1.866
70928ION    NA+36188   3.873   8.764   3.090
70929ION    NA+36189  29.718  37.532  13.032
70930ION    NA+36190  27.636  27.471  11.241
70931ION    NA+36191  18.704  37.751   2.076
70932ION    NA+36192  27.847   8.696   3.446
70933ION    NA+36193  22.957  40.033  14.139
70934ION    NA+36194  31.388   9.920   4.947
70935ION    NA+36195   0.935  28.071   3.062
70936ION    NA+36196  36.808  31.857   4.480
70937ION    NA+36197   6.341  24.248  14.885
70938ION    NA+36198   3.053   2.727   1.182
70939ION    NA+36199  13.597  38.909   2.125
70940ION    NA+36200  17.624  37.414   1.009
70941ION    NA+36201  31.204   3.324   3.421
70942ION    NA+36202  13.264   6.191   1.742
70943ION    NA+36203  29.102  24.918  13.108
70944ION    NA+36204  14.783  22.129  11.122
70945ION    NA+36205  42.104  26.185  11.158
70946ION    NA+36206  14.965   0.915  12.888
70947ION    NA+36207  24.583  12.857  10.677
70948ION    NA+36208  18.318  10.313  13.822
70949ION    NA+36209  21.172  21.193   4.096
70950ION    NA+36210  22.835  37.550  10.805
70951ION    NA+36211  40.091  39.117   1.006
70952ION    NA+36212  11.402   1.505  12.882
70953ION    NA+36213  20.848  33.799   4.476
70954ION    NA+36214   7.272  37.519  13.145
70955ION    NA+36215  39.109  24.448   3.279
70956ION    NA+36216  14.073   5.651  13.488
70957ION    NA+36217  30.443  41.327  14.407
70958ION    NA+36218  25.989  32.084  12.311
70959ION    NA+36219  36.694  23.655  14.689
70960ION    NA+36220  40.524  20.778  12.697
70961ION    NA+36221  36.307  25.046   2.670
70962ION    NA+36222   6.836  12.556   4.678
70963ION    NA+36223  26.338  23.953   1.741
70964ION    NA+36224  32.953  23.611  11.104
70965ION    NA+36225  11.295   9.866   2.316
70966ION    NA+36226  28.100  24.216   1.068
70967ION    NA+36227  31.862  11.791  10.902
70968ION    NA+36228  16.485  44.747   1.921
70969ION    NA+36229   5.078   9.888   3.297
70970ION    NA+36230  39.344  15.514  11.986
70971ION    NA+36231  39.998  44.206   4.748
70972ION    NA+36232  16.076  13.557   1.432
70973ION    NA+36233  12.716  21.817   1.076
70974ION    NA+36234  22.062  21.781   0.310
70975ION    NA+36235  41.117  36.505   2.008
70976ION    NA+36236  19.908   6.522   4.376
70977ION    NA+36237  34.401  39.805   2.757
70978ION    NA+36238  34.721   6.511   1.881
70979ION    NA+36239   0.444   7.365  11.587
70980ION    NA+36240  32.119   8.934   0.978
70981ION    NA+36241  42.931  19.730   1.321
70982ION    NA+36242  25.426  34.592   1.662
70983ION    NA+36243  19.519   4.760  10.903
70984ION    NA+36244   5.447  25.884  13.127
70985ION    NA+36245  38.709   1.906   5.177
70986ION    NA+36246  38.755  33.245   2.120
70987ION    NA+36247  18.362  20.168  11.582
70988ION    NA+36248  43.483  18.187   1.890
70989ION    NA+36249  31.785   2.222   1.062
70990ION    NA+36250  21.983  33.093   2.897
70991ION    NA+36251   9.685  32.465  11.481
70992ION    NA+36252   1.333  31.546   3.152
70993ION    NA+36253  44.074  21.506   4.873
70994ION    NA+36254  28.484  36.500  11.422
70995ION    NA+36255  15.995  33.076   2.819
70996ION    NA+36256   1.937  26.915   0.904
70997ION    NA+36257  20.267   4.237  12.810
70998ION    NA+36258  28.776  16.937  13.074
70999ION    NA+36259  42.669  18.211   3.826
71000ION    NA+36260  35.278  33.507  13.418
71001ION    NA+36261   9.623   2.418  12.938
71002ION    NA+36262  42.583  43.622  11.444
71003ION    NA+36263   7.220   3.238  14.571
71004ION    NA+36264  30.157  28.968   4.100
71005ION    NA+36265  31.395  41.592   4.612
71006ION    NA+36266  10.603  24.217   0.682
71007ION    NA+36267  17.741  30.629  12.502
71008ION    NA+36268   0.694  37.913  12.623
71009ION    NA+36269  16.131  14.524  12.367
71010ION    NA+36270  38.349  24.944   1.726
71011ION    NA+36271  36.061  25.579   1.861
71012ION    NA+36272  30.524  22.116  11.715
71013ION    NA+36273  41.790  44.526   2.285
71014ION    NA+36274  13.119  34.580  14.898
71015ION    NA+36275  13.003  44.201   3.778
71016ION    NA+36276  13.737  25.220   4.665
71017ION    NA+36277  21.721  16.865   2.468
71018ION    NA+36278  22.926  26.214   1.837
71019ION    NA+36279   7.020  28.972   0.289
71020ION    NA+36280   1.063  10.489   2.362
71021ION    NA+36281  17.654  30.385   2.426
71022ION    NA+36282  38.370   9.332   1.026
71023ION    NA+36283   9.165  22.834   3.078
71024ION    NA+36284  20.845   7.282  11.462
71025ION    NA+36285  21.349  25.808   2.808
71026ION    NA+36286  42.840  44.581  11.379
71027ION    NA+36287   2.299  10.144   0.784
71028ION    NA+36288  42.361  27.134   2.194
71029ION    NA+36289   0.649  36.843  13.575
71030ION    NA+36290   7.202   3.255   3.222
71031ION    NA+36291  29.688  44.432   0.620
71032ION    NA+36292  14.901  26.409   3.715
71033ION    NA+36293  35.654  34.487  14.119
71034ION    NA+36294  35.336   8.147   3.250
71035ION    NA+36295  23.071  32.623  12.318
71036ION    NA+36296  22.741  38.363  14.000
71037ION    NA+36297   1.629   1.175   1.868
71038ION    NA+36298  41.347  37.882  10.621
71039ION    NA+36299   1.661   7.245  11.970
71040ION    NA+36300   1.778  11.382  14.559
71041ION    NA+36301  41.391  36.228   2.824
71042ION    NA+36302  38.210   8.717   0.230
71043ION    NA+36303  16.995   5.048   1.587
71044ION    NA+36304   9.486   2.436  10.669
71045ION    NA+36305  19.056  25.495   3.223
71046ION    NA+36306  34.274  33.873  13.004
71047ION    NA+36307   8.196  33.303  12.382
71048ION    NA+36308   1.692   2.815  14.984
71049ION    NA+36309  25.864  12.840   9.727
71050ION    NA+36310  11.586  20.237   5.029
71051ION    NA+36311  37.592  40.490   4.112
71052ION    NA+36312  18.808  41.426   2.153
71053ION    NA+36313   5.340  38.273   3.591
71054ION    NA+36314   0.948  42.597  12.991
71055ION    NA+36315  38.023  22.845   3.300
71056ION    NA+36316  21.547  10.117   4.320
71057ION    NA+36317  16.252  13.655   0.676
71058ION    NA+36318  42.072   8.396   1.191
71059ION    NA+36319  25.303  22.384  13.725
71060ION    NA+36320   0.436   5.630  14.842
71061ION    NA+36321  26.513   6.626  11.860
71062ION    NA+36322  20.694  20.510  12.252
71063ION    NA+36323   2.243  18.750  14.842
71064ION    NA+36324  17.080  29.436   4.159
71065ION    NA+36325  41.241  22.194  12.932
71066ION    NA+36326  36.641  43.514  10.221
71067ION    NA+36327  32.374  18.285  12.984
71068ION    NA+36328  27.598   6.848   0.539
71069ION    NA+36329  42.187  22.638  11.955
71070ION    NA+36330  13.381  29.479   2.681
71071ION    NA+36331   7.375  14.888  11.966
71072ION    NA+36332  42.516  33.588   1.085
71073ION    NA+36333  44.983  13.210  14.088
71074ION    NA+36334   7.250  22.995  14.956
71075ION    NA+36335  43.113  15.756   3.952
71076ION    NA+36336  28.994  41.677  14.747
71077ION    NA+36337  36.416  21.286  14.034
71078ION    NA+36338  35.359  44.622  12.392
71079ION    NA+36339   9.831   1.496  10.766
71080ION    NA+36340   9.863  13.633   2.625
71081ION    NA+36341   7.169  26.593   3.274
71082ION    NA+36342  43.503   6.243  14.459
71083ION    NA+36343  33.580   9.197   1.632
71084ION    NA+36344  21.523  29.117   3.695
71085ION    NA+36345  13.327  10.025   1.026
71086ION    NA+36346  41.061  28.200   0.512
71087ION    NA+36347  43.214   2.773  12.435
71088ION    NA+36348  40.087  24.554  13.418
71089ION    NA+36349   2.449  14.337   1.715
71090ION    NA+36350  14.939  10.396   4.598
71091ION    NA+36351  16.396   2.027   4.131
71092ION    NA+36352   1.109  26.861   0.346
71093ION    NA+36353  42.262  43.850  13.793
71094ION    NA+36354  22.586   8.386   0.014
71095ION    NA+36355  38.659  30.080   0.260
71096ION    NA+36356  18.762   1.890   2.900
71097ION    NA+36357   4.476  31.434  11.531
71098ION    NA+36358  36.057   3.468   0.802
71099ION    NA+36359  26.943  30.609   0.968
71100ION    NA+36360   1.960   8.146   2.933
71101ION    NA+36361  19.628  42.973   3.158
71102ION    NA+36362  27.438   6.402  14.174
71103ION    NA+36363  20.523  17.427   2.200
71104ION    NA+36364   5.382  29.236   2.179
71105ION    NA+36365  38.604  14.436  14.410
71106ION    NA+36366  35.948  32.606  11.146
71107ION    NA+36367  32.365  40.471   4.171
71108ION    NA+36368   2.148   7.131   3.187
71109ION    NA+36369  23.485  22.723  13.379
71110ION    NA+36370   0.241  10.265   3.220
71111ION    NA+36371  36.274   9.891  11.456
71112ION    NA+36372   7.253  39.591   2.175
71113ION    NA+36373  43.504  41.154  12.855
71114ION    NA+36374  15.334  21.144  14.960
71115ION    NA+36375  19.906  15.171  12.415
71116ION    NA+36376  43.542   1.734  11.641
71117ION    NA+36377  16.669  25.863  14.380
71118ION    NA+36378   0.086   1.617   3.389
71119ION    NA+36379  18.540  33.095   2.868
71120ION    NA+36380  30.995  44.218  13.570
71121ION    NA+36381  44.127  42.689  12.172
71122ION    NA+36382  19.091  16.324  14.345
71123ION    NA+36383  15.480  34.308  11.725
71124ION    NA+36384  43.225  38.515   0.570
71125ION    NA+36385  25.139  12.316   4.104
71126ION    NA+36386  24.753   6.684   1.971
71127ION    NA+36387  33.349  33.873  11.446
71128ION    NA+36388   7.816  12.683   3.502
71129ION    NA+36389  21.868  24.006  14.082
71130ION    NA+36390  28.864  12.141   1.949
71131ION    NA+36391   1.430  19.357   2.171
71132ION    NA+36392   8.727  29.616   1.452
71133ION    NA+36393  39.108   9.200  13.867
71134ION    NA+36394  43.831  41.636  12.157
71135ION    NA+36395  42.688  20.376  11.411
71136ION    NA+36396  31.121   3.314   9.740
71137ION    NA+36397   2.669  25.219   0.112
71138ION    NA+36398  29.429  15.834   0.374
71139ION    NA+36399  31.517  11.926   1.462
71140ION    NA+36400  44.294  12.310  11.733
71141ION    NA+36401  40.671  36.461  10.822
71142ION    NA+36402  36.373  28.051   3.409
71143ION    NA+36403  30.124  26.982   3.196
71144ION    NA+36404  35.037   1.728   1.714
71145ION    NA+36405  13.105  44.130  12.913
71146ION    NA+36406  11.848   3.120  12.003
71147ION    NA+36407  21.337  18.419   3.743
71148ION    NA+36408  43.835   1.423  14.982
71149ION    NA+36409  27.023  18.197  13.594
71150ION    NA+36410  23.561  13.776  10.709
71151ION    NA+36411   4.032   2.895   1.302
71152ION    NA+36412  17.235  10.700  14.540
71153ION    NA+36413  13.908  18.441  14.589
71154ION    NA+36414  16.569   2.733  13.785
71155ION    NA+36415  21.379   3.884   0.440
71156ION    NA+36416  27.868  33.112  13.884
71157ION    NA+36417  18.697  11.223  14.435
71158ION    NA+36418  26.908  35.861   3.082
71159ION    NA+36419  20.540  38.976   2.746
71160ION    NA+36420  16.329  16.050  13.653
71161ION    NA+36421  29.924  35.788  14.898
71162ION    NA+36422   2.891   2.964   0.209
71163ION    NA+36423   6.640   3.769  11.188
71164ION    NA+36424  33.574   0.128  10.699
71165ION    NA+36425  41.210  28.819   3.949
71166ION    NA+36426  21.721  12.082   2.095
71167ION    NA+36427  20.426  19.419   1.532
71168ION    NA+36428  21.281  28.166  10.711
71169ION    NA+36429  34.422  43.330   4.306
71170ION    NA+36430  18.529  14.141  14.951
71171ION    NA+36431  11.648  37.793  13.804
71172ION    NA+36432  38.517  19.476   2.501
71173ION    NA+36433  14.978  15.843  12.628
71174ION    NA+36434  17.828  19.506  12.116
71175ION    NA+36435   7.279  30.117   5.349
71176ION    NA+36436  44.763  32.015   9.683
71177ION    NA+36437   7.100   0.426   4.530
71178ION    NA+36438  20.411  30.329  11.427
71179ION    NA+36439  29.224  13.234   3.762
71180ION    NA+36440  26.098  22.299   9.742
71181ION    NA+36441  39.409  30.299   4.000
71182ION    NA+36442  13.259   2.030  12.939
71183ION    NA+36443   0.136  27.083   0.396
71184ION    NA+36444  10.303  24.051   1.728
71185ION    NA+36445  17.784  42.565  14.871
71186ION    NA+36446  15.002  27.589  10.614
71187ION    NA+36447   8.968  17.171  14.566
71188ION    NA+36448  13.136  14.960   4.370
71189ION    NA+36449  35.610  16.604  12.953
71190ION    NA+36450  38.768  29.099  10.916
71191ION    NA+36451  33.053  39.366  14.518
71192ION    NA+36452  29.871  32.560  14.376
71193ION    NA+36453  24.709  13.705   0.231
71194ION    NA+36454  36.289  31.897  13.908
71195ION    NA+36455  39.854  43.719  11.366
71196ION    NA+36456   6.664  20.661  10.396
71197ION    NA+36457   2.848  22.268  11.160
71198ION    NA+36458  14.526  41.227  14.123
71199ION    NA+36459  35.889  31.425   1.852
71200ION    NA+36460  24.844  28.261  13.314
71201ION    NA+36461  25.992   5.535   2.835
71202ION    NA+36462  40.944   9.763   1.430
71203ION    NA+36463  28.119  30.716  12.550
71204ION    NA+36464  27.004  26.910   1.819
71205ION    NA+36465   3.323   8.121  11.338
71206ION    NA+36466   1.295  13.017   1.123
71207ION    NA+36467   8.530  17.452   1.802
71208ION    NA+36468   7.204  27.278  10.664
71209ION    NA+36469  11.834  44.731   0.822
71210ION    NA+36470   9.358  28.559   3.517
71211ION    NA+36471  15.648   7.263  11.804
71212ION    NA+36472  27.454  31.949  13.896
71213ION    NA+36473  24.239  42.211  13.257
71214ION    NA+36474  35.495  15.826  13.683
71215ION    NA+36475   0.093  10.051   1.418
71216ION    NA+36476  27.078  13.519   0.115
71217ION    NA+36477  24.565  24.093  12.459
71218ION    NA+36478  13.247  26.452   4.189
71219ION    NA+36479  39.879  35.818  12.435
71220ION    NA+36480  38.910  13.712  13.965
71221ION    NA+36481  32.114  23.025   0.821
71222ION    NA+36482  38.749  19.524  11.191
71223ION    NA+36483  41.536   3.823   4.136
71224ION    NA+36484  12.400  30.103   0.600
71225ION    NA+36485   7.174  13.997   5.173
71226ION    NA+36486  30.841  44.931  11.962
71227ION    NA+36487   4.925   6.738  12.043
71228ION    NA+36488  18.730   8.474   3.625
71229ION    NA+36489  36.292  44.077  13.748
71230ION    NA+36490   2.332   8.378  10.807
71231ION    NA+36491  33.513  28.182  13.863
71232ION    NA+36492  42.533  38.690   1.011
71233ION    NA+36493   1.220   5.913  12.869
71234ION    NA+36494   8.298   5.850   0.996
71235ION    NA+36495  42.022   8.375   2.100
71236ION    NA+36496   8.050  35.362   2.686
71237ION    NA+36497  39.238   0.774   0.823
71238ION    NA+36498  44.878   1.835   2.436
71239ION    NA+36499  38.155  16.973  11.939
71240ION    NA+36500  41.471   9.575  13.547
71241ION    NA+36501  28.704  24.905  10.098
71242ION    NA+36502  23.527  20.686  11.011
71243ION    NA+36503  44.770  24.115   3.803
71244ION    NA+36504  38.504  11.541  10.792
71245ION    NA+36505  33.502  32.322   3.670
71246ION    NA+36506  22.907  11.493  12.571
71247ION    NA+36507  19.670   8.787  10.824
71248ION    NA+36508  20.450  32.810   2.304
71249ION    NA+36509  11.610  23.113   3.910
71250ION    NA+36510  16.452  26.815  13.969
71251ION    NA+36511  27.225  36.530  12.580
71252ION    NA+36512  22.863  13.663   2.878
71253ION    NA+36513  22.033   2.100  11.633
71254ION    NA+36514  16.695  14.705  11.402
71255ION    NA+36515  24.420  28.630  10.133
71256ION    NA+36516  37.910  18.709   0.991
71257ION    NA+36517  28.201  32.897   1.241
71258ION    NA+36518  39.150  17.979  14.340
71259ION    NA+36519  21.906  19.302  10.213
71260ION    NA+36520  17.333  15.412  11.098
71261ION    NA+36521  33.323   2.957   9.852
71262ION    NA+36522   2.270  26.559   1.633
71263ION    NA+36523  33.221  36.721   3.684
71264ION    NA+36524   0.616  14.513   1.304
71265ION    NA+36525  30.477  33.426  12.403
71266ION    NA+36526  38.848   0.618   9.844
71267ION    NA+36527   8.240  28.132  14.356
71268ION    NA+36528   9.200  15.501  11.648
71269ION    NA+36529  37.575  28.960   1.609
71270ION    NA+36530  35.498  43.304   1.948
71271ION    NA+36531  37.238  28.634   2.492
71272ION    NA+36532  38.173   1.464  12.872
71273ION    NA+36533  18.932  25.949  12.578
71274ION    NA+36534  16.664  18.268  12.363
71275ION    NA+36535  30.567  33.639  10.698
71276ION    NA+36536  30.104  10.325  14.058
71277ION    NA+36537  38.686  23.676   4.319
71278ION    NA+36538  30.250   6.582   3.772
71279ION    NA+36539  29.046  15.334   1.412
71280ION    NA+36540  43.993  14.105   1.322
71281ION    NA+36541  17.183  32.141   1.132
71282ION    NA+36542   6.145  36.534  11.623
71283ION    NA+36543   0.390  21.107   4.471
71284ION    NA+36544  16.193  13.533  12.634
71285ION    NA+36545  29.927  34.766   4.847
71286ION    NA+36546  15.079  14.754  13.992
71287ION    NA+36547  40.036  25.222   3.303
71288ION    NA+36548   1.212  23.616   9.585
71289ION    NA+36549  10.613  22.747   1.152
71290ION    NA+36550  15.099   3.156   1.865
71291ION    NA+36551   2.424  11.877   2.369
71292ION    NA+36552  27.709  35.752  10.617
71293ION    NA+36553  26.578  16.937  10.720
71294ION    NA+36554  31.343   1.629   0.575
71295ION    NA+36555   1.071  27.437  13.904
71296ION    NA+36556  28.655  36.006   0.285
71297ION    NA+36557  39.474   9.460   2.236
71298ION    NA+36558  44.823  10.989   1.895
71299ION    NA+36559   3.929  20.829  14.091
71300ION    NA+36560  34.310   9.759  11.542
71301ION    NA+36561  35.180  12.897   4.169
71302ION    NA+36562   8.696  31.682  13.497
71303ION    NA+36563  14.449  36.245   0.838
71304ION    NA+36564  21.205  21.418   2.739
71305ION    NA+36565  22.274   9.157  14.012
71306ION    NA+36566  24.882  23.824   1.768
71307ION    NA+36567   8.116  37.882   4.580
71308ION    NA+36568   1.853   9.577  10.879
71309ION    NA+36569  16.353  21.958   1.459
71310ION    NA+36570  24.225  25.199  12.015
71311ION    NA+36571  12.365  22.967   2.589
71312ION    NA+36572  33.698  20.406   1.045
71313ION    NA+36573  24.243  39.302   2.808
71314ION    NA+36574   6.427  43.799  10.949
71315ION    NA+36575  11.587   5.481  10.566
71316ION    NA+36576  33.778  14.052   0.954
71317ION    NA+36577   0.987  38.601   4.173
71318ION    NA+36578  24.207   8.125  10.909
71319ION    NA+36579  17.893  42.726  13.124
71320ION    NA+36580  26.040  21.212  11.668
71321ION    NA+36581  39.003  28.402  12.950
71322ION    NA+36582  35.670  27.505  13.729
71323ION    NA+36583  20.227  12.803  13.296
71324ION    NA+36584  38.678  15.503   2.362
71325ION    NA+36585   4.566   3.526   1.865
71326ION    NA+36586  17.472   8.487   2.181
71327ION    NA+36587  34.900   7.830   0.957
71328ION    NA+36588  34.966  40.441   3.365
71329ION    NA+36589  38.823   8.339   5.230
71330ION    NA+36590  15.678   1.731  12.108
71331ION    NA+36591  20.591  19.595  14.698
71332ION    NA+36592  29.458   5.252  14.772
71333ION    NA+36593  38.918   7.903  12.680
71334ION    NA+36594  33.831   5.348   0.971
71335ION    NA+36595  29.972  14.125   3.040
71336ION    NA+36596  28.668   0.306   0.257
71337ION    NA+36597   0.843  28.231  13.339
71338ION    NA+36598  32.505  39.329   2.151
71339ION    NA+36599   5.788   7.082   4.955
71340ION    NA+36600  21.629  28.345  13.816
71341ION    NA+36601   1.513  36.714  13.565
71342ION    NA+36602  24.362  25.709   4.397
71343ION    NA+36603   3.552   9.796   3.615
71344ION    NA+36604   8.352  14.110   1.300
71345ION    NA+36605  26.391   3.283  12.417
71346ION    NA+36606  42.900  10.810   1.838
71347ION    NA+36607  37.356  35.894   0.128
71348ION    NA+36608  30.101  35.514  11.879
71349ION    NA+36609  36.593  22.345   3.458
71350ION    NA+36610  29.870  22.481  12.092
71351ION    NA+36611   5.982  39.643  13.080
71352ION    NA+36612  37.835  32.380   4.675
71353ION    NA+36613  36.069  16.794   2.917
71354ION    NA+36614  43.858  38.771   2.175
71355ION    NA+36615  11.809  17.993   0.389
71356ION    NA+36616  43.765  21.667  11.040
71357ION    NA+36617   8.665   8.464  11.707
71358ION    NA+36618  22.105   3.017   3.170
71359ION    NA+36619  12.662  28.089   0.287
71360ION    NA+36620   2.727  17.728  10.906
71361ION    NA+36621  42.054  16.310  12.532
71362ION    NA+36622  33.650  11.639   2.727
71363ION    NA+36623  23.860  35.377   2.494
71364ION    NA+36624  21.676   5.684  13.049
71365ION    NA+36625  16.003  12.209   0.154
71366ION    NA+36626  19.847  10.453  11.690
71367ION    NA+36627  21.255  10.071  10.094
71368ION    NA+36628  12.550  23.169  12.390
71369ION    NA+36629  36.820   1.741   3.453
71370ION    NA+36630  40.500  42.344   0.579
71371ION    NA+36631   6.313  29.364  14.077
71372ION    NA+36632  20.801  16.256   0.979
71373ION    NA+36633  21.447  38.140  11.879
71374ION    NA+36634  39.282   1.759   3.558
71375ION    NA+36635  10.376  30.086   5.304
71376ION    NA+36636  18.972   0.605   1.477
71377ION    NA+36637  16.018  20.971   3.762
71378ION    NA+36638  14.169  42.923   0.209
71379ION    NA+36639  12.687   9.743   4.469
71380ION    NA+36640  24.957  16.920  11.057
71381ION    NA+36641  40.769   0.767  10.722
71382ION    NA+36642  28.212  44.299   1.733
71383ION    NA+36643  16.373  13.185   4.237
71384ION    NA+36644  19.829   1.979  13.465
71385ION    NA+36645   9.705  23.845  10.703
71386ION    NA+36646  10.632  18.628   2.924
71387ION    NA+36647  36.347  36.833   1.700
71388ION    NA+36648  40.427  22.233  10.346
71389ION    NA+36649  23.574   7.413  13.100
71390ION    NA+36650  44.472  34.619   2.762
71391ION    NA+36651   8.445  34.440  14.768
71392ION    NA+36652   7.880  25.265  12.899
71393ION    NA+36653  25.185  33.708  10.715
71394ION    NA+36654  43.155  20.539   1.375
71395ION    NA+36655  31.142  34.619   4.125
71396ION    NA+36656  28.415  36.233  13.153
71397ION    NA+36657  10.646  17.390  10.341
71398ION    NA+36658  30.637  10.154   1.275
71399ION    NA+36659  20.403   4.124  11.081
71400ION    NA+36660   9.515  20.970   0.078
71401ION    NA+36661   2.442  38.620   0.129
71402ION    NA+36662  29.318  11.789   2.834
71403ION    NA+36663  32.570   3.843   1.868
71404ION    NA+36664  12.340  30.113   3.422
71405ION    NA+36665  18.649  30.399  11.524
71406ION    NA+36666   1.261   5.242   0.065
71407ION    NA+36667  14.167   0.885  10.739
71408ION    NA+36668  10.700  34.793  14.617
71409ION    NA+36669  44.906  30.487   2.724
71410ION    NA+36670  21.072  26.977   3.102
71411ION    NA+36671   5.110  43.886   1.590
71412ION    NA+36672   6.495  26.971  14.958
71413ION    NA+36673   2.817  29.017  10.700
71414ION    NA+36674  11.198  30.316  13.826
71415ION    NA+36675   1.291  15.671   4.159
71416ION    NA+36676  31.880  28.997   2.293
71417ION    NA+36677  10.945  33.035   0.129
71418ION    NA+36678  38.452   8.560  14.272
71419ION    NA+36679  31.403   6.786  14.283
71420ION    NA+36680  36.734  19.971  14.577
71421ION    NA+36681  38.973  42.532  14.256
71422ION    NA+36682  11.881  39.229  13.502
71423ION    NA+36683  21.368  24.281  11.558
71424ION    NA+36684  11.261  41.362  14.267
71425ION    NA+36685  17.119  23.626  14.727
71426ION    NA+36686  29.888  28.066   4.438
71427ION    NA+36687   6.459  30.707  14.387
71428ION    NA+36688   1.068  36.679   3.496
71429ION    NA+36689  27.939   0.405  14.028
71430ION    NA+36690   8.948  38.230  11.216
71431ION    NA+36691  35.293  32.714   1.463
71432ION    NA+36692  28.575  24.206   1.838
71433ION    NA+36693  41.859  19.674   4.523
71434ION    NA+36694  19.380  25.183  10.368
71435ION    NA+36695   6.063  30.284   4.368
71436ION    NA+36696  11.722  14.005  13.877
71437ION    NA+36697  12.775  17.431   3.816
71438ION    NA+36698  24.251  30.618   1.879
71439ION    NA+36699   8.160  18.564   2.891
71440ION    NA+36700   9.902  42.120  14.539
71441ION    NA+36701  19.799   7.338   2.775
71442ION    NA+36702  33.433   3.710  14.456
71443ION    NA+36703  26.226  15.876   1.798
71444ION    NA+36704  42.044   5.386  10.704
71445ION    NA+36705  28.623  22.995  12.494
71446ION    NA+36706   1.235   4.875   4.395
71447ION    NA+36707   7.690  31.453   0.391
71448ION    NA+36708  37.971  15.400   3.567
71449ION    NA+36709  24.807  34.248  11.472
71450ION    NA+36710   2.043   5.512  13.450
71451ION    NA+36711  25.973   8.896  13.412
71452ION    NA+36712  29.238   6.405   4.007
71453ION    NA+36713  39.782   6.809   0.847
71454ION    NA+36714   4.445  16.790  11.924
71455ION    NA+36715   6.850  10.380   4.159
71456ION    NA+36716  14.850  43.949  14.871
71457ION    NA+36717  12.881  38.735  14.827
71458ION    NA+36718  11.193  36.488   0.543
71459ION    NA+36719  42.027   1.881  13.431
71460ION    NA+36720  19.135   3.835  12.141
71461ION    NA+36721  15.773  28.225  10.655
71462ION    NA+36722   0.254  23.869  11.093
71463ION    NA+36723  42.030  19.346   0.263
71464ION    NA+36724  14.167  26.554   4.569
71465ION    NA+36725   7.575  18.117   4.613
71466ION    NA+36726   0.974  13.282   5.010
71467ION    NA+36727   2.658   3.800   0.517
71468ION    NA+36728  22.056  38.986   3.915
71469ION    NA+36729  35.591  32.661   4.814
71470ION    NA+36730   1.730  21.607  11.816
71471ION    NA+36731  43.127   2.504   4.256
71472ION    NA+36732   4.162  25.765  14.481
71473ION    NA+36733  21.814  29.183  12.795
71474ION    NA+36734  40.249  42.943   3.373
71475ION    NA+36735  23.522   6.888  11.732
71476ION    NA+36736  33.396  20.128  10.284
71477ION    NA+36737  27.437   5.041   1.215
71478ION    NA+36738  25.556   5.102  13.305
71479ION    NA+36739  34.519  14.245   2.534
71480ION    NA+36740  16.985  29.820  14.318
71481ION    NA+36741  27.575  39.292   1.830
71482ION    NA+36742  22.340  32.693   2.127
71483ION    NA+36743  26.413   0.499   1.544
71484ION    NA+36744  34.467  21.684  11.576
71485ION    NA+36745  37.029  40.366  11.462
71486ION    NA+36746  39.800  27.315   0.394
71487ION    NA+36747  21.598   1.357   0.792
71488ION    NA+36748  34.374  43.463   0.483
71489ION    NA+36749  26.672   9.714   1.852
71490ION    NA+36750  29.916  19.272   4.595
71491ION    NA+36751  17.609   6.360  14.909
71492ION    NA+36752  20.088  19.525  10.170
71493ION    NA+36753   9.669  43.778   2.843
71494ION    NA+36754  44.026   2.252  12.699
71495ION    NA+36755  13.669   2.245   1.956
71496ION    NA+36756   2.217  19.309  12.049
71497ION    NA+36757  41.362  40.486   4.220
71498ION    NA+36758  19.622  37.976   3.615
71499ION    NA+36759   5.016  24.869  13.993
71500ION    NA+36760   0.943  42.755   3.203
71501ION    NA+36761  26.668  27.688   0.705
71502ION    NA+36762  19.344  14.295   3.740
71503ION    NA+36763   9.232  36.080   4.593
71504ION    NA+36764  41.517  29.683   1.839
71505ION    NA+36765  34.160  21.375   1.797
71506ION    NA+36766  41.890  22.751   4.424
71507ION    NA+36767  17.906  28.263   0.760
71508ION    NA+36768  23.109  43.042  14.425
71509ION    NA+36769  16.672  20.128  14.534
71510ION    NA+36770  43.132  27.265   3.677
71511ION    NA+36771   6.514  25.394   0.823
71512ION    NA+36772  13.487   8.116  12.188
71513ION    NA+36773   3.456  31.643  14.338
71514ION    NA+36774  15.761  37.264   1.117
71515ION    NA+36775   3.986   8.552  10.903
71516ION    NA+36776  14.009  26.629  10.339
71517ION    NA+36777  10.080  38.064  10.284
71518ION    NA+36778  41.951  12.529  12.104
71519ION    NA+36779  32.361  19.199  13.539
71520ION    NA+36780   3.096   3.458   2.658
71521ION    NA+36781  23.817  38.940   4.476
71522ION    NA+36782  27.479  15.513   4.791
71523ION    NA+36783  20.682  29.480  13.705
71524ION    NA+36784   8.611   2.379  14.968
71525ION    NA+36785  17.129   5.745   0.986
71526ION    NA+36786   1.664  39.336   4.210
71527ION    NA+36787  34.200   7.337  11.132
71528ION    NA+36788   6.630  24.356  11.083
71529ION    NA+36789  16.536  27.385   0.380
71530ION    NA+36790  11.072  25.504  12.514
71531ION    NA+36791  26.439  32.023   1.061
71532ION    NA+36792  39.046  22.509  12.047
71533ION    NA+36793  41.519  38.987  11.753
71534ION    NA+36794   7.255   9.021   1.609
71535ION    NA+36795  40.293   7.759  11.921
71536ION    NA+36796  44.981   5.205   2.330
71537ION    NA+36797  25.197  37.886  11.724
71538ION    NA+36798   7.266  40.062  14.009
71539ION    NA+36799   4.912  12.230   0.221
71540ION    NA+36800  16.950  16.313   0.068
71541ION    NA+36801  31.270  24.248  12.950
71542ION    NA+36802  18.823  15.526  11.845
71543ION    NA+36803  10.959  11.576  10.765
71544ION    NA+36804   1.354   4.074   1.287
71545ION    NA+36805  10.456  18.223   3.700
71546ION    NA+36806  28.207  39.773   0.798
71547ION    NA+36807  38.119  33.970   3.227
71548ION    NA+36808   3.268  15.736   3.255
71549ION    NA+36809  37.476  15.839  13.804
71550ION    NA+36810  29.832   5.125   4.148
71551ION    NA+36811  40.774  32.318  12.114
71552ION    NA+36812   6.477  12.861  11.571
71553ION    NA+36813  39.440  28.438   2.891
71554ION    NA+36814  15.240  27.348   3.601
71555ION    NA+36815  11.361   8.009  11.496
71556ION    NA+36816  30.907   8.660   2.179
71557ION    NA+36817  38.119  31.809  14.946
71558ION    NA+36818  15.818  37.011   2.159
71559ION    NA+36819  28.243   9.095   2.013
71560ION    NA+36820  21.094  42.268   4.210
71561ION    NA+36821  30.383  21.028   1.572
71562ION    NA+36822  40.756  24.929   2.832
71563ION    NA+36823  17.911  17.368   4.137
71564ION    NA+36824  39.423  15.843   4.607
71565ION    NA+36825   0.776   4.815  14.591
71566ION    NA+36826  34.697  43.301  14.332
71567ION    NA+36827  42.952  34.098   2.496
71568ION    NA+36828   9.988   3.464  13.724
71569ION    NA+36829  44.986  44.185   2.612
71570ION    NA+36830  13.861  22.797   3.876
71571ION    NA+36831   4.864  44.099   0.643
71572ION    NA+36832  13.272  18.943   4.479
71573ION    NA+36833   4.682  15.251  14.103
71574ION    NA+36834  40.811  37.375   2.078
71575ION    NA+36835  36.876  34.844   4.697
71576ION    NA+36836   1.665  39.166  11.780
71577ION    NA+36837   2.097  20.442   4.486
71578ION    NA+36838  14.813  44.872  13.040
71579ION    NA+36839   4.398  44.366   3.603
71580ION    NA+36840  18.417  24.773   1.551
71581ION    NA+36841  38.362  15.342  11.906
71582ION    NA+36842   1.232   1.909   0.401
71583ION    NA+36843  29.390  14.069   1.413
71584ION    NA+36844  35.671  24.803   1.938
71585ION    NA+36845   4.115  19.125   0.085
71586ION    NA+36846  29.891  11.576  14.101
71587ION    NA+36847  21.556   1.550  13.435
71588ION    NA+36848  28.200  40.517  11.939
71589ION    NA+36849   7.184   1.808   3.146
71590ION    NA+36850  14.655  12.002   4.845
71591ION    NA+36851  34.217  23.924  13.027
71592ION    NA+36852  34.423  38.291  14.457
71593ION    NA+36853   6.315   6.513   3.962
71594ION    NA+36854  16.017  20.387  12.262
71595ION    NA+36855  37.521  44.643  10.890
71596ION    NA+36856  32.405  29.726  12.000
71597ION    NA+36857  40.434  18.990   2.715
71598ION    NA+36858  31.654  37.369  14.839
71599ION    NA+36859  37.996  22.736  11.756
71600ION    NA+36860  28.815  17.620   1.395
71601ION    NA+36861  15.372  19.731  14.584
71602ION    NA+36862  44.366   1.868  14.261
71603ION    NA+36863  20.768  20.196  11.250
71604ION    NA+36864  38.134  42.623   0.283
71605ION    NA+36865  15.573  22.385   0.914
71606ION    NA+36866  24.648  30.242  14.526
71607ION    NA+36867   7.428  43.748   0.387
71608ION    NA+36868   8.818  31.130   0.205
71609ION    NA+36869  26.537  41.745  12.920
71610ION    NA+36870  16.006   8.425  10.643
71611ION    NA+36871  44.267  24.001  13.382
71612ION    NA+36872  33.226  34.465   0.959
71613ION    NA+36873  35.160  10.488  12.570
71614ION    NA+36874  12.998  27.882   5.119
71615ION    NA+36875  41.538  10.136   2.162
71616ION    NA+36876  22.234   9.375   2.342
71617ION    NA+36877  17.138  29.017  12.607
71618ION    NA+36878  28.372  34.788  11.267
71619ION    NA+36879  17.120  28.879   0.719
71620ION    NA+36880   6.823  14.070   0.353
71621ION    NA+36881  11.963   2.385   1.358
71622ION    NA+36882  14.496  17.667  12.885
71623ION    NA+36883  11.107   0.193   3.775
71624ION    NA+36884  11.724  10.676   0.008
71625ION    NA+36885  28.670  33.568  13.112
71626ION    NA+36886  22.214  41.201  11.054
71627ION    NA+36887  16.270  23.969   1.695
71628ION    NA+36888  10.293  27.345   1.417
71629ION    NA+36889   3.290  40.003  11.898
71630ION    NA+36890   6.738  14.914   2.927
71631ION    NA+36891  43.097  39.254   0.894
71632ION    NA+36892  34.373  44.233   1.751
71633ION    NA+36893  11.866   8.791  11.128
71634ION    NA+36894  13.523   9.840  14.060
71635ION    NA+36895   7.390   3.121   4.589
71636ION    NA+36896  39.585  10.092  11.663
71637ION    NA+36897  21.153  18.303  14.355
71638ION    NA+36898  44.584  20.005  12.382
71639ION    NA+36899  33.189  38.690   9.919
71640ION    NA+36900  39.713  19.667  10.964
71641ION    NA+36901  13.892  34.568  10.758
71642ION    NA+36902  34.365  19.592  10.875
71643ION    NA+36903   1.678  16.412   3.611
71644ION    NA+36904   7.630  37.992  11.709
71645ION    NA+36905  12.867   0.002  13.090
71646ION    NA+36906  34.059  13.931   4.614
71647ION    NA+36907  16.033  16.758  12.642
71648ION    NA+36908   7.619  23.498   2.454
71649ION    NA+36909  19.123  11.760   4.674
71650ION    NA+36910  27.808  38.116  12.270
71651ION    NA+36911   6.515  37.471   5.253
71652ION    NA+36912  35.556  11.736  12.159
71653ION    NA+36913   1.808  15.211  10.621
71654ION    NA+36914   3.471   7.247  14.340
71655ION    NA+36915  18.276   9.520   1.700
71656ION    NA+36916   2.916  44.194   3.243
71657ION    NA+36917   7.828  19.659  13.240
71658ION    NA+36918  27.432  31.695   3.300
71659ION    NA+36919  43.336  23.485  11.937
71660ION    NA+36920  41.533  33.979  11.501
71661ION    NA+36921  16.161   8.134  14.468
71662ION    NA+36922  11.873   3.654   3.294
71663ION    NA+36923   4.761  35.072   1.455
71664ION    NA+36924   4.183  40.766   2.427
71665ION    NA+36925  41.055   5.876   1.880
71666ION    NA+36926   8.709  37.120  11.734
71667ION    NA+36927   2.602  39.008   4.056
71668ION    NA+36928  11.038  11.673   5.488
71669ION    NA+36929  26.651  20.343  12.857
71670ION    NA+36930  30.437  28.941  11.360
71671ION    NA+36931  22.065  24.067   2.714
71672ION    NA+36932  43.474  36.641  13.952
71673ION    NA+36933  35.067  43.994   1.072
71674ION    NA+36934  23.882  20.790   4.030
71675ION    NA+36935  15.449  21.383  11.103
71676ION    NA+36936  44.893  12.773   0.232
71677ION    NA+36937   9.478  37.747  11.677
71678ION    NA+36938  37.967  20.358  11.680
71679ION    NA+36939   0.008  30.433   4.159
71680ION    NA+36940  36.998  30.523   4.438
71681ION    NA+36941  24.796  18.662  12.370
71682ION    NA+36942  20.016   7.828  11.582
71683ION    NA+36943   7.461  31.774   1.686
71684ION    NA+36944   7.772  13.225   2.246
71685ION    NA+36945   1.390   3.008   3.138
71686ION    NA+36946  35.966  22.969   2.396
71687ION    NA+36947  41.997  15.159   1.447
71688ION    NA+36948  22.309  28.157   3.290
71689ION    NA+36949  13.064  26.966  14.037
71690ION    NA+36950  15.180   6.138  14.430
71691ION    NA+36951  23.962   3.357   2.593
71692ION    NA+36952  25.911  42.970  13.924
71693ION    NA+36953  16.305  14.321   3.928
71694ION    NA+36954  31.516  38.484  10.643
71695ION    NA+36955  33.666  35.283   1.330
71696ION    NA+36956  36.734  28.694   1.630
71697ION    NA+36957  29.759  37.247  11.156
71698ION    NA+36958  32.386  41.127   3.306
71699ION    NA+36959  14.968   2.475   3.047
71700ION    NA+36960  16.112   6.393  12.914
71701ION    NA+36961  34.311   7.442   1.860
71702ION    NA+36962   6.213  23.798  13.524
71703ION    NA+36963  24.012  32.468  12.019
71704ION    NA+36964   7.043  41.676   1.129
71705ION    NA+36965  29.100   6.569  14.051
71706ION    NA+36966  17.057  12.779   0.468
71707ION    NA+36967   6.232  28.436  12.524
71708ION    NA+36968  30.487  25.224  13.415
71709ION    NA+36969  11.156  33.515  13.482
71710ION    NA+36970   6.960  34.355   4.613
71711ION    NA+36971  14.733  22.173   2.945
71712ION    NA+36972   6.952  22.252  13.396
71713ION    NA+36973  31.118  15.558  10.648
71714ION    NA+36974  21.148   2.070   1.331
71715ION    NA+36975  11.635  10.191  11.105
71716ION    NA+36976  28.727  19.522   3.867
71717ION    NA+36977  22.689  27.582  12.809
71718ION    NA+36978  11.934  39.803  14.684
71719ION    NA+36979  34.479  11.858  13.570
71720ION    NA+36980  32.174  17.034  13.133
71721ION    NA+36981  12.979  32.502  13.131
71722ION    NA+36982  41.335  41.421  10.571
71723ION    NA+36983   6.829  31.034   1.926
71724ION    NA+36984  16.217  38.447   1.976
71725ION    NA+36985   1.952  38.226   4.129
71726ION    NA+36986   8.494  10.816  11.939
71727ION    NA+36987  36.807   8.406  10.608
71728ION    NA+36988  30.575  15.868   0.941
71729ION    NA+36989  13.213  13.825   2.800
71730ION    NA+36990   9.209   1.441  12.542
71731ION    NA+36991  17.831  18.074   3.433
71732ION    NA+36992  42.871  26.415  12.444
71733ION    NA+36993  32.194  19.657   3.715
71734ION    NA+36994  27.954   4.436  12.297
71735ION    NA+36995   6.140  39.840  14.405
71736ION    NA+36996   1.466  31.683   1.898
71737ION    NA+36997  28.169  17.014   1.937
71738ION    NA+36998  23.513  37.202   3.804
71739ION    NA+36999  21.076  15.994   4.203
71740ION    NA+37000  26.344  33.935   0.251
71741ION    NA+37001   2.762  36.451   0.507
71742ION    NA+37002  43.018  20.125   2.038
71743ION    NA+37003  17.418  16.533   4.570
71744ION    NA+37004  26.725  23.132  10.827
71745ION    NA+37005  28.516  16.029   2.220
71746ION    NA+37006  26.780  14.416  10.711
71747ION    NA+37007  18.192  39.065  12.978
71748ION    NA+37008  44.823   9.633   2.118
71749ION    NA+37009   3.214  38.499  14.503
71750ION    NA+37010  20.017  21.926  13.174
71751ION    NA+37011  29.050  34.774   2.544
71752ION    NA+37012  14.121  16.671  14.107
71753ION    NA+37013   0.343  23.637  11.941
71754ION    NA+37014   6.281  10.087   2.034
71755ION    NA+37015  28.062  23.742   4.830
71756ION    NA+37016  35.561   0.358   4.093
71757ION    NA+37017  12.460   7.248  12.124
71758ION    NA+37018  36.069  10.222  12.900
71759ION    NA+37019  13.974  40.796  12.009
71760ION    NA+37020  17.386  41.396  12.618
71761ION    NA+37021  35.577  32.416  13.435
71762ION    NA+37022  23.809  39.335  11.554
71763ION    NA+37023   5.225  42.212  12.679
71764ION    NA+37024  20.493   4.776   4.139
71765ION    NA+37025  13.636  24.898  13.796
71766ION    NA+37026  40.126  32.892   0.293
71767ION    NA+37027  35.357  37.035   2.096
71768ION    NA+37028  35.438  19.987   0.416
71769ION    NA+37029  18.243  23.865   1.169
71770ION    NA+37030  15.550  15.665  10.718
71771ION    NA+37031  22.795  19.523   3.673
71772ION    NA+37032  27.842  36.650  10.867
71773ION    NA+37033  36.138  36.830  11.254
71774ION    NA+37034  14.484   4.099  12.617
71775ION    NA+37035  16.673  25.184   4.383
71776ION    NA+37036  44.622  42.873   4.250
71777ION    NA+37037   2.508  23.085  11.626
71778ION    NA+37038  34.671  25.561  13.960
71779ION    NA+37039  22.743  30.232  14.376
71780ION    NA+37040  10.203  30.696  14.093
71781ION    NA+37041   0.699  11.890  13.911
71782ION    NA+37042  10.912  42.800  10.852
71783ION    NA+37043  26.367   4.695  12.036
71784ION    NA+37044  35.673   4.829   2.938
71785ION    NA+37045  33.018  36.695   4.801
71786ION    NA+37046  42.775   7.887  13.822
71787ION    NA+37047  28.462  13.245   1.569
71788ION    NA+37048  33.061  20.085   0.461
71789ION    NA+37049  29.531  13.086   1.006
71790ION    NA+37050  11.806   6.259   2.307
71791ION    NA+37051  20.107  36.001  11.333
71792ION    NA+37052  32.066   9.832  10.013
71793ION    NA+37053   1.452   4.719  13.298
71794ION    NA+37054  17.610  14.364  12.095
71795ION    NA+37055  42.295  22.299  12.993
71796ION    NA+37056   4.635   9.102   4.182
71797ION    NA+37057  32.921  37.809   4.623
71798ION    NA+37058   3.955  10.840   4.881
71799ION    NA+37059  31.304  12.765  13.327
71800ION    NA+37060  13.891   0.879  13.037
71801ION    NA+37061  27.919   7.431  14.895
71802ION    NA+37062  32.405  24.781  11.579
71803ION    NA+37063  28.699  22.662  14.489
71804ION    NA+37064  11.582  29.225  12.082
71805ION    NA+37065  17.351  29.430   3.197
71806ION    NA+37066   9.397  26.645   0.932
71807ION    NA+37067  34.576  14.047   1.556
71808ION    NA+37068  24.348   2.307   1.821
71809ION    NA+37069  40.160   2.981   0.716
71810ION    NA+37070  42.775  37.354  13.911
71811ION    NA+37071  18.724  41.969  10.583
71812ION    NA+37072   7.475  12.216   0.550
71813ION    NA+37073   3.277  31.994   2.153
71814ION    NA+37074  38.545  33.632   1.293
71815ION    NA+37075   8.066  24.078   3.733
71816ION    NA+37076  11.872   7.928  10.622
71817ION    NA+37077  19.280  39.799   1.961
71818ION    NA+37078  12.091  37.102   3.197
71819ION    NA+37079   0.285  13.135  12.478
71820ION    NA+37080   9.137  32.718  14.844
71821ION    NA+37081  27.136  41.787   0.735
71822ION    NA+37082  25.197  22.910   2.025
71823ION    NA+37083  43.613   8.063  12.678
71824ION    NA+37084  28.768  43.061   2.352
71825ION    NA+37085  40.203  41.678   2.663
71826ION    NA+37086  18.675  16.076  10.960
71827ION    NA+37087  21.542  43.108   1.991
71828ION    NA+37088  16.078  22.166  12.460
71829ION    NA+37089  35.428  28.214  14.013
71830ION    NA+37090  44.830  28.708  11.587
71831ION    NA+37091   7.171  13.249   4.040
71832ION    NA+37092  43.873  26.612  10.209
71833ION    NA+37093   0.918  14.327   2.239
71834ION    NA+37094  22.210  12.340  13.946
71835ION    NA+37095  13.659  43.782  13.750
71836ION    NA+37096  21.922  36.963  10.694
71837ION    NA+37097  13.344  25.549   0.384
71838ION    NA+37098  11.702  40.176  10.723
71839ION    NA+37099  43.171  44.201   0.277
71840ION    NA+37100   9.394  14.763   0.873
71841ION    NA+37101  33.721  21.150   4.367
71842ION    NA+37102  18.529   4.414  11.156
71843ION    NA+37103  33.701  35.380   3.571
71844ION    NA+37104  32.900  20.434  11.008
71845ION    NA+37105  43.335  17.169   1.831
71846ION    NA+37106  36.552  25.675  13.936
71847ION    NA+37107  39.453   3.778  11.930
71848ION    NA+37108  24.703  44.549   4.472
71849ION    NA+37109  22.073   9.314   4.600
71850ION    NA+37110   1.990  16.355  12.753
71851ION    NA+37111  12.078  35.356   2.069
71852ION    NA+37112  23.766  27.090   2.243
71853ION    NA+37113  44.938  44.596  14.149
71854ION    NA+37114  32.299  39.009   3.713
71855ION    NA+37115  40.403   1.200  11.899
71856ION    NA+37116  28.495  12.363  13.716
71857ION    NA+37117  22.632  31.708  10.093
71858ION    NA+37118  40.613  35.300  11.771
71859ION    NA+37119  13.807  15.266   2.404
71860ION    NA+37120  32.076   3.358   4.661
71861ION    NA+37121   1.605  10.437  11.036
71862ION    NA+37122   3.024   7.421   4.678
71863ION    NA+37123  39.806   5.390  14.564
71864ION    NA+37124  38.175  41.104   1.935
71865ION    NA+37125  41.948  27.826  12.101
71866ION    NA+37126  39.735  25.495   1.758
71867ION    NA+37127  35.966  20.729   1.512
71868ION    NA+37128  20.068  16.242   4.662
71869ION    NA+37129  26.736  13.003  13.409
71870ION    NA+37130  40.775  30.112  14.320
71871ION    NA+37131  17.413  35.062   3.268
71872ION    NA+37132  19.377  13.835  14.518
71873ION    NA+37133   0.650   2.757  14.839
71874ION    NA+37134   3.389  27.126   1.914
71875ION    NA+37135  42.832  26.292   3.479
71876ION    NA+37136  38.072   0.636  12.308
71877ION    NA+37137  37.781   2.579   2.609
71878ION    NA+37138  19.808  16.811   1.342
71879ION    NA+37139   5.221  34.354  13.558
71880ION    NA+37140  43.511   3.938  14.748
71881ION    NA+37141  38.567  19.271  14.920
71882ION    NA+37142  42.153  32.762   1.273
71883ION    NA+37143  37.989  12.925   1.986
71884ION    NA+37144  14.000  25.979   3.662
71885ION    NA+37145  42.762  34.114   3.483
71886ION    NA+37146  39.496  26.192  12.598
71887ION    NA+37147  34.087  24.915  12.979
71888ION    NA+37148  37.424   2.389   4.056
71889ION    NA+37149   6.256  44.776  10.823
71890ION    NA+37150   4.928   0.091  13.518
71891ION    NA+37151  21.094  41.900  12.601
71892ION    NA+37152  30.575   8.047   2.762
71893ION    NA+37153  35.570  17.673   0.477
71894ION    NA+37154   1.705  39.452   2.787
71895ION    NA+37155  29.345   0.190   0.984
71896ION    NA+37156  19.803  30.613   1.113
71897ION    NA+37157  20.468  43.944   4.201
71898ION    NA+37158  32.203  33.803  12.954
71899ION    NA+37159  32.348  18.164  10.769
71900ION    NA+37160  27.769   9.964   2.164
71901ION    NA+37161  32.382   5.138  14.888
71902ION    NA+37162   4.026   3.959   2.643
71903ION    NA+37163  42.808   0.742   5.288
71904ION    NA+37164  27.648  35.563   2.385
71905ION    NA+37165  37.507   8.260   0.794
71906ION    NA+37166   5.675  42.297   3.262
71907ION    NA+37167  11.394  35.834  12.478
71908ION    NA+37168  22.431  33.654  11.042
71909ION    NA+37169  14.883   7.314  14.503
71910ION    NA+37170  20.695  10.041  14.902
71911ION    NA+37171  33.174   6.631  11.555
71912ION    NA+37172  34.211  37.477  12.619
71913ION    NA+37173  31.404  32.115   0.261
71914ION    NA+37174  11.698  35.571   4.377
71915ION    NA+37175   7.802  32.131   2.624
71916ION    NA+37176  16.756  42.253  14.339
71917ION    NA+37177  23.158  22.176  11.565
71918ION    NA+37178  16.597  32.249  13.095
71919ION    NA+37179  17.316  37.829   3.104
71920ION    NA+37180  26.197  15.706   3.818
71921ION    NA+37181  39.564  38.277  14.928
71922ION    NA+37182  12.845  42.051  11.362
71923ION    NA+37183  17.118  23.753  11.523
71924ION    NA+37184  14.938  21.203   3.083
71925ION    NA+37185  36.765   6.213  11.233
71926ION    NA+37186  15.020  19.004  12.353
71927ION    NA+37187  42.009  42.635   4.041
71928ION    NA+37188  41.528   7.318   4.019
71929ION    NA+37189  24.364  14.532   4.801
71930ION    NA+37190  20.266  19.350  11.071
71931ION    NA+37191  33.166  10.616   2.132
71932ION    NA+37192   5.125  43.684  12.426
71933ION    NA+37193  20.513  44.581   0.351
71934ION    NA+37194  29.286  38.478   1.473
71935ION    NA+37195   7.347  18.669   0.190
71936ION    NA+37196  42.407  43.068   0.707
71937ION    NA+37197  41.949  38.648  12.962
71938ION    NA+37198  14.809  40.404   2.686
71939ION    NA+37199  23.365  11.463  11.780
71940ION    NA+37200  11.450   1.541   5.058
71941ION    NA+37201  26.561  36.941  13.846
71942ION    NA+37202  23.028  30.088   1.037
71943ION    NA+37203  33.905  27.989   0.654
71944ION    NA+37204  42.517  23.693   0.066
71945ION    NA+37205  16.360  23.947  13.820
71946ION    NA+37206   4.809  30.523   5.052
71947ION    NA+37207   3.553  13.531   0.272
71948ION    NA+37208  16.430   4.258   2.916
71949ION    NA+37209  28.528   5.342   1.204
71950ION    NA+37210   5.312   8.778  14.418
71951ION    NA+37211   5.190   6.029  11.391
71952ION    NA+37212  22.535  23.939  14.595
71953ION    NA+37213  32.399  31.536  11.026
71954ION    NA+37214  27.522  44.012  13.506
71955ION    NA+37215   3.544   8.893  12.043
71956ION    NA+37216   2.002  12.274   1.738
71957ION    NA+37217  30.856   4.921   4.065
71958ION    NA+37218   5.780  43.792  13.976
71959ION    NA+37219  35.157  19.642   3.583
71960ION    NA+37220  39.598  32.845  12.110
71961ION    NA+37221   8.501  40.793   3.971
71962ION    NA+37222  28.500   8.352  11.270
71963ION    NA+37223  13.261  24.042   1.884
71964ION    NA+37224   4.113  36.000   4.156
71965ION    NA+37225  18.503   7.434   1.510
71966ION    NA+37226   6.752   1.720  14.399
71967ION    NA+37227  36.297  41.465   2.614
71968ION    NA+37228  13.559   7.709  14.919
71969ION    NA+37229  28.406  39.969   4.438
71970ION    NA+37230   0.287  27.572  11.835
71971ION    NA+37231  36.221   6.265  12.785
71972ION    NA+37232  29.544  40.676  11.795
71973ION    NA+37233  14.607   5.900   2.797
71974ION    NA+37234  44.056  40.283   0.184
71975ION    NA+37235   9.421  15.862  12.555
71976ION    NA+37236  41.512  15.694   3.383
71977ION    NA+37237  42.391  42.743  11.002
71978ION    NA+37238  44.038  27.982  13.990
71979ION    NA+37239  32.095  42.346   4.729
71980ION    NA+37240  30.967  28.100   9.807
71981ION    NA+37241  30.441   1.466   2.563
71982ION    NA+37242  42.863  44.407   1.271
71983ION    NA+37243   9.533   8.275   0.160
71984ION    NA+37244  14.067  19.879  14.724
71985ION    NA+37245  17.520  24.630  11.257
71986ION    NA+37246  19.406  27.021   0.851
71987ION    NA+37247   0.467  31.166  13.506
71988ION    NA+37248  42.877  15.432  13.751
71989ION    NA+37249  40.596  17.122   4.313
71990ION    NA+37250   1.518  30.387   5.162
71991ION    NA+37251   8.171  27.747  12.017
71992ION    NA+37252   9.053   0.454  12.586
71993ION    NA+37253  34.518  19.147   1.919
71994ION    NA+37254   3.053   1.950   3.689
71995ION    NA+37255  29.514  42.596  14.245
71996ION    NA+37256  18.632  36.096   5.245
71997ION    NA+37257  17.016   4.380   2.244
71998ION    NA+37258  22.109  35.126   1.713
71999ION    NA+37259   5.373  17.869   1.125
72000ION    NA+37260  42.459  13.847  13.283
72001ION    NA+37261  22.990  35.154   3.568
72002ION    NA+37262  22.859  40.253  12.753
72003ION    NA+37263  15.811  20.238   2.436
72004ION    NA+37264  42.298  27.863   2.962
72005ION    NA+37265  11.866  21.114  11.814
72006ION    NA+37266   7.897  11.728   3.120
72007ION    NA+37267  28.830  20.097  12.518
72008ION    NA+37268   2.658  15.501  13.617
72009ION    NA+37269  36.763  31.006   2.800
72010ION    NA+37270  41.376  29.564   5.349
72011ION    NA+37271  39.250  32.370   1.133
72012ION    NA+37272   2.749  16.086   1.372
72013ION    NA+37273  22.262  19.505  11.709
72014ION    NA+37274   0.346  17.584  14.553
72015ION    NA+37275  33.563  39.946  11.195
72016ION    NA+37276   4.936  14.021   4.153
72017ION    NA+37277  32.218  21.970  14.533
72018ION    NA+37278   2.235  20.744  11.975
72019ION    NA+37279  31.512   8.905   3.120
72020ION    NA+37280   7.673  32.548  10.832
72021ION    NA+37281  23.481  15.063  14.541
72022ION    NA+37282   9.196   8.412   3.846
72023ION    NA+37283  38.407  18.308  13.027
72024ION    NA+37284  15.650  26.958  11.040
72025ION    NA+37285  16.453   1.487   0.024
72026ION    NA+37286  26.016  10.359   4.310
72027ION    NA+37287   3.382  12.625  13.844
72028ION    NA+37288  18.763   5.416   2.881
72029ION    NA+37289  25.830  36.997  12.287
72030ION    NA+37290  22.926  22.466   5.089
72031ION    NA+37291  34.861  27.645  13.829
72032ION    NA+37292  42.889   6.694   4.218
72033ION    NA+37293  28.183  18.967   4.497
72034ION    NA+37294  25.021  22.089   1.427
72035ION    NA+37295  39.347  20.799   0.976
72036ION    NA+37296  41.276  12.271  10.009
72037ION    NA+37297  26.509  27.769   1.688
72038ION    NA+37298  32.076  32.169   5.075
72039ION    NA+37299  43.897  28.790  13.809
72040ION    NA+37300   2.511  40.896   1.821
72041ION    NA+37301  15.066  29.011  12.417
72042ION    NA+37302   6.289   9.696   0.398
72043ION    NA+37303  44.701  43.122  11.476
72044ION    NA+37304   9.160  22.997  10.664
72045ION    NA+37305  37.449  19.198  12.114
72046ION    NA+37306  18.997  25.109  13.419
72047ION    NA+37307  29.411  25.120   1.785
72048ION    NA+37308  23.522  44.064   0.100
72049ION    NA+37309  12.250  22.425  12.439
72050ION    NA+37310  22.793   7.784   1.020
72051ION    NA+37311  17.126  43.862  11.793
72052ION    NA+37312  40.802  19.048  11.213
72053ION    NA+37313   1.494  43.034  11.893
72054ION    NA+37314   4.488  16.449   0.906
72055ION    NA+37315  41.172  16.170  12.430
72056ION    NA+37316  38.939   4.232  11.338
72057ION    NA+37317   5.477   3.525   4.562
72058ION    NA+37318  43.078  30.039  13.822
72059ION    NA+37319  20.926   7.979  14.449
72060ION    NA+37320   6.377  25.992   3.152
72061ION    NA+37321  14.088  39.166   0.582
72062ION    NA+37322   0.105  18.858   4.354
72063ION    NA+37323  21.179  20.164   5.071
72064ION    NA+37324  39.030  14.789   1.744
72065ION    NA+37325  43.021  40.962   2.712
72066ION    NA+37326  12.534  38.974   2.142
72067ION    NA+37327   5.922   7.342  12.610
72068ION    NA+37328  12.997  25.465   2.425
72069ION    NA+37329   0.584  10.302   4.159
72070ION    NA+37330  18.248  38.181  12.798
72071ION    NA+37331   7.950  41.578  11.929
72072ION    NA+37332   7.855  32.386   3.618
72073ION    NA+37333   7.975   3.318   1.308
72074ION    NA+37334   0.617  27.751  14.828
72075ION    NA+37335  23.105   5.649  10.648
72076ION    NA+37336  14.006  37.398   4.529
72077ION    NA+37337   0.559  23.026   1.437
72078ION    NA+37338  38.624   0.156  10.749
72079ION    NA+37339  44.073  24.255  12.013
72080ION    NA+37340   3.355  34.644   2.319
72081ION    NA+37341  28.191  10.696   2.778
72082ION    NA+37342  25.187   2.275   1.278
72083ION    NA+37343  19.982  20.446  14.752
72084ION    NA+37344  35.541  41.546   4.534
72085ION    NA+37345   7.475   6.789  10.596
72086ION    NA+37346  32.961  17.639  12.496
72087ION    NA+37347   9.326  23.083  11.646
72088ION    NA+37348  16.590   1.621   4.933
72089ION    NA+37349   2.776   7.640  12.842
72090ION    NA+37350  10.813  10.806  11.742
72091ION    NA+37351  26.255  11.932  12.074
72092ION    NA+37352  18.790   5.846  11.222
72093ION    NA+37353  12.737  36.604   2.618
72094ION    NA+37354  35.533  24.575   3.340
72095ION    NA+37355  18.992   7.134   3.372
72096ION    NA+37356  38.397  34.973  14.996
72097ION    NA+37357  29.160   8.475   4.066
72098ION    NA+37358  25.469  16.397   2.191
72099ION    NA+37359  27.188  10.694   3.865
72100ION    NA+37360  23.567   7.563   0.032
72101ION    NA+37361  13.303   1.632   3.553
72102ION    NA+37362  10.171   4.490   0.128
72103ION    NA+37363  39.276  17.228  11.534
72104ION    NA+37364  39.762  21.171   4.327
72105ION    NA+37365  43.844   9.637  13.631
72106ION    NA+37366   9.633  28.027  14.427
72107ION    NA+37367  40.561  23.615   1.881
72108ION    NA+37368  33.466  43.713   1.455
72109ION    NA+37369  16.146   1.112   3.786
72110ION    NA+37370  37.799  25.432  14.580
72111ION    NA+37371   4.500  15.710   1.894
72112ION    NA+37372   3.810  13.048   4.535
72113ION    NA+37373  19.611  31.191  12.630
72114ION    NA+37374  44.391  18.056  10.212
72115ION    NA+37375  32.458  43.014   0.072
72116ION    NA+37376  12.807  33.692  11.560
72117ION    NA+37377  12.614   8.923   3.241
72118ION    NA+37378  27.502  22.627   0.905
72119ION    NA+37379  35.640  27.892   1.915
72120ION    NA+37380  28.945  25.306   5.169
72121ION    NA+37381  32.178   1.715  13.356
72122ION    NA+37382  17.616  39.452   3.609
72123ION    NA+37383  17.124  43.263   0.184
72124ION    NA+37384  25.348   5.722   0.509
72125ION    NA+37385   2.413  11.953  11.355
72126ION    NA+37386   7.212  10.421   0.413
72127ION    NA+37387  13.851   4.715  12.797
72128ION    NA+37388  17.609   8.578   3.062
72129ION    NA+37389  33.973  31.545  11.937
72130ION    NA+37390  34.277  28.961  11.932
72131ION    NA+37391   6.732  41.258   0.276
72132ION    NA+37392  34.973  11.150   3.561
72133ION    NA+37393  43.543  16.142  10.636
72134ION    NA+37394  33.145  14.521   4.334
72135ION    NA+37395  15.724  20.142   5.791
72136ION    NA+37396  34.952  39.662  10.814
72137ION    NA+37397  15.801  36.037   1.839
72138ION    NA+37398  21.778  39.316   4.817
72139ION    NA+37399  22.505   1.209  11.553
72140ION    NA+37400   3.499  31.319   5.260
72141ION    NA+37401   2.537  39.065   1.622
72142ION    NA+37402   2.469  39.458   0.675
72143ION    NA+37403  13.016  35.688   2.328
72144ION    NA+37404  17.514  27.206   2.704
72145ION    NA+37405  16.424  18.436  13.320
72146ION    NA+37406  32.954  39.231  10.852
72147ION    NA+37407  19.303  36.047  14.503
72148ION    NA+37408   3.402   6.466  11.046
72149ION    NA+37409  10.245   3.218   1.400
72150ION    NA+37410  35.066  16.696  14.423
72151ION    NA+37411  18.624  23.164  12.849
72152ION    NA+37412  44.272  14.140   2.895
72153ION    NA+37413   7.874  15.870  10.341
72154ION    NA+37414  15.068  36.707   2.745
72155ION    NA+37415   2.777  13.744   0.865
72156ION    NA+37416  15.730  33.959   5.250
72157ION    NA+37417   9.146  21.887   0.303
72158ION    NA+37418   8.229  11.154  12.736
72159ION    NA+37419  12.477  31.264   0.313
72160ION    NA+37420  36.572  26.566  11.569
72161ION    NA+37421   1.753   8.214  14.469
72162ION    NA+37422  12.346  18.587  10.767
72163ION    NA+37423  29.626  42.887   5.057
72164ION    NA+37424  34.543  27.197   2.239
72165ION    NA+37425  25.845  37.868  10.962
72166ION    NA+37426  40.005  15.510  14.779
72167ION    NA+37427   9.683   6.615  12.596
72168ION    NA+37428  40.225   9.451   3.695
72169ION    NA+37429  11.274   4.309  12.006
72170ION    NA+37430  15.895  11.519  14.578
72171ION    NA+37431  29.115  31.335   4.403
72172ION    NA+37432   3.485  39.410   1.802
72173ION    NA+37433   7.072  11.657   1.525
72174ION    NA+37434  19.553  36.284   2.403
72175ION    NA+37435  34.147  37.903   3.036
72176ION    NA+37436  21.160   3.596  13.648
72177ION    NA+37437  11.986  25.110  12.609
72178ION    NA+37438  26.462  20.693   3.921
72179ION    NA+37439  42.710   0.032  13.138
72180ION    NA+37440  18.457   7.443  11.083
72181ION    NA+37441   4.853  30.665   2.818
72182ION    NA+37442  44.086   7.895  10.915
72183ION    NA+37443  29.082  18.603   1.732
72184ION    NA+37444  17.565  40.484  14.272
72185ION    NA+37445  38.991  16.445  12.087
72186ION    NA+37446  20.805   6.466   1.285
72187ION    NA+37447  23.001  10.797   3.085
72188ION    NA+37448  11.331  39.472  12.406
72189ION    NA+37449  32.041  21.044  12.802
72190ION    NA+37450  24.083  18.309  14.929
72191ION    NA+37451  19.790   7.830   0.211
72192ION    NA+37452  10.449  11.726   0.622
72193ION    NA+37453  32.052  20.524   1.769
72194ION    NA+37454  35.613   4.659   4.335
72195ION    NA+37455  34.509   6.842  14.441
72196ION    NA+37456  14.624  20.514   0.473
72197ION    NA+37457  30.989  30.474  13.259
72198ION    NA+37458   3.819  21.771  13.536
72199ION    NA+37459  22.209   6.905   2.334
72200ION    NA+37460  27.675  15.341   1.249
72201ION    NA+37461   2.239   1.512   2.585
72202ION    NA+37462  29.415  39.116  13.308
72203ION    NA+37463  27.107  13.789  13.418
72204ION    NA+37464   7.782   8.994  13.145
72205ION    NA+37465  24.580  30.571  13.574
72206ION    NA+37466  44.655  32.106   0.358
72207ION    NA+37467  34.928   4.779   2.273
72208ION    NA+37468  12.355  29.563   1.440
72209ION    NA+37469   1.719  41.857  14.807
72210ION    NA+37470  34.669  17.631   3.462
72211ION    NA+37471  19.580   7.552  12.438
72212ION    NA+37472   6.200   6.846  11.213
72213ION    NA+37473  12.576  41.521   0.116
72214ION    NA+37474   4.731   4.980  12.031
72215ION    NA+37475  36.334   5.379  12.979
72216ION    NA+37476  22.836  10.904  11.560
72217ION    NA+37477  14.720  42.397   3.600
72218ION    NA+37478  10.004  44.592  13.616
72219ION    NA+37479   6.032  10.356   2.846
72220ION    NA+37480  28.727   9.926  11.916
72221ION    NA+37481   7.341   7.666  14.436
72222ION    NA+37482  21.853  16.875  13.666
72223ION    NA+37483  39.139  42.014   2.697
72224ION    NA+37484  26.072  22.985   1.407
72225ION    NA+37485  44.775  31.538  14.437
72226ION    NA+37486   6.663  12.421  13.838
72227ION    NA+37487   8.097  23.301   1.214
72228ION    NA+37488  36.267   7.126   3.492
72229ION    NA+37489   7.294  27.446   2.768
72230ION    NA+37490  26.622   8.342  12.891
72231ION    NA+37491   9.318   1.169  11.586
72232ION    NA+37492  36.554  25.922   3.151
72233ION    NA+37493  27.096  36.417  11.595
72234ION    NA+37494  13.279  21.010   0.894
72235ION    NA+37495  21.969  21.128   5.607
72236ION    NA+37496  44.024  21.706  12.871
72237ION    NA+37497   5.684  18.060  13.079
72238ION    NA+37498   3.668   8.799  14.333
72239ION    NA+37499   9.929  44.489  11.464
72240ION    NA+37500  33.054  34.371   4.425
72241ION    NA+37501  12.724   7.845  13.926
72242ION    NA+37502  40.785  12.316   4.079
72243ION    NA+37503  36.816  17.354  12.225
72244ION    NA+37504  44.244  12.449   1.348
72245ION    NA+37505   2.989  32.813   0.414
72246ION    NA+37506  36.819  22.766   0.554
72247ION    NA+37507  25.037  30.006   1.962
72248ION    NA+37508   8.623  33.093   9.916
72249ION    NA+37509  42.424   6.817  12.497
72250ION    NA+37510  28.671  41.074  13.454
72251ION    NA+37511  10.742  19.149  10.929
72252ION    NA+37512  14.813  21.384  10.455
72253ION    NA+37513  22.862  34.168   1.656
72254ION    NA+37514   6.384  34.929   3.788
72255ION    NA+37515   2.252  11.800   4.109
72256ION    NA+37516  41.322   6.433   3.508
72257ION    NA+37517  29.569  36.500  12.592
72258ION    NA+37518   7.435  40.934   1.240
72259ION    NA+37519   2.838  11.144  14.451
72260ION    NA+37520  11.675  32.425  14.093
72261ION    NA+37521  42.531  11.365  12.596
72262ION    NA+37522  43.455   9.902   0.123
72263ION    NA+37523   7.613  18.140   2.430
72264ION    NA+37524  21.947  31.322   4.747
72265ION    NA+37525  35.876  26.898   1.667
72266ION    CL-37526  20.471  42.721  11.697
72267ION    CL-37527  17.664   8.803  14.334
72268ION    CL-37528   4.256  14.203   0.633
72269ION    CL-37529  42.831  43.949  11.218
72270ION    CL-37530  34.927  17.852  11.067
72271ION    CL-37531  14.814   3.308  14.563
72272ION    CL-37532  12.977  37.775   5.096
72273ION    CL-37533  39.206  40.257  13.762
72274ION    CL-37534  22.431  30.391   2.198
72275ION    CL-37535  15.902  35.021  14.368
72276ION    CL-37536  23.340  36.792   3.858
72277ION    CL-37537  12.342  29.997   2.990
72278ION    CL-37538  17.865  18.967   9.859
72279ION    CL-37539  28.215  22.830  12.573
72280ION    CL-37540  18.858   4.287   3.494
72281ION    CL-37541  43.554  33.052   3.391
72282ION    CL-37542  39.400  13.482  11.352
72283ION    CL-37543  11.573   1.414   3.955
72284ION    CL-37544   3.207   0.030   0.528
72285ION    CL-37545   9.365  12.189  11.139
72286ION    CL-37546   7.791  13.065  13.419
72287ION    CL-37547  30.316  33.478  14.577
72288ION    CL-37548   7.789   4.940  11.579
72289ION    CL-37549   4.404  10.820   0.448
72290ION    CL-37550  25.600  44.997   3.152
72291ION    CL-37551   9.041  20.760   4.288
72292ION    CL-37552  18.904  14.269   3.816
72293ION    CL-37553   1.951  29.431  14.947
72294ION    CL-37554  16.610  36.724  12.084
72295ION    CL-37555  28.777  20.479   3.098
72296ION    CL-37556  39.358  30.253   3.559
72297ION    CL-37557  14.097  28.093  12.536
72298ION    CL-37558  11.947  29.570  13.742
72299ION    CL-37559   2.239  12.233   2.132
72300ION    CL-37560  27.092  38.041   3.167
72301ION    CL-37561  39.216   4.032  11.639
72302ION    CL-37562  25.450  20.060  14.366
72303ION    CL-37563   1.617   8.177   4.480
72304ION    CL-37564  40.625  41.566   2.762
72305ION    CL-37565  32.494  41.236  12.352
72306ION    CL-37566  32.678  21.809  11.133
72307ION    CL-37567  15.051  34.046   2.791
72308ION    CL-37568  44.946  43.736   2.580
72309ION    CL-37569  26.748  24.439   2.976
72310ION    CL-37570  18.201  15.800   0.169
72311ION    CL-37571   5.803   7.745   1.346
72312ION    CL-37572  28.088   6.222  12.560
72313ION    CL-37573  29.222  38.563  11.271
72314ION    CL-37574  16.286  39.391  10.688
72315ION    CL-37575  26.454  10.727   2.483
72316ION    CL-37576  23.656  15.107  11.865
72317ION    CL-37577  36.945  18.771  10.724
72318ION    CL-37578  29.481   1.623  11.293
72319ION    CL-37579  41.438  16.545  13.770
72320ION    CL-37580  35.773  14.931   3.961
72321ION    CL-37581  37.081  37.645  13.490
72322ION    CL-37582   5.020   0.428  13.194
72323ION    CL-37583  42.198  32.310   1.251
72324ION    CL-37584   9.348  32.145   2.537
72325ION    CL-37585  14.982  18.104  11.201
72326ION    CL-37586   6.913  30.681  14.406
72327ION    CL-37587  37.986  43.965  12.568
72328ION    CL-37588  39.277  25.041   0.326
72329ION    CL-37589  34.524  28.619   4.221
72330ION    CL-37590   7.696  30.707  12.651
72331ION    CL-37591  36.774  20.762   5.030
72332ION    CL-37592  35.328  38.557   2.845
72333ION    CL-37593   2.741  12.974  12.580
72334ION    CL-37594  38.047  11.799  13.389
72335ION    CL-37595   3.394   0.236   1.514
72336ION    CL-37596   1.693   9.994  10.971
72337ION    CL-37597  28.175  38.428  13.319
72338ION    CL-37598  38.036  41.178   1.512
72339ION    CL-37599  10.782   0.500   3.807
72340ION    CL-37600  16.883  17.262  14.468
72341ION    CL-37601  17.552  10.509   2.849
72342ION    CL-37602  37.020   2.408  13.996
72343ION    CL-37603  38.307  12.154  14.829
72344ION    CL-37604  12.159   0.766   3.739
72345ION    CL-37605  25.389  26.988  13.382
72346ION    CL-37606   9.136   1.818  13.906
72347ION    CL-37607  20.357   3.085   2.652
72348ION    CL-37608  23.917   5.070   1.018
72349ION    CL-37609   5.416   3.848  14.591
72350ION    CL-37610  17.385  22.682  14.169
72351ION    CL-37611   1.759   2.659  12.564
72352ION    CL-37612   7.669  23.749   4.746
72353ION    CL-37613  20.398   4.044  14.849
72354ION    CL-37614  27.630  36.978   0.355
72355ION    CL-37615  12.659  32.134   1.361
72356ION    CL-37616  42.357   6.495  11.206
72357ION    CL-37617  33.145   7.107  13.493
72358ION    CL-37618   1.889  35.367   1.998
72359ION    CL-37619  36.067   7.978  14.443
72360ION    CL-37620  44.997  44.667  14.587
72361ION    CL-37621  27.537   2.779   2.290
72362ION    CL-37622  23.881  38.878  13.627
72363ION    CL-37623  36.032   4.713   2.696
72364ION    CL-37624  25.791  36.929  11.847
72365ION    CL-37625  14.323  23.587   1.134
72366ION    CL-37626  31.293  22.947  12.802
72367ION    CL-37627  24.106  16.277  12.339
72368ION    CL-37628  24.066   5.977  13.791
72369ION    CL-37629  32.176   3.860   1.634
72370ION    CL-37630  39.118  24.650  11.279
72371ION    CL-37631  14.026  38.625   4.627
72372ION    CL-37632  34.560  15.587  13.155
72373ION    CL-37633  40.719  35.621   0.835
72374ION    CL-37634  26.616  40.106  13.542
72375ION    CL-37635  38.823  14.080  14.223
72376ION    CL-37636  33.607  19.474  14.075
72377ION    CL-37637  26.204  42.387   3.187
72378ION    CL-37638   1.537   5.019   4.091
72379ION    CL-37639  43.453   8.337   1.878
72380ION    CL-37640  42.835  41.740  14.108
72381ION    CL-37641  40.813  22.069  12.901
72382ION    CL-37642  13.420  31.995   4.988
72383ION    CL-37643  13.764  34.946  13.801
72384ION    CL-37644  40.439   7.969   3.637
72385ION    CL-37645   6.808  10.823  11.642
72386ION    CL-37646   2.404  32.625  11.487
72387ION    CL-37647  33.321   7.706  14.918
72388ION    CL-37648   1.509   6.846   0.546
72389ION    CL-37649  19.976  30.445  11.505
72390ION    CL-37650  36.436  37.496   5.194
72391ION    CL-37651  15.527  17.757   4.697
72392ION    CL-37652  35.938   3.701  12.803
72393ION    CL-37653  28.237  42.569   0.923
72394ION    CL-37654  18.661  14.382   0.304
72395ION    CL-37655  32.592  30.891   1.173
72396ION    CL-37656  40.925  11.578  11.036
72397ION    CL-37657   3.696  24.440  12.086
72398ION    CL-37658  13.051  21.241   3.095
72399ION    CL-37659  24.232   1.041   0.772
72400ION    CL-37660  11.770   4.913   1.879
72401ION    CL-37661   4.946  24.454   1.771
72402ION    CL-37662  27.934  28.206   2.561
72403ION    CL-37663  10.199   3.224  11.850
72404ION    CL-37664  10.067  26.567  13.572
72405ION    CL-37665  26.288  16.020   3.513
72406ION    CL-37666  25.683  25.034   2.842
72407ION    CL-37667  30.249  13.558   4.924
72408ION    CL-37668  29.532  44.820   0.800
72409ION    CL-37669  19.481  32.010  10.746
72410ION    CL-37670   7.347  37.491  12.708
72411ION    CL-37671  33.971   0.343  10.753
72412ION    CL-37672  27.489  12.074  14.334
72413ION    CL-37673   9.280  38.137  11.520
72414ION    CL-37674  34.386   4.280   4.097
72415ION    CL-37675   4.165  16.240   0.673
72416ION    CL-37676  30.012  19.293  14.911
72417ION    CL-37677  16.493   6.595  12.769
72418ION    CL-37678  22.619  40.609   1.785
72419ION    CL-37679  37.777   0.738   0.669
72420ION    CL-37680  40.897  22.573   3.332
72421ION    CL-37681  44.712   8.576   4.986
72422ION    CL-37682   2.193  35.897   3.070
72423ION    CL-37683  40.256   8.403   0.956
72424ION    CL-37684  33.098   0.671   4.932
72425ION    CL-37685  22.981  31.534   0.000
72426ION    CL-37686  39.540   2.817   4.618
72427ION    CL-37687  10.989   4.506   2.353
72428ION    CL-37688   0.336  18.840   1.818
72429ION    CL-37689  22.883  38.769  13.869
72430ION    CL-37690   2.803   2.021   4.050
72431ION    CL-37691   4.845  33.007  11.544
72432ION    CL-37692  25.498  16.907  12.052
72433ION    CL-37693  15.307   5.059   0.542
72434ION    CL-37694  35.337  13.411  13.889
72435ION    CL-37695  30.187  22.428  11.749
72436ION    CL-37696  29.597  16.995   2.172
72437ION    CL-37697  24.913  28.826   2.826
72438ION    CL-37698  10.222  18.769   9.841
72439ION    CL-37699  31.005  10.263  14.772
72440ION    CL-37700   1.215  13.215   1.516
72441ION    CL-37701  28.193  36.743  11.176
72442ION    CL-37702  41.099   1.080   2.402
72443ION    CL-37703  14.795  30.635   0.371
72444ION    CL-37704  25.163  32.429   0.218
72445ION    CL-37705  42.798  26.168   3.048
72446ION    CL-37706   6.029  25.707   3.125
72447ION    CL-37707  17.949  27.060   2.710
72448ION    CL-37708   6.747  42.133   4.511
72449ION    CL-37709  23.326  15.291   4.588
72450ION    CL-37710  33.527  37.385  13.415
72451ION    CL-37711  34.354  17.424  11.766
72452ION    CL-37712   1.773  39.246  12.205
72453ION    CL-37713  31.297  28.773   3.425
72454ION    CL-37714  40.317  21.860   1.883
72455ION    CL-37715   8.945  31.096  12.029
72456ION    CL-37716  26.567  24.242  11.009
72457ION    CL-37717  36.935   0.597   0.149
72458ION    CL-37718  19.095  35.588  13.014
72459ION    CL-37719  22.010  36.830  12.788
72460ION    CL-37720   2.355  23.118  14.904
72461ION    CL-37721   0.055  42.972   4.198
72462ION    CL-37722  13.584  22.852   0.757
72463ION    CL-37723  43.306  34.012  11.914
72464ION    CL-37724  36.419  33.850   0.734
72465ION    CL-37725  33.225  29.903  14.533
72466ION    CL-37726   8.584  19.722  11.514
72467ION    CL-37727  22.139  39.484  11.259
72468ION    CL-37728   2.155  26.647   1.199
72469ION    CL-37729  29.617   7.896   0.470
72470ION    CL-37730   9.614  37.494   4.079
72471ION    CL-37731  42.332   1.549   0.954
72472ION    CL-37732  38.870   5.617   0.849
72473ION    CL-37733  38.049  23.122   3.648
72474ION    CL-37734  11.736  21.980   3.347
72475ION    CL-37735   1.877  19.453   2.158
72476ION    CL-37736  34.985   9.840   1.271
72477ION    CL-37737  45.000   5.858   4.635
72478ION    CL-37738  31.053  13.185  11.526
72479ION    CL-37739  11.119  43.156  11.025
72480ION    CL-37740  26.522   4.310   0.371
72481ION    CL-37741  18.689  10.868   1.680
72482ION    CL-37742   2.664  22.487   1.943
72483ION    CL-37743  21.613  38.258  12.281
72484ION    CL-37744  24.537  25.514  12.095
72485ION    CL-37745  33.431  16.539   2.314
72486ION    CL-37746  10.229   4.049   0.075
72487ION    CL-37747   9.806  41.944   4.413
72488ION    CL-37748  17.177  23.251  14.964
72489ION    CL-37749  28.883  24.828   5.012
72490ION    CL-37750  23.525   0.373   1.006
72491ION    CL-37751  40.433   8.242  13.946
72492ION    CL-37752   8.388  29.465  12.962
72493ION    CL-37753  42.469   9.753   2.375
72494ION    CL-37754   0.015  44.633   2.669
72495ION    CL-37755  10.614  12.011   0.936
72496ION    CL-37756  19.558  13.471  14.283
72497ION    CL-37757  25.848  24.207  13.219
72498ION    CL-37758   5.939  30.291   4.817
72499ION    CL-37759  17.703  38.960   1.834
72500ION    CL-37760  41.337   8.386  11.097
72501ION    CL-37761  35.312  27.788  13.850
72502ION    CL-37762  35.376  38.789  14.637
72503ION    CL-37763  28.595  28.234   3.310
72504ION    CL-37764  11.424   9.812  11.216
72505ION    CL-37765  32.372  31.492  13.129
72506ION    CL-37766  28.444   2.889   0.722
72507ION    CL-37767  43.829  14.139  14.542
72508ION    CL-37768  37.860  15.199  12.965
72509ION    CL-37769   5.680  28.818  14.648
72510ION    CL-37770   7.559  43.372   0.585
72511ION    CL-37771  21.183  43.494  13.126
72512ION    CL-37772   8.257  37.305   1.776
72513ION    CL-37773  24.437  30.985   1.704
72514ION    CL-37774  24.087  12.626   2.868
72515ION    CL-37775  31.504  30.694  14.810
72516ION    CL-37776  10.146  11.494   0.354
72517ION    CL-37777   1.815   0.471  11.515
72518ION    CL-37778  10.480  18.787  14.027
72519ION    CL-37779  35.118  34.965   1.712
72520ION    CL-37780  13.090  32.071  13.170
72521ION    CL-37781  40.919  28.497   3.838
72522ION    CL-37782  43.512   7.159   2.876
72523ION    CL-37783   1.112  28.430   2.863
72524ION    CL-37784  23.731  25.730   0.291
72525ION    CL-37785  33.557   0.954  10.020
72526ION    CL-37786  25.707  26.503   3.722
72527ION    CL-37787   1.920  16.227  13.176
72528ION    CL-37788   4.646   7.188   1.726
72529ION    CL-37789   3.124   1.678  12.441
72530ION    CL-37790  12.464   2.645   5.005
72531ION    CL-37791  17.083  22.004   2.789
72532ION    CL-37792  44.691  23.980  13.526
72533ION    CL-37793  24.106  36.848  14.221
72534ION    CL-37794   0.478  35.020   4.081
72535ION    CL-37795   2.225  11.704  12.719
72536ION    CL-37796  37.971  23.031  13.470
72537ION    CL-37797  20.667  42.516   1.146
72538ION    CL-37798  32.423  43.181  11.994
72539ION    CL-37799  30.035  36.212  14.998
72540ION    CL-37800  32.776  25.117   0.045
72541ION    CL-37801  23.076  11.118   2.783
72542ION    CL-37802  33.196  24.005   4.213
72543ION    CL-37803  32.198  12.877   2.703
72544ION    CL-37804  41.558  21.413  11.779
72545ION    CL-37805   5.423  16.194   0.460
72546ION    CL-37806  18.213  40.804   1.191
72547ION    CL-37807   8.331  18.032  11.080
72548ION    CL-37808  18.828   0.188   1.403
72549ION    CL-37809   7.637  21.748  10.816
72550ION    CL-37810   1.636   4.089   1.647
72551ION    CL-37811  35.819  17.317   0.366
72552ION    CL-37812  23.922  34.222  10.222
72553ION    CL-37813   2.859   3.388   0.365
72554ION    CL-37814  40.363   0.544   1.469
72555ION    CL-37815  26.627  14.577   0.399
72556ION    CL-37816  33.109  13.912  10.122
72557ION    CL-37817  39.135   2.192   3.532
72558ION    CL-37818   3.974  40.221   3.355
72559ION    CL-37819  20.566   5.396   0.302
72560ION    CL-37820  28.568  40.081  14.457
72561ION    CL-37821  26.254  33.603   4.119
72562ION    CL-37822  14.408  26.502  14.365
72563ION    CL-37823   9.287   7.975   3.819
72564ION    CL-37824  26.549  23.141   4.155
72565ION    CL-37825  27.476  14.010  13.582
72566ION    CL-37826   6.155  27.159   4.867
72567ION    CL-37827  27.928  36.022   3.656
72568ION    CL-37828  28.763  31.275   4.120
72569ION    CL-37829  40.910  36.279  12.839
72570ION    CL-37830  18.827   9.396  13.506
72571ION    CL-37831  11.513  13.310  13.703
72572ION    CL-37832   0.393   9.900  14.700
72573ION    CL-37833  10.043   3.356  14.154
72574ION    CL-37834  23.510   1.435  14.073
72575ION    CL-37835  20.771  34.239   4.483
72576ION    CL-37836  12.681  40.862  10.916
72577ION    CL-37837  28.052  19.970   1.037
72578ION    CL-37838  30.579  44.079  13.478
72579ION    CL-37839  18.803  34.692  11.272
72580ION    CL-37840  38.962  38.294  11.576
72581ION    CL-37841  15.125   7.276   4.784
72582ION    CL-37842   5.503  13.752   0.270
72583ION    CL-37843  11.408  21.484   4.150
72584ION    CL-37844   6.463  25.983  11.288
72585ION    CL-37845   3.762  37.513  11.466
72586ION    CL-37846  19.882  41.479  10.849
72587ION    CL-37847  43.542  34.815  12.564
72588ION    CL-37848   6.182  32.464   0.931
72589ION    CL-37849  36.516  19.699   0.955
72590ION    CL-37850   2.644  10.322   0.562
72591ION    CL-37851   3.417   7.252   4.851
72592ION    CL-37852   6.198  10.144   2.477
72593ION    CL-37853  13.131  10.306   1.996
72594ION    CL-37854   0.123  26.509  11.112
72595ION    CL-37855  30.628  41.592  14.731
72596ION    CL-37856   6.879   4.242  14.352
72597ION    CL-37857  28.372  32.047  12.200
72598ION    CL-37858  17.286  40.298  10.303
72599ION    CL-37859  36.146  42.926   0.446
72600ION    CL-37860  13.474  29.640  10.412
72601ION    CL-37861  34.469  41.080  12.514
72602ION    CL-37862  30.167   3.023  12.147
72603ION    CL-37863   8.330  41.814  11.854
72604ION    CL-37864   9.617  40.409  14.947
72605ION    CL-37865  35.387  33.766  11.739
72606ION    CL-37866  42.772  33.963   1.122
72607ION    CL-37867  36.139   7.232   3.077
72608ION    CL-37868   4.276  25.652   3.425
72609ION    CL-37869  13.115  27.400  13.944
72610ION    CL-37870  20.111  28.934  12.582
72611ION    CL-37871  17.048   4.638   1.838
72612ION    CL-37872  17.783  12.483   1.802
72613ION    CL-37873  38.804  20.816   3.293
72614ION    CL-37874  34.690   6.933  14.045
72615ION    CL-37875   9.368   8.493   1.439
72616ION    CL-37876   9.561  25.447   5.428
72617ION    CL-37877  24.158  41.356  12.154
72618ION    CL-37878  14.488  41.930  12.315
72619ION    CL-37879  25.695  28.831   2.152
72620ION    CL-37880  32.061  23.950  13.998
72621ION    CL-37881  13.663  29.138   2.750
72622ION    CL-37882  28.353  24.270   1.445
72623ION    CL-37883  41.818  44.103   2.427
72624ION    CL-37884  16.638  23.497  12.883
72625ION    CL-37885  17.149   0.909  14.097
72626ION    CL-37886  35.003  26.745   4.577
72627ION    CL-37887  15.325  32.214  11.088
72628ION    CL-37888  17.593  36.478  12.356
72629ION    CL-37889  15.298  22.578   1.209
72630ION    CL-37890  29.103  38.236   3.200
72631ION    CL-37891  20.169  30.608   1.385
72632ION    CL-37892  30.444  10.961   9.869
72633ION    CL-37893  23.079  25.935  10.266
72634ION    CL-37894  31.212  32.470   0.066
72635ION    CL-37895  24.477  14.705  11.192
72636ION    CL-37896   8.365  25.595   0.954
72637ION    CL-37897  37.943  12.806   2.423
72638ION    CL-37898   6.683  41.970  11.972
72639ION    CL-37899  42.046  23.401  10.846
72640ION    CL-37900  14.992  24.013  13.477
72641ION    CL-37901   9.389  18.882   0.986
72642ION    CL-37902   0.212  18.538   4.061
72643ION    CL-37903  44.068   1.324   5.119
72644ION    CL-37904   3.299  35.605  11.577
72645ION    CL-37905  39.538  35.562  14.570
72646ION    CL-37906   8.214  20.117  14.409
72647ION    CL-37907  39.397  21.260  13.354
72648ION    CL-37908  38.628   7.555  12.570
72649ION    CL-37909  13.911  15.213   9.839
72650ION    CL-37910  37.459  32.486   0.736
72651ION    CL-37911  29.565  22.586   1.890
72652ION    CL-37912  24.601  37.626  14.735
72653ION    CL-37913  18.517   8.085   3.694
72654ION    CL-37914  32.560  12.653   3.616
72655ION    CL-37915   7.198   8.413   4.529
72656ION    CL-37916  35.805  30.616  11.786
72657ION    CL-37917  36.856  11.825  14.296
72658ION    CL-37918  42.905  41.879  10.448
72659ION    CL-37919   2.296  20.768  10.781
72660ION    CL-37920  20.004  35.834   4.835
72661ION    CL-37921  38.193  25.565   0.946
72662ION    CL-37922   1.502   6.860  10.850
72663ION    CL-37923  28.932  20.326  12.124
72664ION    CL-37924   1.846  36.155   1.316
72665ION    CL-37925  22.769  21.059   2.153
72666ION    CL-37926  17.520  42.281  11.530
72667ION    CL-37927  24.182   2.500   3.430
72668ION    CL-37928  38.909   0.059  11.079
72669ION    CL-37929  31.524  41.008  12.269
72670ION    CL-37930  32.351  29.958  11.621
72671ION    CL-37931  40.698  30.426  10.271
72672ION    CL-37932  35.477  18.601   1.279
72673ION    CL-37933  17.295   0.370   4.120
72674ION    CL-37934  41.688  38.097   1.883
72675ION    CL-37935  37.598   1.382   1.413
72676ION    CL-37936  38.816  23.784   1.798
72677ION    CL-37937  22.700   3.020   4.338
72678ION    CL-37938  39.252  22.119  11.947
72679ION    CL-37939  31.050  31.119   3.802
72680ION    CL-37940  36.571  21.692  12.524
72681ION    CL-37941  31.400  41.598  11.472
72682ION    CL-37942  38.022   9.446   1.287
72683ION    CL-37943  21.275  23.424  14.846
72684ION    CL-37944   6.555   8.277  11.032
72685ION    CL-37945  34.085  29.311  12.137
72686ION    CL-37946  20.113  19.442  10.652
72687ION    CL-37947  18.970  25.050  10.501
72688ION    CL-37948  29.553  22.145   2.787
72689ION    CL-37949  28.097   8.987   1.604
72690ION    CL-37950  24.990   8.986   0.162
72691ION    CL-37951  28.776  42.251   4.074
72692ION    CL-37952  27.786  44.444  14.983
72693ION    CL-37953  43.397  18.752  13.866
72694ION    CL-37954   9.290  16.862  14.610
72695ION    CL-37955  32.812  43.000   0.345
72696ION    CL-37956   0.769  12.770   9.917
72697ION    CL-37957   8.393  27.974  14.747
72698ION    CL-37958  38.318  42.228   0.384
72699ION    CL-37959  32.728  26.558  11.430
72700ION    CL-37960  21.730  21.900   0.034
72701ION    CL-37961  15.114   5.880  11.527
72702ION    CL-37962  29.943  39.012   0.746
72703ION    CL-37963  15.855  13.568  12.926
72704ION    CL-37964  44.471  26.128  14.291
72705ION    CL-37965  28.388   2.183   3.884
72706ION    CL-37966  34.234  19.258  11.142
72707ION    CL-37967  32.259  23.576   4.155
72708ION    CL-37968  27.170  13.573   0.549
72709ION    CL-37969  22.318  16.874  11.716
72710ION    CL-37970  13.155  15.194   3.990
72711ION    CL-37971   1.514   7.324  12.384
72712ION    CL-37972  38.057  37.437  13.417
72713ION    CL-37973  31.002  19.027  12.933
72714ION    CL-37974  44.737   8.239  13.416
72715ION    CL-37975  11.737  23.065   1.570
72716ION    CL-37976  13.340  41.863  13.588
72717ION    CL-37977  25.751   5.561   0.398
72718ION    CL-37978  20.023  34.562  12.688
72719ION    CL-37979  11.701  39.664   0.042
72720ION    CL-37980  28.456  27.233   4.009
72721ION    CL-37981  43.710  41.379  12.515
72722ION    CL-37982  22.764  31.508  12.517
72723ION    CL-37983  13.773  16.163   2.231
72724ION    CL-37984   2.917  29.209   2.327
72725ION    CL-37985  23.761  23.993  14.238
72726ION    CL-37986  33.449   4.151  14.399
72727ION    CL-37987   2.246  11.404   1.221
72728ION    CL-37988  10.276  17.606  14.515
72729ION    CL-37989  21.807   3.773   5.219
72730ION    CL-37990  32.193   8.721  12.931
72731ION    CL-37991   0.091  23.792   3.923
72732ION    CL-37992  44.628  31.982   1.812
72733ION    CL-37993  28.387   5.110  13.360
72734ION    CL-37994  41.905  33.393   3.715
72735ION    CL-37995  26.479  30.724  14.765
72736ION    CL-37996  43.340  13.487  10.796
72737ION    CL-37997  44.003  35.220   0.271
72738ION    CL-37998  40.405  23.139  13.517
72739ION    CL-37999  44.376  16.003   0.719
72740ION    CL-38000  35.276   2.311  13.167
72741ION    CL-38001  25.800  32.348  12.619
72742ION    CL-38002  40.452  32.980  13.835
72743ION    CL-38003  24.773   6.681  13.852
72744ION    CL-38004  44.237  42.057  14.421
72745ION    CL-38005  30.388  26.853   2.860
72746ION    CL-38006  14.749  43.762   4.022
72747ION    CL-38007  23.200  11.420  12.212
72748ION    CL-38008  36.849  11.404  10.815
72749ION    CL-38009  40.593  23.182   1.780
72750ION    CL-38010   0.853  33.399   9.915
72751ION    CL-38011  39.529   1.379   3.591
72752ION    CL-38012  32.213   5.852   2.392
72753ION    CL-38013   1.872   8.711  13.283
72754ION    CL-38014  14.093  33.242   4.632
72755ION    CL-38015  17.750   8.725   4.517
72756ION    CL-38016  32.159  25.616   1.260
72757ION    CL-38017  42.950  28.395  14.390
72758ION    CL-38018  31.959  27.988   1.826
72759ION    CL-38019   2.737  23.782  12.558
72760ION    CL-38020  11.223  27.900   4.717
72761ION    CL-38021  19.480  40.466   0.826
72762ION    CL-38022   6.714  19.222   9.937
72763ION    CL-38023  35.731  39.628   2.788
72764ION    CL-38024  24.721  11.629  11.198
72765ION    CL-38025   8.809  24.461   4.971
72766ION    CL-38026  15.331   5.993  14.036
72767ION    CL-38027  41.013  36.972   2.105
72768ION    CL-38028   0.020  28.483   2.605
72769ION    CL-38029  18.068  33.986  11.250
72770ION    CL-38030  11.001  41.156  13.967
72771ION    CL-38031  28.428  30.640  11.161
72772ION    CL-38032  37.501  40.283  14.385
72773ION    CL-38033  37.325  24.299   4.957
72774ION    CL-38034  30.056   3.238  10.550
72775ION    CL-38035  23.448  37.967  10.087
72776ION    CL-38036  27.141  36.273  14.842
72777ION    CL-38037  10.508  32.957   0.023
72778ION    CL-38038  35.934   9.189  13.909
72779ION    CL-38039  34.970   7.789  13.093
72780ION    CL-38040   7.949  25.628   3.664
72781ION    CL-38041   4.862  35.684   2.680
72782ION    CL-38042   7.489  11.789   1.661
72783ION    CL-38043   4.413  39.308  12.965
72784ION    CL-38044  20.356  20.072   2.598
72785ION    CL-38045  37.622  10.141   0.484
72786ION    CL-38046  37.723  41.452   2.421
72787ION    CL-38047  29.713  38.567   1.612
72788ION    CL-38048  11.451  20.220   0.395
72789ION    CL-38049  25.894  20.002  12.053
72790ION    CL-38050  35.416   1.965   1.715
72791ION    CL-38051   9.097  43.781  12.900
72792ION    CL-38052  38.055  42.956  14.003
72793ION    CL-38053  39.645  22.688   0.646
72794ION    CL-38054  15.978  42.801   9.746
72795ION    CL-38055  42.068  35.722   1.567
72796ION    CL-38056  25.331  27.106   0.274
72797ION    CL-38057  27.200  41.406   0.976
72798ION    CL-38058  41.401  24.370   3.788
72799ION    CL-38059   5.590  38.238   4.898
72800ION    CL-38060  27.230  20.477   0.779
72801ION    CL-38061  22.144  32.886   2.518
72802ION    CL-38062  15.554   6.848   2.213
72803ION    CL-38063   0.640  21.259   4.822
72804ION    CL-38064   4.545   0.092  10.613
72805ION    CL-38065  13.871  29.974  14.070
72806ION    CL-38066  23.545  14.706  14.802
72807ION    CL-38067  21.339  21.597   4.011
72808ION    CL-38068   7.747  42.954   3.847
72809ION    CL-38069  30.682  30.188  13.096
72810ION    CL-38070  19.592  20.695   2.763
72811ION    CL-38071   1.069  36.688  13.670
72812ION    CL-38072  38.050  42.055  14.437
72813ION    CL-38073   8.865  12.668   1.344
72814ION    CL-38074  21.810  43.932  14.222
72815ION    CL-38075   2.452  44.375  12.332
72816ION    CL-38076  37.076   8.373   0.842
72817ION    CL-38077  12.746  37.813  13.597
72818ION    CL-38078  10.924  15.927   3.654
72819ION    CL-38079   4.528  32.040  14.857
72820ION    CL-38080  15.763  44.405  14.249
72821ION    CL-38081  41.860  34.076  12.790
72822ION    CL-38082   1.431   1.537  14.125
72823ION    CL-38083   1.887  10.953   3.351
72824ION    CL-38084  31.600  42.854   2.347
72825ION    CL-38085  28.919   3.930   1.342
72826ION    CL-38086  43.893  21.311  10.788
72827ION    CL-38087  15.579  39.873  13.059
72828ION    CL-38088  34.129  20.109  13.134
72829ION    CL-38089  35.823   1.207   2.604
72830ION    CL-38090  32.829  31.477   4.205
72831ION    CL-38091  20.048   7.510   0.034
72832ION    CL-38092  34.781  18.864  12.959
72833ION    CL-38093  14.428  38.884   0.510
72834ION    CL-38094  41.506  19.394  10.274
72835ION    CL-38095  38.685  29.493  11.105
72836ION    CL-38096  38.317   7.183  11.695
72837ION    CL-38097  12.504  27.535   9.771
72838ION    CL-38098  35.915   2.986  13.536
72839ION    CL-38099  29.220  16.637  14.353
72840ION    CL-38100  16.656  44.840   1.511
72841ION    CL-38101  16.708   7.030   5.235
72842ION    CL-38102   1.728  43.281  12.184
72843ION    CL-38103  38.619   5.669  11.613
72844ION    CL-38104  25.090  26.571   2.938
72845ION    CL-38105  27.773  37.692  12.126
72846ION    CL-38106  19.792  36.420  12.575
72847ION    CL-38107  15.598  33.360  14.054
72848ION    CL-38108  37.915  25.423  14.148
72849ION    CL-38109  32.854  15.082   1.310
72850ION    CL-38110   0.393  36.674  10.604
72851ION    CL-38111  19.554  31.579   4.169
72852ION    CL-38112   3.648  24.117   1.621
72853ION    CL-38113  37.043  14.071  11.820
72854ION    CL-38114   6.389  13.590   2.773
72855ION    CL-38115  17.320  15.326   4.101
72856ION    CL-38116  37.058   9.445  12.208
72857ION    CL-38117  21.020  10.680  13.560
72858ION    CL-38118  18.657  44.472  12.545
72859ION    CL-38119  15.763  24.981   4.603
72860ION    CL-38120   7.914  12.288   0.620
72861ION    CL-38121  36.913   1.308   3.493
72862ION    CL-38122  19.670  21.990  13.447
72863ION    CL-38123   3.370  11.111  11.255
72864ION    CL-38124  43.835  13.883   1.674
72865ION    CL-38125  40.137   1.468  12.139
72866ION    CL-38126  32.319  10.878  12.819
72867ION    CL-38127  25.939   1.415   0.366
72868ION    CL-38128  17.547  11.639   1.286
72869ION    CL-38129  12.735  24.334   2.888
72870ION    CL-38130  41.203   6.317  11.036
72871ION    CL-38131  32.269  29.393   3.529
72872ION    CL-38132  15.461   8.100   5.155
72873ION    CL-38133  12.115   6.836  14.086
72874ION    CL-38134  15.817  44.297  13.005
72875ION    CL-38135   9.948  20.913  14.982
72876ION    CL-38136   4.907  21.957   4.096
72877ION    CL-38137  22.188  28.894   2.186
72878ION    CL-38138  13.199  17.020  12.083
72879ION    CL-38139  15.727   5.989   2.386
72880ION    CL-38140   4.345  24.196  10.799
72881ION    CL-38141  34.057  12.200  10.920
72882ION    CL-38142  10.161  37.759  12.635
72883ION    CL-38143   7.700  24.921  13.121
72884ION    CL-38144  19.490  31.063  13.040
72885ION    CL-38145  39.946  22.112  14.370
72886ION    CL-38146  28.016  28.300  13.388
72887ION    CL-38147  27.296  23.799   4.061
72888ION    CL-38148  14.275  25.070   3.135
72889ION    CL-38149  22.183  41.848   0.465
72890ION    CL-38150  41.519  26.028   1.144
72891ION    CL-38151  16.525   1.781   4.490
72892ION    CL-38152  15.286   5.213   1.852
72893ION    CL-38153  42.266  33.211   1.201
72894ION    CL-38154   5.942  19.217   0.891
72895ION    CL-38155  44.119   7.752   3.405
72896ION    CL-38156   0.915   4.879   4.726
72897ION    CL-38157  38.466  12.857  11.960
72898ION    CL-38158  10.546  13.271  12.901
72899ION    CL-38159  17.208  18.886   1.965
72900ION    CL-38160  14.189   9.888   0.194
72901ION    CL-38161  32.402  20.334  12.080
72902ION    CL-38162   0.560  35.955  11.534
72903ION    CL-38163  10.782  41.827   9.852
72904ION    CL-38164  36.924  23.665  14.294
72905ION    CL-38165  38.433  35.363   1.625
72906ION    CL-38166  41.270  28.592   0.563
72907ION    CL-38167  41.371  16.460   4.293
72908ION    CL-38168  31.170   0.165   4.882
72909ION    CL-38169   2.947  23.432   3.771
72910ION    CL-38170   5.801  25.133   1.934
72911ION    CL-38171  29.091  13.150   3.341
72912ION    CL-38172   6.725  41.720   0.279
72913ION    CL-38173  36.403  27.701   3.120
72914ION    CL-38174  39.354  20.956   0.556
72915ION    CL-38175  29.674   5.113  13.277
72916ION    CL-38176  14.517   8.209  10.729
72917ION    CL-38177   7.208   8.086  14.362
72918ION    CL-38178   1.498  28.699   1.552
72919ION    CL-38179  19.143  12.127  14.073
72920ION    CL-38180   7.390  10.793   0.584
72921ION    CL-38181  20.093  13.494   0.875
72922ION    CL-38182  36.218  38.688  14.106
72923ION    CL-38183  12.127   6.189  11.558
72924ION    CL-38184  43.293   4.766   3.495
72925ION    CL-38185  26.930   7.972   5.023
72926ION    CL-38186  14.698  36.014   0.549
72927ION    CL-38187  14.760  35.426   2.495
72928ION    CL-38188  12.826  29.426  11.445
72929ION    CL-38189  18.629  43.568   0.039
72930ION    CL-38190  30.097  43.241  12.608
72931ION    CL-38191  21.601  10.272  12.810
72932ION    CL-38192  16.648  32.642  12.118
72933ION    CL-38193  20.486  16.222   0.663
72934ION    CL-38194  37.321   6.869  14.396
72935ION    CL-38195  33.530  25.714  12.078
72936ION    CL-38196   7.207  41.924   1.477
72937ION    CL-38197   6.481  15.617   3.778
72938ION    CL-38198  33.541  32.961  11.971
72939ION    CL-38199   8.966  20.576  12.558
72940ION    CL-38200  10.619  44.857   2.091
72941ION    CL-38201  43.390  11.448   0.947
72942ION    CL-38202  38.564  33.946   3.244
72943ION    CL-38203   8.220  12.763   3.329
72944ION    CL-38204  15.223  40.472  11.361
72945ION    CL-38205  13.662  34.450   2.820
72946ION    CL-38206  38.911  24.178  10.422
72947ION    CL-38207  34.462  40.011  12.522
72948ION    CL-38208  26.412  22.703   1.490
72949ION    CL-38209  40.832   4.117  10.376
72950ION    CL-38210  35.842  25.130  14.976
72951ION    CL-38211  34.389  34.185   2.272
72952ION    CL-38212  13.469  35.402   0.864
72953ION    CL-38213  12.325  27.187   2.190
72954ION    CL-38214  40.350  23.206   4.150
72955ION    CL-38215   2.379   3.767   0.886
72956ION    CL-38216  29.991  35.811   1.297
72957ION    CL-38217  22.007   6.580   2.584
72958ION    CL-38218  29.418   4.372  10.464
72959ION    CL-38219  29.706  35.107   5.107
72960ION    CL-38220   9.291  29.023  13.393
72961ION    CL-38221   7.385  18.652  14.738
72962ION    CL-38222   3.694  25.658  12.520
72963ION    CL-38223   6.850   9.118   3.223
72964ION    CL-38224  41.005  39.809   2.363
72965ION    CL-38225  24.332  14.700  12.948
72966ION    CL-38226  25.437  43.902   3.694
72967ION    CL-38227   2.819  43.367   0.068
72968ION    CL-38228  25.930   4.633  11.942
72969ION    CL-38229  36.942   2.381  11.392
72970ION    CL-38230  29.402   1.930   9.998
72971ION    CL-38231   4.009  19.096   3.802
72972ION    CL-38232   9.074  28.228   3.608
72973ION    CL-38233  40.079  41.947  11.109
72974ION    CL-38234   8.392  29.300   1.480
72975ION    CL-38235  13.162  10.383   0.814
72976ION    CL-38236   6.573  40.831   0.233
72977ION    CL-38237   8.106  33.599   1.996
72978ION    CL-38238  26.224  12.700   1.350
72979ION    CL-38239   0.373  12.829  12.155
72980ION    CL-38240  35.539  18.452   3.119
72981ION    CL-38241   3.635  27.561  14.031
72982ION    CL-38242  12.423  24.726  14.902
72983ION    CL-38243  24.720  13.538   3.530
72984ION    CL-38244  31.134   1.146  10.974
72985ION    CL-38245   5.741  42.514  11.205
72986ION    CL-38246  26.510  33.590   0.022
72987ION    CL-38247  29.913  41.467  13.521
72988ION    CL-38248  30.263  29.923  10.154
72989ION    CL-38249  24.909  24.261  13.654
72990ION    CL-38250  39.533   5.381  11.197
72991ION    CL-38251   4.646  15.287  14.555
72992ION    CL-38252  43.090  18.253   3.975
72993ION    CL-38253   5.508   4.924   4.479
72994ION    CL-38254  37.085  25.056   0.215
72995ION    CL-38255   2.679  19.129  13.840
72996ION    CL-38256  24.296  33.482   0.405
72997ION    CL-38257  12.880  17.015   3.703
72998ION    CL-38258  21.090  29.005  12.023
72999ION    CL-38259  35.597  20.905   1.313
73000ION    CL-38260  44.744  24.231   3.277
73001ION    CL-38261  28.763  40.211   4.309
73002ION    CL-38262  23.466  44.541   2.234
73003ION    CL-38263  42.387  22.524   0.761
73004ION    CL-38264  20.815  37.558  13.077
73005ION    CL-38265  30.989  43.864   4.220
73006ION    CL-38266  42.007  34.046  13.779
73007ION    CL-38267  43.944  30.638   4.962
73008ION    CL-38268  22.613  32.527   1.800
73009ION    CL-38269  38.668  29.684   0.470
73010ION    CL-38270  22.090  23.866  14.469
73011ION    CL-38271  18.328  29.293  14.188
73012ION    CL-38272  20.736  44.660   2.336
73013ION    CL-38273  14.848  25.527  10.814
73014ION    CL-38274  43.117   2.248   4.633
73015ION    CL-38275  44.001  20.812  14.790
73016ION    CL-38276  40.932  33.316   4.194
73017ION    CL-38277   4.754  20.931  13.628
73018ION    CL-38278  24.987  18.410   0.876
73019ION    CL-38279  28.664  20.880   0.850
73020ION    CL-38280  32.019  10.629  11.399
73021ION    CL-38281  41.525  14.290  14.356
73022ION    CL-38282  31.035   4.543  11.029
73023ION    CL-38283   1.365  29.609  11.206
73024ION    CL-38284  13.866  16.802  13.753
73025ION    CL-38285  19.007  36.220   4.120
73026ION    CL-38286  20.936  17.093   3.257
73027ION    CL-38287  18.849   3.723  12.466
73028ION    CL-38288   0.681  39.645  14.859
73029ION    CL-38289   9.664  36.561   1.975
73030ION    CL-38290   8.492   0.575   0.524
73031ION    CL-38291  32.824   6.699  11.823
73032ION    CL-38292  13.999  12.824  11.502
73033ION    CL-38293   3.772  25.384   5.480
73034ION    CL-38294  22.587  37.076   2.495
73035ION    CL-38295  15.530  20.751   4.942
73036ION    CL-38296  24.760  43.598  11.500
73037ION    CL-38297  35.672  32.957  11.166
73038ION    CL-38298   2.378  15.354  13.933
73039ION    CL-38299   5.606  40.127  11.896
73040ION    CL-38300  44.295  40.310  12.409
73041ION    CL-38301   3.549  16.801   2.184
73042ION    CL-38302  19.543  17.064  10.732
73043ION    CL-38303  10.959  20.957  14.728
73044ION    CL-38304   3.189  35.971   3.019
73045ION    CL-38305  14.876  40.275   3.110
73046ION    CL-38306  43.318  26.024  11.593
73047ION    CL-38307  19.723   3.357   1.748
73048ION    CL-38308  40.914  29.467  10.553
73049ION    CL-38309   2.688   4.317   0.233
73050ION    CL-38310  22.550  34.866  11.912
73051ION    CL-38311  39.713  22.843   4.580
73052ION    CL-38312  22.517  11.400  12.786
73053ION    CL-38313   9.105  39.804  11.043
73054ION    CL-38314   6.404  36.060   3.162
73055ION    CL-38315  12.310  17.311  11.013
73056ION    CL-38316  17.066  27.272   2.653
73057ION    CL-38317   0.846   5.205  14.853
73058ION    CL-38318   9.777   8.368   0.535
73059ION    CL-38319  24.487   7.654  13.953
73060ION    CL-38320  33.109  24.695   1.296
73061ION    CL-38321  11.832  40.631   0.269
73062ION    CL-38322  44.869   7.907   2.650
73063ION    CL-38323  15.413  33.600   1.043
73064ION    CL-38324  19.011  18.836  13.183
73065ION    CL-38325   0.915  23.476   0.441
73066ION    CL-38326  34.867  40.932  11.576
73067ION    CL-38327  24.837  16.616  11.360
73068ION    CL-38328  36.567  30.733  10.024
73069ION    CL-38329  16.208  17.214   4.740
73070ION    CL-38330  32.740  19.804   0.257
73071ION    CL-38331   0.984  36.514   3.084
73072ION    CL-38332  23.642  11.879   0.121
73073ION    CL-38333  17.490  41.629  12.984
73074ION    CL-38334  44.020  33.138   4.833
73075ION    CL-38335  36.235  21.310  13.624
73076ION    CL-38336  10.245  22.202  13.536
73077ION    CL-38337  44.202  39.678  11.306
73078ION    CL-38338  29.302  31.177   4.814
73079ION    CL-38339  17.371  29.596  14.293
73080ION    CL-38340  12.012  23.275   4.026
73081ION    CL-38341  26.923  20.367   2.976
73082ION    CL-38342  32.260  44.275   0.699
73083ION    CL-38343  16.935   9.100   0.375
73084ION    CL-38344  14.825  12.361  11.993
73085ION    CL-38345   1.312   1.296  10.617
73086ION    CL-38346   8.584  41.174   3.756
73087ION    CL-38347  31.576  25.755  13.928
73088ION    CL-38348  21.418  33.679   1.456
73089ION    CL-38349  21.561   2.174   1.468
73090ION    CL-38350  33.211   9.694  12.947
73091ION    CL-38351  19.486  21.972  12.058
73092ION    CL-38352  29.245   3.470   2.242
73093ION    CL-38353  38.840  29.400   1.489
73094ION    CL-38354  32.898  25.910   3.785
73095ION    CL-38355  31.161  21.568  10.062
73096ION    CL-38356   0.227  10.468  10.936
73097ION    CL-38357   6.119  11.387   0.058
73098ION    CL-38358  24.009  29.375   2.736
73099ION    CL-38359   7.137  41.218   1.039
73100ION    CL-38360  36.556  23.631   0.122
73101ION    CL-38361  27.706   7.122   0.171
73102ION    CL-38362   2.949  22.884  14.118
73103ION    CL-38363   2.406  40.459   1.885
73104ION    CL-38364  24.795  28.395  12.541
73105ION    CL-38365  40.371  40.365  11.739
73106ION    CL-38366  20.930  17.611   2.238
73107ION    CL-38367  39.015  37.284  12.777
73108ION    CL-38368  38.248  31.487   0.231
73109ION    CL-38369  35.747  24.187  13.535
73110ION    CL-38370   8.089   8.674  13.196
73111ION    CL-38371  36.877  17.212   1.718
73112ION    CL-38372  16.891  37.383   1.724
73113ION    CL-38373  20.747   7.735   1.712
73114ION    CL-38374   2.930  32.386   4.197
73115ION    CL-38375  22.121  34.134   0.503
73116ION    CL-38376  11.906  28.439  13.723
73117ION    CL-38377  24.215   2.027  14.566
73118ION    CL-38378  10.737  40.690   2.851
73119ION    CL-38379   7.606  17.041  13.200
73120ION    CL-38380  25.618  24.698  12.119
73121ION    CL-38381   3.119  28.214   2.581
73122ION    CL-38382  16.024  21.414   3.710
73123ION    CL-38383  39.267  21.234  11.061
73124ION    CL-38384  12.558  35.831  11.219
73125ION    CL-38385  39.450   6.341  11.481
73126ION    CL-38386  18.806  34.398  10.303
73127ION    CL-38387  25.169  27.960   2.396
73128ION    CL-38388   1.800  43.260   3.681
73129ION    CL-38389   0.421  16.624   0.027
73130ION    CL-38390  10.377   5.674   1.374
73131ION    CL-38391  21.863  17.252   2.268
73132ION    CL-38392  40.406  37.752   4.048
73133ION    CL-38393  16.373   6.493   3.341
73134ION    CL-38394  22.641  13.354  12.622
73135ION    CL-38395   2.475  21.650  13.449
73136ION    CL-38396  43.943  26.894   2.986
73137ION    CL-38397   2.460  37.416  13.546
73138ION    CL-38398  35.173  41.559  13.086
73139ION    CL-38399  30.418   8.003   3.187
73140ION    CL-38400  26.050  18.776   2.236
73141ION    CL-38401   9.219   8.232  14.832
73142ION    CL-38402  13.776  43.987  14.129
73143ION    CL-38403  16.953  25.789   3.612
73144ION    CL-38404  31.715  30.415   1.225
73145ION    CL-38405  39.983   0.229  13.822
73146ION    CL-38406  42.262  20.417  11.274
73147ION    CL-38407  32.419  38.716   3.399
73148ION    CL-38408   3.911  41.064   0.531
73149ION    CL-38409   7.599  41.645  12.206
73150ION    CL-38410  12.984  28.529  11.985
73151ION    CL-38411  15.939  14.554  12.771
73152ION    CL-38412  13.004  27.400   5.117
73153ION    CL-38413  25.396  40.604  11.588
73154ION    CL-38414   6.099  44.814  11.238
73155ION    CL-38415  29.649  22.380  12.478
73156ION    CL-38416  44.249  20.754   1.652
73157ION    CL-38417   7.914  40.988  10.779
73158ION    CL-38418  13.644  25.270  13.530
73159ION    CL-38419   1.453  42.005  13.015
73160ION    CL-38420  26.351  31.224  13.502
73161ION    CL-38421  18.039  27.597  13.940
73162ION    CL-38422  26.102   0.659   1.263
73163ION    CL-38423  31.099  11.929   4.985
73164ION    CL-38424  23.978  22.168   3.913
73165ION    CL-38425  34.929  34.992  12.837
73166ION    CL-38426  11.194   5.844  11.455
73167ION    CL-38427  23.193   5.211  10.634
73168ION    CL-38428   9.593  37.376   1.399
73169ION    CL-38429  22.366  37.601  12.247
73170ION    CL-38430  14.485   0.560  14.175
73171ION    CL-38431  31.178  23.171  11.773
73172ION    CL-38432   5.695  36.321   4.512
73173ION    CL-38433   9.325  27.914  10.776
73174ION    CL-38434  21.454   1.901  13.160
73175ION    CL-38435  25.578  12.806  14.750
73176ION    CL-38436   4.983   4.025  13.676
73177ION    CL-38437   5.450   3.088  13.916
73178ION    CL-38438  32.600  24.296   3.070
73179ION    CL-38439  25.500   2.939   3.238
73180ION    CL-38440  15.454   3.417   4.817
73181ION    CL-38441  34.026  23.684   3.712
73182ION    CL-38442  30.131  29.265  11.294
73183ION    CL-38443  20.246  14.937  12.238
73184ION    CL-38444   5.841   1.480  11.425
73185ION    CL-38445  39.042  18.016   0.821
73186ION    CL-38446  13.253  19.164   4.870
73187ION    CL-38447   0.914  22.795   1.580
73188ION    CL-38448  44.349  33.656   1.913
73189ION    CL-38449  31.128  33.547  13.997
73190ION    CL-38450  29.505  37.462   0.217
73191ION    CL-38451  11.429  19.710  13.461
73192ION    CL-38452   8.160   5.392   2.343
73193ION    CL-38453  36.188  40.054  12.876
73194ION    CL-38454  12.756   4.644   1.454
73195ION    CL-38455  12.615   3.664  14.994
73196ION    CL-38456   1.982   0.325   4.701
73197ION    CL-38457   6.822  26.134  13.077
73198ION    CL-38458  39.491  17.204  11.145
73199ION    CL-38459  23.465  15.883  11.265
73200ION    CL-38460  16.956   1.378  12.450
73201ION    CL-38461  26.786  21.868  12.977
73202ION    CL-38462  24.983  22.748   4.544
73203ION    CL-38463  41.965  30.379  13.419
73204ION    CL-38464  22.167  33.937  13.897
73205ION    CL-38465  11.416   2.263   0.067
73206ION    CL-38466  40.975  18.580   5.089
73207ION    CL-38467  15.042  21.749  13.738
73208ION    CL-38468   5.482   4.986   1.358
73209ION    CL-38469  29.037  27.712  12.065
73210ION    CL-38470   6.699  11.645   1.264
73211ION    CL-38471  23.918  14.578   4.897
73212ION    CL-38472  13.480  32.521  14.972
73213ION    CL-38473  35.680  40.371  14.720
73214ION    CL-38474   5.425  15.448  12.069
73215ION    CL-38475   8.953   8.392  12.750
73216ION    CL-38476  28.064   4.313  14.793
73217ION    CL-38477  15.834  43.440  14.512
73218ION    CL-38478  35.652  17.583  11.701
73219ION    CL-38479  31.461  40.383  13.048
73220ION    CL-38480  40.836  21.096  12.669
73221ION    CL-38481  31.346  10.166   2.451
73222ION    CL-38482  37.233  41.433  11.206
73223ION    CL-38483   3.410  24.043   4.413
73224ION    CL-38484  13.447  18.202   4.842
73225ION    CL-38485  15.446   6.980  12.083
73226ION    CL-38486  36.261   5.811  12.851
73227ION    CL-38487  30.525  24.778  13.410
73228ION    CL-38488  36.339  28.740  12.498
73229ION    CL-38489   9.642  42.284  14.863
73230ION    CL-38490  24.141  26.416  13.107
73231ION    CL-38491  16.827   4.237   2.696
73232ION    CL-38492  40.892  35.011   0.053
73233ION    CL-38493  12.975  44.565  12.965
73234ION    CL-38494  23.586  35.841   4.066
73235ION    CL-38495   7.061  24.474  11.025
73236ION    CL-38496  37.707   6.556  10.273
73237ION    CL-38497   0.468  22.299  12.934
73238ION    CL-38498  20.697  21.643   1.316
73239ION    CL-38499  15.403  19.223   1.823
73240ION    CL-38500  10.402  31.573   4.944
73241ION    CL-38501  12.047  31.321   0.456
73242ION    CL-38502   2.651  11.689  11.642
73243ION    CL-38503  28.311  43.951   1.473
73244ION    CL-38504  20.024  37.164   1.028
73245ION    CL-38505   3.129  32.932   1.830
73246ION    CL-38506  13.534  42.925   1.668
73247ION    CL-38507   0.505  15.347   5.289
73248ION    CL-38508   9.893  34.518  14.035
73249ION    CL-38509  42.975  27.763   5.100
73250ION    CL-38510   8.323  31.879  12.064
73251ION    CL-38511  17.578   9.757  14.739
73252ION    CL-38512  16.196  16.310   4.909
73253ION    CL-38513  26.059  11.439  12.996
73254ION    CL-38514  38.830  20.633  14.383
73255ION    CL-38515  19.393  32.645  13.215
73256ION    CL-38516  24.151   1.710  10.271
73257ION    CL-38517  44.554  30.333   2.952
73258ION    CL-38518  14.191  44.706  10.346
73259ION    CL-38519  13.364  25.711   2.519
73260ION    CL-38520  20.429   7.965   4.178
73261ION    CL-38521  42.080  35.830   2.482
73262ION    CL-38522  36.696   0.332   3.515
73263ION    CL-38523  33.861  31.856  11.639
73264ION    CL-38524  43.036  20.121   1.571
73265ION    CL-38525   3.793  31.292   0.341
73266ION    CL-38526  33.041  42.924  13.809
73267ION    CL-38527  19.712  39.261  14.380
73268ION    CL-38528  35.999   2.839   2.422
73269ION    CL-38529  37.170  20.102  14.582
73270ION    CL-38530  19.140   0.069  11.893
73271ION    CL-38531   6.678  38.427  11.632
73272ION    CL-38532  16.447   1.907   0.173
73273ION    CL-38533   4.845   3.216   2.025
73274ION    CL-38534  22.955   9.526  11.611
73275ION    CL-38535  33.175  43.451   1.670
73276ION    CL-38536  42.031  22.515   4.073
73277ION    CL-38537  12.433  22.358  12.854
73278ION    CL-38538  13.137  19.410  14.054
73279ION    CL-38539  21.861  12.064  13.945
73280ION    CL-38540  39.335  27.165   4.437
73281ION    CL-38541  40.806  36.951  12.031
73282ION    CL-38542  15.007  38.859  13.878
73283ION    CL-38543  43.449  22.787  13.912
73284ION    CL-38544  32.579  16.140   0.926
73285ION    CL-38545  41.392  28.210   4.860
73286ION    CL-38546  43.977   7.869  12.883
73287ION    CL-38547  35.490  35.316  11.427
73288ION    CL-38548  31.984  43.870   1.648
73289ION    CL-38549  16.034  26.840  10.846
73290ION    CL-38550  32.143  29.076  11.199
73291ION    CL-38551  18.311  33.400   3.102
73292ION    CL-38552  36.580  20.343  11.286
73293ION    CL-38553   0.320  23.855  11.545
73294ION    CL-38554  23.029   2.174   1.716
73295ION    CL-38555  24.069  25.660   4.758
73296ION    CL-38556  41.118  33.302  12.895
73297ION    CL-38557  40.595  40.999   1.108
73298ION    CL-38558   7.725  18.508   2.713
73299ION    CL-38559  42.605  41.249   9.923
73300ION    CL-38560  39.433  43.112  12.719
73301ION    CL-38561  13.726  15.324  14.063
73302ION    CL-38562  38.252  17.407  11.992
73303ION    CL-38563  35.974  42.917   3.721
73304ION    CL-38564  36.512  36.901  11.487
73305ION    CL-38565  17.803  37.190   1.362
73306ION    CL-38566   4.459  17.493   2.846
73307ION    CL-38567  36.281  20.462   1.705
73308ION    CL-38568   3.940  23.129   1.869
73309ION    CL-38569  39.312   8.106   4.219
73310ION    CL-38570  28.483  42.427  11.936
73311ION    CL-38571  28.460  31.632  11.286
73312ION    CL-38572  20.105  32.987  10.986
73313ION    CL-38573  26.178  11.099   5.030
73314ION    CL-38574  44.792  33.491   3.268
73315ION    CL-38575  29.035  44.120  11.059
73316ION    CL-38576  16.603  33.349   4.171
73317ION    CL-38577   8.744  25.582  10.825
73318ION    CL-38578  19.495  30.609   0.775
73319ION    CL-38579  27.733  15.776   1.154
73320ION    CL-38580  42.106   8.387   1.649
73321ION    CL-38581  33.038  25.998   2.794
73322ION    CL-38582  14.554  21.001   2.960
73323ION    CL-38583  20.182  28.071   4.248
73324ION    CL-38584  38.032   7.098   1.816
73325ION    CL-38585   2.305  22.179   4.474
73326ION    CL-38586  11.180  18.495  13.375
73327ION    CL-38587  37.347  26.260   4.736
73328ION    CL-38588   1.333  19.120  11.073
73329ION    CL-38589  29.597  19.726   3.366
73330ION    CL-38590  31.819   8.773   0.673
73331ION    CL-38591  30.049  22.697   4.294
73332ION    CL-38592  20.755  37.973   0.630
73333ION    CL-38593  26.778  36.529   1.450
73334ION    CL-38594  38.927  33.023   2.498
73335ION    CL-38595  26.715  20.774  12.745
73336ION    CL-38596  22.441  16.362  14.817
73337ION    CL-38597  41.579   3.872  13.063
73338ION    CL-38598  19.118   2.745   1.191
73339ION    CL-38599  11.056  34.584  14.788
73340ION    CL-38600  18.574  43.318   1.005
73341ION    CL-38601  34.814  29.458   1.747
73342ION    CL-38602  36.272   9.759  11.894
73343ION    CL-38603  15.738   6.268  13.143
73344ION    CL-38604   0.465  34.005  10.464
73345ION    CL-38605  39.876  10.339  11.895
73346ION    CL-38606  21.157  26.567   2.941
73347ION    CL-38607   6.263  39.408   3.711
73348ION    CL-38608  41.514  36.310   3.254
73349ION    CL-38609  21.476  12.977   3.335
73350ION    CL-38610  44.505   1.459  14.138
73351ION    CL-38611  28.628   8.165   1.366
73352ION    CL-38612  18.674  21.602   2.397
73353ION    CL-38613  28.315   1.905   1.225
73354ION    CL-38614  43.797   1.996  12.986
73355ION    CL-38615   9.399  34.123  11.988
73356ION    CL-38616  21.350   1.372  12.112
73357ION    CL-38617  21.532  34.888   4.490
73358ION    CL-38618  31.492  29.425   4.158
73359ION    CL-38619   5.590  17.489   1.021
73360ION    CL-38620  29.731   5.158  11.058
73361ION    CL-38621  14.246   4.471  12.726
73362ION    CL-38622   0.228   5.943   3.262
73363ION    CL-38623  24.292  35.377   2.609
73364ION    CL-38624  38.411  33.983   1.038
73365ION    CL-38625  18.042   3.427   4.588
73366ION    CL-38626  31.709  38.330  11.013
73367ION    CL-38627   9.156  37.207  11.708
73368ION    CL-38628  31.671  37.773   1.142
73369ION    CL-38629  37.977  27.654  11.591
73370ION    CL-38630  42.890  42.250   0.018
73371ION    CL-38631  21.288   5.062   1.934
73372ION    CL-38632  23.837  32.541   0.340
73373ION    CL-38633   2.650  41.211   1.522
73374ION    CL-38634  44.609  24.480   4.078
73375ION    CL-38635  14.560  40.782  14.082
73376ION    CL-38636  37.408   8.404  11.579
73377ION    CL-38637  41.803   8.540   5.079
73378ION    CL-38638  14.591   2.547   0.001
73379ION    CL-38639  25.078  18.909  12.124
73380ION    CL-38640  33.061  15.623   2.160
73381ION    CL-38641  12.261  21.597  14.298
73382ION    CL-38642  35.992  17.717   1.715
73383ION    CL-38643  18.114  12.031   0.470
73384ION    CL-38644   2.641  24.892  14.805
73385ION    CL-38645  24.607  37.210  12.996
73386ION    CL-38646  11.830  39.646  13.349
73387ION    CL-38647   2.557   6.954   3.194
73388ION    CL-38648  36.706  12.151   0.402
73389ION    CL-38649  23.110  36.066   1.215
73390ION    CL-38650  25.631  35.885   1.330
73391ION    CL-38651  29.878   2.577  11.282
73392ION    CL-38652  25.776  21.547  11.799
73393ION    CL-38653  17.818  35.145   1.450
73394ION    CL-38654  39.413  17.680   4.108
73395ION    CL-38655  23.565   3.040  13.394
73396ION    CL-38656  19.503  43.171   3.548
73397ION    CL-38657  38.585   0.897   2.178
73398ION    CL-38658  15.111  21.443  10.797
73399ION    CL-38659  23.433  41.993   0.415
73400ION    CL-38660  33.779  29.765  13.063
73401ION    CL-38661  31.399  35.649   2.248
73402ION    CL-38662  30.475  13.164  12.440
73403ION    CL-38663   1.165   3.977   0.883
73404ION    CL-38664  18.258  32.140   0.730
73405ION    CL-38665  35.298  37.136   1.665
73406ION    CL-38666  34.481  33.735   0.228
73407ION    CL-38667  41.570   7.098   4.419
73408ION    CL-38668  36.674  37.809  11.103
73409ION    CL-38669  17.114  27.977   5.344
73410ION    CL-38670  17.600   8.483   2.617
73411ION    CL-38671   2.712  41.943   4.989
73412ION    CL-38672  37.327  27.184  10.675
73413ION    CL-38673  23.267  42.826  11.018
73414ION    CL-38674   8.956  17.473   1.938
73415ION    CL-38675  14.794  14.557  14.274
73416ION    CL-38676  44.344  27.484  10.924
73417ION    CL-38677   9.228  30.680   4.595
73418ION    CL-38678   1.968  34.151  13.151
73419ION    CL-38679  36.723  35.248   4.933
73420ION    CL-38680  31.664  28.665   2.501
73421ION    CL-38681  41.354   5.700   2.161
73422ION    CL-38682  39.193  16.174   4.394
73423ION    CL-38683  11.580  16.887   1.165
73424ION    CL-38684  43.271  35.523   0.883
73425ION    CL-38685  32.391   9.102   1.305
73426ION    CL-38686   4.296  41.004  13.904
73427ION    CL-38687   5.370  34.753  13.415
73428ION    CL-38688  27.011  32.719   2.859
73429ION    CL-38689  43.752  28.352  13.939
73430ION    CL-38690  14.835   4.535   2.944
73431ION    CL-38691   4.388  14.758  11.183
73432ION    CL-38692   5.002  12.877   3.295
73433ION    CL-38693  35.372  15.965   0.974
73434ION    CL-38694  18.294   2.507  14.523
73435ION    CL-38695  19.056  24.408  12.158
73436ION    CL-38696  19.961  13.162   0.144
73437ION    CL-38697  17.936  21.290   3.566
73438ION    CL-38698  14.611  28.217   1.455
73439ION    CL-38699  43.054   6.949   0.977
73440ION    CL-38700  33.019  14.427   2.883
73441ION    CL-38701  37.415  26.590  14.682
73442ION    CL-38702  11.391  19.344   4.509
73443ION    CL-38703  12.825   0.339  13.393
73444ION    CL-38704  40.017   5.871   4.182
73445ION    CL-38705   8.581   3.673   0.483
73446ION    CL-38706  39.886  11.375  10.700
73447ION    CL-38707  11.341  28.847  12.077
73448ION    CL-38708   3.719  42.937  11.147
73449ION    CL-38709  21.158  16.678  12.425
73450ION    CL-38710  39.250  36.638  11.061
73451ION    CL-38711  10.474  14.442  12.499
73452ION    CL-38712  36.391  33.632   3.181
73453ION    CL-38713  32.782  41.049   3.115
73454ION    CL-38714   1.955  23.666   2.573
73455ION    CL-38715  40.640   7.986  11.750
73456ION    CL-38716  40.932  35.617  11.808
73457ION    CL-38717  22.147  21.132  13.430
73458ION    CL-38718   2.861  22.058   2.825
73459ION    CL-38719  26.064  35.968  11.865
73460ION    CL-38720  33.167  20.276  10.672
73461ION    CL-38721  30.206  39.336  14.523
73462ION    CL-38722   3.260  29.913   3.731
73463ION    CL-38723  23.970   5.522   1.908
73464ION    CL-38724  35.121  15.663   3.612
73465ION    CL-38725  12.555  12.050   4.487
73466ION    CL-38726  42.583  35.098  12.575
73467ION    CL-38727  40.088  44.235  13.788
73468ION    CL-38728  30.530  42.572  11.515
73469ION    CL-38729   7.231  11.978   5.019
73470ION    CL-38730  10.092  35.511   0.840
73471ION    CL-38731   5.171  33.421  14.894
73472ION    CL-38732   4.882  40.991   0.175
73473ION    CL-38733   3.986   5.341   1.824
73474ION    CL-38734  43.850  32.580   2.006
73475ION    CL-38735  33.413  20.265   0.717
73476ION    CL-38736  38.266  17.525   3.537
73477ION    CL-38737   5.806   8.842   2.268
73478ION    CL-38738  16.429  18.154   4.528
73479ION    CL-38739   4.950  14.377   1.398
73480ION    CL-38740  18.627   5.045   3.103
73481ION    CL-38741  42.256   7.989   4.981
73482ION    CL-38742   3.442  30.352  11.932
73483ION    CL-38743  32.024  38.468   5.060
73484ION    CL-38744  44.510  35.988   3.775
73485ION    CL-38745  20.976  12.282  14.404
73486ION    CL-38746  26.773  44.568  14.943
73487ION    CL-38747  15.683  15.820   2.212
73488ION    CL-38748  13.853  27.055   2.954
73489ION    CL-38749   4.463  29.121  11.554
73490ION    CL-38750  12.164   6.797   0.084
73491ION    CL-38751  31.342   3.558   3.774
73492ION    CL-38752  43.465   5.597  11.842
73493ION    CL-38753   6.158  33.325   9.686
73494ION    CL-38754  34.588   6.167  12.401
73495ION    CL-38755   5.138   0.029  13.926
73496ION    CL-38756  21.603   7.072   0.822
73497ION    CL-38757   0.304  15.686  14.701
73498ION    CL-38758   5.045   8.250   4.587
73499ION    CL-38759  33.511  17.557   4.357
73500ION    CL-38760  39.426   5.232  10.214
73501ION    CL-38761  34.094  41.947   0.271
73502ION    CL-38762  18.463   3.198   3.174
73503ION    CL-38763  32.407  28.021  13.558
73504ION    CL-38764   4.404  37.426  10.704
73505ION    CL-38765  26.403  28.854   2.872
73506ION    CL-38766  37.379  16.295  11.333
73507ION    CL-38767   9.879  36.667   0.163
73508ION    CL-38768  40.830  23.585   0.896
73509ION    CL-38769  18.891  22.669  10.700
73510ION    CL-38770  17.125  28.030  13.135
73511ION    CL-38771  41.165  38.616   4.543
73512ION    CL-38772  23.996  29.727   0.856
73513ION    CL-38773  28.269  12.736  13.586
73514ION    CL-38774  31.061  17.481  12.972
73515ION    CL-38775  38.859  25.209  13.799
73516ION    CL-38776  38.462  14.175   0.886
73517ION    CL-38777  44.438  41.699   2.923
73518ION    CL-38778  32.943  32.578   1.653
73519ION    CL-38779  12.694  41.623  11.398
73520ION    CL-38780   5.993  44.684  12.491
73521ION    CL-38781  18.317  28.296   0.584
73522ION    CL-38782   8.316  11.020  12.307
73523ION    CL-38783   7.932  19.835  10.694
73524ION    CL-38784  31.952  26.599   1.666
73525ION    CL-38785  44.704  43.690   0.669
73526ION    CL-38786   6.938  36.410  12.359
73527ION    CL-38787  19.300  37.434  14.765
73528ION    CL-38788  27.627   8.137   1.362
73529ION    CL-38789  38.265   3.888  12.938
73530ION    CL-38790  40.240  42.779   3.789
73531ION    CL-38791   7.874   7.677   5.011
73532ION    CL-38792  20.438   4.486  12.450
73533ION    CL-38793  24.428  32.608  14.536
73534ION    CL-38794  19.510   1.492   3.706
73535ION    CL-38795  19.321  25.723  12.592
73536ION    CL-38796  28.255   7.701  14.747
73537ION    CL-38797  27.471   0.842   0.287
73538ION    CL-38798  35.887  43.760   3.080
73539ION    CL-38799  36.969   7.153  12.845
73540ION    CL-38800  17.437  37.621   0.649
73541ION    CL-38801  35.975  17.594  10.755
73542ION    CL-38802  11.470  43.353  13.407
73543ION    CL-38803   3.558  28.055   3.465
73544ION    CL-38804   1.143  19.942  12.431
73545ION    CL-38805  24.184  41.573   3.173
73546ION    CL-38806  25.731   5.172   2.844
73547ION    CL-38807  26.243  42.708   1.304
73548ION    CL-38808  41.533  26.185   3.942
73549ION    CL-38809  44.512   7.870  10.786
73550ION    CL-38810  36.631   6.067  11.633
73551ION    CL-38811   8.104  35.203   3.108
73552ION    CL-38812  19.259  31.567   3.170
73553ION    CL-38813  19.764  21.610   0.879
73554ION    CL-38814   1.575  11.177  14.207
73555ION    CL-38815   4.708  24.501  12.150
73556ION    CL-38816   3.395  12.364  11.991
73557ION    CL-38817  37.593  23.755  12.893
73558ION    CL-38818  39.790  14.236   4.702
73559ION    CL-38819  35.452  10.545   4.513
73560ION    CL-38820  15.668  13.713   1.544
73561ION    CL-38821  16.780  22.609  13.369
73562ION    CL-38822  10.625  24.464  13.730
73563ION    CL-38823  25.743   1.650  12.417
73564ION    CL-38824  15.896  20.785  12.421
73565ION    CL-38825  17.054  12.426  13.373
73566ION    CL-38826  23.839  34.902   5.119
73567ION    CL-38827   5.810  31.572  11.630
73568ION    CL-38828   6.490  17.511   5.141
73569ION    CL-38829  34.557  31.162   3.844
73570ION    CL-38830   8.208  36.001   1.246
73571ION    CL-38831   9.585  32.818  14.862
73572ION    CL-38832  32.936  36.956   1.596
73573ION    CL-38833  16.092   6.579  14.314
73574ION    CL-38834   3.739  12.420  13.670
73575ION    CL-38835  35.124  39.060   1.416
73576ION    CL-38836  37.569  35.827  12.858
73577ION    CL-38837   9.126  11.945  12.435
73578ION    CL-38838  10.178  38.898   3.121
73579ION    CL-38839   7.117  21.512   2.863
73580ION    CL-38840  37.448  16.686  13.079
73581ION    CL-38841  44.566  35.849  11.556
73582ION    CL-38842  28.922  27.181  13.926
73583ION    CL-38843  23.886  11.839   1.092
73584ION    CL-38844  35.608  24.276  12.417
73585ION    CL-38845  37.917  16.341   0.515
73586ION    CL-38846  29.658  20.018   0.968
73587ION    CL-38847  11.919  22.955   2.547
73588ION    CL-38848  12.184   3.950  11.100
73589ION    CL-38849  23.756  20.061   1.342
73590ION    CL-38850  23.123   3.605  14.606
73591ION    CL-38851  20.510   9.369  12.941
73592ION    CL-38852  11.705  19.457   3.289
73593ION    CL-38853   3.638  10.376   0.914
73594ION    CL-38854   9.715  38.081   0.698
73595ION    CL-38855  20.538   4.247  13.189
73596ION    CL-38856  11.881  15.685  11.488
73597ION    CL-38857  12.192  37.343   0.560
73598ION    CL-38858  19.773   3.662   3.252
73599ION    CL-38859   8.613  14.296   3.640
73600ION    CL-38860   4.237  26.108  13.229
73601ION    CL-38861  14.184  10.374   5.002
73602ION    CL-38862  32.917  40.436  12.446
73603ION    CL-38863  28.146   2.824  12.379
73604ION    CL-38864  28.914  19.865  12.907
73605ION    CL-38865  14.134  21.843   1.723
73606ION    CL-38866  27.691  15.727   4.452
73607ION    CL-38867  10.609  23.196  10.686
73608ION    CL-38868  16.650   2.866   2.244
73609ION    CL-38869   6.813  22.011  11.520
73610ION    CL-38870  26.526  32.570  10.987
73611ION    CL-38871   1.763   8.614  14.272
73612ION    CL-38872  37.155  16.913   4.059
73613ION    CL-38873   0.131   1.178   3.308
73614ION    CL-38874  40.401  25.051   3.088
73615ION    CL-38875  42.740  30.500   2.394
73616ION    CL-38876  13.868  28.987  11.898
73617ION    CL-38877  41.269  11.395   0.268
73618ION    CL-38878  38.639  33.428   1.702
73619ION    CL-38879  22.934  11.247   1.600
73620ION    CL-38880  17.195  32.417   0.782
73621ION    CL-38881  24.316  22.075   4.863
73622ION    CL-38882  36.328  19.770  14.511
73623ION    CL-38883   8.456  16.355   3.315
73624ION    CL-38884  24.615   3.305  11.771
73625ION    CL-38885  43.640  22.079  11.192
73626ION    CL-38886  37.748   7.600  12.404
73627ION    CL-38887  39.953   3.313   0.498
73628ION    CL-38888  17.571  36.693  10.447
73629ION    CL-38889  38.659  35.802   4.629
73630ION    CL-38890  41.272  39.616   0.484
73631ION    CL-38891  31.543  18.345   2.466
73632ION    CL-38892  33.874  39.248  12.790
73633ION    CL-38893  28.657  34.581  11.541
73634ION    CL-38894  43.593  25.518   5.457
73635ION    CL-38895  41.447  28.626  12.877
73636ION    CL-38896  35.932  25.174   2.035
73637ION    CL-38897  25.912   2.909   4.766
73638ION    CL-38898  36.578  27.592  12.868
73639ION    CL-38899  41.035   8.879  12.067
73640ION    CL-38900  18.570   0.536  13.187
73641ION    CL-38901  33.651  15.683  11.485
73642ION    CL-38902   3.021   3.306   2.241
73643ION    CL-38903  21.678  15.156  12.631
73644ION    CL-38904  44.994  42.669   1.376
73645ION    CL-38905  39.455  43.809  14.434
73646ION    CL-38906  20.203   6.859   4.280
73647ION    CL-38907  26.122  20.423   2.071
73648ION    CL-38908  18.091  38.601  12.993
73649ION    CL-38909  37.644  28.663   2.678
73650ION    CL-38910   6.598  14.267   1.607
73651ION    CL-38911   1.460   1.854  11.845
73652ION    CL-38912  15.130  29.428  14.611
73653ION    CL-38913  20.958  15.424  14.522
73654ION    CL-38914   7.623  29.924   1.761
73655ION    CL-38915  44.826   9.813   1.702
73656ION    CL-38916   5.035  20.492   3.953
73657ION    CL-38917  27.180   8.975  12.018
73658ION    CL-38918  12.006  17.675  13.101
73659ION    CL-38919   8.562   2.442   4.223
73660ION    CL-38920  38.587  12.771   3.247
73661ION    CL-38921  43.885   3.309   0.787
73662ION    CL-38922   6.756  14.972   4.542
73663ION    CL-38923  42.963  38.806   0.839
73664ION    CL-38924  21.186  34.740  12.844
73665ION    CL-38925  20.336  32.642   2.702
73666ION    CL-38926   8.640  33.722   0.661
73667ION    CL-38927  24.799  19.335   3.789
73668ION    CL-38928  12.503  10.499  12.246
73669ION    CL-38929  35.105   4.922  14.764
73670ION    CL-38930   0.349   7.679  11.890
73671ION    CL-38931   7.308   8.288   3.543
73672ION    CL-38932  30.702   8.317   2.398
73673ION    CL-38933  16.187  24.358   1.487
73674ION    CL-38934  37.942   5.549   3.520
73675ION    CL-38935  25.504  33.981   4.661
73676ION    CL-38936   7.733  22.305   3.248
73677ION    CL-38937   4.238  26.531   0.834
73678ION    CL-38938  12.692   0.797  10.252
73679ION    CL-38939   1.842  14.291   0.413
73680ION    CL-38940  44.858  18.162   1.450
73681ION    CL-38941  43.146   3.456   5.104
73682ION    CL-38942  23.523  31.506   2.253
73683ION    CL-38943  34.471  26.712  12.460
73684ION    CL-38944  18.098  30.575   3.714
73685ION    CL-38945  17.211  40.050   5.035
73686ION    CL-38946  15.923  11.886  14.845
73687ION    CL-38947  31.838  18.606  14.842
73688ION    CL-38948   6.928  23.558   0.838
73689ION    CL-38949  19.943  26.430  14.765
73690ION    CL-38950  41.204  34.111   3.555
73691ION    CL-38951  28.103   8.496  11.409
73692ION    CL-38952  11.394  28.436  11.025
73693ION    CL-38953   6.409   1.375   3.907
73694ION    CL-38954  16.187   2.751  12.645
73695ION    CL-38955  16.535   9.972  11.318
73696ION    CL-38956  13.435   4.783  12.629
73697ION    CL-38957  26.167  42.479  12.102
73698ION    CL-38958  14.536  36.624  13.879
73699ION    CL-38959  41.323   9.996  13.594
73700ION    CL-38960   0.153  33.999  11.414
73701ION    CL-38961  37.162  28.817   1.756
73702ION    CL-38962  26.001  35.712  14.974
73703ION    CL-38963  36.395  43.647  13.818
73704ION    CL-38964   5.503  12.680   2.421
73705ION    CL-38965  34.225  14.125   0.868
73706ION    CL-38966  13.098  10.325  13.058
73707ION    CL-38967   2.043  14.121  13.762
73708ION    CL-38968   6.569  34.131   4.690
73709ION    CL-38969  18.675   0.835   4.696
73710ION    CL-38970  32.932   4.300  12.426
73711ION    CL-38971   1.081  42.888   2.797
73712ION    CL-38972  25.898   3.460   1.524
73713ION    CL-38973   2.673  10.304  13.340
73714ION    CL-38974  35.790  34.276  14.493
73715ION    CL-38975   9.628  15.978  12.933
73716ION    CL-38976  15.783  39.809   1.272
73717ION    CL-38977   9.271   3.722   2.887
73718ION    CL-38978  30.956   2.462   5.201
73719ION    CL-38979  35.403   4.801  11.108
73720ION    CL-38980  28.125  23.589  13.689
73721ION    CL-38981  15.081  27.585   3.257
73722ION    CL-38982  40.058   2.414  14.392
73723ION    CL-38983   4.528  30.900   2.622
73724ION    CL-38984   6.361   2.841  14.929
73725ION    CL-38985  17.700  37.625   3.008
73726ION    CL-38986  22.312  13.639  14.068
73727ION    CL-38987  27.081  33.830  11.968
73728ION    CL-38988   6.633  32.521   2.682
73729ION    CL-38989  23.445  19.372   4.796
73730ION    CL-38990   8.877   1.448   0.823
73731ION    CL-38991  27.150  26.703   2.188
73732ION    CL-38992  37.022  22.604  14.125
73733ION    CL-38993  23.489  21.476   1.359
73734ION    CL-38994   0.764   1.140  12.107
73735ION    CL-38995  34.266  12.824  13.020
73736ION    CL-38996  38.989  42.648  13.825
73737ION    CL-38997  34.450  18.010   3.383
73738ION    CL-38998  23.572  43.012   1.849
73739ION    CL-38999   7.384  38.360   0.393
73740ION    CL-39000   2.079  12.252  11.438
73741ION    CL-39001  24.107   8.861   3.783
73742ION    CL-39002   5.304  27.420   3.656
73743ION    CL-39003  13.483   1.252   3.730
73744ION    CL-39004  33.389  43.381   4.080
73745ION    CL-39005   6.157  25.458   0.562
73746ION    CL-39006  27.181   7.625   4.119
73747ION    CL-39007  28.720  17.167  12.698
73748ION    CL-39008  12.569   6.332  13.101
73749ION    CL-39009  33.266  44.951  10.399
73750ION    CL-39010  41.608  16.234  12.530
73751ION    CL-39011  41.035  36.342   1.575
73752ION    CL-39012  12.859   7.434  13.789
73753ION    CL-39013  32.976  33.948   4.563
73754ION    CL-39014  19.612  39.116   4.948
73755ION    CL-39015  39.841  23.440  11.235
73756ION    CL-39016  27.026  35.098   1.284
73757ION    CL-39017   3.637   8.376  11.132
73758ION    CL-39018  16.571  20.385  14.887
73759ION    CL-39019  14.365  27.531  14.381
73760ION    CL-39020  28.248  13.342   1.188
73761ION    CL-39021  34.541  24.610   2.418
73762ION    CL-39022  17.626  33.084  13.623
73763ION    CL-39023  34.645  29.901   3.839
73764ION    CL-39024  17.931  44.293  10.985
73765ION    CL-39025  42.924  18.139  14.507
73766ION    CL-39026  27.044   6.084  10.953
73767ION    CL-39027   5.219  38.445   3.985
73768ION    CL-39028  23.077  33.801   1.516
73769ION    CL-39029   1.902  13.870   3.221
73770ION    CL-39030  32.124  21.478  12.693
73771ION    CL-39031  38.244  13.039   1.627
73772ION    CL-39032   7.074  35.595  10.773
73773ION    CL-39033  24.469  29.847  11.555
73774ION    CL-39034  43.077  43.023   2.704
73775ION    CL-39035  36.928  33.241  12.940
73776ION    CL-39036  27.713  12.390   4.622
73777ION    CL-39037   9.692  37.348  13.501
73778ION    CL-39038  43.486  15.781   4.197
73779ION    CL-39039  21.934  40.457   3.200
73780ION    CL-39040  19.559  36.612   0.331
73781ION    CL-39041  18.582   3.106  13.718
73782ION    CL-39042  28.302  33.326   1.300
73783ION    CL-39043   5.446  41.912   3.266
73784ION    CL-39044  18.664  37.307   2.052
73785ION    CL-39045  44.071   4.657   4.113
73786ION    CL-39046  22.633  41.381  12.153
73787ION    CL-39047  13.897  35.456   4.133
73788ION    CL-39048  32.564   7.456   3.724
73789ION    CL-39049  10.822  23.795  12.135
73790ION    CL-39050  20.839  30.190  11.571
73791ION    CL-39051  37.037  39.773  13.323
73792ION    CL-39052  35.095  44.753  12.059
73793ION    CL-39053  16.607  25.459   4.744
73794ION    CL-39054  42.828  34.708   0.277
73795ION    CL-39055  23.888  33.353  11.140
73796ION    CL-39056  34.841  44.773  14.027
73797ION    CL-39057  40.954   3.273  12.552
73798ION    CL-39058  33.099   3.266   3.855
73799ION    CL-39059  39.816  43.572  11.786
73800ION    CL-39060  21.533  16.518   2.698
73801ION    CL-39061  36.867   8.802   2.779
73802ION    CL-39062  19.340  30.297   2.764
73803ION    CL-39063  38.143  23.152  14.456
73804ION    CL-39064  38.890  22.073   0.872
73805ION    CL-39065   5.640  38.749   0.307
73806ION    CL-39066  22.000  30.631  13.446
73807ION    CL-39067   0.496  25.470   2.332
73808ION    CL-39068   8.058   0.912  14.689
73809ION    CL-39069  29.518  37.493   2.296
73810ION    CL-39070  38.579   8.334  13.910
73811ION    CL-39071  27.082   2.613  13.653
73812ION    CL-39072  25.915  44.808  13.094
73813ION    CL-39073  13.333   1.912   3.196
73814ION    CL-39074  12.282   7.628   1.028
73815ION    CL-39075  30.386  21.095   1.131
73816ION    CL-39076  28.649  41.400  14.640
73817ION    CL-39077   4.358   4.277  10.333
73818ION    CL-39078  23.957  27.000   0.734
73819ION    CL-39079  27.913   8.660   3.887
73820ION    CL-39080  22.057  24.502   2.889
73821ION    CL-39081  19.289  29.678  14.076
73822ION    CL-39082  12.662   8.185  14.225
73823ION    CL-39083  40.541  26.149  10.524
73824ION    CL-39084   9.544   5.438   2.226
73825ION    CL-39085  29.743  28.020   4.019
73826ION    CL-39086   6.337  32.898  12.822
73827ION    CL-39087  21.091  29.785   4.625
73828ION    CL-39088  41.971  25.496  14.241
73829ION    CL-39089  27.754  36.200  10.689
73830ION    CL-39090  34.928  14.516   0.413
73831ION    CL-39091   1.738  44.476  11.579
73832ION    CL-39092  21.075   7.920   0.779
73833ION    CL-39093  33.429  16.568   4.787
73834ION    CL-39094  40.269  35.444   2.114
73835ION    CL-39095   4.389  41.704  12.205
73836ION    CL-39096  13.925   4.412   2.868
73837ION    CL-39097  13.144  14.550  12.018
73838ION    CL-39098   5.932  22.245   1.319
73839ION    CL-39099  33.686  21.414   4.007
73840ION    CL-39100  37.256  15.842  12.495
73841ION    CL-39101  13.073  38.460   4.374
73842ION    CL-39102  19.169  25.705   0.509
73843ION    CL-39103  32.769  18.950  14.970
73844ION    CL-39104   1.835  41.378   2.885
73845ION    CL-39105  35.935   1.679  14.588
73846ION    CL-39106  22.131  14.188  13.252
73847ION    CL-39107  40.267   5.263   3.146
73848ION    CL-39108  19.657  38.050  10.624
73849ION    CL-39109   9.029   8.232  11.592
73850ION    CL-39110   9.024  33.406   1.529
73851ION    CL-39111   1.751  14.859   3.091
73852ION    CL-39112  26.313   9.327  10.577
73853ION    CL-39113  39.561  26.101  14.034
73854ION    CL-39114  30.245  16.096   1.137
73855ION    CL-39115   3.039  14.188  13.816
73856ION    CL-39116  27.425   6.687   0.931
73857ION    CL-39117  33.530  17.120  10.648
73858ION    CL-39118   7.916  39.519  12.529
73859ION    CL-39119  24.212  19.050   5.734
73860ION    CL-39120  36.586  18.704  14.764
73861ION    CL-39121   3.287  38.824   0.954
73862ION    CL-39122  20.061  12.896   3.812
73863ION    CL-39123  44.832  40.902   4.019
73864ION    CL-39124   5.340  31.554   4.751
73865ION    CL-39125  12.329  22.821  12.206
73866ION    CL-39126  28.703  36.148  13.485
73867ION    CL-39127  13.376  15.204   2.509
73868ION    CL-39128  22.950  37.140  10.940
73869ION    CL-39129  18.406   7.412   4.934
73870ION    CL-39130  41.168  36.234   2.413
73871ION    CL-39131  36.532  29.478   3.352
73872ION    CL-39132  43.677  18.470   2.177
73873ION    CL-39133   8.078  33.164  11.962
73874ION    CL-39134  16.063  26.898  14.179
73875ION    CL-39135  31.876  33.996  12.680
73876ION    CL-39136  12.486  43.381   4.046
73877ION    CL-39137  23.108  11.253  11.465
73878ION    CL-39138  37.433   4.767  14.903
73879ION    CL-39139   4.706  15.210  13.650
73880ION    CL-39140  32.349  30.285   5.102
73881ION    CL-39141  31.608   1.965   0.728
73882ION    CL-39142   6.184  21.178   2.325
73883ION    CL-39143  16.185  32.248  13.276
73884ION    CL-39144  15.413  23.538  12.446
73885ION    CL-39145  41.605  38.702  11.408
73886ION    CL-39146  25.191  22.529  14.133
73887ION    CL-39147  12.644  34.425  13.672
73888ION    CL-39148   4.885   9.207  12.091
73889ION    CL-39149  24.289   3.904  13.389
73890ION    CL-39150  36.909  34.588   4.310
73891ION    CL-39151  25.222  27.088  12.004
73892ION    CL-39152  21.065  19.176  12.841
73893ION    CL-39153  43.801  22.554   0.279
73894ION    CL-39154  19.836   4.056  12.875
73895ION    CL-39155  43.831  38.384  13.955
73896ION    CL-39156   5.780   7.527   4.833
73897ION    CL-39157  39.568   7.620   3.291
73898ION    CL-39158  38.759   5.648   4.368
73899ION    CL-39159  32.562  12.658   4.640
73900ION    CL-39160   8.398  33.665   5.063
73901ION    CL-39161  18.147  37.945  13.176
73902ION    CL-39162  41.056   7.300  11.154
73903ION    CL-39163   9.162  29.594   1.289
73904ION    CL-39164  15.976   5.523  10.382
73905ION    CL-39165  19.808  13.904   0.148
73906ION    CL-39166  41.606  41.854   5.368
73907ION    CL-39167   3.210  27.458   1.677
73908ION    CL-39168   6.617  18.668  10.764
73909ION    CL-39169  22.079  23.632   2.588
73910ION    CL-39170  25.617  42.616   3.964
73911ION    CL-39171   8.477  33.289  12.745
73912ION    CL-39172  33.021   3.894   1.848
73913ION    CL-39173   4.695  11.648   2.786
73914ION    CL-39174  30.728   5.516  11.045
73915ION    CL-39175  44.430  25.917   2.102
73916ION    CL-39176   5.826  39.932  12.761
73917ION    CL-39177  34.953   1.694   2.811
73918ION    CL-39178  10.296  36.763   4.095
73919ION    CL-39179   3.633  22.021  12.472
73920ION    CL-39180   8.019  41.804   5.025
73921ION    CL-39181   9.568  44.674  13.662
73922ION    CL-39182   2.679  33.190  14.143
73923ION    CL-39183  29.524  26.253   4.981
73924ION    CL-39184   4.658  44.022   3.723
73925ION    CL-39185  29.930  36.899   3.292
73926ION    CL-39186   7.383   8.530  10.270
73927ION    CL-39187   3.015  17.334   4.272
73928ION    CL-39188  34.505  36.824   0.220
73929ION    CL-39189   5.037   5.707   1.917
73930ION    CL-39190  10.900  29.080   3.277
73931ION    CL-39191  28.961  11.707   1.900
73932ION    CL-39192   6.042  30.707  14.206
73933ION    CL-39193  43.466  23.099   3.094
73934ION    CL-39194  26.785  13.450  13.337
73935ION    CL-39195  11.577  29.026   0.408
73936ION    CL-39196  30.476  18.471  13.576
73937ION    CL-39197  44.705  11.361   2.117
73938ION    CL-39198  24.829  19.753  11.623
73939ION    CL-39199  26.978   9.381   0.023
73940ION    CL-39200   8.998   9.871   2.783
73941ION    CL-39201   3.377   2.430  13.051
73942ION    CL-39202  40.856  10.916   4.555
73943ION    CL-39203  41.395   3.715  11.199
73944ION    CL-39204  41.335  29.729  11.422
73945ION    CL-39205  24.692  23.250  14.613
73946ION    CL-39206  18.806  26.277   1.379
73947ION    CL-39207  18.388  44.470   4.048
73948ION    CL-39208  21.624  35.589   0.533
73949ION    CL-39209  12.705  25.105   2.429
73950ION    CL-39210  18.058  19.509  13.804
73951ION    CL-39211   9.099  43.722   5.080
73952ION    CL-39212  40.116  15.608  11.210
73953ION    CL-39213  30.801  11.017   4.704
73954ION    CL-39214  34.337  16.649   1.904
73955ION    CL-39215  26.664   7.657   0.969
73956ION    CL-39216  30.733   0.384  10.465
73957ION    CL-39217  26.282   3.952  13.457
73958ION    CL-39218  32.493  33.617  13.252
73959ION    CL-39219  27.929  17.825  12.585
73960ION    CL-39220  36.247   1.824  13.649
73961ION    CL-39221   3.193  41.273  14.732
73962ION    CL-39222  21.026   0.816  12.877
73963ION    CL-39223   0.643  16.723  12.372
73964ION    CL-39224  18.834   6.226  11.453
73965ION    CL-39225   6.377  28.204   2.297
73966ION    CL-39226  21.686   1.232  13.733
73967ION    CL-39227   0.182   1.842   1.357
73968ION    CL-39228  36.063  11.757   2.366
73969ION    CL-39229  43.980  25.118   4.131
73970ION    CL-39230   0.139  13.466  12.753
73971ION    CL-39231  37.520  25.550   2.704
73972ION    CL-39232  42.315   2.940  13.455
73973ION    CL-39233   2.538  26.153  11.657
73974ION    CL-39234  20.936  29.042   1.828
73975ION    CL-39235  37.282  18.249   3.878
73976ION    CL-39236  36.471  28.463   3.573
73977ION    CL-39237  25.953  29.132  14.416
73978ION    CL-39238  10.469  18.483   3.325
73979ION    CL-39239  29.183   2.881  14.639
73980ION    CL-39240  15.844  17.567   2.730
73981ION    CL-39241  20.784   7.141  13.577
73982ION    CL-39242  17.041  10.859   2.064
73983ION    CL-39243  15.025  19.735  10.754
73984ION    CL-39244  16.240  44.581   2.275
73985ION    CL-39245  13.250  15.608   9.924
73986ION    CL-39246  33.649  28.098   1.004
73987ION    CL-39247   6.692  28.672   0.242
73988ION    CL-39248  17.569  19.711   2.402
73989ION    CL-39249  40.333  18.721   2.372
73990ION    CL-39250  12.729  12.309  14.923
73991ION    CL-39251  16.425  13.566   1.101
73992ION    CL-39252  41.563  30.853   4.939
73993ION    CL-39253  41.508  28.486   1.529
73994ION    CL-39254  36.823  25.798  14.271
73995ION    CL-39255   7.843  38.024   1.216
73996ION    CL-39256  23.597  32.376  11.101
73997ION    CL-39257  37.136   3.378   2.701
73998ION    CL-39258  44.408  22.848  13.100
73999ION    CL-39259  35.136  27.619  10.607
74000ION    CL-39260  26.384  11.503  12.053
74001ION    CL-39261  44.375  37.964  11.885
74002ION    CL-39262   7.008  18.670   0.491
74003ION    CL-39263  30.626   6.288   5.182
74004ION    CL-39264  41.774  11.148  10.234
74005ION    CL-39265  17.250   2.832  13.016
74006ION    CL-39266   8.731  19.538   4.900
74007ION    CL-39267  28.635  28.158  14.570
74008ION    CL-39268  11.441  39.074  12.578
74009ION    CL-39269   9.813  44.060  11.424
74010ION    CL-39270  19.514  21.646   3.791
74011ION    CL-39271  40.481  19.671  13.490
74012ION    CL-39272  31.915  17.789  14.270
74013ION    CL-39273  39.585  17.903  14.275
74014ION    CL-39274  10.872  43.003   0.800
74015ION    CL-39275  19.575  41.972   0.815
74016ION    CL-39276   4.720   4.571  12.213
74017ION    CL-39277  20.717   3.815  11.140
74018ION    CL-39278  12.177  42.811   1.270
74019ION    CL-39279  10.350   1.703   3.627
74020ION    CL-39280  32.898  32.822  12.762
74021ION    CL-39281  12.751  40.897  13.308
74022ION    CL-39282   3.967  20.523  14.414
74023ION    CL-39283  16.251  34.566   0.341
74024ION    CL-39284  38.753  23.109  10.587
74025ION    CL-39285  38.368  31.852   2.646
74026ION    CL-39286  43.262  14.284   2.480
74027ION    CL-39287  43.613  41.589   3.746
74028ION    CL-39288  26.912   2.268  14.928
74029ION    CL-39289  17.209  24.542   2.660
74030ION    CL-39290  41.613   2.932  14.801
74031ION    CL-39291   7.772  43.074   1.515
74032ION    CL-39292  28.572  11.938  13.865
74033ION    CL-39293  19.989  24.750  12.041
74034ION    CL-39294  16.437  16.627  12.788
74035ION    CL-39295  28.163  43.787   3.275
74036ION    CL-39296  19.746  36.673   2.517
74037ION    CL-39297  12.523   1.521   3.660
74038ION    CL-39298  24.130  42.479  13.601
74039ION    CL-39299  19.710   6.101   4.320
74040ION    CL-39300  39.062   8.345  12.735
74041ION    CL-39301  35.387  25.243  12.167
74042ION    CL-39302   8.267  10.165  10.155
74043ION    CL-39303  31.105   3.164   2.363
74044ION    CL-39304   2.558  30.997   2.254
74045ION    CL-39305  27.715  24.958   4.337
74046ION    CL-39306  11.596  33.585  13.534
74047ION    CL-39307  34.611  25.102   0.173
74048ION    CL-39308  34.569  31.653   5.016
74049ION    CL-39309  10.729  18.791  11.194
74050ION    CL-39310  40.484  32.703   0.102
74051ION    CL-39311  41.468  39.274  12.107
74052ION    CL-39312  15.739  41.799  11.580
74053ION    CL-39313  21.179  33.983  14.043
74054ION    CL-39314  32.930  36.521  12.119
74055ION    CL-39315  37.885  41.476   3.443
74056ION    CL-39316   8.437  30.284   1.305
74057ION    CL-39317  38.094  15.750   3.316
74058ION    CL-39318   4.069  17.149   0.194
74059ION    CL-39319   8.428  23.214   1.514
74060ION    CL-39320  26.815   4.730  12.075
74061ION    CL-39321  41.748  20.152  13.960
74062ION    CL-39322  30.898  21.500  13.400
74063ION    CL-39323  41.367  27.509   5.004
74064ION    CL-39324   9.395  40.174  12.542
74065ION    CL-39325   8.134   9.618  11.872
74066ION    CL-39326   4.094  15.706   2.084
74067ION    CL-39327  26.923   9.160   4.213
74068ION    CL-39328  36.620   8.275  12.455
74069ION    CL-39329  17.025   5.430   1.302
74070ION    CL-39330  38.552  27.314   3.834
74071ION    CL-39331  24.721  42.836  12.146
74072ION    CL-39332  10.946  13.100  14.330
74073ION    CL-39333   2.699  23.568   0.749
74074ION    CL-39334   3.944  41.562  11.079
74075ION    CL-39335  32.697  35.634  11.721
74076ION    CL-39336   3.391  36.488  12.039
74077ION    CL-39337  16.214  13.955  13.858
74078ION    CL-39338  40.339  12.099   1.472
74079ION    CL-39339  27.697  36.881  10.492
74080ION    CL-39340   3.882  21.057   4.104
74081ION    CL-39341  43.466  37.002   3.705
74082ION    CL-39342  43.260   7.991  12.393
  45.00000  45.00000  15.00000
